Protein in water
17150
    1LEU      N    1   3.300   3.413   1.413
    1LEU     H1    2   3.264   3.317   1.417
    1LEU     H2    3   3.235   3.470   1.359
    1LEU     H3    4   3.388   3.410   1.364
    1LEU     CA    5   3.319   3.467   1.550
    1LEU     HA    6   3.393   3.402   1.598
    1LEU     CB    7   3.377   3.609   1.552
    1LEU    HB1    8   3.345   3.662   1.642
    1LEU    HB2    9   3.339   3.665   1.466
    1LEU     CG   10   3.531   3.606   1.550
    1LEU     HG   11   3.564   3.538   1.471
    1LEU    CD1   12   3.589   3.744   1.522
    1LEU   HD11   13   3.697   3.736   1.507
    1LEU   HD12   14   3.543   3.786   1.433
    1LEU   HD13   15   3.570   3.811   1.606
    1LEU    CD2   16   3.586   3.559   1.685
    1LEU   HD21   17   3.695   3.559   1.680
    1LEU   HD22   18   3.555   3.626   1.765
    1LEU   HD23   19   3.555   3.457   1.708
    1LEU      C   20   3.196   3.453   1.639
    1LEU      O   21   3.203   3.376   1.734
    2ILE      N   22   3.085   3.526   1.615
    2ILE      H   23   3.085   3.592   1.539
    2ILE     CA   24   2.970   3.533   1.710
    2ILE     HA   25   3.005   3.586   1.799
    2ILE     CB   26   2.852   3.614   1.651
    2ILE     HB   27   2.831   3.576   1.551
    2ILE    CG2   28   2.723   3.602   1.735
    2ILE   HG21   29   2.641   3.656   1.688
    2ILE   HG22   30   2.690   3.498   1.742
    2ILE   HG23   31   2.738   3.641   1.836
    2ILE    CG1   32   2.894   3.762   1.642
    2ILE   HG11   33   2.992   3.768   1.596
    2ILE   HG12   34   2.901   3.804   1.743
    2ILE     CD   35   2.798   3.847   1.559
    2ILE    HD1   36   2.835   3.949   1.552
    2ILE    HD2   37   2.787   3.806   1.459
    2ILE    HD3   38   2.701   3.850   1.608
    2ILE      C   39   2.923   3.396   1.758
    2ILE      O   40   2.916   3.374   1.879
    3LEU      N   41   2.896   3.304   1.664
    3LEU      H   42   2.899   3.332   1.568
    3LEU     CA   43   2.852   3.167   1.693
    3LEU     HA   44   2.753   3.172   1.738
    3LEU     CB   45   2.846   3.087   1.560
    3LEU    HB1   46   2.889   2.988   1.576
    3LEU    HB2   47   2.908   3.136   1.485
    3LEU     CG   48   2.705   3.069   1.502
    3LEU     HG   49   2.658   3.166   1.487
    3LEU    CD1   50   2.715   3.000   1.366
    3LEU   HD11   51   2.615   2.983   1.325
    3LEU   HD12   52   2.769   3.064   1.297
    3LEU   HD13   53   2.767   2.904   1.374
    3LEU    CD2   54   2.616   2.982   1.591
    3LEU   HD21   55   2.517   2.971   1.545
    3LEU   HD22   56   2.661   2.884   1.607
    3LEU   HD23   57   2.601   3.029   1.687
    3LEU      C   58   2.943   3.095   1.793
    3LEU      O   59   2.894   3.035   1.888
    4LEU      N   60   3.075   3.108   1.776
    4LEU      H   61   3.106   3.170   1.703
    4LEU     CA   62   3.177   3.044   1.860
    4LEU     HA   63   3.162   2.936   1.858
    4LEU     CB   64   3.316   3.079   1.801
    4LEU    HB1   65   3.361   3.161   1.858
    4LEU    HB2   66   3.304   3.116   1.699
    4LEU     CG   67   3.414   2.961   1.796
    4LEU     HG   68   3.370   2.883   1.734
    4LEU    CD1   69   3.543   3.009   1.730
    4LEU   HD11   70   3.612   2.925   1.722
    4LEU   HD12   71   3.523   3.047   1.630
    4LEU   HD13   72   3.590   3.088   1.789
    4LEU    CD2   73   3.448   2.904   1.933
    4LEU   HD21   74   3.519   2.822   1.922
    4LEU   HD22   75   3.492   2.981   1.997
    4LEU   HD23   76   3.358   2.864   1.980
    4LEU      C   77   3.166   3.091   2.005
    4LEU      O   78   3.164   3.011   2.099
    5VAL      N   79   3.152   3.223   2.024
    5VAL      H   80   3.151   3.282   1.943
    5VAL     CA   81   3.133   3.283   2.157
    5VAL     HA   82   3.209   3.246   2.225
    5VAL     CB   83   3.149   3.436   2.147
    5VAL     HB   84   3.081   3.473   2.070
    5VAL    CG1   85   3.115   3.508   2.278
    5VAL   HG11   86   3.127   3.615   2.265
    5VAL   HG12   87   3.012   3.490   2.307
    5VAL   HG13   88   3.182   3.474   2.357
    5VAL    CG2   89   3.292   3.473   2.106
    5VAL   HG21   90   3.305   3.581   2.109
    5VAL   HG22   91   3.363   3.429   2.176
    5VAL   HG23   92   3.314   3.437   2.006
    5VAL      C   93   2.997   3.245   2.216
    5VAL      O   94   2.989   3.215   2.334
    6LEU      N   95   2.891   3.241   2.135
    6LEU      H   96   2.903   3.264   2.037
    6LEU     CA   97   2.757   3.203   2.182
    6LEU     HA   98   2.732   3.266   2.267
    6LEU     CB   99   2.655   3.229   2.068
    6LEU    HB1  100   2.644   3.140   2.006
    6LEU    HB2  101   2.695   3.308   2.004
    6LEU     CG  102   2.518   3.276   2.118
    6LEU     HG  103   2.532   3.361   2.185
    6LEU    CD1  104   2.433   3.323   2.000
    6LEU   HD11  105   2.335   3.357   2.034
    6LEU   HD12  106   2.484   3.403   1.947
    6LEU   HD13  107   2.419   3.239   1.931
    6LEU    CD2  108   2.439   3.169   2.193
    6LEU   HD21  109   2.344   3.210   2.225
    6LEU   HD22  110   2.421   3.083   2.128
    6LEU   HD23  111   2.493   3.137   2.282
    6LEU      C  112   2.755   3.057   2.232
    6LEU      O  113   2.710   3.031   2.342
    7VAL      N  114   2.813   2.965   2.155
    7VAL      H  115   2.851   2.994   2.065
    7VAL     CA  116   2.835   2.825   2.196
    7VAL     HA  117   2.740   2.777   2.216
    7VAL     CB  118   2.906   2.749   2.083
    7VAL     HB  119   2.991   2.808   2.048
    7VAL    CG1  120   2.959   2.612   2.128
    7VAL   HG11  121   3.006   2.564   2.042
    7VAL   HG12  122   3.035   2.624   2.205
    7VAL   HG13  123   2.877   2.550   2.165
    7VAL    CG2  124   2.811   2.725   1.965
    7VAL   HG21  125   2.867   2.683   1.881
    7VAL   HG22  126   2.731   2.656   1.994
    7VAL   HG23  127   2.767   2.819   1.932
    7VAL      C  128   2.917   2.819   2.325
    7VAL      O  129   2.875   2.752   2.419
    8LEU      N  130   3.028   2.892   2.335
    8LEU      H  131   3.059   2.944   2.253
    8LEU     CA  132   3.114   2.892   2.453
    8LEU     HA  133   3.143   2.789   2.473
    8LEU     CB  134   3.241   2.972   2.418
    8LEU    HB1  135   3.216   3.077   2.406
    8LEU    HB2  136   3.275   2.935   2.321
    8LEU     CG  137   3.358   2.956   2.516
    8LEU     HG  138   3.362   2.854   2.553
    8LEU    CD1  139   3.490   2.986   2.444
    8LEU   HD11  140   3.574   2.971   2.511
    8LEU   HD12  141   3.502   2.918   2.360
    8LEU   HD13  142   3.490   3.089   2.408
    8LEU    CD2  143   3.348   3.052   2.635
    8LEU   HD21  144   3.438   3.046   2.695
    8LEU   HD22  145   3.336   3.153   2.598
    8LEU   HD23  146   3.263   3.025   2.698
    8LEU      C  147   3.039   2.942   2.578
    8LEU      O  148   3.052   2.882   2.685
    9ILE      N  149   2.955   3.046   2.565
    9ILE      H  150   2.951   3.093   2.475
    9ILE     CA  151   2.867   3.093   2.674
    9ILE     HA  152   2.929   3.113   2.761
    9ILE     CB  153   2.794   3.224   2.636
    9ILE     HB  154   2.746   3.210   2.539
    9ILE    CG2  155   2.686   3.258   2.740
    9ILE   HG21  156   2.641   3.355   2.719
    9ILE   HG22  157   2.606   3.185   2.734
    9ILE   HG23  158   2.729   3.258   2.840
    9ILE    CG1  159   2.894   3.341   2.625
    9ILE   HG11  160   2.979   3.311   2.563
    9ILE   HG12  161   2.934   3.365   2.724
    9ILE     CD  162   2.833   3.467   2.563
    9ILE    HD1  163   2.913   3.537   2.539
    9ILE    HD2  164   2.779   3.442   2.472
    9ILE    HD3  165   2.766   3.515   2.634
    9ILE      C  166   2.768   2.983   2.715
    9ILE      O  167   2.754   2.959   2.834
   10VAL      N  168   2.701   2.917   2.619
   10VAL      H  169   2.718   2.942   2.522
   10VAL     CA  170   2.607   2.807   2.648
   10VAL     HA  171   2.528   2.844   2.713
   10VAL     CB  172   2.541   2.752   2.520
   10VAL     HB  173   2.618   2.728   2.446
   10VAL    CG1  174   2.459   2.624   2.545
   10VAL   HG11  175   2.416   2.590   2.452
   10VAL   HG12  176   2.523   2.544   2.582
   10VAL   HG13  177   2.379   2.644   2.617
   10VAL    CG2  178   2.445   2.854   2.459
   10VAL   HG21  179   2.406   2.817   2.364
   10VAL   HG22  180   2.361   2.873   2.526
   10VAL   HG23  181   2.496   2.948   2.440
   10VAL      C  182   2.677   2.694   2.724
   10VAL      O  183   2.625   2.650   2.827
   11VAL      N  184   2.796   2.651   2.680
   11VAL      H  185   2.832   2.691   2.594
   11VAL     CA  186   2.873   2.545   2.746
   11VAL     HA  187   2.811   2.455   2.750
   11VAL     CB  188   3.000   2.512   2.665
   11VAL     HB  189   3.057   2.603   2.650
   11VAL    CG1  190   3.087   2.411   2.740
   11VAL   HG11  191   3.168   2.378   2.676
   11VAL   HG12  192   3.128   2.456   2.830
   11VAL   HG13  193   3.026   2.325   2.769
   11VAL    CG2  194   2.968   2.449   2.529
   11VAL   HG21  195   3.060   2.443   2.470
   11VAL   HG22  196   2.926   2.350   2.542
   11VAL   HG23  197   2.896   2.510   2.474
   11VAL      C  198   2.908   2.582   2.891
   11VAL      O  199   2.887   2.503   2.982
   12VAL      N  200   2.955   2.705   2.915
   12VAL      H  201   2.970   2.768   2.836
   12VAL     CA  202   2.981   2.755   3.051
   12VAL     HA  203   3.050   2.687   3.101
   12VAL     CB  204   3.046   2.895   3.048
   12VAL     HB  205   2.983   2.962   2.989
   12VAL    CG1  206   3.062   2.956   3.188
   12VAL   HG11  207   3.122   3.046   3.183
   12VAL   HG12  208   2.965   2.979   3.231
   12VAL   HG13  209   3.112   2.885   3.254
   12VAL    CG2  210   3.186   2.891   2.985
   12VAL   HG21  211   3.221   2.994   2.971
   12VAL   HG22  212   3.255   2.838   3.050
   12VAL   HG23  213   3.184   2.841   2.889
   12VAL      C  214   2.852   2.756   3.135
   12VAL      O  215   2.854   2.712   3.249
   13LEU      N  216   2.740   2.799   3.077
   13LEU      H  217   2.746   2.833   2.981
   13LEU     CA  218   2.608   2.798   3.141
   13LEU     HA  219   2.617   2.851   3.235
   13LEU     CB  220   2.508   2.870   3.048
   13LEU    HB1  221   2.414   2.815   3.043
   13LEU    HB2  222   2.547   2.874   2.947
   13LEU     CG  223   2.478   3.012   3.096
   13LEU     HG  224   2.571   3.060   3.127
   13LEU    CD1  225   2.416   3.096   2.985
   13LEU   HD11  226   2.393   3.196   3.022
   13LEU   HD12  227   2.486   3.104   2.903
   13LEU   HD13  228   2.324   3.049   2.949
   13LEU    CD2  229   2.382   3.009   3.214
   13LEU   HD21  230   2.371   3.110   3.253
   13LEU   HD22  231   2.284   2.973   3.182
   13LEU   HD23  232   2.419   2.945   3.294
   13LEU      C  233   2.558   2.657   3.175
   13LEU      O  234   2.491   2.641   3.278
   14VAL      N  235   2.587   2.556   3.093
   14VAL      H  236   2.637   2.578   3.008
   14VAL     CA  237   2.552   2.415   3.121
   14VAL     HA  238   2.448   2.410   3.152
   14VAL     CB  239   2.569   2.328   2.995
   14VAL     HB  240   2.668   2.345   2.952
   14VAL    CG1  241   2.553   2.178   3.024
   14VAL   HG11  242   2.565   2.122   2.932
   14VAL   HG12  243   2.630   2.144   3.093
   14VAL   HG13  244   2.455   2.158   3.068
   14VAL    CG2  245   2.463   2.363   2.889
   14VAL   HG21  246   2.487   2.313   2.796
   14VAL   HG22  247   2.366   2.332   2.924
   14VAL   HG23  248   2.462   2.470   2.871
   14VAL      C  249   2.636   2.361   3.236
   14VAL      O  250   2.581   2.305   3.330
   15LEU      N  251   2.768   2.382   3.232
   15LEU      H  252   2.807   2.430   3.151
   15LEU     CA  253   2.860   2.339   3.337
   15LEU     HA  254   2.851   2.231   3.350
   15LEU     CB  255   3.004   2.375   3.297
   15LEU    HB1  256   3.068   2.369   3.385
   15LEU    HB2  257   3.005   2.479   3.262
   15LEU     CG  258   3.063   2.284   3.188
   15LEU     HG  259   2.994   2.279   3.103
   15LEU    CD1  260   3.195   2.344   3.140
   15LEU   HD11  261   3.236   2.284   3.059
   15LEU   HD12  262   3.178   2.445   3.103
   15LEU   HD13  263   3.266   2.348   3.223
   15LEU    CD2  264   3.088   2.143   3.240
   15LEU   HD21  265   3.123   2.079   3.160
   15LEU   HD22  266   3.160   2.145   3.322
   15LEU   HD23  267   2.995   2.098   3.277
   15LEU      C  268   2.826   2.401   3.473
   15LEU      O  269   2.821   2.330   3.573
   16LEU      N  270   2.797   2.531   3.476
   16LEU      H  271   2.807   2.584   3.390
   16LEU     CA  272   2.760   2.602   3.598
   16LEU     HA  273   2.839   2.585   3.672
   16LEU     CB  274   2.758   2.752   3.562
   16LEU    HB1  275   2.666   2.777   3.508
   16LEU    HB2  276   2.842   2.770   3.495
   16LEU     CG  277   2.776   2.845   3.683
   16LEU     HG  278   2.847   2.801   3.753
   16LEU    CD1  279   2.835   2.977   3.635
   16LEU   HD11  280   2.855   3.040   3.721
   16LEU   HD12  281   2.928   2.958   3.583
   16LEU   HD13  282   2.764   3.028   3.569
   16LEU    CD2  283   2.645   2.876   3.756
   16LEU   HD21  284   2.665   2.945   3.837
   16LEU   HD22  285   2.573   2.920   3.688
   16LEU   HD23  286   2.605   2.785   3.799
   16LEU      C  287   2.628   2.551   3.656
   16LEU      O  288   2.617   2.532   3.778
   17LEU      N  289   2.530   2.520   3.571
   17LEU      H  290   2.546   2.535   3.472
   17LEU     CA  291   2.402   2.462   3.612
   17LEU     HA  292   2.363   2.522   3.695
   17LEU     CB  293   2.304   2.475   3.494
   17LEU    HB1  294   2.331   2.405   3.415
   17LEU    HB2  295   2.314   2.575   3.453
   17LEU     CG  296   2.155   2.457   3.531
   17LEU     HG  297   2.134   2.514   3.622
   17LEU    CD1  298   2.064   2.511   3.421
   17LEU   HD11  299   1.961   2.513   3.457
   17LEU   HD12  300   2.093   2.613   3.395
   17LEU   HD13  301   2.070   2.447   3.333
   17LEU    CD2  302   2.120   2.310   3.554
   17LEU   HD21  303   2.013   2.295   3.539
   17LEU   HD22  304   2.173   2.247   3.484
   17LEU   HD23  305   2.146   2.281   3.655
   17LEU      C  306   2.420   2.319   3.666
   17LEU      O  307   2.364   2.286   3.771
   18LEU      N  308   2.504   2.236   3.601
   18LEU      H  309   2.546   2.269   3.515
   18LEU     CA  310   2.542   2.102   3.649
   18LEU     HA  311   2.452   2.043   3.667
   18LEU     CB  312   2.631   2.033   3.544
   18LEU    HB1  313   2.691   1.956   3.594
   18LEU    HB2  314   2.702   2.106   3.504
   18LEU     CG  315   2.557   1.966   3.428
   18LEU     HG  316   2.489   2.037   3.381
   18LEU    CD1  317   2.659   1.918   3.324
   18LEU   HD11  318   2.607   1.872   3.240
   18LEU   HD12  319   2.716   2.003   3.287
   18LEU   HD13  320   2.727   1.846   3.369
   18LEU    CD2  321   2.478   1.844   3.475
   18LEU   HD21  322   2.436   1.792   3.389
   18LEU   HD22  323   2.544   1.775   3.529
   18LEU   HD23  324   2.397   1.874   3.540
   18LEU      C  325   2.618   2.105   3.783
   18LEU      O  326   2.603   2.012   3.861
   19LEU      N  327   2.698   2.208   3.808
   19LEU      H  328   2.712   2.276   3.734
   19LEU     CA  329   2.776   2.224   3.932
   19LEU     HA  330   2.826   2.130   3.954
   19LEU     CB  331   2.883   2.332   3.905
   19LEU    HB1  332   2.836   2.431   3.904
   19LEU    HB2  333   2.923   2.314   3.805
   19LEU     CG  334   3.003   2.333   4.001
   19LEU     HG  335   3.038   2.231   4.016
   19LEU    CD1  336   3.116   2.414   3.937
   19LEU   HD11  337   3.204   2.412   4.003
   19LEU   HD12  338   3.144   2.369   3.842
   19LEU   HD13  339   3.083   2.516   3.922
   19LEU    CD2  340   2.972   2.399   4.135
   19LEU   HD21  341   3.065   2.413   4.191
   19LEU   HD22  342   2.924   2.495   4.121
   19LEU   HD23  343   2.909   2.333   4.194
   19LEU      C  344   2.683   2.256   4.050
   19LEU      O  345   2.700   2.200   4.159
   20ILE      N  346   2.584   2.343   4.029
   20ILE      H  347   2.577   2.384   3.937
   20ILE     CA  348   2.483   2.381   4.130
   20ILE     HA  349   2.535   2.413   4.220
   20ILE     CB  350   2.401   2.502   4.079
   20ILE     HB  351   2.370   2.483   3.976
   20ILE    CG2  352   2.273   2.526   4.162
   20ILE   HG21  353   2.216   2.610   4.123
   20ILE   HG22  354   2.207   2.439   4.159
   20ILE   HG23  355   2.299   2.546   4.267
   20ILE    CG1  356   2.491   2.627   4.083
   20ILE   HG11  357   2.581   2.608   4.025
   20ILE   HG12  358   2.522   2.647   4.186
   20ILE     CD  359   2.428   2.756   4.028
   20ILE    HD1  360   2.504   2.834   4.024
   20ILE    HD2  361   2.391   2.738   3.927
   20ILE    HD3  362   2.348   2.789   4.093
   20ILE      C  363   2.395   2.262   4.173
   20ILE      O  364   2.366   2.251   4.292
   21LEU      N  365   2.356   2.176   4.078
   21LEU      H  366   2.392   2.191   3.985
   21LEU     CA  367   2.260   2.066   4.097
   21LEU     HA  368   2.170   2.108   4.141
   21LEU     CB  369   2.226   2.005   3.958
   21LEU    HB1  370   2.206   1.899   3.971
   21LEU    HB2  371   2.314   2.012   3.894
   21LEU     CG  372   2.106   2.067   3.885
   21LEU     HG  373   2.122   2.174   3.869
   21LEU    CD1  374   2.087   1.998   3.750
   21LEU   HD11  375   2.001   2.039   3.698
   21LEU   HD12  376   2.176   2.014   3.689
   21LEU   HD13  377   2.073   1.891   3.765
   21LEU    CD2  378   1.978   2.048   3.967
   21LEU   HD21  379   1.889   2.066   3.905
   21LEU   HD22  380   1.977   1.947   4.007
   21LEU   HD23  381   1.976   2.119   4.049
   21LEU      C  382   2.301   1.958   4.198
   21LEU    OC1  383   2.412   1.900   4.183
   21LEU    OC2  384   2.214   1.919   4.277
   22SOL     OW  385   0.210   0.614   0.132
   22SOL    HW1  386   0.118   0.614   0.171
   22SOL    HW2  387   0.205   0.598   0.033
   23SOL     OW  388   0.218   0.282   0.995
   23SOL    HW1  389   0.252   0.247   1.082
   23SOL    HW2  390   0.126   0.248   0.978
   24SOL     OW  391   5.587   0.388   0.635
   24SOL    HW1  392   5.505   0.420   0.683
   24SOL    HW2  393   5.564   0.309   0.578
   25SOL     OW  394   0.572   1.306   1.198
   25SOL    HW1  395   0.485   1.303   1.150
   25SOL    HW2  396   0.590   1.399   1.229
   26SOL     OW  397   1.578   1.519   0.705
   26SOL    HW1  398   1.531   1.490   0.789
   26SOL    HW2  399   1.511   1.523   0.630
   27SOL     OW  400   1.136   0.708   0.690
   27SOL    HW1  401   1.188   0.792   0.675
   27SOL    HW2  402   1.084   0.715   0.775
   28SOL     OW  403   1.775   0.592   0.215
   28SOL    HW1  404   1.745   0.591   0.120
   28SOL    HW2  405   1.737   0.513   0.263
   29SOL     OW  406   0.734   1.138   1.047
   29SOL    HW1  407   0.669   1.174   1.113
   29SOL    HW2  408   0.780   1.213   1.000
   30SOL     OW  409   0.883   0.753   1.822
   30SOL    HW1  410   0.869   0.823   1.893
   30SOL    HW2  411   0.904   0.798   1.735
   31SOL     OW  412   0.684   0.995   0.647
   31SOL    HW1  413   0.754   0.988   0.717
   31SOL    HW2  414   0.610   1.054   0.680
   32SOL     OW  415   0.713   1.155   1.827
   32SOL    HW1  416   0.767   1.232   1.860
   32SOL    HW2  417   0.631   1.190   1.780
   33SOL     OW  418   0.331   1.412   1.065
   33SOL    HW1  419   0.252   1.366   1.024
   33SOL    HW2  420   0.377   1.468   0.997
   34SOL     OW  421   1.454   1.503   1.365
   34SOL    HW1  422   1.513   1.583   1.372
   34SOL    HW2  423   1.380   1.510   1.432
   35SOL     OW  424   0.451   0.384   1.471
   35SOL    HW1  425   0.533   0.327   1.480
   35SOL    HW2  426   0.370   0.329   1.492
   36SOL     OW  427   1.606   0.440   0.748
   36SOL    HW1  428   1.541   0.459   0.675
   36SOL    HW2  429   1.602   0.514   0.816
   37SOL     OW  430   0.222   1.716   0.469
   37SOL    HW1  431   0.241   1.794   0.529
   37SOL    HW2  432   0.296   1.707   0.402
   38SOL     OW  433   1.137   1.338   1.699
   38SOL    HW1  434   1.185   1.333   1.786
   38SOL    HW2  435   1.081   1.256   1.687
   39SOL     OW  436   0.236   1.448   0.539
   39SOL    HW1  437   0.217   1.546   0.536
   39SOL    HW2  438   0.175   1.405   0.605
   40SOL     OW  439   0.287   1.088   0.905
   40SOL    HW1  440   0.277   0.993   0.932
   40SOL    HW2  441   0.220   1.144   0.953
   41SOL     OW  442   0.594   1.796   1.431
   41SOL    HW1  443   0.508   1.774   1.477
   41SOL    HW2  444   0.624   1.888   1.458
   42SOL     OW  445   0.578   0.990   0.146
   42SOL    HW1  446   0.625   1.035   0.071
   42SOL    HW2  447   0.619   1.018   0.233
   43SOL     OW  448   1.603   0.120   1.468
   43SOL    HW1  449   1.631   0.200   1.414
   43SOL    HW2  450   1.573   0.151   1.559
   44SOL     OW  451   0.115   0.663   0.566
   44SOL    HW1  452   0.083   0.571   0.584
   44SOL    HW2  453   0.109   0.718   0.649
   45SOL     OW  454   1.850   1.755   0.335
   45SOL    HW1  455   1.927   1.727   0.392
   45SOL    HW2  456   1.865   1.848   0.301
   46SOL     OW  457   0.036   1.586   0.117
   46SOL    HW1  458   0.015   1.489   0.134
   46SOL    HW2  459   0.011   1.640   0.197
   47SOL     OW  460   1.696   0.923   0.652
   47SOL    HW1  461   1.780   0.871   0.637
   47SOL    HW2  462   1.673   0.975   0.570
   48SOL     OW  463   1.656   1.102   0.434
   48SOL    HW1  464   1.745   1.095   0.389
   48SOL    HW2  465   1.662   1.170   0.508
   49SOL     OW  466   0.121   0.747   1.582
   49SOL    HW1  467   0.216   0.779   1.579
   49SOL    HW2  468   0.059   0.823   1.569
   50SOL     OW  469   0.615   1.395   0.731
   50SOL    HW1  470   0.569   1.307   0.743
   50SOL    HW2  471   0.601   1.428   0.638
   51SOL     OW  472   1.281   1.230   1.422
   51SOL    HW1  473   1.306   1.160   1.355
   51SOL    HW2  474   1.345   1.226   1.499
   52SOL     OW  475   0.821   0.014   0.508
   52SOL    HW1  476   0.867   0.100   0.484
   52SOL    HW2  477   0.722   0.029   0.512
   53SOL     OW  478   0.189   0.955   1.294
   53SOL    HW1  479   0.279   0.915   1.276
   53SOL    HW2  480   0.125   0.927   1.221
   54SOL     OW  481   1.532   1.009   0.203
   54SOL    HW1  482   1.459   0.947   0.233
   54SOL    HW2  483   1.581   1.042   0.283
   55SOL     OW  484   1.180   1.819   1.624
   55SOL    HW1  485   1.186   1.887   1.551
   55SOL    HW2  486   1.197   1.728   1.587
   56SOL     OW  487   0.343   0.245   1.856
   56SOL    HW1  488   0.392   0.330   1.874
   56SOL    HW2  489   0.244   0.261   1.862
   57SOL     OW  490   1.456   1.426   0.933
   57SOL    HW1  491   1.396   1.443   1.011
   57SOL    HW2  492   1.452   1.329   0.908
   58SOL     OW  493   1.636   1.771   0.572
   58SOL    HW1  494   1.627   1.737   0.478
   58SOL    HW2  495   1.630   1.694   0.636
   59SOL     OW  496   0.591   0.715   0.277
   59SOL    HW1  497   0.595   0.803   0.229
   59SOL    HW2  498   0.522   0.719   0.349
   60SOL     OW  499   1.279   0.373   0.935
   60SOL    HW1  500   1.185   0.337   0.940
   60SOL    HW2  501   1.338   0.319   0.995
   61SOL     OW  502   1.584   1.678   0.308
   61SOL    HW1  503   1.682   1.698   0.305
   61SOL    HW2  504   1.551   1.659   0.216
   62SOL     OW  505   0.788   0.609   1.447
   62SOL    HW1  506   0.764   0.582   1.540
   62SOL    HW2  507   0.757   0.539   1.382
   63SOL     OW  508   1.390   0.471   1.677
   63SOL    HW1  509   1.393   0.519   1.765
   63SOL    HW2  510   1.443   0.386   1.684
   64SOL     OW  511   0.951   0.882   1.586
   64SOL    HW1  512   1.008   0.811   1.544
   64SOL    HW2  513   0.896   0.927   1.515
   65SOL     OW  514   0.997   0.399   1.216
   65SOL    HW1  515   0.903   0.416   1.246
   65SOL    HW2  516   0.996   0.350   1.129
   66SOL     OW  517   1.054   0.699   0.421
   66SOL    HW1  518   1.078   0.696   0.518
   66SOL    HW2  519   0.966   0.653   0.407
   67SOL     OW  520   0.088   0.828   0.782
   67SOL    HW1  521   0.173   0.818   0.834
   67SOL    HW2  522   0.036   0.904   0.819
   68SOL     OW  523   0.127   1.886   1.589
   68SOL    HW1  524   0.129   1.854   1.684
   68SOL    HW2  525   0.041   1.857   1.547
   69SOL     OW  526   0.887   0.353   0.207
   69SOL    HW1  527   0.931   0.411   0.139
   69SOL    HW2  528   0.888   0.258   0.176
   70SOL     OW  529   1.691   0.572   1.831
   70SOL    HW1  530   1.663   0.652   1.778
   70SOL    HW2  531   1.719   0.499   1.768
   71SOL     OW  532   1.384   1.144   0.527
   71SOL    HW1  533   1.469   1.128   0.477
   71SOL    HW2  534   1.327   1.210   0.478
   72SOL     OW  535   0.547   0.161   0.909
   72SOL    HW1  536   0.552   0.193   1.003
   72SOL    HW2  537   0.548   0.239   0.847
   73SOL     OW  538   0.992   1.449   0.464
   73SOL    HW1  539   0.959   1.527   0.412
   73SOL    HW2  540   0.966   1.459   0.560
   74SOL     OW  541   0.353   1.815   0.875
   74SOL    HW1  542   0.398   1.726   0.882
   74SOL    HW2  543   0.419   1.887   0.897
   75SOL     OW  544   1.800   1.054   0.882
   75SOL    HW1  545   1.753   1.031   0.797
   75SOL    HW2  546   1.733   1.058   0.957
   76SOL     OW  547   1.222   1.537   1.516
   76SOL    HW1  548   1.212   1.462   1.581
   76SOL    HW2  549   1.154   1.526   1.443
   77SOL     OW  550   0.317   0.962   0.259
   77SOL    HW1  551   0.405   0.982   0.215
   77SOL    HW2  552   0.281   0.877   0.221
   78SOL     OW  553   1.486   0.757   0.718
   78SOL    HW1  554   1.484   0.712   0.807
   78SOL    HW2  555   1.568   0.815   0.712
   79SOL     OW  556   0.471   1.272   1.731
   79SOL    HW1  557   0.446   1.278   1.634
   79SOL    HW2  558   0.388   1.265   1.786
   80SOL     OW  559   1.106   1.775   0.218
   80SOL    HW1  560   1.036   1.729   0.273
   80SOL    HW2  561   1.143   1.711   0.151
   81SOL     OW  562   0.203   0.263   1.501
   81SOL    HW1  563   0.121   0.320   1.495
   81SOL    HW2  564   0.180   0.175   1.541
   82SOL     OW  565   1.619   1.386   0.098
   82SOL    HW1  566   1.585   1.477   0.073
   82SOL    HW2  567   1.553   1.317   0.071
   83SOL     OW  568   0.463   1.736   0.315
   83SOL    HW1  569   0.506   1.798   0.381
   83SOL    HW2  570   0.533   1.698   0.255
   84SOL     OW  571   1.401   0.100   0.446
   84SOL    HW1  572   1.390   0.075   0.349
   84SOL    HW2  573   1.498   0.112   0.466
   85SOL     OW  574   0.257   1.790   1.217
   85SOL    HW1  575   0.304   1.708   1.251
   85SOL    HW2  576   0.222   1.773   1.125
   86SOL     OW  577   0.943   1.701   0.886
   86SOL    HW1  578   1.027   1.655   0.913
   86SOL    HW2  579   0.898   1.649   0.814
   87SOL     OW  580   0.396   0.684   0.475
   87SOL    HW1  581   0.414   0.586   0.490
   87SOL    HW2  582   0.300   0.703   0.491
   88SOL     OW  583   1.511   0.218   1.723
   88SOL    HW1  584   1.523   0.236   1.821
   88SOL    HW2  585   1.439   0.150   1.710
   89SOL     OW  586   0.639   0.124   0.104
   89SOL    HW1  587   0.733   0.092   0.117
   89SOL    HW2  588   0.596   0.072   0.030
   90SOL     OW  589   0.762   0.271   1.761
   90SOL    HW1  590   0.850   0.224   1.751
   90SOL    HW2  591   0.709   0.229   1.834
   91SOL     OW  592   0.875   1.519   1.192
   91SOL    HW1  593   0.852   1.479   1.103
   91SOL    HW2  594   0.944   1.463   1.237
   92SOL     OW  595   1.334   0.590   1.436
   92SOL    HW1  596   1.366   0.555   1.524
   92SOL    HW2  597   1.371   0.682   1.421
   93SOL     OW  598   0.819   1.385   0.947
   93SOL    HW1  599   0.910   1.374   0.905
   93SOL    HW2  600   0.750   1.394   0.875
   94SOL     OW  601   0.926   0.509   0.892
   94SOL    HW1  602   0.900   0.500   0.796
   94SOL    HW2  603   0.956   0.420   0.926
   95SOL     OW  604   0.548   0.062   0.488
   95SOL    HW1  605   0.468   0.059   0.548
   95SOL    HW2  606   0.543   0.142   0.428
   96SOL     OW  607   1.425   1.202   0.036
   96SOL    HW1  608   1.460   1.126   0.091
   96SOL    HW2  609   1.336   1.231   0.073
   97SOL     OW  610   0.288   0.042   0.183
   97SOL    HW1  611   0.340   0.115   0.138
   97SOL    HW2  612   0.352  -0.021   0.228
   98SOL     OW  613   0.952   0.252   0.456
   98SOL    HW1  614   0.918   0.292   0.371
   98SOL    HW2  615   1.050   0.267   0.464
   99SOL     OW  616   1.075   0.685   1.449
   99SOL    HW1  617   1.002   0.617   1.453
   99SOL    HW2  618   1.164   0.639   1.445
  100SOL     OW  619   1.214   1.572   0.798
  100SOL    HW1  620   1.232   1.641   0.728
  100SOL    HW2  621   1.298   1.555   0.850
  101SOL     OW  622   0.473   1.156   0.720
  101SOL    HW1  623   0.410   1.133   0.795
  101SOL    HW2  624   0.426   1.148   0.633
  102SOL     OW  625   1.259   1.788   0.612
  102SOL    HW1  626   1.313   1.851   0.556
  102SOL    HW2  627   1.176   1.833   0.644
  103SOL     OW  628   1.020   0.522   0.031
  103SOL    HW1  629   0.977   0.609   0.005
  103SOL    HW2  630   1.089   0.538   0.102
  104SOL     OW  631   0.094   0.554   1.391
  104SOL    HW1  632   0.188   0.552   1.358
  104SOL    HW2  633   0.084   0.626   1.461
  105SOL     OW  634   0.559   0.222   1.179
  105SOL    HW1  635   0.607   0.149   1.228
  105SOL    HW2  636   0.462   0.220   1.204
  106SOL     OW  637   0.866   0.458   0.632
  106SOL    HW1  638   0.821   0.520   0.568
  106SOL    HW2  639   0.896   0.376   0.583
  107SOL     OW  640   1.019   0.050   0.740
  107SOL    HW1  641   0.957   0.053   0.662
  107SOL    HW2  642   0.992  -0.025   0.801
  108SOL     OW  643   1.451   1.162   0.857
  108SOL    HW1  644   1.374   1.098   0.854
  108SOL    HW2  645   1.492   1.169   0.766
  109SOL     OW  646   1.470   0.613   0.961
  109SOL    HW1  647   1.404   0.537   0.961
  109SOL    HW2  648   1.529   0.605   1.041
  110SOL     OW  649   1.830   0.802   0.380
  110SOL    HW1  650   1.892   0.757   0.445
  110SOL    HW2  651   1.809   0.738   0.306
  111SOL     OW  652   0.483   1.420   0.152
  111SOL    HW1  653   0.404   1.395   0.206
  111SOL    HW2  654   0.481   1.372   0.064
  112SOL     OW  655   1.683   1.265   0.647
  112SOL    HW1  656   1.783   1.258   0.656
  112SOL    HW2  657   1.655   1.360   0.660
  113SOL     OW  658   1.387   0.577   0.063
  113SOL    HW1  659   1.329   0.551   0.140
  113SOL    HW2  660   1.483   0.560   0.086
  114SOL     OW  661   0.521   0.264   0.307
  114SOL    HW1  662   0.571   0.212   0.237
  114SOL    HW2  663   0.493   0.352   0.268
  115SOL     OW  664   1.749   1.243   1.548
  115SOL    HW1  665   1.838   1.202   1.529
  115SOL    HW2  666   1.762   1.336   1.583
  116SOL     OW  667   1.047   1.352   1.339
  116SOL    HW1  668   0.964   1.320   1.385
  116SOL    HW2  669   1.127   1.308   1.380
  117SOL     OW  670   1.615   1.634   1.662
  117SOL    HW1  671   1.596   1.669   1.570
  117SOL    HW2  672   1.699   1.580   1.661
  118SOL     OW  673   1.147   1.236   1.105
  118SOL    HW1  674   1.083   1.265   1.176
  118SOL    HW2  675   1.112   1.262   1.015
  119SOL     OW  676   1.616   1.092   1.082
  119SOL    HW1  677   1.611   1.159   1.156
  119SOL    HW2  678   1.545   1.111   1.014
  120SOL     OW  679   0.923   0.086   1.385
  120SOL    HW1  680   0.945   0.065   1.290
  120SOL    HW2  681   1.001   0.131   1.428
  121SOL     OW  682   0.977   1.113   1.722
  121SOL    HW1  683   0.883   1.132   1.750
  121SOL    HW2  684   0.979   1.030   1.666
  122SOL     OW  685   0.716   1.059   0.375
  122SOL    HW1  686   0.698   1.038   0.471
  122SOL    HW2  687   0.795   1.006   0.344
  123SOL     OW  688   0.425   0.818   1.256
  123SOL    HW1  689   0.498   0.831   1.324
  123SOL    HW2  690   0.388   0.726   1.265
  124SOL     OW  691   1.260   0.376   1.283
  124SOL    HW1  692   1.295   0.456   1.332
  124SOL    HW2  693   1.166   0.392   1.255
  125SOL     OW  694   0.072   1.569   1.354
  125SOL    HW1  695   0.031   1.637   1.293
  125SOL    HW2  696   0.172   1.573   1.346
  126SOL     OW  697   0.331   1.131   0.484
  126SOL    HW1  698   0.328   1.213   0.427
  126SOL    HW2  699   0.332   1.049   0.426
  127SOL     OW  700   0.541   0.544   0.866
  127SOL    HW1  701   0.554   0.602   0.786
  127SOL    HW2  702   0.613   0.562   0.933
  128SOL     OW  703   1.244   1.357   0.393
  128SOL    HW1  704   1.307   1.427   0.426
  128SOL    HW2  705   1.151   1.378   0.424
  129SOL     OW  706   1.296   1.468   1.146
  129SOL    HW1  707   1.351   1.473   1.229
  129SOL    HW2  708   1.243   1.384   1.146
  130SOL     OW  709   1.576   0.615   0.488
  130SOL    HW1  710   1.524   0.663   0.558
  130SOL    HW2  711   1.630   0.681   0.434
  131SOL     OW  712   0.347   1.534   1.302
  131SOL    HW1  713   0.333   1.484   1.217
  131SOL    HW2  714   0.445   1.549   1.315
  132SOL     OW  715   0.416   0.751   1.601
  132SOL    HW1  716   0.485   0.793   1.543
  132SOL    HW2  717   0.442   0.656   1.621
  133SOL     OW  718   1.616   0.790   1.690
  133SOL    HW1  719   1.524   0.831   1.684
  133SOL    HW2  720   1.673   0.827   1.617
  134SOL     OW  721   0.998   0.141   1.751
  134SOL    HW1  722   1.057   0.220   1.734
  134SOL    HW2  723   1.050   0.056   1.735
  135SOL     OW  724   0.491   0.034   1.756
  135SOL    HW1  725   0.446  -0.026   1.690
  135SOL    HW2  726   0.432   0.112   1.776
  136SOL     OW  727   0.589   0.871   1.038
  136SOL    HW1  728   0.622   0.965   1.033
  136SOL    HW2  729   0.525   0.862   1.114
  137SOL     OW  730   1.337   0.855   1.019
  137SOL    HW1  731   1.246   0.841   0.980
  137SOL    HW2  732   1.392   0.772   1.005
  138SOL     OW  733   1.194   0.522   0.259
  138SOL    HW1  734   1.209   0.441   0.315
  138SOL    HW2  735   1.152   0.594   0.314
  139SOL     OW  736   0.295   0.190   1.244
  139SOL    HW1  737   0.260   0.225   1.332
  139SOL    HW2  738   0.282   0.092   1.239
  140SOL     OW  739   0.054   1.308   1.273
  140SOL    HW1  740   0.084   1.248   1.348
  140SOL    HW2  741   0.054   1.403   1.305
  141SOL     OW  742   0.725   0.630   1.053
  141SOL    HW1  743   0.800   0.611   0.988
  141SOL    HW2  744   0.689   0.721   1.035
  142SOL     OW  745   1.742   0.963   1.865
  142SOL    HW1  746   1.702   0.893   1.805
  142SOL    HW2  747   1.679   0.984   1.939
  143SOL     OW  748   0.311   0.055   0.630
  143SOL    HW1  749   0.282   0.149   0.646
  143SOL    HW2  750   0.322   0.007   0.718
  144SOL     OW  751   1.629   0.383   0.352
  144SOL    HW1  752   1.657   0.307   0.411
  144SOL    HW2  753   1.600   0.460   0.407
  145SOL     OW  754   1.024   0.756   0.954
  145SOL    HW1  755   1.014   0.776   1.052
  145SOL    HW2  756   0.997   0.661   0.937
  146SOL     OW  757   0.982   1.560   1.723
  146SOL    HW1  758   0.960   1.608   1.638
  146SOL    HW2  759   1.030   1.475   1.702
  147SOL     OW  760   1.850   1.501   1.601
  147SOL    HW1  761   1.872   1.527   1.507
  147SOL    HW2  762   1.932   1.509   1.658
  148SOL     OW  763   0.350   0.918   1.809
  148SOL    HW1  764   0.431   0.940   1.863
  148SOL    HW2  765   0.374   0.854   1.735
  149SOL     OW  766   1.522   0.261   0.124
  149SOL    HW1  767   1.455   0.194   0.156
  149SOL    HW2  768   1.562   0.308   0.203
  150SOL     OW  769   1.285   0.827   5.612
  150SOL    HW1  770   1.324   0.736   5.621
  150SOL    HW2  771   1.318   0.869   5.527
  151SOL     OW  772   1.070   1.341   0.859
  151SOL    HW1  773   1.077   1.262   0.798
  151SOL    HW2  774   1.124   1.417   0.821
  152SOL     OW  775   0.312   0.806   0.943
  152SOL    HW1  776   0.409   0.828   0.932
  152SOL    HW2  777   0.302   0.712   0.974
  153SOL     OW  778   0.319   0.529   1.013
  153SOL    HW1  779   0.279   0.437   1.002
  153SOL    HW2  780   0.400   0.537   0.955
  154SOL     OW  781   1.134   0.373   1.693
  154SOL    HW1  782   1.083   0.427   1.759
  154SOL    HW2  783   1.226   0.411   1.682
  155SOL     OW  784   1.155   0.203   1.473
  155SOL    HW1  785   1.142   0.264   1.551
  155SOL    HW2  786   1.200   0.254   1.399
  156SOL     OW  787   5.599   1.309   0.186
  156SOL    HW1  788   5.508   1.331   0.151
  156SOL    HW2  789   5.598   1.217   0.225
  157SOL     OW  790   0.095   1.774   0.956
  157SOL    HW1  791   0.054   1.698   0.906
  157SOL    HW2  792   0.184   1.795   0.917
  158SOL     OW  793   0.491   1.576   0.905
  158SOL    HW1  794   0.562   1.641   0.932
  158SOL    HW2  795   0.529   1.510   0.840
  159SOL     OW  796   0.962   0.792   1.219
  159SOL    HW1  797   1.022   0.769   1.296
  159SOL    HW2  798   0.875   0.744   1.229
  160SOL     OW  799   0.033   0.558   1.120
  160SOL    HW1  800   0.115   0.550   1.062
  160SOL    HW2  801   0.061   0.558   1.216
  161SOL     OW  802   0.194   0.527   1.732
  161SOL    HW1  803   0.241   0.468   1.666
  161SOL    HW2  804   0.157   0.607   1.685
  162SOL     OW  805   1.384   0.932   1.652
  162SOL    HW1  806   1.408   1.029   1.651
  162SOL    HW2  807   1.378   0.898   1.558
  163SOL     OW  808   0.817   0.576   0.367
  163SOL    HW1  809   0.826   0.495   0.309
  163SOL    HW2  810   0.738   0.629   0.337
  164SOL     OW  811   1.642   0.602   1.176
  164SOL    HW1  812   1.625   0.541   1.253
  164SOL    HW2  813   1.734   0.587   1.141
  165SOL     OW  814   0.235   1.542   1.719
  165SOL    HW1  815   0.215   1.618   1.781
  165SOL    HW2  816   0.242   1.457   1.771
  166SOL     OW  817   0.720   0.440   1.246
  166SOL    HW1  818   0.658   0.365   1.226
  166SOL    HW2  819   0.713   0.510   1.174
  167SOL     OW  820   0.912   1.680   1.481
  167SOL    HW1  821   0.885   1.629   1.399
  167SOL    HW2  822   0.913   1.778   1.461
  168SOL     OW  823   0.452   0.494   0.178
  168SOL    HW1  824   0.517   0.565   0.206
  168SOL    HW2  825   0.361   0.534   0.169
  169SOL     OW  826   0.135   1.141   1.482
  169SOL    HW1  827   0.138   1.102   1.574
  169SOL    HW2  828   0.156   1.069   1.416
  170SOL     OW  829   1.307   1.042   1.215
  170SOL    HW1  830   1.330   0.973   1.146
  170SOL    HW2  831   1.248   1.111   1.174
  171SOL     OW  832   1.319   0.858   0.290
  171SOL    HW1  833   1.244   0.827   0.349
  171SOL    HW2  834   1.294   0.846   0.194
  172SOL     OW  835   1.787   1.721   1.164
  172SOL    HW1  836   1.849   1.753   1.093
  172SOL    HW2  837   1.749   1.632   1.138
  173SOL     OW  838   1.242   1.738   1.103
  173SOL    HW1  839   1.329   1.771   1.067
  173SOL    HW2  840   1.249   1.641   1.124
  174SOL     OW  841   0.096   1.250   1.012
  174SOL    HW1  842   0.074   1.272   1.107
  174SOL    HW2  843   0.019   1.200   0.972
  175SOL     OW  844   0.684   1.682   1.745
  175SOL    HW1  845   0.614   1.753   1.737
  175SOL    HW2  846   0.755   1.697   1.677
  176SOL     OW  847   0.910   0.088   0.122
  176SOL    HW1  848   0.944   0.099   0.029
  176SOL    HW2  849   0.974   0.030   0.174
  177SOL     OW  850   1.721   0.154   0.488
  177SOL    HW1  851   1.795   0.143   0.422
  177SOL    HW2  852   1.704   0.067   0.535
  178SOL     OW  853   1.402   1.569   0.491
  178SOL    HW1  854   1.462   1.601   0.419
  178SOL    HW2  855   1.344   1.645   0.523
  179SOL     OW  856   0.149   1.780   1.845
  179SOL    HW1  857   0.093   1.711   1.890
  179SOL    HW2  858   0.194   1.837   1.914
  180SOL     OW  859   1.286   0.935   0.667
  180SOL    HW1  860   1.360   0.870   0.682
  180SOL    HW2  861   1.318   1.009   0.608
  181SOL     OW  862   0.790   1.282   1.419
  181SOL    HW1  863   0.763   1.328   1.504
  181SOL    HW2  864   0.717   1.292   1.351
  182SOL     OW  865   0.668   1.619   0.156
  182SOL    HW1  866   0.685   1.643   0.060
  182SOL    HW2  867   0.607   1.540   0.161
  183SOL     OW  868   1.613   1.728   1.389
  183SOL    HW1  869   1.675   1.725   1.311
  183SOL    HW2  870   1.600   1.823   1.417
  184SOL     OW  871   1.843   0.160   0.966
  184SOL    HW1  872   1.877   0.069   0.944
  184SOL    HW2  873   1.753   0.173   0.926
  185SOL     OW  874   0.247   0.307   0.712
  185SOL    HW1  875   0.159   0.346   0.685
  185SOL    HW2  876   0.251   0.303   0.812
  186SOL     OW  877   1.204   1.598   0.035
  186SOL    HW1  878   1.200   1.503   0.068
  186SOL    HW2  879   1.137   1.611  -0.037
  187SOL     OW  880   0.823   1.011   1.384
  187SOL    HW1  881   0.869   0.992   1.298
  187SOL    HW2  882   0.815   1.111   1.396
  188SOL     OW  883   0.924   0.913   0.289
  188SOL    HW1  884   0.982   0.947   0.215
  188SOL    HW2  885   0.973   0.841   0.338
  189SOL     OW  886   1.484   1.641   0.042
  189SOL    HW1  887   1.387   1.623   0.027
  189SOL    HW2  888   1.531   1.645  -0.047
  190SOL     OW  889   0.364   1.306   1.486
  190SOL    HW1  890   0.355   1.385   1.426
  190SOL    HW2  891   0.283   1.247   1.476
  191SOL     OW  892   1.607   1.285   1.285
  191SOL    HW1  893   1.671   1.263   1.359
  191SOL    HW2  894   1.541   1.353   1.318
  192SOL     OW  895   1.072   1.109   0.725
  192SOL    HW1  896   0.992   1.058   0.759
  192SOL    HW2  897   1.140   1.044   0.692
  193SOL     OW  898   1.026   0.240   0.966
  193SOL    HW1  899   1.023   0.199   0.875
  193SOL    HW2  900   1.023   0.168   1.035
  194SOL     OW  901   0.607   1.489   0.477
  194SOL    HW1  902   0.660   1.433   0.412
  194SOL    HW2  903   0.528   1.528   0.431
  195SOL     OW  904   1.741   0.391   1.387
  195SOL    HW1  905   1.814   0.460   1.385
  195SOL    HW2  906   1.763   0.318   1.322
  196SOL     OW  907   0.256   1.346   0.296
  196SOL    HW1  908   0.162   1.338   0.262
  196SOL    HW2  909   0.256   1.391   0.385
  197SOL     OW  910   0.118   1.052   1.745
  197SOL    HW1  911   0.034   1.019   1.789
  197SOL    HW2  912   0.195   0.996   1.775
  198SOL     OW  913   0.686   0.189   1.499
  198SOL    HW1  914   0.772   0.162   1.455
  198SOL    HW2  915   0.704   0.222   1.591
  199SOL     OW  916   0.085   0.320   5.606
  199SOL    HW1  917  -0.008   0.301   5.574
  199SOL    HW2  918   0.116   0.407   5.567
  200SOL     OW  919   1.417   0.855   1.391
  200SOL    HW1  920   1.360   0.917   1.338
  200SOL    HW2  921   1.511   0.856   1.355
  201SOL     OW  922   0.054   0.145   0.292
  201SOL    HW1  923   0.037   0.229   0.242
  201SOL    HW2  924   0.143   0.108   0.266
  202SOL     OW  925   1.181   1.334   0.120
  202SOL    HW1  926   1.085   1.306   0.111
  202SOL    HW2  927   1.206   1.334   0.217
  203SOL     OW  928   0.626   0.829   1.438
  203SOL    HW1  929   0.684   0.909   1.423
  203SOL    HW2  930   0.683   0.747   1.443
  204SOL     OW  931   1.488   1.821   1.006
  204SOL    HW1  932   1.519   1.855   0.917
  204SOL    HW2  933   1.561   1.766   1.046
  205SOL     OW  934   0.726   0.547   1.701
  205SOL    HW1  935   0.773   0.612   1.761
  205SOL    HW2  936   0.740   0.454   1.733
  206SOL     OW  937   1.475   1.192   1.631
  206SOL    HW1  938   1.462   1.207   1.729
  206SOL    HW2  939   1.570   1.213   1.606
  207SOL     OW  940   0.364   1.742   1.570
  207SOL    HW1  941   0.284   1.798   1.551
  207SOL    HW2  942   0.336   1.653   1.606
  208SOL     OW  943   1.659   0.874   1.257
  208SOL    HW1  944   1.657   0.784   1.215
  208SOL    HW2  945   1.647   0.944   1.187
  209SOL     OW  946   1.222   0.316   0.458
  209SOL    HW1  947   1.285   0.238   0.453
  209SOL    HW2  948   1.246   0.374   0.536
  210SOL     OW  949   0.581   0.736   0.673
  210SOL    HW1  950   0.624   0.825   0.660
  210SOL    HW2  951   0.514   0.720   0.600
  211SOL     OW  952   1.740   0.360   1.661
  211SOL    HW1  953   1.740   0.378   1.563
  211SOL    HW2  954   1.663   0.302   1.685
  212SOL     OW  955   1.760   0.928   1.507
  212SOL    HW1  956   1.746   1.025   1.528
  212SOL    HW2  957   1.734   0.910   1.413
  213SOL     OW  958   0.870   1.361   0.051
  213SOL    HW1  959   0.826   1.382   0.139
  213SOL    HW2  960   0.880   1.445  -0.002
  214SOL     OW  961   0.671   1.777   0.942
  214SOL    HW1  962   0.643   1.871   0.922
  214SOL    HW2  963   0.768   1.767   0.923
  215SOL     OW  964   0.869   0.975   0.856
  215SOL    HW1  965   0.919   0.895   0.891
  215SOL    HW2  966   0.823   1.020   0.932
  216SOL     OW  967   1.073   0.987   0.078
  216SOL    HW1  968   1.046   1.043  -0.000
  216SOL    HW2  969   1.152   0.930   0.053
  217SOL     OW  970   1.842   1.555   0.847
  217SOL    HW1  971   1.764   1.541   0.786
  217SOL    HW2  972   1.857   1.474   0.903
  218SOL     OW  973   0.227   1.289   1.850
  218SOL    HW1  974   0.178   1.214   1.806
  218SOL    HW2  975   0.190   1.303   1.942
  219SOL     OW  976   0.090   1.230   0.662
  219SOL    HW1  977   0.093   1.185   0.751
  219SOL    HW2  978   0.156   1.189   0.600
  220SOL     OW  979   0.688   1.414   1.639
  220SOL    HW1  980   0.605   1.367   1.669
  220SOL    HW2  981   0.687   1.508   1.673
  221SOL     OW  982   1.802   0.180   1.234
  221SOL    HW1  983   1.815   0.084   1.261
  221SOL    HW2  984   1.817   0.190   1.136
  222SOL     OW  985   0.427   0.423   0.527
  222SOL    HW1  986   0.461   0.355   0.462
  222SOL    HW2  987   0.370   0.378   0.596
  223SOL     OW  988   1.677   1.485   1.099
  223SOL    HW1  989   1.605   1.466   1.032
  223SOL    HW2  990   1.681   1.410   1.166
  224SOL     OW  991   0.342   0.559   1.289
  224SOL    HW1  992   0.396   0.496   1.345
  224SOL    HW2  993   0.351   0.533   1.193
  225SOL     OW  994   0.828   1.578   0.676
  225SOL    HW1  995   0.804   1.640   0.601
  225SOL    HW2  996   0.754   1.512   0.689
  226SOL     OW  997   1.427   0.234   1.117
  226SOL    HW1  998   1.442   0.140   1.149
  226SOL    HW2  999   1.373   0.285   1.184
  227SOL     OW 1000   1.010   5.607   1.129
  227SOL    HW1 1001   0.944   5.547   1.084
  227SOL    HW2 1002   1.100   5.563   1.130
  228SOL     OW 1003   0.776   1.330   0.324
  228SOL    HW1 1004   0.749   1.234   0.335
  228SOL    HW2 1005   0.861   1.346   0.374
  229SOL     OW 1006   0.624   1.562   1.293
  229SOL    HW1 1007   0.619   1.649   1.343
  229SOL    HW2 1008   0.714   1.553   1.251
  230SOL     OW 1009   1.353   0.041   0.181
  230SOL    HW1 1010   1.399  -0.028   0.126
  230SOL    HW2 1011   1.258   0.015   0.195
  231SOL     OW 1012   1.286   0.467   0.677
  231SOL    HW1 1013   1.236   0.554   0.677
  231SOL    HW2 1014   1.287   0.429   0.769
  232SOL     OW 1015   1.585   0.198   0.890
  232SOL    HW1 1016   1.529   0.221   0.969
  232SOL    HW2 1017   1.589   0.276   0.827
  233SOL     OW 1018   0.039   1.059   0.310
  233SOL    HW1 1019   0.138   1.058   0.291
  233SOL    HW2 1020   0.008   0.966   0.330
  234SOL     OW 1021   0.881   1.669   0.341
  234SOL    HW1 1022   0.806   1.648   0.278
  234SOL    HW2 1023   0.855   1.747   0.399
  235SOL     OW 1024   0.214   0.618   1.995
  235SOL    HW1 1025   0.120   0.616   2.031
  235SOL    HW2 1026   0.212   0.600   1.896
  236SOL     OW 1027   0.218   0.284   2.860
  236SOL    HW1 1028   0.251   0.246   2.947
  236SOL    HW2 1029   0.126   0.248   2.841
  237SOL     OW 1030   5.588   0.386   2.496
  237SOL    HW1 1031   5.505   0.416   2.543
  237SOL    HW2 1032   5.567   0.307   2.438
  238SOL     OW 1033   0.556   1.290   3.043
  238SOL    HW1 1034   0.465   1.257   3.017
  238SOL    HW2 1035   0.574   1.376   2.996
  239SOL     OW 1036   1.576   1.515   2.568
  239SOL    HW1 1037   1.529   1.494   2.654
  239SOL    HW2 1038   1.508   1.524   2.495
  240SOL     OW 1039   1.142   0.705   2.554
  240SOL    HW1 1040   1.188   0.792   2.538
  240SOL    HW2 1041   1.086   0.712   2.636
  241SOL     OW 1042   1.767   0.592   2.086
  241SOL    HW1 1043   1.742   0.593   1.989
  241SOL    HW2 1044   1.732   0.509   2.129
  242SOL     OW 1045   0.739   1.134   2.902
  242SOL    HW1 1046   0.673   1.168   2.969
  242SOL    HW2 1047   0.779   1.212   2.852
  243SOL     OW 1048   0.882   0.752   3.696
  243SOL    HW1 1049   0.878   0.816   3.773
  243SOL    HW2 1050   0.907   0.802   3.613
  244SOL     OW 1051   0.684   0.996   2.509
  244SOL    HW1 1052   0.755   0.988   2.579
  244SOL    HW2 1053   0.610   1.054   2.543
  245SOL     OW 1054   0.709   1.149   3.673
  245SOL    HW1 1055   0.758   1.226   3.715
  245SOL    HW2 1056   0.620   1.180   3.641
  246SOL     OW 1057   0.319   1.430   2.927
  246SOL    HW1 1058   0.246   1.375   2.886
  246SOL    HW2 1059   0.369   1.478   2.855
  247SOL     OW 1060   1.461   1.505   3.225
  247SOL    HW1 1061   1.521   1.584   3.225
  247SOL    HW2 1062   1.395   1.512   3.300
  248SOL     OW 1063   0.455   0.384   3.326
  248SOL    HW1 1064   0.536   0.328   3.340
  248SOL    HW2 1065   0.374   0.333   3.354
  249SOL     OW 1066   1.585   0.466   2.604
  249SOL    HW1 1067   1.489   0.455   2.577
  249SOL    HW2 1068   1.630   0.528   2.540
  250SOL     OW 1069   0.220   1.716   2.328
  250SOL    HW1 1070   0.245   1.792   2.388
  250SOL    HW2 1071   0.292   1.703   2.259
  251SOL     OW 1072   1.129   1.341   3.555
  251SOL    HW1 1073   1.187   1.338   3.636
  251SOL    HW2 1074   1.074   1.257   3.550
  252SOL     OW 1075   0.240   1.448   2.402
  252SOL    HW1 1076   0.217   1.545   2.395
  252SOL    HW2 1077   0.175   1.403   2.463
  253SOL     OW 1078   0.295   1.091   2.783
  253SOL    HW1 1079   0.281   0.994   2.802
  253SOL    HW2 1080   0.219   1.143   2.822
  254SOL     OW 1081   0.582   1.802   3.283
  254SOL    HW1 1082   0.502   1.780   3.339
  254SOL    HW2 1083   0.622   1.888   3.314
  255SOL     OW 1084   0.577   0.991   2.010
  255SOL    HW1 1085   0.624   1.036   1.935
  255SOL    HW2 1086   0.619   1.018   2.097
  256SOL     OW 1087   1.594   0.114   3.330
  256SOL    HW1 1088   1.621   0.187   3.266
  256SOL    HW2 1089   1.578   0.154   3.420
  257SOL     OW 1090   0.116   0.661   2.427
  257SOL    HW1 1091   0.084   0.567   2.443
  257SOL    HW2 1092   0.109   0.713   2.512
  258SOL     OW 1093   1.849   1.751   2.192
  258SOL    HW1 1094   1.923   1.724   2.253
  258SOL    HW2 1095   1.860   1.847   2.166
  259SOL     OW 1096   0.036   1.585   1.989
  259SOL    HW1 1097   0.015   1.488   2.004
  259SOL    HW2 1098   0.007   1.638   2.068
  260SOL     OW 1099   1.695   0.919   2.509
  260SOL    HW1 1100   1.778   0.869   2.490
  260SOL    HW2 1101   1.671   0.976   2.430
  261SOL     OW 1102   1.656   1.105   2.300
  261SOL    HW1 1103   1.744   1.099   2.255
  261SOL    HW2 1104   1.661   1.170   2.376
  262SOL     OW 1105   0.130   0.746   3.443
  262SOL    HW1 1106   0.226   0.773   3.445
  262SOL    HW2 1107   0.073   0.828   3.441
  263SOL     OW 1108   0.603   1.393   2.597
  263SOL    HW1 1109   0.560   1.303   2.603
  263SOL    HW2 1110   0.596   1.427   2.503
  264SOL     OW 1111   1.291   1.228   3.281
  264SOL    HW1 1112   1.320   1.160   3.214
  264SOL    HW2 1113   1.353   1.227   3.359
  265SOL     OW 1114   0.824   0.023   2.381
  265SOL    HW1 1115   0.868   0.107   2.349
  265SOL    HW2 1116   0.725   0.034   2.380
  266SOL     OW 1117   0.190   0.961   3.143
  266SOL    HW1 1118   0.278   0.916   3.130
  266SOL    HW2 1119   0.121   0.918   3.085
  267SOL     OW 1120   1.532   1.008   2.069
  267SOL    HW1 1121   1.460   0.945   2.098
  267SOL    HW2 1122   1.580   1.042   2.150
  268SOL     OW 1123   1.158   1.814   3.479
  268SOL    HW1 1124   1.180   1.889   3.417
  268SOL    HW2 1125   1.201   1.730   3.446
  269SOL     OW 1126   0.351   0.250   3.706
  269SOL    HW1 1127   0.399   0.332   3.739
  269SOL    HW2 1128   0.253   0.262   3.718
  270SOL     OW 1129   1.461   1.424   2.804
  270SOL    HW1 1130   1.397   1.442   2.879
  270SOL    HW2 1131   1.452   1.329   2.775
  271SOL     OW 1132   1.642   1.768   2.433
  271SOL    HW1 1133   1.626   1.733   2.341
  271SOL    HW2 1134   1.633   1.694   2.499
  272SOL     OW 1135   0.592   0.717   2.140
  272SOL    HW1 1136   0.594   0.803   2.089
  272SOL    HW2 1137   0.522   0.721   2.211
  273SOL     OW 1138   1.270   0.371   2.802
  273SOL    HW1 1139   1.178   0.333   2.805
  273SOL    HW2 1140   1.331   0.317   2.860
  274SOL     OW 1141   1.584   1.673   2.172
  274SOL    HW1 1142   1.681   1.695   2.168
  274SOL    HW2 1143   1.549   1.658   2.080
  275SOL     OW 1144   0.776   0.623   3.308
  275SOL    HW1 1145   0.760   0.593   3.402
  275SOL    HW2 1146   0.754   0.548   3.245
  276SOL     OW 1147   1.391   0.469   3.542
  276SOL    HW1 1148   1.393   0.518   3.629
  276SOL    HW2 1149   1.446   0.386   3.549
  277SOL     OW 1150   0.950   0.874   3.452
  277SOL    HW1 1151   1.014   0.808   3.412
  277SOL    HW2 1152   0.874   0.889   3.389
  278SOL     OW 1153   0.999   0.401   3.077
  278SOL    HW1 1154   0.905   0.414   3.107
  278SOL    HW2 1155   0.999   0.350   2.991
  279SOL     OW 1156   1.054   0.698   2.285
  279SOL    HW1 1157   1.077   0.693   2.382
  279SOL    HW2 1158   0.966   0.652   2.269
  280SOL     OW 1159   0.089   0.824   2.646
  280SOL    HW1 1160   0.174   0.814   2.697
  280SOL    HW2 1161   0.037   0.901   2.681
  281SOL     OW 1162   0.125   1.879   3.458
  281SOL    HW1 1163   0.132   1.848   3.552
  281SOL    HW2 1164   0.030   1.868   3.426
  282SOL     OW 1165   0.892   0.355   2.063
  282SOL    HW1 1166   0.940   0.417   2.000
  282SOL    HW2 1167   0.868   0.271   2.014
  283SOL     OW 1168   1.689   0.567   3.687
  283SOL    HW1 1169   1.658   0.648   3.636
  283SOL    HW2 1170   1.721   0.498   3.623
  284SOL     OW 1171   1.379   1.144   2.384
  284SOL    HW1 1172   1.466   1.130   2.337
  284SOL    HW2 1173   1.325   1.213   2.336
  285SOL     OW 1174   0.545   0.156   2.770
  285SOL    HW1 1175   0.550   0.195   2.862
  285SOL    HW2 1176   0.548   0.230   2.702
  286SOL     OW 1177   0.993   1.449   2.323
  286SOL    HW1 1178   0.963   1.528   2.270
  286SOL    HW2 1179   0.972   1.464   2.420
  287SOL     OW 1180   0.345   1.824   2.754
  287SOL    HW1 1181   0.389   1.734   2.752
  287SOL    HW2 1182   0.415   1.894   2.766
  288SOL     OW 1183   1.799   1.042   2.744
  288SOL    HW1 1184   1.753   1.026   2.657
  288SOL    HW2 1185   1.731   1.059   2.815
  289SOL     OW 1186   1.235   1.543   3.384
  289SOL    HW1 1187   1.217   1.467   3.447
  289SOL    HW2 1188   1.178   1.533   3.302
  290SOL     OW 1189   0.316   0.959   2.122
  290SOL    HW1 1190   0.403   0.982   2.079
  290SOL    HW2 1191   0.278   0.876   2.080
  291SOL     OW 1192   1.480   0.769   2.583
  291SOL    HW1 1193   1.488   0.717   2.668
  291SOL    HW2 1194   1.564   0.822   2.569
  292SOL     OW 1195   0.470   1.261   3.589
  292SOL    HW1 1196   0.441   1.266   3.493
  292SOL    HW2 1197   0.389   1.261   3.647
  293SOL     OW 1198   1.126   1.772   2.088
  293SOL    HW1 1199   1.042   1.738   2.131
  293SOL    HW2 1200   1.154   1.708   2.017
  294SOL     OW 1201   0.204   0.268   3.364
  294SOL    HW1 1202   0.123   0.327   3.361
  294SOL    HW2 1203   0.180   0.181   3.407
  295SOL     OW 1204   1.622   1.386   1.958
  295SOL    HW1 1205   1.586   1.477   1.938
  295SOL    HW2 1206   1.554   1.317   1.934
  296SOL     OW 1207   0.462   1.734   2.178
  296SOL    HW1 1208   0.508   1.797   2.241
  296SOL    HW2 1209   0.530   1.696   2.114
  297SOL     OW 1210   1.397   0.100   2.304
  297SOL    HW1 1211   1.382   0.072   2.209
  297SOL    HW2 1212   1.495   0.099   2.324
  298SOL     OW 1213   0.257   1.791   3.080
  298SOL    HW1 1214   0.299   1.732   3.149
  298SOL    HW2 1215   0.289   1.763   2.989
  299SOL     OW 1216   0.943   1.700   2.757
  299SOL    HW1 1217   1.035   1.663   2.771
  299SOL    HW2 1218   0.898   1.650   2.683
  300SOL     OW 1219   0.398   0.682   2.340
  300SOL    HW1 1220   0.417   0.585   2.352
  300SOL    HW2 1221   0.300   0.699   2.351
  301SOL     OW 1222   1.521   0.221   3.587
  301SOL    HW1 1223   1.533   0.243   3.683
  301SOL    HW2 1224   1.456   0.146   3.577
  302SOL     OW 1225   0.649   0.106   1.963
  302SOL    HW1 1226   0.703   0.028   1.993
  302SOL    HW2 1227   0.588   0.078   1.889
  303SOL     OW 1228   0.760   0.274   3.617
  303SOL    HW1 1229   0.847   0.226   3.610
  303SOL    HW2 1230   0.710   0.241   3.698
  304SOL     OW 1231   0.855   1.477   3.065
  304SOL    HW1 1232   0.849   1.455   2.967
  304SOL    HW2 1233   0.939   1.438   3.103
  305SOL     OW 1234   1.341   0.595   3.300
  305SOL    HW1 1235   1.369   0.556   3.388
  305SOL    HW2 1236   1.380   0.686   3.290
  306SOL     OW 1237   0.813   1.381   2.800
  306SOL    HW1 1238   0.906   1.375   2.765
  306SOL    HW2 1239   0.750   1.396   2.725
  307SOL     OW 1240   0.925   0.509   2.753
  307SOL    HW1 1241   0.901   0.502   2.656
  307SOL    HW2 1242   0.955   0.420   2.787
  308SOL     OW 1243   0.552   0.066   2.353
  308SOL    HW1 1244   0.468   0.061   2.408
  308SOL    HW2 1245   0.545   0.143   2.290
  309SOL     OW 1246   1.426   1.202   1.903
  309SOL    HW1 1247   1.459   1.125   1.957
  309SOL    HW2 1248   1.336   1.230   1.937
  310SOL     OW 1249   0.283   0.046   2.049
  310SOL    HW1 1250   0.331   0.115   1.994
  310SOL    HW2 1251   0.350  -0.016   2.090
  311SOL     OW 1252   0.953   0.259   2.315
  311SOL    HW1 1253   0.923   0.293   2.226
  311SOL    HW2 1254   1.052   0.270   2.324
  312SOL     OW 1255   1.079   0.683   3.305
  312SOL    HW1 1256   1.012   0.609   3.319
  312SOL    HW2 1257   1.171   0.644   3.304
  313SOL     OW 1258   1.207   1.584   2.665
  313SOL    HW1 1259   1.222   1.646   2.588
  313SOL    HW2 1260   1.285   1.589   2.728
  314SOL     OW 1261   0.471   1.153   2.586
  314SOL    HW1 1262   0.408   1.130   2.661
  314SOL    HW2 1263   0.423   1.144   2.499
  315SOL     OW 1264   1.255   1.791   2.475
  315SOL    HW1 1265   1.311   1.851   2.417
  315SOL    HW2 1266   1.182   1.845   2.518
  316SOL     OW 1267   1.025   0.529   1.896
  316SOL    HW1 1268   0.980   0.614   1.870
  316SOL    HW2 1269   1.095   0.547   1.964
  317SOL     OW 1270   0.094   0.556   3.252
  317SOL    HW1 1271   0.188   0.552   3.219
  317SOL    HW2 1272   0.086   0.627   3.322
  318SOL     OW 1273   0.555   0.226   3.041
  318SOL    HW1 1274   0.607   0.154   3.089
  318SOL    HW2 1275   0.459   0.221   3.068
  319SOL     OW 1276   0.868   0.462   2.492
  319SOL    HW1 1277   0.822   0.522   2.427
  319SOL    HW2 1278   0.898   0.378   2.444
  320SOL     OW 1279   1.003   0.056   2.607
  320SOL    HW1 1280   0.945   0.053   2.525
  320SOL    HW2 1281   0.986  -0.025   2.663
  321SOL     OW 1282   1.458   1.165   2.713
  321SOL    HW1 1283   1.378   1.112   2.683
  321SOL    HW2 1284   1.518   1.181   2.634
  322SOL     OW 1285   1.460   0.586   2.832
  322SOL    HW1 1286   1.381   0.525   2.839
  322SOL    HW2 1287   1.532   0.541   2.780
  323SOL     OW 1288   1.834   0.804   2.243
  323SOL    HW1 1289   1.895   0.758   2.308
  323SOL    HW2 1290   1.809   0.739   2.170
  324SOL     OW 1291   0.485   1.421   2.013
  324SOL    HW1 1292   0.404   1.393   2.065
  324SOL    HW2 1293   0.486   1.374   1.925
  325SOL     OW 1294   1.679   1.258   2.524
  325SOL    HW1 1295   1.779   1.251   2.529
  325SOL    HW2 1296   1.652   1.354   2.531
  326SOL     OW 1297   1.390   0.576   1.930
  326SOL    HW1 1298   1.330   0.550   2.005
  326SOL    HW2 1299   1.484   0.551   1.952
  327SOL     OW 1300   0.530   0.262   2.165
  327SOL    HW1 1301   0.578   0.209   2.095
  327SOL    HW2 1302   0.499   0.349   2.126
  328SOL     OW 1303   1.747   1.243   3.417
  328SOL    HW1 1304   1.835   1.199   3.397
  328SOL    HW2 1305   1.763   1.336   3.450
  329SOL     OW 1306   1.045   1.334   3.236
  329SOL    HW1 1307   1.010   1.360   3.326
  329SOL    HW2 1308   1.136   1.294   3.246
  330SOL     OW 1309   1.608   1.630   3.514
  330SOL    HW1 1310   1.596   1.669   3.423
  330SOL    HW2 1311   1.693   1.577   3.517
  331SOL     OW 1312   1.146   1.228   2.975
  331SOL    HW1 1313   1.070   1.239   3.039
  331SOL    HW2 1314   1.118   1.260   2.884
  332SOL     OW 1315   1.620   1.102   2.938
  332SOL    HW1 1316   1.612   1.165   3.016
  332SOL    HW2 1317   1.549   1.122   2.872
  333SOL     OW 1318   0.926   0.083   3.249
  333SOL    HW1 1319   0.947   0.061   3.153
  333SOL    HW2 1320   1.004   0.128   3.291
  334SOL     OW 1321   0.970   1.119   3.565
  334SOL    HW1 1322   0.879   1.132   3.605
  334SOL    HW2 1323   0.974   1.028   3.522
  335SOL     OW 1324   0.717   1.059   2.238
  335SOL    HW1 1325   0.698   1.037   2.334
  335SOL    HW2 1326   0.796   1.007   2.206
  336SOL     OW 1327   0.423   0.821   3.118
  336SOL    HW1 1328   0.496   0.835   3.185
  336SOL    HW2 1329   0.388   0.728   3.126
  337SOL     OW 1330   1.263   0.374   3.150
  337SOL    HW1 1331   1.298   0.455   3.197
  337SOL    HW2 1332   1.169   0.391   3.121
  338SOL     OW 1333   0.075   1.569   3.217
  338SOL    HW1 1334   0.043   1.644   3.160
  338SOL    HW2 1335   0.175   1.564   3.212
  339SOL     OW 1336   0.330   1.128   2.349
  339SOL    HW1 1337   0.333   1.209   2.290
  339SOL    HW2 1338   0.330   1.046   2.292
  340SOL     OW 1339   0.542   0.550   2.734
  340SOL    HW1 1340   0.554   0.607   2.654
  340SOL    HW2 1341   0.619   0.564   2.797
  341SOL     OW 1342   1.244   1.358   2.256
  341SOL    HW1 1343   1.306   1.430   2.287
  341SOL    HW2 1344   1.151   1.380   2.284
  342SOL     OW 1345   1.293   1.461   3.015
  342SOL    HW1 1346   1.353   1.468   3.095
  342SOL    HW2 1347   1.246   1.373   3.017
  343SOL     OW 1348   1.595   0.617   2.362
  343SOL    HW1 1349   1.524   0.671   2.407
  343SOL    HW2 1350   1.641   0.673   2.293
  344SOL     OW 1351   0.347   1.528   3.174
  344SOL    HW1 1352   0.330   1.488   3.084
  344SOL    HW2 1353   0.444   1.553   3.181
  345SOL     OW 1354   0.421   0.749   3.463
  345SOL    HW1 1355   0.489   0.793   3.404
  345SOL    HW2 1356   0.453   0.657   3.487
  346SOL     OW 1357   1.607   0.784   3.545
  346SOL    HW1 1358   1.515   0.823   3.555
  346SOL    HW2 1359   1.654   0.830   3.470
  347SOL     OW 1360   0.996   0.138   3.609
  347SOL    HW1 1361   1.055   0.218   3.598
  347SOL    HW2 1362   1.045   0.056   3.582
  348SOL     OW 1363   0.493   0.030   3.613
  348SOL    HW1 1364   0.443  -0.029   3.549
  348SOL    HW2 1365   0.438   0.111   3.633
  349SOL     OW 1366   0.593   0.865   2.899
  349SOL    HW1 1367   0.623   0.960   2.890
  349SOL    HW2 1368   0.525   0.859   2.972
  350SOL     OW 1369   1.364   0.831   2.905
  350SOL    HW1 1370   1.285   0.846   2.845
  350SOL    HW2 1371   1.402   0.741   2.886
  351SOL     OW 1372   1.199   0.525   2.125
  351SOL    HW1 1373   1.210   0.441   2.179
  351SOL    HW2 1374   1.153   0.594   2.180
  352SOL     OW 1375   0.290   0.184   3.110
  352SOL    HW1 1376   0.259   0.226   3.195
  352SOL    HW2 1377   0.267   0.086   3.110
  353SOL     OW 1378   0.048   1.308   3.135
  353SOL    HW1 1379   0.083   1.248   3.208
  353SOL    HW2 1380   0.049   1.403   3.167
  354SOL     OW 1381   0.737   0.632   2.920
  354SOL    HW1 1382   0.804   0.610   2.850
  354SOL    HW2 1383   0.695   0.720   2.899
  355SOL     OW 1384   1.730   0.965   3.718
  355SOL    HW1 1385   1.689   0.887   3.671
  355SOL    HW2 1386   1.677   0.987   3.800
  356SOL     OW 1387   0.312   0.055   2.492
  356SOL    HW1 1388   0.282   0.149   2.509
  356SOL    HW2 1389   0.321   0.007   2.580
  357SOL     OW 1390   1.630   0.379   2.220
  357SOL    HW1 1391   1.659   0.302   2.275
  357SOL    HW2 1392   1.605   0.456   2.279
  358SOL     OW 1393   1.019   0.758   2.820
  358SOL    HW1 1394   1.010   0.778   2.917
  358SOL    HW2 1395   0.995   0.662   2.804
  359SOL     OW 1396   0.974   1.562   3.585
  359SOL    HW1 1397   0.966   1.611   3.499
  359SOL    HW2 1398   1.026   1.478   3.571
  360SOL     OW 1399   1.848   1.501   3.463
  360SOL    HW1 1400   1.876   1.527   3.370
  360SOL    HW2 1401   1.923   1.517   3.526
  361SOL     OW 1402   0.355   0.929   3.660
  361SOL    HW1 1403   0.426   0.940   3.729
  361SOL    HW2 1404   0.383   0.859   3.594
  362SOL     OW 1405   1.518   0.263   1.990
  362SOL    HW1 1406   1.453   0.193   2.018
  362SOL    HW2 1407   1.558   0.306   2.071
  363SOL     OW 1408   1.289   0.827   1.886
  363SOL    HW1 1409   1.327   0.734   1.893
  363SOL    HW2 1410   1.320   0.868   1.800
  364SOL     OW 1411   1.073   1.344   2.731
  364SOL    HW1 1412   1.078   1.267   2.668
  364SOL    HW2 1413   1.126   1.421   2.693
  365SOL     OW 1414   0.312   0.806   2.803
  365SOL    HW1 1415   0.408   0.821   2.781
  365SOL    HW2 1416   0.301   0.712   2.837
  366SOL     OW 1417   0.318   0.530   2.875
  366SOL    HW1 1418   0.279   0.439   2.864
  366SOL    HW2 1419   0.400   0.538   2.819
  367SOL     OW 1420   1.135   0.373   3.557
  367SOL    HW1 1421   1.085   0.426   3.624
  367SOL    HW2 1422   1.228   0.408   3.548
  368SOL     OW 1423   1.158   0.200   3.340
  368SOL    HW1 1424   1.144   0.261   3.417
  368SOL    HW2 1425   1.205   0.250   3.266
  369SOL     OW 1426   5.595   1.310   2.060
  369SOL    HW1 1427   5.505   1.332   2.022
  369SOL    HW2 1428   5.596   1.216   2.093
  370SOL     OW 1429   0.068   1.842   2.741
  370SOL    HW1 1430   0.029   1.751   2.728
  370SOL    HW2 1431   0.168   1.834   2.746
  371SOL     OW 1432   0.487   1.580   2.764
  371SOL    HW1 1433   0.559   1.646   2.786
  371SOL    HW2 1434   0.522   1.513   2.699
  372SOL     OW 1435   0.946   0.799   3.091
  372SOL    HW1 1436   1.007   0.767   3.163
  372SOL    HW2 1437   0.870   0.734   3.081
  373SOL     OW 1438   0.033   0.565   2.981
  373SOL    HW1 1439   0.113   0.549   2.922
  373SOL    HW2 1440   0.061   0.561   3.077
  374SOL     OW 1441   0.187   0.526   3.595
  374SOL    HW1 1442   0.243   0.470   3.534
  374SOL    HW2 1443   0.155   0.607   3.545
  375SOL     OW 1444   1.376   0.934   3.522
  375SOL    HW1 1445   1.404   1.030   3.524
  375SOL    HW2 1446   1.372   0.902   3.428
  376SOL     OW 1447   0.817   0.575   2.227
  376SOL    HW1 1448   0.828   0.495   2.169
  376SOL    HW2 1449   0.738   0.629   2.197
  377SOL     OW 1450   0.236   1.540   3.585
  377SOL    HW1 1451   0.216   1.619   3.644
  377SOL    HW2 1452   0.243   1.458   3.640
  378SOL     OW 1453   0.724   0.442   3.111
  378SOL    HW1 1454   0.659   0.369   3.091
  378SOL    HW2 1455   0.718   0.511   3.039
  379SOL     OW 1456   0.920   1.671   3.332
  379SOL    HW1 1457   0.894   1.640   3.241
  379SOL    HW2 1458   0.934   1.770   3.331
  380SOL     OW 1459   0.453   0.494   2.047
  380SOL    HW1 1460   0.519   0.565   2.070
  380SOL    HW2 1461   0.362   0.535   2.035
  381SOL     OW 1462   0.151   1.144   3.336
  381SOL    HW1 1463   0.146   1.103   3.428
  381SOL    HW2 1464   0.164   1.072   3.268
  382SOL     OW 1465   1.318   1.036   3.079
  382SOL    HW1 1466   1.340   0.964   3.013
  382SOL    HW2 1467   1.257   1.103   3.037
  383SOL     OW 1468   1.320   0.853   2.158
  383SOL    HW1 1469   1.240   0.826   2.212
  383SOL    HW2 1470   1.299   0.843   2.060
  384SOL     OW 1471   1.774   1.719   3.012
  384SOL    HW1 1472   1.840   1.755   2.947
  384SOL    HW2 1473   1.750   1.625   2.987
  385SOL     OW 1474   1.243   1.728   2.960
  385SOL    HW1 1475   1.330   1.763   2.923
  385SOL    HW2 1476   1.254   1.632   2.986
  386SOL     OW 1477   0.093   1.260   2.872
  386SOL    HW1 1478   0.069   1.275   2.968
  386SOL    HW2 1479   0.022   1.203   2.829
  387SOL     OW 1480   0.682   1.677   3.604
  387SOL    HW1 1481   0.620   1.755   3.599
  387SOL    HW2 1482   0.770   1.700   3.562
  388SOL     OW 1483   1.729   0.158   2.356
  388SOL    HW1 1484   1.799   0.145   2.286
  388SOL    HW2 1485   1.707   0.069   2.397
  389SOL     OW 1486   1.399   1.571   2.355
  389SOL    HW1 1487   1.460   1.603   2.283
  389SOL    HW2 1488   1.341   1.647   2.386
  390SOL     OW 1489   0.154   1.777   3.708
  390SOL    HW1 1490   0.094   1.712   3.755
  390SOL    HW2 1491   0.202   1.833   3.776
  391SOL     OW 1492   1.281   0.942   2.532
  391SOL    HW1 1493   1.356   0.877   2.548
  391SOL    HW2 1494   1.312   1.013   2.469
  392SOL     OW 1495   0.666   1.622   2.017
  392SOL    HW1 1496   0.683   1.644   1.921
  392SOL    HW2 1497   0.607   1.542   2.023
  393SOL     OW 1498   1.616   1.729   3.242
  393SOL    HW1 1499   1.675   1.731   3.162
  393SOL    HW2 1500   1.600   1.823   3.274
  394SOL     OW 1501   1.845   0.162   2.828
  394SOL    HW1 1502   1.877   0.070   2.807
  394SOL    HW2 1503   1.754   0.176   2.788
  395SOL     OW 1504   0.248   0.307   2.575
  395SOL    HW1 1505   0.159   0.343   2.546
  395SOL    HW2 1506   0.250   0.304   2.675
  396SOL     OW 1507   1.209   1.596   1.896
  396SOL    HW1 1508   1.201   1.501   1.928
  396SOL    HW2 1509   1.140   1.612   1.825
  397SOL     OW 1510   0.828   1.023   3.230
  397SOL    HW1 1511   0.863   0.965   3.157
  397SOL    HW2 1512   0.902   1.079   3.267
  398SOL     OW 1513   0.927   0.915   2.155
  398SOL    HW1 1514   0.984   0.949   2.080
  398SOL    HW2 1515   0.974   0.840   2.202
  399SOL     OW 1516   1.486   1.639   1.908
  399SOL    HW1 1517   1.388   1.622   1.894
  399SOL    HW2 1518   1.532   1.643   1.819
  400SOL     OW 1519   0.390   1.297   3.326
  400SOL    HW1 1520   0.359   1.384   3.288
  400SOL    HW2 1521   0.312   1.234   3.330
  401SOL     OW 1522   1.604   1.283   3.146
  401SOL    HW1 1523   1.678   1.269   3.212
  401SOL    HW2 1524   1.545   1.357   3.179
  402SOL     OW 1525   1.069   1.114   2.593
  402SOL    HW1 1526   0.989   1.062   2.624
  402SOL    HW2 1527   1.138   1.051   2.556
  403SOL     OW 1528   1.023   0.240   2.829
  403SOL    HW1 1529   1.015   0.199   2.737
  403SOL    HW2 1530   1.022   0.167   2.898
  404SOL     OW 1531   0.609   1.491   2.346
  404SOL    HW1 1532   0.662   1.434   2.283
  404SOL    HW2 1533   0.533   1.534   2.295
  405SOL     OW 1534   1.747   0.406   3.232
  405SOL    HW1 1535   1.835   0.448   3.255
  405SOL    HW2 1536   1.764   0.323   3.178
  406SOL     OW 1537   0.256   1.345   2.158
  406SOL    HW1 1538   0.161   1.338   2.127
  406SOL    HW2 1539   0.259   1.389   2.247
  407SOL     OW 1540   0.119   1.045   3.586
  407SOL    HW1 1541   0.037   1.017   3.637
  407SOL    HW2 1542   0.199   0.999   3.624
  408SOL     OW 1543   0.687   0.186   3.360
  408SOL    HW1 1544   0.774   0.160   3.318
  408SOL    HW2 1545   0.704   0.221   3.452
  409SOL     OW 1546   0.077   0.326   1.881
  409SOL    HW1 1547  -0.008   0.301   1.835
  409SOL    HW2 1548   0.113   0.410   1.842
  410SOL     OW 1549   1.434   0.861   3.265
  410SOL    HW1 1550   1.387   0.923   3.202
  410SOL    HW2 1551   1.527   0.894   3.280
  411SOL     OW 1552   0.052   0.150   2.153
  411SOL    HW1 1553   0.033   0.229   2.094
  411SOL    HW2 1554   0.142   0.112   2.129
  412SOL     OW 1555   1.179   1.333   1.983
  412SOL    HW1 1556   1.082   1.309   1.974
  412SOL    HW2 1557   1.204   1.334   2.080
  413SOL     OW 1558   0.625   0.846   3.296
  413SOL    HW1 1559   0.684   0.923   3.275
  413SOL    HW2 1560   0.679   0.762   3.300
  414SOL     OW 1561   1.491   1.796   2.857
  414SOL    HW1 1562   1.511   1.867   2.789
  414SOL    HW2 1563   1.577   1.765   2.899
  415SOL     OW 1564   0.730   0.552   3.562
  415SOL    HW1 1565   0.773   0.614   3.627
  415SOL    HW2 1566   0.740   0.458   3.592
  416SOL     OW 1567   1.476   1.192   3.494
  416SOL    HW1 1568   1.460   1.206   3.592
  416SOL    HW2 1569   1.570   1.217   3.471
  417SOL     OW 1570   0.358   1.738   3.427
  417SOL    HW1 1571   0.276   1.794   3.421
  417SOL    HW2 1572   0.335   1.651   3.472
  418SOL     OW 1573   1.646   0.835   3.044
  418SOL    HW1 1574   1.547   0.827   3.027
  418SOL    HW2 1575   1.677   0.925   3.014
  419SOL     OW 1576   1.225   0.319   2.326
  419SOL    HW1 1577   1.284   0.239   2.314
  419SOL    HW2 1578   1.257   0.373   2.404
  420SOL     OW 1579   0.575   0.740   2.541
  420SOL    HW1 1580   0.622   0.827   2.523
  420SOL    HW2 1581   0.512   0.720   2.466
  421SOL     OW 1582   1.742   0.366   3.508
  421SOL    HW1 1583   1.735   0.379   3.409
  421SOL    HW2 1584   1.670   0.305   3.539
  422SOL     OW 1585   1.696   0.948   3.342
  422SOL    HW1 1586   1.702   1.032   3.397
  422SOL    HW2 1587   1.771   0.947   3.275
  423SOL     OW 1588   0.875   1.364   1.917
  423SOL    HW1 1589   0.826   1.392   2.000
  423SOL    HW2 1590   0.887   1.443   1.857
  424SOL     OW 1591   0.667   1.776   2.802
  424SOL    HW1 1592   0.643   1.872   2.785
  424SOL    HW2 1593   0.766   1.764   2.790
  425SOL     OW 1594   0.869   0.972   2.716
  425SOL    HW1 1595   0.919   0.892   2.751
  425SOL    HW2 1596   0.824   1.019   2.793
  426SOL     OW 1597   1.077   0.988   1.945
  426SOL    HW1 1598   1.048   1.042   1.866
  426SOL    HW2 1599   1.154   0.930   1.919
  427SOL     OW 1600   1.837   1.550   2.703
  427SOL    HW1 1601   1.758   1.542   2.642
  427SOL    HW2 1602   1.822   1.495   2.785
  428SOL     OW 1603   0.241   1.297   3.725
  428SOL    HW1 1604   0.170   1.231   3.699
  428SOL    HW2 1605   0.238   1.313   3.823
  429SOL     OW 1606   0.086   1.237   2.523
  429SOL    HW1 1607   0.079   1.180   2.605
  429SOL    HW2 1608   0.150   1.194   2.459
  430SOL     OW 1609   0.657   1.426   3.479
  430SOL    HW1 1610   0.599   1.373   3.540
  430SOL    HW2 1611   0.677   1.515   3.520
  431SOL     OW 1612   1.793   0.179   3.096
  431SOL    HW1 1613   1.822   0.090   3.131
  431SOL    HW2 1614   1.810   0.184   2.998
  432SOL     OW 1615   0.432   0.421   2.390
  432SOL    HW1 1616   0.465   0.355   2.323
  432SOL    HW2 1617   0.372   0.375   2.456
  433SOL     OW 1618   1.698   1.468   2.943
  433SOL    HW1 1619   1.613   1.456   2.892
  433SOL    HW2 1620   1.702   1.402   3.017
  434SOL     OW 1621   0.343   0.561   3.149
  434SOL    HW1 1622   0.397   0.498   3.205
  434SOL    HW2 1623   0.350   0.535   3.053
  435SOL     OW 1624   0.829   1.592   2.535
  435SOL    HW1 1625   0.827   1.667   2.468
  435SOL    HW2 1626   0.752   1.531   2.519
  436SOL     OW 1627   1.425   0.230   2.973
  436SOL    HW1 1628   1.437   0.133   2.996
  436SOL    HW2 1629   1.376   0.276   3.048
  437SOL     OW 1630   1.011   5.604   2.990
  437SOL    HW1 1631   0.951   5.545   2.935
  437SOL    HW2 1632   1.102   5.562   2.995
  438SOL     OW 1633   0.772   1.331   2.194
  438SOL    HW1 1634   0.748   1.234   2.200
  438SOL    HW2 1635   0.861   1.346   2.237
  439SOL     OW 1636   0.621   1.560   3.171
  439SOL    HW1 1637   0.617   1.652   3.211
  439SOL    HW2 1638   0.707   1.549   3.121
  440SOL     OW 1639   1.355   0.039   2.040
  440SOL    HW1 1640   1.400  -0.024   1.978
  440SOL    HW2 1641   1.262   0.008   2.058
  441SOL     OW 1642   1.307   0.470   2.550
  441SOL    HW1 1643   1.253   0.553   2.540
  441SOL    HW2 1644   1.287   0.428   2.639
  442SOL     OW 1645   1.593   0.218   2.750
  442SOL    HW1 1646   1.531   0.227   2.829
  442SOL    HW2 1647   1.584   0.298   2.692
  443SOL     OW 1648   0.039   1.058   2.177
  443SOL    HW1 1649   0.136   1.056   2.153
  443SOL    HW2 1650   0.008   0.965   2.196
  444SOL     OW 1651   0.884   1.670   2.198
  444SOL    HW1 1652   0.808   1.649   2.137
  444SOL    HW2 1653   0.859   1.747   2.256
  445SOL     OW 1654   0.210   0.619   3.856
  445SOL    HW1 1655   0.120   0.612   3.899
  445SOL    HW2 1656   0.203   0.597   3.759
  446SOL     OW 1657   0.221   0.279   4.717
  446SOL    HW1 1658   0.253   0.247   4.806
  446SOL    HW2 1659   0.127   0.247   4.701
  447SOL     OW 1660   5.583   0.397   4.360
  447SOL    HW1 1661   5.504   0.429   4.411
  447SOL    HW2 1662   5.559   0.313   4.311
  448SOL     OW 1663   0.571   1.305   4.920
  448SOL    HW1 1664   0.481   1.303   4.877
  448SOL    HW2 1665   0.590   1.398   4.952
  449SOL     OW 1666   1.573   1.507   4.432
  449SOL    HW1 1667   1.529   1.485   4.519
  449SOL    HW2 1668   1.504   1.517   4.361
  450SOL     OW 1669   1.133   0.709   4.412
  450SOL    HW1 1670   1.187   0.791   4.398
  450SOL    HW2 1671   1.083   0.716   4.499
  451SOL     OW 1672   1.787   0.586   3.937
  451SOL    HW1 1673   1.752   0.584   3.844
  451SOL    HW2 1674   1.742   0.514   3.991
  452SOL     OW 1675   0.731   1.136   4.766
  452SOL    HW1 1676   0.666   1.172   4.834
  452SOL    HW2 1677   0.780   1.212   4.723
  453SOL     OW 1678   0.882   0.751   5.548
  453SOL    HW1 1679   0.871   0.818   5.622
  453SOL    HW2 1680   0.904   0.799   5.463
  454SOL     OW 1681   0.683   0.995   4.371
  454SOL    HW1 1682   0.755   0.987   4.439
  454SOL    HW2 1683   0.609   1.053   4.406
  455SOL     OW 1684   0.711   1.154   5.552
  455SOL    HW1 1685   0.764   1.230   5.588
  455SOL    HW2 1686   0.629   1.188   5.507
  456SOL     OW 1687   0.332   1.415   4.789
  456SOL    HW1 1688   0.253   1.370   4.747
  456SOL    HW2 1689   0.378   1.470   4.720
  457SOL     OW 1690   1.456   1.503   5.090
  457SOL    HW1 1691   1.516   1.583   5.095
  457SOL    HW2 1692   1.385   1.510   5.159
  458SOL     OW 1693   0.455   0.382   5.186
  458SOL    HW1 1694   0.535   0.325   5.202
  458SOL    HW2 1695   0.372   0.333   5.213
  459SOL     OW 1696   1.606   0.440   4.474
  459SOL    HW1 1697   1.535   0.462   4.408
  459SOL    HW2 1698   1.609   0.510   4.545
  460SOL     OW 1699   0.222   1.715   4.194
  460SOL    HW1 1700   0.239   1.791   4.256
  460SOL    HW2 1701   0.299   1.705   4.132
  461SOL     OW 1702   1.136   1.339   5.426
  461SOL    HW1 1703   1.188   1.334   5.511
  461SOL    HW2 1704   1.079   1.258   5.416
  462SOL     OW 1705   0.231   1.439   4.252
  462SOL    HW1 1706   0.215   1.538   4.259
  462SOL    HW2 1707   0.176   1.392   4.321
  463SOL     OW 1708   0.283   1.090   4.627
  463SOL    HW1 1709   0.274   0.995   4.658
  463SOL    HW2 1710   0.216   1.147   4.675
  464SOL     OW 1711   0.587   1.801   5.146
  464SOL    HW1 1712   0.506   1.775   5.199
  464SOL    HW2 1713   0.621   1.889   5.179
  465SOL     OW 1714   0.575   0.991   3.872
  465SOL    HW1 1715   0.627   1.030   3.796
  465SOL    HW2 1716   0.617   1.019   3.958
  466SOL     OW 1717   1.600   0.120   5.196
  466SOL    HW1 1718   1.638   0.192   5.139
  466SOL    HW2 1719   1.578   0.157   5.286
  467SOL     OW 1720   0.110   0.668   4.289
  467SOL    HW1 1721   0.080   0.576   4.311
  467SOL    HW2 1722   0.105   0.725   4.371
  468SOL     OW 1723   1.849   1.729   4.054
  468SOL    HW1 1724   1.928   1.709   4.112
  468SOL    HW2 1725   1.852   1.825   4.026
  469SOL     OW 1726   0.025   1.583   3.841
  469SOL    HW1 1727   0.012   1.486   3.862
  469SOL    HW2 1728   0.006   1.638   3.922
  470SOL     OW 1729   1.692   0.914   4.376
  470SOL    HW1 1730   1.786   0.879   4.385
  470SOL    HW2 1731   1.684   0.965   4.291
  471SOL     OW 1732   1.660   1.105   4.156
  471SOL    HW1 1733   1.749   1.097   4.112
  471SOL    HW2 1734   1.667   1.167   4.235
  472SOL     OW 1735   0.119   0.748   5.307
  472SOL    HW1 1736   0.212   0.784   5.307
  472SOL    HW2 1737   0.054   0.823   5.299
  473SOL     OW 1738   0.617   1.394   4.455
  473SOL    HW1 1739   0.572   1.306   4.468
  473SOL    HW2 1740   0.604   1.423   4.360
  474SOL     OW 1741   1.283   1.229   5.147
  474SOL    HW1 1742   1.309   1.160   5.080
  474SOL    HW2 1743   1.346   1.227   5.224
  475SOL     OW 1744   0.821   0.013   4.229
  475SOL    HW1 1745   0.867   0.099   4.208
  475SOL    HW2 1746   0.722   0.029   4.235
  476SOL     OW 1747   0.188   0.956   5.017
  476SOL    HW1 1748   0.276   0.914   4.996
  476SOL    HW2 1749   0.118   0.919   4.956
  477SOL     OW 1750   1.531   1.011   3.930
  477SOL    HW1 1751   1.458   0.951   3.961
  477SOL    HW2 1752   1.583   1.045   4.009
  478SOL     OW 1753   1.177   1.816   5.345
  478SOL    HW1 1754   1.191   1.884   5.272
  478SOL    HW2 1755   1.198   1.725   5.310
  479SOL     OW 1756   0.349   0.243   5.571
  479SOL    HW1 1757   0.398   0.325   5.599
  479SOL    HW2 1758   0.251   0.257   5.580
  480SOL     OW 1759   1.460   1.421   4.665
  480SOL    HW1 1760   1.399   1.441   4.741
  480SOL    HW2 1761   1.453   1.324   4.641
  481SOL     OW 1762   1.629   1.758   4.300
  481SOL    HW1 1763   1.619   1.719   4.209
  481SOL    HW2 1764   1.629   1.685   4.368
  482SOL     OW 1765   0.590   0.710   4.000
  482SOL    HW1 1766   0.600   0.800   3.958
  482SOL    HW2 1767   0.522   0.714   4.073
  483SOL     OW 1768   1.279   0.369   4.658
  483SOL    HW1 1769   1.185   0.334   4.666
  483SOL    HW2 1770   1.339   0.317   4.719
  484SOL     OW 1771   1.582   1.662   4.034
  484SOL    HW1 1772   1.682   1.675   4.035
  484SOL    HW2 1773   1.552   1.650   3.939
  485SOL     OW 1774   0.789   0.612   5.167
  485SOL    HW1 1775   0.765   0.587   5.261
  485SOL    HW2 1776   0.757   0.540   5.104
  486SOL     OW 1777   1.387   0.470   5.406
  486SOL    HW1 1778   1.389   0.521   5.492
  486SOL    HW2 1779   1.448   0.391   5.413
  487SOL     OW 1780   0.950   0.883   5.312
  487SOL    HW1 1781   1.009   0.814   5.270
  487SOL    HW2 1782   0.896   0.928   5.241
  488SOL     OW 1783   0.996   0.397   4.944
  488SOL    HW1 1784   0.903   0.417   4.973
  488SOL    HW2 1785   0.994   0.351   4.855
  489SOL     OW 1786   1.051   0.701   4.145
  489SOL    HW1 1787   1.075   0.700   4.242
  489SOL    HW2 1788   0.965   0.652   4.132
  490SOL     OW 1789   0.087   0.844   4.497
  490SOL    HW1 1790   0.170   0.827   4.550
  490SOL    HW2 1791   0.033   0.915   4.542
  491SOL     OW 1792   0.129   1.880   5.320
  491SOL    HW1 1793   0.135   1.853   5.416
  491SOL    HW2 1794   0.044   1.844   5.281
  492SOL     OW 1795   0.895   0.349   3.922
  492SOL    HW1 1796   0.938   0.416   3.862
  492SOL    HW2 1797   0.905   0.257   3.882
  493SOL     OW 1798   1.685   0.569   5.557
  493SOL    HW1 1799   1.659   0.651   5.506
  493SOL    HW2 1800   1.721   0.500   5.494
  494SOL     OW 1801   1.384   1.141   4.247
  494SOL    HW1 1802   1.473   1.132   4.204
  494SOL    HW2 1803   1.332   1.212   4.200
  495SOL     OW 1804   0.547   0.161   4.636
  495SOL    HW1 1805   0.551   0.189   4.731
  495SOL    HW2 1806   0.549   0.242   4.577
  496SOL     OW 1807   0.988   1.445   4.184
  496SOL    HW1 1808   0.963   1.529   4.136
  496SOL    HW2 1809   0.973   1.456   4.282
  497SOL     OW 1810   0.352   1.814   4.599
  497SOL    HW1 1811   0.397   1.725   4.606
  497SOL    HW2 1812   0.418   1.886   4.623
  498SOL     OW 1813   1.794   1.052   4.614
  498SOL    HW1 1814   1.744   1.043   4.527
  498SOL    HW2 1815   1.729   1.057   4.689
  499SOL     OW 1816   1.223   1.537   5.242
  499SOL    HW1 1817   1.211   1.463   5.308
  499SOL    HW2 1818   1.158   1.525   5.166
  500SOL     OW 1819   0.316   0.964   3.983
  500SOL    HW1 1820   0.406   0.981   3.943
  500SOL    HW2 1821   0.287   0.871   3.962
  501SOL     OW 1822   1.484   0.752   4.442
  501SOL    HW1 1823   1.483   0.710   4.532
  501SOL    HW2 1824   1.565   0.811   4.433
  502SOL     OW 1825   0.471   1.269   5.454
  502SOL    HW1 1826   0.445   1.275   5.358
  502SOL    HW2 1827   0.388   1.264   5.511
  503SOL     OW 1828   1.121   1.781   3.940
  503SOL    HW1 1829   1.043   1.744   3.992
  503SOL    HW2 1830   1.153   1.712   3.875
  504SOL     OW 1831   0.204   0.271   5.224
  504SOL    HW1 1832   0.126   0.334   5.223
  504SOL    HW2 1833   0.178   0.187   5.272
  505SOL     OW 1834   1.619   1.381   3.806
  505SOL    HW1 1835   1.581   1.473   3.795
  505SOL    HW2 1836   1.547   1.313   3.790
  506SOL     OW 1837   0.462   1.733   4.043
  506SOL    HW1 1838   0.503   1.796   4.109
  506SOL    HW2 1839   0.534   1.698   3.982
  507SOL     OW 1840   1.402   0.102   4.169
  507SOL    HW1 1841   1.393   0.075   4.073
  507SOL    HW2 1842   1.498   0.114   4.192
  508SOL     OW 1843   0.261   1.792   4.943
  508SOL    HW1 1844   0.306   1.714   4.987
  508SOL    HW2 1845   0.233   1.766   4.850
  509SOL     OW 1846   0.940   1.705   4.620
  509SOL    HW1 1847   1.024   1.662   4.653
  509SOL    HW2 1848   0.902   1.649   4.546
  510SOL     OW 1849   0.391   0.686   4.195
  510SOL    HW1 1850   0.409   0.589   4.210
  510SOL    HW2 1851   0.297   0.707   4.218
  511SOL     OW 1852   1.520   0.223   5.453
  511SOL    HW1 1853   1.533   0.242   5.550
  511SOL    HW2 1854   1.447   0.155   5.441
  512SOL     OW 1855   0.645   0.113   3.823
  512SOL    HW1 1856   0.707   0.040   3.853
  512SOL    HW2 1857   0.588   0.079   3.748
  513SOL     OW 1858   0.759   0.273   5.476
  513SOL    HW1 1859   0.847   0.224   5.472
  513SOL    HW2 1860   0.711   0.247   5.560
  514SOL     OW 1861   0.872   1.514   4.918
  514SOL    HW1 1862   0.853   1.474   4.828
  514SOL    HW2 1863   0.944   1.460   4.963
  515SOL     OW 1864   1.335   0.589   5.163
  515SOL    HW1 1865   1.366   0.555   5.251
  515SOL    HW2 1866   1.372   0.681   5.148
  516SOL     OW 1867   0.823   1.381   4.671
  516SOL    HW1 1868   0.913   1.372   4.630
  516SOL    HW2 1869   0.754   1.393   4.598
  517SOL     OW 1870   0.927   0.507   4.618
  517SOL    HW1 1871   0.900   0.497   4.522
  517SOL    HW2 1872   0.958   0.419   4.653
  518SOL     OW 1873   0.548   0.062   4.211
  518SOL    HW1 1874   0.469   0.061   4.272
  518SOL    HW2 1875   0.541   0.142   4.151
  519SOL     OW 1876   1.418   1.198   3.763
  519SOL    HW1 1877   1.457   1.126   3.820
  519SOL    HW2 1878   1.333   1.232   3.805
  520SOL     OW 1879   0.288   0.042   3.907
  520SOL    HW1 1880   0.341   0.118   3.870
  520SOL    HW2 1881   0.349  -0.022   3.954
  521SOL     OW 1882   0.950   0.252   4.177
  521SOL    HW1 1883   0.920   0.293   4.091
  521SOL    HW2 1884   1.049   0.266   4.188
  522SOL     OW 1885   1.078   0.688   5.173
  522SOL    HW1 1886   1.006   0.620   5.179
  522SOL    HW2 1887   1.167   0.643   5.172
  523SOL     OW 1888   1.218   1.569   4.516
  523SOL    HW1 1889   1.232   1.641   4.448
  523SOL    HW2 1890   1.292   1.571   4.583
  524SOL     OW 1891   0.473   1.155   4.447
  524SOL    HW1 1892   0.411   1.134   4.523
  524SOL    HW2 1893   0.424   1.144   4.360
  525SOL     OW 1894   1.258   1.789   4.336
  525SOL    HW1 1895   1.314   1.852   4.282
  525SOL    HW2 1896   1.187   1.841   4.384
  526SOL     OW 1897   1.027   0.526   3.759
  526SOL    HW1 1898   0.981   0.613   3.739
  526SOL    HW2 1899   1.093   0.539   3.833
  527SOL     OW 1900   0.093   0.553   5.118
  527SOL    HW1 1901   0.187   0.552   5.085
  527SOL    HW2 1902   0.083   0.625   5.187
  528SOL     OW 1903   0.557   0.220   4.905
  528SOL    HW1 1904   0.606   0.157   4.965
  528SOL    HW2 1905   0.460   0.220   4.930
  529SOL     OW 1906   0.864   0.455   4.358
  529SOL    HW1 1907   0.818   0.519   4.297
  529SOL    HW2 1908   0.895   0.375   4.306
  530SOL     OW 1909   1.020   0.050   4.465
  530SOL    HW1 1910   0.958   0.052   4.387
  530SOL    HW2 1911   0.993  -0.024   4.527
  531SOL     OW 1912   1.451   1.158   4.586
  531SOL    HW1 1913   1.378   1.090   4.585
  531SOL    HW2 1914   1.490   1.167   4.494
  532SOL     OW 1915   1.470   0.613   4.686
  532SOL    HW1 1916   1.405   0.537   4.689
  532SOL    HW2 1917   1.531   0.607   4.765
  533SOL     OW 1918   1.829   0.802   4.098
  533SOL    HW1 1919   1.887   0.763   4.169
  533SOL    HW2 1920   1.812   0.734   4.027
  534SOL     OW 1921   0.486   1.424   3.881
  534SOL    HW1 1922   0.405   1.403   3.935
  534SOL    HW2 1923   0.485   1.371   3.796
  535SOL     OW 1924   1.686   1.257   4.375
  535SOL    HW1 1925   1.785   1.250   4.387
  535SOL    HW2 1926   1.657   1.351   4.392
  536SOL     OW 1927   1.388   0.577   3.793
  536SOL    HW1 1928   1.327   0.551   3.868
  536SOL    HW2 1929   1.483   0.558   3.819
  537SOL     OW 1930   0.524   0.262   4.025
  537SOL    HW1 1931   0.577   0.213   3.956
  537SOL    HW2 1932   0.494   0.349   3.988
  538SOL     OW 1933   1.750   1.244   5.279
  538SOL    HW1 1934   1.839   1.203   5.258
  538SOL    HW2 1935   1.763   1.338   5.311
  539SOL     OW 1936   1.048   1.347   5.061
  539SOL    HW1 1937   0.966   1.318   5.110
  539SOL    HW2 1938   1.128   1.306   5.104
  540SOL     OW 1939   1.612   1.635   5.388
  540SOL    HW1 1940   1.593   1.671   5.296
  540SOL    HW2 1941   1.696   1.582   5.386
  541SOL     OW 1942   1.143   1.230   4.829
  541SOL    HW1 1943   1.083   1.264   4.901
  541SOL    HW2 1944   1.110   1.262   4.740
  542SOL     OW 1945   1.610   1.090   4.810
  542SOL    HW1 1946   1.607   1.157   4.884
  542SOL    HW2 1947   1.542   1.112   4.740
  543SOL     OW 1948   0.930   0.083   5.114
  543SOL    HW1 1949   0.950   0.063   5.018
  543SOL    HW2 1950   1.007   0.131   5.155
  544SOL     OW 1951   0.976   1.115   5.449
  544SOL    HW1 1952   0.882   1.133   5.478
  544SOL    HW2 1953   0.978   1.031   5.394
  545SOL     OW 1954   0.716   1.058   4.099
  545SOL    HW1 1955   0.699   1.039   4.195
  545SOL    HW2 1956   0.793   1.002   4.067
  546SOL     OW 1957   0.424   0.817   4.977
  546SOL    HW1 1958   0.496   0.832   5.045
  546SOL    HW2 1959   0.386   0.725   4.989
  547SOL     OW 1960   1.261   0.375   5.009
  547SOL    HW1 1961   1.296   0.455   5.058
  547SOL    HW2 1962   1.166   0.391   4.983
  548SOL     OW 1963   0.072   1.573   5.082
  548SOL    HW1 1964   0.033   1.641   5.020
  548SOL    HW2 1965   0.171   1.573   5.073
  549SOL     OW 1966   0.328   1.126   4.215
  549SOL    HW1 1967   0.329   1.213   4.165
  549SOL    HW2 1968   0.328   1.050   4.150
  550SOL     OW 1969   0.541   0.539   4.583
  550SOL    HW1 1970   0.556   0.599   4.504
  550SOL    HW2 1971   0.609   0.559   4.653
  551SOL     OW 1972   1.244   1.360   4.114
  551SOL    HW1 1973   1.306   1.430   4.150
  551SOL    HW2 1974   1.151   1.377   4.148
  552SOL     OW 1975   1.296   1.465   4.874
  552SOL    HW1 1976   1.354   1.473   4.955
  552SOL    HW2 1977   1.245   1.379   4.878
  553SOL     OW 1978   1.579   0.624   4.208
  553SOL    HW1 1979   1.526   0.665   4.282
  553SOL    HW2 1980   1.642   0.691   4.170
  554SOL     OW 1981   0.345   1.535   5.029
  554SOL    HW1 1982   0.330   1.484   4.944
  554SOL    HW2 1983   0.444   1.548   5.043
  555SOL     OW 1984   0.420   0.752   5.328
  555SOL    HW1 1985   0.487   0.795   5.267
  555SOL    HW2 1986   0.453   0.661   5.355
  556SOL     OW 1987   1.613   0.788   5.417
  556SOL    HW1 1988   1.522   0.830   5.412
  556SOL    HW2 1989   1.671   0.828   5.345
  557SOL     OW 1990   1.004   0.132   5.470
  557SOL    HW1 1991   1.056   0.217   5.456
  557SOL    HW2 1992   1.056   0.055   5.432
  558SOL     OW 1993   0.497   0.024   5.481
  558SOL    HW1 1994   0.447  -0.030   5.414
  558SOL    HW2 1995   0.444   0.106   5.505
  559SOL     OW 1996   0.584   0.873   4.758
  559SOL    HW1 1997   0.622   0.965   4.758
  559SOL    HW2 1998   0.524   0.862   4.838
  560SOL     OW 1999   1.337   0.857   4.737
  560SOL    HW1 2000   1.243   0.837   4.708
  560SOL    HW2 2001   1.393   0.775   4.727
  561SOL     OW 2002   1.192   0.525   3.985
  561SOL    HW1 2003   1.209   0.443   4.041
  561SOL    HW2 2004   1.151   0.596   4.042
  562SOL     OW 2005   0.292   0.192   4.969
  562SOL    HW1 2006   0.258   0.229   5.055
  562SOL    HW2 2007   0.277   0.093   4.967
  563SOL     OW 2008   0.086   1.312   4.995
  563SOL    HW1 2009   0.100   1.248   5.071
  563SOL    HW2 2010   0.065   1.402   5.031
  564SOL     OW 2011   0.717   0.628   4.772
  564SOL    HW1 2012   0.797   0.612   4.714
  564SOL    HW2 2013   0.684   0.721   4.758
  565SOL     OW 2014   1.741   0.962  -0.003
  565SOL    HW1 2015   1.699   0.892  -0.062
  565SOL    HW2 2016   1.679   0.982   0.073
  566SOL     OW 2017   0.311   0.057   4.354
  566SOL    HW1 2018   0.281   0.151   4.371
  566SOL    HW2 2019   0.322   0.010   4.442
  567SOL     OW 2020   1.629   0.388   4.076
  567SOL    HW1 2021   1.653   0.312   4.137
  567SOL    HW2 2022   1.601   0.467   4.131
  568SOL     OW 2023   1.024   0.755   4.679
  568SOL    HW1 2024   1.013   0.776   4.776
  568SOL    HW2 2025   0.997   0.660   4.662
  569SOL     OW 2026   0.985   1.565   5.452
  569SOL    HW1 2027   0.963   1.612   5.366
  569SOL    HW2 2028   1.030   1.478   5.432
  570SOL     OW 2029   1.848   1.505   5.322
  570SOL    HW1 2030   1.871   1.529   5.227
  570SOL    HW2 2031   1.929   1.512   5.379
  571SOL     OW 2032   0.349   0.918   5.534
  571SOL    HW1 2033   0.428   0.940   5.591
  571SOL    HW2 2034   0.377   0.856   5.461
  572SOL     OW 2035   1.524   0.267   3.851
  572SOL    HW1 2036   1.460   0.196   3.880
  572SOL    HW2 2037   1.562   0.313   3.931
  573SOL     OW 2038   1.273   0.820   3.746
  573SOL    HW1 2039   1.316   0.731   3.758
  573SOL    HW2 2040   1.310   0.865   3.665
  574SOL     OW 2041   1.073   1.341   4.580
  574SOL    HW1 2042   1.081   1.262   4.519
  574SOL    HW2 2043   1.129   1.415   4.546
  575SOL     OW 2044   0.310   0.806   4.661
  575SOL    HW1 2045   0.407   0.832   4.663
  575SOL    HW2 2046   0.300   0.712   4.694
  576SOL     OW 2047   0.319   0.528   4.733
  576SOL    HW1 2048   0.280   0.436   4.724
  576SOL    HW2 2049   0.400   0.535   4.675
  577SOL     OW 2050   1.133   0.369   5.423
  577SOL    HW1 2051   1.082   0.424   5.489
  577SOL    HW2 2052   1.225   0.408   5.412
  578SOL     OW 2053   1.162   0.202   5.202
  578SOL    HW1 2054   1.147   0.264   5.279
  578SOL    HW2 2055   1.206   0.252   5.127
  579SOL     OW 2056   5.589   1.308   3.910
  579SOL    HW1 2057   5.498   1.328   3.873
  579SOL    HW2 2058   5.590   1.216   3.947
  580SOL     OW 2059   0.090   1.776   4.672
  580SOL    HW1 2060   0.050   1.697   4.624
  580SOL    HW2 2061   0.183   1.792   4.637
  581SOL     OW 2062   0.489   1.575   4.623
  581SOL    HW1 2063   0.559   1.641   4.650
  581SOL    HW2 2064   0.529   1.507   4.563
  582SOL     OW 2065   0.963   0.791   4.943
  582SOL    HW1 2066   1.028   0.771   5.017
  582SOL    HW2 2067   0.874   0.751   4.965
  583SOL     OW 2068   0.036   0.553   4.847
  583SOL    HW1 2069   0.119   0.550   4.792
  583SOL    HW2 2070   0.060   0.555   4.944
  584SOL     OW 2071   0.189   0.531   5.461
  584SOL    HW1 2072   0.246   0.478   5.397
  584SOL    HW2 2073   0.151   0.610   5.414
  585SOL     OW 2074   1.383   0.932   5.378
  585SOL    HW1 2075   1.408   1.028   5.378
  585SOL    HW2 2076   1.379   0.898   5.283
  586SOL     OW 2077   0.818   0.571   4.086
  586SOL    HW1 2078   0.827   0.490   4.028
  586SOL    HW2 2079   0.738   0.623   4.059
  587SOL     OW 2080   1.646   0.600   4.895
  587SOL    HW1 2081   1.631   0.544   4.977
  587SOL    HW2 2082   1.740   0.587   4.863
  588SOL     OW 2083   0.235   1.543   5.447
  588SOL    HW1 2084   0.215   1.617   5.510
  588SOL    HW2 2085   0.242   1.457   5.497
  589SOL     OW 2086   0.720   0.441   4.967
  589SOL    HW1 2087   0.655   0.366   4.949
  589SOL    HW2 2088   0.710   0.511   4.897
  590SOL     OW 2089   0.908   1.682   5.209
  590SOL    HW1 2090   0.885   1.630   5.127
  590SOL    HW2 2091   0.914   1.780   5.186
  591SOL     OW 2092   0.451   0.492   3.895
  591SOL    HW1 2093   0.517   0.560   3.925
  591SOL    HW2 2094   0.360   0.534   3.890
  592SOL     OW 2095   0.136   1.139   5.208
  592SOL    HW1 2096   0.136   1.100   5.300
  592SOL    HW2 2097   0.156   1.067   5.141
  593SOL     OW 2098   1.305   1.038   4.940
  593SOL    HW1 2099   1.333   0.973   4.869
  593SOL    HW2 2100   1.244   1.107   4.900
  594SOL     OW 2101   1.318   0.863   4.016
  594SOL    HW1 2102   1.251   0.831   4.082
  594SOL    HW2 2103   1.287   0.843   3.923
  595SOL     OW 2104   1.779   1.723   4.883
  595SOL    HW1 2105   1.841   1.757   4.813
  595SOL    HW2 2106   1.748   1.631   4.859
  596SOL     OW 2107   1.241   1.731   4.816
  596SOL    HW1 2108   1.328   1.765   4.781
  596SOL    HW2 2109   1.251   1.636   4.845
  597SOL     OW 2110   0.095   1.257   4.734
  597SOL    HW1 2111   0.089   1.277   4.831
  597SOL    HW2 2112   0.010   1.212   4.705
  598SOL     OW 2113   0.685   1.677   5.471
  598SOL    HW1 2114   0.619   1.752   5.467
  598SOL    HW2 2115   0.758   1.693   5.404
  599SOL     OW 2116   1.710   0.152   4.208
  599SOL    HW1 2117   1.789   0.142   4.147
  599SOL    HW2 2118   1.696   0.066   4.258
  600SOL     OW 2119   1.393   1.569   4.215
  600SOL    HW1 2120   1.458   1.601   4.146
  600SOL    HW2 2121   1.342   1.646   4.252
  601SOL     OW 2122   0.153   1.783  -0.021
  601SOL    HW1 2123   0.095   1.715   0.024
  601SOL    HW2 2124   0.201   1.837   0.048
  602SOL     OW 2125   1.285   0.932   4.385
  602SOL    HW1 2126   1.360   0.868   4.405
  602SOL    HW2 2127   1.319   1.007   4.329
  603SOL     OW 2128   0.791   1.282   5.145
  603SOL    HW1 2129   0.765   1.327   5.230
  603SOL    HW2 2130   0.719   1.292   5.078
  604SOL     OW 2131   0.666   1.626   3.880
  604SOL    HW1 2132   0.682   1.645   3.783
  604SOL    HW2 2133   0.609   1.545   3.889
  605SOL     OW 2134   1.612   1.728   5.112
  605SOL    HW1 2135   1.673   1.726   5.033
  605SOL    HW2 2136   1.597   1.823   5.140
  606SOL     OW 2137   1.840   0.160   4.691
  606SOL    HW1 2138   1.876   0.070   4.669
  606SOL    HW2 2139   1.750   0.171   4.649
  607SOL     OW 2140   0.245   0.310   4.436
  607SOL    HW1 2141   0.157   0.350   4.410
  607SOL    HW2 2142   0.252   0.304   4.535
  608SOL     OW 2143   1.209   1.595   3.756
  608SOL    HW1 2144   1.198   1.503   3.793
  608SOL    HW2 2145   1.136   1.614   3.689
  609SOL     OW 2146   0.824   1.012   5.107
  609SOL    HW1 2147   0.875   0.997   5.023
  609SOL    HW2 2148   0.815   1.111   5.124
  610SOL     OW 2149   0.916   0.904   4.000
  610SOL    HW1 2150   0.978   0.945   3.933
  610SOL    HW2 2151   0.966   0.839   4.057
  611SOL     OW 2152   1.486   1.632   3.766
  611SOL    HW1 2153   1.388   1.620   3.754
  611SOL    HW2 2154   1.530   1.638   3.676
  612SOL     OW 2155   0.364   1.304   5.210
  612SOL    HW1 2156   0.351   1.384   5.152
  612SOL    HW2 2157   0.283   1.245   5.203
  613SOL     OW 2158   1.603   1.281   5.007
  613SOL    HW1 2159   1.680   1.268   5.069
  613SOL    HW2 2160   1.542   1.352   5.043
  614SOL     OW 2161   1.071   1.107   4.442
  614SOL    HW1 2162   0.994   1.058   4.482
  614SOL    HW2 2163   1.142   1.043   4.415
  615SOL     OW 2164   1.026   0.241   4.691
  615SOL    HW1 2165   1.024   0.198   4.600
  615SOL    HW2 2166   1.024   0.169   4.761
  616SOL     OW 2167   0.606   1.482   4.198
  616SOL    HW1 2168   0.658   1.429   4.131
  616SOL    HW2 2169   0.531   1.529   4.153
  617SOL     OW 2170   1.734   0.394   5.109
  617SOL    HW1 2171   1.809   0.460   5.112
  617SOL    HW2 2172   1.755   0.321   5.044
  618SOL     OW 2173   0.245   1.353   4.002
  618SOL    HW1 2174   0.149   1.341   3.977
  618SOL    HW2 2175   0.251   1.390   4.095
  619SOL     OW 2176   0.116   1.050   5.468
  619SOL    HW1 2177   0.033   1.019   5.513
  619SOL    HW2 2178   0.194   0.996   5.501
  620SOL     OW 2179   0.687   0.182   5.219
  620SOL    HW1 2180   0.776   0.158   5.179
  620SOL    HW2 2181   0.702   0.219   5.311
  621SOL     OW 2182   0.085   0.319   3.742
  621SOL    HW1 2183  -0.008   0.296   3.713
  621SOL    HW2 2184   0.113   0.405   3.699
  622SOL     OW 2185   1.416   0.853   5.116
  622SOL    HW1 2186   1.361   0.917   5.063
  622SOL    HW2 2187   1.511   0.856   5.084
  623SOL     OW 2188   0.055   0.145   4.018
  623SOL    HW1 2189   0.042   0.233   3.973
  623SOL    HW2 2190   0.143   0.106   3.991
  624SOL     OW 2191   1.180   1.334   3.848
  624SOL    HW1 2192   1.088   1.294   3.848
  624SOL    HW2 2193   1.212   1.343   3.943
  625SOL     OW 2194   0.625   0.831   5.157
  625SOL    HW1 2195   0.683   0.911   5.146
  625SOL    HW2 2196   0.682   0.749   5.165
  626SOL     OW 2197   1.491   1.802   4.720
  626SOL    HW1 2198   1.516   1.872   4.653
  626SOL    HW2 2199   1.574   1.760   4.756
  627SOL     OW 2200   0.726   0.553   5.421
  627SOL    HW1 2201   0.771   0.617   5.482
  627SOL    HW2 2202   0.739   0.460   5.455
  628SOL     OW 2203   1.475   1.192   5.358
  628SOL    HW1 2204   1.463   1.207   5.456
  628SOL    HW2 2205   1.570   1.212   5.333
  629SOL     OW 2206   0.365   1.740   5.296
  629SOL    HW1 2207   0.283   1.795   5.283
  629SOL    HW2 2208   0.340   1.651   5.335
  630SOL     OW 2209   1.658   0.874   4.982
  630SOL    HW1 2210   1.660   0.785   4.937
  630SOL    HW2 2211   1.645   0.945   4.913
  631SOL     OW 2212   1.221   0.316   4.180
  631SOL    HW1 2213   1.284   0.239   4.175
  631SOL    HW2 2214   1.244   0.373   4.259
  632SOL     OW 2215   0.586   0.731   4.389
  632SOL    HW1 2216   0.626   0.822   4.383
  632SOL    HW2 2217   0.515   0.721   4.319
  633SOL     OW 2218   1.746   0.362   5.384
  633SOL    HW1 2219   1.741   0.381   5.286
  633SOL    HW2 2220   1.668   0.305   5.411
  634SOL     OW 2221   1.751   0.931   5.235
  634SOL    HW1 2222   1.746   1.029   5.254
  634SOL    HW2 2223   1.730   0.915   5.139
  635SOL     OW 2224   0.846   1.361   3.768
  635SOL    HW1 2225   0.822   1.370   3.865
  635SOL    HW2 2226   0.874   1.451   3.733
  636SOL     OW 2227   0.667   1.776   4.656
  636SOL    HW1 2228   0.643   1.873   4.644
  636SOL    HW2 2229   0.766   1.765   4.652
  637SOL     OW 2230   0.870   0.973   4.578
  637SOL    HW1 2231   0.921   0.895   4.614
  637SOL    HW2 2232   0.823   1.020   4.653
  638SOL     OW 2233   1.068   0.991   3.796
  638SOL    HW1 2234   1.049   1.047   3.715
  638SOL    HW2 2235   1.145   0.930   3.778
  639SOL     OW 2236   1.838   1.545   4.563
  639SOL    HW1 2237   1.752   1.529   4.513
  639SOL    HW2 2238   1.848   1.475   4.634
  640SOL     OW 2239   0.226   1.290   5.576
  640SOL    HW1 2240   0.177   1.215   5.533
  640SOL    HW2 2241   0.187   1.309   5.666
  641SOL     OW 2242   0.089   1.226   4.388
  641SOL    HW1 2243   0.075   1.187   4.479
  641SOL    HW2 2244   0.164   1.177   4.343
  642SOL     OW 2245   0.687   1.414   5.362
  642SOL    HW1 2246   0.605   1.365   5.394
  642SOL    HW2 2247   0.687   1.506   5.400
  643SOL     OW 2248   1.790   0.179   4.959
  643SOL    HW1 2249   1.842   0.101   4.994
  643SOL    HW2 2250   1.805   0.188   4.860
  644SOL     OW 2251   0.420   0.425   4.244
  644SOL    HW1 2252   0.460   0.353   4.187
  644SOL    HW2 2253   0.368   0.383   4.319
  645SOL     OW 2254   1.686   1.479   4.818
  645SOL    HW1 2255   1.608   1.461   4.759
  645SOL    HW2 2256   1.695   1.406   4.885
  646SOL     OW 2257   0.340   0.558   5.011
  646SOL    HW1 2258   0.395   0.497   5.067
  646SOL    HW2 2259   0.350   0.532   4.915
  647SOL     OW 2260   0.832   1.578   4.403
  647SOL    HW1 2261   0.807   1.646   4.335
  647SOL    HW2 2262   0.756   1.514   4.416
  648SOL     OW 2263   1.430   0.238   4.843
  648SOL    HW1 2264   1.470   0.158   4.888
  648SOL    HW2 2265   1.374   0.288   4.908
  649SOL     OW 2266   1.013   5.606   4.854
  649SOL    HW1 2267   0.947   5.547   4.808
  649SOL    HW2 2268   1.103   5.564   4.853
  650SOL     OW 2269   0.783   1.327   4.039
  650SOL    HW1 2270   0.757   1.233   4.059
  650SOL    HW2 2271   0.861   1.353   4.096
  651SOL     OW 2272   0.622   1.563   5.015
  651SOL    HW1 2273   0.617   1.650   5.063
  651SOL    HW2 2274   0.714   1.551   4.977
  652SOL     OW 2275   1.363   0.041   3.902
  652SOL    HW1 2276   1.412  -0.032   3.854
  652SOL    HW2 2277   1.269   0.014   3.918
  653SOL     OW 2278   1.282   0.466   4.400
  653SOL    HW1 2279   1.233   0.554   4.402
  653SOL    HW2 2280   1.285   0.428   4.492
  654SOL     OW 2281   1.581   0.195   4.612
  654SOL    HW1 2282   1.527   0.220   4.692
  654SOL    HW2 2283   1.588   0.274   4.550
  655SOL     OW 2284   0.041   1.049   4.016
  655SOL    HW1 2285   0.140   1.052   4.005
  655SOL    HW2 2286   0.012   0.958   4.044
  656SOL     OW 2287   0.887   1.670   4.058
  656SOL    HW1 2288   0.809   1.650   4.000
  656SOL    HW2 2289   0.864   1.744   4.121
  657SOL     OW 2290   0.212   2.481   0.128
  657SOL    HW1 2291   0.122   2.477   0.172
  657SOL    HW2 2292   0.203   2.457   0.032
  658SOL     OW 2293   0.225   2.136   0.988
  658SOL    HW1 2294   0.254   2.106   1.079
  658SOL    HW2 2295   0.129   2.112   0.974
  659SOL     OW 2296   5.587   2.252   0.634
  659SOL    HW1 2297   5.511   2.286   0.689
  659SOL    HW2 2298   5.557   2.172   0.581
  660SOL     OW 2299   0.576   3.164   1.198
  660SOL    HW1 2300   0.485   3.152   1.158
  660SOL    HW2 2301   0.588   3.258   1.229
  661SOL     OW 2302   1.575   3.379   0.706
  661SOL    HW1 2303   1.530   3.351   0.791
  661SOL    HW2 2304   1.507   3.386   0.633
  662SOL     OW 2305   1.144   2.559   0.699
  662SOL    HW1 2306   1.191   2.643   0.673
  662SOL    HW2 2307   1.086   2.577   0.779
  663SOL     OW 2308   1.749   2.456   0.229
  663SOL    HW1 2309   1.732   2.459   0.130
  663SOL    HW2 2310   1.726   2.366   0.264
  664SOL     OW 2311   0.748   3.004   1.050
  664SOL    HW1 2312   0.677   3.036   1.114
  664SOL    HW2 2313   0.789   3.083   1.004
  665SOL     OW 2314   0.881   2.618   1.824
  665SOL    HW1 2315   0.857   2.684   1.895
  665SOL    HW2 2316   0.901   2.666   1.739
  666SOL     OW 2317   0.684   2.857   0.649
  666SOL    HW1 2318   0.754   2.852   0.719
  666SOL    HW2 2319   0.608   2.913   0.682
  667SOL     OW 2320   0.715   3.019   1.825
  667SOL    HW1 2321   0.767   3.098   1.860
  667SOL    HW2 2322   0.631   3.052   1.782
  668SOL     OW 2323   0.331   3.275   1.064
  668SOL    HW1 2324   0.249   3.234   1.025
  668SOL    HW2 2325   0.376   3.332   0.996
  669SOL     OW 2326   1.456   3.369   1.365
  669SOL    HW1 2327   1.512   3.451   1.376
  669SOL    HW2 2328   1.379   3.373   1.429
  670SOL     OW 2329   0.459   2.245   1.469
  670SOL    HW1 2330   0.534   2.180   1.479
  670SOL    HW2 2331   0.372   2.199   1.489
  671SOL     OW 2332   1.600   2.324   0.735
  671SOL    HW1 2333   1.598   2.368   0.645
  671SOL    HW2 2334   1.618   2.392   0.805
  672SOL     OW 2335   0.217   3.546   0.456
  672SOL    HW1 2336   0.217   3.623   0.520
  672SOL    HW2 2337   0.299   3.549   0.399
  673SOL     OW 2338   1.136   3.201   1.698
  673SOL    HW1 2339   1.178   3.199   1.789
  673SOL    HW2 2340   1.078   3.120   1.687
  674SOL     OW 2341   0.241   3.281   0.529
  674SOL    HW1 2342   0.222   3.379   0.526
  674SOL    HW2 2343   0.182   3.238   0.598
  675SOL     OW 2344   0.288   2.956   0.923
  675SOL    HW1 2345   0.268   2.869   0.969
  675SOL    HW2 2346   0.221   3.025   0.952
  676SOL     OW 2347   0.605   3.652   1.445
  676SOL    HW1 2348   0.515   3.630   1.485
  676SOL    HW2 2349   0.627   3.748   1.462
  677SOL     OW 2350   0.576   2.850   0.148
  677SOL    HW1 2351   0.626   2.891   0.072
  677SOL    HW2 2352   0.617   2.880   0.235
  678SOL     OW 2353   1.599   1.988   1.468
  678SOL    HW1 2354   1.633   2.065   1.414
  678SOL    HW2 2355   1.577   2.019   1.561
  679SOL     OW 2356   0.118   2.526   0.564
  679SOL    HW1 2357   0.080   2.436   0.585
  679SOL    HW2 2358   0.111   2.584   0.645
  680SOL     OW 2359   1.849   3.614   0.329
  680SOL    HW1 2360   1.924   3.586   0.391
  680SOL    HW2 2361   1.862   3.709   0.302
  681SOL     OW 2362   0.032   3.446   0.108
  681SOL    HW1 2363   0.013   3.350   0.129
  681SOL    HW2 2364   0.009   3.503   0.186
  682SOL     OW 2365   1.691   2.782   0.647
  682SOL    HW1 2366   1.778   2.733   0.634
  682SOL    HW2 2367   1.671   2.836   0.566
  683SOL     OW 2368   1.658   2.964   0.433
  683SOL    HW1 2369   1.746   2.957   0.388
  683SOL    HW2 2370   1.663   3.032   0.507
  684SOL     OW 2371   0.127   2.611   1.588
  684SOL    HW1 2372   0.215   2.657   1.577
  684SOL    HW2 2373   0.052   2.675   1.568
  685SOL     OW 2374   0.620   3.254   0.734
  685SOL    HW1 2375   0.571   3.168   0.749
  685SOL    HW2 2376   0.604   3.285   0.640
  686SOL     OW 2377   1.284   3.094   1.420
  686SOL    HW1 2378   1.308   3.023   1.355
  686SOL    HW2 2379   1.344   3.088   1.500
  687SOL     OW 2380   0.822   1.881   0.515
  687SOL    HW1 2381   0.864   1.967   0.485
  687SOL    HW2 2382   0.723   1.893   0.517
  688SOL     OW 2383   0.200   2.808   1.179
  688SOL    HW1 2384   0.285   2.765   1.209
  688SOL    HW2 2385   0.158   2.857   1.255
  689SOL     OW 2386   1.533   2.871   0.203
  689SOL    HW1 2387   1.461   2.807   0.232
  689SOL    HW2 2388   1.582   2.904   0.283
  690SOL     OW 2389   1.207   3.687   1.628
  690SOL    HW1 2390   1.190   3.752   1.554
  690SOL    HW2 2391   1.208   3.594   1.590
  691SOL     OW 2392   0.339   2.105   1.858
  691SOL    HW1 2393   0.386   2.192   1.861
  691SOL    HW2 2394   0.240   2.120   1.856
  692SOL     OW 2395   1.466   3.285   0.941
  692SOL    HW1 2396   1.401   3.304   1.013
  692SOL    HW2 2397   1.458   3.189   0.912
  693SOL     OW 2398   1.645   3.628   0.572
  693SOL    HW1 2399   1.627   3.596   0.479
  693SOL    HW2 2400   1.630   3.552   0.636
  694SOL     OW 2401   0.590   2.577   0.279
  694SOL    HW1 2402   0.592   2.666   0.234
  694SOL    HW2 2403   0.522   2.579   0.352
  695SOL     OW 2404   1.584   3.540   0.309
  695SOL    HW1 2405   1.681   3.560   0.305
  695SOL    HW2 2406   1.550   3.521   0.216
  696SOL     OW 2407   0.807   2.461   1.443
  696SOL    HW1 2408   0.778   2.441   1.536
  696SOL    HW2 2409   0.759   2.401   1.379
  697SOL     OW 2410   1.389   2.330   1.678
  697SOL    HW1 2411   1.391   2.381   1.764
  697SOL    HW2 2412   1.446   2.248   1.686
  698SOL     OW 2413   0.949   2.748   1.584
  698SOL    HW1 2414   1.008   2.679   1.544
  698SOL    HW2 2415   0.898   2.795   1.512
  699SOL     OW 2416   0.994   2.261   1.220
  699SOL    HW1 2417   0.921   2.310   1.268
  699SOL    HW2 2418   0.954   2.188   1.165
  700SOL     OW 2419   1.055   2.559   0.423
  700SOL    HW1 2420   1.073   2.554   0.521
  700SOL    HW2 2421   0.967   2.515   0.404
  701SOL     OW 2422   0.094   2.702   0.770
  701SOL    HW1 2423   0.180   2.687   0.819
  701SOL    HW2 2424   0.039   2.770   0.819
  702SOL     OW 2425   0.129   3.741   1.588
  702SOL    HW1 2426   0.131   3.713   1.683
  702SOL    HW2 2427   0.057   3.692   1.540
  703SOL     OW 2428   0.888   2.214   0.203
  703SOL    HW1 2429   0.931   2.273   0.134
  703SOL    HW2 2430   0.888   2.120   0.172
  704SOL     OW 2431   1.692   2.432   1.829
  704SOL    HW1 2432   1.662   2.512   1.778
  704SOL    HW2 2433   1.722   2.361   1.764
  705SOL     OW 2434   1.384   3.005   0.531
  705SOL    HW1 2435   1.468   2.992   0.479
  705SOL    HW2 2436   1.326   3.073   0.485
  706SOL     OW 2437   0.554   2.028   0.907
  706SOL    HW1 2438   0.554   2.059   1.002
  706SOL    HW2 2439   0.540   2.106   0.846
  707SOL     OW 2440   0.989   3.311   0.464
  707SOL    HW1 2441   0.959   3.390   0.410
  707SOL    HW2 2442   0.961   3.323   0.559
  708SOL     OW 2443   0.324   3.665   0.912
  708SOL    HW1 2444   0.385   3.586   0.900
  708SOL    HW2 2445   0.323   3.719   0.828
  709SOL     OW 2446   1.798   2.916   0.879
  709SOL    HW1 2447   1.749   2.899   0.794
  709SOL    HW2 2448   1.733   2.923   0.955
  710SOL     OW 2449   1.225   3.400   1.514
  710SOL    HW1 2450   1.212   3.324   1.578
  710SOL    HW2 2451   1.147   3.405   1.452
  711SOL     OW 2452   0.316   2.830   0.258
  711SOL    HW1 2453   0.406   2.841   0.216
  711SOL    HW2 2454   0.282   2.738   0.239
  712SOL     OW 2455   1.489   2.619   0.726
  712SOL    HW1 2456   1.489   2.589   0.822
  712SOL    HW2 2457   1.565   2.682   0.711
  713SOL     OW 2458   0.471   3.131   1.733
  713SOL    HW1 2459   0.449   3.134   1.636
  713SOL    HW2 2460   0.386   3.126   1.786
  714SOL     OW 2461   1.110   3.639   0.215
  714SOL    HW1 2462   1.040   3.596   0.271
  714SOL    HW2 2463   1.146   3.573   0.150
  715SOL     OW 2464   0.202   2.146   1.496
  715SOL    HW1 2465   0.126   2.207   1.471
  715SOL    HW2 2466   0.165   2.061   1.535
  716SOL     OW 2467   1.624   3.247   0.095
  716SOL    HW1 2468   1.587   3.338   0.075
  716SOL    HW2 2469   1.557   3.178   0.071
  717SOL     OW 2470   0.466   3.585   0.324
  717SOL    HW1 2471   0.501   3.654   0.388
  717SOL    HW2 2472   0.539   3.556   0.263
  718SOL     OW 2473   1.399   1.967   0.445
  718SOL    HW1 2474   1.386   1.939   0.349
  718SOL    HW2 2475   1.496   1.963   0.468
  719SOL     OW 2476   0.278   3.656   1.203
  719SOL    HW1 2477   0.306   3.568   1.242
  719SOL    HW2 2478   0.288   3.653   1.104
  720SOL     OW 2479   0.940   3.566   0.891
  720SOL    HW1 2480   1.014   3.513   0.932
  720SOL    HW2 2481   0.898   3.514   0.817
  721SOL     OW 2482   0.397   2.544   0.477
  721SOL    HW1 2483   0.415   2.447   0.492
  721SOL    HW2 2484   0.301   2.564   0.498
  722SOL     OW 2485   1.519   2.083   1.725
  722SOL    HW1 2486   1.531   2.103   1.822
  722SOL    HW2 2487   1.449   2.012   1.715
  723SOL     OW 2488   0.641   1.989   0.102
  723SOL    HW1 2489   0.734   1.953   0.116
  723SOL    HW2 2490   0.596   1.936   0.030
  724SOL     OW 2491   0.762   2.135   1.760
  724SOL    HW1 2492   0.849   2.085   1.754
  724SOL    HW2 2493   0.709   2.100   1.838
  725SOL     OW 2494   0.876   3.381   1.192
  725SOL    HW1 2495   0.851   3.342   1.103
  725SOL    HW2 2496   0.942   3.321   1.238
  726SOL     OW 2497   1.335   2.445   1.433
  726SOL    HW1 2498   1.365   2.412   1.522
  726SOL    HW2 2499   1.367   2.539   1.420
  727SOL     OW 2500   0.825   3.248   0.946
  727SOL    HW1 2501   0.914   3.238   0.901
  727SOL    HW2 2502   0.754   3.257   0.876
  728SOL     OW 2503   0.957   2.354   0.889
  728SOL    HW1 2504   0.926   2.353   0.794
  728SOL    HW2 2505   0.918   2.276   0.937
  729SOL     OW 2506   0.551   1.927   0.490
  729SOL    HW1 2507   0.470   1.924   0.548
  729SOL    HW2 2508   0.545   2.006   0.429
  730SOL     OW 2509   1.426   3.065   0.037
  730SOL    HW1 2510   1.461   2.988   0.091
  730SOL    HW2 2511   1.338   3.094   0.075
  731SOL     OW 2512   0.289   1.910   0.183
  731SOL    HW1 2513   0.340   1.982   0.135
  731SOL    HW2 2514   0.353   1.847   0.227
  732SOL     OW 2515   0.948   2.118   0.453
  732SOL    HW1 2516   0.913   2.155   0.367
  732SOL    HW2 2517   1.047   2.131   0.457
  733SOL     OW 2518   1.075   2.550   1.450
  733SOL    HW1 2519   0.995   2.491   1.459
  733SOL    HW2 2520   1.158   2.494   1.452
  734SOL     OW 2521   1.221   3.429   0.789
  734SOL    HW1 2522   1.228   3.502   0.722
  734SOL    HW2 2523   1.293   3.439   0.858
  735SOL     OW 2524   0.473   3.013   0.732
  735SOL    HW1 2525   0.410   2.993   0.807
  735SOL    HW2 2526   0.426   3.002   0.645
  736SOL     OW 2527   1.258   3.652   0.614
  736SOL    HW1 2528   1.309   3.717   0.558
  736SOL    HW2 2529   1.179   3.698   0.655
  737SOL     OW 2530   1.021   2.385   0.030
  737SOL    HW1 2531   0.977   2.471   0.005
  737SOL    HW2 2532   1.090   2.403   0.101
  738SOL     OW 2533   0.098   2.413   1.399
  738SOL    HW1 2534   0.190   2.420   1.362
  738SOL    HW2 2535   0.081   2.488   1.462
  739SOL     OW 2536   0.559   2.084   1.178
  739SOL    HW1 2537   0.603   2.008   1.226
  739SOL    HW2 2538   0.462   2.087   1.201
  740SOL     OW 2539   0.877   2.322   0.633
  740SOL    HW1 2540   0.815   2.385   0.586
  740SOL    HW2 2541   0.895   2.243   0.575
  741SOL     OW 2542   1.012   1.913   0.731
  741SOL    HW1 2543   0.949   1.913   0.654
  741SOL    HW2 2544   0.992   1.834   0.790
  742SOL     OW 2545   1.449   3.024   0.858
  742SOL    HW1 2546   1.364   2.970   0.862
  742SOL    HW2 2547   1.479   3.030   0.763
  743SOL     OW 2548   1.486   2.485   0.978
  743SOL    HW1 2549   1.440   2.397   0.982
  743SOL    HW2 2550   1.550   2.493   1.055
  744SOL     OW 2551   1.833   2.667   0.379
  744SOL    HW1 2552   1.894   2.620   0.443
  744SOL    HW2 2553   1.802   2.603   0.309
  745SOL     OW 2554   0.488   3.284   0.152
  745SOL    HW1 2555   0.404   3.265   0.205
  745SOL    HW2 2556   0.491   3.222   0.073
  746SOL     OW 2557   1.685   3.127   0.644
  746SOL    HW1 2558   1.784   3.123   0.655
  746SOL    HW2 2559   1.653   3.221   0.661
  747SOL     OW 2560   1.389   2.439   0.062
  747SOL    HW1 2561   1.330   2.412   0.138
  747SOL    HW2 2562   1.484   2.416   0.083
  748SOL     OW 2563   0.525   2.128   0.306
  748SOL    HW1 2564   0.572   2.075   0.235
  748SOL    HW2 2565   0.494   2.215   0.268
  749SOL     OW 2566   1.749   3.105   1.546
  749SOL    HW1 2567   1.838   3.064   1.530
  749SOL    HW2 2568   1.761   3.197   1.585
  750SOL     OW 2569   1.042   3.207   1.334
  750SOL    HW1 2570   0.960   3.178   1.383
  750SOL    HW2 2571   1.123   3.169   1.380
  751SOL     OW 2572   1.618   3.503   1.665
  751SOL    HW1 2573   1.599   3.535   1.572
  751SOL    HW2 2574   1.699   3.446   1.665
  752SOL     OW 2575   1.146   3.095   1.104
  752SOL    HW1 2576   1.083   3.124   1.176
  752SOL    HW2 2577   1.111   3.124   1.015
  753SOL     OW 2578   1.618   2.959   1.080
  753SOL    HW1 2579   1.613   3.025   1.156
  753SOL    HW2 2580   1.545   2.978   1.014
  754SOL     OW 2581   0.925   1.950   1.392
  754SOL    HW1 2582   0.946   1.922   1.298
  754SOL    HW2 2583   1.005   1.996   1.431
  755SOL     OW 2584   0.976   2.977   1.723
  755SOL    HW1 2585   0.883   2.997   1.752
  755SOL    HW2 2586   0.977   2.894   1.667
  756SOL     OW 2587   0.717   2.923   0.374
  756SOL    HW1 2588   0.696   2.903   0.470
  756SOL    HW2 2589   0.795   2.869   0.345
  757SOL     OW 2590   0.434   2.674   1.251
  757SOL    HW1 2591   0.499   2.692   1.324
  757SOL    HW2 2592   0.388   2.587   1.268
  758SOL     OW 2593   1.259   2.248   1.261
  758SOL    HW1 2594   1.295   2.321   1.319
  758SOL    HW2 2595   1.160   2.260   1.249
  759SOL     OW 2596   0.076   3.448   1.364
  759SOL    HW1 2597   0.034   3.503   1.292
  759SOL    HW2 2598   0.174   3.439   1.346
  760SOL     OW 2599   0.343   2.984   0.494
  760SOL    HW1 2600   0.328   3.075   0.455
  760SOL    HW2 2601   0.335   2.915   0.421
  761SOL     OW 2602   0.550   2.395   0.861
  761SOL    HW1 2603   0.558   2.455   0.781
  761SOL    HW2 2604   0.613   2.427   0.933
  762SOL     OW 2605   1.243   3.221   0.398
  762SOL    HW1 2606   1.305   3.293   0.431
  762SOL    HW2 2607   1.150   3.241   0.427
  763SOL     OW 2608   1.297   3.329   1.145
  763SOL    HW1 2609   1.349   3.333   1.230
  763SOL    HW2 2610   1.240   3.246   1.146
  764SOL     OW 2611   1.583   2.465   0.503
  764SOL    HW1 2612   1.532   2.535   0.553
  764SOL    HW2 2613   1.634   2.509   0.428
  765SOL     OW 2614   0.346   3.400   1.299
  765SOL    HW1 2615   0.329   3.347   1.216
  765SOL    HW2 2616   0.444   3.412   1.312
  766SOL     OW 2617   0.424   2.612   1.603
  766SOL    HW1 2618   0.492   2.654   1.544
  766SOL    HW2 2619   0.440   2.513   1.607
  767SOL     OW 2620   1.614   2.649   1.689
  767SOL    HW1 2621   1.523   2.690   1.684
  767SOL    HW2 2622   1.672   2.689   1.618
  768SOL     OW 2623   0.999   2.001   1.754
  768SOL    HW1 2624   1.055   2.082   1.738
  768SOL    HW2 2625   1.049   1.919   1.726
  769SOL     OW 2626   0.486   1.893   1.761
  769SOL    HW1 2627   0.440   1.838   1.690
  769SOL    HW2 2628   0.429   1.973   1.782
  770SOL     OW 2629   0.588   2.732   1.036
  770SOL    HW1 2630   0.605   2.829   1.023
  770SOL    HW2 2631   0.524   2.719   1.112
  771SOL     OW 2632   1.334   2.717   1.019
  771SOL    HW1 2633   1.241   2.701   0.984
  771SOL    HW2 2634   1.388   2.634   1.010
  772SOL     OW 2635   1.197   2.386   0.259
  772SOL    HW1 2636   1.205   2.302   0.313
  772SOL    HW2 2637   1.152   2.456   0.314
  773SOL     OW 2638   0.298   2.057   1.243
  773SOL    HW1 2639   0.256   2.096   1.326
  773SOL    HW2 2640   0.280   1.958   1.240
  774SOL     OW 2641   0.054   3.190   1.257
  774SOL    HW1 2642   0.076   3.116   1.320
  774SOL    HW2 2643   0.050   3.277   1.308
  775SOL     OW 2644   0.724   2.499   1.046
  775SOL    HW1 2645   0.801   2.501   0.982
  775SOL    HW2 2646   0.676   2.587   1.043
  776SOL     OW 2647   1.738   2.827   1.862
  776SOL    HW1 2648   1.697   2.754   1.806
  776SOL    HW2 2649   1.677   2.847   1.939
  777SOL     OW 2650   0.313   1.922   0.628
  777SOL    HW1 2651   0.282   2.015   0.644
  777SOL    HW2 2652   0.321   1.875   0.716
  778SOL     OW 2653   1.625   2.233   0.354
  778SOL    HW1 2654   1.662   2.158   0.409
  778SOL    HW2 2655   1.598   2.308   0.414
  779SOL     OW 2656   1.027   2.610   0.953
  779SOL    HW1 2657   1.014   2.632   1.050
  779SOL    HW2 2658   1.005   2.514   0.938
  780SOL     OW 2659   0.993   3.434   1.719
  780SOL    HW1 2660   0.966   3.476   1.632
  780SOL    HW2 2661   1.030   3.343   1.702
  781SOL     OW 2662   1.852   3.364   1.605
  781SOL    HW1 2663   1.875   3.389   1.511
  781SOL    HW2 2664   1.934   3.369   1.662
  782SOL     OW 2665   0.350   2.749   1.828
  782SOL    HW1 2666   0.435   2.791   1.861
  782SOL    HW2 2667   0.369   2.699   1.744
  783SOL     OW 2668   1.514   2.126   0.124
  783SOL    HW1 2669   1.452   2.053   0.152
  783SOL    HW2 2670   1.557   2.167   0.204
  784SOL     OW 2671   1.288   2.689   5.613
  784SOL    HW1 2672   1.326   2.597   5.621
  784SOL    HW2 2673   1.320   2.731   5.528
  785SOL     OW 2674   1.076   3.203   0.856
  785SOL    HW1 2675   1.081   3.124   0.795
  785SOL    HW2 2676   1.130   3.278   0.818
  786SOL     OW 2677   0.322   2.655   0.915
  786SOL    HW1 2678   0.418   2.684   0.920
  786SOL    HW2 2679   0.306   2.581   0.980
  787SOL     OW 2680   0.333   2.380   1.024
  787SOL    HW1 2681   0.286   2.293   1.008
  787SOL    HW2 2682   0.408   2.390   0.958
  788SOL     OW 2683   1.134   2.234   1.694
  788SOL    HW1 2684   1.081   2.290   1.758
  788SOL    HW2 2685   1.226   2.272   1.686
  789SOL     OW 2686   1.161   2.068   1.473
  789SOL    HW1 2687   1.146   2.129   1.551
  789SOL    HW2 2688   1.207   2.119   1.400
  790SOL     OW 2689   5.589   3.170   0.180
  790SOL    HW1 2690   5.498   3.191   0.144
  790SOL    HW2 2691   5.589   3.079   0.221
  791SOL     OW 2692   0.060   3.640   0.947
  791SOL    HW1 2693   0.027   3.560   0.897
  791SOL    HW2 2694   0.157   3.652   0.930
  792SOL     OW 2695   0.493   3.441   0.904
  792SOL    HW1 2696   0.560   3.511   0.927
  792SOL    HW2 2697   0.533   3.374   0.842
  793SOL     OW 2698   0.969   2.643   1.214
  793SOL    HW1 2699   1.025   2.627   1.295
  793SOL    HW2 2700   0.874   2.617   1.232
  794SOL     OW 2701   0.042   2.380   1.125
  794SOL    HW1 2702   0.119   2.412   1.070
  794SOL    HW2 2703   0.058   2.401   1.221
  795SOL     OW 2704   0.201   2.390   1.725
  795SOL    HW1 2705   0.221   2.323   1.653
  795SOL    HW2 2706   0.168   2.475   1.683
  796SOL     OW 2707   1.384   2.790   1.650
  796SOL    HW1 2708   1.406   2.888   1.650
  796SOL    HW2 2709   1.377   2.758   1.556
  797SOL     OW 2710   0.821   2.441   0.358
  797SOL    HW1 2711   0.827   2.358   0.302
  797SOL    HW2 2712   0.738   2.492   0.333
  798SOL     OW 2713   1.655   2.477   1.187
  798SOL    HW1 2714   1.639   2.418   1.267
  798SOL    HW2 2715   1.746   2.458   1.150
  799SOL     OW 2716   0.244   3.404   1.724
  799SOL    HW1 2717   0.217   3.473   1.792
  799SOL    HW2 2718   0.245   3.314   1.766
  800SOL     OW 2719   0.711   2.310   1.242
  800SOL    HW1 2720   0.648   2.234   1.225
  800SOL    HW2 2721   0.701   2.378   1.170
  801SOL     OW 2722   0.931   3.539   1.468
  801SOL    HW1 2723   0.893   3.489   1.390
  801SOL    HW2 2724   0.919   3.637   1.452
  802SOL     OW 2725   0.451   2.357   0.178
  802SOL    HW1 2726   0.516   2.428   0.207
  802SOL    HW2 2727   0.360   2.397   0.168
  803SOL     OW 2728   1.309   2.905   1.214
  803SOL    HW1 2729   1.330   2.836   1.145
  803SOL    HW2 2730   1.248   2.974   1.176
  804SOL     OW 2731   1.322   2.715   0.292
  804SOL    HW1 2732   1.243   2.693   0.349
  804SOL    HW2 2733   1.298   2.704   0.196
  805SOL     OW 2734   1.794   3.580   1.167
  805SOL    HW1 2735   1.855   3.609   1.092
  805SOL    HW2 2736   1.752   3.493   1.143
  806SOL     OW 2737   1.243   3.599   1.108
  806SOL    HW1 2738   1.328   3.628   1.066
  806SOL    HW2 2739   1.248   3.501   1.130
  807SOL     OW 2740   0.089   3.134   0.998
  807SOL    HW1 2741   0.071   3.153   1.095
  807SOL    HW2 2742   0.021   3.070   0.964
  808SOL     OW 2743   0.679   3.546   1.744
  808SOL    HW1 2744   0.606   3.614   1.742
  808SOL    HW2 2745   0.741   3.563   1.667
  809SOL     OW 2746   0.913   1.950   0.122
  809SOL    HW1 2747   0.944   1.961   0.028
  809SOL    HW2 2748   0.976   1.891   0.172
  810SOL     OW 2749   1.734   2.022   0.492
  810SOL    HW1 2750   1.805   2.008   0.423
  810SOL    HW2 2751   1.712   1.935   0.535
  811SOL     OW 2752   1.400   3.435   0.493
  811SOL    HW1 2753   1.459   3.469   0.420
  811SOL    HW2 2754   1.342   3.509   0.526
  812SOL     OW 2755   0.146   3.651   1.845
  812SOL    HW1 2756   0.090   3.580   1.887
  812SOL    HW2 2757   0.194   3.702   1.916
  813SOL     OW 2758   1.283   2.788   0.656
  813SOL    HW1 2759   1.360   2.729   0.680
  813SOL    HW2 2760   1.315   2.866   0.603
  814SOL     OW 2761   0.786   3.146   1.423
  814SOL    HW1 2762   0.760   3.192   1.508
  814SOL    HW2 2763   0.711   3.154   1.357
  815SOL     OW 2764   0.670   3.483   0.154
  815SOL    HW1 2765   0.684   3.506   0.058
  815SOL    HW2 2766   0.609   3.404   0.161
  816SOL     OW 2767   1.621   3.599   1.395
  816SOL    HW1 2768   1.678   3.588   1.313
  816SOL    HW2 2769   1.615   3.696   1.419
  817SOL     OW 2770   1.840   2.028   0.962
  817SOL    HW1 2771   1.875   1.936   0.942
  817SOL    HW2 2772   1.752   2.040   0.916
  818SOL     OW 2773   0.247   2.173   0.709
  818SOL    HW1 2774   0.158   2.211   0.681
  818SOL    HW2 2775   0.250   2.166   0.809
  819SOL     OW 2776   1.206   3.457   0.034
  819SOL    HW1 2777   1.200   3.364   0.070
  819SOL    HW2 2778   1.137   3.471  -0.036
  820SOL     OW 2779   0.824   2.879   1.380
  820SOL    HW1 2780   0.853   2.872   1.284
  820SOL    HW2 2781   0.809   2.975   1.403
  821SOL     OW 2782   0.925   2.776   0.287
  821SOL    HW1 2783   0.985   2.811   0.215
  821SOL    HW2 2784   0.972   2.703   0.337
  822SOL     OW 2785   1.485   3.501   0.043
  822SOL    HW1 2786   1.388   3.483   0.030
  822SOL    HW2 2787   1.531   3.505  -0.046
  823SOL     OW 2788   0.387   3.167   1.481
  823SOL    HW1 2789   0.362   3.246   1.425
  823SOL    HW2 2790   0.315   3.098   1.477
  824SOL     OW 2791   1.610   3.149   1.290
  824SOL    HW1 2792   1.667   3.123   1.368
  824SOL    HW2 2793   1.543   3.216   1.319
  825SOL     OW 2794   1.074   2.969   0.723
  825SOL    HW1 2795   0.993   2.923   0.760
  825SOL    HW2 2796   1.137   2.900   0.687
  826SOL     OW 2797   1.006   2.069   0.963
  826SOL    HW1 2798   0.988   2.027   0.874
  826SOL    HW2 2799   0.999   2.000   1.035
  827SOL     OW 2800   0.608   3.347   0.479
  827SOL    HW1 2801   0.653   3.295   0.406
  827SOL    HW2 2802   0.529   3.396   0.441
  828SOL     OW 2803   1.740   2.255   1.381
  828SOL    HW1 2804   1.815   2.321   1.382
  828SOL    HW2 2805   1.762   2.180   1.318
  829SOL     OW 2806   0.246   3.215   0.270
  829SOL    HW1 2807   0.149   3.205   0.246
  829SOL    HW2 2808   0.253   3.246   0.365
  830SOL     OW 2809   0.120   2.909   1.875
  830SOL    HW1 2810   0.027   2.873   1.866
  830SOL    HW2 2811   0.184   2.847   1.831
  831SOL     OW 2812   0.685   2.050   1.502
  831SOL    HW1 2813   0.772   2.025   1.458
  831SOL    HW2 2814   0.703   2.089   1.592
  832SOL     OW 2815   0.086   2.181   5.613
  832SOL    HW1 2816  -0.009   2.158   5.593
  832SOL    HW2 2817   0.110   2.267   5.568
  833SOL     OW 2818   1.415   2.713   1.388
  833SOL    HW1 2819   1.358   2.777   1.337
  833SOL    HW2 2820   1.509   2.720   1.357
  834SOL     OW 2821   0.057   2.011   0.294
  834SOL    HW1 2822   0.041   2.099   0.248
  834SOL    HW2 2823   0.145   1.974   0.265
  835SOL     OW 2824   1.184   3.194   0.125
  835SOL    HW1 2825   1.092   3.156   0.118
  835SOL    HW2 2826   1.211   3.199   0.222
  836SOL     OW 2827   0.634   2.686   1.438
  836SOL    HW1 2828   0.689   2.769   1.424
  836SOL    HW2 2829   0.695   2.607   1.447
  837SOL     OW 2830   1.484   3.671   0.999
  837SOL    HW1 2831   1.506   3.729   0.921
  837SOL    HW2 2832   1.562   3.610   1.019
  838SOL     OW 2833   0.736   2.411   1.694
  838SOL    HW1 2834   0.773   2.477   1.759
  838SOL    HW2 2835   0.743   2.319   1.733
  839SOL     OW 2836   1.474   3.051   1.632
  839SOL    HW1 2837   1.457   3.067   1.729
  839SOL    HW2 2838   1.569   3.073   1.610
  840SOL     OW 2839   0.369   3.601   1.573
  840SOL    HW1 2840   0.288   3.655   1.550
  840SOL    HW2 2841   0.341   3.513   1.612
  841SOL     OW 2842   1.660   2.747   1.261
  841SOL    HW1 2843   1.663   2.655   1.220
  841SOL    HW2 2844   1.647   2.814   1.188
  842SOL     OW 2845   1.218   2.177   0.464
  842SOL    HW1 2846   1.283   2.102   0.451
  842SOL    HW2 2847   1.239   2.225   0.549
  843SOL     OW 2848   0.595   2.590   0.667
  843SOL    HW1 2849   0.629   2.684   0.659
  843SOL    HW2 2850   0.520   2.577   0.602
  844SOL     OW 2851   1.744   2.225   1.655
  844SOL    HW1 2852   1.739   2.243   1.557
  844SOL    HW2 2853   1.668   2.167   1.683
  845SOL     OW 2854   1.758   2.791   1.511
  845SOL    HW1 2855   1.745   2.887   1.536
  845SOL    HW2 2856   1.731   2.778   1.415
  846SOL     OW 2857   0.855   3.225   0.045
  846SOL    HW1 2858   0.824   3.235   0.139
  846SOL    HW2 2859   0.874   3.315   0.006
  847SOL     OW 2860   0.670   3.644   0.939
  847SOL    HW1 2861   0.643   3.739   0.921
  847SOL    HW2 2862   0.768   3.634   0.923
  848SOL     OW 2863   0.871   2.839   0.858
  848SOL    HW1 2864   0.918   2.759   0.896
  848SOL    HW2 2865   0.825   2.888   0.932
  849SOL     OW 2866   1.079   2.854   0.080
  849SOL    HW1 2867   1.049   2.905  -0.001
  849SOL    HW2 2868   1.155   2.794   0.055
  850SOL     OW 2869   1.838   3.417   0.847
  850SOL    HW1 2870   1.760   3.405   0.786
  850SOL    HW2 2871   1.847   3.338   0.907
  851SOL     OW 2872   0.228   3.161   1.857
  851SOL    HW1 2873   0.188   3.072   1.833
  851SOL    HW2 2874   0.181   3.197   1.938
  852SOL     OW 2875   0.087   3.083   0.672
  852SOL    HW1 2876   0.050   3.035   0.752
  852SOL    HW2 2877   0.160   3.028   0.631
  853SOL     OW 2878   0.690   3.278   1.647
  853SOL    HW1 2879   0.606   3.229   1.668
  853SOL    HW2 2880   0.683   3.372   1.679
  854SOL     OW 2881   1.797   2.041   1.230
  854SOL    HW1 2882   1.811   1.945   1.256
  854SOL    HW2 2883   1.814   2.051   1.132
  855SOL     OW 2884   0.434   2.285   0.531
  855SOL    HW1 2885   0.461   2.215   0.464
  855SOL    HW2 2886   0.371   2.244   0.597
  856SOL     OW 2887   1.681   3.346   1.103
  856SOL    HW1 2888   1.608   3.328   1.037
  856SOL    HW2 2889   1.683   3.273   1.172
  857SOL     OW 2890   0.344   2.422   1.294
  857SOL    HW1 2891   0.398   2.358   1.348
  857SOL    HW2 2892   0.348   2.395   1.197
  858SOL     OW 2893   0.832   3.439   0.677
  858SOL    HW1 2894   0.805   3.510   0.612
  858SOL    HW2 2895   0.757   3.375   0.689
  859SOL     OW 2896   1.383   2.107   1.063
  859SOL    HW1 2897   1.415   2.014   1.083
  859SOL    HW2 2898   1.356   2.152   1.148
  860SOL     OW 2899   1.003   1.863   1.140
  860SOL    HW1 2900   0.937   1.797   1.104
  860SOL    HW2 2901   1.095   1.824   1.137
  861SOL     OW 2902   0.782   3.191   0.314
  861SOL    HW1 2903   0.753   3.097   0.331
  861SOL    HW2 2904   0.860   3.213   0.373
  862SOL     OW 2905   0.624   3.423   1.295
  862SOL    HW1 2906   0.621   3.507   1.348
  862SOL    HW2 2907   0.713   3.415   1.250
  863SOL     OW 2908   1.355   1.900   0.182
  863SOL    HW1 2909   1.404   1.831   0.129
  863SOL    HW2 2910   1.260   1.873   0.193
  864SOL     OW 2911   1.287   2.327   0.751
  864SOL    HW1 2912   1.231   2.406   0.726
  864SOL    HW2 2913   1.381   2.343   0.722
  865SOL     OW 2914   1.588   2.080   0.869
  865SOL    HW1 2915   1.521   2.098   0.942
  865SOL    HW2 2916   1.591   2.158   0.807
  866SOL     OW 2917   0.042   2.920   0.299
  866SOL    HW1 2918   0.141   2.920   0.285
  866SOL    HW2 2919   0.012   2.827   0.321
  867SOL     OW 2920   0.886   3.532   0.336
  867SOL    HW1 2921   0.809   3.512   0.275
  867SOL    HW2 2922   0.861   3.605   0.398
  868SOL     OW 2923   0.211   2.449   1.993
  868SOL    HW1 2924   0.123   2.486   2.023
  868SOL    HW2 2925   0.216   2.452   1.893
  869SOL     OW 2926   0.227   2.121   2.862
  869SOL    HW1 2927   0.252   2.111   2.959
  869SOL    HW2 2928   0.202   2.032   2.825
  870SOL     OW 2929   5.577   2.226   2.526
  870SOL    HW1 2930   5.497   2.278   2.555
  870SOL    HW2 2931   5.574   2.211   2.428
  871SOL     OW 2932   0.570   3.168   3.057
  871SOL    HW1 2933   0.483   3.168   3.009
  871SOL    HW2 2934   0.590   3.260   3.090
  872SOL     OW 2935   1.579   3.382   2.571
  872SOL    HW1 2936   1.534   3.353   2.655
  872SOL    HW2 2937   1.512   3.386   2.496
  873SOL     OW 2938   1.135   2.568   2.553
  873SOL    HW1 2939   1.187   2.651   2.535
  873SOL    HW2 2940   1.084   2.578   2.639
  874SOL     OW 2941   1.781   2.451   2.080
  874SOL    HW1 2942   1.750   2.450   1.985
  874SOL    HW2 2943   1.739   2.374   2.129
  875SOL     OW 2944   0.732   2.998   2.908
  875SOL    HW1 2945   0.667   3.036   2.975
  875SOL    HW2 2946   0.778   3.073   2.861
  876SOL     OW 2947   0.880   2.617   3.684
  876SOL    HW1 2948   0.875   2.683   3.759
  876SOL    HW2 2949   0.902   2.665   3.599
  877SOL     OW 2950   0.683   2.854   2.512
  877SOL    HW1 2951   0.755   2.851   2.582
  877SOL    HW2 2952   0.609   2.914   2.542
  878SOL     OW 2953   0.711   3.015   3.686
  878SOL    HW1 2954   0.765   3.091   3.721
  878SOL    HW2 2955   0.629   3.050   3.641
  879SOL     OW 2956   0.331   3.275   2.927
  879SOL    HW1 2957   0.252   3.231   2.884
  879SOL    HW2 2958   0.379   3.331   2.860
  880SOL     OW 2959   1.454   3.366   3.226
  880SOL    HW1 2960   1.513   3.447   3.234
  880SOL    HW2 2961   1.381   3.372   3.293
  881SOL     OW 2962   0.456   2.247   3.325
  881SOL    HW1 2963   0.538   2.192   3.345
  881SOL    HW2 2964   0.375   2.198   3.355
  882SOL     OW 2965   1.605   2.305   2.612
  882SOL    HW1 2966   1.543   2.322   2.535
  882SOL    HW2 2967   1.591   2.376   2.682
  883SOL     OW 2968   0.220   3.580   2.330
  883SOL    HW1 2969   0.243   3.656   2.391
  883SOL    HW2 2970   0.292   3.570   2.262
  884SOL     OW 2971   1.137   3.202   3.560
  884SOL    HW1 2972   1.187   3.197   3.647
  884SOL    HW2 2973   1.081   3.120   3.549
  885SOL     OW 2974   0.239   3.316   2.410
  885SOL    HW1 2975   0.217   3.413   2.401
  885SOL    HW2 2976   0.174   3.272   2.472
  886SOL     OW 2977   0.279   2.954   2.759
  886SOL    HW1 2978   0.275   2.859   2.791
  886SOL    HW2 2979   0.214   3.010   2.811
  887SOL     OW 2980   0.593   3.657   3.286
  887SOL    HW1 2981   0.510   3.634   3.337
  887SOL    HW2 2982   0.628   3.745   3.318
  888SOL     OW 2983   0.592   2.850   2.011
  888SOL    HW1 2984   0.634   2.900   1.936
  888SOL    HW2 2985   0.632   2.880   2.098
  889SOL     OW 2986   1.592   1.983   3.328
  889SOL    HW1 2987   1.634   2.051   3.268
  889SOL    HW2 2988   1.581   2.023   3.420
  890SOL     OW 2989   0.126   2.543   2.427
  890SOL    HW1 2990   0.100   2.448   2.447
  890SOL    HW2 2991   0.117   2.598   2.509
  891SOL     OW 2992   1.845   3.620   2.189
  891SOL    HW1 2993   1.920   3.594   2.250
  891SOL    HW2 2994   1.859   3.714   2.159
  892SOL     OW 2995   0.040   3.450   1.986
  892SOL    HW1 2996   0.018   3.354   2.002
  892SOL    HW2 2997   0.012   3.504   2.065
  893SOL     OW 2998   1.692   2.784   2.512
  893SOL    HW1 2999   1.779   2.738   2.498
  893SOL    HW2 3000   1.671   2.839   2.430
  894SOL     OW 3001   1.654   2.966   2.298
  894SOL    HW1 3002   1.741   2.957   2.250
  894SOL    HW2 3003   1.664   3.034   2.372
  895SOL     OW 3004   0.122   2.611   3.443
  895SOL    HW1 3005   0.216   2.645   3.443
  895SOL    HW2 3006   0.060   2.689   3.437
  896SOL     OW 3007   0.614   3.256   2.592
  896SOL    HW1 3008   0.569   3.167   2.602
  896SOL    HW2 3009   0.601   3.290   2.499
  897SOL     OW 3010   1.283   3.092   3.283
  897SOL    HW1 3011   1.310   3.021   3.217
  897SOL    HW2 3012   1.345   3.089   3.361
  898SOL     OW 3013   0.822   1.877   2.377
  898SOL    HW1 3014   0.869   1.960   2.349
  898SOL    HW2 3015   0.724   1.892   2.378
  899SOL     OW 3016   0.189   2.819   3.153
  899SOL    HW1 3017   0.279   2.778   3.136
  899SOL    HW2 3018   0.126   2.793   3.079
  900SOL     OW 3019   1.533   2.870   2.067
  900SOL    HW1 3020   1.460   2.808   2.095
  900SOL    HW2 3021   1.580   2.906   2.148
  901SOL     OW 3022   1.181   3.681   3.488
  901SOL    HW1 3023   1.187   3.750   3.417
  901SOL    HW2 3024   1.200   3.591   3.449
  902SOL     OW 3025   0.353   2.113   3.703
  902SOL    HW1 3026   0.400   2.194   3.736
  902SOL    HW2 3027   0.254   2.125   3.714
  903SOL     OW 3028   1.466   3.284   2.800
  903SOL    HW1 3029   1.402   3.303   2.875
  903SOL    HW2 3030   1.456   3.188   2.772
  904SOL     OW 3031   1.624   3.645   2.424
  904SOL    HW1 3032   1.617   3.599   2.335
  904SOL    HW2 3033   1.625   3.576   2.497
  905SOL     OW 3034   0.595   2.583   2.138
  905SOL    HW1 3035   0.596   2.668   2.085
  905SOL    HW2 3036   0.525   2.588   2.208
  906SOL     OW 3037   1.280   2.236   2.799
  906SOL    HW1 3038   1.186   2.200   2.803
  906SOL    HW2 3039   1.338   2.182   2.860
  907SOL     OW 3040   1.581   3.543   2.170
  907SOL    HW1 3041   1.679   3.562   2.164
  907SOL    HW2 3042   1.545   3.525   2.078
  908SOL     OW 3043   0.788   2.474   3.307
  908SOL    HW1 3044   0.763   2.448   3.401
  908SOL    HW2 3045   0.757   2.403   3.244
  909SOL     OW 3046   1.387   2.329   3.538
  909SOL    HW1 3047   1.385   2.382   3.622
  909SOL    HW2 3048   1.452   2.254   3.547
  910SOL     OW 3049   0.949   2.745   3.447
  910SOL    HW1 3050   1.009   2.676   3.406
  910SOL    HW2 3051   0.896   2.790   3.375
  911SOL     OW 3052   0.997   2.259   3.083
  911SOL    HW1 3053   0.903   2.280   3.112
  911SOL    HW2 3054   0.994   2.222   2.990
  912SOL     OW 3055   1.052   2.559   2.284
  912SOL    HW1 3056   1.075   2.557   2.382
  912SOL    HW2 3057   0.964   2.514   2.270
  913SOL     OW 3058   0.088   2.686   2.652
  913SOL    HW1 3059   0.174   2.682   2.703
  913SOL    HW2 3060   0.034   2.764   2.683
  914SOL     OW 3061   0.133   3.726   3.458
  914SOL    HW1 3062   0.137   3.698   3.553
  914SOL    HW2 3063   0.042   3.708   3.422
  915SOL     OW 3064   0.896   2.215   2.062
  915SOL    HW1 3065   0.939   2.283   2.002
  915SOL    HW2 3066   0.891   2.127   2.013
  916SOL     OW 3067   1.644   2.440   3.711
  916SOL    HW1 3068   1.640   2.512   3.642
  916SOL    HW2 3069   1.731   2.392   3.705
  917SOL     OW 3070   1.385   3.008   2.395
  917SOL    HW1 3071   1.470   2.993   2.344
  917SOL    HW2 3072   1.327   3.073   2.346
  918SOL     OW 3073   0.539   2.026   2.772
  918SOL    HW1 3074   0.548   2.057   2.867
  918SOL    HW2 3075   0.558   2.103   2.710
  919SOL     OW 3076   0.992   3.313   2.324
  919SOL    HW1 3077   0.963   3.392   2.270
  919SOL    HW2 3078   0.965   3.326   2.419
  920SOL     OW 3079   0.349   3.678   2.746
  920SOL    HW1 3080   0.395   3.589   2.748
  920SOL    HW2 3081   0.415   3.751   2.764
  921SOL     OW 3082   1.796   2.914   2.744
  921SOL    HW1 3083   1.747   2.900   2.659
  921SOL    HW2 3084   1.731   2.924   2.819
  922SOL     OW 3085   1.223   3.401   3.378
  922SOL    HW1 3086   1.213   3.326   3.443
  922SOL    HW2 3087   1.151   3.395   3.309
  923SOL     OW 3088   0.333   2.816   2.117
  923SOL    HW1 3089   0.424   2.841   2.084
  923SOL    HW2 3090   0.282   2.769   2.045
  924SOL     OW 3091   1.485   2.618   2.578
  924SOL    HW1 3092   1.484   2.574   2.668
  924SOL    HW2 3093   1.565   2.678   2.571
  925SOL     OW 3094   0.472   3.131   3.592
  925SOL    HW1 3095   0.446   3.136   3.495
  925SOL    HW2 3096   0.390   3.128   3.648
  926SOL     OW 3097   1.129   3.633   2.092
  926SOL    HW1 3098   1.043   3.604   2.134
  926SOL    HW2 3099   1.154   3.569   2.019
  927SOL     OW 3100   0.205   2.137   3.367
  927SOL    HW1 3101   0.132   2.204   3.375
  927SOL    HW2 3102   0.179   2.053   3.415
  928SOL     OW 3103   1.610   3.254   1.948
  928SOL    HW1 3104   1.570   3.343   1.931
  928SOL    HW2 3105   1.542   3.183   1.929
  929SOL     OW 3106   0.460   3.600   2.175
  929SOL    HW1 3107   0.505   3.659   2.242
  929SOL    HW2 3108   0.528   3.558   2.116
  930SOL     OW 3109   1.399   1.962   2.307
  930SOL    HW1 3110   1.389   1.937   2.210
  930SOL    HW2 3111   1.497   1.970   2.329
  931SOL     OW 3112   0.242   3.641   3.086
  931SOL    HW1 3113   0.298   3.569   3.128
  931SOL    HW2 3114   0.243   3.631   2.986
  932SOL     OW 3115   0.939   3.566   2.754
  932SOL    HW1 3116   1.021   3.519   2.788
  932SOL    HW2 3117   0.898   3.513   2.680
  933SOL     OW 3118   0.405   2.547   2.337
  933SOL    HW1 3119   0.414   2.448   2.349
  933SOL    HW2 3120   0.308   2.573   2.346
  934SOL     OW 3121   1.529   2.091   3.587
  934SOL    HW1 3122   1.542   2.111   3.684
  934SOL    HW2 3123   1.455   2.024   3.576
  935SOL     OW 3124   0.649   1.969   1.964
  935SOL    HW1 3125   0.717   1.898   1.979
  935SOL    HW2 3126   0.586   1.941   1.892
  936SOL     OW 3127   0.756   2.136   3.616
  936SOL    HW1 3128   0.845   2.089   3.611
  936SOL    HW2 3129   0.710   2.110   3.701
  937SOL     OW 3130   0.872   3.375   3.054
  937SOL    HW1 3131   0.852   3.335   2.964
  937SOL    HW2 3132   0.944   3.320   3.098
  938SOL     OW 3133   1.337   2.452   3.297
  938SOL    HW1 3134   1.367   2.416   3.386
  938SOL    HW2 3135   1.374   2.544   3.285
  939SOL     OW 3136   0.820   3.243   2.807
  939SOL    HW1 3137   0.911   3.234   2.766
  939SOL    HW2 3138   0.752   3.255   2.735
  940SOL     OW 3139   0.925   2.368   2.754
  940SOL    HW1 3140   0.898   2.361   2.658
  940SOL    HW2 3141   0.959   2.279   2.785
  941SOL     OW 3142   0.551   1.926   2.352
  941SOL    HW1 3143   0.467   1.922   2.407
  941SOL    HW2 3144   0.547   2.004   2.290
  942SOL     OW 3145   1.420   3.063   1.903
  942SOL    HW1 3146   1.456   2.987   1.957
  942SOL    HW2 3147   1.330   3.088   1.936
  943SOL     OW 3148   0.281   1.914   2.054
  943SOL    HW1 3149   0.321   1.985   1.996
  943SOL    HW2 3150   0.352   1.853   2.087
  944SOL     OW 3151   0.951   2.114   2.314
  944SOL    HW1 3152   0.920   2.153   2.228
  944SOL    HW2 3153   1.050   2.128   2.324
  945SOL     OW 3154   1.079   2.549   3.311
  945SOL    HW1 3155   1.008   2.480   3.320
  945SOL    HW2 3156   1.169   2.505   3.310
  946SOL     OW 3157   1.215   3.433   2.658
  946SOL    HW1 3158   1.229   3.503   2.589
  946SOL    HW2 3159   1.291   3.435   2.723
  947SOL     OW 3160   0.471   3.017   2.578
  947SOL    HW1 3161   0.405   2.996   2.650
  947SOL    HW2 3162   0.427   3.009   2.489
  948SOL     OW 3163   1.255   3.652   2.476
  948SOL    HW1 3164   1.302   3.719   2.418
  948SOL    HW2 3165   1.175   3.695   2.517
  949SOL     OW 3166   1.024   2.393   1.895
  949SOL    HW1 3167   0.978   2.478   1.870
  949SOL    HW2 3168   1.093   2.411   1.965
  950SOL     OW 3169   0.090   2.418   3.254
  950SOL    HW1 3170   0.184   2.416   3.221
  950SOL    HW2 3171   0.080   2.490   3.322
  951SOL     OW 3172   0.556   2.083   3.041
  951SOL    HW1 3173   0.611   2.023   3.100
  951SOL    HW2 3174   0.462   2.085   3.074
  952SOL     OW 3175   0.861   2.316   2.493
  952SOL    HW1 3176   0.818   2.381   2.431
  952SOL    HW2 3177   0.894   2.237   2.442
  953SOL     OW 3178   1.014   1.919   2.606
  953SOL    HW1 3179   0.955   1.920   2.525
  953SOL    HW2 3180   0.991   1.840   2.663
  954SOL     OW 3181   1.445   3.022   2.719
  954SOL    HW1 3182   1.368   2.959   2.727
  954SOL    HW2 3183   1.472   3.029   2.623
  955SOL     OW 3184   1.471   2.473   2.819
  955SOL    HW1 3185   1.404   2.399   2.823
  955SOL    HW2 3186   1.531   2.468   2.899
  956SOL     OW 3187   1.837   2.665   2.237
  956SOL    HW1 3188   1.893   2.621   2.307
  956SOL    HW2 3189   1.813   2.598   2.167
  957SOL     OW 3190   0.484   3.282   2.014
  957SOL    HW1 3191   0.406   3.254   2.070
  957SOL    HW2 3192   0.479   3.238   1.925
  958SOL     OW 3193   1.696   3.130   2.505
  958SOL    HW1 3194   1.795   3.124   2.518
  958SOL    HW2 3195   1.665   3.223   2.525
  959SOL     OW 3196   1.388   2.437   1.929
  959SOL    HW1 3197   1.327   2.413   2.005
  959SOL    HW2 3198   1.483   2.417   1.955
  960SOL     OW 3199   0.531   2.123   2.167
  960SOL    HW1 3200   0.579   2.071   2.097
  960SOL    HW2 3201   0.502   2.211   2.130
  961SOL     OW 3202   1.747   3.109   3.411
  961SOL    HW1 3203   1.836   3.065   3.404
  961SOL    HW2 3204   1.759   3.202   3.446
  962SOL     OW 3205   1.047   3.209   3.197
  962SOL    HW1 3206   0.966   3.180   3.247
  962SOL    HW2 3207   1.128   3.169   3.241
  963SOL     OW 3208   1.614   3.498   3.524
  963SOL    HW1 3209   1.596   3.531   3.431
  963SOL    HW2 3210   1.699   3.445   3.524
  964SOL     OW 3211   1.146   3.093   2.967
  964SOL    HW1 3212   1.085   3.126   3.039
  964SOL    HW2 3213   1.112   3.123   2.878
  965SOL     OW 3214   1.615   2.960   2.941
  965SOL    HW1 3215   1.610   3.025   3.017
  965SOL    HW2 3216   1.542   2.981   2.875
  966SOL     OW 3217   0.930   1.948   3.248
  966SOL    HW1 3218   0.950   1.929   3.152
  966SOL    HW2 3219   1.007   1.996   3.290
  967SOL     OW 3220   0.976   2.979   3.579
  967SOL    HW1 3221   0.882   2.997   3.609
  967SOL    HW2 3222   0.978   2.895   3.526
  968SOL     OW 3223   0.722   2.925   2.241
  968SOL    HW1 3224   0.700   2.900   2.336
  968SOL    HW2 3225   0.800   2.870   2.210
  969SOL     OW 3226   0.424   2.680   3.118
  969SOL    HW1 3227   0.498   2.694   3.185
  969SOL    HW2 3228   0.386   2.588   3.131
  970SOL     OW 3229   1.261   2.236   3.149
  970SOL    HW1 3230   1.296   2.316   3.197
  970SOL    HW2 3231   1.166   2.251   3.123
  971SOL     OW 3232   0.077   3.428   3.216
  971SOL    HW1 3233   0.051   3.507   3.159
  971SOL    HW2 3234   0.177   3.419   3.216
  972SOL     OW 3235   0.334   2.989   2.339
  972SOL    HW1 3236   0.325   3.071   2.281
  972SOL    HW2 3237   0.333   2.908   2.281
  973SOL     OW 3238   0.534   2.400   2.728
  973SOL    HW1 3239   0.547   2.459   2.648
  973SOL    HW2 3240   0.605   2.420   2.796
  974SOL     OW 3241   1.243   3.217   2.258
  974SOL    HW1 3242   1.305   3.288   2.291
  974SOL    HW2 3243   1.150   3.239   2.287
  975SOL     OW 3244   1.298   3.326   3.007
  975SOL    HW1 3245   1.352   3.334   3.091
  975SOL    HW2 3246   1.245   3.242   3.010
  976SOL     OW 3247   1.575   2.478   2.352
  976SOL    HW1 3248   1.524   2.525   2.424
  976SOL    HW2 3249   1.621   2.546   2.294
  977SOL     OW 3250   0.348   3.388   3.170
  977SOL    HW1 3251   0.334   3.342   3.082
  977SOL    HW2 3252   0.446   3.406   3.182
  978SOL     OW 3253   0.425   2.609   3.467
  978SOL    HW1 3254   0.487   2.656   3.405
  978SOL    HW2 3255   0.467   2.524   3.499
  979SOL     OW 3256   1.612   2.651   3.545
  979SOL    HW1 3257   1.520   2.691   3.545
  979SOL    HW2 3258   1.667   2.695   3.474
  980SOL     OW 3259   0.992   2.002   3.610
  980SOL    HW1 3260   1.050   2.083   3.601
  980SOL    HW2 3261   1.043   1.921   3.581
  981SOL     OW 3262   0.492   1.891   3.614
  981SOL    HW1 3263   0.441   1.835   3.549
  981SOL    HW2 3264   0.441   1.973   3.636
  982SOL     OW 3265   0.590   2.735   2.901
  982SOL    HW1 3266   0.626   2.828   2.897
  982SOL    HW2 3267   0.526   2.727   2.978
  983SOL     OW 3268   1.337   2.717   2.877
  983SOL    HW1 3269   1.245   2.702   2.841
  983SOL    HW2 3270   1.392   2.634   2.863
  984SOL     OW 3271   1.197   2.386   2.124
  984SOL    HW1 3272   1.209   2.304   2.179
  984SOL    HW2 3273   1.153   2.457   2.179
  985SOL     OW 3274   0.292   2.058   3.117
  985SOL    HW1 3275   0.260   2.094   3.204
  985SOL    HW2 3276   0.275   1.960   3.113
  986SOL     OW 3277   0.055   3.168   3.131
  986SOL    HW1 3278   0.084   3.108   3.207
  986SOL    HW2 3279   0.053   3.262   3.163
  987SOL     OW 3280   0.718   2.489   2.910
  987SOL    HW1 3281   0.796   2.473   2.849
  987SOL    HW2 3282   0.685   2.582   2.897
  988SOL     OW 3283   1.737   2.828   3.719
  988SOL    HW1 3284   1.697   2.757   3.661
  988SOL    HW2 3285   1.677   2.845   3.798
  989SOL     OW 3286   0.311   1.913   2.494
  989SOL    HW1 3287   0.289   2.009   2.510
  989SOL    HW2 3288   0.327   1.868   2.582
  990SOL     OW 3289   1.631   2.247   2.217
  990SOL    HW1 3290   1.660   2.172   2.277
  990SOL    HW2 3291   1.601   2.324   2.272
  991SOL     OW 3292   1.024   2.615   2.816
  991SOL    HW1 3293   1.013   2.636   2.914
  991SOL    HW2 3294   0.996   2.521   2.799
  992SOL     OW 3295   0.982   3.424   3.585
  992SOL    HW1 3296   0.962   3.471   3.499
  992SOL    HW2 3297   1.029   3.338   3.566
  993SOL     OW 3298   1.852   3.367   3.465
  993SOL    HW1 3299   1.875   3.391   3.371
  993SOL    HW2 3300   1.933   3.375   3.523
  994SOL     OW 3301   0.349   2.780   3.669
  994SOL    HW1 3302   0.427   2.804   3.727
  994SOL    HW2 3303   0.379   2.716   3.598
  995SOL     OW 3304   1.525   2.127   1.990
  995SOL    HW1 3305   1.460   2.057   2.019
  995SOL    HW2 3306   1.563   2.173   2.070
  996SOL     OW 3307   1.286   2.687   1.883
  996SOL    HW1 3308   1.324   2.595   1.892
  996SOL    HW2 3309   1.318   2.728   1.798
  997SOL     OW 3310   1.072   3.203   2.721
  997SOL    HW1 3311   1.079   3.124   2.660
  997SOL    HW2 3312   1.127   3.279   2.685
  998SOL     OW 3313   0.314   2.671   2.806
  998SOL    HW1 3314   0.411   2.695   2.796
  998SOL    HW2 3315   0.306   2.577   2.839
  999SOL     OW 3316   0.311   2.383   2.874
  999SOL    HW1 3317   0.276   2.289   2.867
  999SOL    HW2 3318   0.393   2.392   2.816
 1000SOL     OW 3319   1.133   2.233   3.560
 1000SOL    HW1 3320   1.084   2.290   3.626
 1000SOL    HW2 3321   1.226   2.268   3.549
 1001SOL     OW 3322   1.162   2.063   3.343
 1001SOL    HW1 3323   1.147   2.125   3.420
 1001SOL    HW2 3324   1.208   2.113   3.269
 1002SOL     OW 3325   5.598   3.181   2.059
 1002SOL    HW1 3326   5.508   3.204   2.023
 1002SOL    HW2 3327   5.600   3.086   2.088
 1003SOL     OW 3328   0.081   3.647   2.806
 1003SOL    HW1 3329   0.046   3.566   2.760
 1003SOL    HW2 3330   0.176   3.664   2.777
 1004SOL     OW 3331   0.489   3.437   2.765
 1004SOL    HW1 3332   0.559   3.503   2.789
 1004SOL    HW2 3333   0.526   3.371   2.700
 1005SOL     OW 3334   0.965   2.651   3.081
 1005SOL    HW1 3335   1.028   2.631   3.156
 1005SOL    HW2 3336   0.875   2.614   3.102
 1006SOL     OW 3337   0.036   2.399   2.983
 1006SOL    HW1 3338   0.118   2.413   2.928
 1006SOL    HW2 3339   0.058   2.410   3.080
 1007SOL     OW 3340   0.189   2.393   3.594
 1007SOL    HW1 3341   0.261   2.353   3.538
 1007SOL    HW2 3342   0.151   2.473   3.547
 1008SOL     OW 3343   1.380   2.795   3.512
 1008SOL    HW1 3344   1.406   2.892   3.513
 1008SOL    HW2 3345   1.377   2.762   3.418
 1009SOL     OW 3346   0.815   2.436   2.229
 1009SOL    HW1 3347   0.824   2.357   2.167
 1009SOL    HW2 3348   0.738   2.493   2.199
 1010SOL     OW 3349   1.642   2.467   3.033
 1010SOL    HW1 3350   1.611   2.410   3.110
 1010SOL    HW2 3351   1.741   2.455   3.021
 1011SOL     OW 3352   0.233   3.402   3.585
 1011SOL    HW1 3353   0.214   3.478   3.647
 1011SOL    HW2 3354   0.241   3.317   3.638
 1012SOL     OW 3355   0.719   2.304   3.106
 1012SOL    HW1 3356   0.655   2.231   3.086
 1012SOL    HW2 3357   0.712   2.375   3.035
 1013SOL     OW 3358   0.917   3.540   3.340
 1013SOL    HW1 3359   0.886   3.490   3.259
 1013SOL    HW2 3360   0.921   3.638   3.320
 1014SOL     OW 3361   0.458   2.356   2.055
 1014SOL    HW1 3362   0.518   2.433   2.075
 1014SOL    HW2 3363   0.365   2.388   2.038
 1015SOL     OW 3364   0.134   3.002   3.343
 1015SOL    HW1 3365   0.136   2.963   3.435
 1015SOL    HW2 3366   0.155   2.931   3.276
 1016SOL     OW 3367   1.310   2.902   3.076
 1016SOL    HW1 3368   1.333   2.834   3.006
 1016SOL    HW2 3369   1.248   2.970   3.037
 1017SOL     OW 3370   1.322   2.719   2.155
 1017SOL    HW1 3371   1.246   2.694   2.215
 1017SOL    HW2 3372   1.294   2.707   2.059
 1018SOL     OW 3373   1.786   3.586   3.023
 1018SOL    HW1 3374   1.848   3.617   2.951
 1018SOL    HW2 3375   1.751   3.495   3.001
 1019SOL     OW 3376   1.240   3.593   2.961
 1019SOL    HW1 3377   1.327   3.625   2.924
 1019SOL    HW2 3378   1.247   3.497   2.986
 1020SOL     OW 3379   0.091   3.117   2.869
 1020SOL    HW1 3380   0.072   3.136   2.965
 1020SOL    HW2 3381   0.017   3.062   2.831
 1021SOL     OW 3382   0.685   3.541   3.608
 1021SOL    HW1 3383   0.618   3.614   3.602
 1021SOL    HW2 3384   0.759   3.558   3.543
 1022SOL     OW 3385   1.728   2.024   2.356
 1022SOL    HW1 3386   1.799   2.011   2.287
 1022SOL    HW2 3387   1.707   1.936   2.399
 1023SOL     OW 3388   1.400   3.431   2.357
 1023SOL    HW1 3389   1.456   3.465   2.281
 1023SOL    HW2 3390   1.338   3.504   2.387
 1024SOL     OW 3391   0.149   3.639   3.712
 1024SOL    HW1 3392   0.092   3.571   3.759
 1024SOL    HW2 3393   0.195   3.696   3.781
 1025SOL     OW 3394   1.284   2.793   2.523
 1025SOL    HW1 3395   1.359   2.729   2.541
 1025SOL    HW2 3396   1.317   2.870   2.469
 1026SOL     OW 3397   0.791   3.144   3.283
 1026SOL    HW1 3398   0.765   3.190   3.368
 1026SOL    HW2 3399   0.720   3.156   3.214
 1027SOL     OW 3400   0.665   3.485   2.016
 1027SOL    HW1 3401   0.680   3.507   1.919
 1027SOL    HW2 3402   0.607   3.404   2.023
 1028SOL     OW 3403   1.613   3.592   3.250
 1028SOL    HW1 3404   1.675   3.589   3.172
 1028SOL    HW2 3405   1.600   3.687   3.279
 1029SOL     OW 3406   1.839   2.027   2.823
 1029SOL    HW1 3407   1.874   1.935   2.804
 1029SOL    HW2 3408   1.748   2.037   2.784
 1030SOL     OW 3409   0.251   2.162   2.579
 1030SOL    HW1 3410   0.164   2.208   2.558
 1030SOL    HW2 3411   0.273   2.176   2.676
 1031SOL     OW 3412   1.208   3.458   1.897
 1031SOL    HW1 3413   1.199   3.364   1.932
 1031SOL    HW2 3414   1.139   3.473   1.827
 1032SOL     OW 3415   0.824   2.875   3.243
 1032SOL    HW1 3416   0.872   2.861   3.157
 1032SOL    HW2 3417   0.815   2.973   3.261
 1033SOL     OW 3418   0.927   2.775   2.154
 1033SOL    HW1 3419   0.985   2.811   2.080
 1033SOL    HW2 3420   0.975   2.702   2.201
 1034SOL     OW 3421   1.480   3.511   1.907
 1034SOL    HW1 3422   1.384   3.490   1.893
 1034SOL    HW2 3423   1.527   3.513   1.819
 1035SOL     OW 3424   0.364   3.163   3.348
 1035SOL    HW1 3425   0.357   3.242   3.288
 1035SOL    HW2 3426   0.282   3.107   3.340
 1036SOL     OW 3427   1.608   3.147   3.150
 1036SOL    HW1 3428   1.670   3.125   3.226
 1036SOL    HW2 3429   1.542   3.216   3.180
 1037SOL     OW 3430   1.073   2.970   2.587
 1037SOL    HW1 3431   0.993   2.921   2.622
 1037SOL    HW2 3432   1.140   2.904   2.552
 1038SOL     OW 3433   1.026   2.106   2.827
 1038SOL    HW1 3434   1.023   2.063   2.736
 1038SOL    HW2 3435   1.024   2.035   2.897
 1039SOL     OW 3436   0.607   3.351   2.339
 1039SOL    HW1 3437   0.659   3.295   2.274
 1039SOL    HW2 3438   0.523   3.383   2.295
 1040SOL     OW 3439   1.736   2.266   3.229
 1040SOL    HW1 3440   1.799   2.340   3.204
 1040SOL    HW2 3441   1.755   2.186   3.173
 1041SOL     OW 3442   0.261   3.208   2.168
 1041SOL    HW1 3443   0.168   3.199   2.133
 1041SOL    HW2 3444   0.259   3.254   2.257
 1042SOL     OW 3445   0.114   2.906   3.601
 1042SOL    HW1 3446   0.032   2.876   3.649
 1042SOL    HW2 3447   0.193   2.856   3.634
 1043SOL     OW 3448   0.689   2.046   3.359
 1043SOL    HW1 3449   0.777   2.023   3.318
 1043SOL    HW2 3450   0.704   2.083   3.451
 1044SOL     OW 3451   0.074   2.183   1.879
 1044SOL    HW1 3452  -0.001   2.173   1.813
 1044SOL    HW2 3453   0.115   2.273   1.869
 1045SOL     OW 3454   1.420   2.716   3.252
 1045SOL    HW1 3455   1.366   2.780   3.197
 1045SOL    HW2 3456   1.516   2.721   3.225
 1046SOL     OW 3457   0.050   2.024   2.156
 1046SOL    HW1 3458   0.024   2.094   2.089
 1046SOL    HW2 3459   0.140   1.988   2.132
 1047SOL     OW 3460   1.174   3.197   1.983
 1047SOL    HW1 3461   1.076   3.180   1.973
 1047SOL    HW2 3462   1.198   3.194   2.080
 1048SOL     OW 3463   0.627   2.693   3.295
 1048SOL    HW1 3464   0.684   2.774   3.283
 1048SOL    HW2 3465   0.684   2.612   3.304
 1049SOL     OW 3466   1.488   3.659   2.863
 1049SOL    HW1 3467   1.515   3.722   2.790
 1049SOL    HW2 3468   1.569   3.611   2.896
 1050SOL     OW 3469   0.720   2.417   3.561
 1050SOL    HW1 3470   0.768   2.482   3.619
 1050SOL    HW2 3471   0.736   2.324   3.595
 1051SOL     OW 3472   1.474   3.055   3.494
 1051SOL    HW1 3473   1.461   3.069   3.592
 1051SOL    HW2 3474   1.569   3.074   3.470
 1052SOL     OW 3475   0.370   3.593   3.431
 1052SOL    HW1 3476   0.288   3.648   3.418
 1052SOL    HW2 3477   0.346   3.504   3.470
 1053SOL     OW 3478   1.664   2.741   3.106
 1053SOL    HW1 3479   1.656   2.651   3.064
 1053SOL    HW2 3480   1.647   2.812   3.038
 1054SOL     OW 3481   1.220   2.177   2.322
 1054SOL    HW1 3482   1.284   2.100   2.315
 1054SOL    HW2 3483   1.246   2.235   2.399
 1055SOL     OW 3484   0.580   2.595   2.539
 1055SOL    HW1 3485   0.625   2.684   2.529
 1055SOL    HW2 3486   0.518   2.581   2.463
 1056SOL     OW 3487   1.771   2.184   3.489
 1056SOL    HW1 3488   1.750   2.228   3.401
 1056SOL    HW2 3489   1.686   2.158   3.534
 1057SOL     OW 3490   1.731   2.804   3.362
 1057SOL    HW1 3491   1.734   2.903   3.378
 1057SOL    HW2 3492   1.722   2.787   3.264
 1058SOL     OW 3493   0.886   3.225   1.924
 1058SOL    HW1 3494   0.833   3.238   2.009
 1058SOL    HW2 3495   0.878   3.308   1.868
 1059SOL     OW 3496   0.666   3.638   2.797
 1059SOL    HW1 3497   0.640   3.734   2.784
 1059SOL    HW2 3498   0.765   3.629   2.787
 1060SOL     OW 3499   0.870   2.836   2.720
 1060SOL    HW1 3500   0.920   2.757   2.754
 1060SOL    HW2 3501   0.824   2.883   2.795
 1061SOL     OW 3502   1.080   2.854   1.947
 1061SOL    HW1 3503   1.048   2.908   1.869
 1061SOL    HW2 3504   1.154   2.794   1.918
 1062SOL     OW 3505   1.836   3.420   2.704
 1062SOL    HW1 3506   1.752   3.403   2.652
 1062SOL    HW2 3507   1.851   3.343   2.767
 1063SOL     OW 3508   0.235   3.154   3.720
 1063SOL    HW1 3509   0.173   3.085   3.685
 1063SOL    HW2 3510   0.220   3.166   3.818
 1064SOL     OW 3511   0.089   3.095   2.523
 1064SOL    HW1 3512   0.112   3.052   2.610
 1064SOL    HW2 3513   0.146   3.055   2.450
 1065SOL     OW 3514   0.686   3.277   3.498
 1065SOL    HW1 3515   0.605   3.229   3.531
 1065SOL    HW2 3516   0.687   3.370   3.536
 1066SOL     OW 3517   1.786   2.043   3.091
 1066SOL    HW1 3518   1.852   1.979   3.133
 1066SOL    HW2 3519   1.801   2.045   2.992
 1067SOL     OW 3520   0.423   2.283   2.386
 1067SOL    HW1 3521   0.463   2.222   2.318
 1067SOL    HW2 3522   0.375   2.230   2.455
 1068SOL     OW 3523   1.684   3.346   2.962
 1068SOL    HW1 3524   1.609   3.326   2.899
 1068SOL    HW2 3525   1.691   3.273   3.030
 1069SOL     OW 3526   0.338   2.421   3.150
 1069SOL    HW1 3527   0.395   2.361   3.207
 1069SOL    HW2 3528   0.349   2.395   3.054
 1070SOL     OW 3529   0.831   3.441   2.538
 1070SOL    HW1 3530   0.809   3.509   2.468
 1070SOL    HW2 3531   0.756   3.376   2.547
 1071SOL     OW 3532   1.429   2.100   2.982
 1071SOL    HW1 3533   1.466   2.016   3.023
 1071SOL    HW2 3534   1.374   2.148   3.049
 1072SOL     OW 3535   1.011   1.872   2.987
 1072SOL    HW1 3536   0.956   1.816   2.926
 1072SOL    HW2 3537   1.104   1.834   2.993
 1073SOL     OW 3538   0.777   3.193   2.186
 1073SOL    HW1 3539   0.750   3.098   2.198
 1073SOL    HW2 3540   0.861   3.211   2.237
 1074SOL     OW 3541   0.624   3.422   3.153
 1074SOL    HW1 3542   0.619   3.510   3.201
 1074SOL    HW2 3543   0.714   3.412   3.112
 1075SOL     OW 3544   1.362   1.905   2.041
 1075SOL    HW1 3545   1.408   1.835   1.986
 1075SOL    HW2 3546   1.267   1.877   2.057
 1076SOL     OW 3547   1.286   2.329   2.539
 1076SOL    HW1 3548   1.236   2.415   2.539
 1076SOL    HW2 3549   1.288   2.292   2.632
 1077SOL     OW 3550   1.580   2.061   2.750
 1077SOL    HW1 3551   1.525   2.084   2.830
 1077SOL    HW2 3552   1.584   2.139   2.688
 1078SOL     OW 3553   0.032   2.926   2.174
 1078SOL    HW1 3554   0.114   2.924   2.117
 1078SOL    HW2 3555   0.006   2.832   2.198
 1079SOL     OW 3556   0.885   3.534   2.196
 1079SOL    HW1 3557   0.808   3.511   2.137
 1079SOL    HW2 3558   0.858   3.609   2.258
 1080SOL     OW 3559   0.208   2.476   3.860
 1080SOL    HW1 3560   0.117   2.475   3.900
 1080SOL    HW2 3561   0.201   2.461   3.761
 1081SOL     OW 3562   0.218   2.145   4.719
 1081SOL    HW1 3563   0.251   2.111   4.808
 1081SOL    HW2 3564   0.127   2.110   4.702
 1082SOL     OW 3565   5.585   2.256   4.360
 1082SOL    HW1 3566   5.504   2.286   4.410
 1082SOL    HW2 3567   5.564   2.174   4.307
 1083SOL     OW 3568   0.573   3.161   4.895
 1083SOL    HW1 3569   0.500   3.136   4.831
 1083SOL    HW2 3570   0.632   3.230   4.853
 1084SOL     OW 3571   1.578   3.382   4.431
 1084SOL    HW1 3572   1.532   3.354   4.515
 1084SOL    HW2 3573   1.510   3.387   4.357
 1085SOL     OW 3574   1.132   2.574   4.414
 1085SOL    HW1 3575   1.187   2.656   4.400
 1085SOL    HW2 3576   1.083   2.580   4.501
 1086SOL     OW 3577   1.747   2.471   3.962
 1086SOL    HW1 3578   1.710   2.470   3.869
 1086SOL    HW2 3579   1.738   2.381   4.003
 1087SOL     OW 3580   0.740   2.980   4.764
 1087SOL    HW1 3581   0.685   3.010   4.842
 1087SOL    HW2 3582   0.777   3.061   4.717
 1088SOL     OW 3583   0.883   2.613   5.551
 1088SOL    HW1 3584   0.867   2.680   5.624
 1088SOL    HW2 3585   0.905   2.661   5.466
 1089SOL     OW 3586   0.683   2.857   4.370
 1089SOL    HW1 3587   0.755   2.846   4.439
 1089SOL    HW2 3588   0.610   2.914   4.407
 1090SOL     OW 3589   0.714   3.011   5.550
 1090SOL    HW1 3590   0.764   3.089   5.587
 1090SOL    HW2 3591   0.627   3.042   5.512
 1091SOL     OW 3592   0.330   3.297   4.805
 1091SOL    HW1 3593   0.250   3.250   4.767
 1091SOL    HW2 3594   0.376   3.348   4.733
 1092SOL     OW 3595   1.455   3.366   5.089
 1092SOL    HW1 3596   1.514   3.446   5.096
 1092SOL    HW2 3597   1.383   3.372   5.159
 1093SOL     OW 3598   0.451   2.245   5.188
 1093SOL    HW1 3599   0.532   2.188   5.201
 1093SOL    HW2 3600   0.370   2.194   5.216
 1094SOL     OW 3601   1.603   2.300   4.469
 1094SOL    HW1 3602   1.544   2.332   4.394
 1094SOL    HW2 3603   1.619   2.375   4.533
 1095SOL     OW 3604   0.223   3.578   4.192
 1095SOL    HW1 3605   0.242   3.655   4.253
 1095SOL    HW2 3606   0.296   3.569   4.125
 1096SOL     OW 3607   1.134   3.203   5.429
 1096SOL    HW1 3608   1.188   3.197   5.513
 1096SOL    HW2 3609   1.078   3.120   5.419
 1097SOL     OW 3610   0.236   3.308   4.258
 1097SOL    HW1 3611   0.218   3.406   4.255
 1097SOL    HW2 3612   0.175   3.264   4.324
 1098SOL     OW 3613   0.292   2.954   4.640
 1098SOL    HW1 3614   0.280   2.857   4.663
 1098SOL    HW2 3615   0.221   3.008   4.684
 1099SOL     OW 3616   0.561   3.682   5.126
 1099SOL    HW1 3617   0.495   3.646   5.191
 1099SOL    HW2 3618   0.609   3.760   5.166
 1100SOL     OW 3619   0.576   2.854   3.872
 1100SOL    HW1 3620   0.625   2.897   3.797
 1100SOL    HW2 3621   0.618   2.880   3.959
 1101SOL     OW 3622   1.590   1.987   5.189
 1101SOL    HW1 3623   1.638   2.051   5.128
 1101SOL    HW2 3624   1.577   2.029   5.278
 1102SOL     OW 3625   0.111   2.528   4.290
 1102SOL    HW1 3626   0.082   2.434   4.309
 1102SOL    HW2 3627   0.108   2.582   4.374
 1103SOL     OW 3628   1.847   3.615   4.051
 1103SOL    HW1 3629   1.920   3.588   4.115
 1103SOL    HW2 3630   1.858   3.710   4.025
 1104SOL     OW 3631   0.030   3.443   3.849
 1104SOL    HW1 3632   0.012   3.347   3.867
 1104SOL    HW2 3633   0.006   3.498   3.929
 1105SOL     OW 3634   1.699   2.782   4.385
 1105SOL    HW1 3635   1.783   2.728   4.382
 1105SOL    HW2 3636   1.682   2.823   4.295
 1106SOL     OW 3637   1.650   2.968   4.160
 1106SOL    HW1 3638   1.738   2.961   4.112
 1106SOL    HW2 3639   1.658   3.032   4.236
 1107SOL     OW 3640   0.124   2.606   5.305
 1107SOL    HW1 3641   0.219   2.637   5.310
 1107SOL    HW2 3642   0.063   2.686   5.308
 1108SOL     OW 3643   0.607   3.255   4.456
 1108SOL    HW1 3644   0.563   3.166   4.464
 1108SOL    HW2 3645   0.598   3.289   4.362
 1109SOL     OW 3646   1.284   3.093   5.145
 1109SOL    HW1 3647   1.309   3.022   5.080
 1109SOL    HW2 3648   1.345   3.089   5.224
 1110SOL     OW 3649   0.820   1.875   4.229
 1110SOL    HW1 3650   0.867   1.961   4.208
 1110SOL    HW2 3651   0.721   1.892   4.237
 1111SOL     OW 3652   0.193   2.821   5.002
 1111SOL    HW1 3653   0.281   2.776   4.988
 1111SOL    HW2 3654   0.120   2.767   4.958
 1112SOL     OW 3655   1.531   2.870   3.929
 1112SOL    HW1 3656   1.457   2.808   3.958
 1112SOL    HW2 3657   1.579   2.904   4.009
 1113SOL     OW 3658   1.175   3.677   5.341
 1113SOL    HW1 3659   1.191   3.744   5.268
 1113SOL    HW2 3660   1.198   3.586   5.307
 1114SOL     OW 3661   0.351   2.109   5.575
 1114SOL    HW1 3662   0.398   2.192   5.604
 1114SOL    HW2 3663   0.252   2.121   5.585
 1115SOL     OW 3664   1.459   3.286   4.658
 1115SOL    HW1 3665   1.399   3.304   4.737
 1115SOL    HW2 3666   1.454   3.190   4.634
 1116SOL     OW 3667   1.640   3.633   4.294
 1116SOL    HW1 3668   1.624   3.596   4.202
 1116SOL    HW2 3669   1.633   3.559   4.361
 1117SOL     OW 3670   0.590   2.573   3.999
 1117SOL    HW1 3671   0.598   2.662   3.953
 1117SOL    HW2 3672   0.522   2.579   4.071
 1118SOL     OW 3673   1.277   2.236   4.660
 1118SOL    HW1 3674   1.185   2.198   4.667
 1118SOL    HW2 3675   1.339   2.183   4.719
 1119SOL     OW 3676   1.582   3.538   4.034
 1119SOL    HW1 3677   1.680   3.558   4.030
 1119SOL    HW2 3678   1.548   3.521   3.942
 1120SOL     OW 3679   0.786   2.473   5.168
 1120SOL    HW1 3680   0.765   2.447   5.262
 1120SOL    HW2 3681   0.757   2.401   5.105
 1121SOL     OW 3682   1.387   2.332   5.405
 1121SOL    HW1 3683   1.390   2.381   5.491
 1121SOL    HW2 3684   1.445   2.251   5.410
 1122SOL     OW 3685   0.950   2.744   5.314
 1122SOL    HW1 3686   1.009   2.674   5.272
 1122SOL    HW2 3687   0.892   2.784   5.243
 1123SOL     OW 3688   0.997   2.263   4.940
 1123SOL    HW1 3689   0.902   2.277   4.969
 1123SOL    HW2 3690   0.998   2.211   4.854
 1124SOL     OW 3691   1.051   2.561   4.147
 1124SOL    HW1 3692   1.076   2.560   4.244
 1124SOL    HW2 3693   0.965   2.513   4.133
 1125SOL     OW 3694   0.088   2.698   4.504
 1125SOL    HW1 3695   0.172   2.681   4.555
 1125SOL    HW2 3696   0.037   2.773   4.547
 1126SOL     OW 3697   0.127   3.726   5.315
 1126SOL    HW1 3698   0.138   3.699   5.411
 1126SOL    HW2 3699   0.031   3.717   5.288
 1127SOL     OW 3700   0.898   2.212   3.922
 1127SOL    HW1 3701   0.938   2.282   3.862
 1127SOL    HW2 3702   0.922   2.121   3.887
 1128SOL     OW 3703   1.688   2.436   5.561
 1128SOL    HW1 3704   1.662   2.516   5.508
 1128SOL    HW2 3705   1.722   2.365   5.500
 1129SOL     OW 3706   1.382   3.005   4.251
 1129SOL    HW1 3707   1.469   2.989   4.205
 1129SOL    HW2 3708   1.329   3.072   4.200
 1130SOL     OW 3709   0.547   2.029   4.634
 1130SOL    HW1 3710   0.551   2.056   4.730
 1130SOL    HW2 3711   0.549   2.110   4.576
 1131SOL     OW 3712   0.993   3.309   4.185
 1131SOL    HW1 3713   0.963   3.390   4.135
 1131SOL    HW2 3714   0.974   3.322   4.283
 1132SOL     OW 3715   0.355   3.678   4.605
 1132SOL    HW1 3716   0.401   3.590   4.608
 1132SOL    HW2 3717   0.422   3.751   4.620
 1133SOL     OW 3718   1.801   2.927   4.604
 1133SOL    HW1 3719   1.755   2.894   4.522
 1133SOL    HW2 3720   1.736   2.927   4.681
 1134SOL     OW 3721   1.221   3.398   5.241
 1134SOL    HW1 3722   1.210   3.327   5.311
 1134SOL    HW2 3723   1.161   3.376   5.164
 1135SOL     OW 3724   0.316   2.825   3.985
 1135SOL    HW1 3725   0.404   2.846   3.943
 1135SOL    HW2 3726   0.281   2.739   3.948
 1136SOL     OW 3727   1.485   2.621   4.447
 1136SOL    HW1 3728   1.483   2.573   4.535
 1136SOL    HW2 3729   1.568   2.676   4.441
 1137SOL     OW 3730   0.475   3.116   5.459
 1137SOL    HW1 3731   0.452   3.094   5.365
 1137SOL    HW2 3732   0.391   3.118   5.514
 1138SOL     OW 3733   1.126   3.637   3.949
 1138SOL    HW1 3734   1.044   3.602   3.995
 1138SOL    HW2 3735   1.154   3.572   3.878
 1139SOL     OW 3736   0.200   2.131   5.229
 1139SOL    HW1 3737   0.116   2.185   5.228
 1139SOL    HW2 3738   0.182   2.041   5.269
 1140SOL     OW 3739   1.626   3.250   3.817
 1140SOL    HW1 3740   1.586   3.340   3.799
 1140SOL    HW2 3741   1.559   3.179   3.796
 1141SOL     OW 3742   0.462   3.600   4.039
 1141SOL    HW1 3743   0.506   3.660   4.105
 1141SOL    HW2 3744   0.531   3.561   3.978
 1142SOL     OW 3745   1.400   1.966   4.169
 1142SOL    HW1 3746   1.392   1.941   4.072
 1142SOL    HW2 3747   1.496   1.979   4.193
 1143SOL     OW 3748   0.266   3.637   4.961
 1143SOL    HW1 3749   0.364   3.634   4.977
 1143SOL    HW2 3750   0.247   3.620   4.864
 1144SOL     OW 3751   0.944   3.561   4.618
 1144SOL    HW1 3752   1.035   3.523   4.635
 1144SOL    HW2 3753   0.900   3.511   4.544
 1145SOL     OW 3754   0.394   2.548   4.197
 1145SOL    HW1 3755   0.411   2.450   4.211
 1145SOL    HW2 3756   0.298   2.568   4.214
 1146SOL     OW 3757   1.521   2.087   5.451
 1146SOL    HW1 3758   1.528   2.106   5.549
 1146SOL    HW2 3759   1.460   2.009   5.437
 1147SOL     OW 3760   0.643   1.977   3.827
 1147SOL    HW1 3761   0.710   1.908   3.855
 1147SOL    HW2 3762   0.588   1.941   3.752
 1148SOL     OW 3763   0.760   2.137   5.478
 1148SOL    HW1 3764   0.847   2.087   5.473
 1148SOL    HW2 3765   0.709   2.107   5.559
 1149SOL     OW 3766   0.855   3.362   4.923
 1149SOL    HW1 3767   0.851   3.337   4.826
 1149SOL    HW2 3768   0.935   3.320   4.966
 1150SOL     OW 3769   1.333   2.453   5.163
 1150SOL    HW1 3770   1.365   2.416   5.250
 1150SOL    HW2 3771   1.374   2.543   5.148
 1151SOL     OW 3772   0.804   3.236   4.667
 1151SOL    HW1 3773   0.898   3.230   4.633
 1151SOL    HW2 3774   0.741   3.251   4.591
 1152SOL     OW 3775   0.925   2.371   4.617
 1152SOL    HW1 3776   0.900   2.361   4.521
 1152SOL    HW2 3777   0.957   2.283   4.652
 1153SOL     OW 3778   0.547   1.926   4.213
 1153SOL    HW1 3779   0.469   1.925   4.274
 1153SOL    HW2 3780   0.541   2.007   4.153
 1154SOL     OW 3781   1.427   3.065   3.766
 1154SOL    HW1 3782   1.462   2.989   3.820
 1154SOL    HW2 3783   1.338   3.094   3.801
 1155SOL     OW 3784   0.290   1.908   3.910
 1155SOL    HW1 3785   0.343   1.985   3.875
 1155SOL    HW2 3786   0.350   1.844   3.957
 1156SOL     OW 3787   0.949   2.114   4.178
 1156SOL    HW1 3788   0.919   2.157   4.093
 1156SOL    HW2 3789   1.048   2.127   4.189
 1157SOL     OW 3790   1.077   2.549   5.172
 1157SOL    HW1 3791   1.006   2.479   5.179
 1157SOL    HW2 3792   1.167   2.506   5.171
 1158SOL     OW 3793   1.207   3.439   4.527
 1158SOL    HW1 3794   1.225   3.505   4.454
 1158SOL    HW2 3795   1.289   3.427   4.582
 1159SOL     OW 3796   0.471   3.017   4.448
 1159SOL    HW1 3797   0.409   2.993   4.523
 1159SOL    HW2 3798   0.423   3.007   4.360
 1160SOL     OW 3799   1.256   3.652   4.338
 1160SOL    HW1 3800   1.310   3.713   4.280
 1160SOL    HW2 3801   1.182   3.704   4.381
 1161SOL     OW 3802   1.024   2.391   3.758
 1161SOL    HW1 3803   0.981   2.478   3.734
 1161SOL    HW2 3804   1.094   2.407   3.827
 1162SOL     OW 3805   0.090   2.420   5.110
 1162SOL    HW1 3806   0.185   2.415   5.080
 1162SOL    HW2 3807   0.082   2.489   5.183
 1163SOL     OW 3808   0.558   2.083   4.904
 1163SOL    HW1 3809   0.606   2.012   4.956
 1163SOL    HW2 3810   0.461   2.083   4.931
 1164SOL     OW 3811   0.864   2.319   4.357
 1164SOL    HW1 3812   0.821   2.381   4.291
 1164SOL    HW2 3813   0.896   2.237   4.310
 1165SOL     OW 3814   1.018   1.918   4.468
 1165SOL    HW1 3815   0.958   1.917   4.388
 1165SOL    HW2 3816   0.994   1.843   4.529
 1166SOL     OW 3817   1.450   3.022   4.583
 1166SOL    HW1 3818   1.378   2.953   4.582
 1166SOL    HW2 3819   1.490   3.029   4.491
 1167SOL     OW 3820   1.467   2.478   4.690
 1167SOL    HW1 3821   1.406   2.399   4.686
 1167SOL    HW2 3822   1.529   2.469   4.768
 1168SOL     OW 3823   1.818   2.678   4.115
 1168SOL    HW1 3824   1.868   2.627   4.185
 1168SOL    HW2 3825   1.789   2.616   4.043
 1169SOL     OW 3826   0.486   3.285   3.879
 1169SOL    HW1 3827   0.403   3.260   3.929
 1169SOL    HW2 3828   0.490   3.235   3.793
 1170SOL     OW 3829   1.684   3.130   4.369
 1170SOL    HW1 3830   1.784   3.123   4.380
 1170SOL    HW2 3831   1.656   3.225   4.386
 1171SOL     OW 3832   1.377   2.443   3.784
 1171SOL    HW1 3833   1.334   2.412   3.869
 1171SOL    HW2 3834   1.476   2.433   3.790
 1172SOL     OW 3835   0.522   2.125   4.027
 1172SOL    HW1 3836   0.576   2.076   3.959
 1172SOL    HW2 3837   0.493   2.213   3.989
 1173SOL     OW 3838   1.749   3.105   5.272
 1173SOL    HW1 3839   1.838   3.063   5.255
 1173SOL    HW2 3840   1.762   3.197   5.308
 1174SOL     OW 3841   1.052   3.215   5.065
 1174SOL    HW1 3842   0.971   3.183   5.114
 1174SOL    HW2 3843   1.134   3.172   5.102
 1175SOL     OW 3844   1.612   3.497   5.388
 1175SOL    HW1 3845   1.595   3.532   5.296
 1175SOL    HW2 3846   1.696   3.442   5.388
 1176SOL     OW 3847   1.146   3.096   4.831
 1176SOL    HW1 3848   1.086   3.129   4.903
 1176SOL    HW2 3849   1.110   3.124   4.742
 1177SOL     OW 3850   1.618   2.954   4.806
 1177SOL    HW1 3851   1.613   3.020   4.881
 1177SOL    HW2 3852   1.546   2.974   4.739
 1178SOL     OW 3853   0.926   1.951   5.113
 1178SOL    HW1 3854   0.947   1.928   5.018
 1178SOL    HW2 3855   1.006   1.996   5.154
 1179SOL     OW 3856   0.977   2.976   5.449
 1179SOL    HW1 3857   0.883   2.993   5.480
 1179SOL    HW2 3858   0.980   2.892   5.394
 1180SOL     OW 3859   0.716   2.920   4.100
 1180SOL    HW1 3860   0.699   2.900   4.196
 1180SOL    HW2 3861   0.794   2.866   4.068
 1181SOL     OW 3862   0.427   2.679   4.979
 1181SOL    HW1 3863   0.498   2.692   5.048
 1181SOL    HW2 3864   0.389   2.587   4.987
 1182SOL     OW 3865   1.261   2.237   5.010
 1182SOL    HW1 3866   1.296   2.317   5.058
 1182SOL    HW2 3867   1.166   2.254   4.982
 1183SOL     OW 3868   0.068   3.462   5.075
 1183SOL    HW1 3869  -0.010   3.489   5.019
 1183SOL    HW2 3870   0.144   3.526   5.059
 1184SOL     OW 3871   0.328   2.991   4.212
 1184SOL    HW1 3872   0.331   3.074   4.156
 1184SOL    HW2 3873   0.329   2.911   4.153
 1185SOL     OW 3874   0.541   2.402   4.586
 1185SOL    HW1 3875   0.555   2.462   4.507
 1185SOL    HW2 3876   0.611   2.419   4.654
 1186SOL     OW 3877   1.245   3.220   4.115
 1186SOL    HW1 3878   1.307   3.290   4.150
 1186SOL    HW2 3879   1.152   3.240   4.146
 1187SOL     OW 3880   1.298   3.327   4.871
 1187SOL    HW1 3881   1.355   3.334   4.953
 1187SOL    HW2 3882   1.249   3.240   4.872
 1188SOL     OW 3883   1.566   2.469   4.218
 1188SOL    HW1 3884   1.521   2.528   4.285
 1188SOL    HW2 3885   1.628   2.523   4.162
 1189SOL     OW 3886   0.415   2.614   5.327
 1189SOL    HW1 3887   0.487   2.651   5.269
 1189SOL    HW2 3888   0.439   2.520   5.354
 1190SOL     OW 3889   1.615   2.653   5.417
 1190SOL    HW1 3890   1.524   2.693   5.411
 1190SOL    HW2 3891   1.673   2.689   5.344
 1191SOL     OW 3892   1.004   1.996   5.469
 1191SOL    HW1 3893   1.055   2.080   5.454
 1191SOL    HW2 3894   1.054   1.918   5.431
 1192SOL     OW 3895   0.498   1.891   5.482
 1192SOL    HW1 3896   0.447   1.836   5.415
 1192SOL    HW2 3897   0.444   1.972   5.505
 1193SOL     OW 3898   0.583   2.728   4.754
 1193SOL    HW1 3899   0.628   2.818   4.755
 1193SOL    HW2 3900   0.526   2.719   4.836
 1194SOL     OW 3901   1.337   2.720   4.742
 1194SOL    HW1 3902   1.246   2.703   4.703
 1194SOL    HW2 3903   1.393   2.638   4.731
 1195SOL     OW 3904   1.192   2.383   3.989
 1195SOL    HW1 3905   1.209   2.302   4.045
 1195SOL    HW2 3906   1.151   2.455   4.045
 1196SOL     OW 3907   0.293   2.058   4.970
 1196SOL    HW1 3908   0.257   2.092   5.057
 1196SOL    HW2 3909   0.281   1.959   4.965
 1197SOL     OW 3910   0.087   3.187   5.002
 1197SOL    HW1 3911   0.095   3.121   5.076
 1197SOL    HW2 3912   0.073   3.278   5.041
 1198SOL     OW 3913   0.723   2.488   4.774
 1198SOL    HW1 3914   0.799   2.468   4.712
 1198SOL    HW2 3915   0.687   2.579   4.754
 1199SOL     OW 3916   1.741   2.829  -0.005
 1199SOL    HW1 3917   1.702   2.758  -0.063
 1199SOL    HW2 3918   1.680   2.847   0.071
 1200SOL     OW 3919   0.311   1.922   4.354
 1200SOL    HW1 3920   0.281   2.016   4.372
 1200SOL    HW2 3921   0.322   1.874   4.441
 1201SOL     OW 3922   1.624   2.234   4.086
 1201SOL    HW1 3923   1.659   2.164   4.147
 1201SOL    HW2 3924   1.594   2.313   4.139
 1202SOL     OW 3925   1.023   2.618   4.680
 1202SOL    HW1 3926   1.014   2.639   4.777
 1202SOL    HW2 3927   0.997   2.523   4.664
 1203SOL     OW 3928   0.984   3.429   5.454
 1203SOL    HW1 3929   0.963   3.476   5.367
 1203SOL    HW2 3930   1.027   3.341   5.435
 1204SOL     OW 3931   1.848   3.364   5.326
 1204SOL    HW1 3932   1.871   3.389   5.232
 1204SOL    HW2 3933   1.930   3.371   5.383
 1205SOL     OW 3934   0.348   2.800   5.516
 1205SOL    HW1 3935   0.416   2.806   5.590
 1205SOL    HW2 3936   0.375   2.729   5.452
 1206SOL     OW 3937   1.531   2.123   3.852
 1206SOL    HW1 3938   1.463   2.055   3.881
 1206SOL    HW2 3939   1.567   2.170   3.932
 1207SOL     OW 3940   1.278   2.691   3.744
 1207SOL    HW1 3941   1.314   2.599   3.753
 1207SOL    HW2 3942   1.313   2.733   3.660
 1208SOL     OW 3943   1.061   3.206   4.587
 1208SOL    HW1 3944   1.071   3.126   4.528
 1208SOL    HW2 3945   1.117   3.281   4.553
 1209SOL     OW 3946   0.312   2.668   4.664
 1209SOL    HW1 3947   0.409   2.689   4.661
 1209SOL    HW2 3948   0.299   2.573   4.695
 1210SOL     OW 3949   0.317   2.392   4.732
 1210SOL    HW1 3950   0.279   2.300   4.725
 1210SOL    HW2 3951   0.399   2.398   4.675
 1211SOL     OW 3952   1.132   2.233   5.421
 1211SOL    HW1 3953   1.081   2.288   5.488
 1211SOL    HW2 3954   1.224   2.271   5.410
 1212SOL     OW 3955   1.161   2.065   5.202
 1212SOL    HW1 3956   1.147   2.128   5.278
 1212SOL    HW2 3957   1.207   2.113   5.127
 1213SOL     OW 3958   5.589   3.172   3.921
 1213SOL    HW1 3959   5.499   3.193   3.882
 1213SOL    HW2 3960   5.589   3.078   3.954
 1214SOL     OW 3961   0.093   3.639   4.677
 1214SOL    HW1 3962   0.053   3.560   4.629
 1214SOL    HW2 3963   0.185   3.656   4.643
 1215SOL     OW 3964   0.493   3.437   4.631
 1215SOL    HW1 3965   0.565   3.504   4.653
 1215SOL    HW2 3966   0.527   3.373   4.563
 1216SOL     OW 3967   0.960   2.658   4.947
 1216SOL    HW1 3968   1.023   2.633   5.020
 1216SOL    HW2 3969   0.876   2.605   4.956
 1217SOL     OW 3970   0.035   2.430   4.840
 1217SOL    HW1 3971   0.118   2.413   4.786
 1217SOL    HW2 3972   0.058   2.424   4.938
 1218SOL     OW 3973   0.187   2.387   5.461
 1218SOL    HW1 3974   0.230   2.324   5.396
 1218SOL    HW2 3975   0.151   2.466   5.411
 1219SOL     OW 3976   1.383   2.794   5.378
 1219SOL    HW1 3977   1.407   2.891   5.377
 1219SOL    HW2 3978   1.379   2.760   5.284
 1220SOL     OW 3979   0.816   2.432   4.089
 1220SOL    HW1 3980   0.827   2.354   4.028
 1220SOL    HW2 3981   0.738   2.487   4.059
 1221SOL     OW 3982   1.642   2.464   4.902
 1221SOL    HW1 3983   1.629   2.403   4.979
 1221SOL    HW2 3984   1.735   2.452   4.866
 1222SOL     OW 3985   0.242   3.388   5.445
 1222SOL    HW1 3986   0.222   3.471   5.497
 1222SOL    HW2 3987   0.242   3.309   5.506
 1223SOL     OW 3988   0.721   2.301   4.969
 1223SOL    HW1 3989   0.658   2.226   4.951
 1223SOL    HW2 3990   0.712   2.370   4.897
 1224SOL     OW 3991   0.900   3.548   5.213
 1224SOL    HW1 3992   0.884   3.495   5.130
 1224SOL    HW2 3993   0.912   3.644   5.189
 1225SOL     OW 3994   0.451   2.354   3.896
 1225SOL    HW1 3995   0.517   2.424   3.925
 1225SOL    HW2 3996   0.360   2.395   3.892
 1226SOL     OW 3997   0.163   3.002   5.201
 1226SOL    HW1 3998   0.143   2.958   5.289
 1226SOL    HW2 3999   0.172   2.931   5.131
 1227SOL     OW 4000   1.307   2.903   4.940
 1227SOL    HW1 4001   1.332   2.834   4.871
 1227SOL    HW2 4002   1.247   2.972   4.899
 1228SOL     OW 4003   1.316   2.723   4.016
 1228SOL    HW1 4004   1.244   2.686   4.076
 1228SOL    HW2 4005   1.290   2.709   3.920
 1229SOL     OW 4006   1.790   3.584   4.890
 1229SOL    HW1 4007   1.851   3.615   4.817
 1229SOL    HW2 4008   1.750   3.496   4.865
 1230SOL     OW 4009   1.242   3.595   4.826
 1230SOL    HW1 4010   1.327   3.628   4.786
 1230SOL    HW2 4011   1.251   3.498   4.849
 1231SOL     OW 4012   0.100   3.124   4.740
 1231SOL    HW1 4013   0.086   3.143   4.837
 1231SOL    HW2 4014   0.022   3.071   4.705
 1232SOL     OW 4015   0.683   3.537   5.464
 1232SOL    HW1 4016   0.622   3.616   5.462
 1232SOL    HW2 4017   0.765   3.557   5.410
 1233SOL     OW 4018   1.717   2.003   4.227
 1233SOL    HW1 4019   1.811   1.987   4.196
 1233SOL    HW2 4020   1.682   1.921   4.272
 1234SOL     OW 4021   1.399   3.433   4.218
 1234SOL    HW1 4022   1.459   3.465   4.145
 1234SOL    HW2 4023   1.341   3.508   4.250
 1235SOL     OW 4024   0.170   3.630  -0.030
 1235SOL    HW1 4025   0.108   3.571   0.021
 1235SOL    HW2 4026   0.223   3.686   0.034
 1236SOL     OW 4027   1.285   2.798   4.394
 1236SOL    HW1 4028   1.359   2.733   4.411
 1236SOL    HW2 4029   1.318   2.871   4.334
 1237SOL     OW 4030   0.799   3.142   5.147
 1237SOL    HW1 4031   0.767   3.186   5.231
 1237SOL    HW2 4032   0.736   3.163   5.073
 1238SOL     OW 4033   0.667   3.487   3.880
 1238SOL    HW1 4034   0.685   3.507   3.784
 1238SOL    HW2 4035   0.609   3.406   3.888
 1239SOL     OW 4036   1.612   3.592   5.114
 1239SOL    HW1 4037   1.675   3.589   5.036
 1239SOL    HW2 4038   1.599   3.687   5.142
 1240SOL     OW 4039   1.832   2.027   4.694
 1240SOL    HW1 4040   1.871   1.938   4.671
 1240SOL    HW2 4041   1.743   2.038   4.649
 1241SOL     OW 4042   0.246   2.173   4.438
 1241SOL    HW1 4043   0.158   2.213   4.412
 1241SOL    HW2 4044   0.252   2.166   4.537
 1242SOL     OW 4045   1.208   3.458   3.759
 1242SOL    HW1 4046   1.200   3.364   3.792
 1242SOL    HW2 4047   1.140   3.474   3.688
 1243SOL     OW 4048   0.821   2.869   5.106
 1243SOL    HW1 4049   0.881   2.843   5.030
 1243SOL    HW2 4050   0.826   2.968   5.120
 1244SOL     OW 4051   0.919   2.770   4.011
 1244SOL    HW1 4052   0.978   2.808   3.939
 1244SOL    HW2 4053   0.970   2.701   4.063
 1245SOL     OW 4054   1.485   3.503   3.770
 1245SOL    HW1 4055   1.388   3.485   3.757
 1245SOL    HW2 4056   1.530   3.506   3.681
 1246SOL     OW 4057   0.320   3.218   5.226
 1246SOL    HW1 4058   0.293   3.272   5.305
 1246SOL    HW2 4059   0.262   3.137   5.219
 1247SOL     OW 4060   1.607   3.146   5.010
 1247SOL    HW1 4061   1.672   3.124   5.082
 1247SOL    HW2 4062   1.543   3.216   5.043
 1248SOL     OW 4063   1.071   2.973   4.452
 1248SOL    HW1 4064   0.993   2.919   4.484
 1248SOL    HW2 4065   1.143   2.912   4.420
 1249SOL     OW 4066   1.025   2.104   4.693
 1249SOL    HW1 4067   1.023   2.063   4.601
 1249SOL    HW2 4068   1.023   2.032   4.762
 1250SOL     OW 4069   0.607   3.350   4.203
 1250SOL    HW1 4070   0.661   3.294   4.140
 1250SOL    HW2 4071   0.531   3.391   4.154
 1251SOL     OW 4072   1.741   2.258   5.111
 1251SOL    HW1 4073   1.817   2.324   5.109
 1251SOL    HW2 4074   1.761   2.183   5.048
 1252SOL     OW 4075   0.248   3.210   4.010
 1252SOL    HW1 4076   0.152   3.202   3.984
 1252SOL    HW2 4077   0.254   3.252   4.101
 1253SOL     OW 4078   0.104   2.914   5.456
 1253SOL    HW1 4079   0.024   2.882   5.507
 1253SOL    HW2 4080   0.185   2.867   5.489
 1254SOL     OW 4081   0.686   2.053   5.220
 1254SOL    HW1 4082   0.773   2.027   5.179
 1254SOL    HW2 4083   0.702   2.088   5.313
 1255SOL     OW 4084   0.087   2.183   3.738
 1255SOL    HW1 4085  -0.008   2.165   3.712
 1255SOL    HW2 4086   0.118   2.268   3.696
 1256SOL     OW 4087   1.418   2.718   5.118
 1256SOL    HW1 4088   1.362   2.780   5.063
 1256SOL    HW2 4089   1.511   2.717   5.082
 1257SOL     OW 4090   0.055   2.012   4.018
 1257SOL    HW1 4091   0.041   2.099   3.971
 1257SOL    HW2 4092   0.144   1.974   3.993
 1258SOL     OW 4093   1.181   3.195   3.846
 1258SOL    HW1 4094   1.085   3.165   3.839
 1258SOL    HW2 4095   1.208   3.197   3.942
 1259SOL     OW 4096   0.624   2.692   5.161
 1259SOL    HW1 4097   0.685   2.770   5.147
 1259SOL    HW2 4098   0.679   2.608   5.168
 1260SOL     OW 4099   1.486   3.666   4.722
 1260SOL    HW1 4100   1.513   3.732   4.652
 1260SOL    HW2 4101   1.565   3.612   4.750
 1261SOL     OW 4102   0.728   2.413   5.422
 1261SOL    HW1 4103   0.773   2.476   5.485
 1261SOL    HW2 4104   0.739   2.319   5.454
 1262SOL     OW 4105   1.473   3.056   5.358
 1262SOL    HW1 4106   1.461   3.069   5.457
 1262SOL    HW2 4107   1.568   3.074   5.334
 1263SOL     OW 4108   0.362   3.588   5.287
 1263SOL    HW1 4109   0.279   3.642   5.279
 1263SOL    HW2 4110   0.343   3.505   5.340
 1264SOL     OW 4111   1.658   2.735   4.982
 1264SOL    HW1 4112   1.660   2.644   4.941
 1264SOL    HW2 4113   1.648   2.804   4.910
 1265SOL     OW 4114   1.218   2.176   4.183
 1265SOL    HW1 4115   1.283   2.101   4.177
 1265SOL    HW2 4116   1.241   2.234   4.261
 1266SOL     OW 4117   0.581   2.596   4.394
 1266SOL    HW1 4118   0.625   2.685   4.383
 1266SOL    HW2 4119   0.513   2.582   4.322
 1267SOL     OW 4120   1.746   2.229   5.387
 1267SOL    HW1 4121   1.744   2.247   5.288
 1267SOL    HW2 4122   1.669   2.171   5.412
 1268SOL     OW 4123   1.755   2.792   5.233
 1268SOL    HW1 4124   1.743   2.890   5.251
 1268SOL    HW2 4125   1.731   2.772   5.138
 1269SOL     OW 4126   0.869   3.223   3.777
 1269SOL    HW1 4127   0.828   3.246   3.865
 1269SOL    HW2 4128   0.882   3.306   3.724
 1270SOL     OW 4129   0.670   3.637   4.664
 1270SOL    HW1 4130   0.645   3.732   4.647
 1270SOL    HW2 4131   0.769   3.625   4.651
 1271SOL     OW 4132   0.871   2.828   4.574
 1271SOL    HW1 4133   0.923   2.750   4.608
 1271SOL    HW2 4134   0.826   2.874   4.651
 1272SOL     OW 4135   1.068   2.851   3.804
 1272SOL    HW1 4136   1.044   2.908   3.725
 1272SOL    HW2 4137   1.147   2.794   3.781
 1273SOL     OW 4138   1.844   3.414   4.570
 1273SOL    HW1 4139   1.762   3.401   4.515
 1273SOL    HW2 4140   1.861   3.333   4.625
 1274SOL     OW 4141   0.238   3.151  -0.010
 1274SOL    HW1 4142   0.170   3.082  -0.036
 1274SOL    HW2 4143   0.231   3.170   0.088
 1275SOL     OW 4144   0.086   3.092   4.385
 1275SOL    HW1 4145   0.086   3.046   4.474
 1275SOL    HW2 4146   0.154   3.050   4.325
 1276SOL     OW 4147   0.664   3.281   5.343
 1276SOL    HW1 4148   0.598   3.227   5.396
 1276SOL    HW2 4149   0.675   3.371   5.386
 1277SOL     OW 4150   1.790   2.039   4.963
 1277SOL    HW1 4151   1.826   1.949   4.989
 1277SOL    HW2 4152   1.803   2.052   4.864
 1278SOL     OW 4153   0.422   2.287   4.247
 1278SOL    HW1 4154   0.459   2.216   4.188
 1278SOL    HW2 4155   0.369   2.244   4.321
 1279SOL     OW 4156   1.677   3.349   4.825
 1279SOL    HW1 4157   1.606   3.328   4.758
 1279SOL    HW2 4158   1.685   3.274   4.890
 1280SOL     OW 4159   0.342   2.421   5.010
 1280SOL    HW1 4160   0.393   2.359   5.069
 1280SOL    HW2 4161   0.350   2.393   4.915
 1281SOL     OW 4162   0.829   3.449   4.400
 1281SOL    HW1 4163   0.817   3.518   4.329
 1281SOL    HW2 4164   0.753   3.384   4.397
 1282SOL     OW 4165   1.429   2.099   4.840
 1282SOL    HW1 4166   1.459   2.011   4.876
 1282SOL    HW2 4167   1.375   2.147   4.909
 1283SOL     OW 4168   1.011   1.877   4.856
 1283SOL    HW1 4169   0.946   1.815   4.812
 1283SOL    HW2 4170   1.102   1.836   4.855
 1284SOL     OW 4171   0.775   3.192   4.051
 1284SOL    HW1 4172   0.751   3.096   4.061
 1284SOL    HW2 4173   0.862   3.210   4.099
 1285SOL     OW 4174   0.604   3.440   5.006
 1285SOL    HW1 4175   0.602   3.531   5.049
 1285SOL    HW2 4176   0.698   3.420   4.977
 1286SOL     OW 4177   1.362   1.906   3.903
 1286SOL    HW1 4178   1.410   1.832   3.855
 1286SOL    HW2 4179   1.267   1.880   3.918
 1287SOL     OW 4180   1.274   2.329   4.400
 1287SOL    HW1 4181   1.227   2.417   4.403
 1287SOL    HW2 4182   1.282   2.292   4.493
 1288SOL     OW 4183   1.575   2.058   4.606
 1288SOL    HW1 4184   1.523   2.083   4.688
 1288SOL    HW2 4185   1.581   2.137   4.545
 1289SOL     OW 4186   0.036   2.919   4.035
 1289SOL    HW1 4187   0.134   2.918   4.016
 1289SOL    HW2 4188   0.005   2.826   4.054
 1290SOL     OW 4189   0.885   3.533   4.063
 1290SOL    HW1 4190   0.809   3.512   4.001
 1290SOL    HW2 4191   0.861   3.610   4.121
 1291SOL     OW 4192   0.210   4.349   0.132
 1291SOL    HW1 4193   0.122   4.340   0.179
 1291SOL    HW2 4194   0.199   4.323   0.036
 1292SOL     OW 4195   0.199   4.033   1.025
 1292SOL    HW1 4196   0.237   3.983   1.102
 1292SOL    HW2 4197   0.119   3.983   0.989
 1293SOL     OW 4198   5.597   4.128   0.629
 1293SOL    HW1 4199   5.503   4.136   0.662
 1293SOL    HW2 4200   5.617   4.033   0.607
 1294SOL     OW 4201   0.572   5.031   1.197
 1294SOL    HW1 4202   0.483   5.027   1.152
 1294SOL    HW2 4203   0.590   5.124   1.229
 1295SOL     OW 4204   1.573   5.240   0.706
 1295SOL    HW1 4205   1.528   5.215   0.791
 1295SOL    HW2 4206   1.504   5.248   0.633
 1296SOL     OW 4207   1.142   4.427   0.688
 1296SOL    HW1 4208   1.189   4.514   0.672
 1296SOL    HW2 4209   1.088   4.433   0.772
 1297SOL     OW 4210   1.785   4.314   0.213
 1297SOL    HW1 4211   1.753   4.313   0.118
 1297SOL    HW2 4212   1.742   4.238   0.263
 1298SOL     OW 4213   0.733   4.862   1.045
 1298SOL    HW1 4214   0.669   4.898   1.112
 1298SOL    HW2 4215   0.781   4.937   1.000
 1299SOL     OW 4216   0.879   4.479   1.825
 1299SOL    HW1 4217   0.865   4.547   1.897
 1299SOL    HW2 4218   0.898   4.525   1.739
 1300SOL     OW 4219   0.683   4.723   0.646
 1300SOL    HW1 4220   0.754   4.714   0.716
 1300SOL    HW2 4221   0.609   4.780   0.681
 1301SOL     OW 4222   0.697   4.867   1.826
 1301SOL    HW1 4223   0.754   4.941   1.864
 1301SOL    HW2 4224   0.620   4.907   1.776
 1302SOL     OW 4225   0.328   5.140   1.066
 1302SOL    HW1 4226   0.251   5.093   1.023
 1302SOL    HW2 4227   0.376   5.195   0.997
 1303SOL     OW 4228   1.458   5.230   1.363
 1303SOL    HW1 4229   1.513   5.312   1.374
 1303SOL    HW2 4230   1.381   5.233   1.427
 1304SOL     OW 4231   0.452   4.109   1.474
 1304SOL    HW1 4232   0.531   4.047   1.478
 1304SOL    HW2 4233   0.368   4.058   1.493
 1305SOL     OW 4234   1.597   4.169   0.740
 1305SOL    HW1 4235   1.520   4.170   0.676
 1305SOL    HW2 4236   1.595   4.253   0.795
 1306SOL     OW 4237   0.223   5.442   0.469
 1306SOL    HW1 4238   0.241   5.519   0.530
 1306SOL    HW2 4239   0.299   5.433   0.405
 1307SOL     OW 4240   1.177   5.048   1.694
 1307SOL    HW1 4241   1.187   5.072   1.790
 1307SOL    HW2 4242   1.112   4.973   1.685
 1308SOL     OW 4243   0.232   5.169   0.526
 1308SOL    HW1 4244   0.218   5.267   0.530
 1308SOL    HW2 4245   0.176   5.124   0.596
 1309SOL     OW 4246   0.283   4.811   0.904
 1309SOL    HW1 4247   0.277   4.715   0.932
 1309SOL    HW2 4248   0.218   4.866   0.956
 1310SOL     OW 4249   0.591   5.528   1.424
 1310SOL    HW1 4250   0.510   5.502   1.477
 1310SOL    HW2 4251   0.623   5.618   1.455
 1311SOL     OW 4252   0.574   4.716   0.147
 1311SOL    HW1 4253   0.623   4.759   0.071
 1311SOL    HW2 4254   0.615   4.743   0.234
 1312SOL     OW 4255   1.596   3.867   1.462
 1312SOL    HW1 4256   1.521   3.899   1.405
 1312SOL    HW2 4257   1.574   3.883   1.558
 1313SOL     OW 4258   0.111   4.394   0.561
 1313SOL    HW1 4259   0.084   4.299   0.577
 1313SOL    HW2 4260   0.110   4.444   0.648
 1314SOL     OW 4261   1.852   5.478   0.331
 1314SOL    HW1 4262   1.926   5.451   0.392
 1314SOL    HW2 4263   1.864   5.574   0.304
 1315SOL     OW 4264   0.031   5.309   0.119
 1315SOL    HW1 4265   0.013   5.213   0.139
 1315SOL    HW2 4266   0.009   5.364   0.200
 1316SOL     OW 4267   1.693   4.648   0.646
 1316SOL    HW1 4268   1.776   4.596   0.623
 1316SOL    HW2 4269   1.668   4.706   0.569
 1317SOL     OW 4270   1.656   4.830   0.433
 1317SOL    HW1 4271   1.745   4.822   0.388
 1317SOL    HW2 4272   1.662   4.897   0.507
 1318SOL     OW 4273   0.124   4.468   1.583
 1318SOL    HW1 4274   0.218   4.500   1.581
 1318SOL    HW2 4275   0.062   4.546   1.575
 1319SOL     OW 4276   0.615   5.119   0.731
 1319SOL    HW1 4277   0.570   5.031   0.743
 1319SOL    HW2 4278   0.602   5.150   0.637
 1320SOL     OW 4279   1.283   4.958   1.409
 1320SOL    HW1 4280   1.315   4.883   1.351
 1320SOL    HW2 4281   1.333   4.957   1.496
 1321SOL     OW 4282   0.828   3.738   0.512
 1321SOL    HW1 4283   0.872   3.824   0.487
 1321SOL    HW2 4284   0.729   3.751   0.515
 1322SOL     OW 4285   0.189   4.679   1.287
 1322SOL    HW1 4286   0.280   4.640   1.272
 1322SOL    HW2 4287   0.124   4.633   1.227
 1323SOL     OW 4288   1.533   4.733   0.203
 1323SOL    HW1 4289   1.460   4.671   0.232
 1323SOL    HW2 4290   1.581   4.769   0.283
 1324SOL     OW 4291   1.211   5.568   1.637
 1324SOL    HW1 4292   1.195   5.624   1.555
 1324SOL    HW2 4293   1.201   5.471   1.614
 1325SOL     OW 4294   0.344   3.971   1.862
 1325SOL    HW1 4295   0.390   4.059   1.874
 1325SOL    HW2 4296   0.245   3.985   1.864
 1326SOL     OW 4297   1.467   5.145   0.942
 1326SOL    HW1 4298   1.401   5.165   1.015
 1326SOL    HW2 4299   1.457   5.049   0.914
 1327SOL     OW 4300   1.645   5.490   0.573
 1327SOL    HW1 4301   1.629   5.457   0.479
 1327SOL    HW2 4302   1.629   5.415   0.637
 1328SOL     OW 4303   0.589   4.437   0.276
 1328SOL    HW1 4304   0.594   4.527   0.233
 1328SOL    HW2 4305   0.520   4.439   0.349
 1329SOL     OW 4306   1.283   4.101   0.937
 1329SOL    HW1 4307   1.188   4.067   0.941
 1329SOL    HW2 4308   1.340   4.045   0.997
 1330SOL     OW 4309   1.586   5.400   0.308
 1330SOL    HW1 4310   1.683   5.424   0.305
 1330SOL    HW2 4311   1.553   5.382   0.215
 1331SOL     OW 4312   0.803   4.329   1.446
 1331SOL    HW1 4313   0.773   4.305   1.539
 1331SOL    HW2 4314   0.766   4.263   1.381
 1332SOL     OW 4315   1.395   4.190   1.677
 1332SOL    HW1 4316   1.396   4.237   1.765
 1332SOL    HW2 4317   1.439   4.100   1.686
 1333SOL     OW 4318   0.945   4.604   1.588
 1333SOL    HW1 4319   1.005   4.536   1.546
 1333SOL    HW2 4320   0.893   4.652   1.516
 1334SOL     OW 4321   1.001   4.117   1.219
 1334SOL    HW1 4322   0.908   4.138   1.250
 1334SOL    HW2 4323   0.998   4.071   1.131
 1335SOL     OW 4324   1.054   4.424   0.420
 1335SOL    HW1 4325   1.078   4.419   0.517
 1335SOL    HW2 4326   0.967   4.378   0.405
 1336SOL     OW 4327   0.088   4.563   0.779
 1336SOL    HW1 4328   0.172   4.539   0.829
 1336SOL    HW2 4329   0.042   4.638   0.825
 1337SOL     OW 4330   0.128   5.607   1.593
 1337SOL    HW1 4331   0.133   5.579   1.689
 1337SOL    HW2 4332   0.049   5.563   1.550
 1338SOL     OW 4333   0.887   4.076   0.206
 1338SOL    HW1 4334   0.930   4.133   0.136
 1338SOL    HW2 4335   0.886   3.981   0.175
 1339SOL     OW 4336   1.683   4.306   1.841
 1339SOL    HW1 4337   1.657   4.381   1.780
 1339SOL    HW2 4338   1.711   4.227   1.787
 1340SOL     OW 4339   1.383   4.870   0.527
 1340SOL    HW1 4340   1.469   4.858   0.477
 1340SOL    HW2 4341   1.327   4.938   0.481
 1341SOL     OW 4342   0.605   3.910   0.906
 1341SOL    HW1 4343   0.580   3.941   0.998
 1341SOL    HW2 4344   0.566   3.972   0.838
 1342SOL     OW 4345   0.990   5.171   0.462
 1342SOL    HW1 4346   0.959   5.252   0.413
 1342SOL    HW2 4347   0.970   5.181   0.559
 1343SOL     OW 4348   0.352   5.542   0.877
 1343SOL    HW1 4349   0.397   5.453   0.882
 1343SOL    HW2 4350   0.419   5.614   0.897
 1344SOL     OW 4351   1.797   4.766   0.882
 1344SOL    HW1 4352   1.749   4.752   0.795
 1344SOL    HW2 4353   1.731   4.781   0.955
 1345SOL     OW 4354   1.231   5.254   1.513
 1345SOL    HW1 4355   1.219   5.184   1.583
 1345SOL    HW2 4356   1.146   5.266   1.462
 1346SOL     OW 4357   0.313   4.686   0.258
 1346SOL    HW1 4358   0.403   4.704   0.217
 1346SOL    HW2 4359   0.284   4.593   0.235
 1347SOL     OW 4360   1.486   4.480   0.707
 1347SOL    HW1 4361   1.477   4.439   0.799
 1347SOL    HW2 4362   1.565   4.540   0.705
 1348SOL     OW 4363   0.472   4.992   1.724
 1348SOL    HW1 4364   0.443   4.998   1.628
 1348SOL    HW2 4365   0.391   4.995   1.783
 1349SOL     OW 4366   1.105   5.506   0.215
 1349SOL    HW1 4367   1.038   5.460   0.273
 1349SOL    HW2 4368   1.143   5.440   0.150
 1350SOL     OW 4369   0.200   3.995   1.508
 1350SOL    HW1 4370   0.116   4.046   1.489
 1350SOL    HW2 4371   0.176   3.904   1.544
 1351SOL     OW 4372   1.622   5.105   0.090
 1351SOL    HW1 4373   1.586   5.197   0.074
 1351SOL    HW2 4374   1.552   5.038   0.067
 1352SOL     OW 4375   0.464   5.461   0.317
 1352SOL    HW1 4376   0.505   5.526   0.381
 1352SOL    HW2 4377   0.535   5.426   0.256
 1353SOL     OW 4378   1.399   3.826   0.444
 1353SOL    HW1 4379   1.388   3.800   0.348
 1353SOL    HW2 4380   1.496   3.833   0.466
 1354SOL     OW 4381   0.258   5.518   1.221
 1354SOL    HW1 4382   0.306   5.441   1.262
 1354SOL    HW2 4383   0.236   5.496   1.126
 1355SOL     OW 4384   0.936   5.432   0.893
 1355SOL    HW1 4385   1.016   5.386   0.931
 1355SOL    HW2 4386   0.898   5.378   0.818
 1356SOL     OW 4387   0.394   4.412   0.472
 1356SOL    HW1 4388   0.414   4.315   0.486
 1356SOL    HW2 4389   0.298   4.429   0.494
 1357SOL     OW 4390   1.511   3.934   1.720
 1357SOL    HW1 4391   1.526   3.951   1.818
 1357SOL    HW2 4392   1.439   3.865   1.709
 1358SOL     OW 4393   0.644   3.861   0.085
 1358SOL    HW1 4394   0.732   3.820   0.108
 1358SOL    HW2 4395   0.594   3.799   0.025
 1359SOL     OW 4396   0.767   3.999   1.764
 1359SOL    HW1 4397   0.852   3.947   1.755
 1359SOL    HW2 4398   0.709   3.955   1.833
 1360SOL     OW 4399   0.873   5.240   1.193
 1360SOL    HW1 4400   0.851   5.201   1.104
 1360SOL    HW2 4401   0.941   5.182   1.239
 1361SOL     OW 4402   1.365   4.303   1.423
 1361SOL    HW1 4403   1.380   4.277   1.518
 1361SOL    HW2 4404   1.377   4.402   1.413
 1362SOL     OW 4405   0.822   5.107   0.946
 1362SOL    HW1 4406   0.913   5.098   0.905
 1362SOL    HW2 4407   0.754   5.118   0.873
 1363SOL     OW 4408   0.930   4.236   0.892
 1363SOL    HW1 4409   0.904   4.226   0.796
 1363SOL    HW2 4410   0.951   4.145   0.929
 1364SOL     OW 4411   0.559   3.789   0.484
 1364SOL    HW1 4412   0.481   3.790   0.546
 1364SOL    HW2 4413   0.551   3.864   0.419
 1365SOL     OW 4414   1.423   4.924   0.036
 1365SOL    HW1 4415   1.458   4.849   0.092
 1365SOL    HW2 4416   1.335   4.956   0.073
 1366SOL     OW 4417   0.323   3.760   0.158
 1366SOL    HW1 4418   0.353   3.849   0.192
 1366SOL    HW2 4419   0.361   3.688   0.217
 1367SOL     OW 4420   0.954   3.978   0.456
 1367SOL    HW1 4421   0.919   4.017   0.371
 1367SOL    HW2 4422   1.052   3.995   0.463
 1368SOL     OW 4423   1.069   4.404   1.449
 1368SOL    HW1 4424   0.980   4.358   1.452
 1368SOL    HW2 4425   1.142   4.335   1.445
 1369SOL     OW 4426   1.219   5.295   0.791
 1369SOL    HW1 4427   1.231   5.366   0.721
 1369SOL    HW2 4428   1.285   5.309   0.864
 1370SOL     OW 4429   0.471   4.881   0.722
 1370SOL    HW1 4430   0.409   4.857   0.797
 1370SOL    HW2 4431   0.423   4.871   0.635
 1371SOL     OW 4432   1.259   5.516   0.611
 1371SOL    HW1 4433   1.313   5.580   0.557
 1371SOL    HW2 4434   1.183   5.566   0.655
 1372SOL     OW 4435   1.022   4.246   0.029
 1372SOL    HW1 4436   0.977   4.332   0.006
 1372SOL    HW2 4437   1.086   4.261   0.104
 1373SOL     OW 4438   0.094   4.280   1.388
 1373SOL    HW1 4439   0.188   4.277   1.355
 1373SOL    HW2 4440   0.086   4.350   1.459
 1374SOL     OW 4441   0.559   3.953   1.179
 1374SOL    HW1 4442   0.597   3.862   1.198
 1374SOL    HW2 4443   0.462   3.953   1.204
 1375SOL     OW 4444   0.873   4.187   0.632
 1375SOL    HW1 4445   0.815   4.245   0.576
 1375SOL    HW2 4446   0.896   4.104   0.582
 1376SOL     OW 4447   1.027   3.771   0.734
 1376SOL    HW1 4448   0.960   3.778   0.661
 1376SOL    HW2 4449   0.999   3.700   0.799
 1377SOL     OW 4450   1.451   4.882   0.859
 1377SOL    HW1 4451   1.370   4.824   0.861
 1377SOL    HW2 4452   1.482   4.892   0.765
 1378SOL     OW 4453   1.459   4.341   0.948
 1378SOL    HW1 4454   1.395   4.265   0.949
 1378SOL    HW2 4455   1.518   4.338   1.028
 1379SOL     OW 4456   1.836   4.525   0.378
 1379SOL    HW1 4457   1.896   4.481   0.445
 1379SOL    HW2 4458   1.814   4.461   0.305
 1380SOL     OW 4459   0.489   5.146   0.152
 1380SOL    HW1 4460   0.407   5.123   0.205
 1380SOL    HW2 4461   0.489   5.094   0.067
 1381SOL     OW 4462   1.683   4.989   0.646
 1381SOL    HW1 4463   1.782   4.984   0.658
 1381SOL    HW2 4464   1.652   5.083   0.664
 1382SOL     OW 4465   1.386   4.299   0.064
 1382SOL    HW1 4466   1.323   4.276   0.139
 1382SOL    HW2 4467   1.480   4.279   0.092
 1383SOL     OW 4468   0.513   3.977   0.290
 1383SOL    HW1 4469   0.569   3.937   0.218
 1383SOL    HW2 4470   0.488   4.071   0.265
 1384SOL     OW 4471   1.751   4.965   1.546
 1384SOL    HW1 4472   1.841   4.926   1.528
 1384SOL    HW2 4473   1.762   5.058   1.582
 1385SOL     OW 4474   1.043   5.068   1.329
 1385SOL    HW1 4475   0.963   5.040   1.382
 1385SOL    HW2 4476   1.126   5.035   1.374
 1386SOL     OW 4477   1.622   5.360   1.664
 1386SOL    HW1 4478   1.599   5.394   1.573
 1386SOL    HW2 4479   1.704   5.304   1.659
 1387SOL     OW 4480   1.145   4.951   1.104
 1387SOL    HW1 4481   1.086   4.984   1.177
 1387SOL    HW2 4482   1.110   4.984   1.016
 1388SOL     OW 4483   1.619   4.826   1.082
 1388SOL    HW1 4484   1.613   4.894   1.155
 1388SOL    HW2 4485   1.547   4.843   1.014
 1389SOL     OW 4486   0.926   3.813   1.392
 1389SOL    HW1 4487   0.943   3.794   1.295
 1389SOL    HW2 4488   1.005   3.858   1.432
 1390SOL     OW 4489   0.997   4.838   1.719
 1390SOL    HW1 4490   0.911   4.880   1.748
 1390SOL    HW2 4491   0.978   4.753   1.669
 1391SOL     OW 4492   0.715   4.783   0.374
 1391SOL    HW1 4493   0.698   4.764   0.471
 1391SOL    HW2 4494   0.793   4.729   0.343
 1392SOL     OW 4495   0.428   4.543   1.256
 1392SOL    HW1 4496   0.500   4.554   1.324
 1392SOL    HW2 4497   0.389   4.451   1.262
 1393SOL     OW 4498   1.264   4.091   1.284
 1393SOL    HW1 4499   1.302   4.173   1.327
 1393SOL    HW2 4500   1.170   4.109   1.256
 1394SOL     OW 4501   0.074   5.295   1.355
 1394SOL    HW1 4502   0.037   5.363   1.292
 1394SOL    HW2 4503   0.174   5.294   1.347
 1395SOL     OW 4504   0.327   4.853   0.488
 1395SOL    HW1 4505   0.332   4.936   0.431
 1395SOL    HW2 4506   0.327   4.772   0.428
 1396SOL     OW 4507   0.557   4.268   0.861
 1396SOL    HW1 4508   0.569   4.329   0.783
 1396SOL    HW2 4509   0.623   4.291   0.932
 1397SOL     OW 4510   1.244   5.084   0.393
 1397SOL    HW1 4511   1.306   5.155   0.426
 1397SOL    HW2 4512   1.151   5.103   0.424
 1398SOL     OW 4513   1.297   5.190   1.147
 1398SOL    HW1 4514   1.351   5.199   1.230
 1398SOL    HW2 4515   1.241   5.107   1.152
 1399SOL     OW 4516   1.578   4.344   0.479
 1399SOL    HW1 4517   1.526   4.386   0.553
 1399SOL    HW2 4518   1.624   4.416   0.426
 1400SOL     OW 4519   0.346   5.259   1.305
 1400SOL    HW1 4520   0.332   5.211   1.218
 1400SOL    HW2 4521   0.444   5.273   1.319
 1401SOL     OW 4522   0.414   4.475   1.600
 1401SOL    HW1 4523   0.486   4.516   1.544
 1401SOL    HW2 4524   0.434   4.378   1.615
 1402SOL     OW 4525   1.614   4.510   1.680
 1402SOL    HW1 4526   1.523   4.551   1.677
 1402SOL    HW2 4527   1.673   4.553   1.611
 1403SOL     OW 4528   1.002   3.861   1.753
 1403SOL    HW1 4529   1.058   3.942   1.738
 1403SOL    HW2 4530   1.054   3.779   1.731
 1404SOL     OW 4531   0.485   3.757   1.763
 1404SOL    HW1 4532   0.440   3.701   1.693
 1404SOL    HW2 4533   0.429   3.837   1.783
 1405SOL     OW 4534   0.589   4.596   1.037
 1405SOL    HW1 4535   0.622   4.691   1.035
 1405SOL    HW2 4536   0.526   4.584   1.113
 1406SOL     OW 4537   1.327   4.579   1.009
 1406SOL    HW1 4538   1.233   4.568   0.979
 1406SOL    HW2 4539   1.379   4.496   0.989
 1407SOL     OW 4540   1.192   4.248   0.257
 1407SOL    HW1 4541   1.207   4.167   0.314
 1407SOL    HW2 4542   1.149   4.320   0.313
 1408SOL     OW 4543   0.298   3.918   1.254
 1408SOL    HW1 4544   0.257   3.945   1.341
 1408SOL    HW2 4545   0.286   3.820   1.241
 1409SOL     OW 4546   0.055   5.034   1.270
 1409SOL    HW1 4547   0.082   4.971   1.342
 1409SOL    HW2 4548   0.054   5.127   1.305
 1410SOL     OW 4549   0.732   4.361   1.058
 1410SOL    HW1 4550   0.803   4.342   0.989
 1410SOL    HW2 4551   0.690   4.449   1.038
 1411SOL     OW 4552   1.743   4.675   1.865
 1411SOL    HW1 4553   1.695   4.614   1.802
 1411SOL    HW2 4554   1.680   4.704   1.937
 1412SOL     OW 4555   1.633   4.109   0.351
 1412SOL    HW1 4556   1.660   4.036   0.413
 1412SOL    HW2 4557   1.603   4.188   0.405
 1413SOL     OW 4558   1.031   4.480   0.953
 1413SOL    HW1 4559   1.017   4.501   1.050
 1413SOL    HW2 4560   1.000   4.387   0.935
 1414SOL     OW 4561   1.011   5.329   1.720
 1414SOL    HW1 4562   0.974   5.343   1.628
 1414SOL    HW2 4563   0.958   5.257   1.765
 1415SOL     OW 4564   1.854   5.222   1.600
 1415SOL    HW1 4565   1.873   5.250   1.506
 1415SOL    HW2 4566   1.936   5.233   1.656
 1416SOL     OW 4567   0.347   4.642   1.808
 1416SOL    HW1 4568   0.427   4.665   1.863
 1416SOL    HW2 4569   0.374   4.579   1.735
 1417SOL     OW 4570   1.525   3.988   0.125
 1417SOL    HW1 4571   1.459   3.919   0.155
 1417SOL    HW2 4572   1.564   4.034   0.205
 1418SOL     OW 4573   1.285   4.550   5.612
 1418SOL    HW1 4574   1.323   4.458   5.622
 1418SOL    HW2 4575   1.318   4.591   5.527
 1419SOL     OW 4576   1.074   5.067   0.858
 1419SOL    HW1 4577   1.080   4.988   0.797
 1419SOL    HW2 4578   1.130   5.141   0.822
 1420SOL     OW 4579   0.311   4.528   0.941
 1420SOL    HW1 4580   0.409   4.550   0.934
 1420SOL    HW2 4581   0.300   4.433   0.972
 1421SOL     OW 4582   0.340   4.258   1.018
 1421SOL    HW1 4583   0.287   4.174   1.007
 1421SOL    HW2 4584   0.415   4.259   0.951
 1422SOL     OW 4585   1.136   4.096   1.694
 1422SOL    HW1 4586   1.081   4.151   1.757
 1422SOL    HW2 4587   1.226   4.138   1.683
 1423SOL     OW 4588   1.165   3.924   1.479
 1423SOL    HW1 4589   1.145   3.986   1.555
 1423SOL    HW2 4590   1.200   3.976   1.401
 1424SOL     OW 4591   5.590   5.032   0.189
 1424SOL    HW1 4592   5.499   5.053   0.153
 1424SOL    HW2 4593   5.590   4.939   0.226
 1425SOL     OW 4594   0.090   5.506   0.950
 1425SOL    HW1 4595   0.052   5.427   0.902
 1425SOL    HW2 4596   0.183   5.524   0.915
 1426SOL     OW 4597   0.488   5.301   0.901
 1426SOL    HW1 4598   0.558   5.366   0.928
 1426SOL    HW2 4599   0.528   5.233   0.839
 1427SOL     OW 4600   0.967   4.514   1.215
 1427SOL    HW1 4601   1.022   4.491   1.295
 1427SOL    HW2 4602   0.877   4.469   1.222
 1428SOL     OW 4603   0.027   4.280   1.116
 1428SOL    HW1 4604   0.088   4.227   1.057
 1428SOL    HW2 4605   0.062   4.281   1.209
 1429SOL     OW 4606   0.193   4.245   1.729
 1429SOL    HW1 4607   0.227   4.180   1.661
 1429SOL    HW2 4608   0.158   4.326   1.682
 1430SOL     OW 4609   1.385   4.650   1.648
 1430SOL    HW1 4610   1.407   4.748   1.650
 1430SOL    HW2 4611   1.374   4.621   1.553
 1431SOL     OW 4612   0.820   4.303   0.359
 1431SOL    HW1 4613   0.827   4.219   0.305
 1431SOL    HW2 4614   0.737   4.352   0.333
 1432SOL     OW 4615   1.629   4.341   1.164
 1432SOL    HW1 4616   1.585   4.307   1.247
 1432SOL    HW2 4617   1.720   4.300   1.155
 1433SOL     OW 4618   0.231   5.267   1.721
 1433SOL    HW1 4619   0.214   5.341   1.787
 1433SOL    HW2 4620   0.243   5.181   1.769
 1434SOL     OW 4621   0.726   4.165   1.246
 1434SOL    HW1 4622   0.661   4.090   1.229
 1434SOL    HW2 4623   0.715   4.235   1.176
 1435SOL     OW 4624   0.923   5.404   1.462
 1435SOL    HW1 4625   0.895   5.354   1.380
 1435SOL    HW2 4626   0.917   5.502   1.444
 1436SOL     OW 4627   0.452   4.219   0.168
 1436SOL    HW1 4628   0.517   4.287   0.202
 1436SOL    HW2 4629   0.361   4.260   0.164
 1437SOL     OW 4630   0.131   4.863   1.477
 1437SOL    HW1 4631   0.137   4.825   1.570
 1437SOL    HW2 4632   0.154   4.791   1.411
 1438SOL     OW 4633   1.310   4.760   1.211
 1438SOL    HW1 4634   1.329   4.693   1.139
 1438SOL    HW2 4635   1.248   4.830   1.177
 1439SOL     OW 4636   1.322   4.581   0.290
 1439SOL    HW1 4637   1.248   4.554   0.351
 1439SOL    HW2 4638   1.293   4.569   0.195
 1440SOL     OW 4639   1.783   5.444   1.161
 1440SOL    HW1 4640   1.845   5.479   1.092
 1440SOL    HW2 4641   1.750   5.353   1.134
 1441SOL     OW 4642   1.238   5.456   1.093
 1441SOL    HW1 4643   1.326   5.489   1.057
 1441SOL    HW2 4644   1.248   5.361   1.122
 1442SOL     OW 4645   0.092   4.982   1.007
 1442SOL    HW1 4646   0.074   5.000   1.104
 1442SOL    HW2 4647   0.021   4.923   0.970
 1443SOL     OW 4648   0.691   5.408   1.731
 1443SOL    HW1 4649   0.623   5.481   1.735
 1443SOL    HW2 4650   0.756   5.426   1.657
 1444SOL     OW 4651   0.912   3.812   0.121
 1444SOL    HW1 4652   0.945   3.823   0.028
 1444SOL    HW2 4653   0.975   3.755   0.173
 1445SOL     OW 4654   1.730   3.885   0.494
 1445SOL    HW1 4655   1.801   3.872   0.424
 1445SOL    HW2 4656   1.709   3.796   0.536
 1446SOL     OW 4657   1.399   5.297   0.490
 1446SOL    HW1 4658   1.461   5.331   0.419
 1446SOL    HW2 4659   1.343   5.373   0.524
 1447SOL     OW 4660   0.146   5.511   1.847
 1447SOL    HW1 4661   0.090   5.441   1.890
 1447SOL    HW2 4662   0.195   5.563   1.918
 1448SOL     OW 4663   1.284   4.657   0.659
 1448SOL    HW1 4664   1.359   4.593   0.673
 1448SOL    HW2 4665   1.316   4.734   0.605
 1449SOL     OW 4666   0.788   5.003   1.418
 1449SOL    HW1 4667   0.761   5.052   1.501
 1449SOL    HW2 4668   0.716   5.012   1.349
 1450SOL     OW 4669   0.669   5.347   0.157
 1450SOL    HW1 4670   0.685   5.371   0.061
 1450SOL    HW2 4671   0.610   5.267   0.161
 1451SOL     OW 4672   1.617   5.455   1.391
 1451SOL    HW1 4673   1.674   5.453   1.309
 1451SOL    HW2 4674   1.603   5.550   1.420
 1452SOL     OW 4675   1.847   3.886   0.949
 1452SOL    HW1 4676   1.877   3.793   0.926
 1452SOL    HW2 4677   1.755   3.901   0.912
 1453SOL     OW 4678   0.257   4.138   0.736
 1453SOL    HW1 4679   0.164   4.142   0.701
 1453SOL    HW2 4680   0.273   4.050   0.780
 1454SOL     OW 4681   1.205   5.323   0.035
 1454SOL    HW1 4682   1.200   5.229   0.070
 1454SOL    HW2 4683   1.137   5.336  -0.036
 1455SOL     OW 4684   0.823   4.735   1.382
 1455SOL    HW1 4685   0.868   4.722   1.294
 1455SOL    HW2 4686   0.813   4.833   1.400
 1456SOL     OW 4687   0.921   4.636   0.286
 1456SOL    HW1 4688   0.981   4.670   0.214
 1456SOL    HW2 4689   0.969   4.565   0.337
 1457SOL     OW 4690   1.488   5.356   0.041
 1457SOL    HW1 4691   1.389   5.344   0.029
 1457SOL    HW2 4692   1.532   5.362  -0.048
 1458SOL     OW 4693   0.359   5.027   1.482
 1458SOL    HW1 4694   0.350   5.108   1.424
 1458SOL    HW2 4695   0.278   4.970   1.473
 1459SOL     OW 4696   1.612   5.015   1.286
 1459SOL    HW1 4697   1.669   4.990   1.365
 1459SOL    HW2 4698   1.544   5.082   1.314
 1460SOL     OW 4699   1.072   4.833   0.723
 1460SOL    HW1 4700   0.993   4.785   0.760
 1460SOL    HW2 4701   1.140   4.766   0.691
 1461SOL     OW 4702   1.033   3.966   0.967
 1461SOL    HW1 4703   1.023   3.927   0.875
 1461SOL    HW2 4704   1.023   3.893   1.034
 1462SOL     OW 4705   0.606   5.209   0.476
 1462SOL    HW1 4706   0.659   5.156   0.410
 1462SOL    HW2 4707   0.533   5.259   0.428
 1463SOL     OW 4708   0.249   5.075   0.277
 1463SOL    HW1 4709   0.153   5.062   0.252
 1463SOL    HW2 4710   0.254   5.115   0.369
 1464SOL     OW 4711   0.116   4.775   1.741
 1464SOL    HW1 4712   0.033   4.743   1.787
 1464SOL    HW2 4713   0.194   4.721   1.772
 1465SOL     OW 4714   0.684   3.916   1.504
 1465SOL    HW1 4715   0.769   3.891   1.457
 1465SOL    HW2 4716   0.705   3.954   1.594
 1466SOL     OW 4717   0.090   4.039   0.022
 1466SOL    HW1 4718  -0.009   4.025   0.031
 1466SOL    HW2 4719   0.107   4.127  -0.022
 1467SOL     OW 4720   1.418   4.575   1.385
 1467SOL    HW1 4721   1.358   4.636   1.334
 1467SOL    HW2 4722   1.513   4.587   1.355
 1468SOL     OW 4723   0.054   3.877   0.339
 1468SOL    HW1 4724   0.083   3.937   0.264
 1468SOL    HW2 4725   0.128   3.868   0.405
 1469SOL     OW 4726   1.181   5.058   0.121
 1469SOL    HW1 4727   1.086   5.029   0.114
 1469SOL    HW2 4728   1.208   5.062   0.218
 1470SOL     OW 4729   0.629   4.548   1.437
 1470SOL    HW1 4730   0.686   4.629   1.424
 1470SOL    HW2 4731   0.688   4.467   1.445
 1471SOL     OW 4732   1.486   5.527   0.994
 1471SOL    HW1 4733   1.508   5.595   0.924
 1471SOL    HW2 4734   1.571   5.487   1.029
 1472SOL     OW 4735   0.731   4.273   1.697
 1472SOL    HW1 4736   0.769   4.340   1.761
 1472SOL    HW2 4737   0.741   4.181   1.735
 1473SOL     OW 4738   1.478   4.906   1.629
 1473SOL    HW1 4739   1.455   4.932   1.723
 1473SOL    HW2 4740   1.570   4.937   1.607
 1474SOL     OW 4741   0.368   5.467   1.573
 1474SOL    HW1 4742   0.284   5.520   1.558
 1474SOL    HW2 4743   0.344   5.377   1.609
 1475SOL     OW 4744   1.661   4.609   1.252
 1475SOL    HW1 4745   1.652   4.524   1.201
 1475SOL    HW2 4746   1.647   4.686   1.190
 1476SOL     OW 4747   1.224   4.044   0.456
 1476SOL    HW1 4748   1.285   3.965   0.451
 1476SOL    HW2 4749   1.249   4.100   0.535
 1477SOL     OW 4750   0.590   4.459   0.666
 1477SOL    HW1 4751   0.627   4.552   0.654
 1477SOL    HW2 4752   0.518   4.444   0.599
 1478SOL     OW 4753   1.745   4.085   1.685
 1478SOL    HW1 4754   1.740   4.133   1.597
 1478SOL    HW2 4755   1.670   4.021   1.693
 1479SOL     OW 4756   1.758   4.656   1.507
 1479SOL    HW1 4757   1.743   4.752   1.532
 1479SOL    HW2 4758   1.736   4.643   1.410
 1480SOL     OW 4759   0.867   5.083   0.051
 1480SOL    HW1 4760   0.828   5.099   0.141
 1480SOL    HW2 4761   0.877   5.170   0.003
 1481SOL     OW 4762   0.665   5.503   0.936
 1481SOL    HW1 4763   0.641   5.598   0.921
 1481SOL    HW2 4764   0.763   5.491   0.926
 1482SOL     OW 4765   0.870   4.699   0.855
 1482SOL    HW1 4766   0.920   4.620   0.890
 1482SOL    HW2 4767   0.823   4.745   0.930
 1483SOL     OW 4768   1.074   4.711   0.078
 1483SOL    HW1 4769   1.048   4.767  -0.001
 1483SOL    HW2 4770   1.152   4.653   0.053
 1484SOL     OW 4771   1.832   5.283   0.850
 1484SOL    HW1 4772   1.760   5.272   0.782
 1484SOL    HW2 4773   1.810   5.228   0.931
 1485SOL     OW 4774   0.234   5.019   1.853
 1485SOL    HW1 4775   0.177   4.944   1.817
 1485SOL    HW2 4776   0.221   5.026   1.952
 1486SOL     OW 4777   0.090   4.953   0.662
 1486SOL    HW1 4778   0.093   4.912   0.753
 1486SOL    HW2 4779   0.158   4.910   0.603
 1487SOL     OW 4780   0.680   5.143   1.625
 1487SOL    HW1 4781   0.605   5.091   1.665
 1487SOL    HW2 4782   0.691   5.229   1.675
 1488SOL     OW 4783   1.828   3.867   1.215
 1488SOL    HW1 4784   1.811   3.771   1.237
 1488SOL    HW2 4785   1.828   3.878   1.115
 1489SOL     OW 4786   0.431   4.154   0.525
 1489SOL    HW1 4787   0.441   4.064   0.483
 1489SOL    HW2 4788   0.375   4.147   0.608
 1490SOL     OW 4789   1.695   5.197   1.085
 1490SOL    HW1 4790   1.612   5.185   1.030
 1490SOL    HW2 4791   1.695   5.132   1.161
 1491SOL     OW 4792   0.344   4.284   1.289
 1491SOL    HW1 4793   0.397   4.219   1.344
 1491SOL    HW2 4794   0.352   4.261   1.193
 1492SOL     OW 4795   0.831   5.302   0.678
 1492SOL    HW1 4796   0.809   5.367   0.604
 1492SOL    HW2 4797   0.755   5.238   0.689
 1493SOL     OW 4798   1.426   3.950   1.114
 1493SOL    HW1 4799   1.416   3.851   1.121
 1493SOL    HW2 4800   1.368   3.995   1.182
 1494SOL     OW 4801   1.010   3.742   1.133
 1494SOL    HW1 4802   0.941   3.683   1.090
 1494SOL    HW2 4803   1.098   3.695   1.134
 1495SOL     OW 4804   0.779   5.053   0.320
 1495SOL    HW1 4805   0.752   4.958   0.335
 1495SOL    HW2 4806   0.860   5.073   0.374
 1496SOL     OW 4807   0.621   5.290   1.289
 1496SOL    HW1 4808   0.618   5.377   1.338
 1496SOL    HW2 4809   0.713   5.277   1.252
 1497SOL     OW 4810   1.358   3.765   0.179
 1497SOL    HW1 4811   1.405   3.693   0.128
 1497SOL    HW2 4812   1.262   3.740   0.193
 1498SOL     OW 4813   1.297   4.191   0.677
 1498SOL    HW1 4814   1.244   4.275   0.673
 1498SOL    HW2 4815   1.290   4.152   0.769
 1499SOL     OW 4816   1.590   3.933   0.888
 1499SOL    HW1 4817   1.531   3.950   0.967
 1499SOL    HW2 4818   1.586   4.011   0.826
 1500SOL     OW 4819   0.038   4.778   0.304
 1500SOL    HW1 4820   0.137   4.776   0.287
 1500SOL    HW2 4821   0.006   4.685   0.324
 1501SOL     OW 4822   0.882   5.395   0.342
 1501SOL    HW1 4823   0.807   5.376   0.279
 1501SOL    HW2 4824   0.859   5.473   0.400
 1502SOL     OW 4825   0.216   4.336   1.991
 1502SOL    HW1 4826   0.123   4.338   2.028
 1502SOL    HW2 4827   0.213   4.318   1.893
 1503SOL     OW 4828   0.218   4.009   2.850
 1503SOL    HW1 4829   0.254   3.979   2.939
 1503SOL    HW2 4830   0.124   3.976   2.841
 1504SOL     OW 4831   5.595   4.113   2.491
 1504SOL    HW1 4832   5.514   4.144   2.540
 1504SOL    HW2 4833   5.572   4.034   2.434
 1505SOL     OW 4834   0.572   5.023   3.018
 1505SOL    HW1 4835   0.503   4.986   2.956
 1505SOL    HW2 4836   0.634   5.083   2.968
 1506SOL     OW 4837   1.581   5.243   2.569
 1506SOL    HW1 4838   1.533   5.215   2.652
 1506SOL    HW2 4839   1.516   5.252   2.494
 1507SOL     OW 4840   1.146   4.420   2.552
 1507SOL    HW1 4841   1.192   4.507   2.536
 1507SOL    HW2 4842   1.090   4.426   2.634
 1508SOL     OW 4843   1.789   4.332   2.083
 1508SOL    HW1 4844   1.745   4.334   1.993
 1508SOL    HW2 4845   1.826   4.240   2.099
 1509SOL     OW 4846   0.749   4.841   2.903
 1509SOL    HW1 4847   0.691   4.870   2.980
 1509SOL    HW2 4848   0.781   4.922   2.854
 1510SOL     OW 4849   0.886   4.479   3.690
 1510SOL    HW1 4850   0.872   4.547   3.762
 1510SOL    HW2 4851   0.905   4.525   3.604
 1511SOL     OW 4852   0.683   4.713   2.514
 1511SOL    HW1 4853   0.756   4.707   2.582
 1511SOL    HW2 4854   0.611   4.773   2.547
 1512SOL     OW 4855   0.713   4.873   3.685
 1512SOL    HW1 4856   0.762   4.953   3.720
 1512SOL    HW2 4857   0.627   4.904   3.644
 1513SOL     OW 4858   0.321   5.164   2.940
 1513SOL    HW1 4859   0.245   5.114   2.899
 1513SOL    HW2 4860   0.371   5.214   2.869
 1514SOL     OW 4861   1.455   5.227   3.226
 1514SOL    HW1 4862   1.515   5.307   3.232
 1514SOL    HW2 4863   1.383   5.234   3.296
 1515SOL     OW 4864   0.414   4.097   3.451
 1515SOL    HW1 4865   0.500   4.048   3.441
 1515SOL    HW2 4866   0.391   4.143   3.365
 1516SOL     OW 4867   1.563   4.161   2.609
 1516SOL    HW1 4868   1.468   4.176   2.585
 1516SOL    HW2 4869   1.594   4.233   2.671
 1517SOL     OW 4870   0.222   5.443   2.332
 1517SOL    HW1 4871   0.242   5.520   2.391
 1517SOL    HW2 4872   0.295   5.433   2.264
 1518SOL     OW 4873   1.135   5.065   3.563
 1518SOL    HW1 4874   1.187   5.059   3.648
 1518SOL    HW2 4875   1.080   4.982   3.553
 1519SOL     OW 4876   0.236   5.171   2.393
 1519SOL    HW1 4877   0.219   5.269   2.391
 1519SOL    HW2 4878   0.175   5.128   2.459
 1520SOL     OW 4879   0.298   4.820   2.787
 1520SOL    HW1 4880   0.284   4.722   2.802
 1520SOL    HW2 4881   0.220   4.870   2.825
 1521SOL     OW 4882   0.567   5.546   3.268
 1521SOL    HW1 4883   0.498   5.513   3.332
 1521SOL    HW2 4884   0.612   5.627   3.306
 1522SOL     OW 4885   0.572   4.709   2.012
 1522SOL    HW1 4886   0.618   4.755   1.936
 1522SOL    HW2 4887   0.615   4.735   2.098
 1523SOL     OW 4888   1.598   3.852   3.328
 1523SOL    HW1 4889   1.626   3.934   3.276
 1523SOL    HW2 4890   1.576   3.878   3.422
 1524SOL     OW 4891   0.116   4.388   2.427
 1524SOL    HW1 4892   0.090   4.293   2.444
 1524SOL    HW2 4893   0.110   4.439   2.512
 1525SOL     OW 4894   1.851   5.480   2.191
 1525SOL    HW1 4895   1.925   5.454   2.253
 1525SOL    HW2 4896   1.863   5.576   2.164
 1526SOL     OW 4897   0.031   5.311   1.983
 1526SOL    HW1 4898   0.014   5.214   2.000
 1526SOL    HW2 4899   0.008   5.364   2.065
 1527SOL     OW 4900   1.692   4.646   2.508
 1527SOL    HW1 4901   1.781   4.603   2.493
 1527SOL    HW2 4902   1.669   4.704   2.429
 1528SOL     OW 4903   1.656   4.830   2.296
 1528SOL    HW1 4904   1.744   4.825   2.249
 1528SOL    HW2 4905   1.662   4.897   2.370
 1529SOL     OW 4906   0.123   4.476   3.462
 1529SOL    HW1 4907   0.218   4.500   3.445
 1529SOL    HW2 4908   0.065   4.556   3.448
 1530SOL     OW 4909   0.595   5.113   2.608
 1530SOL    HW1 4910   0.554   5.022   2.608
 1530SOL    HW2 4911   0.592   5.151   2.516
 1531SOL     OW 4912   1.284   4.954   3.282
 1531SOL    HW1 4913   1.309   4.883   3.216
 1531SOL    HW2 4914   1.346   4.950   3.360
 1532SOL     OW 4915   0.823   3.741   2.374
 1532SOL    HW1 4916   0.867   3.827   2.347
 1532SOL    HW2 4917   0.724   3.754   2.378
 1533SOL     OW 4918   0.195   4.684   3.146
 1533SOL    HW1 4919   0.286   4.643   3.133
 1533SOL    HW2 4920   0.127   4.633   3.093
 1534SOL     OW 4921   1.537   4.724   2.068
 1534SOL    HW1 4922   1.463   4.664   2.097
 1534SOL    HW2 4923   1.580   4.766   2.148
 1535SOL     OW 4924   1.169   5.542   3.482
 1535SOL    HW1 4925   1.183   5.611   3.412
 1535SOL    HW2 4926   1.194   5.452   3.446
 1536SOL     OW 4927   0.338   3.957   3.692
 1536SOL    HW1 4928   0.372   4.020   3.623
 1536SOL    HW2 4929   0.246   3.984   3.720
 1537SOL     OW 4930   1.462   5.148   2.798
 1537SOL    HW1 4931   1.399   5.168   2.874
 1537SOL    HW2 4932   1.453   5.052   2.772
 1538SOL     OW 4933   1.643   5.496   2.432
 1538SOL    HW1 4934   1.625   5.463   2.340
 1538SOL    HW2 4935   1.634   5.421   2.497
 1539SOL     OW 4936   0.593   4.441   2.141
 1539SOL    HW1 4937   0.594   4.527   2.090
 1539SOL    HW2 4938   0.524   4.445   2.213
 1540SOL     OW 4939   1.277   4.084   2.796
 1540SOL    HW1 4940   1.182   4.053   2.804
 1540SOL    HW2 4941   1.335   4.033   2.859
 1541SOL     OW 4942   1.585   5.404   2.171
 1541SOL    HW1 4943   1.683   5.425   2.166
 1541SOL    HW2 4944   1.549   5.387   2.080
 1542SOL     OW 4945   0.791   4.338   3.307
 1542SOL    HW1 4946   0.769   4.310   3.401
 1542SOL    HW2 4947   0.760   4.268   3.243
 1543SOL     OW 4948   1.390   4.194   3.541
 1543SOL    HW1 4949   1.392   4.243   3.628
 1543SOL    HW2 4950   1.445   4.111   3.548
 1544SOL     OW 4951   0.952   4.606   3.451
 1544SOL    HW1 4952   1.009   4.535   3.410
 1544SOL    HW2 4953   0.895   4.648   3.381
 1545SOL     OW 4954   1.000   4.119   3.075
 1545SOL    HW1 4955   0.906   4.138   3.105
 1545SOL    HW2 4956   0.997   4.067   2.990
 1546SOL     OW 4957   1.056   4.418   2.284
 1546SOL    HW1 4958   1.078   4.414   2.381
 1546SOL    HW2 4959   0.967   4.375   2.267
 1547SOL     OW 4960   0.085   4.554   2.644
 1547SOL    HW1 4961   0.172   4.543   2.693
 1547SOL    HW2 4962   0.035   4.631   2.684
 1548SOL     OW 4963   0.127   5.601   3.453
 1548SOL    HW1 4964   0.135   5.572   3.548
 1548SOL    HW2 4965   0.038   5.575   3.416
 1549SOL     OW 4966   0.891   4.079   2.060
 1549SOL    HW1 4967   0.939   4.141   1.997
 1549SOL    HW2 4968   0.853   4.002   2.008
 1550SOL     OW 4969   1.694   4.295   3.692
 1550SOL    HW1 4970   1.664   4.376   3.641
 1550SOL    HW2 4971   1.722   4.224   3.628
 1551SOL     OW 4972   1.387   4.865   2.395
 1551SOL    HW1 4973   1.472   4.854   2.344
 1551SOL    HW2 4974   1.330   4.935   2.352
 1552SOL     OW 4975   0.547   3.889   2.774
 1552SOL    HW1 4976   0.552   3.918   2.869
 1552SOL    HW2 4977   0.543   3.970   2.715
 1553SOL     OW 4978   1.030   5.195   2.349
 1553SOL    HW1 4979   0.986   5.255   2.283
 1553SOL    HW2 4980   0.964   5.169   2.419
 1554SOL     OW 4981   0.355   5.544   2.742
 1554SOL    HW1 4982   0.400   5.455   2.745
 1554SOL    HW2 4983   0.422   5.616   2.756
 1555SOL     OW 4984   1.797   4.773   2.743
 1555SOL    HW1 4985   1.747   4.760   2.657
 1555SOL    HW2 4986   1.733   4.781   2.819
 1556SOL     OW 4987   1.220   5.260   3.377
 1556SOL    HW1 4988   1.211   5.189   3.447
 1556SOL    HW2 4989   1.161   5.239   3.300
 1557SOL     OW 4990   0.314   4.685   2.123
 1557SOL    HW1 4991   0.403   4.706   2.082
 1557SOL    HW2 4992   0.276   4.602   2.082
 1558SOL     OW 4993   1.496   4.468   2.570
 1558SOL    HW1 4994   1.486   4.439   2.666
 1558SOL    HW2 4995   1.570   4.535   2.564
 1559SOL     OW 4996   0.475   4.981   3.593
 1559SOL    HW1 4997   0.455   4.960   3.498
 1559SOL    HW2 4998   0.389   4.983   3.646
 1560SOL     OW 4999   1.124   5.495   2.091
 1560SOL    HW1 5000   1.044   5.459   2.138
 1560SOL    HW2 5001   1.152   5.433   2.018
 1561SOL     OW 5002   0.128   3.977   3.314
 1561SOL    HW1 5003   0.137   4.072   3.344
 1561SOL    HW2 5004   0.157   3.916   3.387
 1562SOL     OW 5005   1.621   5.110   1.954
 1562SOL    HW1 5006   1.584   5.201   1.937
 1562SOL    HW2 5007   1.553   5.041   1.931
 1563SOL     OW 5008   0.458   5.470   2.179
 1563SOL    HW1 5009   0.505   5.528   2.245
 1563SOL    HW2 5010   0.524   5.427   2.117
 1564SOL     OW 5011   1.414   3.831   2.303
 1564SOL    HW1 5012   1.395   3.804   2.208
 1564SOL    HW2 5013   1.492   3.779   2.337
 1565SOL     OW 5014   0.262   5.497   3.093
 1565SOL    HW1 5015   0.362   5.491   3.097
 1565SOL    HW2 5016   0.232   5.485   2.999
 1566SOL     OW 5017   0.943   5.423   2.750
 1566SOL    HW1 5018   1.035   5.384   2.758
 1566SOL    HW2 5019   0.894   5.376   2.677
 1567SOL     OW 5020   0.399   4.408   2.341
 1567SOL    HW1 5021   0.416   4.310   2.353
 1567SOL    HW2 5022   0.302   4.427   2.354
 1568SOL     OW 5023   1.518   3.945   3.588
 1568SOL    HW1 5024   1.530   3.966   3.685
 1568SOL    HW2 5025   1.447   3.875   3.577
 1569SOL     OW 5026   0.653   3.834   1.961
 1569SOL    HW1 5027   0.710   3.756   1.988
 1569SOL    HW2 5028   0.587   3.805   1.891
 1570SOL     OW 5029   0.763   3.998   3.623
 1570SOL    HW1 5030   0.850   3.948   3.616
 1570SOL    HW2 5031   0.709   3.960   3.699
 1571SOL     OW 5032   0.854   5.225   3.063
 1571SOL    HW1 5033   0.850   5.204   2.965
 1571SOL    HW2 5034   0.936   5.184   3.103
 1572SOL     OW 5035   1.334   4.312   3.298
 1572SOL    HW1 5036   1.365   4.277   3.387
 1572SOL    HW2 5037   1.369   4.405   3.285
 1573SOL     OW 5038   0.800   5.099   2.806
 1573SOL    HW1 5039   0.894   5.095   2.772
 1573SOL    HW2 5040   0.737   5.115   2.730
 1574SOL     OW 5041   0.928   4.237   2.751
 1574SOL    HW1 5042   0.902   4.226   2.655
 1574SOL    HW2 5043   0.951   4.148   2.790
 1575SOL     OW 5044   0.552   3.788   2.351
 1575SOL    HW1 5045   0.471   3.785   2.410
 1575SOL    HW2 5046   0.546   3.867   2.290
 1576SOL     OW 5047   1.428   4.927   1.901
 1576SOL    HW1 5048   1.453   4.849   1.959
 1576SOL    HW2 5049   1.339   4.963   1.931
 1577SOL     OW 5050   0.282   3.775   2.052
 1577SOL    HW1 5051   0.328   3.845   1.997
 1577SOL    HW2 5052   0.350   3.712   2.090
 1578SOL     OW 5053   0.952   3.979   2.311
 1578SOL    HW1 5054   0.921   4.015   2.223
 1578SOL    HW2 5055   1.050   3.993   2.320
 1579SOL     OW 5056   1.073   4.411   3.308
 1579SOL    HW1 5057   0.997   4.347   3.315
 1579SOL    HW2 5058   1.159   4.360   3.307
 1580SOL     OW 5059   1.200   5.309   2.673
 1580SOL    HW1 5060   1.216   5.364   2.591
 1580SOL    HW2 5061   1.285   5.299   2.724
 1581SOL     OW 5062   0.471   4.872   2.587
 1581SOL    HW1 5063   0.409   4.851   2.662
 1581SOL    HW2 5064   0.423   4.863   2.500
 1582SOL     OW 5065   1.260   5.516   2.476
 1582SOL    HW1 5066   1.312   5.576   2.416
 1582SOL    HW2 5067   1.179   5.565   2.510
 1583SOL     OW 5068   1.025   4.256   1.894
 1583SOL    HW1 5069   0.974   4.338   1.868
 1583SOL    HW2 5070   1.091   4.279   1.966
 1584SOL     OW 5071   0.041   4.275   3.297
 1584SOL    HW1 5072   0.132   4.265   3.254
 1584SOL    HW2 5073   0.043   4.352   3.360
 1585SOL     OW 5074   0.558   3.947   3.043
 1585SOL    HW1 5075   0.599   3.878   3.104
 1585SOL    HW2 5076   0.461   3.956   3.064
 1586SOL     OW 5077   0.871   4.183   2.492
 1586SOL    HW1 5078   0.817   4.246   2.435
 1586SOL    HW2 5079   0.894   4.102   2.439
 1587SOL     OW 5080   1.022   3.770   2.593
 1587SOL    HW1 5081   0.955   3.772   2.519
 1587SOL    HW2 5082   0.996   3.700   2.659
 1588SOL     OW 5083   1.446   4.884   2.720
 1588SOL    HW1 5084   1.367   4.824   2.723
 1588SOL    HW2 5085   1.478   4.893   2.626
 1589SOL     OW 5086   1.466   4.337   2.828
 1589SOL    HW1 5087   1.397   4.264   2.836
 1589SOL    HW2 5088   1.528   4.332   2.907
 1590SOL     OW 5089   1.845   4.539   2.246
 1590SOL    HW1 5090   1.902   4.490   2.313
 1590SOL    HW2 5091   1.816   4.476   2.174
 1591SOL     OW 5092   0.486   5.155   2.036
 1591SOL    HW1 5093   0.400   5.121   2.073
 1591SOL    HW2 5094   0.516   5.096   1.961
 1592SOL     OW 5095   1.686   4.989   2.509
 1592SOL    HW1 5096   1.786   4.984   2.520
 1592SOL    HW2 5097   1.656   5.083   2.525
 1593SOL     OW 5098   1.391   4.291   1.930
 1593SOL    HW1 5099   1.329   4.282   2.008
 1593SOL    HW2 5100   1.480   4.324   1.961
 1594SOL     OW 5101   0.533   3.986   2.165
 1594SOL    HW1 5102   0.579   3.934   2.094
 1594SOL    HW2 5103   0.501   4.073   2.127
 1595SOL     OW 5104   1.748   4.967   3.408
 1595SOL    HW1 5105   1.838   4.926   3.391
 1595SOL    HW2 5106   1.761   5.060   3.445
 1596SOL     OW 5107   1.053   5.079   3.203
 1596SOL    HW1 5108   0.972   5.046   3.252
 1596SOL    HW2 5109   1.135   5.034   3.240
 1597SOL     OW 5110   1.613   5.356   3.521
 1597SOL    HW1 5111   1.597   5.392   3.429
 1597SOL    HW2 5112   1.697   5.303   3.523
 1598SOL     OW 5113   1.148   4.959   2.969
 1598SOL    HW1 5114   1.086   4.991   3.041
 1598SOL    HW2 5115   1.112   4.987   2.880
 1599SOL     OW 5116   1.616   4.818   2.942
 1599SOL    HW1 5117   1.612   4.885   3.017
 1599SOL    HW2 5118   1.544   4.837   2.876
 1600SOL     OW 5119   0.933   3.808   3.251
 1600SOL    HW1 5120   0.951   3.790   3.155
 1600SOL    HW2 5121   1.012   3.854   3.292
 1601SOL     OW 5122   0.976   4.840   3.583
 1601SOL    HW1 5123   0.882   4.856   3.613
 1601SOL    HW2 5124   0.980   4.756   3.529
 1602SOL     OW 5125   0.706   4.767   2.242
 1602SOL    HW1 5126   0.693   4.747   2.339
 1602SOL    HW2 5127   0.788   4.721   2.209
 1603SOL     OW 5128   0.437   4.554   3.115
 1603SOL    HW1 5129   0.505   4.564   3.187
 1603SOL    HW2 5130   0.398   4.462   3.118
 1604SOL     OW 5131   1.262   4.098   3.145
 1604SOL    HW1 5132   1.295   4.179   3.195
 1604SOL    HW2 5133   1.167   4.113   3.117
 1605SOL     OW 5134   0.069   5.324   3.211
 1605SOL    HW1 5135  -0.009   5.349   3.153
 1605SOL    HW2 5136   0.147   5.384   3.189
 1606SOL     OW 5137   0.328   4.851   2.352
 1606SOL    HW1 5138   0.338   4.934   2.296
 1606SOL    HW2 5139   0.328   4.771   2.293
 1607SOL     OW 5140   0.544   4.261   2.725
 1607SOL    HW1 5141   0.565   4.322   2.649
 1607SOL    HW2 5142   0.605   4.281   2.802
 1608SOL     OW 5143   1.260   5.077   2.269
 1608SOL    HW1 5144   1.324   5.150   2.293
 1608SOL    HW2 5145   1.167   5.105   2.295
 1609SOL     OW 5146   1.297   5.192   3.008
 1609SOL    HW1 5147   1.353   5.197   3.090
 1609SOL    HW2 5148   1.246   5.106   3.008
 1610SOL     OW 5149   1.587   4.324   2.340
 1610SOL    HW1 5150   1.540   4.377   2.410
 1610SOL    HW2 5151   1.625   4.387   2.271
 1611SOL     OW 5152   0.412   4.485   3.462
 1611SOL    HW1 5153   0.487   4.527   3.410
 1611SOL    HW2 5154   0.412   4.386   3.447
 1612SOL     OW 5155   1.615   4.513   3.552
 1612SOL    HW1 5156   1.524   4.553   3.548
 1612SOL    HW2 5157   1.672   4.552   3.479
 1613SOL     OW 5158   0.998   3.862   3.614
 1613SOL    HW1 5159   1.055   3.943   3.600
 1613SOL    HW2 5160   1.049   3.781   3.587
 1614SOL     OW 5161   0.491   3.746   3.621
 1614SOL    HW1 5162   0.447   3.690   3.551
 1614SOL    HW2 5163   0.432   3.823   3.644
 1615SOL     OW 5164   0.583   4.591   2.886
 1615SOL    HW1 5165   0.627   4.681   2.884
 1615SOL    HW2 5166   0.528   4.583   2.970
 1616SOL     OW 5167   1.333   4.578   2.878
 1616SOL    HW1 5168   1.240   4.563   2.845
 1616SOL    HW2 5169   1.387   4.495   2.867
 1617SOL     OW 5170   1.209   4.251   2.129
 1617SOL    HW1 5171   1.210   4.167   2.184
 1617SOL    HW2 5172   1.162   4.323   2.179
 1618SOL     OW 5173   0.289   3.909   3.096
 1618SOL    HW1 5174   0.245   3.956   3.172
 1618SOL    HW2 5175   0.273   3.811   3.103
 1619SOL     OW 5176   0.080   5.046   3.138
 1619SOL    HW1 5177   0.090   4.981   3.213
 1619SOL    HW2 5178   0.071   5.139   3.175
 1620SOL     OW 5179   0.731   4.360   2.916
 1620SOL    HW1 5180   0.798   4.337   2.845
 1620SOL    HW2 5181   0.685   4.446   2.892
 1621SOL     OW 5182   1.742   4.686   3.726
 1621SOL    HW1 5183   1.700   4.616   3.668
 1621SOL    HW2 5184   1.679   4.708   3.801
 1622SOL     OW 5185   0.315   3.780   2.494
 1622SOL    HW1 5186   0.287   3.874   2.509
 1622SOL    HW2 5187   0.323   3.733   2.582
 1623SOL     OW 5188   1.034   4.478   2.820
 1623SOL    HW1 5189   1.018   4.501   2.916
 1623SOL    HW2 5190   1.001   4.386   2.802
 1624SOL     OW 5191   0.978   5.285   3.589
 1624SOL    HW1 5192   0.960   5.335   3.504
 1624SOL    HW2 5193   1.027   5.201   3.568
 1625SOL     OW 5194   1.850   5.225   3.463
 1625SOL    HW1 5195   1.873   5.251   3.369
 1625SOL    HW2 5196   1.931   5.234   3.520
 1626SOL     OW 5197   0.353   4.660   3.662
 1626SOL    HW1 5198   0.428   4.667   3.727
 1626SOL    HW2 5199   0.374   4.590   3.594
 1627SOL     OW 5200   1.511   3.985   1.985
 1627SOL    HW1 5201   1.458   3.905   2.013
 1627SOL    HW2 5202   1.459   4.068   2.007
 1628SOL     OW 5203   1.288   4.548   1.880
 1628SOL    HW1 5204   1.319   4.453   1.879
 1628SOL    HW2 5205   1.317   4.593   1.796
 1629SOL     OW 5206   1.060   5.069   2.729
 1629SOL    HW1 5207   1.071   4.990   2.668
 1629SOL    HW2 5208   1.111   5.147   2.692
 1630SOL     OW 5209   0.311   4.539   2.801
 1630SOL    HW1 5210   0.410   4.556   2.806
 1630SOL    HW2 5211   0.294   4.441   2.813
 1631SOL     OW 5212   0.286   4.267   2.804
 1631SOL    HW1 5213   0.262   4.174   2.835
 1631SOL    HW2 5214   0.379   4.267   2.769
 1632SOL     OW 5215   1.135   4.096   3.557
 1632SOL    HW1 5216   1.083   4.151   3.622
 1632SOL    HW2 5217   1.226   4.134   3.547
 1633SOL     OW 5218   1.166   3.925   3.340
 1633SOL    HW1 5219   1.148   3.987   3.417
 1633SOL    HW2 5220   1.208   3.976   3.265
 1634SOL     OW 5221   5.586   5.037   2.061
 1634SOL    HW1 5222   5.496   5.059   2.021
 1634SOL    HW2 5223   5.587   4.942   2.091
 1635SOL     OW 5224   0.096   5.502   2.821
 1635SOL    HW1 5225   0.055   5.426   2.772
 1635SOL    HW2 5226   0.186   5.522   2.783
 1636SOL     OW 5227   0.492   5.304   2.774
 1636SOL    HW1 5228   0.565   5.369   2.795
 1636SOL    HW2 5229   0.525   5.237   2.708
 1637SOL     OW 5230   0.959   4.520   3.081
 1637SOL    HW1 5231   1.015   4.492   3.159
 1637SOL    HW2 5232   0.874   4.467   3.080
 1638SOL     OW 5233   0.050   4.285   2.974
 1638SOL    HW1 5234   0.109   4.286   2.893
 1638SOL    HW2 5235   0.107   4.276   3.056
 1639SOL     OW 5236   0.210   4.245   3.592
 1639SOL    HW1 5237   0.282   4.202   3.538
 1639SOL    HW2 5238   0.171   4.322   3.543
 1640SOL     OW 5239   1.384   4.655   3.514
 1640SOL    HW1 5240   1.407   4.752   3.513
 1640SOL    HW2 5241   1.379   4.622   3.420
 1641SOL     OW 5242   0.819   4.301   2.224
 1641SOL    HW1 5243   0.825   4.220   2.165
 1641SOL    HW2 5244   0.740   4.355   2.197
 1642SOL     OW 5245   1.645   4.326   3.035
 1642SOL    HW1 5246   1.629   4.268   3.115
 1642SOL    HW2 5247   1.738   4.311   3.001
 1643SOL     OW 5248   0.241   5.253   3.578
 1643SOL    HW1 5249   0.221   5.334   3.633
 1643SOL    HW2 5250   0.241   5.172   3.637
 1644SOL     OW 5251   0.727   4.167   3.107
 1644SOL    HW1 5252   0.657   4.097   3.095
 1644SOL    HW2 5253   0.715   4.239   3.039
 1645SOL     OW 5254   0.897   5.412   3.351
 1645SOL    HW1 5255   0.882   5.360   3.268
 1645SOL    HW2 5256   0.910   5.509   3.328
 1646SOL     OW 5257   0.457   4.218   2.046
 1646SOL    HW1 5258   0.520   4.291   2.072
 1646SOL    HW2 5259   0.365   4.257   2.033
 1647SOL     OW 5260   0.153   4.865   3.344
 1647SOL    HW1 5261   0.144   4.820   3.433
 1647SOL    HW2 5262   0.167   4.795   3.273
 1648SOL     OW 5263   1.309   4.765   3.075
 1648SOL    HW1 5264   1.331   4.696   3.006
 1648SOL    HW2 5265   1.249   4.834   3.036
 1649SOL     OW 5266   1.327   4.569   2.152
 1649SOL    HW1 5267   1.247   4.565   2.213
 1649SOL    HW2 5268   1.296   4.568   2.057
 1650SOL     OW 5269   1.782   5.444   3.021
 1650SOL    HW1 5270   1.845   5.479   2.952
 1650SOL    HW2 5271   1.750   5.353   2.995
 1651SOL     OW 5272   1.244   5.463   2.973
 1651SOL    HW1 5273   1.330   5.494   2.932
 1651SOL    HW2 5274   1.250   5.364   2.990
 1652SOL     OW 5275   0.094   4.991   2.872
 1652SOL    HW1 5276   0.078   5.007   2.970
 1652SOL    HW2 5277   0.022   4.932   2.835
 1653SOL     OW 5278   0.685   5.404   3.601
 1653SOL    HW1 5279   0.625   5.484   3.594
 1653SOL    HW2 5280   0.767   5.418   3.545
 1654SOL     OW 5281   1.738   3.890   2.363
 1654SOL    HW1 5282   1.802   3.878   2.286
 1654SOL    HW2 5283   1.709   3.800   2.395
 1655SOL     OW 5284   1.410   5.296   2.358
 1655SOL    HW1 5285   1.465   5.329   2.282
 1655SOL    HW2 5286   1.342   5.365   2.384
 1656SOL     OW 5287   0.162   5.496   3.702
 1656SOL    HW1 5288   0.103   5.431   3.749
 1656SOL    HW2 5289   0.208   5.554   3.769
 1657SOL     OW 5290   1.289   4.648   2.520
 1657SOL    HW1 5291   1.365   4.584   2.533
 1657SOL    HW2 5292   1.321   4.728   2.468
 1658SOL     OW 5293   0.800   5.006   3.283
 1658SOL    HW1 5294   0.766   5.050   3.367
 1658SOL    HW2 5295   0.744   5.035   3.206
 1659SOL     OW 5296   0.662   5.363   2.026
 1659SOL    HW1 5297   0.709   5.362   1.938
 1659SOL    HW2 5298   0.609   5.279   2.037
 1660SOL     OW 5299   1.614   5.451   3.249
 1660SOL    HW1 5300   1.674   5.450   3.169
 1660SOL    HW2 5301   1.600   5.545   3.279
 1661SOL     OW 5302   1.843   3.896   2.812
 1661SOL    HW1 5303   1.875   3.802   2.800
 1661SOL    HW2 5304   1.746   3.901   2.787
 1662SOL     OW 5305   0.252   4.032   2.571
 1662SOL    HW1 5306   0.165   4.071   2.542
 1662SOL    HW2 5307   0.257   4.031   2.671
 1663SOL     OW 5308   1.218   5.322   1.898
 1663SOL    HW1 5309   1.209   5.230   1.936
 1663SOL    HW2 5310   1.150   5.336   1.827
 1664SOL     OW 5311   0.826   4.734   3.245
 1664SOL    HW1 5312   0.880   4.707   3.165
 1664SOL    HW2 5313   0.828   4.833   3.255
 1665SOL     OW 5314   0.922   4.633   2.156
 1665SOL    HW1 5315   0.978   4.670   2.082
 1665SOL    HW2 5316   0.972   4.560   2.203
 1666SOL     OW 5317   1.492   5.361   1.909
 1666SOL    HW1 5318   1.393   5.346   1.897
 1666SOL    HW2 5319   1.536   5.367   1.819
 1667SOL     OW 5320   0.321   5.078   3.355
 1667SOL    HW1 5321   0.295   5.135   3.433
 1667SOL    HW2 5322   0.261   4.998   3.350
 1668SOL     OW 5323   1.608   5.010   3.146
 1668SOL    HW1 5324   1.672   4.988   3.220
 1668SOL    HW2 5325   1.543   5.079   3.178
 1669SOL     OW 5326   1.076   4.834   2.597
 1669SOL    HW1 5327   0.996   4.782   2.627
 1669SOL    HW2 5328   1.139   4.773   2.548
 1670SOL     OW 5329   1.026   3.963   2.826
 1670SOL    HW1 5330   1.018   3.924   2.735
 1670SOL    HW2 5331   1.021   3.890   2.894
 1671SOL     OW 5332   0.606   5.218   2.361
 1671SOL    HW1 5333   0.662   5.154   2.308
 1671SOL    HW2 5334   0.533   5.255   2.304
 1672SOL     OW 5335   1.740   4.115   3.243
 1672SOL    HW1 5336   1.813   4.183   3.244
 1672SOL    HW2 5337   1.763   4.041   3.180
 1673SOL     OW 5338   0.246   5.068   2.147
 1673SOL    HW1 5339   0.150   5.062   2.120
 1673SOL    HW2 5340   0.253   5.111   2.237
 1674SOL     OW 5341   0.112   4.779   3.603
 1674SOL    HW1 5342   0.029   4.746   3.649
 1674SOL    HW2 5343   0.191   4.726   3.633
 1675SOL     OW 5344   0.696   3.898   3.369
 1675SOL    HW1 5345   0.783   3.877   3.322
 1675SOL    HW2 5346   0.716   3.942   3.456
 1676SOL     OW 5347   0.076   4.046   1.882
 1676SOL    HW1 5348  -0.007   4.020   1.833
 1676SOL    HW2 5349   0.112   4.131   1.843
 1677SOL     OW 5350   1.417   4.578   3.253
 1677SOL    HW1 5351   1.360   4.641   3.199
 1677SOL    HW2 5352   1.511   4.581   3.219
 1678SOL     OW 5353   0.050   3.880   2.153
 1678SOL    HW1 5354   0.031   3.956   2.091
 1678SOL    HW2 5355   0.140   3.842   2.131
 1679SOL     OW 5356   1.197   5.062   1.992
 1679SOL    HW1 5357   1.098   5.059   1.979
 1679SOL    HW2 5358   1.218   5.059   2.090
 1680SOL     OW 5359   0.628   4.560   3.306
 1680SOL    HW1 5360   0.692   4.635   3.288
 1680SOL    HW2 5361   0.678   4.474   3.310
 1681SOL     OW 5362   1.489   5.532   2.868
 1681SOL    HW1 5363   1.507   5.577   2.780
 1681SOL    HW2 5364   1.572   5.489   2.901
 1682SOL     OW 5365   0.737   4.271   3.560
 1682SOL    HW1 5366   0.776   4.336   3.626
 1682SOL    HW2 5367   0.745   4.178   3.595
 1683SOL     OW 5368   1.474   4.916   3.492
 1683SOL    HW1 5369   1.461   4.930   3.590
 1683SOL    HW2 5370   1.569   4.937   3.469
 1684SOL     OW 5371   0.365   5.461   3.431
 1684SOL    HW1 5372   0.281   5.514   3.418
 1684SOL    HW2 5373   0.343   5.375   3.477
 1685SOL     OW 5374   1.659   4.600   3.118
 1685SOL    HW1 5375   1.658   4.510   3.075
 1685SOL    HW2 5376   1.646   4.670   3.048
 1686SOL     OW 5377   1.228   4.042   2.321
 1686SOL    HW1 5378   1.288   3.962   2.316
 1686SOL    HW2 5379   1.248   4.094   2.404
 1687SOL     OW 5380   0.592   4.452   2.534
 1687SOL    HW1 5381   0.630   4.544   2.524
 1687SOL    HW2 5382   0.521   4.437   2.464
 1688SOL     OW 5383   1.743   4.087   3.518
 1688SOL    HW1 5384   1.739   4.104   3.420
 1688SOL    HW2 5385   1.667   4.029   3.546
 1689SOL     OW 5386   1.756   4.653   3.369
 1689SOL    HW1 5387   1.745   4.750   3.391
 1689SOL    HW2 5388   1.731   4.637   3.274
 1690SOL     OW 5389   0.672   5.503   2.810
 1690SOL    HW1 5390   0.646   5.596   2.785
 1690SOL    HW2 5391   0.768   5.488   2.786
 1691SOL     OW 5392   0.876   4.688   2.715
 1691SOL    HW1 5393   0.928   4.610   2.749
 1691SOL    HW2 5394   0.831   4.734   2.792
 1692SOL     OW 5395   1.075   4.704   1.949
 1692SOL    HW1 5396   1.050   4.770   1.878
 1692SOL    HW2 5397   1.153   4.649   1.917
 1693SOL     OW 5398   1.836   5.283   2.707
 1693SOL    HW1 5399   1.758   5.271   2.646
 1693SOL    HW2 5400   1.833   5.214   2.779
 1694SOL     OW 5401   0.232   5.011   3.710
 1694SOL    HW1 5402   0.176   4.935   3.677
 1694SOL    HW2 5403   0.215   5.025   3.808
 1695SOL     OW 5404   0.089   4.958   2.522
 1695SOL    HW1 5405   0.086   4.905   2.607
 1695SOL    HW2 5406   0.155   4.916   2.459
 1696SOL     OW 5407   0.667   5.144   3.481
 1696SOL    HW1 5408   0.599   5.092   3.533
 1696SOL    HW2 5409   0.679   5.234   3.523
 1697SOL     OW 5410   1.803   3.906   3.087
 1697SOL    HW1 5411   1.810   3.809   3.111
 1697SOL    HW2 5412   1.820   3.917   2.989
 1698SOL     OW 5413   0.432   4.147   2.387
 1698SOL    HW1 5414   0.464   4.078   2.322
 1698SOL    HW2 5415   0.375   4.103   2.457
 1699SOL     OW 5416   1.688   5.201   2.952
 1699SOL    HW1 5417   1.609   5.185   2.893
 1699SOL    HW2 5418   1.691   5.130   3.023
 1700SOL     OW 5419   0.821   5.317   2.533
 1700SOL    HW1 5420   0.850   5.374   2.456
 1700SOL    HW2 5421   0.741   5.263   2.507
 1701SOL     OW 5422   1.425   3.950   2.982
 1701SOL    HW1 5423   1.435   3.856   3.014
 1701SOL    HW2 5424   1.374   4.004   3.049
 1702SOL     OW 5425   1.011   3.740   2.991
 1702SOL    HW1 5426   0.944   3.679   2.949
 1702SOL    HW2 5427   1.101   3.696   2.991
 1703SOL     OW 5428   0.752   5.043   2.223
 1703SOL    HW1 5429   0.736   4.944   2.227
 1703SOL    HW2 5430   0.798   5.066   2.137
 1704SOL     OW 5431   0.604   5.303   3.150
 1704SOL    HW1 5432   0.604   5.394   3.191
 1704SOL    HW2 5433   0.696   5.282   3.116
 1705SOL     OW 5434   1.364   3.760   2.039
 1705SOL    HW1 5435   1.410   3.687   1.987
 1705SOL    HW2 5436   1.270   3.733   2.057
 1706SOL     OW 5437   1.301   4.187   2.546
 1706SOL    HW1 5438   1.249   4.272   2.538
 1706SOL    HW2 5439   1.282   4.145   2.636
 1707SOL     OW 5440   1.581   3.926   2.757
 1707SOL    HW1 5441   1.527   3.936   2.841
 1707SOL    HW2 5442   1.566   4.007   2.699
 1708SOL     OW 5443   0.036   4.783   2.175
 1708SOL    HW1 5444   0.134   4.784   2.154
 1708SOL    HW2 5445   0.007   4.689   2.193
 1709SOL     OW 5446   0.888   5.396   2.215
 1709SOL    HW1 5447   0.820   5.365   2.149
 1709SOL    HW2 5448   0.855   5.477   2.262
 1710SOL     OW 5449   0.219   4.348   3.852
 1710SOL    HW1 5450   0.126   4.339   3.887
 1710SOL    HW2 5451   0.221   4.321   3.755
 1711SOL     OW 5452   0.209   4.019   4.728
 1711SOL    HW1 5453   0.243   3.980   4.814
 1711SOL    HW2 5454   0.122   3.976   4.705
 1712SOL     OW 5455   5.584   4.112   4.360
 1712SOL    HW1 5456   5.503   4.145   4.407
 1712SOL    HW2 5457   5.561   4.033   4.304
 1713SOL     OW 5458   0.565   5.031   4.913
 1713SOL    HW1 5459   0.479   5.040   4.862
 1713SOL    HW2 5460   0.589   5.119   4.953
 1714SOL     OW 5461   1.571   5.243   4.431
 1714SOL    HW1 5462   1.527   5.219   4.518
 1714SOL    HW2 5463   1.501   5.252   4.360
 1715SOL     OW 5464   1.135   4.431   4.415
 1715SOL    HW1 5465   1.186   4.515   4.398
 1715SOL    HW2 5466   1.084   4.439   4.500
 1716SOL     OW 5467   1.781   4.317   3.945
 1716SOL    HW1 5468   1.751   4.316   3.849
 1716SOL    HW2 5469   1.742   4.239   3.993
 1717SOL     OW 5470   0.725   4.859   4.765
 1717SOL    HW1 5471   0.661   4.898   4.831
 1717SOL    HW2 5472   0.776   4.932   4.721
 1718SOL     OW 5473   0.881   4.475   5.549
 1718SOL    HW1 5474   0.872   4.540   5.625
 1718SOL    HW2 5475   0.904   4.525   5.465
 1719SOL     OW 5476   0.685   4.720   4.370
 1719SOL    HW1 5477   0.757   4.712   4.439
 1719SOL    HW2 5478   0.613   4.780   4.404
 1720SOL     OW 5479   0.711   4.876   5.551
 1720SOL    HW1 5480   0.764   4.952   5.588
 1720SOL    HW2 5481   0.629   4.910   5.507
 1721SOL     OW 5482   0.335   5.137   4.787
 1721SOL    HW1 5483   0.256   5.095   4.743
 1721SOL    HW2 5484   0.382   5.197   4.721
 1722SOL     OW 5485   1.457   5.230   5.087
 1722SOL    HW1 5486   1.515   5.311   5.095
 1722SOL    HW2 5487   1.384   5.236   5.155
 1723SOL     OW 5488   0.455   4.105   5.181
 1723SOL    HW1 5489   0.538   4.053   5.202
 1723SOL    HW2 5490   0.376   4.061   5.223
 1724SOL     OW 5491   1.604   4.169   4.476
 1724SOL    HW1 5492   1.541   4.185   4.400
 1724SOL    HW2 5493   1.585   4.233   4.550
 1725SOL     OW 5494   0.223   5.443   4.195
 1725SOL    HW1 5495   0.240   5.520   4.256
 1725SOL    HW2 5496   0.299   5.434   4.130
 1726SOL     OW 5497   1.136   5.064   5.426
 1726SOL    HW1 5498   1.186   5.061   5.513
 1726SOL    HW2 5499   1.080   4.982   5.417
 1727SOL     OW 5500   0.234   5.170   4.253
 1727SOL    HW1 5501   0.219   5.269   4.255
 1727SOL    HW2 5502   0.176   5.126   4.322
 1728SOL     OW 5503   0.279   4.817   4.618
 1728SOL    HW1 5504   0.265   4.720   4.638
 1728SOL    HW2 5505   0.214   4.871   4.672
 1729SOL     OW 5506   0.590   5.522   5.148
 1729SOL    HW1 5507   0.507   5.500   5.201
 1729SOL    HW2 5508   0.625   5.611   5.178
 1730SOL     OW 5509   0.575   4.715   3.875
 1730SOL    HW1 5510   0.626   4.754   3.798
 1730SOL    HW2 5511   0.618   4.743   3.961
 1731SOL     OW 5512   1.595   3.853   5.192
 1731SOL    HW1 5513   1.626   3.931   5.138
 1731SOL    HW2 5514   1.578   3.882   5.286
 1732SOL     OW 5515   0.116   4.382   4.287
 1732SOL    HW1 5516   0.082   4.289   4.301
 1732SOL    HW2 5517   0.107   4.434   4.373
 1733SOL     OW 5518   1.852   5.476   4.055
 1733SOL    HW1 5519   1.925   5.449   4.118
 1733SOL    HW2 5520   1.863   5.573   4.032
 1734SOL     OW 5521   0.033   5.307   3.841
 1734SOL    HW1 5522   0.013   5.211   3.860
 1734SOL    HW2 5523   0.010   5.363   3.920
 1735SOL     OW 5524   1.696   4.642   4.360
 1735SOL    HW1 5525   1.760   4.583   4.311
 1735SOL    HW2 5526   1.661   4.712   4.297
 1736SOL     OW 5527   1.653   4.834   4.156
 1736SOL    HW1 5528   1.743   4.824   4.113
 1736SOL    HW2 5529   1.658   4.903   4.228
 1737SOL     OW 5530   0.140   4.476   5.297
 1737SOL    HW1 5531   0.236   4.493   5.315
 1737SOL    HW2 5532   0.085   4.552   5.331
 1738SOL     OW 5533   0.617   5.121   4.454
 1738SOL    HW1 5534   0.572   5.032   4.466
 1738SOL    HW2 5535   0.604   5.152   4.360
 1739SOL     OW 5536   1.284   4.954   5.145
 1739SOL    HW1 5537   1.312   4.883   5.080
 1739SOL    HW2 5538   1.345   4.951   5.224
 1740SOL     OW 5539   0.822   3.741   4.237
 1740SOL    HW1 5540   0.869   3.825   4.211
 1740SOL    HW2 5541   0.724   3.756   4.240
 1741SOL     OW 5542   1.534   4.732   3.929
 1741SOL    HW1 5543   1.461   4.670   3.958
 1741SOL    HW2 5544   1.579   4.770   4.009
 1742SOL     OW 5545   1.176   5.547   5.344
 1742SOL    HW1 5546   1.191   5.615   5.272
 1742SOL    HW2 5547   1.200   5.456   5.309
 1743SOL     OW 5548   0.349   3.987   5.525
 1743SOL    HW1 5549   0.404   4.048   5.582
 1743SOL    HW2 5550   0.256   3.982   5.562
 1744SOL     OW 5551   1.466   5.144   4.666
 1744SOL    HW1 5552   1.401   5.165   4.739
 1744SOL    HW2 5553   1.456   5.048   4.640
 1745SOL     OW 5554   1.643   5.490   4.297
 1745SOL    HW1 5555   1.627   5.455   4.205
 1745SOL    HW2 5556   1.629   5.416   4.363
 1746SOL     OW 5557   0.595   4.446   4.006
 1746SOL    HW1 5558   0.596   4.531   3.955
 1746SOL    HW2 5559   0.524   4.449   4.076
 1747SOL     OW 5560   1.278   4.098   4.660
 1747SOL    HW1 5561   1.185   4.062   4.664
 1747SOL    HW2 5562   1.337   4.044   4.720
 1748SOL     OW 5563   1.586   5.399   4.034
 1748SOL    HW1 5564   1.683   5.422   4.031
 1748SOL    HW2 5565   1.553   5.382   3.941
 1749SOL     OW 5566   0.779   4.341   5.165
 1749SOL    HW1 5567   0.761   4.315   5.260
 1749SOL    HW2 5568   0.754   4.266   5.104
 1750SOL     OW 5569   1.389   4.193   5.407
 1750SOL    HW1 5570   1.389   4.243   5.494
 1750SOL    HW2 5571   1.447   4.112   5.415
 1751SOL     OW 5572   0.949   4.607   5.312
 1751SOL    HW1 5573   1.009   4.538   5.270
 1751SOL    HW2 5574   0.895   4.651   5.241
 1752SOL     OW 5575   0.998   4.123   4.941
 1752SOL    HW1 5576   0.904   4.140   4.970
 1752SOL    HW2 5577   0.997   4.073   4.854
 1753SOL     OW 5578   1.052   4.424   4.146
 1753SOL    HW1 5579   1.076   4.421   4.243
 1753SOL    HW2 5580   0.965   4.377   4.131
 1754SOL     OW 5581   0.089   4.536   4.510
 1754SOL    HW1 5582   0.176   4.537   4.560
 1754SOL    HW2 5583   0.034   4.614   4.539
 1755SOL     OW 5584   0.125   5.604   5.321
 1755SOL    HW1 5585   0.134   5.574   5.416
 1755SOL    HW2 5586   0.033   5.584   5.288
 1756SOL     OW 5587   0.893   4.078   3.926
 1756SOL    HW1 5588   0.940   4.142   3.864
 1756SOL    HW2 5589   0.876   3.992   3.877
 1757SOL     OW 5590   1.694   4.294   5.555
 1757SOL    HW1 5591   1.663   4.375   5.505
 1757SOL    HW2 5592   1.724   4.224   5.490
 1758SOL     OW 5593   1.382   4.868   4.251
 1758SOL    HW1 5594   1.468   4.858   4.201
 1758SOL    HW2 5595   1.326   4.938   4.207
 1759SOL     OW 5596   0.544   3.887   4.634
 1759SOL    HW1 5597   0.549   3.919   4.728
 1759SOL    HW2 5598   0.551   3.965   4.572
 1760SOL     OW 5599   0.991   5.172   4.185
 1760SOL    HW1 5600   0.964   5.254   4.135
 1760SOL    HW2 5601   0.972   5.185   4.283
 1761SOL     OW 5602   0.352   5.542   4.600
 1761SOL    HW1 5603   0.398   5.453   4.606
 1761SOL    HW2 5604   0.417   5.615   4.623
 1762SOL     OW 5605   1.802   4.767   4.591
 1762SOL    HW1 5606   1.750   4.738   4.511
 1762SOL    HW2 5607   1.740   4.780   4.668
 1763SOL     OW 5608   1.225   5.262   5.241
 1763SOL    HW1 5609   1.213   5.188   5.307
 1763SOL    HW2 5610   1.152   5.258   5.173
 1764SOL     OW 5611   0.314   4.685   3.984
 1764SOL    HW1 5612   0.403   4.703   3.942
 1764SOL    HW2 5613   0.280   4.597   3.951
 1765SOL     OW 5614   1.484   4.482   4.442
 1765SOL    HW1 5615   1.482   4.435   4.530
 1765SOL    HW2 5616   1.567   4.538   4.435
 1766SOL     OW 5617   0.474   4.991   5.454
 1766SOL    HW1 5618   0.447   4.998   5.358
 1766SOL    HW2 5619   0.391   4.989   5.511
 1767SOL     OW 5620   1.124   5.505   3.943
 1767SOL    HW1 5621   1.045   5.470   3.992
 1767SOL    HW2 5622   1.154   5.437   3.876
 1768SOL     OW 5623   0.198   4.001   5.234
 1768SOL    HW1 5624   0.112   4.049   5.248
 1768SOL    HW2 5625   0.198   3.916   5.287
 1769SOL     OW 5626   1.622   5.108   3.815
 1769SOL    HW1 5627   1.585   5.200   3.799
 1769SOL    HW2 5628   1.552   5.040   3.793
 1770SOL     OW 5629   0.460   5.463   4.041
 1770SOL    HW1 5630   0.503   5.525   4.107
 1770SOL    HW2 5631   0.531   5.425   3.981
 1771SOL     OW 5632   1.398   3.826   4.168
 1771SOL    HW1 5633   1.389   3.800   4.072
 1771SOL    HW2 5634   1.495   3.826   4.193
 1772SOL     OW 5635   0.255   5.518   4.948
 1772SOL    HW1 5636   0.307   5.444   4.990
 1772SOL    HW2 5637   0.237   5.496   4.852
 1773SOL     OW 5638   0.939   5.432   4.619
 1773SOL    HW1 5639   1.023   5.390   4.652
 1773SOL    HW2 5640   0.901   5.376   4.545
 1774SOL     OW 5641   0.395   4.409   4.199
 1774SOL    HW1 5642   0.416   4.312   4.212
 1774SOL    HW2 5643   0.297   4.424   4.213
 1775SOL     OW 5644   1.523   3.947   5.454
 1775SOL    HW1 5645   1.534   3.967   5.551
 1775SOL    HW2 5646   1.454   3.874   5.443
 1776SOL     OW 5647   0.652   3.832   3.825
 1776SOL    HW1 5648   0.716   3.759   3.849
 1776SOL    HW2 5649   0.590   3.801   3.753
 1777SOL     OW 5650   0.762   4.001   5.471
 1777SOL    HW1 5651   0.850   3.952   5.468
 1777SOL    HW2 5652   0.710   3.970   5.550
 1778SOL     OW 5653   0.870   5.232   4.917
 1778SOL    HW1 5654   0.852   5.194   4.827
 1778SOL    HW2 5655   0.944   5.182   4.961
 1779SOL     OW 5656   1.337   4.314   5.164
 1779SOL    HW1 5657   1.367   4.279   5.253
 1779SOL    HW2 5658   1.374   4.405   5.150
 1780SOL     OW 5659   0.822   5.101   4.669
 1780SOL    HW1 5660   0.914   5.095   4.629
 1780SOL    HW2 5661   0.755   5.117   4.596
 1781SOL     OW 5662   0.924   4.231   4.617
 1781SOL    HW1 5663   0.899   4.223   4.520
 1781SOL    HW2 5664   0.956   4.143   4.651
 1782SOL     OW 5665   0.551   3.789   4.214
 1782SOL    HW1 5666   0.469   3.787   4.271
 1782SOL    HW2 5667   0.546   3.867   4.152
 1783SOL     OW 5668   1.425   4.925   3.764
 1783SOL    HW1 5669   1.460   4.849   3.818
 1783SOL    HW2 5670   1.338   4.955   3.802
 1784SOL     OW 5671   0.285   3.776   3.910
 1784SOL    HW1 5672   0.331   3.845   3.855
 1784SOL    HW2 5673   0.353   3.715   3.950
 1785SOL     OW 5674   0.953   3.978   4.177
 1785SOL    HW1 5675   0.922   4.016   4.090
 1785SOL    HW2 5676   1.051   3.991   4.187
 1786SOL     OW 5677   1.079   4.411   5.174
 1786SOL    HW1 5678   1.009   4.340   5.184
 1786SOL    HW2 5679   1.169   4.368   5.174
 1787SOL     OW 5680   1.218   5.297   4.516
 1787SOL    HW1 5681   1.230   5.367   4.446
 1787SOL    HW2 5682   1.285   5.311   4.589
 1788SOL     OW 5683   0.475   4.881   4.443
 1788SOL    HW1 5684   0.411   4.862   4.517
 1788SOL    HW2 5685   0.427   4.872   4.355
 1789SOL     OW 5686   1.258   5.517   4.335
 1789SOL    HW1 5687   1.314   5.581   4.281
 1789SOL    HW2 5688   1.185   5.567   4.381
 1790SOL     OW 5689   1.026   4.252   3.759
 1790SOL    HW1 5690   0.981   4.338   3.735
 1790SOL    HW2 5691   1.094   4.268   3.830
 1791SOL     OW 5692   0.088   4.281   5.114
 1791SOL    HW1 5693   0.184   4.260   5.093
 1791SOL    HW2 5694   0.085   4.350   5.187
 1792SOL     OW 5695   0.551   3.948   4.904
 1792SOL    HW1 5696   0.604   3.884   4.961
 1792SOL    HW2 5697   0.456   3.947   4.934
 1793SOL     OW 5698   0.866   4.182   4.355
 1793SOL    HW1 5699   0.821   4.243   4.290
 1793SOL    HW2 5700   0.897   4.099   4.307
 1794SOL     OW 5701   1.013   3.779   4.466
 1794SOL    HW1 5702   0.953   3.778   4.387
 1794SOL    HW2 5703   0.992   3.702   4.526
 1795SOL     OW 5704   1.450   4.882   4.583
 1795SOL    HW1 5705   1.372   4.819   4.584
 1795SOL    HW2 5706   1.481   4.896   4.489
 1796SOL     OW 5707   1.470   4.330   4.681
 1796SOL    HW1 5708   1.401   4.258   4.685
 1796SOL    HW2 5709   1.527   4.327   4.763
 1797SOL     OW 5710   1.839   4.524   4.115
 1797SOL    HW1 5711   1.898   4.474   4.178
 1797SOL    HW2 5712   1.813   4.464   4.040
 1798SOL     OW 5713   0.485   5.148   3.879
 1798SOL    HW1 5714   0.401   5.124   3.928
 1798SOL    HW2 5715   0.498   5.084   3.803
 1799SOL     OW 5716   1.674   4.994   4.368
 1799SOL    HW1 5717   1.773   4.989   4.379
 1799SOL    HW2 5718   1.643   5.087   4.388
 1800SOL     OW 5719   1.389   4.300   3.793
 1800SOL    HW1 5720   1.327   4.275   3.868
 1800SOL    HW2 5721   1.482   4.273   3.817
 1801SOL     OW 5722   0.530   3.985   4.028
 1801SOL    HW1 5723   0.579   3.935   3.956
 1801SOL    HW2 5724   0.499   4.073   3.991
 1802SOL     OW 5725   1.750   4.966   5.268
 1802SOL    HW1 5726   1.840   4.925   5.251
 1802SOL    HW2 5727   1.762   5.059   5.304
 1803SOL     OW 5728   1.050   5.070   5.058
 1803SOL    HW1 5729   0.969   5.043   5.110
 1803SOL    HW2 5730   1.132   5.032   5.102
 1804SOL     OW 5731   1.613   5.355   5.385
 1804SOL    HW1 5732   1.597   5.394   5.295
 1804SOL    HW2 5733   1.698   5.302   5.384
 1805SOL     OW 5734   1.143   4.950   4.828
 1805SOL    HW1 5735   1.085   4.986   4.901
 1805SOL    HW2 5736   1.112   4.986   4.740
 1806SOL     OW 5737   1.625   4.821   4.800
 1806SOL    HW1 5738   1.621   4.887   4.875
 1806SOL    HW2 5739   1.551   4.841   4.734
 1807SOL     OW 5740   0.928   3.811   5.110
 1807SOL    HW1 5741   0.949   3.790   5.015
 1807SOL    HW2 5742   1.006   3.857   5.152
 1808SOL     OW 5743   0.977   4.839   5.448
 1808SOL    HW1 5744   0.884   4.858   5.479
 1808SOL    HW2 5745   0.978   4.755   5.394
 1809SOL     OW 5746   0.718   4.785   4.099
 1809SOL    HW1 5747   0.701   4.764   4.195
 1809SOL    HW2 5748   0.796   4.731   4.066
 1810SOL     OW 5749   0.392   4.537   5.002
 1810SOL    HW1 5750   0.468   4.570   5.058
 1810SOL    HW2 5751   0.385   4.438   5.011
 1811SOL     OW 5752   1.263   4.100   5.009
 1811SOL    HW1 5753   1.297   4.180   5.059
 1811SOL    HW2 5754   1.168   4.116   4.981
 1812SOL     OW 5755   0.073   5.294   5.073
 1812SOL    HW1 5756   0.035   5.369   5.019
 1812SOL    HW2 5757   0.173   5.297   5.069
 1813SOL     OW 5758   0.327   4.852   4.211
 1813SOL    HW1 5759   0.330   4.936   4.155
 1813SOL    HW2 5760   0.327   4.772   4.151
 1814SOL     OW 5761   0.546   4.263   4.583
 1814SOL    HW1 5762   0.557   4.323   4.504
 1814SOL    HW2 5763   0.617   4.284   4.651
 1815SOL     OW 5764   1.245   5.084   4.120
 1815SOL    HW1 5765   1.306   5.156   4.152
 1815SOL    HW2 5766   1.152   5.104   4.149
 1816SOL     OW 5767   1.297   5.189   4.872
 1816SOL    HW1 5768   1.353   5.200   4.954
 1816SOL    HW2 5769   1.244   5.104   4.879
 1817SOL     OW 5770   1.571   4.340   4.214
 1817SOL    HW1 5771   1.521   4.386   4.286
 1817SOL    HW2 5772   1.606   4.408   4.149
 1818SOL     OW 5773   0.348   5.256   5.029
 1818SOL    HW1 5774   0.334   5.208   4.942
 1818SOL    HW2 5775   0.446   5.272   5.042
 1819SOL     OW 5776   0.424   4.470   5.330
 1819SOL    HW1 5777   0.492   4.513   5.270
 1819SOL    HW2 5778   0.462   4.385   5.367
 1820SOL     OW 5779   1.615   4.512   5.415
 1820SOL    HW1 5780   1.524   4.552   5.413
 1820SOL    HW2 5781   1.671   4.553   5.343
 1821SOL     OW 5782   1.005   3.857   5.468
 1821SOL    HW1 5783   1.058   3.942   5.456
 1821SOL    HW2 5784   1.057   3.780   5.430
 1822SOL     OW 5785   0.498   3.752   5.466
 1822SOL    HW1 5786   0.443   3.692   5.409
 1822SOL    HW2 5787   0.446   3.833   5.491
 1823SOL     OW 5788   0.577   4.609   4.764
 1823SOL    HW1 5789   0.625   4.695   4.752
 1823SOL    HW2 5790   0.541   4.603   4.857
 1824SOL     OW 5791   1.340   4.577   4.739
 1824SOL    HW1 5792   1.247   4.563   4.705
 1824SOL    HW2 5793   1.393   4.493   4.727
 1825SOL     OW 5794   1.196   4.250   3.986
 1825SOL    HW1 5795   1.209   4.167   4.041
 1825SOL    HW2 5796   1.152   4.320   4.042
 1826SOL     OW 5797   0.284   3.917   4.976
 1826SOL    HW1 5798   0.254   3.959   5.062
 1826SOL    HW2 5799   0.263   3.820   4.977
 1827SOL     OW 5800   0.069   5.029   5.009
 1827SOL    HW1 5801   0.081   4.976   5.094
 1827SOL    HW2 5802   0.061   5.126   5.032
 1828SOL     OW 5803   0.722   4.355   4.771
 1828SOL    HW1 5804   0.801   4.332   4.714
 1828SOL    HW2 5805   0.693   4.449   4.751
 1829SOL     OW 5806   1.741   4.688  -0.006
 1829SOL    HW1 5807   1.698   4.617  -0.062
 1829SOL    HW2 5808   1.681   4.710   0.071
 1830SOL     OW 5809   0.313   3.782   4.355
 1830SOL    HW1 5810   0.282   3.876   4.370
 1830SOL    HW2 5811   0.322   3.735   4.443
 1831SOL     OW 5812   1.634   4.110   4.079
 1831SOL    HW1 5813   1.662   4.034   4.138
 1831SOL    HW2 5814   1.602   4.186   4.136
 1832SOL     OW 5815   1.023   4.478   4.680
 1832SOL    HW1 5816   1.013   4.499   4.777
 1832SOL    HW2 5817   0.996   4.384   4.662
 1833SOL     OW 5818   0.985   5.291   5.451
 1833SOL    HW1 5819   0.966   5.337   5.364
 1833SOL    HW2 5820   1.029   5.203   5.432
 1834SOL     OW 5821   1.851   5.223   5.323
 1834SOL    HW1 5822   1.872   5.251   5.230
 1834SOL    HW2 5823   1.931   5.234   5.381
 1835SOL     OW 5824   0.352   4.649   5.529
 1835SOL    HW1 5825   0.424   4.668   5.596
 1835SOL    HW2 5826   0.385   4.582   5.462
 1836SOL     OW 5827   1.523   3.993   3.852
 1836SOL    HW1 5828   1.459   3.921   3.880
 1836SOL    HW2 5829   1.563   4.036   3.933
 1837SOL     OW 5830   1.285   4.549   3.746
 1837SOL    HW1 5831   1.324   4.457   3.755
 1837SOL    HW2 5832   1.318   4.590   3.661
 1838SOL     OW 5833   1.075   5.067   4.583
 1838SOL    HW1 5834   1.082   4.988   4.521
 1838SOL    HW2 5835   1.131   5.142   4.547
 1839SOL     OW 5836   0.309   4.531   4.688
 1839SOL    HW1 5837   0.402   4.567   4.685
 1839SOL    HW2 5838   0.312   4.431   4.683
 1840SOL     OW 5839   0.325   4.258   4.726
 1840SOL    HW1 5840   0.281   4.168   4.721
 1840SOL    HW2 5841   0.407   4.258   4.670
 1841SOL     OW 5842   1.133   4.095   5.421
 1841SOL    HW1 5843   1.082   4.149   5.488
 1841SOL    HW2 5844   1.226   4.133   5.412
 1842SOL     OW 5845   1.161   3.928   5.200
 1842SOL    HW1 5846   1.146   3.989   5.278
 1842SOL    HW2 5847   1.206   3.978   5.126
 1843SOL     OW 5848   5.591   5.033   3.913
 1843SOL    HW1 5849   5.500   5.054   3.876
 1843SOL    HW2 5850   5.590   4.940   3.950
 1844SOL     OW 5851   0.089   5.503   4.672
 1844SOL    HW1 5852   0.050   5.424   4.625
 1844SOL    HW2 5853   0.181   5.521   4.638
 1845SOL     OW 5854   0.490   5.301   4.625
 1845SOL    HW1 5855   0.559   5.368   4.651
 1845SOL    HW2 5856   0.530   5.234   4.562
 1846SOL     OW 5857   0.963   4.514   4.945
 1846SOL    HW1 5858   1.028   4.493   5.019
 1846SOL    HW2 5859   0.875   4.471   4.965
 1847SOL     OW 5860   0.054   4.334   4.852
 1847SOL    HW1 5861   0.092   4.269   4.786
 1847SOL    HW2 5862   0.059   4.295   4.944
 1848SOL     OW 5863   0.179   4.255   5.467
 1848SOL    HW1 5864   0.238   4.194   5.415
 1848SOL    HW2 5865   0.150   4.331   5.408
 1849SOL     OW 5866   1.384   4.653   5.378
 1849SOL    HW1 5867   1.407   4.750   5.379
 1849SOL    HW2 5868   1.379   4.621   5.283
 1850SOL     OW 5869   0.817   4.298   4.090
 1850SOL    HW1 5870   0.827   4.218   4.031
 1850SOL    HW2 5871   0.739   4.353   4.061
 1851SOL     OW 5872   1.635   4.329   4.899
 1851SOL    HW1 5873   1.618   4.271   4.979
 1851SOL    HW2 5874   1.728   4.315   4.866
 1852SOL     OW 5875   0.231   5.266   5.446
 1852SOL    HW1 5876   0.213   5.345   5.504
 1852SOL    HW2 5877   0.243   5.185   5.502
 1853SOL     OW 5878   0.721   4.166   4.966
 1853SOL    HW1 5879   0.655   4.092   4.948
 1853SOL    HW2 5880   0.713   4.235   4.894
 1854SOL     OW 5881   0.918   5.405   5.203
 1854SOL    HW1 5882   0.885   5.358   5.122
 1854SOL    HW2 5883   0.923   5.504   5.186
 1855SOL     OW 5884   0.455   4.222   3.925
 1855SOL    HW1 5885   0.519   4.297   3.945
 1855SOL    HW2 5886   0.366   4.261   3.901
 1856SOL     OW 5887   0.136   4.865   5.225
 1856SOL    HW1 5888   0.126   4.827   5.317
 1856SOL    HW2 5889   0.191   4.803   5.169
 1857SOL     OW 5890   1.309   4.762   4.938
 1857SOL    HW1 5891   1.334   4.695   4.868
 1857SOL    HW2 5892   1.247   4.830   4.899
 1858SOL     OW 5893   1.323   4.580   4.018
 1858SOL    HW1 5894   1.247   4.552   4.077
 1858SOL    HW2 5895   1.296   4.567   3.922
 1859SOL     OW 5896   1.764   5.447   4.873
 1859SOL    HW1 5897   1.833   5.483   4.810
 1859SOL    HW2 5898   1.744   5.352   4.850
 1860SOL     OW 5899   1.239   5.453   4.811
 1860SOL    HW1 5900   1.327   5.489   4.779
 1860SOL    HW2 5901   1.250   5.359   4.842
 1861SOL     OW 5902   0.096   4.963   4.751
 1861SOL    HW1 5903   0.087   4.990   4.847
 1861SOL    HW2 5904   0.006   4.945   4.713
 1862SOL     OW 5905   0.682   5.402   5.471
 1862SOL    HW1 5906   0.618   5.478   5.469
 1862SOL    HW2 5907   0.759   5.422   5.410
 1863SOL     OW 5908   1.732   3.888   4.220
 1863SOL    HW1 5909   1.802   3.874   4.150
 1863SOL    HW2 5910   1.708   3.800   4.261
 1864SOL     OW 5911   1.397   5.298   4.214
 1864SOL    HW1 5912   1.460   5.331   4.144
 1864SOL    HW2 5913   1.342   5.375   4.248
 1865SOL     OW 5914   0.155   5.502  -0.020
 1865SOL    HW1 5915   0.096   5.436   0.027
 1865SOL    HW2 5916   0.202   5.559   0.047
 1866SOL     OW 5917   1.282   4.658   4.387
 1866SOL    HW1 5918   1.357   4.594   4.405
 1866SOL    HW2 5919   1.315   4.733   4.330
 1867SOL     OW 5920   0.798   5.006   5.150
 1867SOL    HW1 5921   0.771   5.051   5.236
 1867SOL    HW2 5922   0.729   5.025   5.080
 1868SOL     OW 5923   0.663   5.353   3.879
 1868SOL    HW1 5924   0.683   5.371   3.782
 1868SOL    HW2 5925   0.606   5.271   3.887
 1869SOL     OW 5926   1.614   5.456   5.111
 1869SOL    HW1 5927   1.669   5.456   5.028
 1869SOL    HW2 5928   1.601   5.550   5.143
 1870SOL     OW 5929   1.841   3.887   4.684
 1870SOL    HW1 5930   1.875   3.795   4.666
 1870SOL    HW2 5931   1.749   3.897   4.646
 1871SOL     OW 5932   0.245   4.033   4.438
 1871SOL    HW1 5933   0.157   4.069   4.408
 1871SOL    HW2 5934   0.248   4.031   4.538
 1872SOL     OW 5935   1.208   5.318   3.759
 1872SOL    HW1 5936   1.200   5.225   3.794
 1872SOL    HW2 5937   1.138   5.334   3.690
 1873SOL     OW 5938   0.823   4.737   5.106
 1873SOL    HW1 5939   0.879   4.721   5.025
 1873SOL    HW2 5940   0.818   4.835   5.125
 1874SOL     OW 5941   0.924   4.637   4.009
 1874SOL    HW1 5942   0.986   4.674   3.939
 1874SOL    HW2 5943   0.971   4.565   4.060
 1875SOL     OW 5944   1.487   5.360   3.769
 1875SOL    HW1 5945   1.389   5.345   3.757
 1875SOL    HW2 5946   1.531   5.365   3.680
 1876SOL     OW 5947   0.364   5.029   5.210
 1876SOL    HW1 5948   0.358   5.111   5.153
 1876SOL    HW2 5949   0.273   4.988   5.219
 1877SOL     OW 5950   1.612   5.012   5.008
 1877SOL    HW1 5951   1.672   4.989   5.085
 1877SOL    HW2 5952   1.547   5.082   5.037
 1878SOL     OW 5953   1.071   4.833   4.447
 1878SOL    HW1 5954   0.992   4.783   4.483
 1878SOL    HW2 5955   1.140   4.768   4.416
 1879SOL     OW 5956   1.025   3.966   4.690
 1879SOL    HW1 5957   1.021   3.924   4.599
 1879SOL    HW2 5958   1.023   3.894   4.759
 1880SOL     OW 5959   0.606   5.209   4.199
 1880SOL    HW1 5960   0.660   5.156   4.135
 1880SOL    HW2 5961   0.528   5.250   4.152
 1881SOL     OW 5962   1.737   4.117   5.105
 1881SOL    HW1 5963   1.810   4.185   5.106
 1881SOL    HW2 5964   1.762   4.042   5.042
 1882SOL     OW 5965   0.248   5.074   4.006
 1882SOL    HW1 5966   0.153   5.063   3.978
 1882SOL    HW2 5967   0.253   5.115   4.096
 1883SOL     OW 5968   0.105   4.749   5.462
 1883SOL    HW1 5969   0.026   4.727   5.519
 1883SOL    HW2 5970   0.188   4.711   5.504
 1884SOL     OW 5971   0.688   3.913   5.217
 1884SOL    HW1 5972   0.776   3.886   5.177
 1884SOL    HW2 5973   0.702   3.947   5.310
 1885SOL     OW 5974   0.081   4.054   3.742
 1885SOL    HW1 5975  -0.006   4.035   3.698
 1885SOL    HW2 5976   0.125   4.133   3.698
 1886SOL     OW 5977   1.419   4.578   5.116
 1886SOL    HW1 5978   1.362   4.641   5.062
 1886SOL    HW2 5979   1.513   4.582   5.083
 1887SOL     OW 5980   0.053   3.878   4.014
 1887SOL    HW1 5981   0.035   3.958   3.958
 1887SOL    HW2 5982   0.143   3.841   3.991
 1888SOL     OW 5983   1.186   5.054   3.851
 1888SOL    HW1 5984   1.097   5.008   3.846
 1888SOL    HW2 5985   1.214   5.062   3.946
 1889SOL     OW 5986   0.619   4.561   5.150
 1889SOL    HW1 5987   0.680   4.640   5.142
 1889SOL    HW2 5988   0.674   4.478   5.158
 1890SOL     OW 5989   1.493   5.522   4.718
 1890SOL    HW1 5990   1.513   5.594   4.652
 1890SOL    HW2 5991   1.577   5.494   4.765
 1891SOL     OW 5992   0.724   4.279   5.420
 1891SOL    HW1 5993   0.770   4.342   5.482
 1891SOL    HW2 5994   0.736   4.185   5.452
 1892SOL     OW 5995   1.474   4.914   5.358
 1892SOL    HW1 5996   1.459   4.930   5.456
 1892SOL    HW2 5997   1.568   4.937   5.335
 1893SOL     OW 5998   0.364   5.466   5.295
 1893SOL    HW1 5999   0.282   5.521   5.283
 1893SOL    HW2 6000   0.340   5.377   5.335
 1894SOL     OW 6001   1.661   4.603   4.977
 1894SOL    HW1 6002   1.654   4.512   4.935
 1894SOL    HW2 6003   1.650   4.673   4.906
 1895SOL     OW 6004   1.223   4.042   4.183
 1895SOL    HW1 6005   1.284   3.964   4.176
 1895SOL    HW2 6006   1.249   4.098   4.261
 1896SOL     OW 6007   0.576   4.464   4.398
 1896SOL    HW1 6008   0.622   4.551   4.384
 1896SOL    HW2 6009   0.512   4.447   4.324
 1897SOL     OW 6010   1.746   4.089   5.379
 1897SOL    HW1 6011   1.738   4.106   5.280
 1897SOL    HW2 6012   1.670   4.031   5.409
 1898SOL     OW 6013   1.746   4.657   5.230
 1898SOL    HW1 6014   1.738   4.754   5.252
 1898SOL    HW2 6015   1.723   4.643   5.134
 1899SOL     OW 6016   0.847   5.091   3.768
 1899SOL    HW1 6017   0.823   5.108   3.864
 1899SOL    HW2 6018   0.878   5.176   3.726
 1900SOL     OW 6019   0.665   5.503   4.656
 1900SOL    HW1 6020   0.641   5.599   4.645
 1900SOL    HW2 6021   0.765   5.493   4.650
 1901SOL     OW 6022   0.870   4.696   4.580
 1901SOL    HW1 6023   0.922   4.619   4.615
 1901SOL    HW2 6024   0.825   4.744   4.655
 1902SOL     OW 6025   1.081   4.721   3.807
 1902SOL    HW1 6026   1.050   4.769   3.725
 1902SOL    HW2 6027   1.155   4.658   3.782
 1903SOL     OW 6028   1.834   5.280   4.570
 1903SOL    HW1 6029   1.757   5.272   4.506
 1903SOL    HW2 6030   1.813   5.229   4.653
 1904SOL     OW 6031   0.241   5.023  -0.003
 1904SOL    HW1 6032   0.164   4.963  -0.025
 1904SOL    HW2 6033   0.241   5.042   0.096
 1905SOL     OW 6034   0.092   4.954   4.385
 1905SOL    HW1 6035   0.097   4.906   4.473
 1905SOL    HW2 6036   0.158   4.913   4.322
 1906SOL     OW 6037   0.686   5.140   5.362
 1906SOL    HW1 6038   0.607   5.090   5.397
 1906SOL    HW2 6039   0.687   5.232   5.400
 1907SOL     OW 6040   1.801   3.904   4.954
 1907SOL    HW1 6041   1.815   3.809   4.982
 1907SOL    HW2 6042   1.814   3.912   4.855
 1908SOL     OW 6043   0.431   4.148   4.253
 1908SOL    HW1 6044   0.463   4.083   4.185
 1908SOL    HW2 6045   0.372   4.102   4.319
 1909SOL     OW 6046   1.700   5.192   4.803
 1909SOL    HW1 6047   1.615   5.180   4.753
 1909SOL    HW2 6048   1.703   5.128   4.879
 1910SOL     OW 6049   0.340   4.274   5.006
 1910SOL    HW1 6050   0.393   4.214   5.067
 1910SOL    HW2 6051   0.355   4.247   4.911
 1911SOL     OW 6052   0.834   5.302   4.402
 1911SOL    HW1 6053   0.812   5.369   4.331
 1911SOL    HW2 6054   0.757   5.239   4.414
 1912SOL     OW 6055   1.427   3.958   4.839
 1912SOL    HW1 6056   1.444   3.864   4.868
 1912SOL    HW2 6057   1.376   4.007   4.909
 1913SOL     OW 6058   1.010   3.737   4.852
 1913SOL    HW1 6059   0.950   3.677   4.800
 1913SOL    HW2 6060   1.102   3.697   4.857
 1914SOL     OW 6061   0.780   5.056   4.045
 1914SOL    HW1 6062   0.755   4.960   4.059
 1914SOL    HW2 6063   0.862   5.077   4.098
 1915SOL     OW 6064   0.623   5.284   5.018
 1915SOL    HW1 6065   0.618   5.372   5.066
 1915SOL    HW2 6066   0.714   5.273   4.977
 1916SOL     OW 6067   1.363   3.767   3.901
 1916SOL    HW1 6068   1.410   3.695   3.849
 1916SOL    HW2 6069   1.269   3.740   3.917
 1917SOL     OW 6070   1.290   4.193   4.402
 1917SOL    HW1 6071   1.237   4.278   4.401
 1917SOL    HW2 6072   1.288   4.153   4.494
 1918SOL     OW 6073   1.583   3.922   4.611
 1918SOL    HW1 6074   1.528   3.945   4.691
 1918SOL    HW2 6075   1.586   4.001   4.550
 1919SOL     OW 6076   0.038   4.782   4.033
 1919SOL    HW1 6077   0.136   4.780   4.013
 1919SOL    HW2 6078   0.006   4.689   4.055
 1920SOL     OW 6079   0.886   5.397   4.061
 1920SOL    HW1 6080   0.809   5.376   4.001
 1920SOL    HW2 6081   0.863   5.473   4.121
 1921SOL     OW 6082   2.073   0.617   0.131
 1921SOL    HW1 6083   1.979   0.613   0.166
 1921SOL    HW2 6084   2.073   0.600   0.033
 1922SOL     OW 6085   2.082   0.282   0.996
 1922SOL    HW1 6086   2.116   0.247   1.084
 1922SOL    HW2 6087   1.990   0.247   0.979
 1923SOL     OW 6088   1.860   0.388   0.634
 1923SOL    HW1 6089   1.776   0.416   0.682
 1923SOL    HW2 6090   1.840   0.309   0.577
 1924SOL     OW 6091   2.433   1.306   1.198
 1924SOL    HW1 6092   2.347   1.305   1.147
 1924SOL    HW2 6093   2.453   1.399   1.228
 1925SOL     OW 6094   3.436   1.521   0.702
 1925SOL    HW1 6095   3.389   1.493   0.786
 1925SOL    HW2 6096   3.370   1.528   0.627
 1926SOL     OW 6097   2.999   0.709   0.692
 1926SOL    HW1 6098   3.052   0.792   0.674
 1926SOL    HW2 6099   2.947   0.720   0.776
 1927SOL     OW 6100   3.632   0.594   0.219
 1927SOL    HW1 6101   3.605   0.597   0.123
 1927SOL    HW2 6102   3.598   0.510   0.261
 1928SOL     OW 6103   2.593   1.136   1.047
 1928SOL    HW1 6104   2.531   1.175   1.114
 1928SOL    HW2 6105   2.639   1.210   0.997
 1929SOL     OW 6106   2.743   0.754   1.822
 1929SOL    HW1 6107   2.735   0.823   1.895
 1929SOL    HW2 6108   2.764   0.800   1.735
 1930SOL     OW 6109   2.544   0.993   0.650
 1930SOL    HW1 6110   2.616   0.988   0.719
 1930SOL    HW2 6111   2.471   1.053   0.683
 1931SOL     OW 6112   2.573   1.153   1.826
 1931SOL    HW1 6113   2.628   1.230   1.860
 1931SOL    HW2 6114   2.492   1.188   1.778
 1932SOL     OW 6115   2.191   1.417   1.064
 1932SOL    HW1 6116   2.114   1.372   1.018
 1932SOL    HW2 6117   2.242   1.471   0.997
 1933SOL     OW 6118   3.317   1.501   1.367
 1933SOL    HW1 6119   3.376   1.582   1.371
 1933SOL    HW2 6120   3.243   1.510   1.434
 1934SOL     OW 6121   2.312   0.386   1.474
 1934SOL    HW1 6122   2.394   0.330   1.482
 1934SOL    HW2 6123   2.231   0.330   1.492
 1935SOL     OW 6124   3.470   0.442   0.747
 1935SOL    HW1 6125   3.412   0.464   0.668
 1935SOL    HW2 6126   3.467   0.518   0.813
 1936SOL     OW 6127   2.089   1.716   0.467
 1936SOL    HW1 6128   2.109   1.792   0.528
 1936SOL    HW2 6129   2.165   1.703   0.403
 1937SOL     OW 6130   2.999   1.339   1.700
 1937SOL    HW1 6131   3.048   1.333   1.787
 1937SOL    HW2 6132   2.943   1.257   1.688
 1938SOL     OW 6133   2.096   1.445   0.530
 1938SOL    HW1 6134   2.084   1.544   0.529
 1938SOL    HW2 6135   2.039   1.406   0.602
 1939SOL     OW 6136   2.134   1.090   0.898
 1939SOL    HW1 6137   2.136   0.995   0.930
 1939SOL    HW2 6138   2.073   1.143   0.957
 1940SOL     OW 6139   2.446   1.803   1.420
 1940SOL    HW1 6140   2.366   1.778   1.475
 1940SOL    HW2 6141   2.481   1.892   1.452
 1941SOL     OW 6142   2.438   0.995   0.149
 1941SOL    HW1 6143   2.486   1.039   0.074
 1941SOL    HW2 6144   2.482   1.019   0.236
 1942SOL     OW 6145   3.461   0.120   1.468
 1942SOL    HW1 6146   3.493   0.196   1.411
 1942SOL    HW2 6147   3.439   0.155   1.560
 1943SOL     OW 6148   1.972   0.665   0.566
 1943SOL    HW1 6149   1.948   0.569   0.584
 1943SOL    HW2 6150   1.970   0.716   0.651
 1944SOL     OW 6151   3.704   1.755   0.334
 1944SOL    HW1 6152   3.782   1.727   0.390
 1944SOL    HW2 6153   3.720   1.849   0.301
 1945SOL     OW 6154   1.889   1.590   0.121
 1945SOL    HW1 6155   1.879   1.492   0.138
 1945SOL    HW2 6156   1.873   1.640   0.206
 1946SOL     OW 6157   3.558   0.924   0.643
 1946SOL    HW1 6158   3.636   0.869   0.614
 1946SOL    HW2 6159   3.530   0.985   0.569
 1947SOL     OW 6160   3.513   1.108   0.436
 1947SOL    HW1 6161   3.601   1.104   0.388
 1947SOL    HW2 6162   3.518   1.179   0.506
 1948SOL     OW 6163   1.987   0.746   1.584
 1948SOL    HW1 6164   2.082   0.777   1.581
 1948SOL    HW2 6165   1.926   0.824   1.572
 1949SOL     OW 6166   2.467   1.393   0.734
 1949SOL    HW1 6167   2.426   1.303   0.742
 1949SOL    HW2 6168   2.457   1.427   0.640
 1950SOL     OW 6169   3.143   1.228   1.424
 1950SOL    HW1 6170   3.167   1.159   1.356
 1950SOL    HW2 6171   3.208   1.225   1.499
 1951SOL     OW 6172   2.683   0.013   0.512
 1951SOL    HW1 6173   2.729   0.097   0.484
 1951SOL    HW2 6174   2.584   0.028   0.513
 1952SOL     OW 6175   2.049   0.956   1.287
 1952SOL    HW1 6176   2.140   0.917   1.274
 1952SOL    HW2 6177   1.987   0.918   1.219
 1953SOL     OW 6178   3.391   1.010   0.203
 1953SOL    HW1 6179   3.320   0.948   0.237
 1953SOL    HW2 6180   3.443   1.047   0.280
 1954SOL     OW 6181   3.038   1.813   1.624
 1954SOL    HW1 6182   3.045   1.883   1.553
 1954SOL    HW2 6183   3.059   1.723   1.584
 1955SOL     OW 6184   2.208   0.244   1.856
 1955SOL    HW1 6185   2.257   0.329   1.877
 1955SOL    HW2 6186   2.109   0.261   1.862
 1956SOL     OW 6187   3.321   1.427   0.934
 1956SOL    HW1 6188   3.259   1.443   1.011
 1956SOL    HW2 6189   3.317   1.331   0.908
 1957SOL     OW 6190   3.503   1.770   0.572
 1957SOL    HW1 6191   3.493   1.739   0.477
 1957SOL    HW2 6192   3.490   1.693   0.634
 1958SOL     OW 6193   2.455   0.716   0.275
 1958SOL    HW1 6194   2.461   0.802   0.225
 1958SOL    HW2 6195   2.385   0.724   0.346
 1959SOL     OW 6196   3.141   0.375   0.938
 1959SOL    HW1 6197   3.048   0.338   0.941
 1959SOL    HW2 6198   3.200   0.320   0.997
 1960SOL     OW 6199   3.441   1.676   0.309
 1960SOL    HW1 6200   3.540   1.692   0.305
 1960SOL    HW2 6201   3.406   1.660   0.217
 1961SOL     OW 6202   2.649   0.610   1.446
 1961SOL    HW1 6203   2.624   0.583   1.539
 1961SOL    HW2 6204   2.618   0.539   1.382
 1962SOL     OW 6205   3.251   0.470   1.679
 1962SOL    HW1 6206   3.253   0.520   1.766
 1962SOL    HW2 6207   3.309   0.389   1.685
 1963SOL     OW 6208   2.812   0.882   1.586
 1963SOL    HW1 6209   2.870   0.811   1.545
 1963SOL    HW2 6210   2.758   0.927   1.515
 1964SOL     OW 6211   2.857   0.396   1.219
 1964SOL    HW1 6212   2.763   0.414   1.246
 1964SOL    HW2 6213   2.858   0.354   1.128
 1965SOL     OW 6214   2.916   0.697   0.422
 1965SOL    HW1 6215   2.940   0.695   0.519
 1965SOL    HW2 6216   2.828   0.652   0.408
 1966SOL     OW 6217   1.951   0.828   0.785
 1966SOL    HW1 6218   2.038   0.817   0.832
 1966SOL    HW2 6219   1.903   0.907   0.824
 1967SOL     OW 6220   1.988   1.879   1.592
 1967SOL    HW1 6221   1.994   1.853   1.688
 1967SOL    HW2 6222   1.909   1.835   1.550
 1968SOL     OW 6223   2.751   0.358   0.209
 1968SOL    HW1 6224   2.792   0.417   0.140
 1968SOL    HW2 6225   2.748   0.264   0.176
 1969SOL     OW 6226   3.552   0.571   1.830
 1969SOL    HW1 6227   3.524   0.652   1.778
 1969SOL    HW2 6228   3.582   0.500   1.766
 1970SOL     OW 6229   3.241   1.141   0.521
 1970SOL    HW1 6230   3.328   1.127   0.474
 1970SOL    HW2 6231   3.187   1.210   0.472
 1971SOL     OW 6232   2.408   0.158   0.907
 1971SOL    HW1 6233   2.414   0.194   1.000
 1971SOL    HW2 6234   2.413   0.234   0.842
 1972SOL     OW 6235   2.857   1.445   0.464
 1972SOL    HW1 6236   2.819   1.523   0.415
 1972SOL    HW2 6237   2.838   1.456   0.562
 1973SOL     OW 6238   2.217   1.816   0.881
 1973SOL    HW1 6239   2.263   1.727   0.884
 1973SOL    HW2 6240   2.284   1.889   0.896
 1974SOL     OW 6241   3.664   1.046   0.882
 1974SOL    HW1 6242   3.618   1.031   0.794
 1974SOL    HW2 6243   3.595   1.053   0.954
 1975SOL     OW 6244   3.083   1.536   1.516
 1975SOL    HW1 6245   3.072   1.463   1.582
 1975SOL    HW2 6246   3.022   1.520   1.438
 1976SOL     OW 6247   2.179   0.962   0.256
 1976SOL    HW1 6248   2.269   0.985   0.217
 1976SOL    HW2 6249   2.145   0.878   0.214
 1977SOL     OW 6250   3.350   0.759   0.718
 1977SOL    HW1 6251   3.351   0.716   0.808
 1977SOL    HW2 6252   3.431   0.816   0.708
 1978SOL     OW 6253   2.334   1.271   1.731
 1978SOL    HW1 6254   2.309   1.277   1.634
 1978SOL    HW2 6255   2.251   1.267   1.787
 1979SOL     OW 6256   2.967   1.772   0.235
 1979SOL    HW1 6257   2.898   1.720   0.285
 1979SOL    HW2 6258   3.007   1.715   0.164
 1980SOL     OW 6259   2.065   0.262   1.500
 1980SOL    HW1 6260   1.986   0.322   1.498
 1980SOL    HW2 6261   2.040   0.174   1.540
 1981SOL     OW 6262   3.468   1.393   0.106
 1981SOL    HW1 6263   3.437   1.482   0.074
 1981SOL    HW2 6264   3.409   1.321   0.069
 1982SOL     OW 6265   2.330   1.730   0.320
 1982SOL    HW1 6266   2.374   1.796   0.381
 1982SOL    HW2 6267   2.397   1.695   0.255
 1983SOL     OW 6268   3.263   0.097   0.447
 1983SOL    HW1 6269   3.249   0.075   0.350
 1983SOL    HW2 6270   3.360   0.114   0.464
 1984SOL     OW 6271   2.122   1.790   1.219
 1984SOL    HW1 6272   2.172   1.714   1.261
 1984SOL    HW2 6273   2.109   1.771   1.121
 1985SOL     OW 6274   2.804   1.700   0.891
 1985SOL    HW1 6275   2.894   1.661   0.907
 1985SOL    HW2 6276   2.759   1.651   0.817
 1986SOL     OW 6277   2.257   0.686   0.474
 1986SOL    HW1 6278   2.275   0.588   0.487
 1986SOL    HW2 6279   2.160   0.704   0.487
 1987SOL     OW 6280   3.380   0.222   1.725
 1987SOL    HW1 6281   3.392   0.241   1.822
 1987SOL    HW2 6282   3.308   0.154   1.713
 1988SOL     OW 6283   2.489   0.088   0.132
 1988SOL    HW1 6284   2.589   0.089   0.132
 1988SOL    HW2 6285   2.456   0.072   0.039
 1989SOL     OW 6286   2.623   0.273   1.757
 1989SOL    HW1 6287   2.711   0.225   1.750
 1989SOL    HW2 6288   2.573   0.239   1.836
 1990SOL     OW 6289   2.730   1.511   1.195
 1990SOL    HW1 6290   2.714   1.476   1.103
 1990SOL    HW2 6291   2.806   1.460   1.237
 1991SOL     OW 6292   3.196   0.589   1.435
 1991SOL    HW1 6293   3.228   0.555   1.524
 1991SOL    HW2 6294   3.233   0.681   1.420
 1992SOL     OW 6295   2.679   1.381   0.943
 1992SOL    HW1 6296   2.771   1.374   0.905
 1992SOL    HW2 6297   2.614   1.396   0.869
 1993SOL     OW 6298   2.785   0.506   0.892
 1993SOL    HW1 6299   2.759   0.499   0.795
 1993SOL    HW2 6300   2.818   0.417   0.923
 1994SOL     OW 6301   2.410   0.060   0.493
 1994SOL    HW1 6302   2.328   0.058   0.549
 1994SOL    HW2 6303   2.406   0.140   0.432
 1995SOL     OW 6304   3.284   1.201   0.032
 1995SOL    HW1 6305   3.320   1.127   0.089
 1995SOL    HW2 6306   3.198   1.233   0.070
 1996SOL     OW 6307   2.155   0.039   0.182
 1996SOL    HW1 6308   2.203   0.110   0.130
 1996SOL    HW2 6309   2.222  -0.022   0.225
 1997SOL     OW 6310   2.814   0.250   0.457
 1997SOL    HW1 6311   2.780   0.291   0.372
 1997SOL    HW2 6312   2.912   0.266   0.464
 1998SOL     OW 6313   2.938   0.685   1.450
 1998SOL    HW1 6314   2.866   0.616   1.453
 1998SOL    HW2 6315   3.027   0.640   1.445
 1999SOL     OW 6316   3.070   1.582   0.801
 1999SOL    HW1 6317   3.086   1.646   0.726
 1999SOL    HW2 6318   3.154   1.572   0.855
 2000SOL     OW 6319   2.330   1.153   0.721
 2000SOL    HW1 6320   2.265   1.131   0.794
 2000SOL    HW2 6321   2.286   1.144   0.632
 2001SOL     OW 6322   3.118   1.791   0.613
 2001SOL    HW1 6323   3.173   1.849   0.553
 2001SOL    HW2 6324   3.044   1.846   0.652
 2002SOL     OW 6325   2.880   0.526   0.028
 2002SOL    HW1 6326   2.834   0.609  -0.003
 2002SOL    HW2 6327   2.952   0.549   0.094
 2003SOL     OW 6328   1.957   0.556   1.392
 2003SOL    HW1 6329   2.052   0.553   1.358
 2003SOL    HW2 6330   1.949   0.627   1.462
 2004SOL     OW 6331   2.421   0.223   1.177
 2004SOL    HW1 6332   2.471   0.151   1.224
 2004SOL    HW2 6333   2.324   0.219   1.203
 2005SOL     OW 6334   2.726   0.456   0.631
 2005SOL    HW1 6335   2.685   0.519   0.564
 2005SOL    HW2 6336   2.758   0.374   0.584
 2006SOL     OW 6337   2.878   0.053   0.743
 2006SOL    HW1 6338   2.819   0.058   0.663
 2006SOL    HW2 6339   2.851  -0.024   0.801
 2007SOL     OW 6340   3.324   1.164   0.853
 2007SOL    HW1 6341   3.246   1.107   0.827
 2007SOL    HW2 6342   3.382   1.180   0.773
 2008SOL     OW 6343   3.333   0.613   0.961
 2008SOL    HW1 6344   3.267   0.538   0.959
 2008SOL    HW2 6345   3.391   0.605   1.042
 2009SOL     OW 6346   3.698   0.797   0.389
 2009SOL    HW1 6347   3.762   0.748   0.449
 2009SOL    HW2 6348   3.672   0.737   0.313
 2010SOL     OW 6349   2.348   1.419   0.145
 2010SOL    HW1 6350   2.267   1.390   0.195
 2010SOL    HW2 6351   2.358   1.363   0.062
 2011SOL     OW 6352   3.530   1.261   0.666
 2011SOL    HW1 6353   3.629   1.252   0.664
 2011SOL    HW2 6354   3.504   1.357   0.663
 2012SOL     OW 6355   3.249   0.578   0.062
 2012SOL    HW1 6356   3.194   0.552   0.141
 2012SOL    HW2 6357   3.346   0.566   0.083
 2013SOL     OW 6358   2.383   0.262   0.313
 2013SOL    HW1 6359   2.427   0.202   0.246
 2013SOL    HW2 6360   2.358   0.348   0.268
 2014SOL     OW 6361   3.612   1.242   1.551
 2014SOL    HW1 6362   3.701   1.202   1.531
 2014SOL    HW2 6363   3.624   1.335   1.585
 2015SOL     OW 6364   2.912   1.353   1.341
 2015SOL    HW1 6365   2.829   1.321   1.387
 2015SOL    HW2 6366   2.991   1.308   1.381
 2016SOL     OW 6367   3.478   1.633   1.662
 2016SOL    HW1 6368   3.459   1.668   1.571
 2016SOL    HW2 6369   3.562   1.579   1.661
 2017SOL     OW 6370   3.008   1.235   1.107
 2017SOL    HW1 6371   2.944   1.267   1.177
 2017SOL    HW2 6372   2.976   1.263   1.017
 2018SOL     OW 6373   3.478   1.090   1.080
 2018SOL    HW1 6374   3.471   1.159   1.153
 2018SOL    HW2 6375   3.409   1.110   1.011
 2019SOL     OW 6376   2.789   0.083   1.389
 2019SOL    HW1 6377   2.809   0.063   1.293
 2019SOL    HW2 6378   2.867   0.129   1.430
 2020SOL     OW 6379   2.839   1.114   1.721
 2020SOL    HW1 6380   2.745   1.134   1.748
 2020SOL    HW2 6381   2.841   1.031   1.665
 2021SOL     OW 6382   2.576   1.053   0.379
 2021SOL    HW1 6383   2.560   1.033   0.475
 2021SOL    HW2 6384   2.657   1.004   0.347
 2022SOL     OW 6385   2.286   0.821   1.259
 2022SOL    HW1 6386   2.360   0.834   1.324
 2022SOL    HW2 6387   2.251   0.728   1.266
 2023SOL     OW 6388   3.121   0.371   1.288
 2023SOL    HW1 6389   3.156   0.452   1.334
 2023SOL    HW2 6390   3.027   0.387   1.259
 2024SOL     OW 6391   1.941   1.569   1.354
 2024SOL    HW1 6392   1.904   1.637   1.290
 2024SOL    HW2 6393   2.040   1.566   1.347
 2025SOL     OW 6394   2.188   1.128   0.485
 2025SOL    HW1 6395   2.201   1.210   0.429
 2025SOL    HW2 6396   2.191   1.047   0.427
 2026SOL     OW 6397   2.401   0.546   0.868
 2026SOL    HW1 6398   2.413   0.604   0.788
 2026SOL    HW2 6399   2.475   0.563   0.933
 2027SOL     OW 6400   3.106   1.355   0.392
 2027SOL    HW1 6401   3.170   1.427   0.421
 2027SOL    HW2 6402   3.014   1.378   0.421
 2028SOL     OW 6403   3.159   1.466   1.147
 2028SOL    HW1 6404   3.215   1.470   1.230
 2028SOL    HW2 6405   3.107   1.380   1.146
 2029SOL     OW 6406   3.441   0.611   0.490
 2029SOL    HW1 6407   3.387   0.665   0.555
 2029SOL    HW2 6408   3.491   0.673   0.430
 2030SOL     OW 6409   2.211   1.531   1.305
 2030SOL    HW1 6410   2.196   1.485   1.217
 2030SOL    HW2 6411   2.309   1.547   1.318
 2031SOL     OW 6412   2.281   0.749   1.602
 2031SOL    HW1 6413   2.348   0.794   1.543
 2031SOL    HW2 6414   2.312   0.657   1.624
 2032SOL     OW 6415   3.478   0.790   1.689
 2032SOL    HW1 6416   3.387   0.831   1.684
 2032SOL    HW2 6417   3.535   0.827   1.616
 2033SOL     OW 6418   2.859   0.138   1.754
 2033SOL    HW1 6419   2.917   0.218   1.739
 2033SOL    HW2 6420   2.909   0.056   1.724
 2034SOL     OW 6421   2.351   0.029   1.758
 2034SOL    HW1 6422   2.305  -0.027   1.690
 2034SOL    HW2 6423   2.296   0.109   1.778
 2035SOL     OW 6424   2.452   0.873   1.039
 2035SOL    HW1 6425   2.490   0.966   1.035
 2035SOL    HW2 6426   2.389   0.866   1.116
 2036SOL     OW 6427   3.202   0.852   1.026
 2036SOL    HW1 6428   3.119   0.851   0.971
 2036SOL    HW2 6429   3.256   0.769   1.008
 2037SOL     OW 6430   3.063   0.522   0.262
 2037SOL    HW1 6431   3.073   0.440   0.318
 2037SOL    HW2 6432   3.019   0.594   0.316
 2038SOL     OW 6433   2.158   0.189   1.245
 2038SOL    HW1 6434   2.122   0.224   1.332
 2038SOL    HW2 6435   2.144   0.090   1.240
 2039SOL     OW 6436   1.913   1.308   1.271
 2039SOL    HW1 6437   1.945   1.246   1.342
 2039SOL    HW2 6438   1.917   1.402   1.303
 2040SOL     OW 6439   2.588   0.630   1.053
 2040SOL    HW1 6440   2.662   0.610   0.989
 2040SOL    HW2 6441   2.553   0.722   1.036
 2041SOL     OW 6442   3.605   0.963   1.864
 2041SOL    HW1 6443   3.564   0.893   1.805
 2041SOL    HW2 6444   3.542   0.984   1.939
 2042SOL     OW 6445   2.170   0.052   0.631
 2042SOL    HW1 6446   2.144   0.147   0.647
 2042SOL    HW2 6447   2.183   0.006   0.719
 2043SOL     OW 6448   3.488   0.379   0.353
 2043SOL    HW1 6449   3.521   0.307   0.414
 2043SOL    HW2 6450   3.461   0.459   0.407
 2044SOL     OW 6451   2.881   0.755   0.952
 2044SOL    HW1 6452   2.875   0.775   1.049
 2044SOL    HW2 6453   2.856   0.659   0.936
 2045SOL     OW 6454   2.842   1.560   1.724
 2045SOL    HW1 6455   2.822   1.609   1.639
 2045SOL    HW2 6456   2.891   1.476   1.704
 2046SOL     OW 6457   3.714   1.500   1.602
 2046SOL    HW1 6458   3.734   1.526   1.507
 2046SOL    HW2 6459   3.797   1.509   1.657
 2047SOL     OW 6460   2.213   0.918   1.807
 2047SOL    HW1 6461   2.293   0.941   1.863
 2047SOL    HW2 6462   2.240   0.855   1.735
 2048SOL     OW 6463   3.388   0.255   0.125
 2048SOL    HW1 6464   3.316   0.194   0.158
 2048SOL    HW2 6465   3.426   0.306   0.202
 2049SOL     OW 6466   3.147   0.828   5.615
 2049SOL    HW1 6467   3.186   0.736   5.621
 2049SOL    HW2 6468   3.177   0.871   5.529
 2050SOL     OW 6469   2.934   1.344   0.862
 2050SOL    HW1 6470   2.941   1.265   0.801
 2050SOL    HW2 6471   2.987   1.420   0.825
 2051SOL     OW 6472   2.177   0.809   0.943
 2051SOL    HW1 6473   2.274   0.830   0.930
 2051SOL    HW2 6474   2.167   0.715   0.974
 2052SOL     OW 6475   2.179   0.531   1.012
 2052SOL    HW1 6476   2.141   0.439   1.002
 2052SOL    HW2 6477   2.261   0.539   0.955
 2053SOL     OW 6478   2.996   0.370   1.698
 2053SOL    HW1 6479   2.945   0.427   1.762
 2053SOL    HW2 6480   3.087   0.409   1.685
 2054SOL     OW 6481   3.022   0.198   1.481
 2054SOL    HW1 6482   3.007   0.261   1.557
 2054SOL    HW2 6483   3.065   0.247   1.406
 2055SOL     OW 6484   1.860   1.314   0.198
 2055SOL    HW1 6485   1.770   1.335   0.160
 2055SOL    HW2 6486   1.861   1.219   0.230
 2056SOL     OW 6487   1.955   1.780   0.947
 2056SOL    HW1 6488   1.918   1.699   0.901
 2056SOL    HW2 6489   2.048   1.797   0.915
 2057SOL     OW 6490   2.353   1.576   0.905
 2057SOL    HW1 6491   2.425   1.640   0.933
 2057SOL    HW2 6492   2.391   1.510   0.841
 2058SOL     OW 6493   2.825   0.792   1.219
 2058SOL    HW1 6494   2.886   0.770   1.295
 2058SOL    HW2 6495   2.738   0.743   1.231
 2059SOL     OW 6496   1.902   0.561   1.119
 2059SOL    HW1 6497   1.983   0.554   1.062
 2059SOL    HW2 6498   1.928   0.559   1.215
 2060SOL     OW 6499   2.057   0.526   1.733
 2060SOL    HW1 6500   2.113   0.473   1.669
 2060SOL    HW2 6501   2.020   0.606   1.686
 2061SOL     OW 6502   3.247   0.931   1.651
 2061SOL    HW1 6503   3.270   1.028   1.651
 2061SOL    HW2 6504   3.241   0.898   1.557
 2062SOL     OW 6505   2.677   0.574   0.371
 2062SOL    HW1 6506   2.691   0.496   0.311
 2062SOL    HW2 6507   2.600   0.629   0.338
 2063SOL     OW 6508   3.503   0.601   1.177
 2063SOL    HW1 6509   3.486   0.540   1.255
 2063SOL    HW2 6510   3.595   0.585   1.142
 2064SOL     OW 6511   2.096   1.542   1.723
 2064SOL    HW1 6512   2.078   1.615   1.790
 2064SOL    HW2 6513   2.106   1.455   1.771
 2065SOL     OW 6514   2.581   0.441   1.245
 2065SOL    HW1 6515   2.519   0.366   1.223
 2065SOL    HW2 6516   2.575   0.511   1.174
 2066SOL     OW 6517   2.764   1.684   1.486
 2066SOL    HW1 6518   2.748   1.629   1.404
 2066SOL    HW2 6519   2.771   1.780   1.460
 2067SOL     OW 6520   2.312   0.492   0.187
 2067SOL    HW1 6521   2.381   0.562   0.207
 2067SOL    HW2 6522   2.223   0.535   0.175
 2068SOL     OW 6523   1.997   1.140   1.478
 2068SOL    HW1 6524   2.003   1.102   1.570
 2068SOL    HW2 6525   2.018   1.068   1.411
 2069SOL     OW 6526   3.167   1.041   1.218
 2069SOL    HW1 6527   3.192   0.972   1.149
 2069SOL    HW2 6528   3.108   1.110   1.175
 2070SOL     OW 6529   3.181   0.854   0.293
 2070SOL    HW1 6530   3.101   0.828   0.346
 2070SOL    HW2 6531   3.160   0.846   0.195
 2071SOL     OW 6532   3.653   1.719   1.170
 2071SOL    HW1 6533   3.713   1.753   1.097
 2071SOL    HW2 6534   3.612   1.632   1.141
 2072SOL     OW 6535   3.106   1.736   1.110
 2072SOL    HW1 6536   3.189   1.768   1.066
 2072SOL    HW2 6537   3.113   1.638   1.127
 2073SOL     OW 6538   1.945   1.269   1.004
 2073SOL    HW1 6539   1.927   1.281   1.101
 2073SOL    HW2 6540   1.880   1.202   0.966
 2074SOL     OW 6541   2.550   1.680   1.742
 2074SOL    HW1 6542   2.485   1.755   1.730
 2074SOL    HW2 6543   2.626   1.692   1.678
 2075SOL     OW 6544   2.768   0.092   0.129
 2075SOL    HW1 6545   2.798   0.105   0.034
 2075SOL    HW2 6546   2.834   0.035   0.178
 2076SOL     OW 6547   3.591   0.157   0.492
 2076SOL    HW1 6548   3.661   0.146   0.421
 2076SOL    HW2 6549   3.572   0.068   0.534
 2077SOL     OW 6550   3.261   1.570   0.491
 2077SOL    HW1 6551   3.322   1.600   0.418
 2077SOL    HW2 6552   3.203   1.646   0.520
 2078SOL     OW 6553   2.009   1.787   1.847
 2078SOL    HW1 6554   1.952   1.717   1.890
 2078SOL    HW2 6555   2.059   1.838   1.917
 2079SOL     OW 6556   3.149   0.936   0.669
 2079SOL    HW1 6557   3.224   0.871   0.682
 2079SOL    HW2 6558   3.179   1.009   0.606
 2080SOL     OW 6559   2.655   1.281   1.420
 2080SOL    HW1 6560   2.627   1.327   1.504
 2080SOL    HW2 6561   2.586   1.293   1.349
 2081SOL     OW 6562   2.530   1.617   0.159
 2081SOL    HW1 6563   2.550   1.645   0.065
 2081SOL    HW2 6564   2.469   1.538   0.158
 2082SOL     OW 6565   3.476   1.726   1.391
 2082SOL    HW1 6566   3.536   1.723   1.311
 2082SOL    HW2 6567   3.461   1.821   1.417
 2083SOL     OW 6568   3.705   0.161   0.966
 2083SOL    HW1 6569   3.737   0.069   0.943
 2083SOL    HW2 6570   3.615   0.176   0.926
 2084SOL     OW 6571   2.112   0.304   0.714
 2084SOL    HW1 6572   2.025   0.345   0.686
 2084SOL    HW2 6573   2.117   0.302   0.814
 2085SOL     OW 6574   3.067   1.607   0.042
 2085SOL    HW1 6575   3.059   1.509   0.062
 2085SOL    HW2 6576   3.014   1.629  -0.039
 2086SOL     OW 6577   2.685   1.011   1.382
 2086SOL    HW1 6578   2.734   0.991   1.298
 2086SOL    HW2 6579   2.679   1.110   1.395
 2087SOL     OW 6580   2.788   0.914   0.297
 2087SOL    HW1 6581   2.842   0.946   0.218
 2087SOL    HW2 6582   2.837   0.840   0.342
 2088SOL     OW 6583   3.345   1.644   0.044
 2088SOL    HW1 6584   3.247   1.632   0.030
 2088SOL    HW2 6585   3.392   1.648  -0.045
 2089SOL     OW 6586   2.224   1.306   1.488
 2089SOL    HW1 6587   2.219   1.383   1.425
 2089SOL    HW2 6588   2.144   1.247   1.475
 2090SOL     OW 6589   3.468   1.284   1.283
 2090SOL    HW1 6590   3.536   1.264   1.353
 2090SOL    HW2 6591   3.404   1.352   1.317
 2091SOL     OW 6592   2.933   1.111   0.729
 2091SOL    HW1 6593   2.854   1.059   0.760
 2091SOL    HW2 6594   3.002   1.049   0.691
 2092SOL     OW 6595   2.888   0.241   0.967
 2092SOL    HW1 6596   2.886   0.200   0.876
 2092SOL    HW2 6597   2.885   0.170   1.036
 2093SOL     OW 6598   2.463   1.490   0.483
 2093SOL    HW1 6599   2.520   1.432   0.425
 2093SOL    HW2 6600   2.401   1.543   0.427
 2094SOL     OW 6601   3.604   0.390   1.386
 2094SOL    HW1 6602   3.676   0.459   1.383
 2094SOL    HW2 6603   3.625   0.317   1.321
 2095SOL     OW 6604   2.115   1.346   0.283
 2095SOL    HW1 6605   2.019   1.339   0.257
 2095SOL    HW2 6606   2.122   1.388   0.373
 2096SOL     OW 6607   1.982   1.052   1.742
 2096SOL    HW1 6608   1.899   1.019   1.788
 2096SOL    HW2 6609   2.060   0.998   1.772
 2097SOL     OW 6610   2.548   0.184   1.499
 2097SOL    HW1 6611   2.635   0.159   1.455
 2097SOL    HW2 6612   2.567   0.222   1.590
 2098SOL     OW 6613   1.947   0.326   5.608
 2098SOL    HW1 6614   1.858   0.305   5.566
 2098SOL    HW2 6615   1.985   0.408   5.566
 2099SOL     OW 6616   3.279   0.854   1.391
 2099SOL    HW1 6617   3.221   0.916   1.338
 2099SOL    HW2 6618   3.372   0.856   1.354
 2100SOL     OW 6619   1.922   0.148   0.288
 2100SOL    HW1 6620   1.906   0.230   0.234
 2100SOL    HW2 6621   2.012   0.110   0.266
 2101SOL     OW 6622   3.044   1.335   0.117
 2101SOL    HW1 6623   2.947   1.310   0.108
 2101SOL    HW2 6624   3.069   1.336   0.214
 2102SOL     OW 6625   2.488   0.830   1.437
 2102SOL    HW1 6626   2.547   0.910   1.422
 2102SOL    HW2 6627   2.545   0.748   1.443
 2103SOL     OW 6628   3.347   1.807   0.998
 2103SOL    HW1 6629   3.370   1.870   0.923
 2103SOL    HW2 6630   3.426   1.748   1.017
 2104SOL     OW 6631   2.584   0.551   1.701
 2104SOL    HW1 6632   2.632   0.616   1.759
 2104SOL    HW2 6633   2.601   0.458   1.733
 2105SOL     OW 6634   3.338   1.191   1.632
 2105SOL    HW1 6635   3.325   1.207   1.730
 2105SOL    HW2 6636   3.432   1.213   1.606
 2106SOL     OW 6637   2.227   1.741   1.573
 2106SOL    HW1 6638   2.144   1.794   1.557
 2106SOL    HW2 6639   2.202   1.651   1.610
 2107SOL     OW 6640   3.521   0.874   1.257
 2107SOL    HW1 6641   3.519   0.784   1.214
 2107SOL    HW2 6642   3.508   0.945   1.187
 2108SOL     OW 6643   3.082   0.312   0.462
 2108SOL    HW1 6644   3.147   0.236   0.456
 2108SOL    HW2 6645   3.107   0.371   0.538
 2109SOL     OW 6646   2.436   0.738   0.677
 2109SOL    HW1 6647   2.483   0.825   0.663
 2109SOL    HW2 6648   2.374   0.721   0.601
 2110SOL     OW 6649   3.606   0.362   1.659
 2110SOL    HW1 6650   3.604   0.379   1.561
 2110SOL    HW2 6651   3.528   0.305   1.685
 2111SOL     OW 6652   3.624   0.928   1.507
 2111SOL    HW1 6653   3.608   1.024   1.528
 2111SOL    HW2 6654   3.597   0.910   1.412
 2112SOL     OW 6655   2.732   1.371   0.046
 2112SOL    HW1 6656   2.685   1.414   0.124
 2112SOL    HW2 6657   2.754   1.441  -0.022
 2113SOL     OW 6658   2.533   1.776   0.947
 2113SOL    HW1 6659   2.509   1.870   0.921
 2113SOL    HW2 6660   2.630   1.760   0.929
 2114SOL     OW 6661   2.730   0.973   0.856
 2114SOL    HW1 6662   2.781   0.894   0.889
 2114SOL    HW2 6663   2.686   1.019   0.933
 2115SOL     OW 6664   2.930   0.981   0.080
 2115SOL    HW1 6665   2.904   1.040   0.003
 2115SOL    HW2 6666   3.011   0.928   0.055
 2116SOL     OW 6667   3.701   1.561   0.846
 2116SOL    HW1 6668   3.627   1.550   0.780
 2116SOL    HW2 6669   3.712   1.476   0.898
 2117SOL     OW 6670   2.093   1.291   1.852
 2117SOL    HW1 6671   2.040   1.216   1.812
 2117SOL    HW2 6672   2.068   1.301   1.948
 2118SOL     OW 6673   1.958   1.225   0.662
 2118SOL    HW1 6674   1.980   1.181   0.748
 2118SOL    HW2 6675   2.021   1.193   0.591
 2119SOL     OW 6676   2.548   1.414   1.635
 2119SOL    HW1 6677   2.467   1.367   1.669
 2119SOL    HW2 6678   2.551   1.507   1.671
 2120SOL     OW 6679   3.663   0.176   1.235
 2120SOL    HW1 6680   3.676   0.079   1.258
 2120SOL    HW2 6681   3.677   0.189   1.137
 2121SOL     OW 6682   2.287   0.424   0.527
 2121SOL    HW1 6683   2.324   0.359   0.460
 2121SOL    HW2 6684   2.234   0.375   0.595
 2122SOL     OW 6685   3.538   1.486   1.100
 2122SOL    HW1 6686   3.468   1.469   1.031
 2122SOL    HW2 6687   3.540   1.410   1.165
 2123SOL     OW 6688   2.205   0.560   1.288
 2123SOL    HW1 6689   2.260   0.499   1.345
 2123SOL    HW2 6690   2.215   0.534   1.192
 2124SOL     OW 6691   2.689   1.587   0.674
 2124SOL    HW1 6692   2.686   1.653   0.599
 2124SOL    HW2 6693   2.612   1.524   0.667
 2125SOL     OW 6694   3.288   0.233   1.118
 2125SOL    HW1 6695   3.306   0.140   1.150
 2125SOL    HW2 6696   3.235   0.283   1.186
 2126SOL     OW 6697   2.872   5.605   1.130
 2126SOL    HW1 6698   2.809   5.547   1.078
 2126SOL    HW2 6699   2.962   5.562   1.132
 2127SOL     OW 6700   2.629   1.327   0.343
 2127SOL    HW1 6701   2.609   1.229   0.343
 2127SOL    HW2 6702   2.722   1.342   0.376
 2128SOL     OW 6703   2.484   1.564   1.293
 2128SOL    HW1 6704   2.480   1.653   1.338
 2128SOL    HW2 6705   2.575   1.551   1.253
 2129SOL     OW 6706   3.210   0.043   0.184
 2129SOL    HW1 6707   3.254  -0.019   0.118
 2129SOL    HW2 6708   3.115   0.016   0.197
 2130SOL     OW 6709   3.145   0.467   0.677
 2130SOL    HW1 6710   3.097   0.554   0.677
 2130SOL    HW2 6711   3.148   0.431   0.771
 2131SOL     OW 6712   3.448   0.201   0.890
 2131SOL    HW1 6713   3.391   0.225   0.969
 2131SOL    HW2 6714   3.450   0.279   0.827
 2132SOL     OW 6715   1.902   1.057   0.310
 2132SOL    HW1 6716   2.000   1.058   0.291
 2132SOL    HW2 6717   1.872   0.963   0.328
 2133SOL     OW 6718   2.736   1.663   0.351
 2133SOL    HW1 6719   2.666   1.647   0.281
 2133SOL    HW2 6720   2.715   1.747   0.400
 2134SOL     OW 6721   2.074   0.618   1.995
 2134SOL    HW1 6722   1.981   0.615   2.031
 2134SOL    HW2 6723   2.073   0.599   1.897
 2135SOL     OW 6724   2.079   0.290   2.862
 2135SOL    HW1 6725   2.115   0.255   2.948
 2135SOL    HW2 6726   1.990   0.248   2.843
 2136SOL     OW 6727   1.860   0.380   2.503
 2136SOL    HW1 6728   1.779   0.395   2.561
 2136SOL    HW2 6729   1.841   0.307   2.438
 2137SOL     OW 6730   2.429   1.301   3.050
 2137SOL    HW1 6731   2.346   1.307   2.995
 2137SOL    HW2 6732   2.449   1.391   3.090
 2138SOL     OW 6733   3.435   1.519   2.569
 2138SOL    HW1 6734   3.391   1.492   2.654
 2138SOL    HW2 6735   3.367   1.526   2.496
 2139SOL     OW 6736   2.997   0.707   2.553
 2139SOL    HW1 6737   3.049   0.791   2.536
 2139SOL    HW2 6738   2.946   0.715   2.638
 2140SOL     OW 6739   3.643   0.590   2.081
 2140SOL    HW1 6740   3.612   0.590   1.986
 2140SOL    HW2 6741   3.602   0.513   2.129
 2141SOL     OW 6742   2.589   1.131   2.905
 2141SOL    HW1 6743   2.526   1.171   2.972
 2141SOL    HW2 6744   2.637   1.205   2.856
 2142SOL     OW 6745   2.735   0.756   3.696
 2142SOL    HW1 6746   2.731   0.811   3.779
 2142SOL    HW2 6747   2.761   0.813   3.619
 2143SOL     OW 6748   2.545   0.995   2.510
 2143SOL    HW1 6749   2.617   0.988   2.579
 2143SOL    HW2 6750   2.472   1.054   2.544
 2144SOL     OW 6751   2.572   1.152   3.673
 2144SOL    HW1 6752   2.618   1.230   3.715
 2144SOL    HW2 6753   2.485   1.182   3.632
 2145SOL     OW 6754   2.199   1.399   2.910
 2145SOL    HW1 6755   2.116   1.364   2.868
 2145SOL    HW2 6756   2.245   1.461   2.847
 2146SOL     OW 6757   3.321   1.502   3.224
 2146SOL    HW1 6758   3.376   1.586   3.234
 2146SOL    HW2 6759   3.247   1.503   3.292
 2147SOL     OW 6760   2.303   0.387   3.326
 2147SOL    HW1 6761   2.390   0.340   3.341
 2147SOL    HW2 6762   2.228   0.330   3.358
 2148SOL     OW 6763   3.468   0.443   2.613
 2148SOL    HW1 6764   3.404   0.461   2.538
 2148SOL    HW2 6765   3.455   0.512   2.684
 2149SOL     OW 6766   2.087   1.715   2.330
 2149SOL    HW1 6767   2.106   1.792   2.391
 2149SOL    HW2 6768   2.162   1.706   2.264
 2150SOL     OW 6769   2.994   1.344   3.567
 2150SOL    HW1 6770   3.039   1.340   3.656
 2150SOL    HW2 6771   2.937   1.263   3.554
 2151SOL     OW 6772   2.094   1.447   2.397
 2151SOL    HW1 6773   2.082   1.546   2.393
 2151SOL    HW2 6774   2.038   1.409   2.471
 2152SOL     OW 6775   2.129   1.088   2.748
 2152SOL    HW1 6776   2.137   0.995   2.784
 2152SOL    HW2 6777   2.074   1.144   2.811
 2153SOL     OW 6778   2.439   0.992   2.012
 2153SOL    HW1 6779   2.487   1.036   1.936
 2153SOL    HW2 6780   2.481   1.018   2.098
 2154SOL     OW 6781   3.464   0.121   3.331
 2154SOL    HW1 6782   3.488   0.202   3.276
 2154SOL    HW2 6783   3.441   0.150   3.424
 2155SOL     OW 6784   1.974   0.666   2.429
 2155SOL    HW1 6785   1.955   0.570   2.446
 2155SOL    HW2 6786   1.972   0.716   2.516
 2156SOL     OW 6787   3.711   1.752   2.191
 2156SOL    HW1 6788   3.784   1.725   2.253
 2156SOL    HW2 6789   3.722   1.848   2.164
 2157SOL     OW 6790   1.894   1.586   1.981
 2157SOL    HW1 6791   1.878   1.489   1.999
 2157SOL    HW2 6792   1.874   1.639   2.064
 2158SOL     OW 6793   3.556   0.923   2.511
 2158SOL    HW1 6794   3.638   0.870   2.492
 2158SOL    HW2 6795   3.532   0.977   2.431
 2159SOL     OW 6796   3.519   1.103   2.296
 2159SOL    HW1 6797   3.608   1.096   2.251
 2159SOL    HW2 6798   3.523   1.172   2.368
 2160SOL     OW 6799   2.018   0.758   3.458
 2160SOL    HW1 6800   2.118   0.759   3.454
 2160SOL    HW2 6801   1.986   0.843   3.499
 2161SOL     OW 6802   2.475   1.392   2.589
 2161SOL    HW1 6803   2.430   1.303   2.600
 2161SOL    HW2 6804   2.461   1.424   2.495
 2162SOL     OW 6805   3.146   1.225   3.282
 2162SOL    HW1 6806   3.173   1.155   3.217
 2162SOL    HW2 6807   3.207   1.222   3.362
 2163SOL     OW 6808   2.684   0.016   2.369
 2163SOL    HW1 6809   2.730   0.101   2.345
 2163SOL    HW2 6810   2.585   0.031   2.373
 2164SOL     OW 6811   2.041   0.944   3.133
 2164SOL    HW1 6812   2.133   0.907   3.139
 2164SOL    HW2 6813   2.007   0.934   3.039
 2165SOL     OW 6814   3.396   1.007   2.068
 2165SOL    HW1 6815   3.322   0.946   2.096
 2165SOL    HW2 6816   3.443   1.042   2.148
 2166SOL     OW 6817   2.994   1.756   3.456
 2166SOL    HW1 6818   3.033   1.837   3.413
 2166SOL    HW2 6819   3.041   1.675   3.420
 2167SOL     OW 6820   2.217   0.256   3.698
 2167SOL    HW1 6821   2.267   0.329   3.745
 2167SOL    HW2 6822   2.119   0.265   3.719
 2168SOL     OW 6823   3.332   1.419   2.803
 2168SOL    HW1 6824   3.266   1.440   2.875
 2168SOL    HW2 6825   3.321   1.324   2.774
 2169SOL     OW 6826   3.506   1.765   2.433
 2169SOL    HW1 6827   3.488   1.732   2.341
 2169SOL    HW2 6828   3.491   1.692   2.499
 2170SOL     OW 6829   2.455   0.715   2.137
 2170SOL    HW1 6830   2.461   0.802   2.089
 2170SOL    HW2 6831   2.386   0.721   2.209
 2171SOL     OW 6832   3.140   0.372   2.798
 2171SOL    HW1 6833   3.047   0.336   2.802
 2171SOL    HW2 6834   3.199   0.319   2.857
 2172SOL     OW 6835   3.445   1.677   2.171
 2172SOL    HW1 6836   3.543   1.698   2.167
 2172SOL    HW2 6837   3.411   1.660   2.079
 2173SOL     OW 6838   2.651   0.612   3.307
 2173SOL    HW1 6839   2.626   0.588   3.401
 2173SOL    HW2 6840   2.619   0.539   3.245
 2174SOL     OW 6841   3.255   0.469   3.542
 2174SOL    HW1 6842   3.253   0.519   3.628
 2174SOL    HW2 6843   3.313   0.388   3.551
 2175SOL     OW 6844   2.812   0.883   3.452
 2175SOL    HW1 6845   2.871   0.813   3.412
 2175SOL    HW2 6846   2.757   0.924   3.379
 2176SOL     OW 6847   2.859   0.399   3.081
 2176SOL    HW1 6848   2.766   0.418   3.113
 2176SOL    HW2 6849   2.855   0.350   2.994
 2177SOL     OW 6850   2.914   0.699   2.285
 2177SOL    HW1 6851   2.938   0.696   2.382
 2177SOL    HW2 6852   2.827   0.652   2.270
 2178SOL     OW 6853   1.950   0.819   2.655
 2178SOL    HW1 6854   2.039   0.814   2.701
 2178SOL    HW2 6855   1.900   0.900   2.687
 2179SOL     OW 6856   1.967   1.860   3.457
 2179SOL    HW1 6857   1.980   1.824   3.549
 2179SOL    HW2 6858   1.871   1.853   3.431
 2180SOL     OW 6859   2.759   0.352   2.061
 2180SOL    HW1 6860   2.801   0.420   2.001
 2180SOL    HW2 6861   2.760   0.263   2.016
 2181SOL     OW 6862   3.562   0.568   3.688
 2181SOL    HW1 6863   3.528   0.649   3.640
 2181SOL    HW2 6864   3.587   0.498   3.621
 2182SOL     OW 6865   3.246   1.144   2.392
 2182SOL    HW1 6866   3.330   1.130   2.341
 2182SOL    HW2 6867   3.189   1.212   2.345
 2183SOL     OW 6868   2.406   0.160   2.772
 2183SOL    HW1 6869   2.413   0.191   2.867
 2183SOL    HW2 6870   2.416   0.239   2.711
 2184SOL     OW 6871   2.855   1.447   2.322
 2184SOL    HW1 6872   2.828   1.527   2.269
 2184SOL    HW2 6873   2.831   1.461   2.418
 2185SOL     OW 6874   2.212   1.807   2.735
 2185SOL    HW1 6875   2.256   1.718   2.740
 2185SOL    HW2 6876   2.279   1.879   2.752
 2186SOL     OW 6877   3.663   1.054   2.736
 2186SOL    HW1 6878   3.612   1.030   2.654
 2186SOL    HW2 6879   3.600   1.062   2.813
 2187SOL     OW 6880   3.082   1.515   3.366
 2187SOL    HW1 6881   3.073   1.451   3.443
 2187SOL    HW2 6882   3.025   1.485   3.290
 2188SOL     OW 6883   2.179   0.961   2.120
 2188SOL    HW1 6884   2.268   0.983   2.080
 2188SOL    HW2 6885   2.143   0.877   2.079
 2189SOL     OW 6886   3.347   0.757   2.580
 2189SOL    HW1 6887   3.345   0.711   2.669
 2189SOL    HW2 6888   3.428   0.815   2.574
 2190SOL     OW 6889   2.335   1.269   3.589
 2190SOL    HW1 6890   2.307   1.275   3.493
 2190SOL    HW2 6891   2.254   1.261   3.647
 2191SOL     OW 6892   2.986   1.776   2.085
 2191SOL    HW1 6893   2.904   1.741   2.131
 2191SOL    HW2 6894   3.016   1.710   2.015
 2192SOL     OW 6895   2.056   0.259   3.372
 2192SOL    HW1 6896   2.002   0.322   3.428
 2192SOL    HW2 6897   2.041   0.165   3.403
 2193SOL     OW 6898   3.489   1.386   1.958
 2193SOL    HW1 6899   3.452   1.477   1.939
 2193SOL    HW2 6900   3.421   1.317   1.936
 2194SOL     OW 6901   2.325   1.735   2.178
 2194SOL    HW1 6902   2.369   1.796   2.244
 2194SOL    HW2 6903   2.395   1.697   2.116
 2195SOL     OW 6904   3.260   0.100   2.307
 2195SOL    HW1 6905   3.250   0.075   2.211
 2195SOL    HW2 6906   3.358   0.107   2.329
 2196SOL     OW 6907   2.133   1.797   3.105
 2196SOL    HW1 6908   2.160   1.761   3.195
 2196SOL    HW2 6909   2.158   1.731   3.034
 2197SOL     OW 6910   2.796   1.699   2.750
 2197SOL    HW1 6911   2.877   1.658   2.791
 2197SOL    HW2 6912   2.764   1.640   2.675
 2198SOL     OW 6913   2.259   0.687   2.334
 2198SOL    HW1 6914   2.274   0.589   2.347
 2198SOL    HW2 6915   2.162   0.708   2.349
 2199SOL     OW 6916   3.384   0.220   3.587
 2199SOL    HW1 6917   3.400   0.239   3.684
 2199SOL    HW2 6918   3.307   0.157   3.577
 2200SOL     OW 6919   2.510   0.111   1.964
 2200SOL    HW1 6920   2.577   0.041   1.986
 2200SOL    HW2 6921   2.451   0.079   1.890
 2201SOL     OW 6922   2.628   0.272   3.614
 2201SOL    HW1 6923   2.708   0.215   3.595
 2201SOL    HW2 6924   2.628   0.299   3.710
 2202SOL     OW 6925   2.718   1.501   3.042
 2202SOL    HW1 6926   2.706   1.458   2.953
 2202SOL    HW2 6927   2.797   1.462   3.089
 2203SOL     OW 6928   3.199   0.589   3.300
 2203SOL    HW1 6929   3.230   0.554   3.389
 2203SOL    HW2 6930   3.236   0.681   3.287
 2204SOL     OW 6931   2.682   1.369   2.798
 2204SOL    HW1 6932   2.775   1.365   2.760
 2204SOL    HW2 6933   2.617   1.387   2.725
 2205SOL     OW 6934   2.786   0.507   2.755
 2205SOL    HW1 6935   2.761   0.498   2.659
 2205SOL    HW2 6936   2.819   0.418   2.788
 2206SOL     OW 6937   2.411   0.063   2.349
 2206SOL    HW1 6938   2.331   0.060   2.408
 2206SOL    HW2 6939   2.405   0.142   2.289
 2207SOL     OW 6940   3.290   1.204   1.904
 2207SOL    HW1 6941   3.323   1.126   1.958
 2207SOL    HW2 6942   3.201   1.233   1.939
 2208SOL     OW 6943   2.149   0.044   2.049
 2208SOL    HW1 6944   2.197   0.115   1.997
 2208SOL    HW2 6945   2.216  -0.018   2.090
 2209SOL     OW 6946   2.813   0.254   2.315
 2209SOL    HW1 6947   2.783   0.293   2.228
 2209SOL    HW2 6948   2.912   0.267   2.325
 2210SOL     OW 6949   2.941   0.688   3.310
 2210SOL    HW1 6950   2.869   0.620   3.322
 2210SOL    HW2 6951   3.031   0.643   3.311
 2211SOL     OW 6952   3.081   1.570   2.654
 2211SOL    HW1 6953   3.092   1.640   2.584
 2211SOL    HW2 6954   3.146   1.587   2.728
 2212SOL     OW 6955   2.331   1.154   2.579
 2212SOL    HW1 6956   2.265   1.132   2.652
 2212SOL    HW2 6957   2.286   1.146   2.490
 2213SOL     OW 6958   3.120   1.785   2.475
 2213SOL    HW1 6959   3.174   1.849   2.420
 2213SOL    HW2 6960   3.042   1.833   2.515
 2214SOL     OW 6961   2.885   0.530   1.896
 2214SOL    HW1 6962   2.841   0.616   1.870
 2214SOL    HW2 6963   2.955   0.548   1.965
 2215SOL     OW 6964   1.940   0.593   3.264
 2215SOL    HW1 6965   2.029   0.570   3.224
 2215SOL    HW2 6966   1.953   0.656   3.341
 2216SOL     OW 6967   2.417   0.221   3.042
 2216SOL    HW1 6968   2.469   0.155   3.096
 2216SOL    HW2 6969   2.322   0.220   3.070
 2217SOL     OW 6970   2.726   0.456   2.494
 2217SOL    HW1 6971   2.683   0.519   2.429
 2217SOL    HW2 6972   2.758   0.375   2.445
 2218SOL     OW 6973   2.877   0.052   2.604
 2218SOL    HW1 6974   2.817   0.051   2.523
 2218SOL    HW2 6975   2.853  -0.024   2.664
 2219SOL     OW 6976   3.312   1.158   2.720
 2219SOL    HW1 6977   3.235   1.094   2.725
 2219SOL    HW2 6978   3.342   1.168   2.625
 2220SOL     OW 6979   3.332   0.610   2.821
 2220SOL    HW1 6980   3.264   0.536   2.824
 2220SOL    HW2 6981   3.390   0.605   2.902
 2221SOL     OW 6982   3.699   0.802   2.243
 2221SOL    HW1 6983   3.760   0.756   2.309
 2221SOL    HW2 6984   3.674   0.738   2.171
 2222SOL     OW 6985   2.348   1.423   2.015
 2222SOL    HW1 6986   2.266   1.396   2.065
 2222SOL    HW2 6987   2.355   1.370   1.930
 2223SOL     OW 6988   3.543   1.270   2.503
 2223SOL    HW1 6989   3.642   1.267   2.515
 2223SOL    HW2 6990   3.510   1.363   2.523
 2224SOL     OW 6991   3.251   0.576   1.930
 2224SOL    HW1 6992   3.191   0.551   2.006
 2224SOL    HW2 6993   3.345   0.555   1.954
 2225SOL     OW 6994   2.390   0.263   2.166
 2225SOL    HW1 6995   2.441   0.212   2.096
 2225SOL    HW2 6996   2.359   0.350   2.127
 2226SOL     OW 6997   3.610   1.241   3.406
 2226SOL    HW1 6998   3.701   1.200   3.395
 2226SOL    HW2 6999   3.621   1.333   3.445
 2227SOL     OW 7000   2.916   1.348   3.198
 2227SOL    HW1 7001   2.831   1.320   3.243
 2227SOL    HW2 7002   2.993   1.299   3.239
 2228SOL     OW 7003   3.472   1.630   3.517
 2228SOL    HW1 7004   3.461   1.669   3.426
 2228SOL    HW2 7005   3.556   1.576   3.521
 2229SOL     OW 7006   3.006   1.229   2.966
 2229SOL    HW1 7007   2.946   1.264   3.037
 2229SOL    HW2 7008   2.975   1.262   2.877
 2230SOL     OW 7009   3.486   1.097   2.942
 2230SOL    HW1 7010   3.481   1.163   3.017
 2230SOL    HW2 7011   3.412   1.116   2.877
 2231SOL     OW 7012   2.788   0.085   3.250
 2231SOL    HW1 7013   2.811   0.064   3.155
 2231SOL    HW2 7014   2.866   0.130   3.294
 2232SOL     OW 7015   2.834   1.122   3.572
 2232SOL    HW1 7016   2.741   1.137   3.606
 2232SOL    HW2 7017   2.838   1.035   3.523
 2233SOL     OW 7018   2.578   1.058   2.239
 2233SOL    HW1 7019   2.562   1.038   2.336
 2233SOL    HW2 7020   2.657   1.005   2.207
 2234SOL     OW 7021   2.282   0.814   3.124
 2234SOL    HW1 7022   2.358   0.826   3.188
 2234SOL    HW2 7023   2.246   0.721   3.133
 2235SOL     OW 7024   3.124   0.375   3.148
 2235SOL    HW1 7025   3.158   0.454   3.198
 2235SOL    HW2 7026   3.029   0.391   3.121
 2236SOL     OW 7027   1.942   1.564   3.214
 2236SOL    HW1 7028   1.913   1.643   3.160
 2236SOL    HW2 7029   2.042   1.557   3.212
 2237SOL     OW 7030   2.188   1.130   2.344
 2237SOL    HW1 7031   2.194   1.212   2.288
 2237SOL    HW2 7032   2.191   1.049   2.286
 2238SOL     OW 7033   2.407   0.540   2.720
 2238SOL    HW1 7034   2.419   0.601   2.642
 2238SOL    HW2 7035   2.477   0.559   2.789
 2239SOL     OW 7036   3.107   1.357   2.257
 2239SOL    HW1 7037   3.169   1.428   2.290
 2239SOL    HW2 7038   3.014   1.377   2.286
 2240SOL     OW 7039   3.162   1.461   3.008
 2240SOL    HW1 7040   3.217   1.469   3.091
 2240SOL    HW2 7041   3.109   1.376   3.012
 2241SOL     OW 7042   3.436   0.616   2.351
 2241SOL    HW1 7043   3.385   0.663   2.423
 2241SOL    HW2 7044   3.481   0.683   2.293
 2242SOL     OW 7045   2.204   1.495   3.159
 2242SOL    HW1 7046   2.196   1.455   3.067
 2242SOL    HW2 7047   2.297   1.529   3.172
 2243SOL     OW 7048   2.295   0.735   3.470
 2243SOL    HW1 7049   2.355   0.784   3.407
 2243SOL    HW2 7050   2.344   0.658   3.510
 2244SOL     OW 7051   3.478   0.785   3.550
 2244SOL    HW1 7052   3.387   0.825   3.548
 2244SOL    HW2 7053   3.535   0.826   3.478
 2245SOL     OW 7054   2.859   0.131   3.595
 2245SOL    HW1 7055   2.916   0.213   3.596
 2245SOL    HW2 7056   2.916   0.051   3.573
 2246SOL     OW 7057   2.358   0.029   3.611
 2246SOL    HW1 7058   2.306  -0.027   3.546
 2246SOL    HW2 7059   2.308   0.114   3.629
 2247SOL     OW 7060   2.446   0.876   2.901
 2247SOL    HW1 7061   2.490   0.966   2.900
 2247SOL    HW2 7062   2.390   0.868   2.983
 2248SOL     OW 7063   3.200   0.855   2.877
 2248SOL    HW1 7064   3.108   0.840   2.842
 2248SOL    HW2 7065   3.254   0.771   2.864
 2249SOL     OW 7066   3.058   0.525   2.125
 2249SOL    HW1 7067   3.071   0.442   2.180
 2249SOL    HW2 7068   3.015   0.595   2.180
 2250SOL     OW 7069   2.151   0.194   3.110
 2250SOL    HW1 7070   2.117   0.227   3.198
 2250SOL    HW2 7071   2.140   0.094   3.106
 2251SOL     OW 7072   1.900   1.306   3.136
 2251SOL    HW1 7073   1.938   1.245   3.206
 2251SOL    HW2 7074   1.913   1.401   3.164
 2252SOL     OW 7075   2.582   0.628   2.911
 2252SOL    HW1 7076   2.661   0.609   2.852
 2252SOL    HW2 7077   2.551   0.722   2.894
 2253SOL     OW 7078   3.604   0.965   3.719
 2253SOL    HW1 7079   3.561   0.891   3.667
 2253SOL    HW2 7080   3.547   0.988   3.798
 2254SOL     OW 7081   2.175   0.054   2.493
 2254SOL    HW1 7082   2.148   0.148   2.510
 2254SOL    HW2 7083   2.187   0.006   2.580
 2255SOL     OW 7084   3.494   0.384   2.217
 2255SOL    HW1 7085   3.521   0.309   2.277
 2255SOL    HW2 7086   3.463   0.461   2.273
 2256SOL     OW 7087   2.885   0.754   2.817
 2256SOL    HW1 7088   2.875   0.775   2.915
 2256SOL    HW2 7089   2.858   0.659   2.800
 2257SOL     OW 7090   2.836   1.568   3.594
 2257SOL    HW1 7091   2.869   1.643   3.536
 2257SOL    HW2 7092   2.883   1.484   3.569
 2258SOL     OW 7093   3.712   1.498   3.466
 2258SOL    HW1 7094   3.736   1.527   3.373
 2258SOL    HW2 7095   3.792   1.509   3.525
 2259SOL     OW 7096   2.215   0.929   3.658
 2259SOL    HW1 7097   2.282   0.954   3.729
 2259SOL    HW2 7098   2.254   0.859   3.599
 2260SOL     OW 7099   3.385   0.265   1.990
 2260SOL    HW1 7100   3.319   0.195   2.020
 2260SOL    HW2 7101   3.424   0.310   2.070
 2261SOL     OW 7102   3.148   0.825   1.883
 2261SOL    HW1 7103   3.187   0.734   1.892
 2261SOL    HW2 7104   3.180   0.867   1.798
 2262SOL     OW 7105   2.938   1.342   2.720
 2262SOL    HW1 7106   2.945   1.263   2.658
 2262SOL    HW2 7107   2.994   1.417   2.684
 2263SOL     OW 7108   2.178   0.811   2.810
 2263SOL    HW1 7109   2.275   0.838   2.808
 2263SOL    HW2 7110   2.170   0.715   2.836
 2264SOL     OW 7111   2.188   0.534   2.869
 2264SOL    HW1 7112   2.147   0.443   2.862
 2264SOL    HW2 7113   2.269   0.538   2.810
 2265SOL     OW 7114   2.999   0.370   3.558
 2265SOL    HW1 7115   2.948   0.427   3.623
 2265SOL    HW2 7116   3.092   0.407   3.547
 2266SOL     OW 7117   3.024   0.199   3.340
 2266SOL    HW1 7118   3.008   0.260   3.418
 2266SOL    HW2 7119   3.068   0.251   3.266
 2267SOL     OW 7120   1.862   1.311   2.058
 2267SOL    HW1 7121   1.772   1.333   2.020
 2267SOL    HW2 7122   1.862   1.217   2.091
 2268SOL     OW 7123   1.946   1.780   2.799
 2268SOL    HW1 7124   1.913   1.698   2.752
 2268SOL    HW2 7125   2.043   1.793   2.779
 2269SOL     OW 7126   2.352   1.571   2.759
 2269SOL    HW1 7127   2.422   1.636   2.789
 2269SOL    HW2 7128   2.392   1.505   2.696
 2270SOL     OW 7129   2.825   0.791   3.082
 2270SOL    HW1 7130   2.889   0.769   3.157
 2270SOL    HW2 7131   2.737   0.749   3.101
 2271SOL     OW 7132   1.907   0.561   2.971
 2271SOL    HW1 7133   1.924   0.542   2.874
 2271SOL    HW2 7134   1.993   0.555   3.022
 2272SOL     OW 7135   2.046   0.521   3.592
 2272SOL    HW1 7136   2.136   0.490   3.559
 2272SOL    HW2 7137   2.022   0.607   3.548
 2273SOL     OW 7138   3.249   0.928   3.512
 2273SOL    HW1 7139   3.270   1.026   3.514
 2273SOL    HW2 7140   3.245   0.898   3.416
 2274SOL     OW 7141   2.679   0.572   2.228
 2274SOL    HW1 7142   2.690   0.493   2.168
 2274SOL    HW2 7143   2.601   0.626   2.197
 2275SOL     OW 7144   3.502   0.605   3.036
 2275SOL    HW1 7145   3.485   0.545   3.114
 2275SOL    HW2 7146   3.595   0.589   3.002
 2276SOL     OW 7147   2.069   1.556   3.615
 2276SOL    HW1 7148   2.019   1.584   3.698
 2276SOL    HW2 7149   2.118   1.471   3.633
 2277SOL     OW 7150   2.579   0.442   3.107
 2277SOL    HW1 7151   2.517   0.366   3.087
 2277SOL    HW2 7152   2.572   0.511   3.035
 2278SOL     OW 7153   2.314   0.494   2.043
 2278SOL    HW1 7154   2.381   0.564   2.067
 2278SOL    HW2 7155   2.224   0.535   2.033
 2279SOL     OW 7156   1.988   1.125   3.330
 2279SOL    HW1 7157   1.994   1.082   3.421
 2279SOL    HW2 7158   2.015   1.058   3.260
 2280SOL     OW 7159   3.173   1.040   3.074
 2280SOL    HW1 7160   3.195   0.972   3.004
 2280SOL    HW2 7161   3.110   1.108   3.035
 2281SOL     OW 7162   3.183   0.857   2.155
 2281SOL    HW1 7163   3.107   0.829   2.214
 2281SOL    HW2 7164   3.157   0.844   2.059
 2282SOL     OW 7165   3.648   1.719   3.027
 2282SOL    HW1 7166   3.709   1.753   2.955
 2282SOL    HW2 7167   3.613   1.629   3.001
 2283SOL     OW 7168   3.105   1.724   2.955
 2283SOL    HW1 7169   3.192   1.759   2.920
 2283SOL    HW2 7170   3.116   1.629   2.983
 2284SOL     OW 7171   1.953   1.254   2.874
 2284SOL    HW1 7172   1.929   1.275   2.968
 2284SOL    HW2 7173   1.880   1.200   2.832
 2285SOL     OW 7174   3.588   0.158   2.356
 2285SOL    HW1 7175   3.659   0.145   2.287
 2285SOL    HW2 7176   3.567   0.070   2.399
 2286SOL     OW 7177   3.261   1.570   2.354
 2286SOL    HW1 7178   3.321   1.605   2.281
 2286SOL    HW2 7179   3.203   1.645   2.387
 2287SOL     OW 7180   3.145   0.933   2.526
 2287SOL    HW1 7181   3.220   0.869   2.543
 2287SOL    HW2 7182   3.179   1.008   2.469
 2288SOL     OW 7183   2.660   1.278   3.273
 2288SOL    HW1 7184   2.629   1.324   3.356
 2288SOL    HW2 7185   2.593   1.293   3.200
 2289SOL     OW 7186   2.527   1.627   2.015
 2289SOL    HW1 7187   2.547   1.646   1.919
 2289SOL    HW2 7188   2.470   1.545   2.022
 2290SOL     OW 7189   3.474   1.734   3.251
 2290SOL    HW1 7190   3.535   1.731   3.171
 2290SOL    HW2 7191   3.460   1.829   3.279
 2291SOL     OW 7192   3.707   0.161   2.824
 2291SOL    HW1 7193   3.739   0.068   2.805
 2291SOL    HW2 7194   3.616   0.173   2.786
 2292SOL     OW 7195   2.116   0.305   2.578
 2292SOL    HW1 7196   2.027   0.341   2.551
 2292SOL    HW2 7197   2.121   0.303   2.678
 2293SOL     OW 7198   3.072   1.596   1.897
 2293SOL    HW1 7199   3.063   1.501   1.929
 2293SOL    HW2 7200   3.004   1.612   1.825
 2294SOL     OW 7201   2.685   1.008   3.243
 2294SOL    HW1 7202   2.740   0.989   3.162
 2294SOL    HW2 7203   2.681   1.107   3.258
 2295SOL     OW 7204   2.784   0.911   2.151
 2295SOL    HW1 7205   2.843   0.946   2.078
 2295SOL    HW2 7206   2.833   0.840   2.201
 2296SOL     OW 7207   3.349   1.639   1.908
 2296SOL    HW1 7208   3.251   1.622   1.895
 2296SOL    HW2 7209   3.394   1.643   1.819
 2297SOL     OW 7210   2.212   1.298   3.352
 2297SOL    HW1 7211   2.211   1.370   3.283
 2297SOL    HW2 7212   2.133   1.238   3.340
 2298SOL     OW 7213   3.478   1.287   3.151
 2298SOL    HW1 7214   3.533   1.261   3.230
 2298SOL    HW2 7215   3.411   1.357   3.178
 2299SOL     OW 7216   2.933   1.108   2.586
 2299SOL    HW1 7217   2.854   1.058   2.621
 2299SOL    HW2 7218   3.002   1.043   2.553
 2300SOL     OW 7219   2.887   0.240   2.827
 2300SOL    HW1 7220   2.884   0.198   2.737
 2300SOL    HW2 7221   2.886   0.169   2.897
 2301SOL     OW 7222   2.464   1.485   2.337
 2301SOL    HW1 7223   2.521   1.431   2.275
 2301SOL    HW2 7224   2.391   1.529   2.285
 2302SOL     OW 7225   3.598   0.394   3.237
 2302SOL    HW1 7226   3.672   0.461   3.239
 2302SOL    HW2 7227   3.623   0.318   3.176
 2303SOL     OW 7228   2.114   1.348   2.151
 2303SOL    HW1 7229   2.019   1.340   2.122
 2303SOL    HW2 7230   2.118   1.390   2.242
 2304SOL     OW 7231   1.965   1.001   3.573
 2304SOL    HW1 7232   1.889   0.997   3.638
 2304SOL    HW2 7233   2.051   0.987   3.621
 2305SOL     OW 7234   2.547   0.184   3.359
 2305SOL    HW1 7235   2.636   0.159   3.319
 2305SOL    HW2 7236   2.561   0.216   3.452
 2306SOL     OW 7237   1.941   0.325   1.882
 2306SOL    HW1 7238   1.857   0.300   1.834
 2306SOL    HW2 7239   1.978   0.409   1.843
 2307SOL     OW 7240   3.281   0.854   3.250
 2307SOL    HW1 7241   3.224   0.917   3.197
 2307SOL    HW2 7242   3.375   0.857   3.216
 2308SOL     OW 7243   1.918   0.152   2.151
 2308SOL    HW1 7244   1.900   0.229   2.090
 2308SOL    HW2 7245   2.008   0.113   2.130
 2309SOL     OW 7246   3.044   1.332   1.985
 2309SOL    HW1 7247   2.949   1.302   1.978
 2309SOL    HW2 7248   3.070   1.335   2.082
 2310SOL     OW 7249   2.488   0.829   3.295
 2310SOL    HW1 7250   2.545   0.910   3.284
 2310SOL    HW2 7251   2.546   0.748   3.304
 2311SOL     OW 7252   3.355   1.788   2.855
 2311SOL    HW1 7253   3.367   1.855   2.781
 2311SOL    HW2 7254   3.443   1.746   2.875
 2312SOL     OW 7255   2.577   0.563   3.561
 2312SOL    HW1 7256   2.625   0.627   3.621
 2312SOL    HW2 7257   2.595   0.469   3.592
 2313SOL     OW 7258   3.334   1.192   3.495
 2313SOL    HW1 7259   3.317   1.205   3.592
 2313SOL    HW2 7260   3.429   1.214   3.474
 2314SOL     OW 7261   2.176   1.713   3.366
 2314SOL    HW1 7262   2.106   1.777   3.395
 2314SOL    HW2 7263   2.190   1.644   3.437
 2315SOL     OW 7264   3.524   0.877   3.117
 2315SOL    HW1 7265   3.519   0.787   3.074
 2315SOL    HW2 7266   3.512   0.947   3.046
 2316SOL     OW 7267   3.083   0.316   2.321
 2316SOL    HW1 7268   3.145   0.238   2.315
 2316SOL    HW2 7269   3.109   0.373   2.400
 2317SOL     OW 7270   2.441   0.736   2.533
 2317SOL    HW1 7271   2.486   0.825   2.522
 2317SOL    HW2 7272   2.377   0.722   2.459
 2318SOL     OW 7273   3.607   0.365   3.509
 2318SOL    HW1 7274   3.596   0.382   3.411
 2318SOL    HW2 7275   3.533   0.306   3.541
 2319SOL     OW 7276   3.621   0.929   3.369
 2319SOL    HW1 7277   3.601   1.024   3.394
 2319SOL    HW2 7278   3.594   0.913   3.274
 2320SOL     OW 7279   2.731   1.361   1.914
 2320SOL    HW1 7280   2.690   1.386   2.002
 2320SOL    HW2 7281   2.746   1.444   1.860
 2321SOL     OW 7282   2.530   1.767   2.805
 2321SOL    HW1 7283   2.508   1.863   2.788
 2321SOL    HW2 7284   2.629   1.754   2.796
 2322SOL     OW 7285   2.732   0.972   2.717
 2322SOL    HW1 7286   2.783   0.894   2.752
 2322SOL    HW2 7287   2.686   1.018   2.793
 2323SOL     OW 7288   2.936   0.987   1.944
 2323SOL    HW1 7289   2.909   1.042   1.865
 2323SOL    HW2 7290   3.014   0.930   1.918
 2324SOL     OW 7291   3.694   1.559   2.710
 2324SOL    HW1 7292   3.619   1.548   2.645
 2324SOL    HW2 7293   3.682   1.496   2.787
 2325SOL     OW 7294   2.107   1.290   3.729
 2325SOL    HW1 7295   2.016   1.249   3.718
 2325SOL    HW2 7296   2.121   1.315   3.825
 2326SOL     OW 7297   1.957   1.216   2.524
 2326SOL    HW1 7298   1.990   1.178   2.611
 2326SOL    HW2 7299   2.018   1.189   2.450
 2327SOL     OW 7300   2.553   1.417   3.483
 2327SOL    HW1 7301   2.473   1.375   3.527
 2327SOL    HW2 7302   2.612   1.457   3.553
 2328SOL     OW 7303   3.667   0.178   3.094
 2328SOL    HW1 7304   3.675   0.082   3.120
 2328SOL    HW2 7305   3.682   0.187   2.995
 2329SOL     OW 7306   2.283   0.425   2.383
 2329SOL    HW1 7307   2.324   0.357   2.322
 2329SOL    HW2 7308   2.236   0.377   2.457
 2330SOL     OW 7309   3.555   1.475   2.953
 2330SOL    HW1 7310   3.475   1.460   2.895
 2330SOL    HW2 7311   3.557   1.407   3.026
 2331SOL     OW 7312   2.179   0.552   3.144
 2331SOL    HW1 7313   2.234   0.496   3.205
 2331SOL    HW2 7314   2.207   0.534   3.049
 2332SOL     OW 7315   2.696   1.571   2.532
 2332SOL    HW1 7316   2.676   1.644   2.466
 2332SOL    HW2 7317   2.617   1.511   2.540
 2333SOL     OW 7318   3.289   0.234   2.978
 2333SOL    HW1 7319   3.303   0.140   3.009
 2333SOL    HW2 7320   3.237   0.284   3.047
 2334SOL     OW 7321   2.873   5.607   2.992
 2334SOL    HW1 7322   2.809   5.546   2.945
 2334SOL    HW2 7323   2.964   5.564   2.994
 2335SOL     OW 7324   2.637   1.331   2.189
 2335SOL    HW1 7325   2.614   1.234   2.199
 2335SOL    HW2 7326   2.723   1.349   2.237
 2336SOL     OW 7327   2.477   1.553   3.157
 2336SOL    HW1 7328   2.489   1.604   3.242
 2336SOL    HW2 7329   2.565   1.547   3.109
 2337SOL     OW 7330   3.222   0.042   2.041
 2337SOL    HW1 7331   3.269  -0.026   1.986
 2337SOL    HW2 7332   3.127   0.012   2.058
 2338SOL     OW 7333   3.149   0.468   2.539
 2338SOL    HW1 7334   3.098   0.554   2.539
 2338SOL    HW2 7335   3.149   0.429   2.631
 2339SOL     OW 7336   3.449   0.199   2.752
 2339SOL    HW1 7337   3.392   0.221   2.831
 2339SOL    HW2 7338   3.451   0.278   2.690
 2340SOL     OW 7339   1.901   1.059   2.174
 2340SOL    HW1 7340   1.999   1.059   2.154
 2340SOL    HW2 7341   1.871   0.965   2.192
 2341SOL     OW 7342   2.748   1.669   2.196
 2341SOL    HW1 7343   2.671   1.648   2.135
 2341SOL    HW2 7344   2.722   1.743   2.258
 2342SOL     OW 7345   2.067   0.614   3.858
 2342SOL    HW1 7346   1.978   0.610   3.904
 2342SOL    HW2 7347   2.056   0.593   3.761
 2343SOL     OW 7348   2.083   0.279   4.718
 2343SOL    HW1 7349   2.116   0.248   4.807
 2343SOL    HW2 7350   1.990   0.247   4.704
 2344SOL     OW 7351   1.861   0.393   4.359
 2344SOL    HW1 7352   1.777   0.420   4.407
 2344SOL    HW2 7353   1.844   0.311   4.305
 2345SOL     OW 7354   2.428   1.308   4.919
 2345SOL    HW1 7355   2.343   1.316   4.868
 2345SOL    HW2 7356   2.456   1.399   4.952
 2346SOL     OW 7357   3.432   1.518   4.434
 2346SOL    HW1 7358   3.390   1.492   4.521
 2346SOL    HW2 7359   3.361   1.527   4.364
 2347SOL     OW 7360   3.041   0.692   4.455
 2347SOL    HW1 7361   2.998   0.704   4.365
 2347SOL    HW2 7362   2.979   0.724   4.526
 2348SOL     OW 7363   3.661   0.586   3.937
 2348SOL    HW1 7364   3.624   0.584   3.845
 2348SOL    HW2 7365   3.611   0.521   3.995
 2349SOL     OW 7366   2.583   1.135   4.763
 2349SOL    HW1 7367   2.525   1.170   4.836
 2349SOL    HW2 7368   2.634   1.210   4.721
 2350SOL     OW 7369   2.740   0.756   5.541
 2350SOL    HW1 7370   2.737   0.827   5.612
 2350SOL    HW2 7371   2.763   0.798   5.453
 2351SOL     OW 7372   2.541   0.994   4.370
 2351SOL    HW1 7373   2.615   0.985   4.437
 2351SOL    HW2 7374   2.470   1.053   4.408
 2352SOL     OW 7375   2.574   1.157   5.561
 2352SOL    HW1 7376   2.630   1.234   5.591
 2352SOL    HW2 7377   2.498   1.191   5.506
 2353SOL     OW 7378   2.192   1.414   4.789
 2353SOL    HW1 7379   2.112   1.377   4.742
 2353SOL    HW2 7380   2.244   1.471   4.726
 2354SOL     OW 7381   3.318   1.502   5.086
 2354SOL    HW1 7382   3.376   1.583   5.096
 2354SOL    HW2 7383   3.243   1.506   5.152
 2355SOL     OW 7384   2.305   0.403   5.220
 2355SOL    HW1 7385   2.393   0.355   5.223
 2355SOL    HW2 7386   2.231   0.336   5.225
 2356SOL     OW 7387   3.459   0.438   4.474
 2356SOL    HW1 7388   3.377   0.444   4.417
 2356SOL    HW2 7389   3.463   0.516   4.536
 2357SOL     OW 7390   2.092   1.711   4.180
 2357SOL    HW1 7391   2.122   1.790   4.234
 2357SOL    HW2 7392   2.170   1.676   4.126
 2358SOL     OW 7393   3.002   1.338   5.426
 2358SOL    HW1 7394   3.054   1.331   5.511
 2358SOL    HW2 7395   2.946   1.256   5.415
 2359SOL     OW 7396   2.083   1.440   4.248
 2359SOL    HW1 7397   2.086   1.540   4.253
 2359SOL    HW2 7398   2.041   1.404   4.331
 2360SOL     OW 7399   2.119   1.090   4.610
 2360SOL    HW1 7400   2.135   0.998   4.645
 2360SOL    HW2 7401   2.074   1.145   4.681
 2361SOL     OW 7402   2.442   1.805   5.137
 2361SOL    HW1 7403   2.366   1.780   5.197
 2361SOL    HW2 7404   2.483   1.891   5.168
 2362SOL     OW 7405   2.429   1.005   3.868
 2362SOL    HW1 7406   2.486   1.041   3.793
 2362SOL    HW2 7407   2.473   1.025   3.955
 2363SOL     OW 7408   3.464   0.121   5.198
 2363SOL    HW1 7409   3.499   0.198   5.143
 2363SOL    HW2 7410   3.442   0.153   5.290
 2364SOL     OW 7411   1.969   0.672   4.290
 2364SOL    HW1 7412   1.950   0.576   4.310
 2364SOL    HW2 7413   1.968   0.725   4.374
 2365SOL     OW 7414   3.710   1.747   4.045
 2365SOL    HW1 7415   3.775   1.718   4.116
 2365SOL    HW2 7416   3.720   1.845   4.028
 2366SOL     OW 7417   1.910   1.582   3.832
 2366SOL    HW1 7418   1.892   1.486   3.854
 2366SOL    HW2 7419   1.893   1.638   3.913
 2367SOL     OW 7420   3.550   0.933   4.373
 2367SOL    HW1 7421   3.629   0.875   4.354
 2367SOL    HW2 7422   3.527   0.986   4.291
 2368SOL     OW 7423   3.525   1.110   4.151
 2368SOL    HW1 7424   3.617   1.102   4.112
 2368SOL    HW2 7425   3.527   1.178   4.224
 2369SOL     OW 7426   1.989   0.744   5.311
 2369SOL    HW1 7427   2.086   0.768   5.310
 2369SOL    HW2 7428   1.934   0.828   5.308
 2370SOL     OW 7429   2.475   1.393   4.457
 2370SOL    HW1 7430   2.432   1.304   4.473
 2370SOL    HW2 7431   2.464   1.419   4.361
 2371SOL     OW 7432   3.146   1.227   5.145
 2371SOL    HW1 7433   3.169   1.155   5.079
 2371SOL    HW2 7434   3.209   1.223   5.222
 2372SOL     OW 7435   2.681   0.011   4.228
 2372SOL    HW1 7436   2.726   0.096   4.203
 2372SOL    HW2 7437   2.582   0.026   4.234
 2373SOL     OW 7438   2.036   0.962   5.002
 2373SOL    HW1 7439   2.126   0.920   4.992
 2373SOL    HW2 7440   1.972   0.920   4.939
 2374SOL     OW 7441   3.407   1.011   3.925
 2374SOL    HW1 7442   3.333   0.950   3.954
 2374SOL    HW2 7443   3.452   1.049   4.005
 2375SOL     OW 7444   3.141   1.790   5.353
 2375SOL    HW1 7445   3.066   1.854   5.339
 2375SOL    HW2 7446   3.123   1.705   5.303
 2376SOL     OW 7447   2.209   0.236   5.569
 2376SOL    HW1 7448   2.267   0.316   5.584
 2376SOL    HW2 7449   2.113   0.261   5.583
 2377SOL     OW 7450   3.330   1.416   4.667
 2377SOL    HW1 7451   3.265   1.439   4.740
 2377SOL    HW2 7452   3.317   1.321   4.640
 2378SOL     OW 7453   3.517   1.758   4.294
 2378SOL    HW1 7454   3.486   1.723   4.206
 2378SOL    HW2 7455   3.498   1.690   4.365
 2379SOL     OW 7456   2.451   0.701   3.990
 2379SOL    HW1 7457   2.486   0.790   3.962
 2379SOL    HW2 7458   2.386   0.713   4.065
 2380SOL     OW 7459   3.149   0.357   4.659
 2380SOL    HW1 7460   3.053   0.329   4.666
 2380SOL    HW2 7461   3.203   0.305   4.725
 2381SOL     OW 7462   3.444   1.674   4.032
 2381SOL    HW1 7463   3.541   1.697   4.029
 2381SOL    HW2 7464   3.411   1.657   3.939
 2382SOL     OW 7465   2.670   0.553   5.202
 2382SOL    HW1 7466   2.640   0.649   5.198
 2382SOL    HW2 7467   2.626   0.502   5.128
 2383SOL     OW 7468   3.248   0.471   5.406
 2383SOL    HW1 7469   3.249   0.523   5.491
 2383SOL    HW2 7470   3.316   0.398   5.411
 2384SOL     OW 7471   2.834   0.887   5.310
 2384SOL    HW1 7472   2.884   0.808   5.273
 2384SOL    HW2 7473   2.799   0.943   5.235
 2385SOL     OW 7474   2.863   0.399   4.961
 2385SOL    HW1 7475   2.789   0.439   5.016
 2385SOL    HW2 7476   2.834   0.397   4.865
 2386SOL     OW 7477   1.947   0.839   4.506
 2386SOL    HW1 7478   2.036   0.824   4.548
 2386SOL    HW2 7479   1.902   0.917   4.551
 2387SOL     OW 7480   1.985   1.875   5.320
 2387SOL    HW1 7481   1.993   1.851   5.417
 2387SOL    HW2 7482   1.912   1.820   5.279
 2388SOL     OW 7483   2.735   0.338   3.860
 2388SOL    HW1 7484   2.791   0.410   3.819
 2388SOL    HW2 7485   2.792   0.277   3.915
 2389SOL     OW 7486   3.543   0.569   5.558
 2389SOL    HW1 7487   3.516   0.651   5.507
 2389SOL    HW2 7488   3.587   0.504   5.497
 2390SOL     OW 7489   3.248   1.144   4.248
 2390SOL    HW1 7490   3.333   1.135   4.196
 2390SOL    HW2 7491   3.190   1.212   4.204
 2391SOL     OW 7492   2.406   0.160   4.635
 2391SOL    HW1 7493   2.414   0.188   4.730
 2391SOL    HW2 7494   2.416   0.241   4.576
 2392SOL     OW 7495   2.849   1.450   4.183
 2392SOL    HW1 7496   2.824   1.536   4.139
 2392SOL    HW2 7497   2.831   1.456   4.281
 2393SOL     OW 7498   2.197   1.802   4.618
 2393SOL    HW1 7499   2.251   1.719   4.613
 2393SOL    HW2 7500   2.238   1.873   4.560
 2394SOL     OW 7501   3.660   1.056   4.595
 2394SOL    HW1 7502   3.606   1.028   4.516
 2394SOL    HW2 7503   3.599   1.065   4.674
 2395SOL     OW 7504   3.086   1.527   5.235
 2395SOL    HW1 7505   3.076   1.455   5.304
 2395SOL    HW2 7506   3.020   1.512   5.161
 2396SOL     OW 7507   2.179   0.964   3.986
 2396SOL    HW1 7508   2.267   0.986   3.944
 2396SOL    HW2 7509   2.158   0.868   3.972
 2397SOL     OW 7510   3.369   0.724   4.433
 2397SOL    HW1 7511   3.334   0.703   4.524
 2397SOL    HW2 7512   3.418   0.812   4.436
 2398SOL     OW 7513   2.331   1.274   5.462
 2398SOL    HW1 7514   2.308   1.278   5.365
 2398SOL    HW2 7515   2.246   1.271   5.516
 2399SOL     OW 7516   2.991   1.782   3.944
 2399SOL    HW1 7517   2.910   1.757   3.998
 2399SOL    HW2 7518   3.019   1.705   3.887
 2400SOL     OW 7519   2.064   0.265   5.219
 2400SOL    HW1 7520   1.999   0.340   5.235
 2400SOL    HW2 7521   2.038   0.186   5.274
 2401SOL     OW 7522   3.490   1.381   3.804
 2401SOL    HW1 7523   3.450   1.473   3.798
 2401SOL    HW2 7524   3.418   1.313   3.791
 2402SOL     OW 7525   2.346   1.674   4.073
 2402SOL    HW1 7526   2.366   1.759   4.122
 2402SOL    HW2 7527   2.414   1.660   4.001
 2403SOL     OW 7528   3.262   0.095   4.172
 2403SOL    HW1 7529   3.255   0.074   4.074
 2403SOL    HW2 7530   3.358   0.115   4.194
 2404SOL     OW 7531   2.122   1.786   4.933
 2404SOL    HW1 7532   2.175   1.714   4.979
 2404SOL    HW2 7533   2.142   1.784   4.835
 2405SOL     OW 7534   2.798   1.704   4.620
 2405SOL    HW1 7535   2.881   1.661   4.654
 2405SOL    HW2 7536   2.761   1.649   4.545
 2406SOL     OW 7537   2.249   0.692   4.186
 2406SOL    HW1 7538   2.265   0.594   4.201
 2406SOL    HW2 7539   2.156   0.715   4.214
 2407SOL     OW 7540   3.384   0.223   5.452
 2407SOL    HW1 7541   3.397   0.238   5.550
 2407SOL    HW2 7542   3.300   0.170   5.438
 2408SOL     OW 7543   2.483   0.094   3.847
 2408SOL    HW1 7544   2.583   0.092   3.840
 2408SOL    HW2 7545   2.443   0.069   3.759
 2409SOL     OW 7546   2.606   0.245   5.460
 2409SOL    HW1 7547   2.701   0.213   5.471
 2409SOL    HW2 7548   2.601   0.342   5.481
 2410SOL     OW 7549   2.733   1.510   4.915
 2410SOL    HW1 7550   2.715   1.469   4.826
 2410SOL    HW2 7551   2.806   1.460   4.961
 2411SOL     OW 7552   3.200   0.585   5.158
 2411SOL    HW1 7553   3.229   0.555   5.249
 2411SOL    HW2 7554   3.231   0.678   5.142
 2412SOL     OW 7555   2.683   1.377   4.668
 2412SOL    HW1 7556   2.775   1.370   4.630
 2412SOL    HW2 7557   2.617   1.393   4.595
 2413SOL     OW 7558   2.788   0.495   4.635
 2413SOL    HW1 7559   2.760   0.496   4.539
 2413SOL    HW2 7560   2.830   0.406   4.656
 2414SOL     OW 7561   2.407   0.059   4.214
 2414SOL    HW1 7562   2.328   0.058   4.275
 2414SOL    HW2 7563   2.402   0.140   4.156
 2415SOL     OW 7564   3.286   1.200   3.765
 2415SOL    HW1 7565   3.325   1.126   3.820
 2415SOL    HW2 7566   3.200   1.230   3.805
 2416SOL     OW 7567   2.159   0.039   3.915
 2416SOL    HW1 7568   2.215   0.115   3.884
 2416SOL    HW2 7569   2.217  -0.030   3.959
 2417SOL     OW 7570   2.796   0.258   4.173
 2417SOL    HW1 7571   2.745   0.338   4.140
 2417SOL    HW2 7572   2.894   0.280   4.175
 2418SOL     OW 7573   2.937   0.670   5.188
 2418SOL    HW1 7574   2.866   0.600   5.200
 2418SOL    HW2 7575   3.026   0.625   5.177
 2419SOL     OW 7576   3.082   1.570   4.513
 2419SOL    HW1 7577   3.092   1.644   4.447
 2419SOL    HW2 7578   3.140   1.588   4.593
 2420SOL     OW 7579   2.328   1.154   4.446
 2420SOL    HW1 7580   2.264   1.133   4.520
 2420SOL    HW2 7581   2.282   1.144   4.358
 2421SOL     OW 7582   3.121   1.790   4.334
 2421SOL    HW1 7583   3.183   1.850   4.284
 2421SOL    HW2 7584   3.045   1.844   4.371
 2422SOL     OW 7585   2.890   0.532   3.753
 2422SOL    HW1 7586   2.844   0.619   3.738
 2422SOL    HW2 7587   2.952   0.539   3.830
 2423SOL     OW 7588   1.951   0.553   5.122
 2423SOL    HW1 7589   2.044   0.546   5.086
 2423SOL    HW2 7590   1.947   0.625   5.190
 2424SOL     OW 7591   2.417   0.216   4.904
 2424SOL    HW1 7592   2.471   0.171   4.975
 2424SOL    HW2 7593   2.320   0.214   4.929
 2425SOL     OW 7594   2.732   0.461   4.375
 2425SOL    HW1 7595   2.721   0.538   4.311
 2425SOL    HW2 7596   2.751   0.378   4.323
 2426SOL     OW 7597   2.889   0.044   4.464
 2426SOL    HW1 7598   2.825   0.056   4.388
 2426SOL    HW2 7599   2.856  -0.027   4.525
 2427SOL     OW 7600   3.313   1.158   4.578
 2427SOL    HW1 7601   3.242   1.087   4.572
 2427SOL    HW2 7602   3.350   1.176   4.487
 2428SOL     OW 7603   3.323   0.607   4.688
 2428SOL    HW1 7604   3.258   0.532   4.690
 2428SOL    HW2 7605   3.384   0.600   4.767
 2429SOL     OW 7606   3.713   0.804   4.096
 2429SOL    HW1 7607   3.764   0.760   4.170
 2429SOL    HW2 7608   3.685   0.735   4.029
 2430SOL     OW 7609   2.359   1.423   3.854
 2430SOL    HW1 7610   2.285   1.408   3.919
 2430SOL    HW2 7611   2.356   1.354   3.782
 2431SOL     OW 7612   3.547   1.278   4.355
 2431SOL    HW1 7613   3.644   1.273   4.377
 2431SOL    HW2 7614   3.511   1.366   4.385
 2432SOL     OW 7615   3.249   0.578   3.791
 2432SOL    HW1 7616   3.185   0.548   3.862
 2432SOL    HW2 7617   3.342   0.570   3.824
 2433SOL     OW 7618   2.375   0.260   4.032
 2433SOL    HW1 7619   2.424   0.202   3.966
 2433SOL    HW2 7620   2.356   0.349   3.990
 2434SOL     OW 7621   3.610   1.243   5.281
 2434SOL    HW1 7622   3.699   1.198   5.287
 2434SOL    HW2 7623   3.620   1.339   5.310
 2435SOL     OW 7624   2.913   1.357   5.067
 2435SOL    HW1 7625   2.830   1.325   5.112
 2435SOL    HW2 7626   2.991   1.306   5.102
 2436SOL     OW 7627   3.473   1.632   5.395
 2436SOL    HW1 7628   3.448   1.670   5.306
 2436SOL    HW2 7629   3.559   1.580   5.386
 2437SOL     OW 7630   3.010   1.228   4.828
 2437SOL    HW1 7631   2.940   1.243   4.898
 2437SOL    HW2 7632   2.976   1.259   4.739
 2438SOL     OW 7633   3.486   1.100   4.802
 2438SOL    HW1 7634   3.481   1.166   4.878
 2438SOL    HW2 7635   3.408   1.115   4.740
 2439SOL     OW 7636   2.796   0.078   5.112
 2439SOL    HW1 7637   2.815   0.064   5.015
 2439SOL    HW2 7638   2.871   0.130   5.154
 2440SOL     OW 7639   2.840   1.115   5.454
 2440SOL    HW1 7640   2.743   1.131   5.475
 2440SOL    HW2 7641   2.848   1.034   5.395
 2441SOL     OW 7642   2.573   1.055   4.097
 2441SOL    HW1 7643   2.564   1.035   4.195
 2441SOL    HW2 7644   2.648   0.999   4.060
 2442SOL     OW 7645   2.260   0.815   4.973
 2442SOL    HW1 7646   2.343   0.830   5.025
 2442SOL    HW2 7647   2.230   0.720   4.985
 2443SOL     OW 7648   3.127   0.368   5.011
 2443SOL    HW1 7649   3.162   0.449   5.056
 2443SOL    HW2 7650   3.031   0.383   4.984
 2444SOL     OW 7651   1.945   1.570   5.075
 2444SOL    HW1 7652   1.915   1.641   5.011
 2444SOL    HW2 7653   2.045   1.563   5.072
 2445SOL     OW 7654   2.181   1.131   4.212
 2445SOL    HW1 7655   2.208   1.216   4.167
 2445SOL    HW2 7656   2.187   1.056   4.146
 2446SOL     OW 7657   2.397   0.537   4.579
 2446SOL    HW1 7658   2.410   0.599   4.501
 2446SOL    HW2 7659   2.464   0.557   4.650
 2447SOL     OW 7660   3.106   1.366   4.115
 2447SOL    HW1 7661   3.167   1.435   4.154
 2447SOL    HW2 7662   3.013   1.382   4.148
 2448SOL     OW 7663   3.157   1.464   4.870
 2448SOL    HW1 7664   3.213   1.471   4.952
 2448SOL    HW2 7665   3.103   1.380   4.873
 2449SOL     OW 7666   3.444   0.624   4.191
 2449SOL    HW1 7667   3.406   0.648   4.281
 2449SOL    HW2 7668   3.462   0.708   4.140
 2450SOL     OW 7669   2.214   1.527   5.031
 2450SOL    HW1 7670   2.200   1.482   4.943
 2450SOL    HW2 7671   2.312   1.545   5.044
 2451SOL     OW 7672   2.279   0.740   5.331
 2451SOL    HW1 7673   2.342   0.788   5.270
 2451SOL    HW2 7674   2.318   0.652   5.358
 2452SOL     OW 7675   3.467   0.785   5.414
 2452SOL    HW1 7676   3.376   0.826   5.412
 2452SOL    HW2 7677   3.524   0.826   5.343
 2453SOL     OW 7678   2.869   0.132   5.477
 2453SOL    HW1 7679   2.918   0.217   5.462
 2453SOL    HW2 7680   2.921   0.056   5.438
 2454SOL     OW 7681   2.354   0.015   5.483
 2454SOL    HW1 7682   2.306  -0.034   5.411
 2454SOL    HW2 7683   2.306   0.101   5.503
 2455SOL     OW 7684   2.436   0.882   4.754
 2455SOL    HW1 7685   2.489   0.967   4.757
 2455SOL    HW2 7686   2.389   0.870   4.841
 2456SOL     OW 7687   3.214   0.857   4.739
 2456SOL    HW1 7688   3.135   0.865   4.677
 2456SOL    HW2 7689   3.256   0.767   4.728
 2457SOL     OW 7690   3.059   0.502   3.976
 2457SOL    HW1 7691   3.074   0.425   4.037
 2457SOL    HW2 7692   3.024   0.580   4.028
 2458SOL     OW 7693   2.152   0.189   4.969
 2458SOL    HW1 7694   2.120   0.227   5.056
 2458SOL    HW2 7695   2.137   0.090   4.969
 2459SOL     OW 7696   1.897   1.310   4.999
 2459SOL    HW1 7697   1.938   1.248   5.066
 2459SOL    HW2 7698   1.913   1.405   5.027
 2460SOL     OW 7699   2.566   0.622   4.770
 2460SOL    HW1 7700   2.656   0.605   4.729
 2460SOL    HW2 7701   2.545   0.719   4.766
 2461SOL     OW 7702   3.592   0.958  -0.006
 2461SOL    HW1 7703   3.547   0.891  -0.064
 2461SOL    HW2 7704   3.532   0.984   0.069
 2462SOL     OW 7705   2.168   0.051   4.357
 2462SOL    HW1 7706   2.144   0.147   4.371
 2462SOL    HW2 7707   2.182   0.006   4.445
 2463SOL     OW 7708   3.497   0.386   4.077
 2463SOL    HW1 7709   3.517   0.313   4.142
 2463SOL    HW2 7710   3.467   0.468   4.126
 2464SOL     OW 7711   2.868   0.753   4.680
 2464SOL    HW1 7712   2.861   0.770   4.779
 2464SOL    HW2 7713   2.849   0.657   4.661
 2465SOL     OW 7714   2.838   1.554   5.447
 2465SOL    HW1 7715   2.822   1.606   5.362
 2465SOL    HW2 7716   2.895   1.474   5.427
 2466SOL     OW 7717   3.707   1.502   5.328
 2466SOL    HW1 7718   3.733   1.530   5.235
 2466SOL    HW2 7719   3.788   1.504   5.387
 2467SOL     OW 7720   2.210   0.915   5.534
 2467SOL    HW1 7721   2.290   0.946   5.586
 2467SOL    HW2 7722   2.239   0.851   5.464
 2468SOL     OW 7723   3.396   0.260   3.852
 2468SOL    HW1 7724   3.325   0.196   3.882
 2468SOL    HW2 7725   3.431   0.311   3.931
 2469SOL     OW 7726   3.136   0.826   3.739
 2469SOL    HW1 7727   3.175   0.735   3.754
 2469SOL    HW2 7728   3.175   0.865   3.655
 2470SOL     OW 7729   2.935   1.343   4.581
 2470SOL    HW1 7730   2.938   1.265   4.519
 2470SOL    HW2 7731   2.993   1.416   4.545
 2471SOL     OW 7732   2.178   0.813   4.657
 2471SOL    HW1 7733   2.274   0.840   4.666
 2471SOL    HW2 7734   2.167   0.719   4.690
 2472SOL     OW 7735   2.174   0.532   4.726
 2472SOL    HW1 7736   2.139   0.438   4.721
 2472SOL    HW2 7737   2.257   0.540   4.671
 2473SOL     OW 7738   2.996   0.368   5.425
 2473SOL    HW1 7739   2.942   0.425   5.487
 2473SOL    HW2 7740   3.087   0.408   5.412
 2474SOL     OW 7741   3.027   0.199   5.206
 2474SOL    HW1 7742   3.010   0.263   5.281
 2474SOL    HW2 7743   3.069   0.248   5.130
 2475SOL     OW 7744   1.861   1.310   3.904
 2475SOL    HW1 7745   1.769   1.332   3.871
 2475SOL    HW2 7746   1.861   1.220   3.947
 2476SOL     OW 7747   1.933   1.780   4.658
 2476SOL    HW1 7748   1.902   1.697   4.613
 2476SOL    HW2 7749   2.030   1.795   4.639
 2477SOL     OW 7750   2.352   1.571   4.631
 2477SOL    HW1 7751   2.418   1.641   4.657
 2477SOL    HW2 7752   2.394   1.508   4.566
 2478SOL     OW 7753   2.813   0.759   4.949
 2478SOL    HW1 7754   2.879   0.748   5.023
 2478SOL    HW2 7755   2.723   0.782   4.988
 2479SOL     OW 7756   1.908   0.560   4.844
 2479SOL    HW1 7757   1.992   0.559   4.789
 2479SOL    HW2 7758   1.931   0.559   4.941
 2480SOL     OW 7759   2.061   0.525   5.459
 2480SOL    HW1 7760   2.139   0.492   5.406
 2480SOL    HW2 7761   2.021   0.604   5.413
 2481SOL     OW 7762   3.239   0.931   5.378
 2481SOL    HW1 7763   3.267   1.027   5.378
 2481SOL    HW2 7764   3.233   0.897   5.284
 2482SOL     OW 7765   2.636   0.473   4.078
 2482SOL    HW1 7766   2.655   0.438   3.986
 2482SOL    HW2 7767   2.596   0.564   4.072
 2483SOL     OW 7768   3.501   0.598   4.896
 2483SOL    HW1 7769   3.486   0.549   4.981
 2483SOL    HW2 7770   3.594   0.581   4.864
 2484SOL     OW 7771   2.088   1.543   5.448
 2484SOL    HW1 7772   2.080   1.617   5.515
 2484SOL    HW2 7773   2.103   1.456   5.496
 2485SOL     OW 7774   2.564   0.444   4.977
 2485SOL    HW1 7775   2.509   0.367   4.942
 2485SOL    HW2 7776   2.562   0.519   4.911
 2486SOL     OW 7777   2.774   1.688   5.214
 2486SOL    HW1 7778   2.757   1.638   5.129
 2486SOL    HW2 7779   2.777   1.786   5.195
 2487SOL     OW 7780   2.311   0.487   3.885
 2487SOL    HW1 7781   2.379   0.553   3.915
 2487SOL    HW2 7782   2.220   0.529   3.887
 2488SOL     OW 7783   1.994   1.140   5.200
 2488SOL    HW1 7784   2.004   1.100   5.291
 2488SOL    HW2 7785   2.015   1.070   5.131
 2489SOL     OW 7786   3.176   1.038   4.938
 2489SOL    HW1 7787   3.199   0.970   4.868
 2489SOL    HW2 7788   3.113   1.105   4.899
 2490SOL     OW 7789   3.199   0.860   4.007
 2490SOL    HW1 7790   3.131   0.832   4.076
 2490SOL    HW2 7791   3.160   0.850   3.916
 2491SOL     OW 7792   3.628   1.718   4.885
 2491SOL    HW1 7793   3.690   1.762   4.819
 2491SOL    HW2 7794   3.607   1.625   4.854
 2492SOL     OW 7795   3.101   1.726   4.806
 2492SOL    HW1 7796   3.190   1.762   4.777
 2492SOL    HW2 7797   3.112   1.633   4.840
 2493SOL     OW 7798   1.942   1.270   4.732
 2493SOL    HW1 7799   1.922   1.282   4.829
 2493SOL    HW2 7800   1.880   1.201   4.694
 2494SOL     OW 7801   2.555   1.676   5.481
 2494SOL    HW1 7802   2.496   1.756   5.468
 2494SOL    HW2 7803   2.641   1.690   5.432
 2495SOL     OW 7804   3.579   0.153   4.218
 2495SOL    HW1 7805   3.653   0.141   4.153
 2495SOL    HW2 7806   3.562   0.066   4.265
 2496SOL     OW 7807   3.258   1.574   4.215
 2496SOL    HW1 7808   3.319   1.610   4.144
 2496SOL    HW2 7809   3.202   1.648   4.252
 2497SOL     OW 7810   2.006   1.789  -0.017
 2497SOL    HW1 7811   1.951   1.718   0.027
 2497SOL    HW2 7812   2.061   1.836   0.052
 2498SOL     OW 7813   3.155   0.967   4.435
 2498SOL    HW1 7814   3.155   0.870   4.410
 2498SOL    HW2 7815   3.189   1.020   4.358
 2499SOL     OW 7816   2.656   1.292   5.152
 2499SOL    HW1 7817   2.625   1.338   5.235
 2499SOL    HW2 7818   2.582   1.288   5.086
 2500SOL     OW 7819   2.547   1.613   3.894
 2500SOL    HW1 7820   2.546   1.673   3.815
 2500SOL    HW2 7821   2.487   1.534   3.877
 2501SOL     OW 7822   3.474   1.725   5.114
 2501SOL    HW1 7823   3.530   1.726   5.031
 2501SOL    HW2 7824   3.463   1.819   5.147
 2502SOL     OW 7825   3.705   0.164   4.686
 2502SOL    HW1 7826   3.736   0.071   4.666
 2502SOL    HW2 7827   3.612   0.176   4.649
 2503SOL     OW 7828   2.113   0.304   4.439
 2503SOL    HW1 7829   2.028   0.350   4.413
 2503SOL    HW2 7830   2.121   0.302   4.538
 2504SOL     OW 7831   3.073   1.588   3.763
 2504SOL    HW1 7832   3.064   1.496   3.802
 2504SOL    HW2 7833   2.995   1.605   3.702
 2505SOL     OW 7834   2.763   1.048   5.100
 2505SOL    HW1 7835   2.687   0.987   5.076
 2505SOL    HW2 7836   2.728   1.138   5.123
 2506SOL     OW 7837   2.757   0.902   3.958
 2506SOL    HW1 7838   2.827   0.956   3.912
 2506SOL    HW2 7839   2.799   0.844   4.027
 2507SOL     OW 7840   3.350   1.631   3.768
 2507SOL    HW1 7841   3.251   1.616   3.760
 2507SOL    HW2 7842   3.391   1.637   3.677
 2508SOL     OW 7843   2.220   1.309   5.219
 2508SOL    HW1 7844   2.222   1.383   5.152
 2508SOL    HW2 7845   2.143   1.249   5.200
 2509SOL     OW 7846   3.480   1.290   5.010
 2509SOL    HW1 7847   3.538   1.266   5.087
 2509SOL    HW2 7848   3.412   1.358   5.038
 2510SOL     OW 7849   2.922   1.114   4.441
 2510SOL    HW1 7850   2.846   1.060   4.478
 2510SOL    HW2 7851   3.002   1.056   4.431
 2511SOL     OW 7852   2.895   0.239   4.680
 2511SOL    HW1 7853   2.897   0.187   4.595
 2511SOL    HW2 7854   2.887   0.176   4.758
 2512SOL     OW 7855   2.462   1.461   4.199
 2512SOL    HW1 7856   2.520   1.422   4.128
 2512SOL    HW2 7857   2.412   1.539   4.162
 2513SOL     OW 7858   3.603   0.390   5.116
 2513SOL    HW1 7859   3.672   0.462   5.111
 2513SOL    HW2 7860   3.623   0.321   5.046
 2514SOL     OW 7861   2.115   1.358   3.995
 2514SOL    HW1 7862   2.019   1.345   3.971
 2514SOL    HW2 7863   2.121   1.394   4.088
 2515SOL     OW 7864   1.979   1.045   5.462
 2515SOL    HW1 7865   1.898   1.014   5.511
 2515SOL    HW2 7866   2.059   0.994   5.495
 2516SOL     OW 7867   2.546   0.167   5.206
 2516SOL    HW1 7868   2.638   0.151   5.168
 2516SOL    HW2 7869   2.554   0.195   5.301
 2517SOL     OW 7870   1.949   0.318   3.749
 2517SOL    HW1 7871   1.853   0.298   3.730
 2517SOL    HW2 7872   1.975   0.400   3.698
 2518SOL     OW 7873   3.278   0.850   5.116
 2518SOL    HW1 7874   3.224   0.913   5.061
 2518SOL    HW2 7875   3.374   0.857   5.090
 2519SOL     OW 7876   1.923   0.146   4.019
 2519SOL    HW1 7877   1.913   0.234   3.972
 2519SOL    HW2 7878   2.012   0.107   3.998
 2520SOL     OW 7879   3.045   1.326   3.852
 2520SOL    HW1 7880   2.967   1.264   3.852
 2520SOL    HW2 7881   3.075   1.342   3.947
 2521SOL     OW 7882   3.353   1.803   4.720
 2521SOL    HW1 7883   3.371   1.872   4.649
 2521SOL    HW2 7884   3.439   1.778   4.764
 2522SOL     OW 7885   2.591   0.524   5.464
 2522SOL    HW1 7886   2.624   0.606   5.510
 2522SOL    HW2 7887   2.616   0.528   5.367
 2523SOL     OW 7888   3.337   1.188   5.356
 2523SOL    HW1 7889   3.322   1.204   5.454
 2523SOL    HW2 7890   3.432   1.210   5.333
 2524SOL     OW 7891   2.228   1.742   5.297
 2524SOL    HW1 7892   2.144   1.795   5.286
 2524SOL    HW2 7893   2.205   1.650   5.331
 2525SOL     OW 7894   3.524   0.877   4.969
 2525SOL    HW1 7895   3.514   0.788   4.924
 2525SOL    HW2 7896   3.509   0.950   4.902
 2526SOL     OW 7897   3.076   0.308   4.182
 2526SOL    HW1 7898   3.138   0.229   4.180
 2526SOL    HW2 7899   3.102   0.368   4.257
 2527SOL     OW 7900   2.433   0.734   4.391
 2527SOL    HW1 7901   2.482   0.821   4.387
 2527SOL    HW2 7902   2.369   0.727   4.314
 2528SOL     OW 7903   3.613   0.357   5.389
 2528SOL    HW1 7904   3.610   0.379   5.292
 2528SOL    HW2 7905   3.532   0.304   5.415
 2529SOL     OW 7906   3.588   0.932   5.226
 2529SOL    HW1 7907   3.597   1.030   5.245
 2529SOL    HW2 7908   3.579   0.918   5.128
 2530SOL     OW 7909   2.696   1.372   3.765
 2530SOL    HW1 7910   2.678   1.368   3.863
 2530SOL    HW2 7911   2.744   1.458   3.744
 2531SOL     OW 7912   2.524   1.774   4.667
 2531SOL    HW1 7913   2.494   1.867   4.642
 2531SOL    HW2 7914   2.622   1.766   4.654
 2532SOL     OW 7915   2.726   0.973   4.577
 2532SOL    HW1 7916   2.777   0.894   4.612
 2532SOL    HW2 7917   2.682   1.020   4.653
 2533SOL     OW 7918   2.947   1.019   3.800
 2533SOL    HW1 7919   2.915   1.057   3.713
 2533SOL    HW2 7920   3.015   0.948   3.782
 2534SOL     OW 7921   3.691   1.546   4.566
 2534SOL    HW1 7922   3.610   1.543   4.508
 2534SOL    HW2 7923   3.671   1.500   4.652
 2535SOL     OW 7924   2.088   1.292  -0.015
 2535SOL    HW1 7925   2.035   1.216  -0.053
 2535SOL    HW2 7926   2.072   1.298   0.083
 2536SOL     OW 7927   1.961   1.207   4.389
 2536SOL    HW1 7928   1.995   1.172   4.476
 2536SOL    HW2 7929   2.025   1.184   4.316
 2537SOL     OW 7930   2.544   1.418   5.366
 2537SOL    HW1 7931   2.462   1.373   5.403
 2537SOL    HW2 7932   2.550   1.511   5.403
 2538SOL     OW 7933   3.657   0.182   4.955
 2538SOL    HW1 7934   3.700   0.097   4.988
 2538SOL    HW2 7935   3.672   0.191   4.857
 2539SOL     OW 7936   2.268   0.430   4.237
 2539SOL    HW1 7937   2.323   0.364   4.186
 2539SOL    HW2 7938   2.230   0.386   4.318
 2540SOL     OW 7939   3.564   1.466   4.802
 2540SOL    HW1 7940   3.478   1.454   4.753
 2540SOL    HW2 7941   3.567   1.403   4.880
 2541SOL     OW 7942   2.193   0.549   5.012
 2541SOL    HW1 7943   2.257   0.506   5.076
 2541SOL    HW2 7944   2.221   0.528   4.918
 2542SOL     OW 7945   2.690   1.584   4.400
 2542SOL    HW1 7946   2.667   1.658   4.337
 2542SOL    HW2 7947   2.612   1.522   4.409
 2543SOL     OW 7948   3.295   0.228   4.850
 2543SOL    HW1 7949   3.340   0.154   4.900
 2543SOL    HW2 7950   3.237   0.281   4.912
 2544SOL     OW 7951   2.875   5.605   4.852
 2544SOL    HW1 7952   2.811   5.548   4.801
 2544SOL    HW2 7953   2.966   5.563   4.850
 2545SOL     OW 7954   2.650   1.321   4.035
 2545SOL    HW1 7955   2.623   1.229   4.061
 2545SOL    HW2 7956   2.725   1.352   4.093
 2546SOL     OW 7957   2.486   1.564   5.015
 2546SOL    HW1 7958   2.481   1.654   5.058
 2546SOL    HW2 7959   2.578   1.550   4.977
 2547SOL     OW 7960   3.222   0.046   3.903
 2547SOL    HW1 7961   3.267  -0.023   3.847
 2547SOL    HW2 7962   3.128   0.017   3.922
 2548SOL     OW 7963   3.172   0.449   4.403
 2548SOL    HW1 7964   3.134   0.542   4.406
 2548SOL    HW2 7965   3.165   0.407   4.493
 2549SOL     OW 7966   3.444   0.197   4.616
 2549SOL    HW1 7967   3.389   0.218   4.697
 2549SOL    HW2 7968   3.447   0.277   4.555
 2550SOL     OW 7969   1.899   1.058   4.025
 2550SOL    HW1 7970   1.999   1.061   4.016
 2550SOL    HW2 7971   1.871   0.964   4.046
 2551SOL     OW 7972   2.753   1.682   4.068
 2551SOL    HW1 7973   2.678   1.656   4.008
 2551SOL    HW2 7974   2.727   1.762   4.122
 2552SOL     OW 7975   2.079   2.493   0.126
 2552SOL    HW1 7976   1.987   2.479   0.162
 2552SOL    HW2 7977   2.081   2.468   0.029
 2553SOL     OW 7978   2.081   2.146   0.998
 2553SOL    HW1 7979   2.115   2.110   1.084
 2553SOL    HW2 7980   1.989   2.110   0.981
 2554SOL     OW 7981   1.866   2.248   0.634
 2554SOL    HW1 7982   1.783   2.269   0.685
 2554SOL    HW2 7983   1.849   2.170   0.573
 2555SOL     OW 7984   2.420   3.151   1.179
 2555SOL    HW1 7985   2.334   3.175   1.133
 2555SOL    HW2 7986   2.450   3.227   1.236
 2556SOL     OW 7987   3.433   3.373   0.702
 2556SOL    HW1 7988   3.385   3.352   0.787
 2556SOL    HW2 7989   3.367   3.383   0.627
 2557SOL     OW 7990   3.000   2.573   0.691
 2557SOL    HW1 7991   3.052   2.657   0.676
 2557SOL    HW2 7992   2.948   2.581   0.776
 2558SOL     OW 7993   3.626   2.456   0.222
 2558SOL    HW1 7994   3.604   2.455   0.125
 2558SOL    HW2 7995   3.592   2.372   0.265
 2559SOL     OW 7996   2.603   3.004   1.039
 2559SOL    HW1 7997   2.534   3.038   1.103
 2559SOL    HW2 7998   2.640   3.081   0.986
 2560SOL     OW 7999   2.545   2.860   0.646
 2560SOL    HW1 8000   2.617   2.851   0.715
 2560SOL    HW2 8001   2.471   2.917   0.682
 2561SOL     OW 8002   2.192   3.278   1.062
 2561SOL    HW1 8003   2.114   3.232   1.019
 2561SOL    HW2 8004   2.241   3.332   0.993
 2562SOL     OW 8005   2.314   2.252   1.480
 2562SOL    HW1 8006   2.396   2.195   1.482
 2562SOL    HW2 8007   2.233   2.195   1.497
 2563SOL     OW 8008   3.470   2.304   0.746
 2563SOL    HW1 8009   3.406   2.320   0.671
 2563SOL    HW2 8010   3.482   2.388   0.798
 2564SOL     OW 8011   2.086   3.578   0.468
 2564SOL    HW1 8012   2.107   3.655   0.528
 2564SOL    HW2 8013   2.162   3.565   0.404
 2565SOL     OW 8014   2.099   3.309   0.536
 2565SOL    HW1 8015   2.081   3.407   0.534
 2565SOL    HW2 8016   2.040   3.265   0.603
 2566SOL     OW 8017   2.135   2.951   0.898
 2566SOL    HW1 8018   2.137   2.856   0.929
 2566SOL    HW2 8019   2.075   3.005   0.956
 2567SOL     OW 8020   2.453   3.679   1.429
 2567SOL    HW1 8021   2.376   3.643   1.482
 2567SOL    HW2 8022   2.476   3.771   1.460
 2568SOL     OW 8023   2.436   2.856   0.148
 2568SOL    HW1 8024   2.486   2.896   0.071
 2568SOL    HW2 8025   2.481   2.881   0.234
 2569SOL     OW 8026   3.458   1.986   1.466
 2569SOL    HW1 8027   3.492   2.058   1.406
 2569SOL    HW2 8028   3.437   2.024   1.556
 2570SOL     OW 8029   1.973   2.528   0.564
 2570SOL    HW1 8030   1.957   2.431   0.583
 2570SOL    HW2 8031   1.970   2.579   0.650
 2571SOL     OW 8032   3.714   3.611   0.336
 2571SOL    HW1 8033   3.791   3.582   0.392
 2571SOL    HW2 8034   3.726   3.707   0.311
 2572SOL     OW 8035   1.894   3.451   0.117
 2572SOL    HW1 8036   1.880   3.353   0.135
 2572SOL    HW2 8037   1.874   3.502   0.200
 2573SOL     OW 8038   3.560   2.783   0.656
 2573SOL    HW1 8039   3.643   2.730   0.641
 2573SOL    HW2 8040   3.537   2.834   0.573
 2574SOL     OW 8041   3.516   2.965   0.440
 2574SOL    HW1 8042   3.605   2.958   0.394
 2574SOL    HW2 8043   3.523   3.030   0.516
 2575SOL     OW 8044   1.983   2.607   1.581
 2575SOL    HW1 8045   2.078   2.639   1.583
 2575SOL    HW2 8046   1.922   2.686   1.577
 2576SOL     OW 8047   2.469   3.255   0.729
 2576SOL    HW1 8048   2.424   3.166   0.740
 2576SOL    HW2 8049   2.457   3.287   0.635
 2577SOL     OW 8050   3.191   3.131   1.425
 2577SOL    HW1 8051   3.188   3.063   1.351
 2577SOL    HW2 8052   3.218   3.086   1.510
 2578SOL     OW 8053   2.684   1.880   0.519
 2578SOL    HW1 8054   2.731   1.963   0.489
 2578SOL    HW2 8055   2.585   1.895   0.517
 2579SOL     OW 8056   2.049   2.820   1.285
 2579SOL    HW1 8057   2.139   2.779   1.269
 2579SOL    HW2 8058   1.982   2.780   1.222
 2580SOL     OW 8059   3.393   2.873   0.205
 2580SOL    HW1 8060   3.320   2.811   0.233
 2580SOL    HW2 8061   3.444   2.904   0.285
 2581SOL     OW 8062   2.209   2.111   1.857
 2581SOL    HW1 8063   2.257   2.195   1.885
 2581SOL    HW2 8064   2.111   2.125   1.864
 2582SOL     OW 8065   3.304   3.286   0.938
 2582SOL    HW1 8066   3.248   3.289   1.021
 2582SOL    HW2 8067   3.310   3.193   0.904
 2583SOL     OW 8068   3.502   3.624   0.576
 2583SOL    HW1 8069   3.496   3.593   0.482
 2583SOL    HW2 8070   3.494   3.546   0.638
 2584SOL     OW 8071   2.456   2.580   0.277
 2584SOL    HW1 8072   2.461   2.665   0.224
 2584SOL    HW2 8073   2.385   2.587   0.347
 2585SOL     OW 8074   3.137   2.239   0.938
 2585SOL    HW1 8075   3.046   2.198   0.940
 2585SOL    HW2 8076   3.199   2.184   0.994
 2586SOL     OW 8077   3.448   3.535   0.309
 2586SOL    HW1 8078   3.546   3.554   0.307
 2586SOL    HW2 8079   3.416   3.518   0.216
 2587SOL     OW 8080   2.632   2.489   1.450
 2587SOL    HW1 8081   2.627   2.455   1.544
 2587SOL    HW2 8082   2.611   2.415   1.386
 2588SOL     OW 8083   3.253   2.327   1.677
 2588SOL    HW1 8084   3.259   2.376   1.765
 2588SOL    HW2 8085   3.308   2.244   1.682
 2589SOL     OW 8086   2.886   2.728   1.589
 2589SOL    HW1 8087   2.917   2.647   1.541
 2589SOL    HW2 8088   2.801   2.761   1.547
 2590SOL     OW 8089   2.857   2.262   1.219
 2590SOL    HW1 8090   2.762   2.276   1.244
 2590SOL    HW2 8091   2.862   2.215   1.131
 2591SOL     OW 8092   2.916   2.562   0.421
 2591SOL    HW1 8093   2.938   2.556   0.518
 2591SOL    HW2 8094   2.829   2.514   0.404
 2592SOL     OW 8095   1.946   2.689   0.785
 2592SOL    HW1 8096   2.034   2.678   0.832
 2592SOL    HW2 8097   1.899   2.769   0.823
 2593SOL     OW 8098   1.989   3.735   1.589
 2593SOL    HW1 8099   1.995   3.712   1.687
 2593SOL    HW2 8100   1.919   3.679   1.546
 2594SOL     OW 8101   2.741   2.211   0.222
 2594SOL    HW1 8102   2.782   2.276   0.158
 2594SOL    HW2 8103   2.749   2.118   0.184
 2595SOL     OW 8104   3.543   2.446   1.825
 2595SOL    HW1 8105   3.512   2.522   1.767
 2595SOL    HW2 8106   3.577   2.372   1.768
 2596SOL     OW 8107   3.242   3.006   0.524
 2596SOL    HW1 8108   3.328   2.987   0.476
 2596SOL    HW2 8109   3.189   3.072   0.471
 2597SOL     OW 8110   2.405   2.026   0.905
 2597SOL    HW1 8111   2.413   2.062   0.998
 2597SOL    HW2 8112   2.415   2.100   0.839
 2598SOL     OW 8113   2.856   3.311   0.463
 2598SOL    HW1 8114   2.823   3.389   0.410
 2598SOL    HW2 8115   2.828   3.322   0.559
 2599SOL     OW 8116   2.219   3.680   0.879
 2599SOL    HW1 8117   2.264   3.591   0.882
 2599SOL    HW2 8118   2.286   3.752   0.892
 2600SOL     OW 8119   3.659   2.912   0.893
 2600SOL    HW1 8120   3.617   2.891   0.804
 2600SOL    HW2 8121   3.588   2.914   0.963
 2601SOL     OW 8122   2.177   2.821   0.255
 2601SOL    HW1 8123   2.266   2.844   0.215
 2601SOL    HW2 8124   2.145   2.734   0.217
 2602SOL     OW 8125   3.344   2.628   0.728
 2602SOL    HW1 8126   3.345   2.579   0.816
 2602SOL    HW2 8127   3.430   2.678   0.718
 2603SOL     OW 8128   2.336   3.105   1.722
 2603SOL    HW1 8129   2.305   3.118   1.627
 2603SOL    HW2 8130   2.259   3.121   1.784
 2604SOL     OW 8131   2.968   3.639   0.215
 2604SOL    HW1 8132   2.901   3.592   0.273
 2604SOL    HW2 8133   3.006   3.574   0.149
 2605SOL     OW 8134   2.065   2.128   1.503
 2605SOL    HW1 8135   1.984   2.186   1.505
 2605SOL    HW2 8136   2.043   2.038   1.541
 2606SOL     OW 8137   3.476   3.248   0.092
 2606SOL    HW1 8138   3.439   3.339   0.071
 2606SOL    HW2 8139   3.409   3.179   0.067
 2607SOL     OW 8140   2.327   3.595   0.317
 2607SOL    HW1 8141   2.371   3.658   0.381
 2607SOL    HW2 8142   2.395   3.558   0.254
 2608SOL     OW 8143   3.260   1.960   0.441
 2608SOL    HW1 8144   3.247   1.936   0.344
 2608SOL    HW2 8145   3.358   1.960   0.462
 2609SOL     OW 8146   2.128   3.653   1.212
 2609SOL    HW1 8147   2.173   3.574   1.255
 2609SOL    HW2 8148   2.101   3.630   1.119
 2610SOL     OW 8149   2.811   3.556   0.885
 2610SOL    HW1 8150   2.903   3.517   0.889
 2610SOL    HW2 8151   2.758   3.509   0.813
 2611SOL     OW 8152   2.257   2.551   0.474
 2611SOL    HW1 8153   2.276   2.453   0.485
 2611SOL    HW2 8154   2.159   2.568   0.487
 2612SOL     OW 8155   3.380   2.082   1.724
 2612SOL    HW1 8156   3.390   2.102   1.821
 2612SOL    HW2 8157   3.316   2.006   1.712
 2613SOL     OW 8158   2.495   1.980   0.116
 2613SOL    HW1 8159   2.590   1.954   0.130
 2613SOL    HW2 8160   2.458   1.933   0.036
 2614SOL     OW 8161   2.624   2.129   1.756
 2614SOL    HW1 8162   2.711   2.081   1.748
 2614SOL    HW2 8163   2.573   2.094   1.834
 2615SOL     OW 8164   2.714   3.355   1.174
 2615SOL    HW1 8165   2.689   3.329   1.080
 2615SOL    HW2 8166   2.793   3.301   1.202
 2616SOL     OW 8167   3.208   2.443   1.435
 2616SOL    HW1 8168   3.235   2.405   1.523
 2616SOL    HW2 8169   3.249   2.534   1.424
 2617SOL     OW 8170   2.676   3.242   0.923
 2617SOL    HW1 8171   2.768   3.239   0.884
 2617SOL    HW2 8172   2.609   3.252   0.850
 2618SOL     OW 8173   2.784   2.370   0.890
 2618SOL    HW1 8174   2.759   2.363   0.794
 2618SOL    HW2 8175   2.817   2.282   0.923
 2619SOL     OW 8176   2.412   1.928   0.492
 2619SOL    HW1 8177   2.329   1.923   0.547
 2619SOL    HW2 8178   2.407   2.006   0.431
 2620SOL     OW 8179   3.285   3.062   0.034
 2620SOL    HW1 8180   3.323   2.986   0.088
 2620SOL    HW2 8181   3.197   3.089   0.072
 2621SOL     OW 8182   2.155   1.906   0.185
 2621SOL    HW1 8183   2.203   1.973   0.129
 2621SOL    HW2 8184   2.221   1.843   0.226
 2622SOL     OW 8185   2.816   2.114   0.464
 2622SOL    HW1 8186   2.780   2.149   0.377
 2622SOL    HW2 8187   2.915   2.128   0.467
 2623SOL     OW 8188   2.948   2.517   1.434
 2623SOL    HW1 8189   2.886   2.438   1.436
 2623SOL    HW2 8190   3.042   2.484   1.433
 2624SOL     OW 8191   3.078   3.454   0.810
 2624SOL    HW1 8192   3.090   3.518   0.734
 2624SOL    HW2 8193   3.167   3.429   0.849
 2625SOL     OW 8194   2.330   3.017   0.721
 2625SOL    HW1 8195   2.265   2.993   0.794
 2625SOL    HW2 8196   2.286   3.007   0.632
 2626SOL     OW 8197   3.118   3.657   0.614
 2626SOL    HW1 8198   3.177   3.716   0.559
 2626SOL    HW2 8199   3.044   3.711   0.653
 2627SOL     OW 8200   2.852   2.404   0.075
 2627SOL    HW1 8201   2.826   2.479   0.014
 2627SOL    HW2 8202   2.951   2.406   0.090
 2628SOL     OW 8203   1.956   2.418   1.389
 2628SOL    HW1 8204   2.051   2.413   1.358
 2628SOL    HW2 8205   1.947   2.489   1.459
 2629SOL     OW 8206   2.422   2.088   1.177
 2629SOL    HW1 8207   2.472   2.009   1.214
 2629SOL    HW2 8208   2.326   2.083   1.204
 2630SOL     OW 8209   2.727   2.322   0.629
 2630SOL    HW1 8210   2.688   2.382   0.558
 2630SOL    HW2 8211   2.760   2.238   0.587
 2631SOL     OW 8212   2.868   1.925   0.748
 2631SOL    HW1 8213   2.812   1.924   0.665
 2631SOL    HW2 8214   2.848   1.844   0.802
 2632SOL     OW 8215   3.322   3.026   0.851
 2632SOL    HW1 8216   3.250   2.963   0.823
 2632SOL    HW2 8217   3.385   3.040   0.775
 2633SOL     OW 8218   3.327   2.486   0.971
 2633SOL    HW1 8219   3.266   2.407   0.961
 2633SOL    HW2 8220   3.390   2.470   1.047
 2634SOL     OW 8221   3.696   2.666   0.378
 2634SOL    HW1 8222   3.756   2.621   0.444
 2634SOL    HW2 8223   3.668   2.602   0.308
 2635SOL     OW 8224   2.347   3.283   0.148
 2635SOL    HW1 8225   2.267   3.255   0.200
 2635SOL    HW2 8226   2.356   3.227   0.066
 2636SOL     OW 8227   3.540   3.117   0.667
 2636SOL    HW1 8228   3.640   3.109   0.672
 2636SOL    HW2 8229   3.515   3.214   0.665
 2637SOL     OW 8230   3.253   2.438   0.068
 2637SOL    HW1 8231   3.193   2.412   0.143
 2637SOL    HW2 8232   3.345   2.402   0.085
 2638SOL     OW 8233   2.382   2.130   0.312
 2638SOL    HW1 8234   2.430   2.074   0.245
 2638SOL    HW2 8235   2.354   2.216   0.270
 2639SOL     OW 8236   2.954   3.090   1.098
 2639SOL    HW1 8237   2.880   3.025   1.112
 2639SOL    HW2 8238   2.949   3.127   1.005
 2640SOL     OW 8239   3.466   2.949   1.086
 2640SOL    HW1 8240   3.451   3.011   1.162
 2640SOL    HW2 8241   3.401   2.969   1.012
 2641SOL     OW 8242   2.783   1.950   1.385
 2641SOL    HW1 8243   2.803   1.925   1.290
 2641SOL    HW2 8244   2.865   1.992   1.426
 2642SOL     OW 8245   2.579   2.921   0.375
 2642SOL    HW1 8246   2.561   2.899   0.471
 2642SOL    HW2 8247   2.659   2.870   0.343
 2643SOL     OW 8248   2.282   2.680   1.253
 2643SOL    HW1 8249   2.353   2.696   1.321
 2643SOL    HW2 8250   2.248   2.586   1.262
 2644SOL     OW 8251   3.122   2.229   1.286
 2644SOL    HW1 8252   3.162   2.309   1.331
 2644SOL    HW2 8253   3.029   2.249   1.257
 2645SOL     OW 8254   1.943   3.434   1.359
 2645SOL    HW1 8255   1.903   3.495   1.291
 2645SOL    HW2 8256   2.042   3.430   1.347
 2646SOL     OW 8257   2.189   2.990   0.484
 2646SOL    HW1 8258   2.195   3.070   0.424
 2646SOL    HW2 8259   2.192   2.907   0.429
 2647SOL     OW 8260   2.400   2.412   0.871
 2647SOL    HW1 8261   2.413   2.470   0.790
 2647SOL    HW2 8262   2.478   2.424   0.933
 2648SOL     OW 8263   3.107   3.221   0.392
 2648SOL    HW1 8264   3.169   3.292   0.424
 2648SOL    HW2 8265   3.014   3.242   0.422
 2649SOL     OW 8266   3.148   3.274   1.172
 2649SOL    HW1 8267   3.193   3.216   1.240
 2649SOL    HW2 8268   3.069   3.225   1.135
 2650SOL     OW 8269   3.440   2.473   0.494
 2650SOL    HW1 8270   3.381   2.530   0.550
 2650SOL    HW2 8271   3.489   2.531   0.428
 2651SOL     OW 8272   2.212   3.397   1.300
 2651SOL    HW1 8273   2.197   3.348   1.215
 2651SOL    HW2 8274   2.310   3.410   1.315
 2652SOL     OW 8275   2.276   2.603   1.597
 2652SOL    HW1 8276   2.343   2.651   1.541
 2652SOL    HW2 8277   2.297   2.505   1.600
 2653SOL     OW 8278   3.461   2.640   1.644
 2653SOL    HW1 8279   3.385   2.653   1.580
 2653SOL    HW2 8280   3.542   2.688   1.610
 2654SOL     OW 8281   2.860   1.998   1.749
 2654SOL    HW1 8282   2.919   2.076   1.732
 2654SOL    HW2 8283   2.907   1.914   1.722
 2655SOL     OW 8284   2.353   1.897   1.757
 2655SOL    HW1 8285   2.306   1.839   1.690
 2655SOL    HW2 8286   2.297   1.977   1.777
 2656SOL     OW 8287   2.453   2.732   1.039
 2656SOL    HW1 8288   2.484   2.828   1.034
 2656SOL    HW2 8289   2.386   2.723   1.111
 2657SOL     OW 8290   3.200   2.729   1.045
 2657SOL    HW1 8291   3.117   2.723   0.989
 2657SOL    HW2 8292   3.257   2.648   1.029
 2658SOL     OW 8293   3.077   2.388   0.270
 2658SOL    HW1 8294   3.080   2.303   0.322
 2658SOL    HW2 8295   3.018   2.453   0.318
 2659SOL     OW 8296   2.159   2.056   1.247
 2659SOL    HW1 8297   2.123   2.089   1.334
 2659SOL    HW2 8298   2.146   1.957   1.241
 2660SOL     OW 8299   1.922   3.172   1.270
 2660SOL    HW1 8300   1.949   3.108   1.342
 2660SOL    HW2 8301   1.920   3.265   1.308
 2661SOL     OW 8302   2.592   2.492   1.056
 2661SOL    HW1 8303   2.664   2.470   0.990
 2661SOL    HW2 8304   2.555   2.583   1.035
 2662SOL     OW 8305   2.173   1.917   0.632
 2662SOL    HW1 8306   2.149   2.013   0.649
 2662SOL    HW2 8307   2.186   1.870   0.719
 2663SOL     OW 8308   3.493   2.241   0.354
 2663SOL    HW1 8309   3.525   2.166   0.411
 2663SOL    HW2 8310   3.463   2.317   0.412
 2664SOL     OW 8311   2.880   2.619   0.953
 2664SOL    HW1 8312   2.876   2.635   1.052
 2664SOL    HW2 8313   2.855   2.524   0.934
 2665SOL     OW 8314   3.743   3.312   1.564
 2665SOL    HW1 8315   3.759   3.358   1.477
 2665SOL    HW2 8316   3.817   3.333   1.627
 2666SOL     OW 8317   2.206   2.772   1.800
 2666SOL    HW1 8318   2.284   2.790   1.861
 2666SOL    HW2 8319   2.233   2.707   1.730
 2667SOL     OW 8320   3.380   2.131   0.122
 2667SOL    HW1 8321   3.315   2.060   0.149
 2667SOL    HW2 8322   3.422   2.171   0.204
 2668SOL     OW 8323   3.151   2.688   5.617
 2668SOL    HW1 8324   3.188   2.596   5.626
 2668SOL    HW2 8325   3.182   2.728   5.530
 2669SOL     OW 8326   2.939   3.210   0.854
 2669SOL    HW1 8327   2.944   3.131   0.794
 2669SOL    HW2 8328   2.994   3.285   0.816
 2670SOL     OW 8329   2.175   2.669   0.938
 2670SOL    HW1 8330   2.272   2.687   0.919
 2670SOL    HW2 8331   2.165   2.576   0.973
 2671SOL     OW 8332   2.177   2.393   1.012
 2671SOL    HW1 8333   2.141   2.300   1.002
 2671SOL    HW2 8334   2.260   2.402   0.956
 2672SOL     OW 8335   3.000   2.226   1.687
 2672SOL    HW1 8336   2.948   2.279   1.754
 2672SOL    HW2 8337   3.092   2.265   1.678
 2673SOL     OW 8338   3.022   2.054   1.475
 2673SOL    HW1 8339   3.010   2.117   1.551
 2673SOL    HW2 8340   3.067   2.102   1.399
 2674SOL     OW 8341   1.867   3.173   0.192
 2674SOL    HW1 8342   1.777   3.195   0.155
 2674SOL    HW2 8343   1.868   3.080   0.227
 2675SOL     OW 8344   1.960   3.635   0.950
 2675SOL    HW1 8345   1.920   3.557   0.902
 2675SOL    HW2 8346   2.051   3.653   0.914
 2676SOL     OW 8347   2.354   3.440   0.902
 2676SOL    HW1 8348   2.426   3.503   0.930
 2676SOL    HW2 8349   2.391   3.372   0.838
 2677SOL     OW 8350   2.831   2.647   1.222
 2677SOL    HW1 8351   2.887   2.611   1.296
 2677SOL    HW2 8352   2.740   2.606   1.225
 2678SOL     OW 8353   1.907   2.423   1.116
 2678SOL    HW1 8354   1.989   2.415   1.060
 2678SOL    HW2 8355   1.932   2.419   1.213
 2679SOL     OW 8356   2.050   2.386   1.731
 2679SOL    HW1 8357   2.103   2.329   1.667
 2679SOL    HW2 8358   2.015   2.466   1.682
 2680SOL     OW 8359   2.677   2.437   0.374
 2680SOL    HW1 8360   2.693   2.357   0.315
 2680SOL    HW2 8361   2.601   2.490   0.336
 2681SOL     OW 8362   3.506   2.462   1.180
 2681SOL    HW1 8363   3.491   2.396   1.254
 2681SOL    HW2 8364   3.597   2.449   1.142
 2682SOL     OW 8365   2.101   3.407   1.728
 2682SOL    HW1 8366   2.076   3.477   1.794
 2682SOL    HW2 8367   2.115   3.319   1.774
 2683SOL     OW 8368   2.583   2.307   1.251
 2683SOL    HW1 8369   2.523   2.229   1.229
 2683SOL    HW2 8370   2.578   2.375   1.178
 2684SOL     OW 8371   2.312   2.359   0.187
 2684SOL    HW1 8372   2.383   2.426   0.207
 2684SOL    HW2 8373   2.225   2.406   0.172
 2685SOL     OW 8374   1.999   3.002   1.478
 2685SOL    HW1 8375   2.001   2.963   1.570
 2685SOL    HW2 8376   2.019   2.931   1.411
 2686SOL     OW 8377   3.167   2.947   1.218
 2686SOL    HW1 8378   3.197   2.868   1.164
 2686SOL    HW2 8379   3.089   2.990   1.174
 2687SOL     OW 8380   3.176   2.723   0.294
 2687SOL    HW1 8381   3.105   2.679   0.348
 2687SOL    HW2 8382   3.160   2.707   0.197
 2688SOL     OW 8383   3.614   3.608   1.149
 2688SOL    HW1 8384   3.686   3.626   1.082
 2688SOL    HW2 8385   3.586   3.512   1.142
 2689SOL     OW 8386   3.159   3.559   1.189
 2689SOL    HW1 8387   3.219   3.605   1.123
 2689SOL    HW2 8388   3.134   3.469   1.154
 2690SOL     OW 8389   1.949   3.130   1.004
 2690SOL    HW1 8390   1.933   3.143   1.102
 2690SOL    HW2 8391   1.881   3.065   0.968
 2691SOL     OW 8392   2.764   1.941   0.149
 2691SOL    HW1 8393   2.796   1.965   0.057
 2691SOL    HW2 8394   2.833   1.886   0.195
 2692SOL     OW 8395   3.597   2.024   0.495
 2692SOL    HW1 8396   3.665   2.010   0.423
 2692SOL    HW2 8397   3.573   1.936   0.536
 2693SOL     OW 8398   3.259   3.435   0.491
 2693SOL    HW1 8399   3.323   3.466   0.420
 2693SOL    HW2 8400   3.204   3.513   0.522
 2694SOL     OW 8401   2.006   3.654   1.847
 2694SOL    HW1 8402   1.951   3.583   1.890
 2694SOL    HW2 8403   2.057   3.703   1.918
 2695SOL     OW 8404   3.149   2.807   0.679
 2695SOL    HW1 8405   3.221   2.739   0.693
 2695SOL    HW2 8406   3.180   2.875   0.612
 2696SOL     OW 8407   2.529   3.483   0.155
 2696SOL    HW1 8408   2.549   3.506   0.060
 2696SOL    HW2 8409   2.469   3.403   0.158
 2697SOL     OW 8410   3.705   2.027   0.967
 2697SOL    HW1 8411   3.740   1.935   0.945
 2697SOL    HW2 8412   3.615   2.039   0.925
 2698SOL     OW 8413   2.118   2.169   0.718
 2698SOL    HW1 8414   2.030   2.207   0.689
 2698SOL    HW2 8415   2.121   2.164   0.818
 2699SOL     OW 8416   3.064   3.458   0.035
 2699SOL    HW1 8417   3.062   3.363   0.068
 2699SOL    HW2 8418   2.996   3.469  -0.037
 2700SOL     OW 8419   2.793   2.783   0.294
 2700SOL    HW1 8420   2.849   2.814   0.216
 2700SOL    HW2 8421   2.837   2.705   0.338
 2701SOL     OW 8422   3.343   3.505   0.042
 2701SOL    HW1 8423   3.246   3.485   0.028
 2701SOL    HW2 8424   3.390   3.508  -0.046
 2702SOL     OW 8425   2.224   3.169   1.483
 2702SOL    HW1 8426   2.215   3.246   1.421
 2702SOL    HW2 8427   2.144   3.109   1.475
 2703SOL     OW 8428   3.464   3.158   1.299
 2703SOL    HW1 8429   3.552   3.124   1.334
 2703SOL    HW2 8430   3.481   3.228   1.229
 2704SOL     OW 8431   2.932   2.975   0.730
 2704SOL    HW1 8432   2.852   2.921   0.759
 2704SOL    HW2 8433   3.003   2.913   0.696
 2705SOL     OW 8434   2.885   2.104   0.969
 2705SOL    HW1 8435   2.880   2.064   0.878
 2705SOL    HW2 8436   2.883   2.031   1.038
 2706SOL     OW 8437   2.468   3.350   0.478
 2706SOL    HW1 8438   2.524   3.293   0.416
 2706SOL    HW2 8439   2.394   3.393   0.426
 2707SOL     OW 8440   3.604   2.252   1.386
 2707SOL    HW1 8441   3.678   2.320   1.383
 2707SOL    HW2 8442   3.625   2.178   1.323
 2708SOL     OW 8443   2.120   3.209   0.291
 2708SOL    HW1 8444   2.025   3.201   0.260
 2708SOL    HW2 8445   2.122   3.251   0.381
 2709SOL     OW 8446   1.975   2.905   1.733
 2709SOL    HW1 8447   1.894   2.877   1.784
 2709SOL    HW2 8448   2.055   2.854   1.767
 2710SOL     OW 8449   2.546   2.054   1.498
 2710SOL    HW1 8450   2.631   2.028   1.452
 2710SOL    HW2 8451   2.566   2.083   1.591
 2711SOL     OW 8452   1.940   2.194   5.619
 2711SOL    HW1 8453   1.861   2.163   5.566
 2711SOL    HW2 8454   1.980   2.274   5.574
 2712SOL     OW 8455   3.299   2.705   1.418
 2712SOL    HW1 8456   3.227   2.762   1.379
 2712SOL    HW2 8457   3.382   2.715   1.363
 2713SOL     OW 8458   1.923   2.018   0.284
 2713SOL    HW1 8459   1.908   2.094   0.221
 2713SOL    HW2 8460   2.014   1.978   0.267
 2714SOL     OW 8461   3.045   3.193   0.121
 2714SOL    HW1 8462   2.954   3.152   0.114
 2714SOL    HW2 8463   3.073   3.196   0.218
 2715SOL     OW 8464   2.476   2.706   1.439
 2715SOL    HW1 8465   2.530   2.791   1.437
 2715SOL    HW2 8466   2.538   2.628   1.440
 2716SOL     OW 8467   3.356   3.649   1.012
 2716SOL    HW1 8468   3.358   3.712   0.934
 2716SOL    HW2 8469   3.447   3.644   1.052
 2717SOL     OW 8470   2.604   2.399   1.705
 2717SOL    HW1 8471   2.586   2.444   1.792
 2717SOL    HW2 8472   2.614   2.301   1.719
 2718SOL     OW 8473   2.234   3.602   1.579
 2718SOL    HW1 8474   2.152   3.656   1.561
 2718SOL    HW2 8475   2.208   3.515   1.621
 2719SOL     OW 8476   3.519   2.731   1.259
 2719SOL    HW1 8477   3.520   2.639   1.220
 2719SOL    HW2 8478   3.508   2.798   1.185
 2720SOL     OW 8479   3.085   2.176   0.463
 2720SOL    HW1 8480   3.148   2.100   0.452
 2720SOL    HW2 8481   3.115   2.233   0.540
 2721SOL     OW 8482   2.430   2.606   0.680
 2721SOL    HW1 8483   2.482   2.690   0.662
 2721SOL    HW2 8484   2.371   2.586   0.602
 2722SOL     OW 8485   3.603   2.230   1.662
 2722SOL    HW1 8486   3.603   2.245   1.563
 2722SOL    HW2 8487   3.527   2.169   1.686
 2723SOL     OW 8488   3.653   2.781   1.497
 2723SOL    HW1 8489   3.699   2.869   1.492
 2723SOL    HW2 8490   3.611   2.760   1.409
 2724SOL     OW 8491   2.721   3.228   0.045
 2724SOL    HW1 8492   2.684   3.254   0.135
 2724SOL    HW2 8493   2.743   3.310  -0.007
 2725SOL     OW 8494   2.534   3.640   0.944
 2725SOL    HW1 8495   2.511   3.734   0.918
 2725SOL    HW2 8496   2.633   3.625   0.932
 2726SOL     OW 8497   2.730   2.835   0.854
 2726SOL    HW1 8498   2.778   2.754   0.888
 2726SOL    HW2 8499   2.683   2.881   0.931
 2727SOL     OW 8500   2.937   2.852   0.076
 2727SOL    HW1 8501   2.910   2.902  -0.007
 2727SOL    HW2 8502   3.014   2.792   0.055
 2728SOL     OW 8503   3.695   3.390   0.881
 2728SOL    HW1 8504   3.643   3.386   0.796
 2728SOL    HW2 8505   3.737   3.301   0.899
 2729SOL     OW 8506   2.112   3.167   1.865
 2729SOL    HW1 8507   2.043   3.098   1.843
 2729SOL    HW2 8508   2.116   3.179   1.964
 2730SOL     OW 8509   1.960   3.089   0.661
 2730SOL    HW1 8510   1.979   3.045   0.750
 2730SOL    HW2 8511   2.023   3.052   0.592
 2731SOL     OW 8512   2.522   3.303   1.679
 2731SOL    HW1 8513   2.463   3.225   1.702
 2731SOL    HW2 8514   2.474   3.363   1.613
 2732SOL     OW 8515   3.661   2.037   1.236
 2732SOL    HW1 8516   3.672   1.940   1.257
 2732SOL    HW2 8517   3.675   2.052   1.138
 2733SOL     OW 8518   2.286   2.290   0.525
 2733SOL    HW1 8519   2.326   2.226   0.460
 2733SOL    HW2 8520   2.238   2.240   0.597
 2734SOL     OW 8521   3.520   3.348   1.121
 2734SOL    HW1 8522   3.460   3.346   1.041
 2734SOL    HW2 8523   3.611   3.317   1.094
 2735SOL     OW 8524   2.205   2.418   1.289
 2735SOL    HW1 8525   2.260   2.358   1.346
 2735SOL    HW2 8526   2.215   2.392   1.193
 2736SOL     OW 8527   2.689   3.446   0.670
 2736SOL    HW1 8528   2.680   3.515   0.598
 2736SOL    HW2 8529   2.610   3.384   0.666
 2737SOL     OW 8530   3.289   2.094   1.112
 2737SOL    HW1 8531   3.301   1.997   1.133
 2737SOL    HW2 8532   3.236   2.137   1.185
 2738SOL     OW 8533   2.870   1.873   1.130
 2738SOL    HW1 8534   2.811   1.813   1.076
 2738SOL    HW2 8535   2.962   1.834   1.135
 2739SOL     OW 8536   2.637   3.192   0.330
 2739SOL    HW1 8537   2.612   3.095   0.335
 2739SOL    HW2 8538   2.725   3.206   0.373
 2740SOL     OW 8539   2.483   3.428   1.306
 2740SOL    HW1 8540   2.488   3.520   1.344
 2740SOL    HW2 8541   2.569   3.408   1.257
 2741SOL     OW 8542   3.216   1.909   0.175
 2741SOL    HW1 8543   3.258   1.843   0.114
 2741SOL    HW2 8544   3.119   1.890   0.184
 2742SOL     OW 8545   3.153   2.333   0.679
 2742SOL    HW1 8546   3.101   2.418   0.677
 2742SOL    HW2 8547   3.151   2.294   0.771
 2743SOL     OW 8548   3.449   2.064   0.887
 2743SOL    HW1 8549   3.392   2.087   0.966
 2743SOL    HW2 8550   3.452   2.142   0.824
 2744SOL     OW 8551   1.905   2.920   0.308
 2744SOL    HW1 8552   2.002   2.918   0.287
 2744SOL    HW2 8553   1.873   2.827   0.328
 2745SOL     OW 8554   2.743   3.530   0.341
 2745SOL    HW1 8555   2.668   3.510   0.277
 2745SOL    HW2 8556   2.718   3.609   0.397
 2746SOL     OW 8557   2.073   2.476   1.991
 2746SOL    HW1 8558   1.982   2.474   2.033
 2746SOL    HW2 8559   2.066   2.458   1.893
 2747SOL     OW 8560   2.080   2.144   2.850
 2747SOL    HW1 8561   2.115   2.114   2.939
 2747SOL    HW2 8562   1.989   2.105   2.836
 2748SOL     OW 8563   1.857   2.248   2.500
 2748SOL    HW1 8564   1.775   2.280   2.547
 2748SOL    HW2 8565   1.835   2.169   2.443
 2749SOL     OW 8566   3.452   3.403   2.589
 2749SOL    HW1 8567   3.441   3.379   2.685
 2749SOL    HW2 8568   3.362   3.421   2.549
 2750SOL     OW 8569   3.644   2.453   2.077
 2750SOL    HW1 8570   3.610   2.457   1.983
 2750SOL    HW2 8571   3.605   2.373   2.124
 2751SOL     OW 8572   2.148   3.341   2.917
 2751SOL    HW1 8573   2.093   3.266   2.880
 2751SOL    HW2 8574   2.221   3.363   2.852
 2752SOL     OW 8575   3.315   3.364   3.224
 2752SOL    HW1 8576   3.381   3.440   3.225
 2752SOL    HW2 8577   3.247   3.378   3.296
 2753SOL     OW 8578   3.496   2.313   2.594
 2753SOL    HW1 8579   3.466   2.365   2.514
 2753SOL    HW2 8580   3.468   2.360   2.678
 2754SOL     OW 8581   2.078   3.583   2.331
 2754SOL    HW1 8582   2.100   3.656   2.395
 2754SOL    HW2 8583   2.154   3.569   2.268
 2755SOL     OW 8584   3.005   3.221   3.556
 2755SOL    HW1 8585   3.052   3.210   3.643
 2755SOL    HW2 8586   2.947   3.142   3.538
 2756SOL     OW 8587   2.108   3.307   2.387
 2756SOL    HW1 8588   2.080   3.403   2.395
 2756SOL    HW2 8589   2.055   3.252   2.452
 2757SOL     OW 8590   2.126   2.964   2.740
 2757SOL    HW1 8591   2.132   2.870   2.773
 2757SOL    HW2 8592   2.074   3.019   2.804
 2758SOL     OW 8593   2.449   3.677   3.293
 2758SOL    HW1 8594   2.369   3.647   3.344
 2758SOL    HW2 8595   2.480   3.765   3.327
 2759SOL     OW 8596   2.432   2.842   1.985
 2759SOL    HW1 8597   2.448   2.904   1.908
 2759SOL    HW2 8598   2.502   2.857   2.054
 2760SOL     OW 8599   3.453   1.995   3.327
 2760SOL    HW1 8600   3.494   2.076   3.286
 2760SOL    HW2 8601   3.430   2.014   3.423
 2761SOL     OW 8602   1.970   2.527   2.430
 2761SOL    HW1 8603   1.940   2.433   2.448
 2761SOL    HW2 8604   1.966   2.581   2.514
 2762SOL     OW 8605   3.713   3.610   2.223
 2762SOL    HW1 8606   3.799   3.586   2.268
 2762SOL    HW2 8607   3.721   3.702   2.184
 2763SOL     OW 8608   1.895   3.450   1.980
 2763SOL    HW1 8609   1.876   3.353   1.994
 2763SOL    HW2 8610   1.872   3.501   2.063
 2764SOL     OW 8611   2.391   3.245   2.570
 2764SOL    HW1 8612   2.366   3.152   2.598
 2764SOL    HW2 8613   2.360   3.261   2.476
 2765SOL     OW 8614   2.679   1.872   2.372
 2765SOL    HW1 8615   2.726   1.956   2.346
 2765SOL    HW2 8616   2.581   1.888   2.377
 2766SOL     OW 8617   2.039   2.822   3.142
 2766SOL    HW1 8618   2.118   2.761   3.144
 2766SOL    HW2 8619   1.967   2.781   3.087
 2767SOL     OW 8620   3.055   3.689   3.489
 2767SOL    HW1 8621   3.053   3.754   3.414
 2767SOL    HW2 8622   3.074   3.597   3.453
 2768SOL     OW 8623   3.337   3.291   2.837
 2768SOL    HW1 8624   3.261   3.310   2.899
 2768SOL    HW2 8625   3.307   3.228   2.766
 2769SOL     OW 8626   3.520   3.627   2.418
 2769SOL    HW1 8627   3.584   3.602   2.346
 2769SOL    HW2 8628   3.506   3.550   2.480
 2770SOL     OW 8629   2.442   2.581   2.130
 2770SOL    HW1 8630   2.431   2.662   2.072
 2770SOL    HW2 8631   2.367   2.576   2.196
 2771SOL     OW 8632   3.191   2.109   2.786
 2771SOL    HW1 8633   3.091   2.106   2.787
 2771SOL    HW2 8634   3.226   2.085   2.876
 2772SOL     OW 8635   3.282   2.328   3.536
 2772SOL    HW1 8636   3.221   2.352   3.612
 2772SOL    HW2 8637   3.322   2.238   3.553
 2773SOL     OW 8638   1.947   2.693   2.648
 2773SOL    HW1 8639   2.035   2.689   2.696
 2773SOL    HW2 8640   1.895   2.772   2.682
 2774SOL     OW 8641   1.989   3.740   3.453
 2774SOL    HW1 8642   1.992   3.719   3.551
 2774SOL    HW2 8643   1.910   3.695   3.412
 2775SOL     OW 8644   2.752   2.218   2.058
 2775SOL    HW1 8645   2.800   2.279   1.996
 2775SOL    HW2 8646   2.752   2.125   2.021
 2776SOL     OW 8647   3.591   2.438   3.679
 2776SOL    HW1 8648   3.542   2.514   3.636
 2776SOL    HW2 8649   3.598   2.362   3.615
 2777SOL     OW 8650   2.396   2.015   2.756
 2777SOL    HW1 8651   2.384   2.067   2.841
 2777SOL    HW2 8652   2.430   2.075   2.684
 2778SOL     OW 8653   2.211   3.676   2.742
 2778SOL    HW1 8654   2.259   3.589   2.747
 2778SOL    HW2 8655   2.275   3.751   2.763
 2779SOL     OW 8656   3.681   2.910   2.762
 2779SOL    HW1 8657   3.657   2.957   2.677
 2779SOL    HW2 8658   3.607   2.923   2.829
 2780SOL     OW 8659   3.095   3.416   3.382
 2780SOL    HW1 8660   3.083   3.348   3.453
 2780SOL    HW2 8661   3.016   3.415   3.320
 2781SOL     OW 8662   2.182   2.819   2.125
 2781SOL    HW1 8663   2.263   2.837   2.070
 2781SOL    HW2 8664   2.147   2.728   2.104
 2782SOL     OW 8665   3.359   2.591   2.589
 2782SOL    HW1 8666   3.356   2.538   2.674
 2782SOL    HW2 8667   3.408   2.676   2.605
 2783SOL     OW 8668   2.320   3.145   3.608
 2783SOL    HW1 8669   2.290   3.166   3.515
 2783SOL    HW2 8670   2.239   3.128   3.665
 2784SOL     OW 8671   2.932   3.680   2.032
 2784SOL    HW1 8672   2.856   3.670   2.096
 2784SOL    HW2 8673   2.953   3.591   1.991
 2785SOL     OW 8674   2.006   2.101   3.329
 2785SOL    HW1 8675   1.945   2.160   3.382
 2785SOL    HW2 8676   2.016   2.013   3.375
 2786SOL     OW 8677   2.314   3.608   2.180
 2786SOL    HW1 8678   2.362   3.664   2.247
 2786SOL    HW2 8679   2.380   3.549   2.133
 2787SOL     OW 8680   3.265   1.959   2.307
 2787SOL    HW1 8681   3.256   1.933   2.211
 2787SOL    HW2 8682   3.362   1.964   2.331
 2788SOL     OW 8683   2.129   3.648   3.081
 2788SOL    HW1 8684   2.176   3.579   3.136
 2788SOL    HW2 8685   2.114   3.612   2.989
 2789SOL     OW 8686   2.224   2.537   2.290
 2789SOL    HW1 8687   2.255   2.449   2.324
 2789SOL    HW2 8688   2.133   2.557   2.327
 2790SOL     OW 8689   3.380   2.074   3.590
 2790SOL    HW1 8690   3.400   2.093   3.686
 2790SOL    HW2 8691   3.292   2.026   3.584
 2791SOL     OW 8692   2.511   1.973   1.964
 2791SOL    HW1 8693   2.573   1.899   1.990
 2791SOL    HW2 8694   2.451   1.942   1.890
 2792SOL     OW 8695   2.747   3.414   3.080
 2792SOL    HW1 8696   2.724   3.383   2.987
 2792SOL    HW2 8697   2.818   3.355   3.118
 2793SOL     OW 8698   2.410   1.927   2.351
 2793SOL    HW1 8699   2.328   1.924   2.408
 2793SOL    HW2 8700   2.405   2.007   2.291
 2794SOL     OW 8701   2.150   1.909   2.049
 2794SOL    HW1 8702   2.199   1.980   1.998
 2794SOL    HW2 8703   2.216   1.847   2.091
 2795SOL     OW 8704   2.806   2.106   2.312
 2795SOL    HW1 8705   2.778   2.156   2.230
 2795SOL    HW2 8706   2.904   2.116   2.326
 2796SOL     OW 8707   3.191   3.492   2.638
 2796SOL    HW1 8708   3.158   3.572   2.589
 2796SOL    HW2 8709   3.233   3.521   2.725
 2797SOL     OW 8710   3.123   3.732   2.525
 2797SOL    HW1 8711   3.183   3.753   2.448
 2797SOL    HW2 8712   3.085   3.817   2.562
 2798SOL     OW 8713   2.899   2.379   1.891
 2798SOL    HW1 8714   2.887   2.471   1.855
 2798SOL    HW2 8715   2.976   2.378   1.955
 2799SOL     OW 8716   2.659   2.289   2.478
 2799SOL    HW1 8717   2.646   2.355   2.404
 2799SOL    HW2 8718   2.717   2.214   2.447
 2800SOL     OW 8719   2.882   1.897   2.586
 2800SOL    HW1 8720   2.815   1.899   2.512
 2800SOL    HW2 8721   2.855   1.830   2.655
 2801SOL     OW 8722   3.389   2.435   2.815
 2801SOL    HW1 8723   3.317   2.369   2.833
 2801SOL    HW2 8724   3.438   2.456   2.901
 2802SOL     OW 8725   3.689   2.670   2.238
 2802SOL    HW1 8726   3.749   2.633   2.309
 2802SOL    HW2 8727   3.673   2.600   2.168
 2803SOL     OW 8728   3.266   2.427   1.930
 2803SOL    HW1 8729   3.219   2.380   2.005
 2803SOL    HW2 8730   3.365   2.414   1.940
 2804SOL     OW 8731   2.392   2.126   2.166
 2804SOL    HW1 8732   2.443   2.075   2.097
 2804SOL    HW2 8733   2.358   2.211   2.126
 2805SOL     OW 8734   3.612   3.107   3.408
 2805SOL    HW1 8735   3.701   3.065   3.390
 2805SOL    HW2 8736   3.626   3.199   3.446
 2806SOL     OW 8737   2.932   3.250   3.204
 2806SOL    HW1 8738   2.847   3.224   3.250
 2806SOL    HW2 8739   3.007   3.197   3.242
 2807SOL     OW 8740   3.475   3.501   3.522
 2807SOL    HW1 8741   3.458   3.531   3.428
 2807SOL    HW2 8742   3.558   3.445   3.524
 2808SOL     OW 8743   3.494   2.957   2.954
 2808SOL    HW1 8744   3.501   3.024   3.029
 2808SOL    HW2 8745   3.397   2.946   2.930
 2809SOL     OW 8746   2.242   2.642   3.154
 2809SOL    HW1 8747   2.324   2.650   3.209
 2809SOL    HW2 8748   2.217   2.546   3.145
 2810SOL     OW 8749   1.940   3.432   3.217
 2810SOL    HW1 8750   1.905   3.499   3.152
 2810SOL    HW2 8751   2.040   3.427   3.209
 2811SOL     OW 8752   2.144   2.997   2.329
 2811SOL    HW1 8753   2.154   3.076   2.268
 2811SOL    HW2 8754   2.168   2.914   2.279
 2812SOL     OW 8755   3.138   3.330   3.024
 2812SOL    HW1 8756   3.208   3.340   3.094
 2812SOL    HW2 8757   3.054   3.295   3.066
 2813SOL     OW 8758   3.440   2.472   2.360
 2813SOL    HW1 8759   3.394   2.522   2.433
 2813SOL    HW2 8760   3.496   2.536   2.306
 2814SOL     OW 8761   2.211   3.389   3.172
 2814SOL    HW1 8762   2.188   3.361   3.079
 2814SOL    HW2 8763   2.310   3.400   3.180
 2815SOL     OW 8764   3.474   2.654   3.558
 2815SOL    HW1 8765   3.380   2.684   3.546
 2815SOL    HW2 8766   3.531   2.690   3.484
 2816SOL     OW 8767   2.997   2.010   3.579
 2816SOL    HW1 8768   2.933   2.059   3.637
 2816SOL    HW2 8769   2.974   1.912   3.579
 2817SOL     OW 8770   3.091   2.332   2.125
 2817SOL    HW1 8771   3.089   2.255   2.188
 2817SOL    HW2 8772   3.065   2.416   2.173
 2818SOL     OW 8773   2.150   2.070   3.101
 2818SOL    HW1 8774   2.101   2.094   3.185
 2818SOL    HW2 8775   2.158   1.971   3.094
 2819SOL     OW 8776   1.915   3.170   3.131
 2819SOL    HW1 8777   1.943   3.107   3.203
 2819SOL    HW2 8778   1.917   3.264   3.166
 2820SOL     OW 8779   3.603   2.834   3.721
 2820SOL    HW1 8780   3.563   2.759   3.668
 2820SOL    HW2 8781   3.544   2.855   3.800
 2821SOL     OW 8782   2.173   1.920   2.491
 2821SOL    HW1 8783   2.145   2.015   2.508
 2821SOL    HW2 8784   2.181   1.871   2.578
 2822SOL     OW 8785   3.494   2.245   2.214
 2822SOL    HW1 8786   3.522   2.169   2.273
 2822SOL    HW2 8787   3.463   2.321   2.271
 2823SOL     OW 8788   2.844   3.444   3.575
 2823SOL    HW1 8789   2.827   3.485   3.485
 2823SOL    HW2 8790   2.890   3.356   3.563
 2824SOL     OW 8791   3.711   3.365   3.465
 2824SOL    HW1 8792   3.734   3.391   3.371
 2824SOL    HW2 8793   3.792   3.372   3.522
 2825SOL     OW 8794   2.217   2.792   3.621
 2825SOL    HW1 8795   2.275   2.847   3.682
 2825SOL    HW2 8796   2.274   2.728   3.570
 2826SOL     OW 8797   3.385   2.127   1.988
 2826SOL    HW1 8798   3.321   2.056   2.017
 2826SOL    HW2 8799   3.424   2.171   2.069
 2827SOL     OW 8800   3.172   2.674   1.863
 2827SOL    HW1 8801   3.213   2.588   1.894
 2827SOL    HW2 8802   3.196   2.689   1.767
 2828SOL     OW 8803   2.167   2.685   2.817
 2828SOL    HW1 8804   2.257   2.709   2.853
 2828SOL    HW2 8805   2.145   2.590   2.842
 2829SOL     OW 8806   2.136   2.403   2.826
 2829SOL    HW1 8807   2.110   2.307   2.831
 2829SOL    HW2 8808   2.191   2.419   2.743
 2830SOL     OW 8809   1.844   3.178   2.054
 2830SOL    HW1 8810   1.755   3.200   2.015
 2830SOL    HW2 8811   1.845   3.083   2.084
 2831SOL     OW 8812   1.946   3.646   2.802
 2831SOL    HW1 8813   1.910   3.563   2.758
 2831SOL    HW2 8814   2.042   3.658   2.777
 2832SOL     OW 8815   2.355   3.445   2.755
 2832SOL    HW1 8816   2.436   3.501   2.772
 2832SOL    HW2 8817   2.377   3.374   2.689
 2833SOL     OW 8818   1.911   2.425   3.026
 2833SOL    HW1 8819   1.940   2.420   2.931
 2833SOL    HW2 8820   1.991   2.422   3.085
 2834SOL     OW 8821   3.234   2.805   3.514
 2834SOL    HW1 8822   3.266   2.900   3.513
 2834SOL    HW2 8823   3.248   2.764   3.424
 2835SOL     OW 8824   2.645   2.417   2.232
 2835SOL    HW1 8825   2.670   2.349   2.164
 2835SOL    HW2 8826   2.576   2.479   2.195
 2836SOL     OW 8827   3.518   2.474   3.051
 2836SOL    HW1 8828   3.498   2.411   3.126
 2836SOL    HW2 8829   3.609   2.455   3.014
 2837SOL     OW 8830   2.094   3.408   3.598
 2837SOL    HW1 8831   2.071   3.466   3.676
 2837SOL    HW2 8832   2.106   3.314   3.629
 2838SOL     OW 8833   2.789   3.548   3.328
 2838SOL    HW1 8834   2.759   3.501   3.245
 2838SOL    HW2 8835   2.782   3.647   3.315
 2839SOL     OW 8836   2.314   2.353   2.031
 2839SOL    HW1 8837   2.378   2.422   2.064
 2839SOL    HW2 8838   2.222   2.392   2.026
 2840SOL     OW 8839   1.996   3.002   3.338
 2840SOL    HW1 8840   1.999   2.961   3.430
 2840SOL    HW2 8841   2.016   2.932   3.270
 2841SOL     OW 8842   3.654   3.591   3.028
 2841SOL    HW1 8843   3.714   3.623   2.955
 2841SOL    HW2 8844   3.620   3.500   3.006
 2842SOL     OW 8845   3.103   3.600   2.965
 2842SOL    HW1 8846   3.187   3.630   2.920
 2842SOL    HW2 8847   3.108   3.502   2.984
 2843SOL     OW 8848   1.948   3.132   2.866
 2843SOL    HW1 8849   1.932   3.143   2.964
 2843SOL    HW2 8850   1.884   3.065   2.829
 2844SOL     OW 8851   2.544   3.537   3.612
 2844SOL    HW1 8852   2.482   3.613   3.596
 2844SOL    HW2 8853   2.626   3.548   3.556
 2845SOL     OW 8854   3.589   2.022   2.354
 2845SOL    HW1 8855   3.660   2.009   2.285
 2845SOL    HW2 8856   3.569   1.935   2.399
 2846SOL     OW 8857   1.997   3.667   3.712
 2846SOL    HW1 8858   1.945   3.591   3.751
 2846SOL    HW2 8859   2.051   3.710   3.784
 2847SOL     OW 8860   2.705   3.179   3.324
 2847SOL    HW1 8861   2.659   3.215   3.405
 2847SOL    HW2 8862   2.639   3.130   3.268
 2848SOL     OW 8863   3.476   3.586   3.246
 2848SOL    HW1 8864   3.540   3.586   3.169
 2848SOL    HW2 8865   3.459   3.681   3.274
 2849SOL     OW 8866   3.702   2.027   2.825
 2849SOL    HW1 8867   3.735   1.936   2.803
 2849SOL    HW2 8868   3.612   2.042   2.783
 2850SOL     OW 8869   2.113   2.174   2.575
 2850SOL    HW1 8870   2.023   2.208   2.546
 2850SOL    HW2 8871   2.112   2.156   2.674
 2851SOL     OW 8872   2.180   3.206   3.383
 2851SOL    HW1 8873   2.187   3.271   3.307
 2851SOL    HW2 8874   2.114   3.135   3.360
 2852SOL     OW 8875   3.470   3.138   3.162
 2852SOL    HW1 8876   3.526   3.117   3.243
 2852SOL    HW2 8877   3.407   3.213   3.183
 2853SOL     OW 8878   2.919   2.075   2.803
 2853SOL    HW1 8879   2.899   2.024   2.719
 2853SOL    HW2 8880   2.900   2.018   2.883
 2854SOL     OW 8881   3.596   2.252   3.237
 2854SOL    HW1 8882   3.670   2.318   3.243
 2854SOL    HW2 8883   3.622   2.177   3.176
 2855SOL     OW 8884   2.097   3.206   2.138
 2855SOL    HW1 8885   2.000   3.202   2.113
 2855SOL    HW2 8886   2.107   3.254   2.225
 2856SOL     OW 8887   1.973   2.918   3.598
 2856SOL    HW1 8888   1.892   2.884   3.645
 2856SOL    HW2 8889   2.050   2.858   3.617
 2857SOL     OW 8890   1.943   2.184   1.886
 2857SOL    HW1 8891   1.855   2.158   1.846
 2857SOL    HW2 8892   1.975   2.269   1.844
 2858SOL     OW 8893   3.306   2.710   3.275
 2858SOL    HW1 8894   3.239   2.680   3.207
 2858SOL    HW2 8895   3.396   2.719   3.232
 2859SOL     OW 8896   1.919   2.016   2.152
 2859SOL    HW1 8897   1.902   2.096   2.095
 2859SOL    HW2 8898   2.008   1.977   2.130
 2860SOL     OW 8899   3.343   3.649   2.839
 2860SOL    HW1 8900   3.365   3.728   2.781
 2860SOL    HW2 8901   3.428   3.613   2.878
 2861SOL     OW 8902   3.344   3.053   3.501
 2861SOL    HW1 8903   3.330   3.070   3.598
 2861SOL    HW2 8904   3.438   3.076   3.476
 2862SOL     OW 8905   2.226   3.601   3.437
 2862SOL    HW1 8906   2.143   3.654   3.423
 2862SOL    HW2 8907   2.203   3.513   3.478
 2863SOL     OW 8908   3.535   2.738   3.127
 2863SOL    HW1 8909   3.535   2.646   3.088
 2863SOL    HW2 8910   3.536   2.805   3.053
 2864SOL     OW 8911   3.078   2.154   2.341
 2864SOL    HW1 8912   3.144   2.081   2.326
 2864SOL    HW2 8913   3.089   2.190   2.434
 2865SOL     OW 8914   3.606   2.221   3.510
 2865SOL    HW1 8915   3.590   2.243   3.414
 2865SOL    HW2 8916   3.531   2.165   3.545
 2866SOL     OW 8917   3.627   2.790   3.379
 2866SOL    HW1 8918   3.607   2.884   3.404
 2866SOL    HW2 8919   3.603   2.774   3.283
 2867SOL     OW 8920   2.546   3.652   2.781
 2867SOL    HW1 8921   2.492   3.736   2.778
 2867SOL    HW2 8922   2.642   3.673   2.761
 2868SOL     OW 8923   3.712   3.416   2.707
 2868SOL    HW1 8924   3.636   3.402   2.643
 2868SOL    HW2 8925   3.728   3.332   2.759
 2869SOL     OW 8926   2.073   3.146   3.716
 2869SOL    HW1 8927   2.033   3.069   3.667
 2869SOL    HW2 8928   2.022   3.162   3.800
 2870SOL     OW 8929   1.974   3.090   2.522
 2870SOL    HW1 8930   2.005   3.052   2.609
 2870SOL    HW2 8931   2.027   3.049   2.447
 2871SOL     OW 8932   2.555   3.265   3.532
 2871SOL    HW1 8933   2.477   3.210   3.563
 2871SOL    HW2 8934   2.542   3.360   3.559
 2872SOL     OW 8935   3.670   2.038   3.095
 2872SOL    HW1 8936   3.679   1.940   3.117
 2872SOL    HW2 8937   3.679   2.051   2.996
 2873SOL     OW 8938   2.284   2.293   2.386
 2873SOL    HW1 8939   2.335   2.228   2.331
 2873SOL    HW2 8940   2.230   2.244   2.455
 2874SOL     OW 8941   3.561   3.347   2.979
 2874SOL    HW1 8942   3.480   3.324   2.926
 2874SOL    HW2 8943   3.582   3.271   3.040
 2875SOL     OW 8944   2.176   2.381   3.107
 2875SOL    HW1 8945   2.194   2.289   3.142
 2875SOL    HW2 8946   2.182   2.380   3.007
 2876SOL     OW 8947   3.321   2.042   3.010
 2876SOL    HW1 8948   3.351   1.947   3.010
 2876SOL    HW2 8949   3.309   2.074   3.104
 2877SOL     OW 8950   2.885   1.883   2.995
 2877SOL    HW1 8951   2.809   1.818   3.008
 2877SOL    HW2 8952   2.971   1.832   2.987
 2878SOL     OW 8953   2.479   3.439   3.166
 2878SOL    HW1 8954   2.475   3.528   3.212
 2878SOL    HW2 8955   2.573   3.420   3.137
 2879SOL     OW 8956   3.225   1.904   2.040
 2879SOL    HW1 8957   3.271   1.833   1.986
 2879SOL    HW2 8958   3.130   1.876   2.056
 2880SOL     OW 8959   3.454   2.067   2.717
 2880SOL    HW1 8960   3.358   2.076   2.746
 2880SOL    HW2 8961   3.478   2.145   2.659
 2881SOL     OW 8962   1.889   2.923   2.166
 2881SOL    HW1 8963   1.989   2.933   2.163
 2881SOL    HW2 8964   1.866   2.827   2.182
 2882SOL     OW 8965   2.723   3.589   2.184
 2882SOL    HW1 8966   2.721   3.491   2.206
 2882SOL    HW2 8967   2.712   3.641   2.268
 2883SOL     OW 8968   2.061   2.553   3.881
 2883SOL    HW1 8969   1.970   2.520   3.906
 2883SOL    HW2 8970   2.127   2.478   3.887
 2884SOL     OW 8971   2.072   2.150   4.737
 2884SOL    HW1 8972   2.109   2.110   4.820
 2884SOL    HW2 8973   1.983   2.109   4.717
 2885SOL     OW 8974   1.846   2.233   4.352
 2885SOL    HW1 8975   1.765   2.270   4.398
 2885SOL    HW2 8976   1.828   2.139   4.324
 2886SOL     OW 8977   2.438   3.168   4.926
 2886SOL    HW1 8978   2.349   3.161   4.880
 2886SOL    HW2 8979   2.454   3.263   4.954
 2887SOL     OW 8980   3.436   3.384   4.434
 2887SOL    HW1 8981   3.393   3.353   4.518
 2887SOL    HW2 8982   3.369   3.387   4.360
 2888SOL     OW 8983   3.012   2.557   4.441
 2888SOL    HW1 8984   3.050   2.644   4.407
 2888SOL    HW2 8985   2.966   2.573   4.528
 2889SOL     OW 8986   3.653   2.451   3.940
 2889SOL    HW1 8987   3.626   2.450   3.843
 2889SOL    HW2 8988   3.601   2.381   3.990
 2890SOL     OW 8989   2.594   2.997   4.771
 2890SOL    HW1 8990   2.534   3.036   4.841
 2890SOL    HW2 8991   2.641   3.071   4.723
 2891SOL     OW 8992   2.741   2.624   5.540
 2891SOL    HW1 8993   2.747   2.693   5.613
 2891SOL    HW2 8994   2.769   2.665   5.453
 2892SOL     OW 8995   2.552   2.884   4.373
 2892SOL    HW1 8996   2.615   2.854   4.444
 2892SOL    HW2 8997   2.473   2.928   4.415
 2893SOL     OW 8998   2.573   3.014   5.552
 2893SOL    HW1 8999   2.626   3.092   5.586
 2893SOL    HW2 9000   2.491   3.048   5.505
 2894SOL     OW 9001   2.185   3.283   4.790
 2894SOL    HW1 9002   2.109   3.236   4.745
 2894SOL    HW2 9003   2.238   3.333   4.721
 2895SOL     OW 9004   3.316   3.366   5.087
 2895SOL    HW1 9005   3.374   3.447   5.096
 2895SOL    HW2 9006   3.244   3.369   5.157
 2896SOL     OW 9007   2.309   2.255   5.209
 2896SOL    HW1 9008   2.394   2.203   5.211
 2896SOL    HW2 9009   2.232   2.192   5.223
 2897SOL     OW 9010   3.458   2.308   4.473
 2897SOL    HW1 9011   3.369   2.316   4.428
 2897SOL    HW2 9012   3.458   2.365   4.556
 2898SOL     OW 9013   2.082   3.585   4.193
 2898SOL    HW1 9014   2.105   3.661   4.255
 2898SOL    HW2 9015   2.157   3.570   4.130
 2899SOL     OW 9016   2.998   3.201   5.427
 2899SOL    HW1 9017   3.051   3.193   5.511
 2899SOL    HW2 9018   2.942   3.119   5.415
 2900SOL     OW 9019   2.099   3.315   4.263
 2900SOL    HW1 9020   2.075   3.412   4.266
 2900SOL    HW2 9021   2.044   3.265   4.330
 2901SOL     OW 9022   2.134   2.948   4.627
 2901SOL    HW1 9023   2.142   2.852   4.655
 2901SOL    HW2 9024   2.075   2.996   4.692
 2902SOL     OW 9025   2.444   3.671   5.140
 2902SOL    HW1 9026   2.367   3.641   5.197
 2902SOL    HW2 9027   2.481   3.756   5.176
 2903SOL     OW 9028   3.466   1.982   5.199
 2903SOL    HW1 9029   3.486   2.062   5.143
 2903SOL    HW2 9030   3.431   2.011   5.288
 2904SOL     OW 9031   1.925   2.521   4.302
 2904SOL    HW1 9032   1.938   2.423   4.318
 2904SOL    HW2 9033   1.956   2.572   4.383
 2905SOL     OW 9034   3.710   3.613   4.053
 2905SOL    HW1 9035   3.782   3.585   4.116
 2905SOL    HW2 9036   3.723   3.709   4.028
 2906SOL     OW 9037   1.902   3.451   3.842
 2906SOL    HW1 9038   1.884   3.354   3.858
 2906SOL    HW2 9039   1.878   3.503   3.924
 2907SOL     OW 9040   3.562   2.789   4.379
 2907SOL    HW1 9041   3.645   2.734   4.365
 2907SOL    HW2 9042   3.539   2.837   4.294
 2908SOL     OW 9043   3.525   2.965   4.157
 2908SOL    HW1 9044   3.615   2.956   4.115
 2908SOL    HW2 9045   3.527   3.036   4.227
 2909SOL     OW 9046   1.992   2.604   5.311
 2909SOL    HW1 9047   2.090   2.628   5.308
 2909SOL    HW2 9048   1.938   2.687   5.303
 2910SOL     OW 9049   2.480   3.260   4.456
 2910SOL    HW1 9050   2.433   3.172   4.469
 2910SOL    HW2 9051   2.469   3.290   4.362
 2911SOL     OW 9052   3.147   3.094   5.144
 2911SOL    HW1 9053   3.171   3.022   5.079
 2911SOL    HW2 9054   3.207   3.088   5.224
 2912SOL     OW 9055   2.672   1.899   4.222
 2912SOL    HW1 9056   2.704   1.989   4.195
 2912SOL    HW2 9057   2.572   1.895   4.213
 2913SOL     OW 9058   2.052   2.819   5.005
 2913SOL    HW1 9059   2.143   2.779   4.995
 2913SOL    HW2 9060   1.987   2.768   4.948
 2914SOL     OW 9061   3.407   2.881   3.925
 2914SOL    HW1 9062   3.328   2.827   3.951
 2914SOL    HW2 9063   3.456   2.912   4.007
 2915SOL     OW 9064   3.034   3.677   5.341
 2915SOL    HW1 9065   3.052   3.743   5.268
 2915SOL    HW2 9066   3.055   3.585   5.308
 2916SOL     OW 9067   2.206   2.102   5.578
 2916SOL    HW1 9068   2.263   2.183   5.591
 2916SOL    HW2 9069   2.110   2.126   5.591
 2917SOL     OW 9070   3.325   3.282   4.661
 2917SOL    HW1 9071   3.263   3.301   4.737
 2917SOL    HW2 9072   3.315   3.186   4.634
 2918SOL     OW 9073   3.501   3.633   4.295
 2918SOL    HW1 9074   3.484   3.595   4.204
 2918SOL    HW2 9075   3.491   3.560   4.363
 2919SOL     OW 9076   3.137   2.231   4.665
 2919SOL    HW1 9077   3.044   2.193   4.667
 2919SOL    HW2 9078   3.196   2.180   4.727
 2920SOL     OW 9079   3.444   3.542   4.033
 2920SOL    HW1 9080   3.542   3.560   4.031
 2920SOL    HW2 9081   3.411   3.523   3.941
 2921SOL     OW 9082   2.631   2.482   5.176
 2921SOL    HW1 9083   2.612   2.454   5.270
 2921SOL    HW2 9084   2.611   2.406   5.113
 2922SOL     OW 9085   3.256   2.337   5.404
 2922SOL    HW1 9086   3.255   2.380   5.495
 2922SOL    HW2 9087   3.299   2.247   5.411
 2923SOL     OW 9088   2.822   2.745   5.307
 2923SOL    HW1 9089   2.876   2.671   5.267
 2923SOL    HW2 9090   2.760   2.782   5.237
 2924SOL     OW 9091   2.862   2.269   4.941
 2924SOL    HW1 9092   2.772   2.281   4.983
 2924SOL    HW2 9093   2.857   2.199   4.869
 2925SOL     OW 9094   1.955   2.703   4.508
 2925SOL    HW1 9095   2.041   2.680   4.555
 2925SOL    HW2 9096   1.914   2.783   4.552
 2926SOL     OW 9097   1.990   3.738   5.320
 2926SOL    HW1 9098   1.997   3.713   5.417
 2926SOL    HW2 9099   1.911   3.692   5.279
 2927SOL     OW 9100   3.561   2.436   5.558
 2927SOL    HW1 9101   3.528   2.515   5.506
 2927SOL    HW2 9102   3.582   2.361   5.496
 2928SOL     OW 9103   3.252   3.011   4.261
 2928SOL    HW1 9104   3.334   2.991   4.208
 2928SOL    HW2 9105   3.193   3.073   4.209
 2929SOL     OW 9106   2.425   2.025   4.612
 2929SOL    HW1 9107   2.415   2.075   4.698
 2929SOL    HW2 9108   2.400   2.084   4.535
 2930SOL     OW 9109   2.856   3.309   4.184
 2930SOL    HW1 9110   2.829   3.393   4.136
 2930SOL    HW2 9111   2.836   3.318   4.282
 2931SOL     OW 9112   2.217   3.676   4.600
 2931SOL    HW1 9113   2.260   3.586   4.605
 2931SOL    HW2 9114   2.285   3.746   4.620
 2932SOL     OW 9115   3.664   2.929   4.595
 2932SOL    HW1 9116   3.615   2.894   4.516
 2932SOL    HW2 9117   3.603   2.932   4.674
 2933SOL     OW 9118   3.080   3.397   5.240
 2933SOL    HW1 9119   3.073   3.326   5.310
 2933SOL    HW2 9120   3.021   3.374   5.163
 2934SOL     OW 9121   2.122   2.820   3.933
 2934SOL    HW1 9122   2.222   2.818   3.942
 2934SOL    HW2 9123   2.089   2.729   3.907
 2935SOL     OW 9124   3.345   2.623   4.440
 2935SOL    HW1 9125   3.340   2.568   4.524
 2935SOL    HW2 9126   3.429   2.677   4.441
 2936SOL     OW 9127   2.334   3.135   5.457
 2936SOL    HW1 9128   2.308   3.140   5.360
 2936SOL    HW2 9129   2.252   3.128   5.513
 2937SOL     OW 9130   2.989   3.644   3.945
 2937SOL    HW1 9131   2.909   3.609   3.995
 2937SOL    HW2 9132   3.017   3.577   3.876
 2938SOL     OW 9133   2.066   2.120   5.228
 2938SOL    HW1 9134   1.987   2.182   5.233
 2938SOL    HW2 9135   2.041   2.032   5.268
 2939SOL     OW 9136   3.488   3.253   3.815
 2939SOL    HW1 9137   3.449   3.343   3.797
 2939SOL    HW2 9138   3.420   3.183   3.797
 2940SOL     OW 9139   2.322   3.603   4.039
 2940SOL    HW1 9140   2.368   3.658   4.109
 2940SOL    HW2 9141   2.390   3.557   3.983
 2941SOL     OW 9142   3.289   1.949   4.172
 2941SOL    HW1 9143   3.273   1.933   4.074
 2941SOL    HW2 9144   3.387   1.964   4.187
 2942SOL     OW 9145   2.124   3.654   4.943
 2942SOL    HW1 9146   2.172   3.580   4.990
 2942SOL    HW2 9147   2.106   3.627   4.848
 2943SOL     OW 9148   2.801   3.565   4.617
 2943SOL    HW1 9149   2.882   3.518   4.650
 2943SOL    HW2 9150   2.761   3.512   4.542
 2944SOL     OW 9151   3.369   2.080   5.449
 2944SOL    HW1 9152   3.380   2.098   5.547
 2944SOL    HW2 9153   3.301   2.008   5.437
 2945SOL     OW 9154   2.586   2.159   5.486
 2945SOL    HW1 9155   2.681   2.130   5.475
 2945SOL    HW2 9156   2.550   2.123   5.572
 2946SOL     OW 9157   2.735   3.379   4.917
 2946SOL    HW1 9158   2.714   3.338   4.829
 2946SOL    HW2 9159   2.805   3.326   4.964
 2947SOL     OW 9160   3.209   2.460   5.162
 2947SOL    HW1 9161   3.235   2.421   5.250
 2947SOL    HW2 9162   3.247   2.552   5.154
 2948SOL     OW 9163   2.681   3.247   4.672
 2948SOL    HW1 9164   2.771   3.234   4.631
 2948SOL    HW2 9165   2.612   3.252   4.599
 2949SOL     OW 9166   2.792   2.374   4.643
 2949SOL    HW1 9167   2.759   2.361   4.549
 2949SOL    HW2 9168   2.829   2.287   4.677
 2950SOL     OW 9169   3.290   3.072   3.768
 2950SOL    HW1 9170   3.326   2.996   3.820
 2950SOL    HW2 9171   3.200   3.098   3.804
 2951SOL     OW 9172   2.945   2.542   5.173
 2951SOL    HW1 9173   2.889   2.469   5.212
 2951SOL    HW2 9174   3.041   2.512   5.169
 2952SOL     OW 9175   3.077   3.432   4.518
 2952SOL    HW1 9176   3.095   3.503   4.450
 2952SOL    HW2 9177   3.154   3.428   4.583
 2953SOL     OW 9178   2.326   3.032   4.455
 2953SOL    HW1 9179   2.265   3.000   4.527
 2953SOL    HW2 9180   2.280   3.023   4.367
 2954SOL     OW 9181   3.121   3.652   4.336
 2954SOL    HW1 9182   3.173   3.716   4.279
 2954SOL    HW2 9183   3.045   3.700   4.380
 2955SOL     OW 9184   1.957   2.420   5.114
 2955SOL    HW1 9185   2.051   2.413   5.081
 2955SOL    HW2 9186   1.952   2.488   5.187
 2956SOL     OW 9187   2.418   2.095   4.893
 2956SOL    HW1 9188   2.471   2.015   4.920
 2956SOL    HW2 9189   2.323   2.085   4.924
 2957SOL     OW 9190   2.706   2.346   4.393
 2957SOL    HW1 9191   2.751   2.420   4.343
 2957SOL    HW2 9192   2.694   2.268   4.333
 2958SOL     OW 9193   2.864   1.920   4.465
 2958SOL    HW1 9194   2.803   1.920   4.386
 2958SOL    HW2 9195   2.841   1.843   4.525
 2959SOL     OW 9196   3.301   3.020   4.579
 2959SOL    HW1 9197   3.234   2.947   4.597
 2959SOL    HW2 9198   3.318   3.025   4.481
 2960SOL     OW 9199   3.331   2.472   4.687
 2960SOL    HW1 9200   3.262   2.400   4.690
 2960SOL    HW2 9201   3.389   2.466   4.768
 2961SOL     OW 9202   3.698   2.663   4.103
 2961SOL    HW1 9203   3.757   2.619   4.171
 2961SOL    HW2 9204   3.675   2.598   4.031
 2962SOL     OW 9205   2.346   3.282   3.876
 2962SOL    HW1 9206   2.266   3.251   3.927
 2962SOL    HW2 9207   2.350   3.234   3.788
 2963SOL     OW 9208   3.548   3.143   4.352
 2963SOL    HW1 9209   3.646   3.137   4.372
 2963SOL    HW2 9210   3.514   3.232   4.382
 2964SOL     OW 9211   3.609   3.106   5.270
 2964SOL    HW1 9212   3.698   3.061   5.261
 2964SOL    HW2 9213   3.623   3.198   5.307
 2965SOL     OW 9214   2.913   3.219   5.066
 2965SOL    HW1 9215   2.830   3.185   5.109
 2965SOL    HW2 9216   2.993   3.171   5.104
 2966SOL     OW 9217   3.472   3.498   5.389
 2966SOL    HW1 9218   3.457   3.532   5.296
 2966SOL    HW2 9219   3.556   3.444   5.391
 2967SOL     OW 9220   3.009   3.098   4.829
 2967SOL    HW1 9221   2.944   3.125   4.899
 2967SOL    HW2 9222   2.973   3.123   4.739
 2968SOL     OW 9223   3.488   2.960   4.802
 2968SOL    HW1 9224   3.483   3.023   4.880
 2968SOL    HW2 9225   3.409   2.975   4.742
 2969SOL     OW 9226   2.774   1.953   5.104
 2969SOL    HW1 9227   2.798   1.926   5.011
 2969SOL    HW2 9228   2.855   1.993   5.149
 2970SOL     OW 9229   2.838   2.976   5.445
 2970SOL    HW1 9230   2.744   2.990   5.474
 2970SOL    HW2 9231   2.844   2.893   5.389
 2971SOL     OW 9232   2.287   2.682   4.980
 2971SOL    HW1 9233   2.359   2.695   5.048
 2971SOL    HW2 9234   2.253   2.588   4.986
 2972SOL     OW 9235   3.130   2.251   5.005
 2972SOL    HW1 9236   3.161   2.329   5.059
 2972SOL    HW2 9237   3.034   2.264   4.980
 2973SOL     OW 9238   1.940   3.431   5.080
 2973SOL    HW1 9239   1.904   3.499   5.016
 2973SOL    HW2 9240   2.040   3.428   5.073
 2974SOL     OW 9241   2.170   2.998   4.224
 2974SOL    HW1 9242   2.168   3.057   4.144
 2974SOL    HW2 9243   2.170   2.902   4.195
 2975SOL     OW 9244   2.396   2.415   4.587
 2975SOL    HW1 9245   2.411   2.372   4.498
 2975SOL    HW2 9246   2.482   2.417   4.638
 2976SOL     OW 9247   3.109   3.219   4.116
 2976SOL    HW1 9248   3.169   3.290   4.153
 2976SOL    HW2 9249   3.015   3.236   4.146
 2977SOL     OW 9250   3.159   3.329   4.868
 2977SOL    HW1 9251   3.214   3.334   4.952
 2977SOL    HW2 9252   3.106   3.244   4.868
 2978SOL     OW 9253   3.430   2.493   4.198
 2978SOL    HW1 9254   3.383   2.523   4.281
 2978SOL    HW2 9255   3.487   2.567   4.163
 2979SOL     OW 9256   2.210   3.395   5.030
 2979SOL    HW1 9257   2.195   3.349   4.943
 2979SOL    HW2 9258   2.308   3.409   5.043
 2980SOL     OW 9259   2.279   2.606   5.328
 2980SOL    HW1 9260   2.345   2.654   5.269
 2980SOL    HW2 9261   2.316   2.517   5.352
 2981SOL     OW 9262   3.478   2.653   5.418
 2981SOL    HW1 9263   3.386   2.690   5.413
 2981SOL    HW2 9264   3.533   2.689   5.343
 2982SOL     OW 9265   2.360   1.887   5.488
 2982SOL    HW1 9266   2.316   1.833   5.416
 2982SOL    HW2 9267   2.306   1.969   5.506
 2983SOL     OW 9268   2.444   2.741   4.756
 2983SOL    HW1 9269   2.489   2.830   4.763
 2983SOL    HW2 9270   2.390   2.724   4.839
 2984SOL     OW 9271   3.199   2.718   4.738
 2984SOL    HW1 9272   3.105   2.696   4.712
 2984SOL    HW2 9273   3.256   2.637   4.727
 2985SOL     OW 9274   2.158   2.051   4.976
 2985SOL    HW1 9275   2.127   2.080   5.066
 2985SOL    HW2 9276   2.146   1.952   4.968
 2986SOL     OW 9277   1.912   3.170   4.994
 2986SOL    HW1 9278   1.944   3.107   5.064
 2986SOL    HW2 9279   1.917   3.264   5.030
 2987SOL     OW 9280   2.592   2.496   4.787
 2987SOL    HW1 9281   2.669   2.468   4.730
 2987SOL    HW2 9282   2.556   2.583   4.754
 2988SOL     OW 9283   3.601   2.832  -0.008
 2988SOL    HW1 9284   3.562   2.759  -0.063
 2988SOL    HW2 9285   3.542   2.849   0.071
 2989SOL     OW 9286   3.496   2.254   4.078
 2989SOL    HW1 9287   3.515   2.179   4.140
 2989SOL    HW2 9288   3.461   2.333   4.129
 2990SOL     OW 9289   2.894   2.620   4.694
 2990SOL    HW1 9290   2.880   2.643   4.790
 2990SOL    HW2 9291   2.867   2.525   4.678
 2991SOL     OW 9292   2.845   3.424   5.453
 2991SOL    HW1 9293   2.823   3.472   5.368
 2991SOL    HW2 9294   2.891   3.338   5.433
 2992SOL     OW 9295   3.709   3.364   5.329
 2992SOL    HW1 9296   3.732   3.390   5.235
 2992SOL    HW2 9297   3.790   3.371   5.387
 2993SOL     OW 9298   2.214   2.783   5.527
 2993SOL    HW1 9299   2.291   2.802   5.588
 2993SOL    HW2 9300   2.240   2.716   5.458
 2994SOL     OW 9301   3.397   2.126   3.852
 2994SOL    HW1 9302   3.329   2.059   3.882
 2994SOL    HW2 9303   3.430   2.179   3.931
 2995SOL     OW 9304   3.145   2.694   3.747
 2995SOL    HW1 9305   3.204   2.614   3.752
 2995SOL    HW2 9306   3.165   2.745   3.663
 2996SOL     OW 9307   2.929   3.203   4.581
 2996SOL    HW1 9308   2.938   3.122   4.523
 2996SOL    HW2 9309   2.987   3.276   4.544
 2997SOL     OW 9310   2.178   2.671   4.669
 2997SOL    HW1 9311   2.276   2.691   4.670
 2997SOL    HW2 9312   2.163   2.576   4.695
 2998SOL     OW 9313   2.179   2.397   4.741
 2998SOL    HW1 9314   2.139   2.307   4.729
 2998SOL    HW2 9315   2.257   2.408   4.680
 2999SOL     OW 9316   2.981   2.319   5.362
 2999SOL    HW1 9317   2.940   2.240   5.409
 2999SOL    HW2 9318   3.079   2.321   5.379
 3000SOL     OW 9319   3.016   2.055   5.176
 3000SOL    HW1 9320   2.992   2.083   5.269
 3000SOL    HW2 9321   3.064   2.129   5.130
 3001SOL     OW 9322   1.868   3.174   3.916
 3001SOL    HW1 9323   1.778   3.198   3.880
 3001SOL    HW2 9324   1.865   3.083   3.956
 3002SOL     OW 9325   1.955   3.640   4.670
 3002SOL    HW1 9326   1.917   3.558   4.625
 3002SOL    HW2 9327   2.048   3.655   4.638
 3003SOL     OW 9328   2.351   3.437   4.626
 3003SOL    HW1 9329   2.422   3.499   4.657
 3003SOL    HW2 9330   2.390   3.369   4.564
 3004SOL     OW 9331   2.819   2.657   4.956
 3004SOL    HW1 9332   2.878   2.623   5.029
 3004SOL    HW2 9333   2.735   2.602   4.953
 3005SOL     OW 9334   1.900   2.429   4.840
 3005SOL    HW1 9335   1.977   2.410   4.780
 3005SOL    HW2 9336   1.930   2.424   4.935
 3006SOL     OW 9337   2.061   2.386   5.463
 3006SOL    HW1 9338   2.124   2.335   5.404
 3006SOL    HW2 9339   2.024   2.464   5.413
 3007SOL     OW 9340   3.244   2.795   5.382
 3007SOL    HW1 9341   3.268   2.892   5.381
 3007SOL    HW2 9342   3.240   2.761   5.288
 3008SOL     OW 9343   3.501   2.469   4.903
 3008SOL    HW1 9344   3.482   2.408   4.980
 3008SOL    HW2 9345   3.592   2.449   4.866
 3009SOL     OW 9346   2.094   3.404   5.448
 3009SOL    HW1 9347   2.079   3.476   5.516
 3009SOL    HW2 9348   2.105   3.316   5.495
 3010SOL     OW 9349   2.575   2.306   4.979
 3010SOL    HW1 9350   2.516   2.229   4.952
 3010SOL    HW2 9351   2.572   2.376   4.907
 3011SOL     OW 9352   2.760   3.548   5.216
 3011SOL    HW1 9353   2.746   3.492   5.135
 3011SOL    HW2 9354   2.770   3.644   5.189
 3012SOL     OW 9355   1.998   3.000   5.199
 3012SOL    HW1 9356   2.005   2.962   5.291
 3012SOL    HW2 9357   2.020   2.929   5.132
 3013SOL     OW 9358   3.174   2.906   4.935
 3013SOL    HW1 9359   3.194   2.834   4.868
 3013SOL    HW2 9360   3.112   2.973   4.895
 3014SOL     OW 9361   3.185   2.758   4.010
 3014SOL    HW1 9362   3.129   2.714   4.080
 3014SOL    HW2 9363   3.151   2.734   3.919
 3015SOL     OW 9364   3.647   3.582   4.888
 3015SOL    HW1 9365   3.709   3.614   4.816
 3015SOL    HW2 9366   3.612   3.492   4.863
 3016SOL     OW 9367   3.102   3.597   4.824
 3016SOL    HW1 9368   3.189   3.629   4.785
 3016SOL    HW2 9369   3.111   3.500   4.848
 3017SOL     OW 9370   1.942   3.140   4.726
 3017SOL    HW1 9371   1.925   3.148   4.825
 3017SOL    HW2 9372   1.882   3.070   4.688
 3018SOL     OW 9373   2.551   3.540   5.470
 3018SOL    HW1 9374   2.487   3.617   5.464
 3018SOL    HW2 9375   2.625   3.553   5.405
 3019SOL     OW 9376   3.580   2.016   4.216
 3019SOL    HW1 9377   3.655   2.006   4.151
 3019SOL    HW2 9378   3.565   1.931   4.265
 3020SOL     OW 9379   3.261   3.433   4.217
 3020SOL    HW1 9380   3.320   3.467   4.144
 3020SOL    HW2 9381   3.203   3.508   4.250
 3021SOL     OW 9382   2.011   3.650  -0.019
 3021SOL    HW1 9383   1.955   3.580   0.025
 3021SOL    HW2 9384   2.063   3.700   0.051
 3022SOL     OW 9385   3.142   2.793   4.379
 3022SOL    HW1 9386   3.216   2.730   4.401
 3022SOL    HW2 9387   3.179   2.871   4.329
 3023SOL     OW 9388   2.657   3.146   5.138
 3023SOL    HW1 9389   2.628   3.189   5.223
 3023SOL    HW2 9390   2.581   3.147   5.073
 3024SOL     OW 9391   2.523   3.489   3.883
 3024SOL    HW1 9392   2.540   3.508   3.786
 3024SOL    HW2 9393   2.468   3.405   3.891
 3025SOL     OW 9394   3.473   3.593   5.114
 3025SOL    HW1 9395   3.535   3.589   5.036
 3025SOL    HW2 9396   3.460   3.688   5.142
 3026SOL     OW 9397   3.652   2.007   4.728
 3026SOL    HW1 9398   3.743   2.002   4.686
 3026SOL    HW2 9399   3.583   2.017   4.656
 3027SOL     OW 9400   2.083   2.276   4.481
 3027SOL    HW1 9401   2.006   2.246   4.425
 3027SOL    HW2 9402   2.104   2.206   4.549
 3028SOL     OW 9403   3.072   3.465   3.754
 3028SOL    HW1 9404   3.065   3.373   3.791
 3028SOL    HW2 9405   2.998   3.481   3.688
 3029SOL     OW 9406   2.683   2.870   5.108
 3029SOL    HW1 9407   2.738   2.837   5.031
 3029SOL    HW2 9408   2.687   2.970   5.112
 3030SOL     OW 9409   2.821   2.795   4.029
 3030SOL    HW1 9410   2.867   2.762   3.946
 3030SOL    HW2 9411   2.781   2.717   4.077
 3031SOL     OW 9412   3.346   3.512   3.768
 3031SOL    HW1 9413   3.249   3.491   3.755
 3031SOL    HW2 9414   3.392   3.511   3.679
 3032SOL     OW 9415   2.223   3.169   5.214
 3032SOL    HW1 9416   2.216   3.247   5.151
 3032SOL    HW2 9417   2.145   3.108   5.200
 3033SOL     OW 9418   3.476   3.150   5.013
 3033SOL    HW1 9419   3.532   3.123   5.091
 3033SOL    HW2 9420   3.408   3.217   5.042
 3034SOL     OW 9421   2.933   2.968   4.451
 3034SOL    HW1 9422   2.853   2.919   4.484
 3034SOL    HW2 9423   3.001   2.903   4.415
 3035SOL     OW 9424   2.888   2.101   4.690
 3035SOL    HW1 9425   2.879   2.062   4.599
 3035SOL    HW2 9426   2.885   2.027   4.758
 3036SOL     OW 9427   2.472   3.351   4.200
 3036SOL    HW1 9428   2.527   3.294   4.139
 3036SOL    HW2 9429   2.384   3.372   4.156
 3037SOL     OW 9430   3.601   2.268   5.114
 3037SOL    HW1 9431   3.674   2.336   5.108
 3037SOL    HW2 9432   3.626   2.188   5.059
 3038SOL     OW 9433   2.123   3.202   4.025
 3038SOL    HW1 9434   2.029   3.196   3.991
 3038SOL    HW2 9435   2.123   3.248   4.114
 3039SOL     OW 9436   1.982   2.914   5.463
 3039SOL    HW1 9437   1.900   2.882   5.511
 3039SOL    HW2 9438   2.061   2.861   5.493
 3040SOL     OW 9439   2.539   2.056   5.225
 3040SOL    HW1 9440   2.627   2.031   5.183
 3040SOL    HW2 9441   2.556   2.089   5.318
 3041SOL     OW 9442   1.869   2.292   3.748
 3041SOL    HW1 9443   1.833   2.211   3.700
 3041SOL    HW2 9444   1.968   2.294   3.738
 3042SOL     OW 9445   3.284   2.726   5.120
 3042SOL    HW1 9446   3.227   2.785   5.064
 3042SOL    HW2 9447   3.377   2.723   5.082
 3043SOL     OW 9448   3.048   3.206   3.846
 3043SOL    HW1 9449   2.949   3.217   3.839
 3043SOL    HW2 9450   3.075   3.200   3.942
 3044SOL     OW 9451   2.480   2.701   5.164
 3044SOL    HW1 9452   2.542   2.778   5.149
 3044SOL    HW2 9453   2.532   2.616   5.170
 3045SOL     OW 9454   3.349   3.667   4.723
 3045SOL    HW1 9455   3.378   3.733   4.653
 3045SOL    HW2 9456   3.428   3.615   4.754
 3046SOL     OW 9457   2.564   2.431   5.432
 3046SOL    HW1 9458   2.626   2.488   5.486
 3046SOL    HW2 9459   2.576   2.335   5.458
 3047SOL     OW 9460   3.335   3.057   5.357
 3047SOL    HW1 9461   3.322   3.068   5.456
 3047SOL    HW2 9462   3.430   3.075   5.334
 3048SOL     OW 9463   2.229   3.602   5.297
 3048SOL    HW1 9464   2.146   3.655   5.286
 3048SOL    HW2 9465   2.207   3.512   5.334
 3049SOL     OW 9466   3.523   2.737   4.980
 3049SOL    HW1 9467   3.519   2.644   4.943
 3049SOL    HW2 9468   3.514   2.803   4.906
 3050SOL     OW 9469   3.094   2.120   4.259
 3050SOL    HW1 9470   3.169   2.061   4.229
 3050SOL    HW2 9471   3.131   2.196   4.313
 3051SOL     OW 9472   3.598   2.226   5.386
 3051SOL    HW1 9473   3.595   2.247   5.289
 3051SOL    HW2 9474   3.523   2.165   5.410
 3052SOL     OW 9475   3.617   2.791   5.231
 3052SOL    HW1 9476   3.601   2.888   5.250
 3052SOL    HW2 9477   3.592   2.771   5.136
 3053SOL     OW 9478   2.789   3.275   3.814
 3053SOL    HW1 9479   2.714   3.254   3.876
 3053SOL    HW2 9480   2.755   3.333   3.740
 3054SOL     OW 9481   2.531   3.634   4.668
 3054SOL    HW1 9482   2.509   3.729   4.646
 3054SOL    HW2 9483   2.629   3.619   4.654
 3055SOL     OW 9484   2.734   2.831   4.585
 3055SOL    HW1 9485   2.787   2.753   4.620
 3055SOL    HW2 9486   2.685   2.875   4.660
 3056SOL     OW 9487   3.699   3.418   4.568
 3056SOL    HW1 9488   3.617   3.406   4.513
 3056SOL    HW2 9489   3.704   3.346   4.637
 3057SOL     OW 9490   2.088   3.151   5.574
 3057SOL    HW1 9491   2.042   3.074   5.531
 3057SOL    HW2 9492   2.054   3.162   5.668
 3058SOL     OW 9493   1.960   3.094   4.388
 3058SOL    HW1 9494   1.968   3.048   4.477
 3058SOL    HW2 9495   2.028   3.057   4.325
 3059SOL     OW 9496   2.547   3.277   5.355
 3059SOL    HW1 9497   2.470   3.226   5.392
 3059SOL    HW2 9498   2.551   3.368   5.397
 3060SOL     OW 9499   3.681   2.048   4.989
 3060SOL    HW1 9500   3.711   1.959   5.022
 3060SOL    HW2 9501   3.670   2.045   4.889
 3061SOL     OW 9502   3.548   3.341   4.818
 3061SOL    HW1 9503   3.471   3.322   4.757
 3061SOL    HW2 9504   3.553   3.271   4.889
 3062SOL     OW 9505   2.204   2.422   5.015
 3062SOL    HW1 9506   2.260   2.362   5.072
 3062SOL    HW2 9507   2.214   2.395   4.919
 3063SOL     OW 9508   2.690   3.441   4.403
 3063SOL    HW1 9509   2.662   3.493   4.322
 3063SOL    HW2 9510   2.620   3.372   4.423
 3064SOL     OW 9511   3.292   2.099   4.840
 3064SOL    HW1 9512   3.313   2.007   4.874
 3064SOL    HW2 9513   3.240   2.149   4.910
 3065SOL     OW 9514   2.870   1.876   4.852
 3065SOL    HW1 9515   2.808   1.814   4.804
 3065SOL    HW2 9516   2.961   1.836   4.855
 3066SOL     OW 9517   2.643   3.191   4.050
 3066SOL    HW1 9518   2.627   3.093   4.060
 3066SOL    HW2 9519   2.728   3.217   4.097
 3067SOL     OW 9520   2.484   3.430   5.012
 3067SOL    HW1 9521   2.479   3.519   5.058
 3067SOL    HW2 9522   2.576   3.416   4.976
 3068SOL     OW 9523   3.228   1.912   3.902
 3068SOL    HW1 9524   3.271   1.836   3.852
 3068SOL    HW2 9525   3.134   1.888   3.924
 3069SOL     OW 9526   3.185   2.333   4.421
 3069SOL    HW1 9527   3.124   2.412   4.411
 3069SOL    HW2 9528   3.165   2.286   4.507
 3070SOL     OW 9529   3.419   2.051   4.590
 3070SOL    HW1 9530   3.374   2.077   4.676
 3070SOL    HW2 9531   3.430   2.132   4.532
 3071SOL     OW 9532   1.888   2.921   4.028
 3071SOL    HW1 9533   1.977   2.909   3.985
 3071SOL    HW2 9534   1.855   2.833   4.062
 3072SOL     OW 9535   2.752   3.536   4.064
 3072SOL    HW1 9536   2.674   3.511   4.006
 3072SOL    HW2 9537   2.725   3.611   4.124
 3073SOL     OW 9538   2.070   4.341   0.133
 3073SOL    HW1 9539   1.978   4.336   0.172
 3073SOL    HW2 9540   2.066   4.322   0.035
 3074SOL     OW 9541   2.072   4.021   1.000
 3074SOL    HW1 9542   2.112   3.975   1.079
 3074SOL    HW2 9543   1.990   3.972   0.972
 3075SOL     OW 9544   1.854   4.109   0.638
 3075SOL    HW1 9545   1.769   4.143   0.678
 3075SOL    HW2 9546   1.834   4.029   0.581
 3076SOL     OW 9547   2.430   5.032   1.194
 3076SOL    HW1 9548   2.344   5.035   1.143
 3076SOL    HW2 9549   2.452   5.123   1.229
 3077SOL     OW 9550   3.436   5.242   0.705
 3077SOL    HW1 9551   3.391   5.216   0.790
 3077SOL    HW2 9552   3.368   5.250   0.632
 3078SOL     OW 9553   2.996   4.434   0.691
 3078SOL    HW1 9554   3.050   4.516   0.674
 3078SOL    HW2 9555   2.945   4.443   0.777
 3079SOL     OW 9556   3.640   4.315   0.215
 3079SOL    HW1 9557   3.610   4.314   0.120
 3079SOL    HW2 9558   3.600   4.237   0.264
 3080SOL     OW 9559   2.590   4.860   1.045
 3080SOL    HW1 9560   2.527   4.898   1.111
 3080SOL    HW2 9561   2.638   4.934   0.997
 3081SOL     OW 9562   2.738   4.480   1.820
 3081SOL    HW1 9563   2.740   4.545   1.896
 3081SOL    HW2 9564   2.763   4.527   1.735
 3082SOL     OW 9565   2.545   4.717   0.648
 3082SOL    HW1 9566   2.617   4.712   0.717
 3082SOL    HW2 9567   2.472   4.778   0.681
 3083SOL     OW 9568   2.573   4.877   1.823
 3083SOL    HW1 9569   2.627   4.953   1.859
 3083SOL    HW2 9570   2.492   4.913   1.777
 3084SOL     OW 9571   2.195   5.137   1.064
 3084SOL    HW1 9572   2.116   5.094   1.021
 3084SOL    HW2 9573   2.242   5.195   0.997
 3085SOL     OW 9574   3.318   5.229   1.365
 3085SOL    HW1 9575   3.376   5.310   1.372
 3085SOL    HW2 9576   3.244   5.235   1.432
 3086SOL     OW 9577   2.278   4.120   1.480
 3086SOL    HW1 9578   2.364   4.069   1.489
 3086SOL    HW2 9579   2.202   4.061   1.504
 3087SOL     OW 9580   3.465   4.161   0.746
 3087SOL    HW1 9581   3.400   4.185   0.674
 3087SOL    HW2 9582   3.470   4.235   0.812
 3088SOL     OW 9583   2.091   5.440   0.468
 3088SOL    HW1 9584   2.107   5.518   0.529
 3088SOL    HW2 9585   2.168   5.431   0.405
 3089SOL     OW 9586   2.999   5.064   1.698
 3089SOL    HW1 9587   3.048   5.059   1.785
 3089SOL    HW2 9588   2.943   4.982   1.686
 3090SOL     OW 9589   2.093   5.170   0.529
 3090SOL    HW1 9590   2.085   5.270   0.527
 3090SOL    HW2 9591   2.037   5.134   0.603
 3091SOL     OW 9592   2.137   4.813   0.894
 3091SOL    HW1 9593   2.135   4.719   0.928
 3091SOL    HW2 9594   2.076   4.869   0.949
 3092SOL     OW 9595   2.451   5.525   1.425
 3092SOL    HW1 9596   2.369   5.503   1.477
 3092SOL    HW2 9597   2.486   5.615   1.454
 3093SOL     OW 9598   2.439   4.718   0.146
 3093SOL    HW1 9599   2.487   4.762   0.071
 3093SOL    HW2 9600   2.481   4.744   0.233
 3094SOL     OW 9601   1.976   4.390   0.567
 3094SOL    HW1 9602   1.948   4.295   0.583
 3094SOL    HW2 9603   1.970   4.441   0.653
 3095SOL     OW 9604   3.711   5.483   0.328
 3095SOL    HW1 9605   3.784   5.457   0.391
 3095SOL    HW2 9606   3.723   5.577   0.299
 3096SOL     OW 9607   1.891   5.311   0.121
 3096SOL    HW1 9608   1.877   5.214   0.142
 3096SOL    HW2 9609   1.874   5.365   0.203
 3097SOL     OW 9610   3.557   4.645   0.653
 3097SOL    HW1 9611   3.643   4.596   0.643
 3097SOL    HW2 9612   3.537   4.696   0.569
 3098SOL     OW 9613   3.520   4.826   0.434
 3098SOL    HW1 9614   3.609   4.820   0.389
 3098SOL    HW2 9615   3.524   4.893   0.508
 3099SOL     OW 9616   1.985   4.478   1.595
 3099SOL    HW1 9617   2.080   4.509   1.589
 3099SOL    HW2 9618   1.924   4.556   1.584
 3100SOL     OW 9619   2.472   5.120   0.730
 3100SOL    HW1 9620   2.429   5.030   0.740
 3100SOL    HW2 9621   2.459   5.152   0.636
 3101SOL     OW 9622   3.145   4.954   1.422
 3101SOL    HW1 9623   3.170   4.884   1.355
 3101SOL    HW2 9624   3.208   4.950   1.499
 3102SOL     OW 9625   2.684   3.741   0.514
 3102SOL    HW1 9626   2.730   3.825   0.487
 3102SOL    HW2 9627   2.585   3.756   0.515
 3103SOL     OW 9628   2.048   4.677   1.291
 3103SOL    HW1 9629   2.138   4.638   1.274
 3103SOL    HW2 9630   1.995   4.677   1.206
 3104SOL     OW 9631   3.395   4.733   0.204
 3104SOL    HW1 9632   3.322   4.671   0.233
 3104SOL    HW2 9633   3.444   4.767   0.284
 3105SOL     OW 9634   3.037   5.545   1.625
 3105SOL    HW1 9635   3.045   5.616   1.555
 3105SOL    HW2 9636   3.059   5.456   1.586
 3106SOL     OW 9637   2.200   3.984   1.844
 3106SOL    HW1 9638   2.251   4.062   1.881
 3106SOL    HW2 9639   2.103   3.995   1.862
 3107SOL     OW 9640   3.327   5.147   0.939
 3107SOL    HW1 9641   3.263   5.167   1.013
 3107SOL    HW2 9642   3.319   5.051   0.912
 3108SOL     OW 9643   3.511   5.489   0.572
 3108SOL    HW1 9644   3.492   5.459   0.479
 3108SOL    HW2 9645   3.494   5.414   0.636
 3109SOL     OW 9646   2.454   4.438   0.274
 3109SOL    HW1 9647   2.462   4.527   0.228
 3109SOL    HW2 9648   2.385   4.445   0.347
 3110SOL     OW 9649   3.138   4.095   0.933
 3110SOL    HW1 9650   3.046   4.057   0.940
 3110SOL    HW2 9651   3.200   4.043   0.992
 3111SOL     OW 9652   3.447   5.398   0.308
 3111SOL    HW1 9653   3.543   5.426   0.304
 3111SOL    HW2 9654   3.413   5.381   0.216
 3112SOL     OW 9655   2.644   4.337   1.443
 3112SOL    HW1 9656   2.615   4.317   1.537
 3112SOL    HW2 9657   2.613   4.264   1.382
 3113SOL     OW 9658   3.258   4.212   1.677
 3113SOL    HW1 9659   3.259   4.256   1.767
 3113SOL    HW2 9660   3.326   4.139   1.675
 3114SOL     OW 9661   2.810   4.605   1.585
 3114SOL    HW1 9662   2.870   4.537   1.544
 3114SOL    HW2 9663   2.758   4.651   1.513
 3115SOL     OW 9664   2.855   4.125   1.217
 3115SOL    HW1 9665   2.760   4.146   1.240
 3115SOL    HW2 9666   2.858   4.072   1.133
 3116SOL     OW 9667   2.915   4.422   0.422
 3116SOL    HW1 9668   2.939   4.421   0.519
 3116SOL    HW2 9669   2.828   4.376   0.409
 3117SOL     OW 9670   1.948   4.543   0.792
 3117SOL    HW1 9671   2.037   4.540   0.838
 3117SOL    HW2 9672   1.897   4.623   0.824
 3118SOL     OW 9673   1.987   5.607   1.593
 3118SOL    HW1 9674   1.994   5.579   1.688
 3118SOL    HW2 9675   1.902   5.570   1.553
 3119SOL     OW 9676   2.749   4.078   0.207
 3119SOL    HW1 9677   2.794   4.136   0.139
 3119SOL    HW2 9678   2.752   3.983   0.176
 3120SOL     OW 9679   3.547   4.290   1.825
 3120SOL    HW1 9680   3.521   4.373   1.776
 3120SOL    HW2 9681   3.580   4.222   1.760
 3121SOL     OW 9682   3.243   4.867   0.525
 3121SOL    HW1 9683   3.330   4.853   0.477
 3121SOL    HW2 9684   3.189   4.936   0.478
 3122SOL     OW 9685   2.405   3.891   0.901
 3122SOL    HW1 9686   2.413   3.926   0.994
 3122SOL    HW2 9687   2.417   3.966   0.836
 3123SOL     OW 9688   2.853   5.171   0.462
 3123SOL    HW1 9689   2.821   5.251   0.412
 3123SOL    HW2 9690   2.834   5.183   0.559
 3124SOL     OW 9691   2.217   5.543   0.879
 3124SOL    HW1 9692   2.263   5.455   0.883
 3124SOL    HW2 9693   2.283   5.616   0.896
 3125SOL     OW 9694   3.661   4.781   0.879
 3125SOL    HW1 9695   3.612   4.756   0.795
 3125SOL    HW2 9696   3.597   4.786   0.955
 3126SOL     OW 9697   3.085   5.262   1.515
 3126SOL    HW1 9698   3.074   5.188   1.581
 3126SOL    HW2 9699   3.018   5.252   1.442
 3127SOL     OW 9700   2.180   4.686   0.259
 3127SOL    HW1 9701   2.269   4.708   0.217
 3127SOL    HW2 9702   2.146   4.600   0.222
 3128SOL     OW 9703   3.348   4.481   0.721
 3128SOL    HW1 9704   3.346   4.436   0.810
 3128SOL    HW2 9705   3.429   4.539   0.714
 3129SOL     OW 9706   2.333   4.992   1.729
 3129SOL    HW1 9707   2.308   4.998   1.633
 3129SOL    HW2 9708   2.251   4.992   1.785
 3130SOL     OW 9709   2.965   5.505   0.217
 3130SOL    HW1 9710   2.896   5.458   0.273
 3130SOL    HW2 9711   3.004   5.441   0.151
 3131SOL     OW 9712   2.033   3.987   1.502
 3131SOL    HW1 9713   2.009   4.052   1.574
 3131SOL    HW2 9714   2.018   3.894   1.536
 3132SOL     OW 9715   3.493   5.104   0.095
 3132SOL    HW1 9716   3.458   5.196   0.077
 3132SOL    HW2 9717   3.424   5.036   0.071
 3133SOL     OW 9718   2.333   5.454   0.324
 3133SOL    HW1 9719   2.371   5.525   0.383
 3133SOL    HW2 9720   2.400   5.428   0.254
 3134SOL     OW 9721   3.265   3.826   0.444
 3134SOL    HW1 9722   3.257   3.799   0.348
 3134SOL    HW2 9723   3.362   3.837   0.467
 3135SOL     OW 9724   2.119   5.517   1.221
 3135SOL    HW1 9725   2.171   5.441   1.259
 3135SOL    HW2 9726   2.100   5.499   1.124
 3136SOL     OW 9727   2.800   5.430   0.892
 3136SOL    HW1 9728   2.888   5.389   0.918
 3136SOL    HW2 9729   2.760   5.378   0.817
 3137SOL     OW 9730   2.258   4.410   0.472
 3137SOL    HW1 9731   2.275   4.312   0.486
 3137SOL    HW2 9732   2.161   4.430   0.489
 3138SOL     OW 9733   3.385   3.965   1.728
 3138SOL    HW1 9734   3.385   3.976   1.828
 3138SOL    HW2 9735   3.294   3.935   1.699
 3139SOL     OW 9736   2.502   3.849   0.106
 3139SOL    HW1 9737   2.596   3.817   0.118
 3139SOL    HW2 9738   2.459   3.798   0.031
 3140SOL     OW 9739   2.597   4.034   1.769
 3140SOL    HW1 9740   2.696   4.033   1.774
 3140SOL    HW2 9741   2.559   3.989   1.850
 3141SOL     OW 9742   2.731   5.233   1.194
 3141SOL    HW1 9743   2.713   5.197   1.102
 3141SOL    HW2 9744   2.805   5.182   1.237
 3142SOL     OW 9745   3.198   4.322   1.434
 3142SOL    HW1 9746   3.231   4.286   1.521
 3142SOL    HW2 9747   3.237   4.412   1.418
 3143SOL     OW 9748   2.682   5.103   0.943
 3143SOL    HW1 9749   2.774   5.096   0.904
 3143SOL    HW2 9750   2.616   5.120   0.870
 3144SOL     OW 9751   2.782   4.231   0.895
 3144SOL    HW1 9752   2.757   4.223   0.798
 3144SOL    HW2 9753   2.818   4.143   0.927
 3145SOL     OW 9754   2.413   3.790   0.490
 3145SOL    HW1 9755   2.330   3.786   0.547
 3145SOL    HW2 9756   2.407   3.868   0.428
 3146SOL     OW 9757   3.289   4.927   0.037
 3146SOL    HW1 9758   3.322   4.851   0.093
 3146SOL    HW2 9759   3.201   4.960   0.073
 3147SOL     OW 9760   2.155   3.770   0.185
 3147SOL    HW1 9761   2.207   3.840   0.136
 3147SOL    HW2 9762   2.217   3.705   0.228
 3148SOL     OW 9763   2.815   3.977   0.457
 3148SOL    HW1 9764   2.781   4.016   0.371
 3148SOL    HW2 9765   2.913   3.991   0.464
 3149SOL     OW 9766   2.941   4.411   1.450
 3149SOL    HW1 9767   2.875   4.336   1.456
 3149SOL    HW2 9768   3.034   4.373   1.447
 3150SOL     OW 9769   3.075   5.301   0.795
 3150SOL    HW1 9770   3.088   5.369   0.723
 3150SOL    HW2 9771   3.151   5.307   0.861
 3151SOL     OW 9772   2.333   4.878   0.719
 3151SOL    HW1 9773   2.268   4.857   0.792
 3151SOL    HW2 9774   2.287   4.870   0.631
 3152SOL     OW 9775   3.120   5.517   0.612
 3152SOL    HW1 9776   3.176   5.579   0.557
 3152SOL    HW2 9777   3.046   5.569   0.655
 3153SOL     OW 9778   2.883   4.247   0.031
 3153SOL    HW1 9779   2.841   4.334   0.007
 3153SOL    HW2 9780   2.951   4.262   0.103
 3154SOL     OW 9781   1.946   4.269   1.426
 3154SOL    HW1 9782   2.033   4.280   1.379
 3154SOL    HW2 9783   1.931   4.345   1.489
 3155SOL     OW 9784   2.417   3.941   1.175
 3155SOL    HW1 9785   2.460   3.855   1.202
 3155SOL    HW2 9786   2.321   3.941   1.205
 3156SOL     OW 9787   2.725   4.180   0.633
 3156SOL    HW1 9788   2.684   4.243   0.567
 3156SOL    HW2 9789   2.758   4.099   0.585
 3157SOL     OW 9790   2.874   3.782   0.742
 3157SOL    HW1 9791   2.815   3.781   0.661
 3157SOL    HW2 9792   2.852   3.704   0.800
 3158SOL     OW 9793   3.315   4.884   0.858
 3158SOL    HW1 9794   3.237   4.822   0.854
 3158SOL    HW2 9795   3.355   4.895   0.767
 3159SOL     OW 9796   3.331   4.338   0.964
 3159SOL    HW1 9797   3.268   4.261   0.963
 3159SOL    HW2 9798   3.391   4.330   1.043
 3160SOL     OW 9799   3.694   4.525   0.380
 3160SOL    HW1 9800   3.754   4.481   0.446
 3160SOL    HW2 9801   3.671   4.461   0.307
 3161SOL     OW 9802   2.351   5.144   0.149
 3161SOL    HW1 9803   2.270   5.120   0.203
 3161SOL    HW2 9804   2.347   5.096   0.061
 3162SOL     OW 9805   3.541   4.990   0.645
 3162SOL    HW1 9806   3.640   4.986   0.656
 3162SOL    HW2 9807   3.510   5.084   0.661
 3163SOL     OW 9808   3.250   4.300   0.064
 3163SOL    HW1 9809   3.190   4.274   0.140
 3163SOL    HW2 9810   3.344   4.279   0.088
 3164SOL     OW 9811   2.385   3.991   0.307
 3164SOL    HW1 9812   2.434   3.937   0.238
 3164SOL    HW2 9813   2.355   4.077   0.267
 3165SOL     OW 9814   3.611   4.966   1.547
 3165SOL    HW1 9815   3.701   4.925   1.530
 3165SOL    HW2 9816   3.624   5.059   1.583
 3166SOL     OW 9817   2.911   5.073   1.337
 3166SOL    HW1 9818   2.829   5.043   1.386
 3166SOL    HW2 9819   2.992   5.032   1.379
 3167SOL     OW 9820   3.477   5.357   1.661
 3167SOL    HW1 9821   3.459   5.394   1.570
 3167SOL    HW2 9822   3.561   5.303   1.660
 3168SOL     OW 9823   3.007   4.956   1.105
 3168SOL    HW1 9824   2.946   4.990   1.177
 3168SOL    HW2 9825   2.974   4.988   1.016
 3169SOL     OW 9826   3.481   4.818   1.082
 3169SOL    HW1 9827   3.476   4.885   1.156
 3169SOL    HW2 9828   3.409   4.837   1.014
 3170SOL     OW 9829   2.839   4.840   1.717
 3170SOL    HW1 9830   2.745   4.860   1.746
 3170SOL    HW2 9831   2.840   4.756   1.663
 3171SOL     OW 9832   2.577   4.779   0.376
 3171SOL    HW1 9833   2.560   4.759   0.473
 3171SOL    HW2 9834   2.656   4.727   0.344
 3172SOL     OW 9835   2.282   4.540   1.256
 3172SOL    HW1 9836   2.358   4.553   1.321
 3172SOL    HW2 9837   2.242   4.450   1.269
 3173SOL     OW 9838   3.126   4.114   1.272
 3173SOL    HW1 9839   3.159   4.195   1.321
 3173SOL    HW2 9840   3.029   4.126   1.250
 3174SOL     OW 9841   1.939   5.294   1.352
 3174SOL    HW1 9842   1.900   5.363   1.292
 3174SOL    HW2 9843   2.039   5.294   1.345
 3175SOL     OW 9844   2.188   4.854   0.485
 3175SOL    HW1 9845   2.196   4.938   0.431
 3175SOL    HW2 9846   2.191   4.775   0.423
 3176SOL     OW 9847   2.409   4.265   0.864
 3176SOL    HW1 9848   2.419   4.325   0.784
 3176SOL    HW2 9849   2.481   4.285   0.930
 3177SOL     OW 9850   3.106   5.083   0.393
 3177SOL    HW1 9851   3.168   5.155   0.425
 3177SOL    HW2 9852   3.013   5.104   0.422
 3178SOL     OW 9853   3.160   5.189   1.147
 3178SOL    HW1 9854   3.215   5.197   1.230
 3178SOL    HW2 9855   3.108   5.104   1.149
 3179SOL     OW 9856   3.435   4.340   0.490
 3179SOL    HW1 9857   3.385   4.389   0.561
 3179SOL    HW2 9858   3.490   4.405   0.437
 3180SOL     OW 9859   2.211   5.257   1.304
 3180SOL    HW1 9860   2.197   5.209   1.217
 3180SOL    HW2 9861   2.308   5.272   1.318
 3181SOL     OW 9862   2.296   4.464   1.610
 3181SOL    HW1 9863   2.348   4.517   1.544
 3181SOL    HW2 9864   2.353   4.389   1.645
 3182SOL     OW 9865   3.476   4.513   1.690
 3182SOL    HW1 9866   3.386   4.555   1.685
 3182SOL    HW2 9867   3.534   4.551   1.617
 3183SOL     OW 9868   2.357   3.773   1.761
 3183SOL    HW1 9869   2.318   3.706   1.698
 3183SOL    HW2 9870   2.292   3.848   1.773
 3184SOL     OW 9871   2.454   4.596   1.040
 3184SOL    HW1 9872   2.492   4.689   1.035
 3184SOL    HW2 9873   2.389   4.591   1.116
 3185SOL     OW 9874   3.201   4.580   1.019
 3185SOL    HW1 9875   3.112   4.567   0.976
 3185SOL    HW2 9876   3.256   4.497   1.007
 3186SOL     OW 9877   3.055   4.247   0.258
 3186SOL    HW1 9878   3.071   4.165   0.314
 3186SOL    HW2 9879   3.014   4.318   0.315
 3187SOL     OW 9880   2.146   3.918   1.250
 3187SOL    HW1 9881   2.133   3.938   1.347
 3187SOL    HW2 9882   2.140   3.819   1.235
 3188SOL     OW 9883   1.921   5.032   1.274
 3188SOL    HW1 9884   1.950   4.973   1.349
 3188SOL    HW2 9885   1.920   5.127   1.304
 3189SOL     OW 9886   2.586   4.350   1.059
 3189SOL    HW1 9887   2.662   4.331   0.997
 3189SOL    HW2 9888   2.552   4.443   1.042
 3190SOL     OW 9889   3.604   4.689   1.862
 3190SOL    HW1 9890   3.563   4.617   1.805
 3190SOL    HW2 9891   3.543   4.709   1.938
 3191SOL     OW 9892   2.174   3.782   0.630
 3191SOL    HW1 9893   2.145   3.876   0.646
 3191SOL    HW2 9894   2.186   3.735   0.717
 3192SOL     OW 9895   3.491   4.110   0.351
 3192SOL    HW1 9896   3.517   4.032   0.408
 3192SOL    HW2 9897   3.462   4.186   0.408
 3193SOL     OW 9898   2.883   4.479   0.953
 3193SOL    HW1 9899   2.876   4.499   1.050
 3193SOL    HW2 9900   2.856   4.384   0.937
 3194SOL     OW 9901   2.841   5.285   1.723
 3194SOL    HW1 9902   2.823   5.334   1.638
 3194SOL    HW2 9903   2.891   5.201   1.703
 3195SOL     OW 9904   3.713   5.224   1.602
 3195SOL    HW1 9905   3.734   5.251   1.508
 3195SOL    HW2 9906   3.795   5.232   1.658
 3196SOL     OW 9907   2.212   4.630   1.814
 3196SOL    HW1 9908   2.290   4.665   1.866
 3196SOL    HW2 9909   2.246   4.570   1.741
 3197SOL     OW 9910   3.383   3.990   0.124
 3197SOL    HW1 9911   3.321   3.917   0.154
 3197SOL    HW2 9912   3.423   4.035   0.204
 3198SOL     OW 9913   3.147   4.549   5.612
 3198SOL    HW1 9914   3.187   4.458   5.621
 3198SOL    HW2 9915   3.180   4.591   5.527
 3199SOL     OW 9916   2.936   5.067   0.860
 3199SOL    HW1 9917   2.943   4.989   0.798
 3199SOL    HW2 9918   2.990   5.143   0.823
 3200SOL     OW 9919   2.178   4.533   0.944
 3200SOL    HW1 9920   2.273   4.560   0.932
 3200SOL    HW2 9921   2.173   4.438   0.974
 3201SOL     OW 9922   2.193   4.259   1.016
 3201SOL    HW1 9923   2.148   4.171   1.003
 3201SOL    HW2 9924   2.274   4.265   0.957
 3202SOL     OW 9925   3.002   4.119   1.684
 3202SOL    HW1 9926   2.952   4.167   1.757
 3202SOL    HW2 9927   3.094   4.157   1.676
 3203SOL     OW 9928   3.127   3.953   1.496
 3203SOL    HW1 9929   3.067   4.004   1.558
 3203SOL    HW2 9930   3.131   4.000   1.408
 3204SOL     OW 9931   1.860   5.034   0.193
 3204SOL    HW1 9932   1.770   5.056   0.154
 3204SOL    HW2 9933   1.860   4.941   0.228
 3205SOL     OW 9934   1.956   5.503   0.950
 3205SOL    HW1 9935   1.918   5.425   0.901
 3205SOL    HW2 9936   2.048   5.523   0.915
 3206SOL     OW 9937   2.352   5.301   0.904
 3206SOL    HW1 9938   2.423   5.366   0.930
 3206SOL    HW2 9939   2.390   5.235   0.838
 3207SOL     OW 9940   2.828   4.515   1.220
 3207SOL    HW1 9941   2.891   4.494   1.294
 3207SOL    HW2 9942   2.739   4.473   1.238
 3208SOL     OW 9943   1.890   4.236   1.136
 3208SOL    HW1 9944   1.917   4.211   1.043
 3208SOL    HW2 9945   1.946   4.311   1.169
 3209SOL     OW 9946   2.063   4.250   1.724
 3209SOL    HW1 9947   2.152   4.233   1.683
 3209SOL    HW2 9948   2.022   4.331   1.682
 3210SOL     OW 9949   3.245   4.655   1.651
 3210SOL    HW1 9950   3.269   4.753   1.652
 3210SOL    HW2 9951   3.242   4.623   1.556
 3211SOL     OW 9952   2.678   4.297   0.370
 3211SOL    HW1 9953   2.690   4.218   0.310
 3211SOL    HW2 9954   2.600   4.351   0.338
 3212SOL     OW 9955   3.504   4.327   1.177
 3212SOL    HW1 9956   3.492   4.267   1.257
 3212SOL    HW2 9957   3.596   4.315   1.140
 3213SOL     OW 9958   2.099   5.270   1.723
 3213SOL    HW1 9959   2.078   5.345   1.785
 3213SOL    HW2 9960   2.108   5.185   1.776
 3214SOL     OW 9961   2.572   4.158   1.250
 3214SOL    HW1 9962   2.514   4.083   1.220
 3214SOL    HW2 9963   2.571   4.231   1.181
 3215SOL     OW 9964   2.773   5.408   1.481
 3215SOL    HW1 9965   2.748   5.358   1.398
 3215SOL    HW2 9966   2.778   5.505   1.461
 3216SOL     OW 9967   2.312   4.219   0.177
 3216SOL    HW1 9968   2.379   4.288   0.203
 3216SOL    HW2 9969   2.221   4.260   0.169
 3217SOL     OW 9970   1.999   4.862   1.482
 3217SOL    HW1 9971   2.002   4.824   1.574
 3217SOL    HW2 9972   2.018   4.790   1.415
 3218SOL     OW 9973   3.168   4.765   1.215
 3218SOL    HW1 9974   3.193   4.697   1.146
 3218SOL    HW2 9975   3.108   4.833   1.175
 3219SOL     OW 9976   3.182   4.582   0.290
 3219SOL    HW1 9977   3.107   4.552   0.349
 3219SOL    HW2 9978   3.156   4.569   0.194
 3220SOL     OW 9979   3.648   5.443   1.166
 3220SOL    HW1 9980   3.708   5.479   1.095
 3220SOL    HW2 9981   3.613   5.354   1.138
 3221SOL     OW 9982   3.101   5.457   1.099
 3221SOL    HW1 9983   3.187   5.491   1.059
 3221SOL    HW2 9984   3.112   5.360   1.123
 3222SOL     OW 9985   1.958   4.976   1.013
 3222SOL    HW1 9986   1.938   4.998   1.109
 3222SOL    HW2 9987   1.879   4.929   0.974
 3223SOL     OW 9988   2.547   5.404   1.744
 3223SOL    HW1 9989   2.482   5.480   1.734
 3223SOL    HW2 9990   2.624   5.418   1.683
 3224SOL     OW 9991   2.774   3.814   0.122
 3224SOL    HW1 9992   2.805   3.825   0.028
 3224SOL    HW2 9993   2.838   3.756   0.172
 3225SOL     OW 9994   3.571   3.879   0.484
 3225SOL    HW1 9995   3.650   3.870   0.423
 3225SOL    HW2 9996   3.559   3.794   0.535
 3226SOL     OW 9997   3.261   5.297   0.491
 3226SOL    HW1 9998   3.322   5.329   0.419
 3226SOL    HW2 9999   3.205   5.374   0.523
 3227SOL     OW10000   2.013   5.510   1.846
 3227SOL    HW110001   1.956   5.441   1.891
 3227SOL    HW210002   2.061   5.563   1.916
 3228SOL     OW10003   3.147   4.658   0.666
 3228SOL    HW110004   3.222   4.594   0.683
 3228SOL    HW210005   3.180   4.732   0.608
 3229SOL     OW10006   2.656   5.005   1.423
 3229SOL    HW110007   2.628   5.051   1.507
 3229SOL    HW210008   2.588   5.022   1.351
 3230SOL     OW10009   2.536   5.340   0.158
 3230SOL    HW110010   2.549   5.371   0.064
 3230SOL    HW210011   2.474   5.262   0.160
 3231SOL     OW10012   3.476   5.455   1.390
 3231SOL    HW110013   3.536   5.452   1.310
 3231SOL    HW210014   3.462   5.550   1.419
 3232SOL     OW10015   3.700   3.888   0.959
 3232SOL    HW110016   3.737   3.797   0.940
 3232SOL    HW210017   3.609   3.896   0.917
 3233SOL     OW10018   2.110   4.033   0.712
 3233SOL    HW110019   2.021   4.069   0.683
 3233SOL    HW210020   2.117   4.037   0.812
 3234SOL     OW10021   3.068   5.326   0.036
 3234SOL    HW110022   3.062   5.231   0.067
 3234SOL    HW210023   3.002   5.341  -0.037
 3235SOL     OW10024   2.686   4.737   1.381
 3235SOL    HW110025   2.737   4.721   1.297
 3235SOL    HW210026   2.678   4.835   1.398
 3236SOL     OW10027   2.784   4.633   0.289
 3236SOL    HW110028   2.840   4.667   0.214
 3236SOL    HW210029   2.834   4.563   0.340
 3237SOL     OW10030   3.353   5.350   0.042
 3237SOL    HW110031   3.254   5.343   0.030
 3237SOL    HW210032   3.397   5.358  -0.048
 3238SOL     OW10033   2.226   5.028   1.486
 3238SOL    HW110034   2.219   5.108   1.425
 3238SOL    HW210035   2.144   4.972   1.476
 3239SOL     OW10036   3.471   5.011   1.285
 3239SOL    HW110037   3.534   4.988   1.360
 3239SOL    HW210038   3.406   5.080   1.317
 3240SOL     OW10039   2.934   4.834   0.725
 3240SOL    HW110040   2.855   4.783   0.759
 3240SOL    HW210041   3.003   4.769   0.692
 3241SOL     OW10042   2.885   3.967   0.966
 3241SOL    HW110043   2.880   3.928   0.874
 3241SOL    HW210044   2.889   3.894   1.034
 3242SOL     OW10045   2.465   5.212   0.476
 3242SOL    HW110046   2.519   5.157   0.412
 3242SOL    HW210047   2.405   5.274   0.426
 3243SOL     OW10048   3.595   4.130   1.378
 3243SOL    HW110049   3.677   4.187   1.375
 3243SOL    HW210050   3.609   4.049   1.321
 3244SOL     OW10051   2.113   5.072   0.281
 3244SOL    HW110052   2.017   5.063   0.255
 3244SOL    HW210053   2.119   5.115   0.372
 3245SOL     OW10054   1.980   4.762   1.738
 3245SOL    HW110055   1.898   4.733   1.787
 3245SOL    HW210056   2.059   4.713   1.774
 3246SOL     OW10057   2.497   3.960   1.504
 3246SOL    HW110058   2.570   3.993   1.444
 3246SOL    HW210059   2.525   3.972   1.600
 3247SOL     OW10060   1.945   4.046   5.617
 3247SOL    HW110061   1.856   4.019   5.580
 3247SOL    HW210062   1.975   4.131   5.574
 3248SOL     OW10063   3.281   4.582   1.390
 3248SOL    HW110064   3.225   4.645   1.336
 3248SOL    HW210065   3.374   4.583   1.355
 3249SOL     OW10066   1.923   3.877   0.289
 3249SOL    HW110067   1.906   3.958   0.233
 3249SOL    HW210068   2.012   3.838   0.266
 3250SOL     OW10069   3.044   5.059   0.119
 3250SOL    HW110070   2.947   5.036   0.111
 3250SOL    HW210071   3.069   5.062   0.216
 3251SOL     OW10072   2.486   4.557   1.430
 3251SOL    HW110073   2.543   4.639   1.418
 3251SOL    HW210074   2.545   4.477   1.437
 3252SOL     OW10075   3.346   5.527   0.992
 3252SOL    HW110076   3.366   5.596   0.922
 3252SOL    HW210077   3.431   5.484   1.022
 3253SOL     OW10078   2.556   4.302   1.698
 3253SOL    HW110079   2.613   4.364   1.751
 3253SOL    HW210080   2.565   4.209   1.735
 3254SOL     OW10081   3.337   4.915   1.631
 3254SOL    HW110082   3.324   4.931   1.729
 3254SOL    HW210083   3.432   4.937   1.607
 3255SOL     OW10084   2.226   5.468   1.571
 3255SOL    HW110085   2.144   5.522   1.555
 3255SOL    HW210086   2.201   5.379   1.610
 3256SOL     OW10087   3.522   4.599   1.257
 3256SOL    HW110088   3.521   4.508   1.216
 3256SOL    HW210089   3.511   4.669   1.186
 3257SOL     OW10090   3.084   4.039   0.457
 3257SOL    HW110091   3.149   3.964   0.450
 3257SOL    HW210092   3.108   4.097   0.535
 3258SOL     OW10093   2.438   4.461   0.675
 3258SOL    HW110094   2.484   4.549   0.663
 3258SOL    HW210095   2.374   4.446   0.599
 3259SOL     OW10096   3.610   4.087   1.649
 3259SOL    HW110097   3.604   4.107   1.551
 3259SOL    HW210098   3.532   4.031   1.676
 3260SOL     OW10099   3.621   4.653   1.508
 3260SOL    HW110100   3.606   4.749   1.529
 3260SOL    HW210101   3.596   4.635   1.413
 3261SOL     OW10102   2.732   5.087   0.050
 3261SOL    HW110103   2.688   5.112   0.136
 3261SOL    HW210104   2.744   5.169  -0.007
 3262SOL     OW10105   2.529   5.502   0.941
 3262SOL    HW110106   2.504   5.597   0.922
 3262SOL    HW210107   2.627   5.490   0.927
 3263SOL     OW10108   2.731   4.697   0.855
 3263SOL    HW110109   2.782   4.619   0.890
 3263SOL    HW210110   2.686   4.744   0.931
 3264SOL     OW10111   2.930   4.703   0.076
 3264SOL    HW110112   2.907   4.764   0.000
 3264SOL    HW210113   3.011   4.650   0.052
 3265SOL     OW10114   3.700   5.283   0.847
 3265SOL    HW110115   3.624   5.273   0.783
 3265SOL    HW210116   3.691   5.216   0.920
 3266SOL     OW10117   2.099   5.022   1.859
 3266SOL    HW110118   2.030   4.957   1.826
 3266SOL    HW210119   2.087   5.036   1.957
 3267SOL     OW10120   1.958   4.946   0.663
 3267SOL    HW110121   1.981   4.906   0.751
 3267SOL    HW210122   2.023   4.915   0.593
 3268SOL     OW10123   2.547   5.139   1.636
 3268SOL    HW110124   2.465   5.091   1.669
 3268SOL    HW210125   2.549   5.232   1.672
 3269SOL     OW10126   3.643   3.910   1.224
 3269SOL    HW110127   3.662   3.815   1.251
 3269SOL    HW210128   3.668   3.924   1.129
 3270SOL     OW10129   2.287   4.149   0.524
 3270SOL    HW110130   2.324   4.082   0.460
 3270SOL    HW210131   2.232   4.102   0.593
 3271SOL     OW10132   3.552   5.202   1.091
 3271SOL    HW110133   3.473   5.188   1.031
 3271SOL    HW210134   3.554   5.131   1.162
 3272SOL     OW10135   2.174   4.283   1.286
 3272SOL    HW110136   2.233   4.229   1.346
 3272SOL    HW210137   2.200   4.267   1.191
 3273SOL     OW10138   2.692   5.307   0.676
 3273SOL    HW110139   2.680   5.375   0.603
 3273SOL    HW210140   2.614   5.245   0.677
 3274SOL     OW10141   3.299   3.971   1.116
 3274SOL    HW110142   3.370   3.924   1.169
 3274SOL    HW210143   3.239   4.021   1.178
 3275SOL     OW10144   2.896   3.741   1.122
 3275SOL    HW110145   2.838   3.667   1.088
 3275SOL    HW210146   2.982   3.703   1.156
 3276SOL     OW10147   2.636   5.052   0.327
 3276SOL    HW110148   2.613   4.955   0.338
 3276SOL    HW210149   2.722   5.072   0.375
 3277SOL     OW10150   2.485   5.287   1.295
 3277SOL    HW110151   2.481   5.375   1.341
 3277SOL    HW210152   2.575   5.275   1.253
 3278SOL     OW10153   3.223   3.762   0.179
 3278SOL    HW110154   3.271   3.688   0.131
 3278SOL    HW210155   3.127   3.737   0.191
 3279SOL     OW10156   3.143   4.192   0.675
 3279SOL    HW110157   3.094   4.279   0.677
 3279SOL    HW210158   3.146   4.153   0.767
 3280SOL     OW10159   3.438   3.917   0.882
 3280SOL    HW110160   3.383   3.943   0.961
 3280SOL    HW210161   3.445   3.995   0.820
 3281SOL     OW10162   1.901   4.781   0.308
 3281SOL    HW110163   2.000   4.782   0.291
 3281SOL    HW210164   1.872   4.688   0.327
 3282SOL     OW10165   2.743   5.393   0.344
 3282SOL    HW110166   2.670   5.375   0.278
 3282SOL    HW210167   2.719   5.474   0.398
 3283SOL     OW10168   2.070   4.330   1.991
 3283SOL    HW110169   1.985   4.371   2.023
 3283SOL    HW210170   2.071   4.328   1.891
 3284SOL     OW10171   2.084   4.006   2.857
 3284SOL    HW110172   2.117   3.971   2.945
 3284SOL    HW210173   1.992   3.971   2.840
 3285SOL     OW10174   1.853   4.119   2.500
 3285SOL    HW110175   1.819   4.117   2.594
 3285SOL    HW210176   1.868   4.025   2.468
 3286SOL     OW10177   2.431   5.032   3.058
 3286SOL    HW110178   2.344   5.033   3.009
 3286SOL    HW210179   2.452   5.124   3.091
 3287SOL     OW10180   3.435   5.250   2.569
 3287SOL    HW110181   3.391   5.219   2.654
 3287SOL    HW210182   3.367   5.255   2.496
 3288SOL     OW10183   2.954   4.474   2.540
 3288SOL    HW110184   3.027   4.542   2.535
 3288SOL    HW210185   2.922   4.466   2.634
 3289SOL     OW10186   3.657   4.313   2.070
 3289SOL    HW110187   3.620   4.311   1.977
 3289SOL    HW210188   3.614   4.242   2.125
 3290SOL     OW10189   2.590   4.860   2.909
 3290SOL    HW110190   2.527   4.900   2.976
 3290SOL    HW210191   2.639   4.933   2.862
 3291SOL     OW10192   2.744   4.475   3.688
 3291SOL    HW110193   2.735   4.542   3.761
 3291SOL    HW210194   2.765   4.523   3.602
 3292SOL     OW10195   2.541   4.717   2.509
 3292SOL    HW110196   2.614   4.710   2.576
 3292SOL    HW210197   2.469   4.777   2.543
 3293SOL     OW10198   2.574   4.879   3.687
 3293SOL    HW110199   2.628   4.955   3.723
 3293SOL    HW210200   2.493   4.914   3.641
 3294SOL     OW10201   2.192   5.140   2.926
 3294SOL    HW110202   2.114   5.096   2.882
 3294SOL    HW210203   2.241   5.195   2.859
 3295SOL     OW10204   3.317   5.229   3.228
 3295SOL    HW110205   3.375   5.310   3.235
 3295SOL    HW210206   3.242   5.236   3.294
 3296SOL     OW10207   2.313   4.108   3.331
 3296SOL    HW110208   2.396   4.053   3.343
 3296SOL    HW210209   2.233   4.053   3.354
 3297SOL     OW10210   3.479   4.157   2.612
 3297SOL    HW110211   3.405   4.149   2.545
 3297SOL    HW210212   3.478   4.249   2.651
 3298SOL     OW10213   2.088   5.443   2.331
 3298SOL    HW110214   2.107   5.520   2.393
 3298SOL    HW210215   2.163   5.434   2.266
 3299SOL     OW10216   3.000   5.064   3.562
 3299SOL    HW110217   3.047   5.061   3.650
 3299SOL    HW210218   2.944   4.982   3.551
 3300SOL     OW10219   2.097   5.172   2.393
 3300SOL    HW110220   2.083   5.271   2.392
 3300SOL    HW210221   2.041   5.130   2.464
 3301SOL     OW10222   2.133   4.814   2.756
 3301SOL    HW110223   2.136   4.720   2.790
 3301SOL    HW210224   2.074   4.869   2.815
 3302SOL     OW10225   2.447   5.529   3.280
 3302SOL    HW110226   2.369   5.502   3.336
 3302SOL    HW210227   2.485   5.615   3.313
 3303SOL     OW10228   2.441   4.718   2.010
 3303SOL    HW110229   2.489   4.762   1.935
 3303SOL    HW210230   2.484   4.743   2.097
 3304SOL     OW10231   3.450   3.845   3.321
 3304SOL    HW110232   3.494   3.915   3.265
 3304SOL    HW210233   3.419   3.885   3.407
 3305SOL     OW10234   1.974   4.388   2.429
 3305SOL    HW110235   1.939   4.297   2.449
 3305SOL    HW210236   1.971   4.444   2.512
 3306SOL     OW10237   3.711   5.478   2.191
 3306SOL    HW110238   3.784   5.452   2.254
 3306SOL    HW210239   3.722   5.574   2.166
 3307SOL     OW10240   1.899   5.311   1.984
 3307SOL    HW110241   1.877   5.215   2.001
 3307SOL    HW210242   1.876   5.365   2.065
 3308SOL     OW10243   3.603   4.685   2.510
 3308SOL    HW110244   3.608   4.586   2.498
 3308SOL    HW210245   3.561   4.726   2.429
 3309SOL     OW10246   3.517   4.840   2.285
 3309SOL    HW110247   3.609   4.830   2.245
 3309SOL    HW210248   3.521   4.908   2.359
 3310SOL     OW10249   1.988   4.470   3.445
 3310SOL    HW110250   2.084   4.500   3.444
 3310SOL    HW210251   1.928   4.549   3.440
 3311SOL     OW10252   2.474   5.119   2.593
 3311SOL    HW110253   2.430   5.030   2.604
 3311SOL    HW210254   2.462   5.150   2.499
 3312SOL     OW10255   3.142   4.955   3.285
 3312SOL    HW110256   3.165   4.885   3.217
 3312SOL    HW210257   3.207   4.950   3.361
 3313SOL     OW10258   2.685   3.755   2.398
 3313SOL    HW110259   2.728   3.840   2.367
 3313SOL    HW210260   2.585   3.765   2.396
 3314SOL     OW10261   2.051   4.681   3.149
 3314SOL    HW110262   2.142   4.641   3.136
 3314SOL    HW210263   1.987   4.640   3.084
 3315SOL     OW10264   3.396   4.733   2.063
 3315SOL    HW110265   3.324   4.671   2.094
 3315SOL    HW210266   3.443   4.771   2.143
 3316SOL     OW10267   3.043   5.543   3.483
 3316SOL    HW110268   3.050   5.613   3.412
 3316SOL    HW210269   3.063   5.453   3.444
 3317SOL     OW10270   2.211   3.974   3.717
 3317SOL    HW110271   2.257   4.059   3.743
 3317SOL    HW210272   2.112   3.986   3.726
 3318SOL     OW10273   3.325   5.148   2.798
 3318SOL    HW110274   3.262   5.166   2.874
 3318SOL    HW210275   3.318   5.052   2.772
 3319SOL     OW10276   3.505   5.495   2.433
 3319SOL    HW110277   3.488   5.461   2.341
 3319SOL    HW210278   3.492   5.421   2.499
 3320SOL     OW10279   2.452   4.435   2.133
 3320SOL    HW110280   2.466   4.524   2.090
 3320SOL    HW210281   2.385   4.443   2.206
 3321SOL     OW10282   3.125   4.046   2.775
 3321SOL    HW110283   3.033   4.022   2.806
 3321SOL    HW210284   3.191   4.021   2.846
 3322SOL     OW10285   3.446   5.401   2.172
 3322SOL    HW110286   3.543   5.423   2.167
 3322SOL    HW210287   3.411   5.383   2.079
 3323SOL     OW10288   2.659   4.331   3.306
 3323SOL    HW110289   2.632   4.307   3.399
 3323SOL    HW210290   2.623   4.263   3.242
 3324SOL     OW10291   2.811   4.604   3.451
 3324SOL    HW110292   2.869   4.533   3.411
 3324SOL    HW210293   2.759   4.650   3.379
 3325SOL     OW10294   2.852   4.117   3.084
 3325SOL    HW110295   2.758   4.137   3.109
 3325SOL    HW210296   2.855   4.076   2.993
 3326SOL     OW10297   2.909   4.422   2.278
 3326SOL    HW110298   2.928   4.437   2.375
 3326SOL    HW210299   2.822   4.373   2.268
 3327SOL     OW10300   1.951   4.552   2.645
 3327SOL    HW110301   2.038   4.543   2.693
 3327SOL    HW210302   1.899   4.629   2.683
 3328SOL     OW10303   1.988   5.600   3.456
 3328SOL    HW110304   1.999   5.576   3.553
 3328SOL    HW210305   1.905   5.557   3.420
 3329SOL     OW10306   2.762   4.076   2.058
 3329SOL    HW110307   2.799   4.146   1.998
 3329SOL    HW210308   2.812   3.990   2.045
 3330SOL     OW10309   3.546   4.290   3.683
 3330SOL    HW110310   3.527   4.377   3.637
 3330SOL    HW210311   3.601   4.231   3.624
 3331SOL     OW10312   3.245   4.874   2.379
 3331SOL    HW110313   3.332   4.860   2.332
 3331SOL    HW210314   3.192   4.943   2.330
 3332SOL     OW10315   2.398   3.886   2.775
 3332SOL    HW110316   2.408   3.916   2.870
 3332SOL    HW210317   2.412   3.964   2.714
 3333SOL     OW10318   2.853   5.171   2.322
 3333SOL    HW110319   2.824   5.254   2.275
 3333SOL    HW210320   2.836   5.181   2.420
 3334SOL     OW10321   2.216   5.543   2.741
 3334SOL    HW110322   2.262   5.454   2.745
 3334SOL    HW210323   2.283   5.615   2.759
 3335SOL     OW10324   3.672   4.805   2.740
 3335SOL    HW110325   3.636   4.767   2.655
 3335SOL    HW210326   3.604   4.797   2.812
 3336SOL     OW10327   3.085   5.262   3.377
 3336SOL    HW110328   3.075   5.188   3.444
 3336SOL    HW210329   3.015   5.251   3.305
 3337SOL     OW10330   2.184   4.693   2.122
 3337SOL    HW110331   2.275   4.714   2.084
 3337SOL    HW210332   2.148   4.610   2.078
 3338SOL     OW10333   2.334   4.991   3.591
 3338SOL    HW110334   2.309   4.997   3.494
 3338SOL    HW210335   2.251   4.989   3.647
 3339SOL     OW10336   2.987   5.501   2.087
 3339SOL    HW110337   2.906   5.466   2.134
 3339SOL    HW210338   3.016   5.436   2.017
 3340SOL     OW10339   2.064   3.988   3.363
 3340SOL    HW110340   1.983   4.046   3.368
 3340SOL    HW210341   2.043   3.898   3.402
 3341SOL     OW10342   3.488   5.109   1.955
 3341SOL    HW110343   3.451   5.200   1.938
 3341SOL    HW210344   3.420   5.040   1.933
 3342SOL     OW10345   2.326   5.463   2.178
 3342SOL    HW110346   2.369   5.525   2.243
 3342SOL    HW210347   2.395   5.425   2.117
 3343SOL     OW10348   3.266   3.839   2.307
 3343SOL    HW110349   3.247   3.819   2.211
 3343SOL    HW210350   3.364   3.839   2.322
 3344SOL     OW10351   2.119   5.520   3.086
 3344SOL    HW110352   2.171   5.449   3.133
 3344SOL    HW210353   2.111   5.496   2.989
 3345SOL     OW10354   2.800   5.430   2.754
 3345SOL    HW110355   2.886   5.388   2.783
 3345SOL    HW210356   2.760   5.377   2.680
 3346SOL     OW10357   2.256   4.411   2.330
 3346SOL    HW110358   2.270   4.313   2.343
 3346SOL    HW210359   2.161   4.434   2.351
 3347SOL     OW10360   3.367   3.924   3.584
 3347SOL    HW110361   3.387   3.919   3.682
 3347SOL    HW210362   3.299   3.854   3.561
 3348SOL     OW10363   2.510   3.843   1.969
 3348SOL    HW110364   2.575   3.772   1.996
 3348SOL    HW210365   2.455   3.810   1.892
 3349SOL     OW10366   2.626   3.999   3.625
 3349SOL    HW110367   2.714   3.951   3.615
 3349SOL    HW210368   2.574   3.957   3.699
 3350SOL     OW10369   2.731   5.236   3.056
 3350SOL    HW110370   2.713   5.198   2.966
 3350SOL    HW210371   2.804   5.185   3.101
 3351SOL     OW10372   3.216   4.328   3.324
 3351SOL    HW110373   3.294   4.276   3.288
 3351SOL    HW210374   3.227   4.424   3.300
 3352SOL     OW10375   2.681   5.104   2.808
 3352SOL    HW110376   2.772   5.096   2.769
 3352SOL    HW210377   2.614   5.117   2.735
 3353SOL     OW10378   2.782   4.224   2.762
 3353SOL    HW110379   2.757   4.218   2.665
 3353SOL    HW210380   2.819   4.136   2.792
 3354SOL     OW10381   2.413   3.791   2.357
 3354SOL    HW110382   2.331   3.787   2.415
 3354SOL    HW210383   2.407   3.870   2.296
 3355SOL     OW10384   3.288   4.928   1.902
 3355SOL    HW110385   3.323   4.851   1.956
 3355SOL    HW210386   3.200   4.957   1.938
 3356SOL     OW10387   2.148   3.779   2.048
 3356SOL    HW110388   2.204   3.846   1.998
 3356SOL    HW210389   2.208   3.714   2.095
 3357SOL     OW10390   2.806   3.983   2.317
 3357SOL    HW110391   2.771   4.029   2.235
 3357SOL    HW210392   2.905   3.997   2.324
 3358SOL     OW10393   2.940   4.404   3.320
 3358SOL    HW110394   2.862   4.342   3.308
 3358SOL    HW210395   3.025   4.353   3.306
 3359SOL     OW10396   3.075   5.299   2.656
 3359SOL    HW110397   3.091   5.369   2.586
 3359SOL    HW210398   3.152   5.299   2.721
 3360SOL     OW10399   2.331   4.880   2.583
 3360SOL    HW110400   2.267   4.857   2.656
 3360SOL    HW210401   2.285   4.871   2.495
 3361SOL     OW10402   3.120   5.518   2.475
 3361SOL    HW110403   3.174   5.580   2.418
 3361SOL    HW210404   3.046   5.568   2.519
 3362SOL     OW10405   2.883   4.255   1.896
 3362SOL    HW110406   2.839   4.342   1.870
 3362SOL    HW210407   2.953   4.272   1.964
 3363SOL     OW10408   1.953   4.283   3.249
 3363SOL    HW110409   2.048   4.278   3.218
 3363SOL    HW210410   1.945   4.353   3.321
 3364SOL     OW10411   2.420   3.945   3.044
 3364SOL    HW110412   2.469   3.875   3.096
 3364SOL    HW210413   2.323   3.943   3.070
 3365SOL     OW10414   2.715   4.175   2.502
 3365SOL    HW110415   2.681   4.244   2.438
 3365SOL    HW210416   2.752   4.098   2.450
 3366SOL     OW10417   2.837   3.785   2.634
 3366SOL    HW110418   2.781   3.779   2.551
 3366SOL    HW210419   2.909   3.716   2.631
 3367SOL     OW10420   3.318   4.886   2.715
 3367SOL    HW110421   3.241   4.824   2.703
 3367SOL    HW210422   3.369   4.894   2.629
 3368SOL     OW10423   3.273   4.299   2.948
 3368SOL    HW110424   3.266   4.303   2.849
 3368SOL    HW210425   3.368   4.313   2.976
 3369SOL     OW10426   3.695   4.525   2.238
 3369SOL    HW110427   3.755   4.483   2.306
 3369SOL    HW210428   3.679   4.461   2.163
 3370SOL     OW10429   2.350   5.147   2.017
 3370SOL    HW110430   2.267   5.122   2.067
 3370SOL    HW210431   2.354   5.096   1.931
 3371SOL     OW10432   3.537   5.003   2.497
 3371SOL    HW110433   3.636   4.996   2.510
 3371SOL    HW210434   3.507   5.096   2.519
 3372SOL     OW10435   3.252   4.303   1.933
 3372SOL    HW110436   3.194   4.278   2.010
 3372SOL    HW210437   3.347   4.285   1.956
 3373SOL     OW10438   2.390   3.990   2.170
 3373SOL    HW110439   2.442   3.937   2.103
 3373SOL    HW210440   2.359   4.075   2.128
 3374SOL     OW10441   3.611   4.965   3.412
 3374SOL    HW110442   3.701   4.925   3.392
 3374SOL    HW210443   3.624   5.057   3.449
 3375SOL     OW10444   2.909   5.076   3.201
 3375SOL    HW110445   2.827   5.045   3.249
 3375SOL    HW210446   2.990   5.034   3.242
 3376SOL     OW10447   3.477   5.354   3.521
 3376SOL    HW110448   3.460   5.392   3.430
 3376SOL    HW210449   3.562   5.301   3.521
 3377SOL     OW10450   3.007   4.963   2.967
 3377SOL    HW110451   2.944   4.995   3.038
 3377SOL    HW210452   2.973   4.991   2.878
 3378SOL     OW10453   3.483   4.817   2.944
 3378SOL    HW110454   3.475   4.886   3.016
 3378SOL    HW210455   3.411   4.832   2.876
 3379SOL     OW10456   2.788   3.822   3.257
 3379SOL    HW110457   2.809   3.801   3.161
 3379SOL    HW210458   2.867   3.865   3.300
 3380SOL     OW10459   2.839   4.839   3.584
 3380SOL    HW110460   2.745   4.861   3.611
 3380SOL    HW210461   2.839   4.755   3.529
 3381SOL     OW10462   2.578   4.780   2.239
 3381SOL    HW110463   2.562   4.761   2.336
 3381SOL    HW210464   2.656   4.727   2.207
 3382SOL     OW10465   2.287   4.542   3.121
 3382SOL    HW110466   2.361   4.555   3.187
 3382SOL    HW210467   2.250   4.450   3.130
 3383SOL     OW10468   3.117   4.102   3.137
 3383SOL    HW110469   3.162   4.184   3.103
 3383SOL    HW210470   3.018   4.109   3.120
 3384SOL     OW10471   1.940   5.294   3.216
 3384SOL    HW110472   1.905   5.364   3.154
 3384SOL    HW210473   2.040   5.291   3.210
 3385SOL     OW10474   2.185   4.856   2.349
 3385SOL    HW110475   2.194   4.940   2.296
 3385SOL    HW210476   2.191   4.777   2.287
 3386SOL     OW10477   2.400   4.267   2.724
 3386SOL    HW110478   2.414   4.327   2.646
 3386SOL    HW210479   2.471   4.284   2.792
 3387SOL     OW10480   3.107   5.088   2.250
 3387SOL    HW110481   3.168   5.158   2.286
 3387SOL    HW210482   3.014   5.105   2.282
 3388SOL     OW10483   3.160   5.191   3.008
 3388SOL    HW110484   3.215   5.197   3.092
 3388SOL    HW210485   3.108   5.106   3.008
 3389SOL     OW10486   3.450   4.348   2.338
 3389SOL    HW110487   3.403   4.378   2.421
 3389SOL    HW210488   3.494   4.426   2.294
 3390SOL     OW10489   2.210   5.254   3.168
 3390SOL    HW110490   2.196   5.208   3.081
 3390SOL    HW210491   2.308   5.271   3.182
 3391SOL     OW10492   2.280   4.475   3.465
 3391SOL    HW110493   2.349   4.518   3.406
 3391SOL    HW210494   2.310   4.383   3.488
 3392SOL     OW10495   3.466   4.502   3.541
 3392SOL    HW110496   3.377   4.547   3.536
 3392SOL    HW210497   3.527   4.543   3.474
 3393SOL     OW10498   2.865   3.870   3.610
 3393SOL    HW110499   2.930   3.946   3.602
 3393SOL    HW210500   2.911   3.784   3.587
 3394SOL     OW10501   2.354   3.760   3.617
 3394SOL    HW110502   2.304   3.700   3.554
 3394SOL    HW210503   2.297   3.840   3.639
 3395SOL     OW10504   2.444   4.600   2.897
 3395SOL    HW110505   2.487   4.690   2.897
 3395SOL    HW210506   2.387   4.591   2.979
 3396SOL     OW10507   3.204   4.566   2.907
 3396SOL    HW110508   3.221   4.563   2.808
 3396SOL    HW210509   3.217   4.474   2.945
 3397SOL     OW10510   3.055   4.247   2.124
 3397SOL    HW110511   3.071   4.167   2.182
 3397SOL    HW210512   3.013   4.319   2.179
 3398SOL     OW10513   2.156   3.915   3.106
 3398SOL    HW110514   2.119   3.948   3.194
 3398SOL    HW210515   2.144   3.816   3.101
 3399SOL     OW10516   1.914   5.033   3.134
 3399SOL    HW110517   1.946   4.972   3.206
 3399SOL    HW210518   1.918   5.127   3.166
 3400SOL     OW10519   2.580   4.353   2.912
 3400SOL    HW110520   2.659   4.334   2.855
 3400SOL    HW210521   2.549   4.447   2.896
 3401SOL     OW10522   3.599   4.681   3.718
 3401SOL    HW110523   3.549   4.621   3.655
 3401SOL    HW210524   3.542   4.703   3.796
 3402SOL     OW10525   2.172   3.781   2.495
 3402SOL    HW110526   2.149   3.876   2.514
 3402SOL    HW210527   2.183   3.731   2.580
 3403SOL     OW10528   3.493   4.111   2.214
 3403SOL    HW110529   3.523   4.040   2.278
 3403SOL    HW210530   3.469   4.194   2.266
 3404SOL     OW10531   2.860   4.481   2.809
 3404SOL    HW110532   2.874   4.502   2.906
 3404SOL    HW210533   2.849   4.382   2.798
 3405SOL     OW10534   2.841   5.285   3.584
 3405SOL    HW110535   2.823   5.334   3.498
 3405SOL    HW210536   2.891   5.201   3.564
 3406SOL     OW10537   3.715   5.222   3.464
 3406SOL    HW110538   3.735   5.250   3.371
 3406SOL    HW210539   3.796   5.233   3.521
 3407SOL     OW10540   2.213   4.642   3.673
 3407SOL    HW110541   2.294   4.668   3.726
 3407SOL    HW210542   2.240   4.580   3.600
 3408SOL     OW10543   3.377   3.996   1.995
 3408SOL    HW110544   3.297   3.946   2.029
 3408SOL    HW210545   3.424   4.041   2.071
 3409SOL     OW10546   3.140   4.547   1.879
 3409SOL    HW110547   3.184   4.458   1.892
 3409SOL    HW210548   3.176   4.589   1.796
 3410SOL     OW10549   2.932   5.069   2.721
 3410SOL    HW110550   2.936   4.990   2.659
 3410SOL    HW210551   2.988   5.143   2.684
 3411SOL     OW10552   2.177   4.533   2.803
 3411SOL    HW110553   2.274   4.559   2.802
 3411SOL    HW210554   2.167   4.439   2.835
 3412SOL     OW10555   2.177   4.255   2.871
 3412SOL    HW110556   2.142   4.162   2.865
 3412SOL    HW210557   2.260   4.264   2.815
 3413SOL     OW10558   3.014   4.121   3.549
 3413SOL    HW110559   2.963   4.158   3.626
 3413SOL    HW210560   3.031   4.193   3.482
 3414SOL     OW10561   3.030   3.930   3.342
 3414SOL    HW110562   3.022   3.991   3.420
 3414SOL    HW210563   3.070   3.979   3.264
 3415SOL     OW10564   1.859   5.039   2.055
 3415SOL    HW110565   1.769   5.060   2.017
 3415SOL    HW210566   1.859   4.945   2.090
 3416SOL     OW10567   1.953   5.506   2.806
 3416SOL    HW110568   1.916   5.426   2.759
 3416SOL    HW210569   2.046   5.523   2.776
 3417SOL     OW10570   2.351   5.301   2.764
 3417SOL    HW110571   2.422   5.366   2.791
 3417SOL    HW210572   2.390   5.233   2.701
 3418SOL     OW10573   2.829   4.518   3.086
 3418SOL    HW110574   2.894   4.501   3.160
 3418SOL    HW210575   2.745   4.467   3.103
 3419SOL     OW10576   1.906   4.283   2.977
 3419SOL    HW110577   1.992   4.281   2.927
 3419SOL    HW210578   1.925   4.283   3.075
 3420SOL     OW10579   2.054   4.250   3.597
 3420SOL    HW110580   2.106   4.193   3.533
 3420SOL    HW210581   2.018   4.330   3.548
 3421SOL     OW10582   3.244   4.656   3.512
 3421SOL    HW110583   3.268   4.753   3.517
 3421SOL    HW210584   3.236   4.628   3.417
 3422SOL     OW10585   2.674   4.290   2.228
 3422SOL    HW110586   2.686   4.215   2.163
 3422SOL    HW210587   2.597   4.347   2.198
 3423SOL     OW10588   3.524   4.328   3.054
 3423SOL    HW110589   3.521   4.255   3.122
 3423SOL    HW210590   3.610   4.322   3.002
 3424SOL     OW10591   2.095   5.268   3.585
 3424SOL    HW110592   2.080   5.344   3.648
 3424SOL    HW210593   2.107   5.183   3.637
 3425SOL     OW10594   2.579   4.166   3.107
 3425SOL    HW110595   2.518   4.090   3.087
 3425SOL    HW210596   2.572   4.235   3.035
 3426SOL     OW10597   2.776   5.407   3.341
 3426SOL    HW110598   2.750   5.359   3.257
 3426SOL    HW210599   2.780   5.506   3.323
 3427SOL     OW10600   2.314   4.214   2.034
 3427SOL    HW110601   2.380   4.284   2.060
 3427SOL    HW210602   2.222   4.254   2.030
 3428SOL     OW10603   1.997   4.863   3.340
 3428SOL    HW110604   2.001   4.825   3.432
 3428SOL    HW210605   2.019   4.793   3.273
 3429SOL     OW10606   3.159   4.767   3.078
 3429SOL    HW110607   3.179   4.694   3.012
 3429SOL    HW210608   3.103   4.837   3.035
 3430SOL     OW10609   3.185   4.584   2.150
 3430SOL    HW110610   3.114   4.556   2.216
 3430SOL    HW210611   3.152   4.569   2.057
 3431SOL     OW10612   3.650   5.444   3.028
 3431SOL    HW110613   3.710   5.478   2.955
 3431SOL    HW210614   3.612   5.356   3.001
 3432SOL     OW10615   3.101   5.458   2.961
 3432SOL    HW110616   3.187   5.491   2.922
 3432SOL    HW210617   3.111   5.361   2.985
 3433SOL     OW10618   1.951   4.985   2.870
 3433SOL    HW110619   1.932   5.002   2.967
 3433SOL    HW210620   1.880   4.925   2.832
 3434SOL     OW10621   2.543   5.403   3.605
 3434SOL    HW110622   2.482   5.482   3.601
 3434SOL    HW210623   2.626   5.422   3.551
 3435SOL     OW10624   3.589   3.890   2.356
 3435SOL    HW110625   3.660   3.877   2.286
 3435SOL    HW210626   3.567   3.802   2.397
 3436SOL     OW10627   3.260   5.298   2.354
 3436SOL    HW110628   3.321   5.331   2.282
 3436SOL    HW210629   3.203   5.374   2.386
 3437SOL     OW10630   2.017   5.511   3.711
 3437SOL    HW110631   1.959   5.443   3.757
 3437SOL    HW210632   2.068   5.563   3.779
 3438SOL     OW10633   3.139   4.681   2.533
 3438SOL    HW110634   3.206   4.610   2.554
 3438SOL    HW210635   3.179   4.747   2.470
 3439SOL     OW10636   2.654   5.004   3.284
 3439SOL    HW110637   2.626   5.051   3.368
 3439SOL    HW210638   2.584   5.017   3.214
 3440SOL     OW10639   2.528   5.351   2.018
 3440SOL    HW110640   2.546   5.371   1.922
 3440SOL    HW210641   2.471   5.270   2.025
 3441SOL     OW10642   3.476   5.455   3.252
 3441SOL    HW110643   3.536   5.453   3.172
 3441SOL    HW210644   3.463   5.550   3.281
 3442SOL     OW10645   3.704   3.890   2.831
 3442SOL    HW110646   3.739   3.800   2.809
 3442SOL    HW210647   3.613   3.901   2.791
 3443SOL     OW10648   2.123   4.032   2.583
 3443SOL    HW110649   2.056   4.102   2.558
 3443SOL    HW210650   2.126   4.022   2.682
 3444SOL     OW10651   3.071   5.322   1.897
 3444SOL    HW110652   3.062   5.227   1.929
 3444SOL    HW210653   3.003   5.339   1.825
 3445SOL     OW10654   2.687   4.734   3.246
 3445SOL    HW110655   2.735   4.716   3.161
 3445SOL    HW210656   2.679   4.833   3.260
 3446SOL     OW10657   2.778   4.629   2.145
 3446SOL    HW110658   2.838   4.667   2.074
 3446SOL    HW210659   2.829   4.562   2.198
 3447SOL     OW10660   3.350   5.360   1.908
 3447SOL    HW110661   3.251   5.346   1.895
 3447SOL    HW210662   3.394   5.365   1.818
 3448SOL     OW10663   2.225   5.027   3.348
 3448SOL    HW110664   2.218   5.107   3.288
 3448SOL    HW210665   2.143   4.970   3.338
 3449SOL     OW10666   3.470   5.012   3.147
 3449SOL    HW110667   3.533   4.989   3.221
 3449SOL    HW210668   3.405   5.081   3.179
 3450SOL     OW10669   2.919   4.840   2.582
 3450SOL    HW110670   2.844   4.785   2.619
 3450SOL    HW210671   2.995   4.780   2.556
 3451SOL     OW10672   2.871   3.959   2.847
 3451SOL    HW110673   2.854   3.918   2.757
 3451SOL    HW210674   2.871   3.887   2.917
 3452SOL     OW10675   2.466   5.209   2.339
 3452SOL    HW110676   2.522   5.154   2.276
 3452SOL    HW210677   2.394   5.255   2.287
 3453SOL     OW10678   3.601   4.119   3.245
 3453SOL    HW110679   3.677   4.184   3.246
 3453SOL    HW210680   3.621   4.044   3.183
 3454SOL     OW10681   2.111   5.074   2.146
 3454SOL    HW110682   2.015   5.067   2.119
 3454SOL    HW210683   2.117   5.116   2.236
 3455SOL     OW10684   1.979   4.768   3.599
 3455SOL    HW110685   1.897   4.738   3.647
 3455SOL    HW210686   2.059   4.718   3.633
 3456SOL     OW10687   2.548   3.926   3.365
 3456SOL    HW110688   2.633   3.898   3.321
 3456SOL    HW210689   2.567   3.958   3.458
 3457SOL     OW10690   1.932   4.057   1.898
 3457SOL    HW110691   1.857   4.038   1.835
 3457SOL    HW210692   1.978   4.141   1.871
 3458SOL     OW10693   3.273   4.587   3.250
 3458SOL    HW110694   3.216   4.649   3.197
 3458SOL    HW210695   3.367   4.588   3.215
 3459SOL     OW10696   1.915   3.888   2.143
 3459SOL    HW110697   1.899   3.953   2.069
 3459SOL    HW210698   2.006   3.848   2.133
 3460SOL     OW10699   3.043   5.057   1.982
 3460SOL    HW110700   2.947   5.028   1.976
 3460SOL    HW210701   3.070   5.063   2.078
 3461SOL     OW10702   2.491   4.551   3.298
 3461SOL    HW110703   2.548   4.632   3.285
 3461SOL    HW210704   2.549   4.470   3.304
 3462SOL     OW10705   3.347   5.528   2.856
 3462SOL    HW110706   3.371   5.595   2.786
 3462SOL    HW210707   3.428   5.479   2.885
 3463SOL     OW10708   2.590   4.274   3.559
 3463SOL    HW110709   2.634   4.340   3.621
 3463SOL    HW210710   2.602   4.182   3.595
 3464SOL     OW10711   3.337   4.914   3.495
 3464SOL    HW110712   3.323   4.933   3.592
 3464SOL    HW210713   3.431   4.938   3.471
 3465SOL     OW10714   2.226   5.464   3.429
 3465SOL    HW110715   2.142   5.517   3.419
 3465SOL    HW210716   2.205   5.375   3.470
 3466SOL     OW10717   3.519   4.603   3.124
 3466SOL    HW110718   3.524   4.511   3.083
 3466SOL    HW210719   3.508   4.671   3.052
 3467SOL     OW10720   3.074   4.037   2.316
 3467SOL    HW110721   3.143   3.965   2.309
 3467SOL    HW210722   3.094   4.096   2.395
 3468SOL     OW10723   2.438   4.458   2.532
 3468SOL    HW110724   2.484   4.546   2.525
 3468SOL    HW210725   2.374   4.447   2.456
 3469SOL     OW10726   3.597   4.079   3.517
 3469SOL    HW110727   3.602   4.099   3.419
 3469SOL    HW210728   3.547   3.994   3.531
 3470SOL     OW10729   3.616   4.652   3.376
 3470SOL    HW110730   3.605   4.749   3.399
 3470SOL    HW210731   3.590   4.638   3.280
 3471SOL     OW10732   2.730   5.084   1.914
 3471SOL    HW110733   2.691   5.108   2.002
 3471SOL    HW210734   2.745   5.167   1.860
 3472SOL     OW10735   2.528   5.502   2.799
 3472SOL    HW110736   2.506   5.598   2.784
 3472SOL    HW210737   2.627   5.488   2.789
 3473SOL     OW10738   2.723   4.700   2.715
 3473SOL    HW110739   2.773   4.619   2.745
 3473SOL    HW210740   2.681   4.745   2.795
 3474SOL     OW10741   2.930   4.707   1.939
 3474SOL    HW110742   2.907   4.767   1.862
 3474SOL    HW210743   3.010   4.651   1.915
 3475SOL     OW10744   3.701   5.285   2.708
 3475SOL    HW110745   3.622   5.273   2.648
 3475SOL    HW210746   3.706   5.208   2.771
 3476SOL     OW10747   2.098   5.019   3.719
 3476SOL    HW110748   2.035   4.949   3.686
 3476SOL    HW210749   2.085   5.031   3.817
 3477SOL     OW10750   1.962   4.947   2.524
 3477SOL    HW110751   1.984   4.908   2.614
 3477SOL    HW210752   2.026   4.913   2.456
 3478SOL     OW10753   2.547   5.139   3.497
 3478SOL    HW110754   2.466   5.092   3.532
 3478SOL    HW210755   2.548   5.233   3.532
 3479SOL     OW10756   3.654   3.900   3.100
 3479SOL    HW110757   3.671   3.803   3.119
 3479SOL    HW210758   3.672   3.918   3.003
 3480SOL     OW10759   2.278   4.148   2.377
 3480SOL    HW110760   2.326   4.084   2.318
 3480SOL    HW210761   2.245   4.100   2.459
 3481SOL     OW10762   3.546   5.206   2.957
 3481SOL    HW110763   3.470   5.190   2.893
 3481SOL    HW210764   3.547   5.134   3.026
 3482SOL     OW10765   2.203   4.282   3.151
 3482SOL    HW110766   2.257   4.221   3.209
 3482SOL    HW210767   2.216   4.256   3.055
 3483SOL     OW10768   2.691   5.305   2.540
 3483SOL    HW110769   2.673   5.366   2.463
 3483SOL    HW210770   2.616   5.240   2.549
 3484SOL     OW10771   3.285   3.949   2.981
 3484SOL    HW110772   3.308   3.861   3.023
 3484SOL    HW210773   3.230   4.003   3.044
 3485SOL     OW10774   2.867   3.729   3.008
 3485SOL    HW110775   2.801   3.654   3.006
 3485SOL    HW210776   2.959   3.693   2.994
 3486SOL     OW10777   2.638   5.053   2.189
 3486SOL    HW110778   2.615   4.957   2.200
 3486SOL    HW210779   2.723   5.073   2.237
 3487SOL     OW10780   2.484   5.289   3.153
 3487SOL    HW110781   2.479   5.378   3.199
 3487SOL    HW210782   2.575   5.276   3.115
 3488SOL     OW10783   3.181   3.804   2.045
 3488SOL    HW110784   3.230   3.748   1.978
 3488SOL    HW210785   3.085   3.777   2.047
 3489SOL     OW10786   3.146   4.171   2.536
 3489SOL    HW110787   3.173   4.267   2.548
 3489SOL    HW210788   3.137   4.127   2.625
 3490SOL     OW10789   3.445   3.921   2.756
 3490SOL    HW110790   3.387   3.945   2.834
 3490SOL    HW210791   3.456   4.002   2.697
 3491SOL     OW10792   1.904   4.791   2.171
 3491SOL    HW110793   2.003   4.794   2.155
 3491SOL    HW210794   1.877   4.698   2.195
 3492SOL     OW10795   2.746   5.396   2.203
 3492SOL    HW110796   2.671   5.377   2.141
 3492SOL    HW210797   2.724   5.475   2.260
 3493SOL     OW10798   2.070   4.340   3.860
 3493SOL    HW110799   1.977   4.335   3.897
 3493SOL    HW210800   2.068   4.322   3.762
 3494SOL     OW10801   2.071   4.018   4.727
 3494SOL    HW110802   2.107   3.979   4.812
 3494SOL    HW210803   1.983   3.976   4.706
 3495SOL     OW10804   1.855   4.112   4.359
 3495SOL    HW110805   1.774   4.142   4.410
 3495SOL    HW210806   1.833   4.032   4.305
 3496SOL     OW10807   2.424   5.028   4.909
 3496SOL    HW110808   2.338   5.040   4.861
 3496SOL    HW210809   2.451   5.115   4.951
 3497SOL     OW10810   3.433   5.238   4.430
 3497SOL    HW110811   3.390   5.218   4.518
 3497SOL    HW210812   3.363   5.250   4.360
 3498SOL     OW10813   2.994   4.431   4.416
 3498SOL    HW110814   3.048   4.514   4.399
 3498SOL    HW210815   2.945   4.441   4.502
 3499SOL     OW10816   3.647   4.312   3.937
 3499SOL    HW110817   3.612   4.310   3.843
 3499SOL    HW210818   3.605   4.238   3.990
 3500SOL     OW10819   2.585   4.859   4.761
 3500SOL    HW110820   2.522   4.898   4.829
 3500SOL    HW210821   2.636   4.933   4.717
 3501SOL     OW10822   2.744   4.477   5.548
 3501SOL    HW110823   2.743   4.543   5.623
 3501SOL    HW210824   2.766   4.525   5.462
 3502SOL     OW10825   2.545   4.723   4.375
 3502SOL    HW110826   2.620   4.716   4.441
 3502SOL    HW210827   2.475   4.785   4.410
 3503SOL     OW10828   2.574   4.878   5.552
 3503SOL    HW110829   2.627   4.955   5.589
 3503SOL    HW210830   2.492   4.914   5.507
 3504SOL     OW10831   2.196   5.138   4.785
 3504SOL    HW110832   2.111   5.105   4.742
 3504SOL    HW210833   2.244   5.198   4.721
 3505SOL     OW10834   3.320   5.232   5.089
 3505SOL    HW110835   3.379   5.313   5.096
 3505SOL    HW210836   3.246   5.238   5.156
 3506SOL     OW10837   2.315   4.102   5.194
 3506SOL    HW110838   2.398   4.047   5.207
 3506SOL    HW210839   2.235   4.049   5.222
 3507SOL     OW10840   3.465   4.168   4.474
 3507SOL    HW110841   3.390   4.183   4.410
 3507SOL    HW210842   3.461   4.235   4.547
 3508SOL     OW10843   2.091   5.438   4.194
 3508SOL    HW110844   2.105   5.515   4.256
 3508SOL    HW210845   2.170   5.429   4.133
 3509SOL     OW10846   2.999   5.064   5.423
 3509SOL    HW110847   3.051   5.061   5.509
 3509SOL    HW210848   2.943   4.982   5.416
 3510SOL     OW10849   2.091   5.168   4.258
 3510SOL    HW110850   2.086   5.268   4.253
 3510SOL    HW210851   2.031   5.135   4.330
 3511SOL     OW10852   2.137   4.806   4.650
 3511SOL    HW110853   2.147   4.758   4.737
 3511SOL    HW210854   2.075   4.884   4.662
 3512SOL     OW10855   2.449   5.512   5.145
 3512SOL    HW110856   2.368   5.495   5.200
 3512SOL    HW210857   2.487   5.602   5.168
 3513SOL     OW10858   2.441   4.716   3.872
 3513SOL    HW110859   2.488   4.762   3.797
 3513SOL    HW210860   2.482   4.743   3.959
 3514SOL     OW10861   3.457   3.854   5.191
 3514SOL    HW110862   3.491   3.931   5.137
 3514SOL    HW210863   3.440   3.884   5.284
 3515SOL     OW10864   1.976   4.379   4.299
 3515SOL    HW110865   1.940   4.287   4.313
 3515SOL    HW210866   1.980   4.428   4.386
 3516SOL     OW10867   3.712   5.475   4.051
 3516SOL    HW110868   3.781   5.448   4.118
 3516SOL    HW210869   3.720   5.572   4.031
 3517SOL     OW10870   1.893   5.312   3.844
 3517SOL    HW110871   1.877   5.216   3.863
 3517SOL    HW210872   1.875   5.366   3.927
 3518SOL     OW10873   3.551   4.640   4.371
 3518SOL    HW110874   3.643   4.602   4.370
 3518SOL    HW210875   3.537   4.696   4.289
 3519SOL     OW10876   3.521   4.827   4.158
 3519SOL    HW110877   3.610   4.822   4.113
 3519SOL    HW210878   3.525   4.894   4.232
 3520SOL     OW10879   1.998   4.471   5.306
 3520SOL    HW110880   2.095   4.492   5.311
 3520SOL    HW210881   1.945   4.553   5.323
 3521SOL     OW10882   2.470   5.116   4.455
 3521SOL    HW110883   2.426   5.028   4.469
 3521SOL    HW210884   2.457   5.146   4.361
 3522SOL     OW10885   3.147   4.952   5.145
 3522SOL    HW110886   3.175   4.882   5.080
 3522SOL    HW210887   3.209   4.951   5.224
 3523SOL     OW10888   2.685   3.745   4.233
 3523SOL    HW110889   2.730   3.831   4.210
 3523SOL    HW210890   2.586   3.759   4.238
 3524SOL     OW10891   2.053   4.683   4.992
 3524SOL    HW110892   2.138   4.630   4.988
 3524SOL    HW210893   1.975   4.622   4.976
 3525SOL     OW10894   3.396   4.727   3.930
 3525SOL    HW110895   3.323   4.666   3.962
 3525SOL    HW210896   3.444   4.765   4.009
 3526SOL     OW10897   3.041   5.547   5.347
 3526SOL    HW110898   3.051   5.619   5.278
 3526SOL    HW210899   3.068   5.459   5.308
 3527SOL     OW10900   2.212   3.972   5.575
 3527SOL    HW110901   2.261   4.053   5.608
 3527SOL    HW210902   2.114   3.985   5.587
 3528SOL     OW10903   3.329   5.144   4.669
 3528SOL    HW110904   3.264   5.165   4.742
 3528SOL    HW210905   3.319   5.048   4.643
 3529SOL     OW10906   3.512   5.486   4.296
 3529SOL    HW110907   3.488   5.452   4.205
 3529SOL    HW210908   3.494   5.414   4.363
 3530SOL     OW10909   2.454   4.441   4.000
 3530SOL    HW110910   2.461   4.527   3.951
 3530SOL    HW210911   2.382   4.447   4.069
 3531SOL     OW10912   3.137   4.092   4.657
 3531SOL    HW110913   3.045   4.053   4.663
 3531SOL    HW210914   3.199   4.041   4.717
 3532SOL     OW10915   3.446   5.396   4.033
 3532SOL    HW110916   3.543   5.421   4.030
 3532SOL    HW210917   3.412   5.381   3.940
 3533SOL     OW10918   2.640   4.343   5.164
 3533SOL    HW110919   2.623   4.317   5.259
 3533SOL    HW210920   2.614   4.267   5.104
 3534SOL     OW10921   3.251   4.191   5.407
 3534SOL    HW110922   3.253   4.242   5.493
 3534SOL    HW210923   3.309   4.110   5.414
 3535SOL     OW10924   2.810   4.606   5.310
 3535SOL    HW110925   2.871   4.538   5.269
 3535SOL    HW210926   2.757   4.651   5.239
 3536SOL     OW10927   2.860   4.126   4.941
 3536SOL    HW110928   2.766   4.141   4.973
 3536SOL    HW210929   2.857   4.067   4.860
 3537SOL     OW10930   2.911   4.424   4.149
 3537SOL    HW110931   2.936   4.422   4.246
 3537SOL    HW210932   2.823   4.378   4.137
 3538SOL     OW10933   1.999   4.564   4.510
 3538SOL    HW110934   2.054   4.637   4.467
 3538SOL    HW210935   1.923   4.605   4.560
 3539SOL     OW10936   1.982   5.598   5.321
 3539SOL    HW110937   1.994   5.569   5.416
 3539SOL    HW210938   1.890   5.575   5.291
 3540SOL     OW10939   2.752   4.080   3.927
 3540SOL    HW110940   2.799   4.140   3.863
 3540SOL    HW210941   2.731   3.993   3.883
 3541SOL     OW10942   3.551   4.294   5.556
 3541SOL    HW110943   3.523   4.375   5.506
 3541SOL    HW210944   3.585   4.225   5.492
 3542SOL     OW10945   3.241   4.864   4.246
 3542SOL    HW110946   3.331   4.859   4.203
 3542SOL    HW210947   3.188   4.937   4.204
 3543SOL     OW10948   2.407   3.885   4.631
 3543SOL    HW110949   2.413   3.915   4.726
 3543SOL    HW210950   2.419   3.963   4.569
 3544SOL     OW10951   2.851   5.172   4.184
 3544SOL    HW110952   2.824   5.253   4.132
 3544SOL    HW210953   2.833   5.187   4.281
 3545SOL     OW10954   2.215   5.544   4.605
 3545SOL    HW110955   2.264   5.457   4.608
 3545SOL    HW210956   2.279   5.619   4.622
 3546SOL     OW10957   3.657   4.773   4.603
 3546SOL    HW110958   3.603   4.760   4.520
 3546SOL    HW210959   3.596   4.782   4.682
 3547SOL     OW10960   3.088   5.263   5.240
 3547SOL    HW110961   3.075   5.187   5.303
 3547SOL    HW210962   3.008   5.273   5.181
 3548SOL     OW10963   2.182   4.686   3.989
 3548SOL    HW110964   2.270   4.709   3.946
 3548SOL    HW210965   2.143   4.606   3.943
 3549SOL     OW10966   3.345   4.475   4.440
 3549SOL    HW110967   3.345   4.433   4.530
 3549SOL    HW210968   3.425   4.535   4.431
 3550SOL     OW10969   2.334   4.990   5.454
 3550SOL    HW110970   2.308   4.996   5.358
 3550SOL    HW210971   2.252   4.990   5.511
 3551SOL     OW10972   2.988   5.502   3.947
 3551SOL    HW110973   2.906   5.469   3.993
 3551SOL    HW210974   3.017   5.436   3.877
 3552SOL     OW10975   2.063   3.987   5.228
 3552SOL    HW110976   1.983   4.046   5.240
 3552SOL    HW210977   2.044   3.896   5.267
 3553SOL     OW10978   3.487   5.105   3.813
 3553SOL    HW110979   3.450   5.197   3.800
 3553SOL    HW210980   3.416   5.038   3.793
 3554SOL     OW10981   2.331   5.451   4.049
 3554SOL    HW110982   2.369   5.522   4.109
 3554SOL    HW210983   2.400   5.424   3.982
 3555SOL     OW10984   3.262   3.829   4.163
 3555SOL    HW110985   3.256   3.797   4.069
 3555SOL    HW210986   3.358   3.829   4.192
 3556SOL     OW10987   2.110   5.516   4.951
 3556SOL    HW110988   2.169   5.451   4.999
 3556SOL    HW210989   2.112   5.496   4.853
 3557SOL     OW10990   2.800   5.431   4.621
 3557SOL    HW110991   2.887   5.393   4.651
 3557SOL    HW210992   2.764   5.375   4.546
 3558SOL     OW10993   2.255   4.405   4.199
 3558SOL    HW110994   2.277   4.309   4.214
 3558SOL    HW210995   2.156   4.418   4.204
 3559SOL     OW10996   3.386   3.946   5.454
 3559SOL    HW110997   3.396   3.968   5.550
 3559SOL    HW210998   3.323   3.868   5.444
 3560SOL     OW10999   2.512   3.835   3.826
 3560SOL    HW111000   2.563   3.757   3.861
 3560SOL    HW211001   2.452   3.805   3.752
 3561SOL     OW11002   2.623   4.001   5.478
 3561SOL    HW111003   2.709   3.951   5.472
 3561SOL    HW211004   2.574   3.973   5.561
 3562SOL     OW11005   2.730   5.225   4.915
 3562SOL    HW111006   2.714   5.189   4.823
 3562SOL    HW211007   2.808   5.178   4.957
 3563SOL     OW11008   3.201   4.314   5.164
 3563SOL    HW111009   3.231   4.278   5.253
 3563SOL    HW211010   3.239   4.405   5.151
 3564SOL     OW11011   2.685   5.097   4.664
 3564SOL    HW111012   2.778   5.094   4.626
 3564SOL    HW211013   2.620   5.121   4.591
 3565SOL     OW11014   2.791   4.222   4.617
 3565SOL    HW111015   2.766   4.216   4.521
 3565SOL    HW211016   2.825   4.134   4.649
 3566SOL     OW11017   2.413   3.793   4.215
 3566SOL    HW111018   2.332   3.788   4.273
 3566SOL    HW211019   2.405   3.870   4.152
 3567SOL     OW11020   3.286   4.924   3.767
 3567SOL    HW111021   3.319   4.849   3.823
 3567SOL    HW211022   3.198   4.957   3.803
 3568SOL     OW11023   2.150   3.775   3.913
 3568SOL    HW111024   2.201   3.843   3.861
 3568SOL    HW211025   2.214   3.711   3.955
 3569SOL     OW11026   2.814   3.982   4.179
 3569SOL    HW111027   2.785   4.020   4.091
 3569SOL    HW211028   2.913   3.993   4.189
 3570SOL     OW11029   2.945   4.410   5.178
 3570SOL    HW111030   2.877   4.337   5.187
 3570SOL    HW211031   3.037   4.370   5.177
 3571SOL     OW11032   3.080   5.298   4.517
 3571SOL    HW111033   3.091   5.367   4.446
 3571SOL    HW211034   3.142   5.318   4.593
 3572SOL     OW11035   2.327   4.871   4.456
 3572SOL    HW111036   2.265   4.853   4.532
 3572SOL    HW211037   2.277   4.863   4.370
 3573SOL     OW11038   3.118   5.514   4.336
 3573SOL    HW111039   3.174   5.578   4.282
 3573SOL    HW211040   3.046   5.565   4.383
 3574SOL     OW11041   2.891   4.251   3.758
 3574SOL    HW111042   2.843   4.335   3.734
 3574SOL    HW211043   2.950   4.266   3.837
 3575SOL     OW11044   1.952   4.286   5.111
 3575SOL    HW111045   2.047   4.273   5.083
 3575SOL    HW211046   1.947   4.355   5.183
 3576SOL     OW11047   2.419   3.946   4.899
 3576SOL    HW111048   2.470   3.873   4.945
 3576SOL    HW211049   2.324   3.944   4.929
 3577SOL     OW11050   2.719   4.184   4.355
 3577SOL    HW111051   2.688   4.243   4.280
 3577SOL    HW211052   2.754   4.098   4.317
 3578SOL     OW11053   2.873   3.778   4.462
 3578SOL    HW111054   2.814   3.770   4.382
 3578SOL    HW211055   2.854   3.702   4.525
 3579SOL     OW11056   3.315   4.882   4.586
 3579SOL    HW111057   3.237   4.820   4.584
 3579SOL    HW211058   3.349   4.895   4.492
 3580SOL     OW11059   3.332   4.332   4.685
 3580SOL    HW111060   3.265   4.258   4.690
 3580SOL    HW211061   3.392   4.328   4.764
 3581SOL     OW11062   3.695   4.523   4.102
 3581SOL    HW111063   3.755   4.482   4.170
 3581SOL    HW211064   3.676   4.457   4.029
 3582SOL     OW11065   2.349   5.143   3.874
 3582SOL    HW111066   2.268   5.119   3.928
 3582SOL    HW211067   2.347   5.092   3.788
 3583SOL     OW11068   3.542   4.989   4.370
 3583SOL    HW111069   3.641   4.985   4.382
 3583SOL    HW211070   3.510   5.081   4.389
 3584SOL     OW11071   3.261   4.312   3.836
 3584SOL    HW111072   3.181   4.287   3.890
 3584SOL    HW211073   3.330   4.353   3.896
 3585SOL     OW11074   2.391   3.991   4.028
 3585SOL    HW111075   2.440   3.938   3.959
 3585SOL    HW211076   2.358   4.076   3.988
 3586SOL     OW11077   3.612   4.966   5.273
 3586SOL    HW111078   3.701   4.926   5.253
 3586SOL    HW211079   3.624   5.060   5.307
 3587SOL     OW11080   2.914   5.063   5.052
 3587SOL    HW111081   2.833   5.041   5.107
 3587SOL    HW211082   2.996   5.030   5.099
 3588SOL     OW11083   3.476   5.351   5.386
 3588SOL    HW111084   3.460   5.395   5.297
 3588SOL    HW211085   3.564   5.303   5.383
 3589SOL     OW11086   2.994   4.935   4.825
 3589SOL    HW111087   2.944   4.979   4.900
 3589SOL    HW211088   2.971   4.981   4.739
 3590SOL     OW11089   3.481   4.819   4.807
 3590SOL    HW111090   3.477   4.887   4.880
 3590SOL    HW211091   3.411   4.840   4.739
 3591SOL     OW11092   2.786   3.816   5.111
 3591SOL    HW111093   2.808   3.790   5.017
 3591SOL    HW211094   2.866   3.860   5.153
 3592SOL     OW11095   2.839   4.839   5.448
 3592SOL    HW111096   2.746   4.859   5.478
 3592SOL    HW211097   2.839   4.755   5.393
 3593SOL     OW11098   2.577   4.781   4.102
 3593SOL    HW111099   2.563   4.763   4.199
 3593SOL    HW211100   2.656   4.727   4.069
 3594SOL     OW11101   2.279   4.528   4.972
 3594SOL    HW111102   2.350   4.549   5.039
 3594SOL    HW211103   2.245   4.435   4.988
 3595SOL     OW11104   3.125   4.102   5.008
 3595SOL    HW111105   3.160   4.181   5.059
 3595SOL    HW211106   3.030   4.120   4.981
 3596SOL     OW11107   1.941   5.293   5.076
 3596SOL    HW111108   1.911   5.373   5.023
 3596SOL    HW211109   2.041   5.288   5.074
 3597SOL     OW11110   2.182   4.846   4.221
 3597SOL    HW111111   2.193   4.935   4.176
 3597SOL    HW211112   2.187   4.773   4.153
 3598SOL     OW11113   2.420   4.269   4.580
 3598SOL    HW111114   2.448   4.292   4.487
 3598SOL    HW211115   2.496   4.285   4.643
 3599SOL     OW11116   3.105   5.083   4.119
 3599SOL    HW111117   3.167   5.156   4.150
 3599SOL    HW211118   3.012   5.104   4.148
 3600SOL     OW11119   3.159   5.188   4.877
 3600SOL    HW111120   3.219   5.203   4.955
 3600SOL    HW211121   3.100   5.109   4.895
 3601SOL     OW11122   3.438   4.351   4.200
 3601SOL    HW111123   3.385   4.386   4.276
 3601SOL    HW211124   3.503   4.420   4.169
 3602SOL     OW11125   2.211   5.248   5.031
 3602SOL    HW111126   2.197   5.204   4.943
 3602SOL    HW211127   2.308   5.266   5.045
 3603SOL     OW11128   2.284   4.473   5.326
 3603SOL    HW111129   2.348   4.519   5.265
 3603SOL    HW211130   2.323   4.386   5.357
 3604SOL     OW11131   3.476   4.513   5.416
 3604SOL    HW111132   3.385   4.554   5.412
 3604SOL    HW211133   3.533   4.553   5.344
 3605SOL     OW11134   2.864   3.859   5.468
 3605SOL    HW111135   2.918   3.942   5.455
 3605SOL    HW211136   2.914   3.781   5.430
 3606SOL     OW11137   2.362   3.755   5.481
 3606SOL    HW111138   2.312   3.698   5.415
 3606SOL    HW211139   2.307   3.836   5.503
 3607SOL     OW11140   2.425   4.619   4.751
 3607SOL    HW111141   2.480   4.703   4.747
 3607SOL    HW211142   2.390   4.607   4.844
 3608SOL     OW11143   3.205   4.579   4.738
 3608SOL    HW111144   3.112   4.564   4.703
 3608SOL    HW211145   3.258   4.495   4.727
 3609SOL     OW11146   3.047   4.249   3.989
 3609SOL    HW111147   3.063   4.167   4.044
 3609SOL    HW211148   3.006   4.321   4.045
 3610SOL     OW11149   2.155   3.920   4.970
 3610SOL    HW111150   2.121   3.952   5.058
 3610SOL    HW211151   2.144   3.821   4.964
 3611SOL     OW11152   1.920   5.035   4.989
 3611SOL    HW111153   1.948   4.974   5.062
 3611SOL    HW211154   1.921   5.130   5.022
 3612SOL     OW11155   2.597   4.348   4.764
 3612SOL    HW111156   2.679   4.309   4.721
 3612SOL    HW211157   2.606   4.447   4.770
 3613SOL     OW11158   3.603   4.687  -0.005
 3613SOL    HW111159   3.561   4.616  -0.062
 3613SOL    HW211160   3.543   4.709   0.072
 3614SOL     OW11161   2.177   3.787   4.355
 3614SOL    HW111162   2.146   3.880   4.375
 3614SOL    HW211163   2.187   3.736   4.441
 3615SOL     OW11164   3.491   4.112   4.072
 3615SOL    HW111165   3.518   4.037   4.132
 3615SOL    HW211166   3.462   4.191   4.127
 3616SOL     OW11167   2.882   4.475   4.681
 3616SOL    HW111168   2.874   4.494   4.779
 3616SOL    HW211169   2.863   4.378   4.665
 3617SOL     OW11170   2.845   5.287   5.450
 3617SOL    HW111171   2.827   5.335   5.364
 3617SOL    HW211172   2.893   5.201   5.430
 3618SOL     OW11173   3.716   5.222   5.324
 3618SOL    HW111174   3.733   5.253   5.231
 3618SOL    HW211175   3.798   5.236   5.379
 3619SOL     OW11176   2.213   4.644   5.533
 3619SOL    HW111177   2.290   4.670   5.591
 3619SOL    HW211178   2.245   4.581   5.462
 3620SOL     OW11179   3.372   4.001   3.848
 3620SOL    HW111180   3.316   3.923   3.876
 3620SOL    HW211181   3.416   4.040   3.929
 3621SOL     OW11182   3.141   4.549   3.742
 3621SOL    HW111183   3.190   4.463   3.758
 3621SOL    HW211184   3.175   4.591   3.657
 3622SOL     OW11185   2.940   5.066   4.583
 3622SOL    HW111186   2.947   4.989   4.519
 3622SOL    HW211187   2.995   5.142   4.549
 3623SOL     OW11188   2.205   4.247   4.731
 3623SOL    HW111189   2.151   4.163   4.727
 3623SOL    HW211190   2.288   4.236   4.676
 3624SOL     OW11191   2.994   4.096   5.421
 3624SOL    HW111192   2.944   4.150   5.489
 3624SOL    HW211193   3.087   4.132   5.412
 3625SOL     OW11194   3.021   3.930   5.199
 3625SOL    HW111195   3.008   3.991   5.277
 3625SOL    HW211196   3.068   3.979   5.126
 3626SOL     OW11197   1.859   5.035   3.918
 3626SOL    HW111198   1.770   5.058   3.879
 3626SOL    HW211199   1.858   4.941   3.953
 3627SOL     OW11200   1.951   5.505   4.668
 3627SOL    HW111201   1.917   5.425   4.620
 3627SOL    HW211202   2.045   5.524   4.638
 3628SOL     OW11203   2.352   5.300   4.626
 3628SOL    HW111204   2.421   5.368   4.650
 3628SOL    HW211205   2.391   5.234   4.563
 3629SOL     OW11206   2.821   4.506   4.948
 3629SOL    HW111207   2.897   4.494   5.011
 3629SOL    HW211208   2.737   4.470   4.990
 3630SOL     OW11209   1.894   4.287   4.842
 3630SOL    HW111210   1.965   4.242   4.788
 3630SOL    HW211211   1.920   4.288   4.938
 3631SOL     OW11212   2.050   4.251   5.464
 3631SOL    HW111213   2.109   4.196   5.405
 3631SOL    HW211214   2.017   4.330   5.413
 3632SOL     OW11215   3.245   4.654   5.378
 3632SOL    HW111216   3.269   4.751   5.380
 3632SOL    HW211217   3.241   4.622   5.283
 3633SOL     OW11218   2.675   4.297   4.096
 3633SOL    HW111219   2.688   4.218   4.036
 3633SOL    HW211220   2.599   4.352   4.062
 3634SOL     OW11221   3.504   4.326   4.896
 3634SOL    HW111222   3.489   4.268   4.977
 3634SOL    HW211223   3.597   4.313   4.863
 3635SOL     OW11224   2.094   5.267   5.447
 3635SOL    HW111225   2.078   5.346   5.506
 3635SOL    HW211226   2.108   5.186   5.504
 3636SOL     OW11227   2.581   4.165   4.968
 3636SOL    HW111228   2.519   4.088   4.951
 3636SOL    HW211229   2.573   4.231   4.894
 3637SOL     OW11230   2.790   5.402   5.199
 3637SOL    HW111231   2.747   5.359   5.119
 3637SOL    HW211232   2.793   5.501   5.185
 3638SOL     OW11233   2.312   4.219   3.904
 3638SOL    HW111234   2.378   4.291   3.928
 3638SOL    HW211235   2.221   4.260   3.895
 3639SOL     OW11236   1.998   4.860   5.193
 3639SOL    HW111237   2.000   4.816   5.283
 3639SOL    HW211238   2.023   4.794   5.122
 3640SOL     OW11239   3.168   4.759   4.940
 3640SOL    HW111240   3.198   4.695   4.869
 3640SOL    HW211241   3.103   4.825   4.900
 3641SOL     OW11242   3.186   4.572   4.015
 3641SOL    HW111243   3.113   4.563   4.082
 3641SOL    HW211244   3.146   4.574   3.923
 3642SOL     OW11245   3.619   5.453   4.867
 3642SOL    HW111246   3.690   5.487   4.807
 3642SOL    HW211247   3.604   5.355   4.849
 3643SOL     OW11248   3.100   5.448   4.803
 3643SOL    HW111249   3.188   5.486   4.775
 3643SOL    HW211250   3.113   5.356   4.840
 3644SOL     OW11251   1.954   4.993   4.724
 3644SOL    HW111252   1.941   5.010   4.822
 3644SOL    HW211253   1.874   4.944   4.688
 3645SOL     OW11254   2.541   5.401   5.472
 3645SOL    HW111255   2.477   5.478   5.477
 3645SOL    HW211256   2.619   5.427   5.415
 3646SOL     OW11257   3.584   3.886   4.212
 3646SOL    HW111258   3.659   3.872   4.147
 3646SOL    HW211259   3.564   3.800   4.258
 3647SOL     OW11260   3.257   5.297   4.214
 3647SOL    HW111261   3.320   5.331   4.144
 3647SOL    HW211262   3.202   5.373   4.249
 3648SOL     OW11263   2.015   5.503  -0.020
 3648SOL    HW111264   1.957   5.437   0.029
 3648SOL    HW211265   2.065   5.558   0.046
 3649SOL     OW11266   3.145   4.654   4.384
 3649SOL    HW111267   3.221   4.591   4.403
 3649SOL    HW211268   3.178   4.731   4.329
 3650SOL     OW11269   2.662   5.006   5.153
 3650SOL    HW111270   2.634   5.050   5.238
 3650SOL    HW211271   2.598   5.032   5.080
 3651SOL     OW11272   2.531   5.342   3.881
 3651SOL    HW111273   2.545   5.369   3.786
 3651SOL    HW211274   2.471   5.262   3.885
 3652SOL     OW11275   3.475   5.458   5.110
 3652SOL    HW111276   3.529   5.458   5.026
 3652SOL    HW211277   3.465   5.552   5.144
 3653SOL     OW11278   3.706   3.889   4.685
 3653SOL    HW111279   3.739   3.796   4.668
 3653SOL    HW211280   3.613   3.899   4.647
 3654SOL     OW11281   2.109   4.038   4.442
 3654SOL    HW111282   2.019   4.070   4.411
 3654SOL    HW211283   2.109   4.029   4.542
 3655SOL     OW11284   3.072   5.321   3.757
 3655SOL    HW111285   3.062   5.227   3.792
 3655SOL    HW211286   3.003   5.338   3.688
 3656SOL     OW11287   2.685   4.738   5.105
 3656SOL    HW111288   2.742   4.726   5.025
 3656SOL    HW211289   2.677   4.835   5.127
 3657SOL     OW11290   2.781   4.631   4.012
 3657SOL    HW111291   2.839   4.669   3.940
 3657SOL    HW211292   2.833   4.563   4.064
 3658SOL     OW11293   3.351   5.354   3.769
 3658SOL    HW111294   3.252   5.344   3.757
 3658SOL    HW211295   3.395   5.361   3.679
 3659SOL     OW11296   2.226   5.024   5.210
 3659SOL    HW111297   2.220   5.105   5.153
 3659SOL    HW211298   2.142   4.969   5.200
 3660SOL     OW11299   3.471   5.012   5.006
 3660SOL    HW111300   3.539   4.994   5.077
 3660SOL    HW211301   3.408   5.084   5.038
 3661SOL     OW11302   2.933   4.831   4.446
 3661SOL    HW111303   2.855   4.780   4.484
 3661SOL    HW211304   3.003   4.766   4.415
 3662SOL     OW11305   2.886   3.959   4.686
 3662SOL    HW111306   2.883   3.916   4.596
 3662SOL    HW211307   2.884   3.889   4.757
 3663SOL     OW11308   2.461   5.206   4.201
 3663SOL    HW111309   2.516   5.155   4.135
 3663SOL    HW211310   2.403   5.271   4.152
 3664SOL     OW11311   3.599   4.118   5.104
 3664SOL    HW111312   3.673   4.185   5.106
 3664SOL    HW211313   3.623   4.044   5.042
 3665SOL     OW11314   2.111   5.072   4.009
 3665SOL    HW111315   2.015   5.065   3.982
 3665SOL    HW211316   2.118   5.114   4.099
 3666SOL     OW11317   1.975   4.746   5.442
 3666SOL    HW111318   1.895   4.729   5.501
 3666SOL    HW211319   2.057   4.711   5.487
 3667SOL     OW11320   2.547   3.919   5.221
 3667SOL    HW111321   2.634   3.891   5.179
 3667SOL    HW211322   2.565   3.951   5.314
 3668SOL     OW11323   1.944   4.047   3.749
 3668SOL    HW111324   1.858   4.018   3.707
 3668SOL    HW211325   1.975   4.132   3.707
 3669SOL     OW11326   3.280   4.578   5.116
 3669SOL    HW111327   3.224   4.642   5.063
 3669SOL    HW211328   3.375   4.582   5.084
 3670SOL     OW11329   1.918   3.880   4.013
 3670SOL    HW111330   1.902   3.958   3.953
 3670SOL    HW211331   2.008   3.840   3.993
 3671SOL     OW11332   3.042   5.057   3.847
 3671SOL    HW111333   2.944   5.036   3.840
 3671SOL    HW211334   3.068   5.062   3.944
 3672SOL     OW11335   2.480   4.560   5.147
 3672SOL    HW111336   2.539   4.640   5.140
 3672SOL    HW211337   2.537   4.478   5.159
 3673SOL     OW11338   3.355   5.518   4.716
 3673SOL    HW111339   3.372   5.594   4.653
 3673SOL    HW211340   3.439   5.496   4.765
 3674SOL     OW11341   2.588   4.280   5.420
 3674SOL    HW111342   2.634   4.344   5.482
 3674SOL    HW211343   2.601   4.187   5.453
 3675SOL     OW11344   3.338   4.914   5.359
 3675SOL    HW111345   3.324   4.931   5.456
 3675SOL    HW211346   3.431   4.938   5.333
 3676SOL     OW11347   2.223   5.463   5.289
 3676SOL    HW111348   2.139   5.518   5.280
 3676SOL    HW211349   2.201   5.375   5.332
 3677SOL     OW11350   3.521   4.601   4.981
 3677SOL    HW111351   3.520   4.511   4.936
 3677SOL    HW211352   3.510   4.672   4.912
 3678SOL     OW11353   3.086   4.045   4.179
 3678SOL    HW111354   3.147   3.966   4.172
 3678SOL    HW211355   3.111   4.099   4.260
 3679SOL     OW11356   2.388   4.503   4.413
 3679SOL    HW111357   2.454   4.575   4.393
 3679SOL    HW211358   2.347   4.470   4.328
 3680SOL     OW11359   3.609   4.090   5.379
 3680SOL    HW111360   3.601   4.107   5.281
 3680SOL    HW211361   3.534   4.031   5.409
 3681SOL     OW11362   3.615   4.656   5.234
 3681SOL    HW111363   3.603   4.753   5.255
 3681SOL    HW211364   3.592   4.640   5.138
 3682SOL     OW11365   2.735   5.086   3.778
 3682SOL    HW111366   2.691   5.108   3.865
 3682SOL    HW211367   2.745   5.169   3.724
 3683SOL     OW11368   2.526   5.502   4.654
 3683SOL    HW111369   2.502   5.599   4.645
 3683SOL    HW211370   2.626   5.493   4.652
 3684SOL     OW11371   2.731   4.693   4.580
 3684SOL    HW111372   2.787   4.619   4.618
 3684SOL    HW211373   2.691   4.745   4.655
 3685SOL     OW11374   2.933   4.709   3.806
 3685SOL    HW111375   2.905   4.769   3.731
 3685SOL    HW211376   3.010   4.653   3.777
 3686SOL     OW11377   3.697   5.274   4.568
 3686SOL    HW111378   3.620   5.270   4.505
 3686SOL    HW211379   3.672   5.231   4.655
 3687SOL     OW11380   2.103   5.023  -0.004
 3687SOL    HW111381   2.027   4.965  -0.033
 3687SOL    HW211382   2.097   5.037   0.095
 3688SOL     OW11383   1.943   4.945   4.386
 3688SOL    HW111384   1.938   4.890   4.469
 3688SOL    HW211385   2.018   4.912   4.328
 3689SOL     OW11386   2.548   5.139   5.364
 3689SOL    HW111387   2.467   5.092   5.397
 3689SOL    HW211388   2.549   5.233   5.399
 3690SOL     OW11389   3.661   3.905   4.954
 3690SOL    HW111390   3.677   3.810   4.982
 3690SOL    HW211391   3.678   3.914   4.856
 3691SOL     OW11392   2.297   4.147   4.259
 3691SOL    HW111393   2.328   4.082   4.190
 3691SOL    HW211394   2.234   4.101   4.322
 3692SOL     OW11395   3.566   5.193   4.801
 3692SOL    HW111396   3.479   5.181   4.754
 3692SOL    HW211397   3.571   5.129   4.878
 3693SOL     OW11398   2.202   4.270   5.013
 3693SOL    HW111399   2.254   4.211   5.076
 3693SOL    HW211400   2.219   4.240   4.919
 3694SOL     OW11401   2.696   5.307   4.399
 3694SOL    HW111402   2.685   5.383   4.335
 3694SOL    HW211403   2.614   5.249   4.397
 3695SOL     OW11404   3.290   3.960   4.838
 3695SOL    HW111405   3.308   3.866   4.869
 3695SOL    HW211406   3.239   4.009   4.909
 3696SOL     OW11407   2.871   3.739   4.856
 3696SOL    HW111408   2.806   3.675   4.814
 3696SOL    HW211409   2.962   3.697   4.857
 3697SOL     OW11410   2.637   5.054   4.049
 3697SOL    HW111411   2.615   4.957   4.062
 3697SOL    HW211412   2.720   5.077   4.100
 3698SOL     OW11413   2.485   5.278   5.016
 3698SOL    HW111414   2.479   5.366   5.064
 3698SOL    HW211415   2.576   5.268   4.975
 3699SOL     OW11416   3.231   3.766   3.892
 3699SOL    HW111417   3.278   3.688   3.851
 3699SOL    HW211418   3.136   3.742   3.911
 3700SOL     OW11419   3.150   4.192   4.402
 3700SOL    HW111420   3.100   4.278   4.403
 3700SOL    HW211421   3.149   4.151   4.493
 3701SOL     OW11422   3.447   3.923   4.611
 3701SOL    HW111423   3.392   3.945   4.692
 3701SOL    HW211424   3.451   4.002   4.550
 3702SOL     OW11425   1.899   4.781   4.036
 3702SOL    HW111426   1.997   4.785   4.018
 3702SOL    HW211427   1.872   4.687   4.057
 3703SOL     OW11428   2.748   5.395   4.059
 3703SOL    HW111429   2.672   5.376   3.996
 3703SOL    HW211430   2.724   5.473   4.116
 3704SOL     OW11431   3.938   0.610   0.148
 3704SOL    HW111432   3.847   0.625   0.187
 3704SOL    HW211433   3.931   0.604   0.048
 3705SOL     OW11434   3.945   0.282   0.996
 3705SOL    HW111435   3.977   0.247   1.084
 3705SOL    HW211436   3.852   0.248   0.979
 3706SOL     OW11437   3.720   0.382   0.635
 3706SOL    HW111438   3.638   0.415   0.682
 3706SOL    HW211439   3.696   0.305   0.576
 3707SOL     OW11440   4.294   1.305   1.197
 3707SOL    HW111441   4.209   1.304   1.145
 3707SOL    HW211442   4.313   1.399   1.228
 3708SOL     OW11443   5.298   1.517   0.705
 3708SOL    HW111444   5.253   1.491   0.791
 3708SOL    HW211445   5.229   1.526   0.633
 3709SOL     OW11446   4.864   0.704   0.691
 3709SOL    HW111447   4.914   0.788   0.673
 3709SOL    HW211448   4.810   0.714   0.775
 3710SOL     OW11449   5.508   0.592   0.217
 3710SOL    HW111450   5.478   0.591   0.121
 3710SOL    HW211451   5.464   0.516   0.265
 3711SOL     OW11452   4.461   1.139   1.050
 3711SOL    HW111453   4.395   1.176   1.115
 3711SOL    HW211454   4.504   1.214   1.000
 3712SOL     OW11455   4.605   0.754   1.821
 3712SOL    HW111456   4.588   0.823   1.892
 3712SOL    HW211457   4.626   0.800   1.735
 3713SOL     OW11458   4.410   0.994   0.649
 3713SOL    HW111459   4.480   0.991   0.720
 3713SOL    HW211460   4.335   1.053   0.678
 3714SOL     OW11461   4.438   1.156   1.828
 3714SOL    HW111462   4.493   1.233   1.861
 3714SOL    HW211463   4.357   1.190   1.781
 3715SOL     OW11464   4.054   1.414   1.064
 3715SOL    HW111465   3.976   1.369   1.020
 3715SOL    HW211466   4.103   1.469   0.997
 3716SOL     OW11467   5.181   1.502   1.366
 3716SOL    HW111468   5.237   1.584   1.373
 3716SOL    HW211469   5.104   1.510   1.430
 3717SOL     OW11470   4.176   0.385   1.471
 3717SOL    HW111471   4.257   0.327   1.481
 3717SOL    HW211472   4.094   0.331   1.491
 3718SOL     OW11473   5.331   0.441   0.749
 3718SOL    HW111474   5.262   0.455   0.678
 3718SOL    HW211475   5.324   0.513   0.817
 3719SOL     OW11476   3.945   1.721   0.466
 3719SOL    HW111477   3.969   1.798   0.525
 3719SOL    HW211478   4.017   1.707   0.398
 3720SOL     OW11479   4.861   1.338   1.697
 3720SOL    HW111480   4.906   1.334   1.787
 3720SOL    HW211481   4.805   1.256   1.685
 3721SOL     OW11482   3.946   1.459   0.550
 3721SOL    HW111483   3.928   1.556   0.533
 3721SOL    HW211484   3.873   1.420   0.606
 3722SOL     OW11485   4.005   1.093   0.904
 3722SOL    HW111486   3.997   0.997   0.931
 3722SOL    HW211487   3.938   1.147   0.952
 3723SOL     OW11488   4.317   1.796   1.431
 3723SOL    HW111489   4.232   1.775   1.479
 3723SOL    HW211490   4.348   1.888   1.457
 3724SOL     OW11491   4.324   0.983   0.135
 3724SOL    HW111492   4.367   1.038   0.064
 3724SOL    HW211493   4.355   1.015   0.225
 3725SOL     OW11494   5.324   0.121   1.467
 3725SOL    HW111495   5.354   0.198   1.411
 3725SOL    HW211496   5.302   0.153   1.559
 3726SOL     OW11497   3.841   0.654   0.569
 3726SOL    HW111498   3.809   0.561   0.587
 3726SOL    HW211499   3.833   0.708   0.653
 3727SOL     OW11500  -0.017   1.748   0.326
 3727SOL    HW111501   0.052   1.721   0.392
 3727SOL    HW211502  -0.006   1.845   0.304
 3728SOL     OW11503   3.754   1.597   0.115
 3728SOL    HW111504   3.754   1.498   0.127
 3728SOL    HW211505   3.729   1.642   0.201
 3729SOL     OW11506   5.421   0.924   0.648
 3729SOL    HW111507   5.501   0.870   0.624
 3729SOL    HW211508   5.394   0.981   0.571
 3730SOL     OW11509   5.383   1.103   0.433
 3730SOL    HW111510   5.472   1.098   0.388
 3730SOL    HW211511   5.387   1.172   0.505
 3731SOL     OW11512   3.845   0.747   1.583
 3731SOL    HW111513   3.939   0.781   1.580
 3731SOL    HW211514   3.782   0.823   1.568
 3732SOL     OW11515   4.335   1.393   0.732
 3732SOL    HW111516   4.290   1.305   0.742
 3732SOL    HW211517   4.324   1.427   0.639
 3733SOL     OW11518   5.005   1.228   1.423
 3733SOL    HW111519   5.030   1.158   1.355
 3733SOL    HW211520   5.070   1.224   1.499
 3734SOL     OW11521   4.539   0.006   0.515
 3734SOL    HW111522   4.588   0.088   0.487
 3734SOL    HW211523   4.441   0.025   0.516
 3735SOL     OW11524   3.911   0.955   1.290
 3735SOL    HW111525   4.001   0.915   1.275
 3735SOL    HW211526   3.850   0.929   1.216
 3736SOL     OW11527   5.262   1.006   0.203
 3736SOL    HW111528   5.188   0.945   0.230
 3736SOL    HW211529   5.307   1.042   0.285
 3737SOL     OW11530   4.906   1.819   1.629
 3737SOL    HW111531   4.908   1.891   1.560
 3737SOL    HW211532   4.923   1.731   1.585
 3738SOL     OW11533   4.071   0.245   1.856
 3738SOL    HW111534   4.119   0.331   1.875
 3738SOL    HW211535   3.972   0.260   1.862
 3739SOL     OW11536   5.195   1.419   0.941
 3739SOL    HW111537   5.127   1.441   1.012
 3739SOL    HW211538   5.183   1.324   0.912
 3740SOL     OW11539   5.375   1.761   0.570
 3740SOL    HW111540   5.352   1.730   0.478
 3740SOL    HW211541   5.354   1.688   0.636
 3741SOL     OW11542   4.319   0.725   0.278
 3741SOL    HW111543   4.317   0.808   0.223
 3741SOL    HW211544   4.248   0.729   0.348
 3742SOL     OW11545   5.006   0.374   0.937
 3742SOL    HW111546   4.912   0.340   0.942
 3742SOL    HW211547   5.064   0.318   0.997
 3743SOL     OW11548   5.309   1.675   0.308
 3743SOL    HW111549   5.406   1.697   0.303
 3743SOL    HW211550   5.273   1.659   0.216
 3744SOL     OW11551   4.517   0.608   1.446
 3744SOL    HW111552   4.490   0.582   1.539
 3744SOL    HW211553   4.483   0.539   1.382
 3745SOL     OW11554   5.113   0.471   1.678
 3745SOL    HW111555   5.115   0.520   1.765
 3745SOL    HW211556   5.170   0.389   1.685
 3746SOL     OW11557   4.674   0.883   1.585
 3746SOL    HW111558   4.731   0.812   1.543
 3746SOL    HW211559   4.621   0.929   1.514
 3747SOL     OW11560   4.721   0.395   1.219
 3747SOL    HW111561   4.627   0.415   1.248
 3747SOL    HW211562   4.720   0.355   1.128
 3748SOL     OW11563   4.779   0.696   0.422
 3748SOL    HW111564   4.801   0.693   0.520
 3748SOL    HW211565   4.689   0.654   0.407
 3749SOL     OW11566   3.810   0.816   0.788
 3749SOL    HW111567   3.897   0.812   0.836
 3749SOL    HW211568   3.758   0.896   0.819
 3750SOL     OW11569   3.848   1.879   1.590
 3750SOL    HW111570   3.854   1.852   1.686
 3750SOL    HW211571   3.770   1.835   1.547
 3751SOL     OW11572   4.615   0.358   0.211
 3751SOL    HW111573   4.646   0.418   0.137
 3751SOL    HW211574   4.608   0.264   0.176
 3752SOL     OW11575   5.418   0.574   1.831
 3752SOL    HW111576   5.389   0.654   1.779
 3752SOL    HW211577   5.446   0.501   1.768
 3753SOL     OW11578   5.108   1.146   0.532
 3753SOL    HW111579   5.191   1.132   0.477
 3753SOL    HW211580   5.049   1.212   0.486
 3754SOL     OW11581   4.273   0.158   0.909
 3754SOL    HW111582   4.277   0.194   1.002
 3754SOL    HW211583   4.270   0.233   0.844
 3755SOL     OW11584   4.717   1.450   0.464
 3755SOL    HW111585   4.684   1.526   0.409
 3755SOL    HW211586   4.689   1.463   0.559
 3756SOL     OW11587   4.080   1.817   0.879
 3756SOL    HW111588   4.125   1.728   0.883
 3756SOL    HW211589   4.147   1.889   0.893
 3757SOL     OW11590   5.528   1.053   0.876
 3757SOL    HW111591   5.478   1.029   0.792
 3757SOL    HW211592   5.463   1.060   0.951
 3758SOL     OW11593   4.948   1.536   1.514
 3758SOL    HW111594   4.935   1.460   1.578
 3758SOL    HW211595   4.878   1.532   1.443
 3759SOL     OW11596   4.051   0.942   0.260
 3759SOL    HW111597   4.119   0.995   0.209
 3759SOL    HW211598   4.013   0.871   0.201
 3760SOL     OW11599   5.214   0.754   0.716
 3760SOL    HW111600   5.209   0.712   0.807
 3760SOL    HW211601   5.293   0.815   0.712
 3761SOL     OW11602   4.195   1.271   1.732
 3761SOL    HW111603   4.170   1.277   1.636
 3761SOL    HW211604   4.112   1.265   1.788
 3762SOL     OW11605   4.832   1.776   0.218
 3762SOL    HW111606   4.760   1.731   0.272
 3762SOL    HW211607   4.868   1.711   0.151
 3763SOL     OW11608   3.927   0.265   1.500
 3763SOL    HW111609   3.847   0.324   1.497
 3763SOL    HW211610   3.902   0.177   1.541
 3764SOL     OW11611   5.355   1.384   0.092
 3764SOL    HW111612   5.317   1.475   0.076
 3764SOL    HW211613   5.285   1.315   0.072
 3765SOL     OW11614   4.188   1.737   0.313
 3765SOL    HW111615   4.233   1.798   0.378
 3765SOL    HW211616   4.256   1.695   0.253
 3766SOL     OW11617   5.125   0.097   0.447
 3766SOL    HW111618   5.113   0.075   0.350
 3766SOL    HW211619   5.223   0.110   0.466
 3767SOL     OW11620   3.982   1.790   1.217
 3767SOL    HW111621   4.031   1.709   1.251
 3767SOL    HW211622   3.954   1.773   1.122
 3768SOL     OW11623   4.663   1.701   0.893
 3768SOL    HW111624   4.749   1.657   0.918
 3768SOL    HW211625   4.620   1.650   0.818
 3769SOL     OW11626   4.129   0.682   0.482
 3769SOL    HW111627   4.143   0.585   0.498
 3769SOL    HW211628   4.031   0.703   0.485
 3770SOL     OW11629   5.242   0.222   1.725
 3770SOL    HW111630   5.253   0.241   1.822
 3770SOL    HW211631   5.169   0.155   1.712
 3771SOL     OW11632   4.373   0.065   0.182
 3771SOL    HW111633   4.472   0.073   0.175
 3771SOL    HW211634   4.333   0.072   0.090
 3772SOL     OW11635   4.487   0.272   1.758
 3772SOL    HW111636   4.574   0.223   1.750
 3772SOL    HW211637   4.434   0.234   1.834
 3773SOL     OW11638   4.593   1.511   1.193
 3773SOL    HW111639   4.574   1.476   1.101
 3773SOL    HW211640   4.667   1.458   1.235
 3774SOL     OW11641   5.058   0.588   1.434
 3774SOL    HW111642   5.089   0.555   1.523
 3774SOL    HW211643   5.093   0.680   1.419
 3775SOL     OW11644   4.544   1.382   0.942
 3775SOL    HW111645   4.635   1.375   0.902
 3775SOL    HW211646   4.476   1.394   0.870
 3776SOL     OW11647   4.651   0.508   0.891
 3776SOL    HW111648   4.624   0.501   0.795
 3776SOL    HW211649   4.681   0.418   0.924
 3777SOL     OW11650   4.270   0.061   0.503
 3777SOL    HW111651   4.187   0.059   0.558
 3777SOL    HW211652   4.269   0.142   0.444
 3778SOL     OW11653   5.152   1.205   0.042
 3778SOL    HW111654   5.183   1.126   0.095
 3778SOL    HW211655   5.060   1.232   0.072
 3779SOL     OW11656   4.020   0.040   0.173
 3779SOL    HW111657   4.080   0.097   0.117
 3779SOL    HW211658   4.075  -0.022   0.229
 3780SOL     OW11659   4.676   0.243   0.457
 3780SOL    HW111660   4.641   0.285   0.374
 3780SOL    HW211661   4.774   0.262   0.465
 3781SOL     OW11662   4.799   0.685   1.450
 3781SOL    HW111663   4.723   0.620   1.453
 3781SOL    HW211664   4.885   0.635   1.445
 3782SOL     OW11665   4.939   1.579   0.798
 3782SOL    HW111666   4.948   1.644   0.723
 3782SOL    HW211667   5.011   1.596   0.866
 3783SOL     OW11668   4.198   1.153   0.723
 3783SOL    HW111669   4.131   1.133   0.794
 3783SOL    HW211670   4.156   1.139   0.633
 3784SOL     OW11671   4.979   1.791   0.612
 3784SOL    HW111672   5.033   1.854   0.556
 3784SOL    HW211673   4.903   1.840   0.655
 3785SOL     OW11674   4.746   0.531   0.027
 3785SOL    HW111675   4.699   0.615   0.002
 3785SOL    HW211676   4.810   0.548   0.102
 3786SOL     OW11677   3.820   0.554   1.393
 3786SOL    HW111678   3.914   0.553   1.359
 3786SOL    HW211679   3.810   0.626   1.462
 3787SOL     OW11680   4.283   0.223   1.179
 3787SOL    HW111681   4.331   0.153   1.232
 3787SOL    HW211682   4.186   0.221   1.203
 3788SOL     OW11683   4.591   0.456   0.631
 3788SOL    HW111684   4.544   0.519   0.569
 3788SOL    HW211685   4.618   0.374   0.579
 3789SOL     OW11686   4.753   0.051   0.742
 3789SOL    HW111687   4.688   0.065   0.667
 3789SOL    HW211688   4.721  -0.023   0.801
 3790SOL     OW11689   5.173   1.158   0.857
 3790SOL    HW111690   5.091   1.101   0.860
 3790SOL    HW211691   5.203   1.169   0.762
 3791SOL     OW11692   5.195   0.611   0.960
 3791SOL    HW111693   5.128   0.537   0.961
 3791SOL    HW211694   5.253   0.604   1.041
 3792SOL     OW11695   5.569   0.803   0.379
 3792SOL    HW111696   5.628   0.757   0.445
 3792SOL    HW211697   5.541   0.738   0.308
 3793SOL     OW11698   4.225   1.419   0.158
 3793SOL    HW111699   4.178   1.381   0.238
 3793SOL    HW211700   4.171   1.398   0.076
 3794SOL     OW11701   5.409   1.269   0.641
 3794SOL    HW111702   5.508   1.268   0.653
 3794SOL    HW211703   5.374   1.361   0.660
 3795SOL     OW11704   5.110   0.575   0.066
 3795SOL    HW111705   5.047   0.553   0.140
 3795SOL    HW211706   5.204   0.560   0.098
 3796SOL     OW11707   4.248   0.265   0.327
 3796SOL    HW111708   4.298   0.204   0.265
 3796SOL    HW211709   4.224   0.349   0.279
 3797SOL     OW11710   5.477   1.241   1.547
 3797SOL    HW111711   5.567   1.201   1.528
 3797SOL    HW211712   5.489   1.334   1.581
 3798SOL     OW11713   4.771   1.349   1.338
 3798SOL    HW111714   4.689   1.319   1.385
 3798SOL    HW211715   4.851   1.306   1.380
 3799SOL     OW11716   5.344   1.630   1.665
 3799SOL    HW111717   5.322   1.669   1.576
 3799SOL    HW211718   5.429   1.578   1.659
 3800SOL     OW11719   4.871   1.233   1.105
 3800SOL    HW111720   4.807   1.264   1.176
 3800SOL    HW211721   4.838   1.262   1.016
 3801SOL     OW11722   5.346   1.095   1.079
 3801SOL    HW111723   5.340   1.163   1.152
 3801SOL    HW211724   5.273   1.112   1.012
 3802SOL     OW11725   4.651   0.084   1.390
 3802SOL    HW111726   4.672   0.066   1.294
 3802SOL    HW211727   4.729   0.130   1.433
 3803SOL     OW11728   4.701   1.113   1.724
 3803SOL    HW111729   4.607   1.133   1.751
 3803SOL    HW211730   4.703   1.031   1.667
 3804SOL     OW11731   4.444   1.062   0.374
 3804SOL    HW111732   4.419   1.038   0.468
 3804SOL    HW211733   4.523   1.009   0.346
 3805SOL     OW11734   4.148   0.820   1.258
 3805SOL    HW111735   4.223   0.832   1.324
 3805SOL    HW211736   4.111   0.727   1.266
 3806SOL     OW11737   4.984   0.371   1.286
 3806SOL    HW111738   5.018   0.452   1.333
 3806SOL    HW211739   4.889   0.386   1.258
 3807SOL     OW11740   3.802   1.568   1.355
 3807SOL    HW111741   3.761   1.633   1.291
 3807SOL    HW211742   3.901   1.568   1.345
 3808SOL     OW11743   4.074   1.106   0.487
 3808SOL    HW111744   4.068   1.190   0.434
 3808SOL    HW211745   4.065   1.027   0.425
 3809SOL     OW11746   4.267   0.545   0.871
 3809SOL    HW111747   4.278   0.601   0.789
 3809SOL    HW211748   4.339   0.565   0.936
 3810SOL     OW11749   4.968   1.356   0.398
 3810SOL    HW111750   5.029   1.430   0.428
 3810SOL    HW211751   4.874   1.378   0.425
 3811SOL     OW11752   5.023   1.464   1.145
 3811SOL    HW111753   5.076   1.469   1.230
 3811SOL    HW211754   4.968   1.380   1.145
 3812SOL     OW11755   5.299   0.616   0.485
 3812SOL    HW111756   5.249   0.659   0.561
 3812SOL    HW211757   5.333   0.687   0.424
 3813SOL     OW11758   4.073   1.532   1.302
 3813SOL    HW111759   4.058   1.484   1.216
 3813SOL    HW211760   4.171   1.548   1.315
 3814SOL     OW11761   4.142   0.751   1.601
 3814SOL    HW111762   4.210   0.793   1.542
 3814SOL    HW211763   4.168   0.656   1.621
 3815SOL     OW11764   5.344   0.792   1.689
 3815SOL    HW111765   5.252   0.831   1.684
 3815SOL    HW211766   5.400   0.829   1.615
 3816SOL     OW11767   4.722   0.137   1.752
 3816SOL    HW111768   4.780   0.217   1.738
 3816SOL    HW211769   4.773   0.055   1.724
 3817SOL     OW11770   4.213   0.030   1.758
 3817SOL    HW111771   4.166  -0.027   1.691
 3817SOL    HW211772   4.157   0.110   1.778
 3818SOL     OW11773   4.321   0.870   1.043
 3818SOL    HW111774   4.349   0.966   1.033
 3818SOL    HW211775   4.250   0.864   1.114
 3819SOL     OW11776   5.061   0.852   1.021
 3819SOL    HW111777   4.971   0.842   0.980
 3819SOL    HW211778   5.115   0.770   1.004
 3820SOL     OW11779   4.923   0.524   0.262
 3820SOL    HW111780   4.931   0.440   0.316
 3820SOL    HW211781   4.877   0.595   0.316
 3821SOL     OW11782   4.020   0.190   1.246
 3821SOL    HW111783   3.983   0.225   1.332
 3821SOL    HW211784   4.006   0.092   1.240
 3822SOL     OW11785   3.772   1.306   1.273
 3822SOL    HW111786   3.808   1.247   1.345
 3822SOL    HW211787   3.777   1.402   1.303
 3823SOL     OW11788   4.453   0.631   1.055
 3823SOL    HW111789   4.525   0.614   0.988
 3823SOL    HW211790   4.415   0.722   1.040
 3824SOL     OW11791   5.470   0.963   1.865
 3824SOL    HW111792   5.430   0.894   1.804
 3824SOL    HW211793   5.405   0.984   1.938
 3825SOL     OW11794   4.030   0.051   0.633
 3825SOL    HW111795   4.002   0.146   0.646
 3825SOL    HW211796   4.040   0.006   0.721
 3826SOL     OW11797   5.358   0.385   0.352
 3826SOL    HW111798   5.382   0.309   0.413
 3826SOL    HW211799   5.327   0.462   0.407
 3827SOL     OW11800   4.751   0.754   0.954
 3827SOL    HW111801   4.739   0.775   1.051
 3827SOL    HW211802   4.721   0.660   0.936
 3828SOL     OW11803   4.707   1.562   1.722
 3828SOL    HW111804   4.686   1.610   1.637
 3828SOL    HW211805   4.755   1.476   1.700
 3829SOL     OW11806  -0.014   1.499   1.601
 3829SOL    HW111807   0.004   1.527   1.507
 3829SOL    HW211808   0.070   1.508   1.655
 3830SOL     OW11809   4.076   0.917   1.809
 3830SOL    HW111810   4.157   0.939   1.863
 3830SOL    HW211811   4.101   0.854   1.735
 3831SOL     OW11812   5.255   0.257   0.125
 3831SOL    HW111813   5.183   0.195   0.157
 3831SOL    HW211814   5.292   0.308   0.203
 3832SOL     OW11815   5.014   0.827   5.613
 3832SOL    HW111816   5.049   0.734   5.621
 3832SOL    HW211817   5.044   0.867   5.526
 3833SOL     OW11818   4.800   1.345   0.861
 3833SOL    HW111819   4.805   1.266   0.799
 3833SOL    HW211820   4.853   1.420   0.824
 3834SOL     OW11821   4.037   0.808   0.943
 3834SOL    HW111822   4.132   0.828   0.918
 3834SOL    HW211823   4.030   0.714   0.975
 3835SOL     OW11824   4.044   0.529   1.014
 3835SOL    HW111825   4.004   0.438   1.002
 3835SOL    HW211826   4.125   0.538   0.957
 3836SOL     OW11827   4.859   0.370   1.697
 3836SOL    HW111828   4.806   0.427   1.761
 3836SOL    HW211829   4.950   0.410   1.684
 3837SOL     OW11830   4.886   0.198   1.480
 3837SOL    HW111831   4.870   0.261   1.557
 3837SOL    HW211832   4.928   0.248   1.405
 3838SOL     OW11833   3.687   1.353   0.258
 3838SOL    HW111834   3.604   1.367   0.205
 3838SOL    HW211835   3.738   1.274   0.222
 3839SOL     OW11836   3.822   1.777   0.956
 3839SOL    HW111837   3.781   1.700   0.906
 3839SOL    HW211838   3.913   1.796   0.918
 3840SOL     OW11839   4.215   1.576   0.906
 3840SOL    HW111840   4.287   1.640   0.932
 3840SOL    HW211841   4.252   1.510   0.840
 3841SOL     OW11842   4.689   0.789   1.218
 3841SOL    HW111843   4.746   0.767   1.297
 3841SOL    HW211844   4.600   0.745   1.227
 3842SOL     OW11845   3.762   0.555   1.120
 3842SOL    HW111846   3.842   0.553   1.061
 3842SOL    HW211847   3.791   0.557   1.216
 3843SOL     OW11848   3.918   0.528   1.733
 3843SOL    HW111849   3.967   0.471   1.667
 3843SOL    HW211850   3.881   0.608   1.686
 3844SOL     OW11851   5.110   0.930   1.652
 3844SOL    HW111852   5.133   1.027   1.650
 3844SOL    HW211853   5.102   0.896   1.558
 3845SOL     OW11854   4.539   0.579   0.370
 3845SOL    HW111855   4.548   0.499   0.310
 3845SOL    HW211856   4.462   0.634   0.340
 3846SOL     OW11857   5.367   0.602   1.175
 3846SOL    HW111858   5.350   0.543   1.253
 3846SOL    HW211859   5.460   0.587   1.141
 3847SOL     OW11860   3.960   1.542   1.723
 3847SOL    HW111861   3.940   1.616   1.788
 3847SOL    HW211862   3.967   1.456   1.772
 3848SOL     OW11863   4.445   0.441   1.246
 3848SOL    HW111864   4.381   0.367   1.224
 3848SOL    HW211865   4.439   0.511   1.175
 3849SOL     OW11866   4.639   1.680   1.479
 3849SOL    HW111867   4.612   1.629   1.397
 3849SOL    HW211868   4.641   1.778   1.458
 3850SOL     OW11869   4.182   0.495   0.203
 3850SOL    HW111870   4.244   0.572   0.219
 3850SOL    HW211871   4.091   0.530   0.183
 3851SOL     OW11872   3.861   1.140   1.480
 3851SOL    HW111873   3.865   1.102   1.573
 3851SOL    HW211874   3.881   1.068   1.413
 3852SOL     OW11875   5.032   1.041   1.215
 3852SOL    HW111876   5.055   0.972   1.146
 3852SOL    HW211877   4.972   1.109   1.175
 3853SOL     OW11878   5.050   0.855   0.291
 3853SOL    HW111879   4.972   0.834   0.351
 3853SOL    HW211880   5.022   0.847   0.196
 3854SOL     OW11881   5.515   1.720   1.166
 3854SOL    HW111882   5.576   1.754   1.095
 3854SOL    HW211883   5.477   1.632   1.138
 3855SOL     OW11884   4.965   1.731   1.100
 3855SOL    HW111885   5.049   1.765   1.058
 3855SOL    HW211886   4.975   1.634   1.123
 3856SOL     OW11887   3.812   1.261   1.007
 3856SOL    HW111888   3.789   1.276   1.103
 3856SOL    HW211889   3.744   1.199   0.966
 3857SOL     OW11890   4.409   1.682   1.743
 3857SOL    HW111891   4.339   1.754   1.736
 3857SOL    HW211892   4.480   1.697   1.675
 3858SOL     OW11893   4.642   0.089   0.138
 3858SOL    HW111894   4.664   0.102   0.041
 3858SOL    HW211895   4.714   0.035   0.181
 3859SOL     OW11896   5.446   0.153   0.490
 3859SOL    HW111897   5.520   0.141   0.424
 3859SOL    HW211898   5.427   0.066   0.536
 3860SOL     OW11899   5.123   1.573   0.493
 3860SOL    HW111900   5.182   1.606   0.419
 3860SOL    HW211901   5.064   1.647   0.525
 3861SOL     OW11902   3.870   1.786   1.845
 3861SOL    HW111903   3.814   1.715   1.889
 3861SOL    HW211904   3.920   1.837   1.915
 3862SOL     OW11905   5.010   0.930   0.661
 3862SOL    HW111906   5.086   0.866   0.677
 3862SOL    HW211907   5.043   1.008   0.607
 3863SOL     OW11908   4.516   1.282   1.423
 3863SOL    HW111909   4.488   1.328   1.507
 3863SOL    HW211910   4.446   1.297   1.353
 3864SOL     OW11911   4.398   1.621   0.153
 3864SOL    HW111912   4.410   1.646   0.057
 3864SOL    HW211913   4.340   1.540   0.159
 3865SOL     OW11914   5.340   1.728   1.392
 3865SOL    HW111915   5.400   1.726   1.312
 3865SOL    HW211916   5.325   1.823   1.420
 3866SOL     OW11917   5.572   0.163   0.965
 3866SOL    HW111918   5.605   0.070   0.944
 3866SOL    HW211919   5.481   0.175   0.926
 3867SOL     OW11920   3.971   0.302   0.714
 3867SOL    HW111921   3.884   0.341   0.684
 3867SOL    HW211922   3.975   0.303   0.814
 3868SOL     OW11923   4.934   1.598   0.035
 3868SOL    HW111924   4.925   1.505   0.070
 3868SOL    HW211925   4.866   1.613  -0.037
 3869SOL     OW11926   4.547   1.013   1.383
 3869SOL    HW111927   4.588   0.997   1.293
 3869SOL    HW211928   4.537   1.111   1.398
 3870SOL     OW11929   4.657   0.919   0.297
 3870SOL    HW111930   4.713   0.951   0.220
 3870SOL    HW211931   4.703   0.841   0.340
 3871SOL     OW11932   5.212   1.634   0.044
 3871SOL    HW111933   5.114   1.619   0.032
 3871SOL    HW211934   5.257   1.640  -0.045
 3872SOL     OW11935   4.088   1.307   1.488
 3872SOL    HW111936   4.082   1.384   1.425
 3872SOL    HW211937   4.008   1.248   1.476
 3873SOL     OW11938   5.339   1.290   1.284
 3873SOL    HW111939   5.398   1.266   1.360
 3873SOL    HW211940   5.271   1.357   1.314
 3874SOL     OW11941   4.799   1.110   0.729
 3874SOL    HW111942   4.717   1.063   0.762
 3874SOL    HW211943   4.862   1.043   0.688
 3875SOL     OW11944   4.753   0.242   0.967
 3875SOL    HW111945   4.753   0.200   0.876
 3875SOL    HW211946   4.748   0.171   1.037
 3876SOL     OW11947   4.333   1.489   0.480
 3876SOL    HW111948   4.385   1.435   0.414
 3876SOL    HW211949   4.247   1.519   0.439
 3877SOL     OW11950   5.470   0.390   1.388
 3877SOL    HW111951   5.543   0.459   1.384
 3877SOL    HW211952   5.491   0.317   1.323
 3878SOL     OW11953   4.040   1.325   0.335
 3878SOL    HW111954   3.989   1.320   0.249
 3878SOL    HW211955   3.990   1.380   0.401
 3879SOL     OW11956   3.845   1.052   1.743
 3879SOL    HW111957   3.761   1.020   1.788
 3879SOL    HW211958   3.922   0.997   1.774
 3880SOL     OW11959   4.411   0.185   1.499
 3880SOL    HW111960   4.497   0.160   1.456
 3880SOL    HW211961   4.428   0.223   1.590
 3881SOL     OW11962   3.779   0.332   0.051
 3881SOL    HW111963   3.707   0.312  -0.016
 3881SOL    HW211964   3.819   0.422   0.032
 3882SOL     OW11965   5.141   0.853   1.390
 3882SOL    HW111966   5.083   0.915   1.338
 3882SOL    HW211967   5.234   0.856   1.354
 3883SOL     OW11968   3.783   0.151   0.281
 3883SOL    HW111969   3.761   0.228   0.222
 3883SOL    HW211970   3.874   0.116   0.258
 3884SOL     OW11971   4.899   1.337   0.120
 3884SOL    HW111972   4.800   1.323   0.108
 3884SOL    HW211973   4.922   1.332   0.217
 3885SOL     OW11974   4.352   0.828   1.437
 3885SOL    HW111975   4.409   0.909   1.422
 3885SOL    HW211976   4.410   0.747   1.443
 3886SOL     OW11977   5.205   1.798   0.984
 3886SOL    HW111978   5.221   1.876   0.924
 3886SOL    HW211979   5.293   1.761   1.014
 3887SOL     OW11980   4.449   0.549   1.699
 3887SOL    HW111981   4.495   0.614   1.759
 3887SOL    HW211982   4.464   0.456   1.733
 3888SOL     OW11983   5.202   1.189   1.632
 3888SOL    HW111984   5.188   1.208   1.729
 3888SOL    HW211985   5.295   1.213   1.606
 3889SOL     OW11986   4.089   1.741   1.572
 3889SOL    HW111987   4.007   1.795   1.553
 3889SOL    HW211988   4.062   1.652   1.609
 3890SOL     OW11989   5.383   0.875   1.257
 3890SOL    HW111990   5.381   0.785   1.214
 3890SOL    HW211991   5.371   0.946   1.187
 3891SOL     OW11992   4.945   0.312   0.462
 3891SOL    HW111993   5.009   0.235   0.457
 3891SOL    HW211994   4.971   0.372   0.538
 3892SOL     OW11995   4.307   0.738   0.680
 3892SOL    HW111996   4.351   0.826   0.664
 3892SOL    HW211997   4.243   0.719   0.605
 3893SOL     OW11998   5.470   0.362   1.662
 3893SOL    HW111999   5.469   0.379   1.563
 3893SOL    HW212000   5.392   0.305   1.687
 3894SOL     OW12001   5.487   0.930   1.506
 3894SOL    HW112002   5.469   1.026   1.527
 3894SOL    HW212003   5.459   0.911   1.412
 3895SOL     OW12004   4.612   1.368   0.063
 3895SOL    HW112005   4.556   1.378   0.145
 3895SOL    HW212006   4.601   1.448   0.005
 3896SOL     OW12007   4.393   1.777   0.946
 3896SOL    HW112008   4.367   1.870   0.922
 3896SOL    HW212009   4.491   1.764   0.928
 3897SOL     OW12010   4.595   0.977   0.859
 3897SOL    HW112011   4.644   0.896   0.893
 3897SOL    HW212012   4.549   1.022   0.935
 3898SOL     OW12013   4.807   0.992   0.085
 3898SOL    HW112014   4.773   1.045   0.007
 3898SOL    HW212015   4.881   0.932   0.055
 3899SOL     OW12016   5.558   1.561   0.850
 3899SOL    HW112017   5.487   1.552   0.781
 3899SOL    HW212018   5.535   1.504   0.930
 3900SOL     OW12019   3.950   1.289   1.850
 3900SOL    HW112020   3.905   1.212   1.804
 3900SOL    HW212021   3.906   1.306   1.938
 3901SOL     OW12022   3.801   1.229   0.659
 3901SOL    HW112023   3.844   1.181   0.736
 3901SOL    HW212024   3.847   1.203   0.574
 3902SOL     OW12025   4.414   1.413   1.643
 3902SOL    HW112026   4.329   1.367   1.671
 3902SOL    HW212027   4.412   1.508   1.674
 3903SOL     OW12028   5.527   0.178   1.234
 3903SOL    HW112029   5.536   0.082   1.257
 3903SOL    HW212030   5.543   0.190   1.136
 3904SOL     OW12031   4.160   0.422   0.543
 3904SOL    HW112032   4.187   0.361   0.469
 3904SOL    HW212033   4.094   0.375   0.602
 3905SOL     OW12034   5.419   1.477   1.087
 3905SOL    HW112035   5.338   1.464   1.030
 3905SOL    HW212036   5.421   1.408   1.160
 3906SOL     OW12037   4.067   0.560   1.289
 3906SOL    HW112038   4.122   0.497   1.344
 3906SOL    HW212039   4.075   0.535   1.192
 3907SOL     OW12040   4.555   1.584   0.673
 3907SOL    HW112041   4.541   1.656   0.605
 3907SOL    HW212042   4.477   1.521   0.672
 3908SOL     OW12043   5.152   0.232   1.118
 3908SOL    HW112044   5.167   0.139   1.151
 3908SOL    HW212045   5.098   0.282   1.186
 3909SOL     OW12046   4.735   5.608   1.132
 3909SOL    HW112047   4.667   5.549   1.090
 3909SOL    HW212048   4.825   5.564   1.129
 3910SOL     OW12049   4.501   1.330   0.325
 3910SOL    HW112050   4.471   1.235   0.334
 3910SOL    HW212051   4.586   1.344   0.375
 3911SOL     OW12052   4.347   1.561   1.296
 3911SOL    HW112053   4.344   1.649   1.344
 3911SOL    HW212054   4.437   1.550   1.252
 3912SOL     OW12055   5.076   0.045   0.181
 3912SOL    HW112056   5.117  -0.018   0.116
 3912SOL    HW212057   4.981   0.018   0.198
 3913SOL     OW12058   5.017   0.467   0.678
 3913SOL    HW112059   4.965   0.552   0.675
 3913SOL    HW212060   5.015   0.429   0.770
 3914SOL     OW12061   5.313   0.199   0.892
 3914SOL    HW112062   5.256   0.222   0.971
 3914SOL    HW212063   5.315   0.277   0.829
 3915SOL     OW12064   3.760   1.058   0.327
 3915SOL    HW112065   3.844   1.068   0.273
 3915SOL    HW212066   3.742   0.961   0.343
 3916SOL     OW12067   4.607   1.668   0.337
 3916SOL    HW112068   4.532   1.647   0.274
 3916SOL    HW212069   4.579   1.744   0.396
 3917SOL     OW12070   3.935   0.614   1.997
 3917SOL    HW112071   3.843   0.611   2.034
 3917SOL    HW212072   3.933   0.598   1.898
 3918SOL     OW12073   3.946   0.281   2.858
 3918SOL    HW112074   3.978   0.247   2.946
 3918SOL    HW212075   3.854   0.246   2.840
 3919SOL     OW12076   3.719   0.386   2.496
 3919SOL    HW112077   3.639   0.418   2.546
 3919SOL    HW212078   3.695   0.306   2.442
 3920SOL     OW12079   4.303   1.304   3.064
 3920SOL    HW112080   4.214   1.293   3.020
 3920SOL    HW212081   4.314   1.399   3.093
 3921SOL     OW12082   5.292   1.519   2.572
 3921SOL    HW112083   5.248   1.487   2.656
 3921SOL    HW212084   5.224   1.522   2.498
 3922SOL     OW12085   4.863   0.706   2.552
 3922SOL    HW112086   4.913   0.792   2.537
 3922SOL    HW212087   4.810   0.713   2.636
 3923SOL     OW12088   5.493   0.596   2.088
 3923SOL    HW112089   5.468   0.596   1.991
 3923SOL    HW212090   5.458   0.513   2.131
 3924SOL     OW12091   4.481   1.147   2.920
 3924SOL    HW112092   4.410   1.178   2.983
 3924SOL    HW212093   4.515   1.224   2.866
 3925SOL     OW12094   4.642   0.781   3.709
 3925SOL    HW112095   4.571   0.823   3.766
 3925SOL    HW212096   4.633   0.815   3.615
 3926SOL     OW12097   4.408   0.995   2.511
 3926SOL    HW112098   4.478   0.990   2.582
 3926SOL    HW212099   4.334   1.054   2.542
 3927SOL     OW12100   4.438   1.160   3.686
 3927SOL    HW112101   4.482   1.241   3.726
 3927SOL    HW212102   4.352   1.187   3.642
 3928SOL     OW12103   4.057   1.412   2.928
 3928SOL    HW112104   3.978   1.367   2.887
 3928SOL    HW212105   4.102   1.468   2.858
 3929SOL     OW12106   5.151   1.515   3.278
 3929SOL    HW112107   5.191   1.597   3.238
 3929SOL    HW212108   5.201   1.490   3.361
 3930SOL     OW12109   4.178   0.381   3.328
 3930SOL    HW112110   4.257   0.321   3.339
 3930SOL    HW212111   4.095   0.332   3.354
 3931SOL     OW12112   5.333   0.442   2.609
 3931SOL    HW112113   5.267   0.455   2.535
 3931SOL    HW212114   5.326   0.517   2.674
 3932SOL     OW12115   3.948   1.716   2.330
 3932SOL    HW112116   3.967   1.793   2.391
 3932SOL    HW212117   4.021   1.706   2.263
 3933SOL     OW12118   4.886   1.320   3.561
 3933SOL    HW112119   4.912   1.329   3.657
 3933SOL    HW212120   4.817   1.249   3.551
 3934SOL     OW12121   3.963   1.449   2.405
 3934SOL    HW112122   3.943   1.547   2.400
 3934SOL    HW212123   3.901   1.405   2.469
 3935SOL     OW12124   4.015   1.088   2.772
 3935SOL    HW112125   4.000   0.993   2.798
 3935SOL    HW212126   3.947   1.146   2.818
 3936SOL     OW12127   4.333   1.782   3.319
 3936SOL    HW112128   4.241   1.766   3.353
 3936SOL    HW212129   4.357   1.879   3.331
 3937SOL     OW12130   4.302   0.990   2.010
 3937SOL    HW112131   4.349   1.036   1.935
 3937SOL    HW212132   4.343   1.017   2.097
 3938SOL     OW12133   5.329   0.119   3.332
 3938SOL    HW112134   5.344   0.200   3.274
 3938SOL    HW212135   5.300   0.149   3.423
 3939SOL     OW12136   3.842   0.662   2.428
 3939SOL    HW112137   3.810   0.569   2.445
 3939SOL    HW212138   3.834   0.716   2.512
 3940SOL     OW12139  -0.018   1.757   2.193
 3940SOL    HW112140   0.061   1.730   2.249
 3940SOL    HW212141  -0.005   1.850   2.159
 3941SOL     OW12142   3.759   1.585   1.983
 3941SOL    HW112143   3.741   1.488   2.001
 3941SOL    HW212144   3.736   1.639   2.064
 3942SOL     OW12145   5.426   0.925   2.512
 3942SOL    HW112146   5.500   0.864   2.482
 3942SOL    HW212147   5.395   0.980   2.435
 3943SOL     OW12148   5.381   1.102   2.297
 3943SOL    HW112149   5.470   1.096   2.252
 3943SOL    HW212150   5.385   1.173   2.368
 3944SOL     OW12151   3.844   0.747   3.442
 3944SOL    HW112152   3.937   0.783   3.447
 3944SOL    HW212153   3.779   0.823   3.438
 3945SOL     OW12154   4.338   1.394   2.595
 3945SOL    HW112155   4.292   1.305   2.606
 3945SOL    HW212156   4.324   1.427   2.502
 3946SOL     OW12157   5.021   1.237   3.284
 3946SOL    HW112158   5.035   1.164   3.218
 3946SOL    HW212159   5.076   1.218   3.366
 3947SOL     OW12160   4.547   0.017   2.371
 3947SOL    HW112161   4.592   0.102   2.345
 3947SOL    HW212162   4.448   0.030   2.375
 3948SOL     OW12163   3.915   0.957   3.149
 3948SOL    HW112164   4.003   0.914   3.131
 3948SOL    HW212165   3.845   0.915   3.091
 3949SOL     OW12166   5.258   1.006   2.068
 3949SOL    HW112167   5.184   0.944   2.095
 3949SOL    HW212168   5.305   1.040   2.149
 3950SOL     OW12169   4.920   1.787   3.426
 3950SOL    HW112170   4.929   1.882   3.394
 3950SOL    HW212171   4.824   1.765   3.438
 3951SOL     OW12172   4.077   0.251   3.715
 3951SOL    HW112173   4.121   0.336   3.743
 3951SOL    HW212174   3.977   0.260   3.721
 3952SOL     OW12175   5.188   1.419   2.807
 3952SOL    HW112176   5.123   1.435   2.882
 3952SOL    HW212177   5.179   1.324   2.776
 3953SOL     OW12178   5.374   1.747   2.437
 3953SOL    HW112179   5.353   1.722   2.342
 3953SOL    HW212180   5.348   1.672   2.497
 3954SOL     OW12181   4.316   0.717   2.140
 3954SOL    HW112182   4.317   0.803   2.090
 3954SOL    HW212183   4.246   0.721   2.211
 3955SOL     OW12184   5.003   0.375   2.798
 3955SOL    HW112185   4.910   0.339   2.801
 3955SOL    HW212186   5.063   0.320   2.857
 3956SOL     OW12187   5.310   1.680   2.173
 3956SOL    HW112188   5.407   1.701   2.164
 3956SOL    HW212189   5.271   1.663   2.082
 3957SOL     OW12190   4.523   0.609   3.309
 3957SOL    HW112191   4.501   0.581   3.403
 3957SOL    HW212192   4.489   0.539   3.245
 3958SOL     OW12193   5.117   0.475   3.547
 3958SOL    HW112194   5.122   0.522   3.635
 3958SOL    HW212195   5.168   0.389   3.553
 3959SOL     OW12196   4.675   0.888   3.450
 3959SOL    HW112197   4.728   0.813   3.410
 3959SOL    HW212198   4.620   0.931   3.379
 3960SOL     OW12199   4.723   0.397   3.077
 3960SOL    HW112200   4.630   0.413   3.107
 3960SOL    HW212201   4.722   0.348   2.990
 3961SOL     OW12202   4.778   0.698   2.284
 3961SOL    HW112203   4.800   0.693   2.382
 3961SOL    HW212204   4.690   0.653   2.268
 3962SOL     OW12205   3.813   0.829   2.643
 3962SOL    HW112206   3.897   0.816   2.695
 3962SOL    HW212207   3.761   0.906   2.682
 3963SOL     OW12208   3.854   1.880   3.455
 3963SOL    HW112209   3.861   1.853   3.550
 3963SOL    HW212210   3.764   1.854   3.419
 3964SOL     OW12211   4.618   0.354   2.062
 3964SOL    HW112212   4.664   0.419   2.001
 3964SOL    HW212213   4.601   0.268   2.013
 3965SOL     OW12214   5.412   0.571   3.688
 3965SOL    HW112215   5.387   0.652   3.634
 3965SOL    HW212216   5.441   0.498   3.626
 3966SOL     OW12217   5.109   1.147   2.394
 3966SOL    HW112218   5.189   1.128   2.338
 3966SOL    HW212219   5.049   1.212   2.347
 3967SOL     OW12220   4.273   0.159   2.771
 3967SOL    HW112221   4.276   0.194   2.865
 3967SOL    HW212222   4.271   0.236   2.707
 3968SOL     OW12223   4.717   1.452   2.325
 3968SOL    HW112224   4.687   1.529   2.268
 3968SOL    HW212225   4.685   1.466   2.419
 3969SOL     OW12226   4.078   1.816   2.738
 3969SOL    HW112227   4.124   1.727   2.745
 3969SOL    HW212228   4.144   1.889   2.758
 3970SOL     OW12229   5.532   1.060   2.733
 3970SOL    HW112230   5.485   1.029   2.651
 3970SOL    HW212231   5.467   1.063   2.809
 3971SOL     OW12232   4.041   0.961   2.122
 3971SOL    HW112233   4.128   0.983   2.078
 3971SOL    HW212234   4.003   0.877   2.081
 3972SOL     OW12235   5.212   0.761   2.583
 3972SOL    HW112236   5.208   0.714   2.670
 3972SOL    HW212237   5.295   0.816   2.578
 3973SOL     OW12238   4.203   1.268   3.584
 3973SOL    HW112239   4.174   1.276   3.488
 3973SOL    HW212240   4.122   1.261   3.642
 3974SOL     OW12241   4.851   1.763   2.097
 3974SOL    HW112242   4.763   1.734   2.134
 3974SOL    HW212243   4.878   1.703   2.022
 3975SOL     OW12244   3.926   0.270   3.367
 3975SOL    HW112245   3.842   0.325   3.366
 3975SOL    HW212246   3.906   0.180   3.408
 3976SOL     OW12247   5.353   1.385   1.964
 3976SOL    HW112248   5.317   1.476   1.942
 3976SOL    HW212249   5.285   1.316   1.939
 3977SOL     OW12250   4.187   1.735   2.178
 3977SOL    HW112251   4.231   1.797   2.243
 3977SOL    HW212252   4.256   1.697   2.116
 3978SOL     OW12253   5.122   0.099   2.306
 3978SOL    HW112254   5.109   0.074   2.211
 3978SOL    HW212255   5.220   0.104   2.327
 3979SOL     OW12256   3.983   1.791   3.079
 3979SOL    HW112257   4.026   1.710   3.117
 3979SOL    HW212258   3.951   1.773   2.986
 3980SOL     OW12259   4.665   1.702   2.751
 3980SOL    HW112260   4.751   1.657   2.776
 3980SOL    HW212261   4.620   1.651   2.678
 3981SOL     OW12262   4.123   0.682   2.340
 3981SOL    HW112263   4.140   0.585   2.353
 3981SOL    HW212264   4.025   0.701   2.353
 3982SOL     OW12265   5.238   0.220   3.588
 3982SOL    HW112266   5.248   0.242   3.684
 3982SOL    HW212267   5.168   0.149   3.577
 3983SOL     OW12268   4.374   0.110   1.961
 3983SOL    HW112269   4.436   0.036   1.987
 3983SOL    HW212270   4.313   0.080   1.889
 3984SOL     OW12271   4.487   0.271   3.618
 3984SOL    HW112272   4.573   0.222   3.610
 3984SOL    HW212273   4.433   0.231   3.693
 3985SOL     OW12274   4.603   1.519   3.058
 3985SOL    HW112275   4.581   1.484   2.967
 3985SOL    HW212276   4.674   1.463   3.100
 3986SOL     OW12277   5.059   0.586   3.301
 3986SOL    HW112278   5.090   0.551   3.389
 3986SOL    HW212279   5.093   0.679   3.288
 3987SOL     OW12280   4.550   1.386   2.805
 3987SOL    HW112281   4.640   1.378   2.761
 3987SOL    HW212282   4.480   1.398   2.734
 3988SOL     OW12283   4.651   0.510   2.751
 3988SOL    HW112284   4.625   0.501   2.655
 3988SOL    HW212285   4.679   0.421   2.787
 3989SOL     OW12286   4.276   0.063   2.350
 3989SOL    HW112287   4.194   0.060   2.408
 3989SOL    HW212288   4.269   0.142   2.289
 3990SOL     OW12289   5.153   1.205   1.905
 3990SOL    HW112290   5.184   1.126   1.958
 3990SOL    HW212291   5.062   1.232   1.935
 3991SOL     OW12292   4.009   0.045   2.048
 3991SOL    HW112293   4.057   0.116   1.996
 3991SOL    HW212294   4.076  -0.016   2.089
 3992SOL     OW12295   4.676   0.255   2.314
 3992SOL    HW112296   4.646   0.293   2.227
 3992SOL    HW212297   4.775   0.268   2.324
 3993SOL     OW12298   4.797   0.687   3.315
 3993SOL    HW112299   4.716   0.627   3.317
 3993SOL    HW212300   4.879   0.630   3.309
 3994SOL     OW12301   4.938   1.579   2.660
 3994SOL    HW112302   4.948   1.647   2.588
 3994SOL    HW212303   5.015   1.587   2.724
 3995SOL     OW12304   4.197   1.154   2.584
 3995SOL    HW112305   4.134   1.132   2.658
 3995SOL    HW212306   4.150   1.147   2.497
 3996SOL     OW12307   4.981   1.794   2.482
 3996SOL    HW112308   5.028   1.854   2.417
 3996SOL    HW212309   4.901   1.841   2.519
 3997SOL     OW12310   4.748   0.530   1.896
 3997SOL    HW112311   4.703   0.615   1.869
 3997SOL    HW212312   4.817   0.549   1.965
 3998SOL     OW12313   3.816   0.557   3.250
 3998SOL    HW112314   3.912   0.553   3.220
 3998SOL    HW212315   3.807   0.627   3.320
 3999SOL     OW12316   4.283   0.225   3.041
 3999SOL    HW112317   4.331   0.150   3.087
 3999SOL    HW212318   4.186   0.224   3.067
 4000SOL     OW12319   4.592   0.460   2.492
 4000SOL    HW112320   4.544   0.521   2.429
 4000SOL    HW212321   4.621   0.378   2.443
 4001SOL     OW12322   4.740   0.052   2.602
 4001SOL    HW112323   4.679   0.053   2.522
 4001SOL    HW212324   4.715  -0.024   2.662
 4002SOL     OW12325   5.173   1.159   2.716
 4002SOL    HW112326   5.095   1.096   2.714
 4002SOL    HW212327   5.209   1.171   2.623
 4003SOL     OW12328   5.194   0.615   2.824
 4003SOL    HW112329   5.127   0.540   2.821
 4003SOL    HW212330   5.252   0.604   2.904
 4004SOL     OW12331   5.566   0.804   2.248
 4004SOL    HW112332   5.628   0.756   2.309
 4004SOL    HW212333   5.534   0.742   2.176
 4005SOL     OW12334   4.209   1.421   2.014
 4005SOL    HW112335   4.130   1.394   2.067
 4005SOL    HW212336   4.209   1.373   1.926
 4006SOL     OW12337   5.406   1.272   2.504
 4006SOL    HW112338   5.506   1.271   2.512
 4006SOL    HW212339   5.372   1.365   2.521
 4007SOL     OW12340   5.113   0.575   1.931
 4007SOL    HW112341   5.052   0.550   2.005
 4007SOL    HW212342   5.207   0.549   1.954
 4008SOL     OW12343   4.254   0.262   2.165
 4008SOL    HW112344   4.302   0.211   2.094
 4008SOL    HW212345   4.222   0.349   2.127
 4009SOL     OW12346   5.478   1.243   3.413
 4009SOL    HW112347   5.567   1.198   3.405
 4009SOL    HW212348   5.490   1.336   3.447
 4010SOL     OW12349   4.776   1.369   3.244
 4010SOL    HW112350   4.685   1.332   3.261
 4010SOL    HW212351   4.844   1.296   3.248
 4011SOL     OW12352   5.320   1.599   3.498
 4011SOL    HW112353   5.317   1.660   3.419
 4011SOL    HW212354   5.412   1.561   3.509
 4012SOL     OW12355   4.852   1.235   2.967
 4012SOL    HW112356   4.763   1.204   3.001
 4012SOL    HW212357   4.842   1.268   2.873
 4013SOL     OW12358   5.347   1.093   2.937
 4013SOL    HW112359   5.341   1.160   3.011
 4013SOL    HW212360   5.275   1.109   2.871
 4014SOL     OW12361   4.649   0.084   3.251
 4014SOL    HW112362   4.670   0.063   3.155
 4014SOL    HW212363   4.728   0.129   3.292
 4015SOL     OW12364   4.697   1.122   3.583
 4015SOL    HW112365   4.603   1.142   3.613
 4015SOL    HW212366   4.698   1.038   3.529
 4016SOL     OW12367   4.440   1.059   2.238
 4016SOL    HW112368   4.422   1.037   2.334
 4016SOL    HW212369   4.520   1.007   2.207
 4017SOL     OW12370   4.150   0.815   3.117
 4017SOL    HW112371   4.221   0.829   3.186
 4017SOL    HW212372   4.111   0.724   3.127
 4018SOL     OW12373   4.985   0.371   3.147
 4018SOL    HW112374   5.019   0.452   3.195
 4018SOL    HW212375   4.891   0.386   3.118
 4019SOL     OW12376   3.799   1.570   3.219
 4019SOL    HW112377   3.759   1.638   3.158
 4019SOL    HW212378   3.899   1.572   3.210
 4020SOL     OW12379   4.056   1.130   2.348
 4020SOL    HW112380   4.053   1.212   2.290
 4020SOL    HW212381   4.056   1.048   2.290
 4021SOL     OW12382   4.267   0.546   2.731
 4021SOL    HW112383   4.280   0.604   2.650
 4021SOL    HW212384   4.340   0.563   2.797
 4022SOL     OW12385   4.967   1.355   2.261
 4022SOL    HW112386   5.029   1.428   2.289
 4022SOL    HW212387   4.873   1.379   2.287
 4023SOL     OW12388   5.019   1.453   3.022
 4023SOL    HW112389   5.057   1.454   3.115
 4023SOL    HW212390   4.955   1.378   3.013
 4024SOL     OW12391   5.297   0.612   2.352
 4024SOL    HW112392   5.245   0.663   2.421
 4024SOL    HW212393   5.334   0.675   2.284
 4025SOL     OW12394   4.071   1.536   3.163
 4025SOL    HW112395   4.057   1.485   3.079
 4025SOL    HW212396   4.169   1.550   3.177
 4026SOL     OW12397   4.140   0.750   3.465
 4026SOL    HW112398   4.212   0.787   3.405
 4026SOL    HW212399   4.156   0.653   3.480
 4027SOL     OW12400   5.339   0.795   3.552
 4027SOL    HW112401   5.248   0.834   3.536
 4027SOL    HW212402   5.401   0.826   3.480
 4028SOL     OW12403   4.723   0.139   3.609
 4028SOL    HW112404   4.782   0.219   3.596
 4028SOL    HW212405   4.774   0.056   3.587
 4029SOL     OW12406   4.215   0.032   3.617
 4029SOL    HW112407   4.165  -0.025   3.551
 4029SOL    HW212408   4.159   0.112   3.639
 4030SOL     OW12409   4.314   0.867   2.901
 4030SOL    HW112410   4.332   0.964   2.889
 4030SOL    HW212411   4.248   0.854   2.975
 4031SOL     OW12412   5.059   0.855   2.890
 4031SOL    HW112413   4.969   0.843   2.848
 4031SOL    HW212414   5.115   0.774   2.873
 4032SOL     OW12415   4.922   0.525   2.125
 4032SOL    HW112416   4.934   0.441   2.179
 4032SOL    HW212417   4.877   0.594   2.180
 4033SOL     OW12418   4.020   0.192   3.109
 4033SOL    HW112419   3.981   0.227   3.195
 4033SOL    HW212420   4.006   0.094   3.104
 4034SOL     OW12421   3.789   1.309   3.133
 4034SOL    HW112422   3.814   1.247   3.207
 4034SOL    HW212423   3.782   1.402   3.169
 4035SOL     OW12424   4.456   0.632   2.917
 4035SOL    HW112425   4.525   0.613   2.848
 4035SOL    HW212426   4.414   0.721   2.899
 4036SOL     OW12427   5.480   0.971   3.711
 4036SOL    HW112428   5.430   0.900   3.662
 4036SOL    HW212429   5.441   0.982   3.802
 4037SOL     OW12430   4.038   0.056   2.491
 4037SOL    HW112431   4.008   0.150   2.508
 4037SOL    HW212432   4.048   0.008   2.578
 4038SOL     OW12433   5.357   0.380   2.219
 4038SOL    HW112434   5.385   0.304   2.278
 4038SOL    HW212435   5.326   0.456   2.276
 4039SOL     OW12436   4.750   0.756   2.817
 4039SOL    HW112437   4.738   0.775   2.914
 4039SOL    HW212438   4.722   0.662   2.798
 4040SOL     OW12439   4.741   1.572   3.544
 4040SOL    HW112440   4.687   1.614   3.471
 4040SOL    HW212441   4.691   1.494   3.582
 4041SOL     OW12442  -0.018   1.501   3.464
 4041SOL    HW112443   0.008   1.529   3.372
 4041SOL    HW212444   0.060   1.511   3.525
 4042SOL     OW12445   4.079   0.926   3.664
 4042SOL    HW112446   4.155   0.936   3.729
 4042SOL    HW212447   4.103   0.859   3.595
 4043SOL     OW12448   5.245   0.266   1.991
 4043SOL    HW112449   5.180   0.196   2.019
 4043SOL    HW212450   5.286   0.308   2.071
 4044SOL     OW12451   5.015   0.827   1.886
 4044SOL    HW112452   5.052   0.734   1.894
 4044SOL    HW212453   5.045   0.868   1.800
 4045SOL     OW12454   4.806   1.343   2.721
 4045SOL    HW112455   4.807   1.265   2.658
 4045SOL    HW212456   4.855   1.420   2.680
 4046SOL     OW12457   4.035   0.803   2.803
 4046SOL    HW112458   4.131   0.822   2.787
 4046SOL    HW212459   4.024   0.709   2.836
 4047SOL     OW12460   4.043   0.528   2.874
 4047SOL    HW112461   4.005   0.436   2.864
 4047SOL    HW212462   4.125   0.536   2.817
 4048SOL     OW12463   4.861   0.374   3.555
 4048SOL    HW112464   4.808   0.428   3.621
 4048SOL    HW212465   4.952   0.412   3.546
 4049SOL     OW12466   4.885   0.198   3.339
 4049SOL    HW112467   4.868   0.261   3.415
 4049SOL    HW212468   4.927   0.248   3.263
 4050SOL     OW12469   3.732   1.309   2.054
 4050SOL    HW112470   3.641   1.331   2.018
 4050SOL    HW212471   3.731   1.216   2.091
 4051SOL     OW12472   3.820   1.775   2.815
 4051SOL    HW112473   3.780   1.698   2.765
 4051SOL    HW212474   3.910   1.796   2.778
 4052SOL     OW12475   4.215   1.576   2.766
 4052SOL    HW112476   4.286   1.642   2.792
 4052SOL    HW212477   4.253   1.510   2.701
 4053SOL     OW12478   4.687   0.791   3.081
 4053SOL    HW112479   4.742   0.767   3.161
 4053SOL    HW212480   4.601   0.740   3.083
 4054SOL     OW12481   3.762   0.562   2.979
 4054SOL    HW112482   3.845   0.550   2.924
 4054SOL    HW212483   3.786   0.560   3.076
 4055SOL     OW12484   3.911   0.527   3.593
 4055SOL    HW112485   3.950   0.463   3.526
 4055SOL    HW212486   3.874   0.607   3.546
 4056SOL     OW12487   5.100   0.928   3.541
 4056SOL    HW112488   5.121   1.026   3.537
 4056SOL    HW212489   5.080   0.894   3.449
 4057SOL     OW12490   4.542   0.576   2.226
 4057SOL    HW112491   4.551   0.495   2.167
 4057SOL    HW212492   4.462   0.629   2.197
 4058SOL     OW12493   5.367   0.603   3.040
 4058SOL    HW112494   5.351   0.538   3.114
 4058SOL    HW212495   5.460   0.590   3.004
 4059SOL     OW12496   3.968   1.543   3.587
 4059SOL    HW112497   3.941   1.617   3.648
 4059SOL    HW212498   3.970   1.457   3.638
 4060SOL     OW12499   4.449   0.441   3.109
 4060SOL    HW112500   4.384   0.367   3.091
 4060SOL    HW212501   4.440   0.511   3.038
 4061SOL     OW12502   4.660   1.683   3.309
 4061SOL    HW112503   4.632   1.631   3.228
 4061SOL    HW212504   4.645   1.780   3.293
 4062SOL     OW12505   4.177   0.494   2.045
 4062SOL    HW112506   4.242   0.566   2.070
 4062SOL    HW212507   4.086   0.534   2.035
 4063SOL     OW12508   3.866   1.140   3.341
 4063SOL    HW112509   3.865   1.101   3.433
 4063SOL    HW212510   3.885   1.069   3.274
 4064SOL     OW12511   5.029   1.049   3.080
 4064SOL    HW112512   5.052   0.977   3.014
 4064SOL    HW212513   4.968   1.115   3.037
 4065SOL     OW12514   5.044   0.856   2.158
 4065SOL    HW112515   4.967   0.826   2.214
 4065SOL    HW212516   5.022   0.845   2.061
 4066SOL     OW12517   5.507   1.731   3.019
 4066SOL    HW112518   5.567   1.763   2.945
 4066SOL    HW212519   5.474   1.639   2.998
 4067SOL     OW12520   4.962   1.724   2.974
 4067SOL    HW112521   5.048   1.755   2.933
 4067SOL    HW212522   4.969   1.626   2.995
 4068SOL     OW12523   3.822   1.256   2.871
 4068SOL    HW112524   3.804   1.275   2.968
 4068SOL    HW212525   3.746   1.203   2.833
 4069SOL     OW12526   4.394   1.687   3.585
 4069SOL    HW112527   4.327   1.755   3.615
 4069SOL    HW212528   4.419   1.705   3.490
 4070SOL     OW12529   5.454   0.156   2.356
 4070SOL    HW112530   5.525   0.143   2.286
 4070SOL    HW212531   5.433   0.068   2.398
 4071SOL     OW12532   5.124   1.572   2.356
 4071SOL    HW112533   5.180   1.603   2.279
 4071SOL    HW212534   5.060   1.645   2.382
 4072SOL     OW12535   3.879   1.782   3.707
 4072SOL    HW112536   3.820   1.715   3.751
 4072SOL    HW212537   3.924   1.838   3.776
 4073SOL     OW12538   5.010   0.936   2.531
 4073SOL    HW112539   5.084   0.871   2.546
 4073SOL    HW212540   5.042   1.010   2.473
 4074SOL     OW12541   4.512   1.285   3.274
 4074SOL    HW112542   4.485   1.330   3.359
 4074SOL    HW212543   4.439   1.292   3.207
 4075SOL     OW12544   4.391   1.623   2.016
 4075SOL    HW112545   4.408   1.644   1.920
 4075SOL    HW212546   4.332   1.543   2.023
 4076SOL     OW12547   5.329   1.731   3.245
 4076SOL    HW112548   5.391   1.730   3.166
 4076SOL    HW212549   5.320   1.825   3.278
 4077SOL     OW12550   5.575   0.161   2.829
 4077SOL    HW112551   5.607   0.068   2.807
 4077SOL    HW212552   5.484   0.175   2.790
 4078SOL     OW12553   3.973   0.308   2.575
 4078SOL    HW112554   3.885   0.344   2.546
 4078SOL    HW212555   3.977   0.303   2.675
 4079SOL     OW12556   4.936   1.598   1.897
 4079SOL    HW112557   4.924   1.503   1.926
 4079SOL    HW212558   4.871   1.618   1.823
 4080SOL     OW12559   4.545   1.013   3.248
 4080SOL    HW112560   4.576   0.992   3.155
 4080SOL    HW212561   4.532   1.112   3.257
 4081SOL     OW12562   4.651   0.916   2.156
 4081SOL    HW112563   4.709   0.949   2.081
 4081SOL    HW212564   4.698   0.840   2.202
 4082SOL     OW12565   5.215   1.632   1.910
 4082SOL    HW112566   5.117   1.619   1.897
 4082SOL    HW212567   5.260   1.638   1.821
 4083SOL     OW12568   4.093   1.305   3.341
 4083SOL    HW112569   4.076   1.387   3.286
 4083SOL    HW212570   4.013   1.245   3.338
 4084SOL     OW12571   5.334   1.286   3.147
 4084SOL    HW112572   5.399   1.266   3.220
 4084SOL    HW212573   5.252   1.329   3.185
 4085SOL     OW12574   4.796   1.109   2.590
 4085SOL    HW112575   4.714   1.061   2.623
 4085SOL    HW212576   4.861   1.044   2.554
 4086SOL     OW12577   4.752   0.240   2.828
 4086SOL    HW112578   4.746   0.200   2.737
 4086SOL    HW212579   4.747   0.167   2.897
 4087SOL     OW12580   4.331   1.490   2.343
 4087SOL    HW112581   4.383   1.434   2.279
 4087SOL    HW212582   4.252   1.530   2.297
 4088SOL     OW12583   5.468   0.394   3.246
 4088SOL    HW112584   5.542   0.461   3.244
 4088SOL    HW212585   5.490   0.318   3.184
 4089SOL     OW12586   3.983   1.346   2.162
 4089SOL    HW112587   3.890   1.338   2.128
 4089SOL    HW212588   3.983   1.391   2.251
 4090SOL     OW12589   3.842   1.049   3.597
 4090SOL    HW112590   3.759   1.020   3.645
 4090SOL    HW212591   3.920   0.999   3.633
 4091SOL     OW12592   4.409   0.187   3.360
 4091SOL    HW112593   4.496   0.160   3.317
 4091SOL    HW212594   4.427   0.220   3.452
 4092SOL     OW12595   3.806   0.323   1.881
 4092SOL    HW112596   3.719   0.299   1.837
 4092SOL    HW212597   3.840   0.409   1.842
 4093SOL     OW12598   5.138   0.859   3.267
 4093SOL    HW112599   5.078   0.917   3.212
 4093SOL    HW212600   5.229   0.858   3.228
 4094SOL     OW12601   3.779   0.150   2.153
 4094SOL    HW112602   3.761   0.231   2.097
 4094SOL    HW212603   3.868   0.112   2.128
 4095SOL     OW12604   4.900   1.334   1.982
 4095SOL    HW112605   4.803   1.315   1.970
 4095SOL    HW212606   4.924   1.332   2.079
 4096SOL     OW12607   4.351   0.824   3.300
 4096SOL    HW112608   4.408   0.906   3.289
 4096SOL    HW212609   4.411   0.743   3.305
 4097SOL     OW12610   5.202   1.787   2.860
 4097SOL    HW112611   5.207   1.830   2.770
 4097SOL    HW212612   5.292   1.751   2.885
 4098SOL     OW12613   4.469   0.542   3.563
 4098SOL    HW112614   4.483   0.595   3.646
 4098SOL    HW212615   4.469   0.445   3.585
 4099SOL     OW12616   5.201   1.191   3.500
 4099SOL    HW112617   5.182   1.209   3.597
 4099SOL    HW212618   5.298   1.207   3.482
 4100SOL     OW12619   4.089   1.738   3.432
 4100SOL    HW112620   4.008   1.794   3.415
 4100SOL    HW212621   4.061   1.652   3.475
 4101SOL     OW12622   5.377   0.874   3.121
 4101SOL    HW112623   5.376   0.782   3.081
 4101SOL    HW212624   5.368   0.942   3.048
 4102SOL     OW12625   4.947   0.317   2.322
 4102SOL    HW112626   5.008   0.238   2.315
 4102SOL    HW212627   4.975   0.374   2.400
 4103SOL     OW12628   4.306   0.737   2.537
 4103SOL    HW112629   4.349   0.826   2.522
 4103SOL    HW212630   4.240   0.719   2.464
 4104SOL     OW12631   5.465   0.363   3.519
 4104SOL    HW112632   5.463   0.378   3.420
 4104SOL    HW212633   5.389   0.302   3.544
 4105SOL     OW12634   5.486   0.926   3.367
 4105SOL    HW112635   5.471   1.023   3.387
 4105SOL    HW212636   5.457   0.907   3.273
 4106SOL     OW12637   4.606   1.365   1.919
 4106SOL    HW112638   4.553   1.390   2.000
 4106SOL    HW212639   4.612   1.443   1.857
 4107SOL     OW12640   4.394   1.777   2.804
 4107SOL    HW112641   4.365   1.871   2.786
 4107SOL    HW212642   4.492   1.768   2.787
 4108SOL     OW12643   4.593   0.976   2.722
 4108SOL    HW112644   4.641   0.895   2.754
 4108SOL    HW212645   4.551   1.023   2.800
 4109SOL     OW12646   4.803   0.988   1.947
 4109SOL    HW112647   4.772   1.043   1.868
 4109SOL    HW212648   4.880   0.930   1.919
 4110SOL     OW12649   5.556   1.595   2.719
 4110SOL    HW112650   5.491   1.567   2.648
 4110SOL    HW212651   5.566   1.520   2.785
 4111SOL     OW12652   3.967   1.293   3.717
 4111SOL    HW112653   3.905   1.224   3.679
 4111SOL    HW212654   3.942   1.310   3.813
 4112SOL     OW12655   3.816   1.229   2.524
 4112SOL    HW112656   3.817   1.181   2.612
 4112SOL    HW212657   3.884   1.188   2.463
 4113SOL     OW12658   4.421   1.419   3.502
 4113SOL    HW112659   4.341   1.364   3.527
 4113SOL    HW212660   4.406   1.514   3.530
 4114SOL     OW12661   5.531   0.180   3.097
 4114SOL    HW112662   5.520   0.083   3.121
 4114SOL    HW212663   5.548   0.188   2.999
 4115SOL     OW12664   4.156   0.421   2.390
 4115SOL    HW112665   4.187   0.354   2.324
 4115SOL    HW212666   4.097   0.377   2.458
 4116SOL     OW12667   5.411   1.485   2.959
 4116SOL    HW112668   5.335   1.467   2.896
 4116SOL    HW212669   5.415   1.413   3.028
 4117SOL     OW12670   4.067   0.557   3.150
 4117SOL    HW112671   4.120   0.494   3.206
 4117SOL    HW212672   4.074   0.531   3.054
 4118SOL     OW12673   4.556   1.581   2.535
 4118SOL    HW112674   4.539   1.652   2.466
 4118SOL    HW212675   4.478   1.519   2.539
 4119SOL     OW12676   5.149   0.229   2.975
 4119SOL    HW112677   5.151   0.131   2.995
 4119SOL    HW212678   5.097   0.276   3.046
 4120SOL     OW12679   4.735   5.607   2.992
 4120SOL    HW112680   4.669   5.547   2.947
 4120SOL    HW212681   4.824   5.562   2.994
 4121SOL     OW12682   4.497   1.331   2.191
 4121SOL    HW112683   4.471   1.235   2.198
 4121SOL    HW212684   4.584   1.345   2.236
 4122SOL     OW12685   4.349   1.562   3.158
 4122SOL    HW112686   4.347   1.644   3.215
 4122SOL    HW212687   4.439   1.553   3.114
 4123SOL     OW12688   5.083   0.042   2.041
 4123SOL    HW112689   5.130  -0.025   1.984
 4123SOL    HW212690   4.989   0.011   2.058
 4124SOL     OW12691   5.018   0.469   2.540
 4124SOL    HW112692   4.964   0.554   2.538
 4124SOL    HW212693   5.014   0.430   2.632
 4125SOL     OW12694   5.319   0.203   2.754
 4125SOL    HW112695   5.258   0.223   2.832
 4125SOL    HW212696   5.318   0.281   2.691
 4126SOL     OW12697   3.767   1.057   2.173
 4126SOL    HW112698   3.864   1.055   2.153
 4126SOL    HW212699   3.735   0.964   2.193
 4127SOL     OW12700   4.606   1.670   2.197
 4127SOL    HW112701   4.530   1.649   2.136
 4127SOL    HW212702   4.581   1.747   2.256
 4128SOL     OW12703   3.935   0.611   3.857
 4128SOL    HW112704   3.845   0.609   3.901
 4128SOL    HW212705   3.926   0.594   3.759
 4129SOL     OW12706   3.947   0.278   4.714
 4129SOL    HW112707   3.978   0.248   4.804
 4129SOL    HW212708   3.854   0.247   4.698
 4130SOL     OW12709   3.714   0.387   4.358
 4130SOL    HW112710   3.635   0.423   4.407
 4130SOL    HW212711   3.688   0.304   4.309
 4131SOL     OW12712   4.302   1.310   4.902
 4131SOL    HW112713   4.209   1.307   4.867
 4131SOL    HW212714   4.319   1.400   4.944
 4132SOL     OW12715   5.294   1.515   4.433
 4132SOL    HW112716   5.254   1.488   4.521
 4132SOL    HW212717   5.221   1.521   4.364
 4133SOL     OW12718   4.852   0.703   4.414
 4133SOL    HW112719   4.905   0.785   4.393
 4133SOL    HW212720   4.806   0.715   4.503
 4134SOL     OW12721   5.512   0.586   3.937
 4134SOL    HW112722   5.478   0.584   3.843
 4134SOL    HW212723   5.466   0.516   3.991
 4135SOL     OW12724   4.458   1.122   4.769
 4135SOL    HW112725   4.393   1.185   4.811
 4135SOL    HW212726   4.551   1.156   4.782
 4136SOL     OW12727   4.603   0.758   5.548
 4136SOL    HW112728   4.570   0.823   5.617
 4136SOL    HW212729   4.626   0.807   5.464
 4137SOL     OW12730   4.406   0.994   4.368
 4137SOL    HW112731   4.479   0.988   4.436
 4137SOL    HW212732   4.332   1.052   4.403
 4138SOL     OW12733   4.448   1.156   5.550
 4138SOL    HW112734   4.492   1.236   5.589
 4138SOL    HW212735   4.364   1.183   5.503
 4139SOL     OW12736   4.058   1.409   4.789
 4139SOL    HW112737   3.975   1.368   4.751
 4139SOL    HW212738   4.100   1.470   4.722
 4140SOL     OW12739   5.181   1.508   5.086
 4140SOL    HW112740   5.236   1.590   5.100
 4140SOL    HW212741   5.104   1.508   5.150
 4141SOL     OW12742   4.186   0.386   5.172
 4141SOL    HW112743   4.265   0.328   5.192
 4141SOL    HW212744   4.103   0.343   5.206
 4142SOL     OW12745   5.325   0.444   4.471
 4142SOL    HW112746   5.254   0.458   4.402
 4142SOL    HW212747   5.304   0.499   4.551
 4143SOL     OW12748   3.947   1.714   4.192
 4143SOL    HW112749   3.962   1.790   4.255
 4143SOL    HW212750   4.022   1.710   4.126
 4144SOL     OW12751   4.861   1.340   5.428
 4144SOL    HW112752   4.900   1.339   5.520
 4144SOL    HW212753   4.805   1.258   5.415
 4145SOL     OW12754   3.965   1.444   4.262
 4145SOL    HW112755   3.944   1.542   4.266
 4145SOL    HW212756   3.910   1.395   4.329
 4146SOL     OW12757   4.008   1.090   4.623
 4146SOL    HW112758   4.002   0.996   4.657
 4146SOL    HW212759   3.946   1.148   4.676
 4147SOL     OW12760   4.329   1.794   5.160
 4147SOL    HW112761   4.241   1.771   5.202
 4147SOL    HW212762   4.353   1.888   5.182
 4148SOL     OW12763   4.304   0.985   3.869
 4148SOL    HW112764   4.349   1.038   3.797
 4148SOL    HW212765   4.340   1.013   3.958
 4149SOL     OW12766   5.330   0.119   5.199
 4149SOL    HW112767   5.353   0.200   5.144
 4149SOL    HW212768   5.303   0.148   5.291
 4150SOL     OW12769   3.844   0.665   4.291
 4150SOL    HW112770   3.806   0.575   4.310
 4150SOL    HW212771   3.836   0.722   4.373
 4151SOL     OW12772  -0.017   1.749   4.050
 4151SOL    HW112773   0.052   1.720   4.117
 4151SOL    HW212774  -0.004   1.846   4.030
 4152SOL     OW12775   3.762   1.581   3.838
 4152SOL    HW112776   3.741   1.485   3.858
 4152SOL    HW212777   3.738   1.637   3.918
 4153SOL     OW12778   5.419   0.923   4.362
 4153SOL    HW112779   5.512   0.885   4.364
 4153SOL    HW212780   5.407   0.977   4.279
 4154SOL     OW12781   5.392   1.102   4.131
 4154SOL    HW112782   5.483   1.088   4.092
 4154SOL    HW212783   5.396   1.174   4.200
 4155SOL     OW12784   3.870   0.748   5.305
 4155SOL    HW112785   3.969   0.759   5.302
 4155SOL    HW212786   3.828   0.832   5.340
 4156SOL     OW12787   4.344   1.392   4.457
 4156SOL    HW112788   4.295   1.305   4.467
 4156SOL    HW212789   4.332   1.426   4.364
 4157SOL     OW12790   5.010   1.239   5.145
 4157SOL    HW112791   5.038   1.179   5.069
 4157SOL    HW212792   5.070   1.223   5.223
 4158SOL     OW12793   4.545   0.012   4.227
 4158SOL    HW112794   4.590   0.099   4.207
 4158SOL    HW212795   4.446   0.027   4.235
 4159SOL     OW12796   3.917   0.960   5.001
 4159SOL    HW112797   4.005   0.915   4.987
 4159SOL    HW212798   3.845   0.908   4.956
 4160SOL     OW12799   5.230   0.989   3.935
 4160SOL    HW112800   5.167   0.930   3.985
 4160SOL    HW212801   5.293   1.033   3.999
 4161SOL     OW12802   4.917   1.824   5.348
 4161SOL    HW112803   4.917   1.887   5.271
 4161SOL    HW212804   4.926   1.730   5.314
 4162SOL     OW12805   4.003   0.277   5.469
 4162SOL    HW112806   4.087   0.224   5.482
 4162SOL    HW212807   3.949   0.276   5.553
 4163SOL     OW12808   5.195   1.422   4.672
 4163SOL    HW112809   5.128   1.436   4.745
 4163SOL    HW212810   5.185   1.331   4.633
 4164SOL     OW12811   5.370   1.760   4.296
 4164SOL    HW112812   5.349   1.725   4.205
 4164SOL    HW212813   5.353   1.689   4.364
 4165SOL     OW12814   4.310   0.715   3.998
 4165SOL    HW112815   4.311   0.806   3.957
 4165SOL    HW212816   4.243   0.713   4.073
 4166SOL     OW12817   5.005   0.355   4.653
 4166SOL    HW112818   4.909   0.328   4.661
 4166SOL    HW212819   5.060   0.302   4.717
 4167SOL     OW12820   5.310   1.680   4.030
 4167SOL    HW112821   5.408   1.701   4.030
 4167SOL    HW212822   5.280   1.658   3.937
 4168SOL     OW12823   4.526   0.609   5.169
 4168SOL    HW112824   4.499   0.585   5.263
 4168SOL    HW212825   4.487   0.543   5.105
 4169SOL     OW12826   5.112   0.471   5.409
 4169SOL    HW112827   5.110   0.521   5.496
 4169SOL    HW212828   5.175   0.394   5.417
 4170SOL     OW12829   4.675   0.886   5.310
 4170SOL    HW112830   4.733   0.815   5.270
 4170SOL    HW212831   4.624   0.933   5.238
 4171SOL     OW12832   4.721   0.390   4.950
 4171SOL    HW112833   4.631   0.418   4.983
 4171SOL    HW212834   4.713   0.358   4.855
 4172SOL     OW12835   4.764   0.701   4.150
 4172SOL    HW112836   4.786   0.699   4.247
 4172SOL    HW212837   4.677   0.654   4.134
 4173SOL     OW12838   3.818   0.836   4.502
 4173SOL    HW112839   3.902   0.823   4.555
 4173SOL    HW212840   3.765   0.911   4.541
 4174SOL     OW12841   3.852   1.888   5.320
 4174SOL    HW112842   3.860   1.857   5.415
 4174SOL    HW212843   3.774   1.844   5.276
 4175SOL     OW12844   4.613   0.345   3.918
 4175SOL    HW112845   4.660   0.407   3.855
 4175SOL    HW212846   4.593   0.259   3.873
 4176SOL     OW12847   5.423   0.571   5.557
 4176SOL    HW112848   5.391   0.651   5.507
 4176SOL    HW212849   5.450   0.500   5.491
 4177SOL     OW12850   5.104   1.146   4.247
 4177SOL    HW112851   5.201   1.167   4.231
 4177SOL    HW212852   5.048   1.221   4.211
 4178SOL     OW12853   4.275   0.161   4.646
 4178SOL    HW112854   4.280   0.187   4.742
 4178SOL    HW212855   4.271   0.244   4.590
 4179SOL     OW12856   4.711   1.447   4.184
 4179SOL    HW112857   4.686   1.530   4.134
 4179SOL    HW212858   4.687   1.458   4.281
 4180SOL     OW12859   4.068   1.801   4.570
 4180SOL    HW112860   4.124   1.725   4.603
 4180SOL    HW212861   4.078   1.880   4.631
 4181SOL     OW12862   5.518   1.057   4.593
 4181SOL    HW112863   5.457   1.031   4.518
 4181SOL    HW212864   5.464   1.071   4.676
 4182SOL     OW12865   4.950   1.539   5.239
 4182SOL    HW112866   4.939   1.463   5.303
 4182SOL    HW212867   4.870   1.544   5.178
 4183SOL     OW12868   4.039   0.964   3.985
 4183SOL    HW112869   4.127   0.978   3.938
 4183SOL    HW212870   4.002   0.874   3.961
 4184SOL     OW12871   5.209   0.757   4.422
 4184SOL    HW112872   5.171   0.758   4.515
 4184SOL    HW212873   5.289   0.817   4.419
 4185SOL     OW12874   4.214   1.245   5.432
 4185SOL    HW112875   4.177   1.257   5.340
 4185SOL    HW212876   4.139   1.243   5.498
 4186SOL     OW12877   4.848   1.780   3.930
 4186SOL    HW112878   4.770   1.751   3.985
 4186SOL    HW212879   4.878   1.704   3.872
 4187SOL     OW12880   3.927   0.284   5.213
 4187SOL    HW112881   3.846   0.342   5.210
 4187SOL    HW212882   3.950   0.263   5.308
 4188SOL     OW12883   5.348   1.376   3.804
 4188SOL    HW112884   5.313   1.469   3.799
 4188SOL    HW212885   5.273   1.311   3.794
 4189SOL     OW12886   4.185   1.742   4.035
 4189SOL    HW112887   4.224   1.801   4.106
 4189SOL    HW212888   4.259   1.693   3.989
 4190SOL     OW12889   5.123   0.102   4.167
 4190SOL    HW112890   5.115   0.074   4.071
 4190SOL    HW212891   5.220   0.110   4.190
 4191SOL     OW12892   3.955   1.798   4.945
 4191SOL    HW112893   4.011   1.718   4.968
 4191SOL    HW212894   3.918   1.787   4.852
 4192SOL     OW12895   4.663   1.705   4.615
 4192SOL    HW112896   4.703   1.644   4.683
 4192SOL    HW212897   4.626   1.651   4.539
 4193SOL     OW12898   4.119   0.682   4.195
 4193SOL    HW112899   4.136   0.585   4.212
 4193SOL    HW212900   4.024   0.704   4.219
 4194SOL     OW12901   5.244   0.222   5.453
 4194SOL    HW112902   5.259   0.237   5.550
 4194SOL    HW212903   5.160   0.170   5.439
 4195SOL     OW12904   4.376   0.111   3.821
 4195SOL    HW112905   4.426   0.032   3.858
 4195SOL    HW212906   4.314   0.080   3.749
 4196SOL     OW12907   4.515   0.297   5.498
 4196SOL    HW112908   4.590   0.233   5.484
 4196SOL    HW212909   4.428   0.247   5.503
 4197SOL     OW12910   4.606   1.525   4.913
 4197SOL    HW112911   4.577   1.489   4.824
 4197SOL    HW212912   4.671   1.461   4.955
 4198SOL     OW12913   5.061   0.579   5.161
 4198SOL    HW112914   5.087   0.549   5.253
 4198SOL    HW212915   5.094   0.672   5.145
 4199SOL     OW12916   4.549   1.430   4.662
 4199SOL    HW112917   4.632   1.389   4.625
 4199SOL    HW212918   4.469   1.391   4.617
 4200SOL     OW12919   4.657   0.492   4.622
 4200SOL    HW112920   4.628   0.489   4.526
 4200SOL    HW212921   4.685   0.401   4.652
 4201SOL     OW12922   4.273   0.062   4.210
 4201SOL    HW112923   4.195   0.061   4.272
 4201SOL    HW212924   4.267   0.142   4.150
 4202SOL     OW12925   5.140   1.198   3.773
 4202SOL    HW112926   5.173   1.128   3.837
 4202SOL    HW212927   5.053   1.235   3.806
 4203SOL     OW12928   4.009   0.046   3.908
 4203SOL    HW112929   4.060   0.121   3.865
 4203SOL    HW212930   4.074  -0.016   3.953
 4204SOL     OW12931   4.674   0.254   4.174
 4204SOL    HW112932   4.646   0.290   4.085
 4204SOL    HW212933   4.772   0.270   4.187
 4205SOL     OW12934   4.801   0.687   5.179
 4205SOL    HW112935   4.720   0.629   5.181
 4205SOL    HW212936   4.883   0.629   5.175
 4206SOL     OW12937   4.963   1.554   4.498
 4206SOL    HW112938   4.965   1.638   4.444
 4206SOL    HW212939   5.010   1.569   4.585
 4207SOL     OW12940   4.198   1.156   4.442
 4207SOL    HW112941   4.136   1.135   4.518
 4207SOL    HW212942   4.148   1.147   4.356
 4208SOL     OW12943   4.983   1.789   4.334
 4208SOL    HW112944   5.035   1.858   4.283
 4208SOL    HW212945   4.904   1.832   4.378
 4209SOL     OW12946   4.755   0.533   3.762
 4209SOL    HW112947   4.712   0.620   3.742
 4209SOL    HW212948   4.812   0.542   3.844
 4210SOL     OW12949   3.814   0.562   5.114
 4210SOL    HW112950   3.908   0.555   5.081
 4210SOL    HW212951   3.807   0.635   5.182
 4211SOL     OW12952   4.281   0.221   4.917
 4211SOL    HW112953   4.328   0.188   4.999
 4211SOL    HW212954   4.183   0.220   4.933
 4212SOL     OW12955   4.589   0.455   4.362
 4212SOL    HW112956   4.522   0.517   4.320
 4212SOL    HW212957   4.611   0.381   4.299
 4213SOL     OW12958   4.751   0.041   4.460
 4213SOL    HW112959   4.684   0.049   4.386
 4213SOL    HW212960   4.721  -0.030   4.524
 4214SOL     OW12961   5.156   1.180   4.562
 4214SOL    HW112962   5.114   1.127   4.635
 4214SOL    HW212963   5.117   1.151   4.474
 4215SOL     OW12964   5.212   0.565   4.690
 4215SOL    HW112965   5.133   0.505   4.704
 4215SOL    HW212966   5.262   0.575   4.777
 4216SOL     OW12967   5.566   0.799   4.096
 4216SOL    HW112968   5.623   0.759   4.167
 4216SOL    HW212969   5.543   0.729   4.028
 4217SOL     OW12970   4.210   1.422   3.878
 4217SOL    HW112971   4.132   1.402   3.937
 4217SOL    HW212972   4.197   1.379   3.789
 4218SOL     OW12973   5.415   1.281   4.324
 4218SOL    HW112974   5.509   1.271   4.356
 4218SOL    HW212975   5.372   1.357   4.373
 4219SOL     OW12976   5.120   0.597   3.802
 4219SOL    HW112977   5.052   0.564   3.868
 4219SOL    HW212978   5.207   0.550   3.818
 4220SOL     OW12979   4.252   0.261   4.023
 4220SOL    HW112980   4.303   0.212   3.952
 4220SOL    HW212981   4.220   0.349   3.987
 4221SOL     OW12982   5.479   1.241   5.273
 4221SOL    HW112983   5.568   1.200   5.256
 4221SOL    HW212984   5.491   1.333   5.312
 4222SOL     OW12985   4.778   1.343   5.045
 4222SOL    HW112986   4.695   1.317   5.095
 4222SOL    HW212987   4.858   1.306   5.092
 4223SOL     OW12988   5.344   1.634   5.392
 4223SOL    HW112989   5.322   1.667   5.300
 4223SOL    HW212990   5.427   1.578   5.389
 4224SOL     OW12991   4.710   1.210   4.803
 4224SOL    HW112992   4.755   1.238   4.888
 4224SOL    HW212993   4.759   1.248   4.725
 4225SOL     OW12994   5.385   1.113   4.826
 4225SOL    HW112995   5.401   1.185   4.894
 4225SOL    HW212996   5.287   1.095   4.821
 4226SOL     OW12997   4.660   0.076   5.124
 4226SOL    HW112998   4.675   0.065   5.026
 4226SOL    HW212999   4.736   0.129   5.163
 4227SOL     OW13000   4.705   1.113   5.453
 4227SOL    HW113001   4.612   1.133   5.482
 4227SOL    HW213002   4.705   1.031   5.395
 4228SOL     OW13003   4.439   1.052   4.099
 4228SOL    HW113004   4.420   1.034   4.195
 4228SOL    HW213005   4.518   0.997   4.070
 4229SOL     OW13006   4.152   0.815   4.978
 4229SOL    HW113007   4.223   0.830   5.047
 4229SOL    HW213008   4.112   0.724   4.991
 4230SOL     OW13009   4.985   0.370   5.006
 4230SOL    HW113010   5.019   0.450   5.056
 4230SOL    HW213011   4.889   0.384   4.981
 4231SOL     OW13012   3.798   1.571   5.081
 4231SOL    HW113013   3.758   1.640   5.021
 4231SOL    HW213014   3.898   1.573   5.072
 4232SOL     OW13015   4.057   1.131   4.208
 4232SOL    HW113016   4.041   1.215   4.156
 4232SOL    HW213017   4.055   1.052   4.146
 4233SOL     OW13018   4.269   0.536   4.578
 4233SOL    HW113019   4.285   0.595   4.499
 4233SOL    HW213020   4.334   0.561   4.651
 4234SOL     OW13021   4.965   1.363   4.115
 4234SOL    HW113022   5.027   1.434   4.150
 4234SOL    HW213023   4.873   1.378   4.150
 4235SOL     OW13024   5.017   1.463   4.874
 4235SOL    HW113025   5.079   1.474   4.952
 4235SOL    HW213026   4.950   1.392   4.895
 4236SOL     OW13027   5.300   0.630   4.196
 4236SOL    HW113028   5.250   0.661   4.277
 4236SOL    HW213029   5.372   0.696   4.174
 4237SOL     OW13030   4.070   1.539   5.023
 4237SOL    HW113031   4.057   1.486   4.940
 4237SOL    HW213032   4.167   1.553   5.039
 4238SOL     OW13033   4.149   0.746   5.325
 4238SOL    HW113034   4.216   0.792   5.266
 4238SOL    HW213035   4.184   0.657   5.352
 4239SOL     OW13036   5.344   0.788   5.416
 4239SOL    HW113037   5.251   0.827   5.411
 4239SOL    HW213038   5.401   0.828   5.345
 4240SOL     OW13039   4.739   0.127   5.481
 4240SOL    HW113040   4.786   0.214   5.465
 4240SOL    HW213041   4.792   0.052   5.440
 4241SOL     OW13042   4.306   0.877   4.759
 4241SOL    HW113043   4.350   0.967   4.760
 4241SOL    HW213044   4.249   0.867   4.840
 4242SOL     OW13045   5.092   0.826   4.659
 4242SOL    HW113046   5.069   0.897   4.725
 4242SOL    HW213047   5.114   0.741   4.707
 4243SOL     OW13048   4.921   0.546   3.995
 4243SOL    HW113049   4.940   0.460   4.042
 4243SOL    HW213050   4.860   0.602   4.050
 4244SOL     OW13051   4.013   0.194   4.967
 4244SOL    HW113052   3.981   0.232   5.053
 4244SOL    HW213053   3.998   0.095   4.967
 4245SOL     OW13054   3.788   1.309   5.000
 4245SOL    HW113055   3.812   1.247   5.075
 4245SOL    HW213056   3.783   1.403   5.035
 4246SOL     OW13057   4.436   0.633   4.770
 4246SOL    HW113058   4.522   0.627   4.720
 4246SOL    HW213059   4.399   0.726   4.762
 4247SOL     OW13060   5.469   0.963  -0.004
 4247SOL    HW113061   5.427   0.894  -0.062
 4247SOL    HW213062   5.408   0.986   0.071
 4248SOL     OW13063   4.038   0.058   4.353
 4248SOL    HW113064   4.006   0.152   4.369
 4248SOL    HW213065   4.046   0.010   4.441
 4249SOL     OW13066   5.355   0.390   4.076
 4249SOL    HW113067   5.377   0.315   4.138
 4249SOL    HW213068   5.324   0.469   4.128
 4250SOL     OW13069   4.723   0.750   4.666
 4250SOL    HW113070   4.730   0.774   4.763
 4250SOL    HW213071   4.709   0.651   4.657
 4251SOL     OW13072   4.721   1.574   5.448
 4251SOL    HW113073   4.693   1.616   5.362
 4251SOL    HW213074   4.757   1.482   5.431
 4252SOL     OW13075  -0.015   1.498   5.328
 4252SOL    HW113076   0.004   1.527   5.234
 4252SOL    HW213077   0.068   1.508   5.384
 4253SOL     OW13078   4.085   0.900   5.551
 4253SOL    HW113079   4.169   0.935   5.592
 4253SOL    HW213080   4.107   0.847   5.469
 4254SOL     OW13081   5.236   0.279   3.851
 4254SOL    HW113082   5.176   0.204   3.878
 4254SOL    HW213083   5.280   0.318   3.932
 4255SOL     OW13084   4.791   1.342   4.564
 4255SOL    HW113085   4.801   1.260   4.508
 4255SOL    HW213086   4.855   1.412   4.532
 4256SOL     OW13087   4.041   0.806   4.663
 4256SOL    HW113088   4.136   0.835   4.673
 4256SOL    HW213089   4.031   0.712   4.695
 4257SOL     OW13090   4.047   0.527   4.730
 4257SOL    HW113091   4.007   0.436   4.722
 4257SOL    HW213092   4.127   0.534   4.671
 4258SOL     OW13093   4.858   0.367   5.424
 4258SOL    HW113094   4.801   0.422   5.485
 4258SOL    HW213095   4.948   0.411   5.415
 4259SOL     OW13096   4.894   0.200   5.207
 4259SOL    HW113097   4.874   0.263   5.281
 4259SOL    HW213098   4.931   0.251   5.129
 4260SOL     OW13099   3.729   1.306   3.908
 4260SOL    HW113100   3.639   1.328   3.871
 4260SOL    HW213101   3.729   1.215   3.947
 4261SOL     OW13102   3.824   1.751   4.688
 4261SOL    HW113103   3.779   1.680   4.634
 4261SOL    HW213104   3.902   1.787   4.636
 4262SOL     OW13105   4.221   1.576   4.632
 4262SOL    HW113106   4.289   1.646   4.655
 4262SOL    HW213107   4.262   1.508   4.572
 4263SOL     OW13108   4.691   0.779   4.939
 4263SOL    HW113109   4.756   0.767   5.014
 4263SOL    HW213110   4.600   0.751   4.969
 4264SOL     OW13111   3.763   0.553   4.843
 4264SOL    HW113112   3.848   0.552   4.790
 4264SOL    HW213113   3.785   0.560   4.940
 4265SOL     OW13114   3.891   0.542   5.485
 4265SOL    HW113115   3.945   0.469   5.443
 4265SOL    HW213116   3.876   0.615   5.418
 4266SOL     OW13117   5.111   0.925   5.376
 4266SOL    HW113118   5.131   1.023   5.376
 4266SOL    HW213119   5.100   0.893   5.282
 4267SOL     OW13120   4.541   0.577   4.070
 4267SOL    HW113121   4.540   0.489   4.021
 4267SOL    HW213122   4.455   0.625   4.050
 4268SOL     OW13123   5.370   0.600   4.910
 4268SOL    HW113124   5.356   0.543   4.991
 4268SOL    HW213125   5.461   0.583   4.873
 4269SOL     OW13126   3.964   1.556   5.444
 4269SOL    HW113127   3.937   1.630   5.505
 4269SOL    HW213128   3.966   1.470   5.495
 4270SOL     OW13129   4.445   0.447   4.967
 4270SOL    HW113130   4.378   0.374   4.953
 4270SOL    HW213131   4.434   0.517   4.896
 4271SOL     OW13132   4.655   1.677   5.196
 4271SOL    HW113133   4.614   1.627   5.120
 4271SOL    HW213134   4.644   1.775   5.180
 4272SOL     OW13135   4.177   0.493   3.896
 4272SOL    HW113136   4.239   0.564   3.929
 4272SOL    HW213137   4.084   0.529   3.890
 4273SOL     OW13138   3.868   1.133   5.202
 4273SOL    HW113139   3.863   1.084   5.290
 4273SOL    HW213140   3.888   1.068   5.129
 4274SOL     OW13141   5.024   0.822   4.007
 4274SOL    HW113142   4.983   0.874   4.082
 4274SOL    HW213143   5.008   0.724   4.021
 4275SOL     OW13144   5.513   1.722   4.889
 4275SOL    HW113145   5.574   1.755   4.817
 4275SOL    HW213146   5.478   1.632   4.863
 4276SOL     OW13147   4.962   1.731   4.821
 4276SOL    HW113148   5.050   1.762   4.784
 4276SOL    HW213149   4.970   1.635   4.848
 4277SOL     OW13150   3.823   1.254   4.739
 4277SOL    HW113151   3.809   1.274   4.836
 4277SOL    HW213152   3.744   1.205   4.702
 4278SOL     OW13153   4.404   1.680   5.471
 4278SOL    HW113154   4.332   1.749   5.475
 4278SOL    HW213155   4.464   1.697   5.393
 4279SOL     OW13156   5.441   0.153   4.212
 4279SOL    HW113157   5.518   0.141   4.149
 4279SOL    HW213158   5.424   0.067   4.259
 4280SOL     OW13159   5.119   1.572   4.207
 4280SOL    HW113160   5.182   1.613   4.141
 4280SOL    HW213161   5.064   1.644   4.249
 4281SOL     OW13162   3.874   1.791  -0.021
 4281SOL    HW113163   3.815   1.721   0.021
 4281SOL    HW213164   3.923   1.840   0.050
 4282SOL     OW13165   5.001   0.919   4.342
 4282SOL    HW113166   5.074   0.864   4.382
 4282SOL    HW213167   5.038   1.005   4.308
 4283SOL     OW13168   4.521   1.285   5.143
 4283SOL    HW113169   4.496   1.329   5.229
 4283SOL    HW213170   4.446   1.293   5.078
 4284SOL     OW13171   4.397   1.618   3.865
 4284SOL    HW113172   4.398   1.645   3.769
 4284SOL    HW213173   4.333   1.543   3.878
 4285SOL     OW13174   5.341   1.730   5.117
 4285SOL    HW113175   5.400   1.728   5.037
 4285SOL    HW213176   5.327   1.825   5.146
 4286SOL     OW13177   5.574   0.163   4.686
 4286SOL    HW113178   5.603   0.069   4.666
 4286SOL    HW213179   5.481   0.177   4.651
 4287SOL     OW13180   3.971   0.311   4.433
 4287SOL    HW113181   3.882   0.348   4.407
 4287SOL    HW213182   3.977   0.304   4.533
 4288SOL     OW13183   4.939   1.589   3.749
 4288SOL    HW113184   4.926   1.501   3.793
 4288SOL    HW213185   4.870   1.601   3.678
 4289SOL     OW13186   4.555   1.015   5.102
 4289SOL    HW113187   4.600   1.004   5.014
 4289SOL    HW213188   4.542   1.112   5.122
 4290SOL     OW13189   4.653   0.913   3.999
 4290SOL    HW113190   4.731   0.959   3.956
 4290SOL    HW213191   4.687   0.841   4.059
 4291SOL     OW13192   5.215   1.626   3.763
 4291SOL    HW113193   5.116   1.615   3.758
 4291SOL    HW213194   5.253   1.627   3.671
 4292SOL     OW13195   4.095   1.298   5.196
 4292SOL    HW113196   4.074   1.383   5.148
 4292SOL    HW213197   4.012   1.241   5.199
 4293SOL     OW13198   5.371   1.313   5.025
 4293SOL    HW113199   5.409   1.278   5.111
 4293SOL    HW213200   5.289   1.367   5.044
 4294SOL     OW13201   4.799   1.102   4.432
 4294SOL    HW113202   4.721   1.062   4.480
 4294SOL    HW213203   4.863   1.030   4.406
 4295SOL     OW13204   4.753   0.234   4.686
 4295SOL    HW113205   4.751   0.188   4.597
 4295SOL    HW213206   4.746   0.167   4.759
 4296SOL     OW13207   4.326   1.488   4.197
 4296SOL    HW113208   4.355   1.429   4.122
 4296SOL    HW213209   4.230   1.514   4.184
 4297SOL     OW13210   5.467   0.391   5.111
 4297SOL    HW113211   5.540   0.459   5.110
 4297SOL    HW213212   5.489   0.319   5.046
 4298SOL     OW13213   3.976   1.352   4.014
 4298SOL    HW113214   3.882   1.340   3.985
 4298SOL    HW213215   3.978   1.393   4.106
 4299SOL     OW13216   3.825   0.992   5.435
 4299SOL    HW113217   3.743   0.993   5.492
 4299SOL    HW213218   3.906   1.003   5.492
 4300SOL     OW13219   4.389   0.170   5.184
 4300SOL    HW113220   4.488   0.158   5.179
 4300SOL    HW213221   4.359   0.157   5.279
 4301SOL     OW13222   3.812   0.317   3.745
 4301SOL    HW113223   3.714   0.298   3.734
 4301SOL    HW213224   3.835   0.404   3.701
 4302SOL     OW13225   5.151   0.839   5.114
 4302SOL    HW113226   5.098   0.898   5.053
 4302SOL    HW213227   5.248   0.844   5.090
 4303SOL     OW13228   3.778   0.146   4.022
 4303SOL    HW113229   3.763   0.236   3.981
 4303SOL    HW213230   3.866   0.110   3.990
 4304SOL     OW13231   4.898   1.335   3.848
 4304SOL    HW113232   4.799   1.327   3.842
 4304SOL    HW213233   4.926   1.340   3.944
 4305SOL     OW13234   4.356   0.828   5.156
 4305SOL    HW113235   4.412   0.910   5.143
 4305SOL    HW213236   4.416   0.749   5.167
 4306SOL     OW13237   5.210   1.805   4.724
 4306SOL    HW113238   5.240   1.871   4.655
 4306SOL    HW213239   5.289   1.751   4.754
 4307SOL     OW13240   4.458   0.555   5.422
 4307SOL    HW113241   4.498   0.624   5.482
 4307SOL    HW213242   4.475   0.464   5.459
 4308SOL     OW13243   5.199   1.186   5.362
 4308SOL    HW113244   5.182   1.205   5.459
 4308SOL    HW213245   5.293   1.212   5.340
 4309SOL     OW13246   4.094   1.745   5.291
 4309SOL    HW113247   4.015   1.801   5.267
 4309SOL    HW213248   4.063   1.660   5.334
 4310SOL     OW13249   5.406   0.871   4.988
 4310SOL    HW113250   5.389   0.784   4.942
 4310SOL    HW213251   5.388   0.946   4.923
 4311SOL     OW13252   4.951   0.326   4.172
 4311SOL    HW113253   5.008   0.244   4.171
 4311SOL    HW213254   4.969   0.378   4.255
 4312SOL     OW13255   4.323   0.724   4.379
 4312SOL    HW113256   4.356   0.818   4.381
 4312SOL    HW213257   4.245   0.717   4.317
 4313SOL     OW13258   5.471   0.361   5.384
 4313SOL    HW113259   5.466   0.379   5.286
 4313SOL    HW213260   5.393   0.305   5.411
 4314SOL     OW13261   5.492   0.929   5.238
 4314SOL    HW113262   5.468   1.024   5.260
 4314SOL    HW213263   5.468   0.910   5.143
 4315SOL     OW13264   4.600   1.382   3.789
 4315SOL    HW113265   4.572   1.350   3.880
 4315SOL    HW213266   4.556   1.470   3.770
 4316SOL     OW13267   4.395   1.784   4.654
 4316SOL    HW113268   4.375   1.881   4.643
 4316SOL    HW213269   4.493   1.769   4.645
 4317SOL     OW13270   4.594   0.977   4.568
 4317SOL    HW113271   4.640   0.897   4.605
 4317SOL    HW213272   4.546   1.025   4.641
 4318SOL     OW13273   4.840   0.969   3.776
 4318SOL    HW113274   4.805   1.050   3.727
 4318SOL    HW213275   4.776   0.893   3.766
 4319SOL     OW13276   5.555   1.558   4.573
 4319SOL    HW113277   5.480   1.544   4.509
 4319SOL    HW213278   5.538   1.505   4.656
 4320SOL     OW13279   3.820   1.227   4.391
 4320SOL    HW113280   3.809   1.190   4.483
 4320SOL    HW213281   3.891   1.175   4.343
 4321SOL     OW13282   4.420   1.414   5.367
 4321SOL    HW113283   4.341   1.357   5.389
 4321SOL    HW213284   4.407   1.505   5.406
 4322SOL     OW13285   5.529   0.181   4.956
 4322SOL    HW113286   5.542   0.085   4.981
 4322SOL    HW213287   5.545   0.192   4.858
 4323SOL     OW13288   4.153   0.422   4.247
 4323SOL    HW113289   4.184   0.349   4.187
 4323SOL    HW213290   4.096   0.385   4.320
 4324SOL     OW13291   5.422   1.479   4.812
 4324SOL    HW113292   5.340   1.460   4.758
 4324SOL    HW213293   5.424   1.419   4.892
 4325SOL     OW13294   4.061   0.559   5.007
 4325SOL    HW113295   4.117   0.498   5.063
 4325SOL    HW213296   4.072   0.534   4.910
 4326SOL     OW13297   4.558   1.576   4.395
 4326SOL    HW113298   4.505   1.636   4.334
 4326SOL    HW213299   4.496   1.509   4.437
 4327SOL     OW13300   5.152   0.229   4.844
 4327SOL    HW113301   5.169   0.139   4.885
 4327SOL    HW213302   5.097   0.284   4.907
 4328SOL     OW13303   4.737   5.608   4.858
 4328SOL    HW113304   4.665   5.549   4.822
 4328SOL    HW213305   4.825   5.561   4.851
 4329SOL     OW13306   4.522   1.307   4.032
 4329SOL    HW113307   4.485   1.219   4.062
 4329SOL    HW213308   4.584   1.343   4.102
 4330SOL     OW13309   4.352   1.561   5.016
 4330SOL    HW113310   4.347   1.646   5.069
 4330SOL    HW213311   4.443   1.554   4.974
 4331SOL     OW13312   5.088   0.045   3.897
 4331SOL    HW113313   5.134  -0.028   3.847
 4331SOL    HW213314   4.993   0.018   3.916
 4332SOL     OW13315   5.006   0.465   4.399
 4332SOL    HW113316   4.955   0.551   4.404
 4332SOL    HW213317   5.011   0.424   4.490
 4333SOL     OW13318   5.314   0.201   4.618
 4333SOL    HW113319   5.257   0.222   4.698
 4333SOL    HW213320   5.313   0.280   4.555
 4334SOL     OW13321   3.770   1.058   4.027
 4334SOL    HW113322   3.869   1.056   4.011
 4334SOL    HW213323   3.738   0.966   4.049
 4335SOL     OW13324   4.617   1.673   4.050
 4335SOL    HW113325   4.536   1.648   3.997
 4335SOL    HW213326   4.592   1.742   4.118
 4336SOL     OW13327   3.939   2.477   0.122
 4336SOL    HW113328   3.847   2.474   0.160
 4336SOL    HW213329   3.936   2.454   0.025
 4337SOL     OW13330   3.943   2.149   0.997
 4337SOL    HW113331   3.978   2.112   1.083
 4337SOL    HW213332   3.852   2.113   0.980
 4338SOL     OW13333   3.722   2.245   0.634
 4338SOL    HW113334   3.638   2.273   0.680
 4338SOL    HW213335   3.702   2.167   0.575
 4339SOL     OW13336   4.291   3.169   1.197
 4339SOL    HW113337   4.208   3.174   1.141
 4339SOL    HW213338   4.315   3.261   1.229
 4340SOL     OW13339   5.297   3.378   0.710
 4340SOL    HW113340   5.254   3.345   0.795
 4340SOL    HW213341   5.228   3.383   0.638
 4341SOL     OW13342   4.852   2.568   0.690
 4341SOL    HW113343   4.906   2.649   0.668
 4341SOL    HW213344   4.804   2.582   0.776
 4342SOL     OW13345   5.516   2.450   0.214
 4342SOL    HW113346   5.484   2.449   0.119
 4342SOL    HW213347   5.469   2.379   0.266
 4343SOL     OW13348   4.451   2.997   1.047
 4343SOL    HW113349   4.389   3.038   1.115
 4343SOL    HW213350   4.499   3.070   0.999
 4344SOL     OW13351   4.602   2.616   1.820
 4344SOL    HW113352   4.593   2.686   1.891
 4344SOL    HW213353   4.625   2.660   1.733
 4345SOL     OW13354   4.405   2.851   0.650
 4345SOL    HW113355   4.480   2.850   0.717
 4345SOL    HW213356   4.331   2.909   0.684
 4346SOL     OW13357   4.435   3.017   1.828
 4346SOL    HW113358   4.492   3.093   1.860
 4346SOL    HW213359   4.357   3.052   1.777
 4347SOL     OW13360   4.051   3.272   1.064
 4347SOL    HW113361   3.972   3.239   1.011
 4347SOL    HW213362   4.108   3.330   1.005
 4348SOL     OW13363   5.176   3.366   1.364
 4348SOL    HW113364   5.236   3.446   1.372
 4348SOL    HW213365   5.103   3.372   1.432
 4349SOL     OW13366   4.173   2.252   1.480
 4349SOL    HW113367   4.256   2.195   1.483
 4349SOL    HW213368   4.093   2.194   1.493
 4350SOL     OW13369   5.339   2.304   0.753
 4350SOL    HW113370   5.286   2.343   0.677
 4350SOL    HW213371   5.313   2.349   0.838
 4351SOL     OW13372   3.955   3.576   0.466
 4351SOL    HW113373   3.972   3.651   0.530
 4351SOL    HW213374   4.035   3.563   0.407
 4352SOL     OW13375   4.861   3.201   1.700
 4352SOL    HW113376   4.914   3.192   1.785
 4352SOL    HW213377   4.807   3.119   1.686
 4353SOL     OW13378   3.912   3.307   0.514
 4353SOL    HW113379   3.939   3.403   0.509
 4353SOL    HW213380   3.914   3.276   0.609
 4354SOL     OW13381   3.974   2.945   0.893
 4354SOL    HW113382   3.994   2.851   0.918
 4354SOL    HW213383   3.935   2.993   0.972
 4355SOL     OW13384   4.319   3.652   1.440
 4355SOL    HW113385   4.235   3.637   1.491
 4355SOL    HW213386   4.347   3.748   1.449
 4356SOL     OW13387   4.293   2.858   0.133
 4356SOL    HW113388   4.348   2.904   0.063
 4356SOL    HW213389   4.334   2.873   0.223
 4357SOL     OW13390   5.325   1.986   1.473
 4357SOL    HW113391   5.366   2.064   1.425
 4357SOL    HW213392   5.297   2.015   1.565
 4358SOL     OW13393   3.835   2.526   0.565
 4358SOL    HW113394   3.811   2.430   0.580
 4358SOL    HW213395   3.833   2.575   0.652
 4359SOL     OW13396  -0.018   3.610   0.317
 4359SOL    HW113397   0.049   3.571   0.381
 4359SOL    HW213398  -0.005   3.709   0.312
 4360SOL     OW13399   3.747   3.452   0.117
 4360SOL    HW113400   3.739   3.354   0.134
 4360SOL    HW213401   3.736   3.502   0.203
 4361SOL     OW13402   5.423   2.788   0.639
 4361SOL    HW113403   5.511   2.741   0.627
 4361SOL    HW213404   5.404   2.844   0.558
 4362SOL     OW13405   5.390   2.966   0.423
 4362SOL    HW113406   5.480   2.956   0.380
 4362SOL    HW213407   5.393   3.039   0.490
 4363SOL     OW13408   3.857   2.601   1.586
 4363SOL    HW113409   3.952   2.631   1.582
 4363SOL    HW213410   3.797   2.678   1.562
 4364SOL     OW13411   4.326   3.231   0.768
 4364SOL    HW113412   4.285   3.140   0.768
 4364SOL    HW213413   4.320   3.271   0.676
 4365SOL     OW13414   5.003   3.094   1.428
 4365SOL    HW113415   5.024   3.024   1.359
 4365SOL    HW213416   5.071   3.089   1.502
 4366SOL     OW13417   4.547   1.876   0.515
 4366SOL    HW113418   4.593   1.960   0.487
 4366SOL    HW213419   4.448   1.890   0.516
 4367SOL     OW13420   3.911   2.808   1.273
 4367SOL    HW113421   4.004   2.773   1.267
 4367SOL    HW213422   3.854   2.765   1.203
 4368SOL     OW13423   5.265   2.871   0.198
 4368SOL    HW113424   5.191   2.809   0.225
 4368SOL    HW213425   5.310   2.908   0.279
 4369SOL     OW13426   4.905   3.677   1.628
 4369SOL    HW113427   4.907   3.747   1.556
 4369SOL    HW213428   4.921   3.587   1.587
 4370SOL     OW13429   4.071   2.109   1.859
 4370SOL    HW113430   4.120   2.194   1.877
 4370SOL    HW213431   3.973   2.125   1.864
 4371SOL     OW13432   5.187   3.280   0.938
 4371SOL    HW113433   5.124   3.298   1.013
 4371SOL    HW213434   5.175   3.186   0.905
 4372SOL     OW13435   5.367   3.617   0.573
 4372SOL    HW113436   5.346   3.583   0.481
 4372SOL    HW213437   5.356   3.544   0.639
 4373SOL     OW13438   4.318   2.577   0.279
 4373SOL    HW113439   4.330   2.668   0.237
 4373SOL    HW213440   4.249   2.583   0.351
 4374SOL     OW13441   4.999   2.222   0.931
 4374SOL    HW113442   4.906   2.187   0.938
 4374SOL    HW213443   5.059   2.171   0.993
 4375SOL     OW13444   5.307   3.538   0.308
 4375SOL    HW113445   5.404   3.561   0.304
 4375SOL    HW213446   5.274   3.520   0.215
 4376SOL     OW13447   4.510   2.468   1.448
 4376SOL    HW113448   4.483   2.442   1.541
 4376SOL    HW213449   4.478   2.400   1.383
 4377SOL     OW13450   5.110   2.333   1.676
 4377SOL    HW113451   5.112   2.384   1.762
 4377SOL    HW213452   5.178   2.260   1.678
 4378SOL     OW13453   4.673   2.742   1.587
 4378SOL    HW113454   4.731   2.672   1.545
 4378SOL    HW213455   4.619   2.788   1.516
 4379SOL     OW13456   4.715   2.258   1.222
 4379SOL    HW113457   4.621   2.276   1.249
 4379SOL    HW213458   4.718   2.225   1.128
 4380SOL     OW13459   4.775   2.560   0.421
 4380SOL    HW113460   4.798   2.561   0.518
 4380SOL    HW213461   4.687   2.516   0.408
 4381SOL     OW13462   3.813   2.686   0.788
 4381SOL    HW113463   3.902   2.675   0.832
 4381SOL    HW213464   3.767   2.767   0.825
 4382SOL     OW13465   4.611   2.215   0.207
 4382SOL    HW113466   4.653   2.273   0.137
 4382SOL    HW213467   4.609   2.120   0.176
 4383SOL     OW13468   5.407   2.434   1.834
 4383SOL    HW113469   5.381   2.514   1.780
 4383SOL    HW213470   5.443   2.363   1.773
 4384SOL     OW13471   5.108   3.016   0.541
 4384SOL    HW113472   5.194   3.005   0.491
 4384SOL    HW213473   5.049   3.080   0.493
 4385SOL     OW13474   4.271   2.025   0.903
 4385SOL    HW113475   4.276   2.062   0.996
 4385SOL    HW213476   4.275   2.100   0.837
 4386SOL     OW13477   4.718   3.317   0.463
 4386SOL    HW113478   4.685   3.395   0.410
 4386SOL    HW213479   4.685   3.324   0.557
 4387SOL     OW13480   4.064   3.662   0.885
 4387SOL    HW113481   4.117   3.577   0.884
 4387SOL    HW213482   4.125   3.740   0.894
 4388SOL     OW13483   5.526   2.931   0.860
 4388SOL    HW113484   5.469   2.893   0.787
 4388SOL    HW213485   5.473   2.935   0.945
 4389SOL     OW13486   4.945   3.401   1.518
 4389SOL    HW113487   4.936   3.325   1.582
 4389SOL    HW213488   4.883   3.386   1.440
 4390SOL     OW13489   4.041   2.829   0.260
 4390SOL    HW113490   4.128   2.851   0.215
 4390SOL    HW213491   4.008   2.741   0.227
 4391SOL     OW13492   5.216   2.624   0.704
 4391SOL    HW113493   5.187   2.634   0.799
 4391SOL    HW213494   5.295   2.683   0.687
 4392SOL     OW13495   4.197   3.135   1.728
 4392SOL    HW113496   4.169   3.136   1.632
 4392SOL    HW213497   4.115   3.136   1.786
 4393SOL     OW13498   4.837   3.641   0.213
 4393SOL    HW113499   4.766   3.599   0.270
 4393SOL    HW213500   4.872   3.573   0.149
 4394SOL     OW13501   3.928   2.126   1.499
 4394SOL    HW113502   3.849   2.187   1.496
 4394SOL    HW213503   3.902   2.038   1.537
 4395SOL     OW13504   5.350   3.244   0.075
 4395SOL    HW113505   5.310   3.336   0.073
 4395SOL    HW213506   5.279   3.176   0.063
 4396SOL     OW13507   4.185   3.614   0.308
 4396SOL    HW113508   4.228   3.672   0.377
 4396SOL    HW213509   4.230   3.524   0.307
 4397SOL     OW13510   5.124   1.962   0.444
 4397SOL    HW113511   5.113   1.937   0.347
 4397SOL    HW213512   5.221   1.976   0.464
 4398SOL     OW13513   3.981   3.648   1.220
 4398SOL    HW113514   4.042   3.577   1.253
 4398SOL    HW213515   3.984   3.650   1.120
 4399SOL     OW13516   4.670   3.558   0.892
 4399SOL    HW113517   4.757   3.513   0.912
 4399SOL    HW213518   4.624   3.509   0.817
 4400SOL     OW13519   4.119   2.547   0.473
 4400SOL    HW113520   4.137   2.449   0.487
 4400SOL    HW213521   4.022   2.566   0.487
 4401SOL     OW13522   5.242   2.082   1.727
 4401SOL    HW113523   5.254   2.098   1.825
 4401SOL    HW213524   5.157   2.032   1.712
 4402SOL     OW13525   4.364   1.988   0.104
 4402SOL    HW113526   4.456   1.951   0.117
 4402SOL    HW213527   4.317   1.936   0.033
 4403SOL     OW13528   4.488   2.136   1.759
 4403SOL    HW113529   4.575   2.087   1.752
 4403SOL    HW213530   4.435   2.099   1.835
 4404SOL     OW13531   4.592   3.373   1.197
 4404SOL    HW113532   4.577   3.337   1.104
 4404SOL    HW213533   4.670   3.325   1.238
 4405SOL     OW13534   5.056   2.451   1.431
 4405SOL    HW113535   5.090   2.420   1.519
 4405SOL    HW213536   5.093   2.542   1.412
 4406SOL     OW13537   4.545   3.242   0.950
 4406SOL    HW113538   4.634   3.232   0.905
 4406SOL    HW213539   4.474   3.252   0.880
 4407SOL     OW13540   4.646   2.355   0.899
 4407SOL    HW113541   4.621   2.354   0.802
 4407SOL    HW213542   4.681   2.265   0.925
 4408SOL     OW13543   4.278   1.928   0.490
 4408SOL    HW113544   4.195   1.923   0.546
 4408SOL    HW213545   4.272   2.006   0.429
 4409SOL     OW13546   5.146   3.064   0.039
 4409SOL    HW113547   5.181   2.989   0.094
 4409SOL    HW213548   5.057   3.094   0.075
 4410SOL     OW13549   4.013   1.911   0.186
 4410SOL    HW113550   4.061   1.979   0.132
 4410SOL    HW213551   4.079   1.847   0.226
 4411SOL     OW13552   4.676   2.113   0.457
 4411SOL    HW113553   4.640   2.153   0.372
 4411SOL    HW213554   4.774   2.130   0.463
 4412SOL     OW13555   4.799   2.546   1.453
 4412SOL    HW113556   4.729   2.475   1.450
 4412SOL    HW213557   4.889   2.503   1.443
 4413SOL     OW13558   4.936   3.436   0.801
 4413SOL    HW113559   4.953   3.505   0.731
 4413SOL    HW213560   5.018   3.426   0.858
 4414SOL     OW13561   4.186   2.997   0.730
 4414SOL    HW113562   4.113   2.979   0.796
 4414SOL    HW213563   4.148   2.995   0.637
 4415SOL     OW13564   4.983   3.652   0.612
 4415SOL    HW113565   5.036   3.718   0.560
 4415SOL    HW213566   4.904   3.698   0.653
 4416SOL     OW13567   4.748   2.385   0.030
 4416SOL    HW113568   4.702   2.471   0.009
 4416SOL    HW213569   4.810   2.399   0.107
 4417SOL     OW13570   3.821   2.414   1.392
 4417SOL    HW113571   3.915   2.411   1.357
 4417SOL    HW213572   3.814   2.483   1.464
 4418SOL     OW13573   4.283   2.086   1.174
 4418SOL    HW113574   4.332   2.008   1.214
 4418SOL    HW213575   4.187   2.082   1.201
 4419SOL     OW13576   4.585   2.315   0.636
 4419SOL    HW113577   4.544   2.381   0.573
 4419SOL    HW213578   4.617   2.236   0.584
 4420SOL     OW13579   4.745   1.912   0.739
 4420SOL    HW113580   4.682   1.918   0.661
 4420SOL    HW213581   4.716   1.837   0.799
 4421SOL     OW13582   5.146   3.032   0.836
 4421SOL    HW113583   5.134   2.943   0.879
 4421SOL    HW213584   5.131   3.024   0.737
 4422SOL     OW13585   5.219   2.407   0.979
 4422SOL    HW113586   5.129   2.367   0.966
 4422SOL    HW213587   5.210   2.506   0.995
 4423SOL     OW13588   5.581   2.665   0.370
 4423SOL    HW113589   5.633   2.620   0.442
 4423SOL    HW213590   5.549   2.597   0.304
 4424SOL     OW13591   4.235   3.274   0.130
 4424SOL    HW113592   4.191   3.262   0.219
 4424SOL    HW213593   4.177   3.236   0.059
 4425SOL     OW13594   5.419   3.150   0.607
 4425SOL    HW113595   5.514   3.141   0.640
 4425SOL    HW213596   5.376   3.229   0.652
 4426SOL     OW13597   5.109   2.435   0.068
 4426SOL    HW113598   5.042   2.414   0.139
 4426SOL    HW213599   5.201   2.415   0.101
 4427SOL     OW13600   4.251   2.129   0.308
 4427SOL    HW113601   4.296   2.075   0.238
 4427SOL    HW213602   4.220   2.216   0.269
 4428SOL     OW13603   5.457   3.129   1.560
 4428SOL    HW113604   5.535   3.068   1.547
 4428SOL    HW213605   5.490   3.219   1.589
 4429SOL     OW13606   4.775   3.223   1.346
 4429SOL    HW113607   4.693   3.187   1.390
 4429SOL    HW213608   4.855   3.175   1.381
 4430SOL     OW13609   5.342   3.501   1.667
 4430SOL    HW113610   5.319   3.532   1.575
 4430SOL    HW213611   5.427   3.449   1.664
 4431SOL     OW13612   4.867   3.101   1.107
 4431SOL    HW113613   4.798   3.133   1.172
 4431SOL    HW213614   4.837   3.123   1.013
 4432SOL     OW13615   5.374   2.958   1.086
 4432SOL    HW113616   5.353   3.025   1.157
 4432SOL    HW213617   5.291   2.911   1.058
 4433SOL     OW13618   4.651   1.949   1.389
 4433SOL    HW113619   4.668   1.928   1.293
 4433SOL    HW213620   4.730   1.995   1.429
 4434SOL     OW13621   4.702   2.974   1.723
 4434SOL    HW113622   4.607   2.995   1.747
 4434SOL    HW213623   4.705   2.893   1.666
 4435SOL     OW13624   4.413   2.877   0.372
 4435SOL    HW113625   4.410   2.876   0.472
 4435SOL    HW213626   4.503   2.847   0.341
 4436SOL     OW13627   4.150   2.683   1.261
 4436SOL    HW113628   4.226   2.695   1.326
 4436SOL    HW213629   4.116   2.589   1.267
 4437SOL     OW13630   4.980   2.231   1.289
 4437SOL    HW113631   5.017   2.314   1.331
 4437SOL    HW213632   4.886   2.248   1.260
 4438SOL     OW13633   3.805   3.428   1.326
 4438SOL    HW113634   3.779   3.515   1.284
 4438SOL    HW213635   3.904   3.419   1.327
 4439SOL     OW13636   4.059   2.995   0.487
 4439SOL    HW113637   4.099   3.077   0.447
 4439SOL    HW213638   4.056   2.922   0.419
 4440SOL     OW13639   4.266   2.408   0.869
 4440SOL    HW113640   4.277   2.465   0.788
 4440SOL    HW213641   4.340   2.426   0.933
 4441SOL     OW13642   4.968   3.223   0.395
 4441SOL    HW113643   5.029   3.294   0.430
 4441SOL    HW213644   4.874   3.242   0.424
 4442SOL     OW13645   5.020   3.329   1.144
 4442SOL    HW113646   5.075   3.332   1.227
 4442SOL    HW213647   4.968   3.244   1.142
 4443SOL     OW13648   5.296   2.480   0.485
 4443SOL    HW113649   5.251   2.520   0.564
 4443SOL    HW213650   5.327   2.552   0.423
 4444SOL     OW13651   4.076   3.388   1.304
 4444SOL    HW113652   4.062   3.341   1.217
 4444SOL    HW213653   4.173   3.405   1.319
 4445SOL     OW13654   4.148   2.604   1.600
 4445SOL    HW113655   4.214   2.650   1.542
 4445SOL    HW213656   4.179   2.511   1.619
 4446SOL     OW13657   5.334   2.651   1.690
 4446SOL    HW113658   5.245   2.696   1.679
 4446SOL    HW213659   5.397   2.685   1.620
 4447SOL     OW13660   4.724   2.000   1.760
 4447SOL    HW113661   4.779   2.081   1.743
 4447SOL    HW213662   4.773   1.919   1.727
 4448SOL     OW13663   4.212   1.893   1.760
 4448SOL    HW113664   4.166   1.838   1.691
 4448SOL    HW213665   4.157   1.974   1.780
 4449SOL     OW13666   4.311   2.739   1.037
 4449SOL    HW113667   4.356   2.829   1.035
 4449SOL    HW213668   4.253   2.733   1.119
 4450SOL     OW13669   4.916   2.388   0.259
 4450SOL    HW113670   4.929   2.306   0.315
 4450SOL    HW213671   4.873   2.460   0.314
 4451SOL     OW13672   4.022   2.054   1.245
 4451SOL    HW113673   3.985   2.087   1.332
 4451SOL    HW213674   4.007   1.956   1.238
 4452SOL     OW13675   3.747   3.162   1.277
 4452SOL    HW113676   3.786   3.103   1.347
 4452SOL    HW213677   3.769   3.257   1.297
 4453SOL     OW13678   4.450   2.496   1.055
 4453SOL    HW113679   4.526   2.476   0.993
 4453SOL    HW213680   4.415   2.587   1.037
 4454SOL     OW13681   5.458   2.802   1.886
 4454SOL    HW113682   5.419   2.750   1.810
 4454SOL    HW213683   5.384   2.829   1.949
 4455SOL     OW13684   4.040   1.920   0.629
 4455SOL    HW113685   4.010   2.014   0.646
 4455SOL    HW213686   4.048   1.872   0.716
 4456SOL     OW13687   5.359   2.249   0.352
 4456SOL    HW113688   5.383   2.174   0.413
 4456SOL    HW213689   5.325   2.327   0.406
 4457SOL     OW13690   4.725   2.615   0.940
 4457SOL    HW113691   4.755   2.642   1.031
 4457SOL    HW213692   4.713   2.516   0.936
 4458SOL     OW13693   4.704   3.421   1.725
 4458SOL    HW113694   4.683   3.470   1.641
 4458SOL    HW213695   4.755   3.338   1.703
 4459SOL     OW13696  -0.012   3.377   1.609
 4459SOL    HW113697   0.007   3.402   1.514
 4459SOL    HW213698   0.074   3.374   1.660
 4460SOL     OW13699   4.102   2.779   1.806
 4460SOL    HW113700   4.181   2.796   1.864
 4460SOL    HW213701   4.125   2.712   1.736
 4461SOL     OW13702   5.254   2.123   0.125
 4461SOL    HW113703   5.184   2.057   0.154
 4461SOL    HW213704   5.289   2.171   0.205
 4462SOL     OW13705   5.006   2.685   5.610
 4462SOL    HW113706   5.043   2.593   5.623
 4462SOL    HW213707   5.041   2.724   5.525
 4463SOL     OW13708   4.794   3.199   0.856
 4463SOL    HW113709   4.804   3.120   0.795
 4463SOL    HW213710   4.850   3.275   0.820
 4464SOL     OW13711   4.043   2.675   0.944
 4464SOL    HW113712   4.140   2.697   0.938
 4464SOL    HW213713   4.031   2.580   0.972
 4465SOL     OW13714   4.042   2.396   1.011
 4465SOL    HW113715   4.004   2.304   1.001
 4465SOL    HW213716   4.125   2.404   0.955
 4466SOL     OW13717   4.858   2.231   1.700
 4466SOL    HW113718   4.805   2.291   1.762
 4466SOL    HW213719   4.948   2.272   1.684
 4467SOL     OW13720   4.886   2.060   1.484
 4467SOL    HW113721   4.869   2.125   1.558
 4467SOL    HW213722   4.928   2.109   1.407
 4468SOL     OW13723   3.716   3.176   0.189
 4468SOL    HW113724   3.625   3.196   0.153
 4468SOL    HW213725   3.717   3.083   0.226
 4469SOL     OW13726   3.802   3.633   0.948
 4469SOL    HW113727   3.769   3.546   0.912
 4469SOL    HW213728   3.896   3.648   0.917
 4470SOL     OW13729   4.214   3.431   0.917
 4470SOL    HW113730   4.285   3.496   0.943
 4470SOL    HW213731   4.253   3.362   0.856
 4471SOL     OW13732   4.689   2.669   1.227
 4471SOL    HW113733   4.750   2.641   1.301
 4471SOL    HW213734   4.610   2.608   1.224
 4472SOL     OW13735   3.764   2.427   1.118
 4472SOL    HW113736   3.844   2.416   1.058
 4472SOL    HW213737   3.793   2.422   1.214
 4473SOL     OW13738   3.923   2.383   1.734
 4473SOL    HW113739   3.980   2.330   1.672
 4473SOL    HW213740   3.888   2.464   1.687
 4474SOL     OW13741   5.106   2.798   1.650
 4474SOL    HW113742   5.132   2.894   1.648
 4474SOL    HW213743   5.100   2.763   1.556
 4475SOL     OW13744   4.540   2.435   0.369
 4475SOL    HW113745   4.549   2.355   0.310
 4475SOL    HW213746   4.462   2.490   0.339
 4476SOL     OW13747   5.397   2.468   1.227
 4476SOL    HW113748   5.312   2.421   1.203
 4476SOL    HW213749   5.470   2.441   1.164
 4477SOL     OW13750   3.958   3.407   1.715
 4477SOL    HW113751   3.934   3.484   1.773
 4477SOL    HW213752   3.971   3.325   1.772
 4478SOL     OW13753   4.439   2.304   1.246
 4478SOL    HW113754   4.379   2.228   1.220
 4478SOL    HW213755   4.435   2.375   1.175
 4479SOL     OW13756   4.629   3.545   1.487
 4479SOL    HW113757   4.610   3.491   1.405
 4479SOL    HW213758   4.631   3.642   1.463
 4480SOL     OW13759   4.179   2.359   0.184
 4480SOL    HW113760   4.242   2.431   0.210
 4480SOL    HW213761   4.088   2.399   0.167
 4481SOL     OW13762   3.851   2.990   1.463
 4481SOL    HW113763   3.872   2.962   1.556
 4481SOL    HW213764   3.884   2.920   1.399
 4482SOL     OW13765   5.021   2.906   1.222
 4482SOL    HW113766   5.062   2.846   1.154
 4482SOL    HW213767   4.962   2.973   1.177
 4483SOL     OW13768   5.058   2.721   0.290
 4483SOL    HW113769   4.991   2.706   0.363
 4483SOL    HW213770   5.013   2.708   0.201
 4484SOL     OW13771   5.512   3.579   1.172
 4484SOL    HW113772   5.568   3.615   1.098
 4484SOL    HW213773   5.473   3.491   1.146
 4485SOL     OW13774   4.966   3.599   1.107
 4485SOL    HW113775   5.052   3.630   1.065
 4485SOL    HW213776   4.973   3.501   1.125
 4486SOL     OW13777   3.776   3.147   1.003
 4486SOL    HW113778   3.769   3.138   1.102
 4486SOL    HW213779   3.738   3.067   0.959
 4487SOL     OW13780   4.412   3.544   1.741
 4487SOL    HW113781   4.344   3.617   1.732
 4487SOL    HW213782   4.483   3.556   1.672
 4488SOL     OW13783   4.636   1.950   0.124
 4488SOL    HW113784   4.668   1.961   0.030
 4488SOL    HW213785   4.699   1.892   0.175
 4489SOL     OW13786   5.451   2.021   0.492
 4489SOL    HW113787   5.525   2.007   0.426
 4489SOL    HW213788   5.430   1.934   0.537
 4490SOL     OW13789   5.122   3.434   0.494
 4490SOL    HW113790   5.181   3.469   0.421
 4490SOL    HW213791   5.065   3.508   0.529
 4491SOL     OW13792   3.883   3.619   1.864
 4491SOL    HW113793   3.812   3.565   1.910
 4491SOL    HW213794   3.926   3.681   1.929
 4492SOL     OW13795   5.001   2.785   0.632
 4492SOL    HW113796   5.078   2.729   0.663
 4492SOL    HW213797   5.036   2.870   0.593
 4493SOL     OW13798   4.521   3.143   1.422
 4493SOL    HW113799   4.492   3.189   1.506
 4493SOL    HW213800   4.455   3.161   1.350
 4494SOL     OW13801   4.431   3.466   0.137
 4494SOL    HW113802   4.416   3.495   0.043
 4494SOL    HW213803   4.368   3.392   0.160
 4495SOL     OW13804   5.337   3.589   1.393
 4495SOL    HW113805   5.398   3.584   1.315
 4495SOL    HW213806   5.323   3.685   1.419
 4496SOL     OW13807   5.572   2.029   0.960
 4496SOL    HW113808   5.601   1.936   0.938
 4496SOL    HW213809   5.479   2.044   0.926
 4497SOL     OW13810   3.974   2.170   0.714
 4497SOL    HW113811   3.886   2.205   0.685
 4497SOL    HW213812   3.978   2.168   0.814
 4498SOL     OW13813   4.933   3.457   0.033
 4498SOL    HW113814   4.923   3.366   0.073
 4498SOL    HW213815   4.863   3.471  -0.036
 4499SOL     OW13816   4.547   2.872   1.385
 4499SOL    HW113817   4.600   2.846   1.305
 4499SOL    HW213818   4.544   2.971   1.393
 4500SOL     OW13819   4.644   2.767   0.276
 4500SOL    HW113820   4.706   2.812   0.212
 4500SOL    HW213821   4.695   2.702   0.332
 4501SOL     OW13822   5.210   3.499   0.044
 4501SOL    HW113823   5.112   3.481   0.033
 4501SOL    HW213824   5.252   3.504  -0.047
 4502SOL     OW13825   4.078   3.163   1.488
 4502SOL    HW113826   4.081   3.242   1.426
 4502SOL    HW213827   3.995   3.111   1.470
 4503SOL     OW13828   5.335   3.149   1.293
 4503SOL    HW113829   5.388   3.122   1.373
 4503SOL    HW213830   5.269   3.219   1.318
 4504SOL     OW13831   4.797   2.966   0.718
 4504SOL    HW113832   4.718   2.920   0.757
 4504SOL    HW213833   4.864   2.898   0.687
 4505SOL     OW13834   4.749   2.098   0.964
 4505SOL    HW113835   4.748   2.054   0.874
 4505SOL    HW213836   4.743   2.027   1.035
 4506SOL     OW13837   5.478   2.221   1.407
 4506SOL    HW113838   5.502   2.315   1.381
 4506SOL    HW213839   5.503   2.159   1.333
 4507SOL     OW13840   3.971   3.213   0.264
 4507SOL    HW113841   3.874   3.204   0.241
 4507SOL    HW213842   3.980   3.250   0.356
 4508SOL     OW13843   3.877   2.901   1.726
 4508SOL    HW113844   3.803   2.855   1.775
 4508SOL    HW213845   3.965   2.862   1.753
 4509SOL     OW13846   4.410   2.051   1.501
 4509SOL    HW113847   4.496   2.027   1.455
 4509SOL    HW213848   4.430   2.089   1.591
 4510SOL     OW13849   3.800   2.182   5.619
 4510SOL    HW113850   3.716   2.153   5.573
 4510SOL    HW213851   3.834   2.266   5.576
 4511SOL     OW13852   5.133   2.716   1.392
 4511SOL    HW113853   5.074   2.777   1.338
 4511SOL    HW213854   5.226   2.719   1.356
 4512SOL     OW13855   3.782   2.018   0.286
 4512SOL    HW113856   3.764   2.093   0.223
 4512SOL    HW213857   3.871   1.978   0.265
 4513SOL     OW13858   4.903   3.197   0.123
 4513SOL    HW113859   4.808   3.169   0.114
 4513SOL    HW213860   4.929   3.199   0.219
 4514SOL     OW13861   4.353   2.690   1.438
 4514SOL    HW113862   4.410   2.771   1.423
 4514SOL    HW213863   4.410   2.609   1.442
 4515SOL     OW13864   5.211   3.672   1.002
 4515SOL    HW113865   5.240   3.735   0.930
 4515SOL    HW213866   5.286   3.609   1.023
 4516SOL     OW13867   4.441   2.413   1.703
 4516SOL    HW113868   4.490   2.480   1.758
 4516SOL    HW213869   4.462   2.321   1.735
 4517SOL     OW13870   5.197   3.057   1.636
 4517SOL    HW113871   5.188   3.073   1.734
 4517SOL    HW213872   5.289   3.081   1.606
 4518SOL     OW13873   4.085   3.606   1.573
 4518SOL    HW113874   4.011   3.643   1.517
 4518SOL    HW213875   4.055   3.522   1.617
 4519SOL     OW13876   5.380   2.738   1.276
 4519SOL    HW113877   5.389   2.643   1.244
 4519SOL    HW213878   5.387   2.800   1.199
 4520SOL     OW13879   4.946   2.179   0.453
 4520SOL    HW113880   5.008   2.101   0.451
 4520SOL    HW213881   4.965   2.236   0.533
 4521SOL     OW13882   4.300   2.597   0.675
 4521SOL    HW113883   4.346   2.684   0.664
 4521SOL    HW213884   4.237   2.582   0.599
 4522SOL     OW13885   5.477   2.213   1.678
 4522SOL    HW113886   5.485   2.226   1.579
 4522SOL    HW213887   5.395   2.160   1.698
 4523SOL     OW13888   5.501   2.763   1.513
 4523SOL    HW113889   5.566   2.839   1.509
 4523SOL    HW213890   5.454   2.754   1.425
 4524SOL     OW13891   4.607   3.226   0.033
 4524SOL    HW113892   4.583   3.207   0.128
 4524SOL    HW213893   4.585   3.321   0.011
 4525SOL     OW13894   4.399   3.620   0.962
 4525SOL    HW113895   4.372   3.714   0.941
 4525SOL    HW213896   4.496   3.608   0.939
 4526SOL     OW13897   4.591   2.840   0.854
 4526SOL    HW113898   4.639   2.757   0.883
 4526SOL    HW213899   4.549   2.885   0.933
 4527SOL     OW13900   4.807   2.860   0.080
 4527SOL    HW113901   4.775   2.911   0.001
 4527SOL    HW213902   4.878   2.795   0.052
 4528SOL     OW13903   5.558   3.412   0.840
 4528SOL    HW113904   5.475   3.400   0.787
 4528SOL    HW213905   5.564   3.340   0.910
 4529SOL     OW13906   3.963   3.165   1.860
 4529SOL    HW113907   3.905   3.092   1.824
 4529SOL    HW213908   3.957   3.167   1.959
 4530SOL     OW13909   3.816   3.078   0.677
 4530SOL    HW113910   3.862   3.026   0.749
 4530SOL    HW213911   3.867   3.069   0.592
 4531SOL     OW13912   4.413   3.275   1.638
 4531SOL    HW113913   4.329   3.230   1.669
 4531SOL    HW213914   4.415   3.369   1.671
 4532SOL     OW13915   5.538   2.026   1.232
 4532SOL    HW113916   5.531   1.926   1.236
 4532SOL    HW213917   5.551   2.055   1.137
 4533SOL     OW13918   4.150   2.286   0.526
 4533SOL    HW113919   4.186   2.220   0.461
 4533SOL    HW213920   4.095   2.239   0.595
 4534SOL     OW13921   5.408   3.342   1.096
 4534SOL    HW113922   5.333   3.320   1.035
 4534SOL    HW213923   5.420   3.269   1.164
 4535SOL     OW13924   4.067   2.422   1.288
 4535SOL    HW113925   4.124   2.361   1.344
 4535SOL    HW213926   4.079   2.397   1.191
 4536SOL     OW13927   4.551   3.463   0.663
 4536SOL    HW113928   4.553   3.552   0.617
 4536SOL    HW213929   4.476   3.408   0.627
 4537SOL     OW13930   5.146   2.090   1.121
 4537SOL    HW113931   5.167   2.002   1.162
 4537SOL    HW213932   5.094   2.146   1.185
 4538SOL     OW13933   4.731   1.872   1.132
 4538SOL    HW113934   4.669   1.812   1.080
 4538SOL    HW213935   4.823   1.831   1.132
 4539SOL     OW13936   4.551   3.176   0.286
 4539SOL    HW113937   4.457   3.167   0.319
 4539SOL    HW213938   4.609   3.212   0.360
 4540SOL     OW13939   4.347   3.423   1.297
 4540SOL    HW113940   4.344   3.509   1.348
 4540SOL    HW213941   4.436   3.413   1.252
 4541SOL     OW13942   5.079   1.905   0.177
 4541SOL    HW113943   5.122   1.834   0.121
 4541SOL    HW213944   4.984   1.882   0.194
 4542SOL     OW13945   4.996   2.326   0.675
 4542SOL    HW113946   4.949   2.414   0.679
 4542SOL    HW213947   5.004   2.288   0.767
 4543SOL     OW13948   5.310   2.062   0.894
 4543SOL    HW113949   5.255   2.089   0.973
 4543SOL    HW213950   5.315   2.139   0.830
 4544SOL     OW13951   3.759   2.924   0.313
 4544SOL    HW113952   3.857   2.930   0.297
 4544SOL    HW213953   3.733   2.829   0.329
 4545SOL     OW13954   4.616   3.538   0.333
 4545SOL    HW113955   4.543   3.506   0.272
 4545SOL    HW213956   4.578   3.602   0.400
 4546SOL     OW13957   3.936   2.480   1.996
 4546SOL    HW113958   3.844   2.472   2.034
 4546SOL    HW213959   3.934   2.459   1.899
 4547SOL     OW13960   3.945   2.143   2.857
 4547SOL    HW113961   3.976   2.111   2.947
 4547SOL    HW213962   3.852   2.112   2.841
 4548SOL     OW13963   3.735   2.245   2.489
 4548SOL    HW113964   3.657   2.279   2.541
 4548SOL    HW213965   3.707   2.166   2.434
 4549SOL     OW13966   4.268   3.108   3.034
 4549SOL    HW113967   4.198   3.174   3.007
 4549SOL    HW213968   4.320   3.144   3.111
 4550SOL     OW13969   5.298   3.379   2.568
 4550SOL    HW113970   5.251   3.349   2.651
 4550SOL    HW213971   5.232   3.385   2.493
 4551SOL     OW13972   4.867   2.562   2.553
 4551SOL    HW113973   4.915   2.648   2.533
 4551SOL    HW213974   4.814   2.573   2.637
 4552SOL     OW13975   5.496   2.458   2.087
 4552SOL    HW113976   5.469   2.463   1.991
 4552SOL    HW213977   5.460   2.373   2.127
 4553SOL     OW13978   4.462   2.993   2.890
 4553SOL    HW113979   4.386   3.022   2.948
 4553SOL    HW213980   4.513   3.073   2.860
 4554SOL     OW13981   4.605   2.618   3.677
 4554SOL    HW113982   4.584   2.687   3.746
 4554SOL    HW213983   4.627   2.662   3.591
 4555SOL     OW13984   4.407   2.854   2.510
 4555SOL    HW113985   4.479   2.848   2.578
 4555SOL    HW213986   4.334   2.915   2.544
 4556SOL     OW13987   4.423   3.014   3.681
 4556SOL    HW113988   4.460   3.106   3.693
 4556SOL    HW213989   4.334   3.021   3.635
 4557SOL     OW13990   4.055   3.280   2.927
 4557SOL    HW113991   3.977   3.237   2.881
 4557SOL    HW213992   4.106   3.335   2.860
 4558SOL     OW13993   5.187   3.370   3.224
 4558SOL    HW113994   5.241   3.454   3.233
 4558SOL    HW213995   5.113   3.371   3.291
 4559SOL     OW13996   4.176   2.244   3.325
 4559SOL    HW113997   4.255   2.185   3.341
 4559SOL    HW213998   4.093   2.196   3.353
 4560SOL     OW13999   5.323   2.310   2.610
 4560SOL    HW114000   5.250   2.321   2.543
 4560SOL    HW214001   5.319   2.384   2.677
 4561SOL     OW14002   3.957   3.576   2.335
 4561SOL    HW114003   3.976   3.654   2.395
 4561SOL    HW214004   4.032   3.566   2.269
 4562SOL     OW14005   4.864   3.201   3.564
 4562SOL    HW114006   4.899   3.197   3.658
 4562SOL    HW214007   4.807   3.121   3.546
 4563SOL     OW14008   3.962   3.300   2.392
 4563SOL    HW114009   3.947   3.399   2.401
 4563SOL    HW214010   3.911   3.252   2.464
 4564SOL     OW14011   3.997   2.953   2.753
 4564SOL    HW114012   4.002   2.858   2.783
 4564SOL    HW214013   3.952   3.008   2.823
 4565SOL     OW14014   4.321   3.680   3.299
 4565SOL    HW114015   4.238   3.649   3.345
 4565SOL    HW214016   4.345   3.772   3.331
 4566SOL     OW14017   4.305   2.852   2.009
 4566SOL    HW114018   4.352   2.900   1.936
 4566SOL    HW214019   4.345   2.878   2.097
 4567SOL     OW14020   5.326   1.984   3.337
 4567SOL    HW114021   5.348   2.063   3.280
 4567SOL    HW214022   5.300   2.015   3.429
 4568SOL     OW14023   3.837   2.534   2.426
 4568SOL    HW114024   3.813   2.438   2.443
 4568SOL    HW214025   3.828   2.586   2.511
 4569SOL     OW14026  -0.019   3.615   2.194
 4569SOL    HW114027   0.056   3.589   2.254
 4569SOL    HW214028  -0.007   3.710   2.165
 4570SOL     OW14029   3.717   3.451   2.001
 4570SOL    HW114030   3.734   3.355   2.022
 4570SOL    HW214031   3.707   3.502   2.087
 4571SOL     OW14032   5.420   2.787   2.505
 4571SOL    HW114033   5.497   2.732   2.470
 4571SOL    HW214034   5.388   2.849   2.433
 4572SOL     OW14035   5.378   2.969   2.296
 4572SOL    HW114036   5.465   2.963   2.247
 4572SOL    HW214037   5.386   3.038   2.368
 4573SOL     OW14038   3.844   2.608   3.442
 4573SOL    HW114039   3.937   2.643   3.445
 4573SOL    HW214040   3.779   2.684   3.437
 4574SOL     OW14041   4.340   3.256   2.592
 4574SOL    HW114042   4.295   3.167   2.603
 4574SOL    HW214043   4.325   3.289   2.499
 4575SOL     OW14044   5.031   3.084   3.289
 4575SOL    HW114045   5.050   3.015   3.220
 4575SOL    HW214046   5.093   3.073   3.366
 4576SOL     OW14047   4.546   1.877   2.375
 4576SOL    HW114048   4.591   1.962   2.347
 4576SOL    HW214049   4.447   1.892   2.378
 4577SOL     OW14050   3.912   2.820   3.144
 4577SOL    HW114051   4.004   2.783   3.132
 4577SOL    HW214052   3.848   2.769   3.086
 4578SOL     OW14053   5.252   2.866   2.071
 4578SOL    HW114054   5.179   2.805   2.102
 4578SOL    HW214055   5.300   2.903   2.150
 4579SOL     OW14056   4.933   3.689   3.486
 4579SOL    HW114057   4.911   3.751   3.410
 4579SOL    HW214058   4.929   3.595   3.455
 4580SOL     OW14059   4.080   2.117   3.711
 4580SOL    HW114060   4.122   2.204   3.736
 4580SOL    HW214061   3.980   2.125   3.719
 4581SOL     OW14062   5.177   3.287   2.801
 4581SOL    HW114063   5.113   3.303   2.876
 4581SOL    HW214064   5.172   3.190   2.774
 4582SOL     OW14065   5.366   3.628   2.435
 4582SOL    HW114066   5.348   3.599   2.341
 4582SOL    HW214067   5.353   3.550   2.496
 4583SOL     OW14068   4.317   2.577   2.140
 4583SOL    HW114069   4.324   2.664   2.092
 4583SOL    HW214070   4.247   2.584   2.212
 4584SOL     OW14071   5.011   2.227   2.797
 4584SOL    HW114072   4.916   2.197   2.803
 4584SOL    HW214073   5.068   2.172   2.858
 4585SOL     OW14074   5.309   3.541   2.173
 4585SOL    HW114075   5.407   3.559   2.168
 4585SOL    HW214076   5.272   3.525   2.081
 4586SOL     OW14077   4.528   2.465   3.307
 4586SOL    HW114078   4.497   2.443   3.399
 4586SOL    HW214079   4.489   2.401   3.242
 4587SOL     OW14080   5.115   2.334   3.542
 4587SOL    HW114081   5.114   2.385   3.628
 4587SOL    HW214082   5.176   2.255   3.550
 4588SOL     OW14083   4.675   2.749   3.443
 4588SOL    HW114084   4.733   2.679   3.402
 4588SOL    HW214085   4.623   2.795   3.371
 4589SOL     OW14086   4.725   2.252   3.086
 4589SOL    HW114087   4.634   2.278   3.118
 4589SOL    HW214088   4.718   2.221   2.991
 4590SOL     OW14089   4.778   2.558   2.284
 4590SOL    HW114090   4.800   2.555   2.382
 4590SOL    HW214091   4.690   2.513   2.268
 4591SOL     OW14092   3.815   2.683   2.654
 4591SOL    HW114093   3.903   2.675   2.700
 4591SOL    HW214094   3.765   2.762   2.691
 4592SOL     OW14095   3.846   3.742   3.452
 4592SOL    HW114096   3.852   3.718   3.549
 4592SOL    HW214097   3.779   3.683   3.408
 4593SOL     OW14098   4.622   2.215   2.060
 4593SOL    HW114099   4.666   2.284   2.002
 4593SOL    HW214100   4.612   2.129   2.008
 4594SOL     OW14101   5.417   2.431   3.691
 4594SOL    HW114102   5.388   2.513   3.640
 4594SOL    HW214103   5.448   2.361   3.627
 4595SOL     OW14104   5.109   3.008   2.394
 4595SOL    HW114105   5.193   2.995   2.340
 4595SOL    HW214106   5.050   3.074   2.348
 4596SOL     OW14107   4.273   2.025   2.770
 4596SOL    HW114108   4.275   2.059   2.864
 4596SOL    HW214109   4.270   2.103   2.707
 4597SOL     OW14110   4.717   3.311   2.324
 4597SOL    HW114111   4.688   3.390   2.270
 4597SOL    HW214112   4.692   3.325   2.420
 4598SOL     OW14113   4.079   3.678   2.741
 4598SOL    HW114114   4.124   3.589   2.745
 4598SOL    HW214115   4.146   3.750   2.759
 4599SOL     OW14116   5.527   2.909   2.741
 4599SOL    HW114117   5.479   2.892   2.655
 4599SOL    HW214118   5.460   2.919   2.815
 4600SOL     OW14119   4.960   3.396   3.378
 4600SOL    HW114120   4.947   3.333   3.454
 4600SOL    HW214121   4.900   3.371   3.303
 4601SOL     OW14122   4.044   2.817   2.117
 4601SOL    HW114123   4.130   2.841   2.074
 4601SOL    HW214124   4.016   2.725   2.087
 4602SOL     OW14125   5.216   2.617   2.576
 4602SOL    HW114126   5.210   2.580   2.669
 4602SOL    HW214127   5.293   2.679   2.570
 4603SOL     OW14128   4.177   3.079   3.592
 4603SOL    HW114129   4.165   3.110   3.498
 4603SOL    HW214130   4.094   3.100   3.645
 4604SOL     OW14131   4.851   3.631   2.093
 4604SOL    HW114132   4.766   3.599   2.134
 4604SOL    HW214133   4.879   3.569   2.020
 4605SOL     OW14134   3.925   2.133   3.367
 4605SOL    HW114135   3.844   2.192   3.371
 4605SOL    HW214136   3.904   2.045   3.408
 4606SOL     OW14137   5.354   3.254   1.967
 4606SOL    HW114138   5.317   3.343   1.941
 4606SOL    HW214139   5.289   3.182   1.941
 4607SOL     OW14140   4.190   3.595   2.179
 4607SOL    HW114141   4.234   3.658   2.244
 4607SOL    HW214142   4.259   3.560   2.116
 4608SOL     OW14143   5.118   1.959   2.302
 4608SOL    HW114144   5.093   1.937   2.207
 4608SOL    HW214145   5.217   1.956   2.312
 4609SOL     OW14146   3.985   3.651   3.080
 4609SOL    HW114147   4.034   3.575   3.121
 4609SOL    HW214148   3.968   3.632   2.983
 4610SOL     OW14149   4.653   3.565   2.752
 4610SOL    HW114150   4.699   3.503   2.814
 4610SOL    HW214151   4.620   3.514   2.672
 4611SOL     OW14152   4.118   2.548   2.337
 4611SOL    HW114153   4.136   2.451   2.350
 4611SOL    HW214154   4.022   2.568   2.355
 4612SOL     OW14155   5.244   2.083   3.588
 4612SOL    HW114156   5.259   2.102   3.685
 4612SOL    HW214157   5.162   2.027   3.578
 4613SOL     OW14158   4.375   1.972   1.962
 4613SOL    HW114159   4.442   1.900   1.981
 4613SOL    HW214160   4.312   1.942   1.890
 4614SOL     OW14161   4.482   2.137   3.618
 4614SOL    HW114162   4.570   2.090   3.611
 4614SOL    HW214163   4.429   2.098   3.693
 4615SOL     OW14164   4.615   3.400   3.022
 4615SOL    HW114165   4.574   3.358   2.940
 4615SOL    HW214166   4.606   3.337   3.099
 4616SOL     OW14167   5.063   2.444   3.295
 4616SOL    HW114168   5.092   2.415   3.386
 4616SOL    HW214169   5.092   2.539   3.280
 4617SOL     OW14170   4.541   3.250   2.799
 4617SOL    HW114171   4.632   3.236   2.761
 4617SOL    HW214172   4.474   3.252   2.726
 4618SOL     OW14173   4.653   2.366   2.753
 4618SOL    HW114174   4.624   2.360   2.658
 4618SOL    HW214175   4.682   2.275   2.785
 4619SOL     OW14176   4.276   1.926   2.351
 4619SOL    HW114177   4.194   1.924   2.409
 4619SOL    HW214178   4.271   2.005   2.290
 4620SOL     OW14179   5.156   3.071   1.910
 4620SOL    HW114180   5.185   2.990   1.961
 4620SOL    HW214181   5.065   3.098   1.941
 4621SOL     OW14182   4.010   1.910   2.048
 4621SOL    HW114183   4.057   1.981   1.996
 4621SOL    HW214184   4.078   1.848   2.089
 4622SOL     OW14185   4.674   2.114   2.313
 4622SOL    HW114186   4.643   2.152   2.226
 4622SOL    HW214187   4.772   2.131   2.324
 4623SOL     OW14188   4.801   2.547   3.314
 4623SOL    HW114189   4.720   2.489   3.317
 4623SOL    HW214190   4.883   2.490   3.310
 4624SOL     OW14191   4.945   3.420   2.647
 4624SOL    HW114192   4.957   3.499   2.587
 4624SOL    HW214193   5.025   3.410   2.706
 4625SOL     OW14194   4.197   3.018   2.580
 4625SOL    HW114195   4.133   2.996   2.654
 4625SOL    HW214196   4.151   3.008   2.492
 4626SOL     OW14197   4.987   3.653   2.484
 4626SOL    HW114198   5.035   3.715   2.422
 4626SOL    HW214199   4.904   3.699   2.518
 4627SOL     OW14200   4.746   2.395   1.896
 4627SOL    HW114201   4.699   2.479   1.867
 4627SOL    HW214202   4.821   2.418   1.958
 4628SOL     OW14203   3.816   2.414   3.255
 4628SOL    HW114204   3.911   2.412   3.223
 4628SOL    HW214205   3.805   2.485   3.324
 4629SOL     OW14206   4.280   2.088   3.039
 4629SOL    HW114207   4.329   2.018   3.091
 4629SOL    HW214208   4.184   2.089   3.066
 4630SOL     OW14209   4.590   2.318   2.493
 4630SOL    HW114210   4.541   2.383   2.435
 4630SOL    HW214211   4.617   2.238   2.439
 4631SOL     OW14212   4.747   1.912   2.597
 4631SOL    HW114213   4.684   1.920   2.520
 4631SOL    HW214214   4.717   1.839   2.658
 4632SOL     OW14215   5.172   3.024   2.720
 4632SOL    HW114216   5.089   2.968   2.725
 4632SOL    HW214217   5.202   3.030   2.624
 4633SOL     OW14218   5.196   2.473   2.822
 4633SOL    HW114219   5.127   2.400   2.825
 4633SOL    HW214220   5.253   2.468   2.903
 4634SOL     OW14221   5.561   2.670   2.248
 4634SOL    HW114222   5.631   2.627   2.305
 4634SOL    HW214223   5.535   2.608   2.175
 4635SOL     OW14224   4.215   3.286   2.016
 4635SOL    HW114225   4.131   3.261   2.064
 4635SOL    HW214226   4.221   3.235   1.930
 4636SOL     OW14227   5.409   3.129   2.508
 4636SOL    HW114228   5.509   3.126   2.517
 4636SOL    HW214229   5.377   3.223   2.523
 4637SOL     OW14230   5.113   2.441   1.926
 4637SOL    HW114231   5.059   2.415   2.007
 4637SOL    HW214232   5.210   2.429   1.946
 4638SOL     OW14233   4.255   2.124   2.166
 4638SOL    HW114234   4.304   2.073   2.095
 4638SOL    HW214235   4.223   2.211   2.128
 4639SOL     OW14236   5.478   3.105   3.408
 4639SOL    HW114237   5.568   3.064   3.391
 4639SOL    HW214238   5.491   3.198   3.444
 4640SOL     OW14239   4.827   3.231   3.192
 4640SOL    HW114240   4.735   3.212   3.227
 4640SOL    HW214241   4.893   3.172   3.239
 4641SOL     OW14242   5.344   3.500   3.524
 4641SOL    HW114243   5.319   3.528   3.432
 4641SOL    HW214244   5.428   3.446   3.521
 4642SOL     OW14245   4.850   3.068   2.961
 4642SOL    HW114246   4.808   3.119   3.036
 4642SOL    HW214247   4.827   3.111   2.874
 4643SOL     OW14248   5.344   2.957   2.942
 4643SOL    HW114249   5.339   3.024   3.017
 4643SOL    HW214250   5.272   2.976   2.876
 4644SOL     OW14251   4.654   1.953   3.248
 4644SOL    HW114252   4.673   1.939   3.151
 4644SOL    HW214253   4.732   2.000   3.291
 4645SOL     OW14254   4.699   2.973   3.594
 4645SOL    HW114255   4.603   2.997   3.611
 4645SOL    HW214256   4.703   2.895   3.532
 4646SOL     OW14257   4.439   2.919   2.239
 4646SOL    HW114258   4.421   2.898   2.336
 4646SOL    HW214259   4.518   2.867   2.208
 4647SOL     OW14260   4.149   2.680   3.121
 4647SOL    HW114261   4.222   2.693   3.188
 4647SOL    HW214262   4.110   2.589   3.130
 4648SOL     OW14263   4.990   2.228   3.145
 4648SOL    HW114264   5.024   2.309   3.192
 4648SOL    HW214265   4.895   2.243   3.119
 4649SOL     OW14266   3.801   3.436   3.220
 4649SOL    HW114267   3.768   3.503   3.154
 4649SOL    HW214268   3.901   3.428   3.212
 4650SOL     OW14269   4.054   2.987   2.345
 4650SOL    HW114270   4.057   3.070   2.289
 4650SOL    HW214271   4.054   2.906   2.286
 4651SOL     OW14272   4.268   2.402   2.725
 4651SOL    HW114273   4.280   2.461   2.645
 4651SOL    HW214274   4.336   2.424   2.794
 4652SOL     OW14275   4.968   3.216   2.262
 4652SOL    HW114276   5.030   3.289   2.291
 4652SOL    HW214277   4.874   3.239   2.289
 4653SOL     OW14278   5.017   3.344   3.014
 4653SOL    HW114279   5.084   3.347   3.088
 4653SOL    HW214280   4.934   3.296   3.046
 4654SOL     OW14281   5.306   2.479   2.347
 4654SOL    HW114282   5.255   2.526   2.419
 4654SOL    HW214283   5.342   2.545   2.282
 4655SOL     OW14284   4.065   3.391   3.168
 4655SOL    HW114285   4.050   3.343   3.081
 4655SOL    HW214286   4.161   3.415   3.177
 4656SOL     OW14287   4.140   2.613   3.464
 4656SOL    HW114288   4.211   2.652   3.405
 4656SOL    HW214289   4.166   2.519   3.489
 4657SOL     OW14290   5.342   2.649   3.550
 4657SOL    HW114291   5.250   2.689   3.547
 4657SOL    HW214292   5.398   2.690   3.478
 4658SOL     OW14293   4.720   2.008   3.617
 4658SOL    HW114294   4.777   2.088   3.598
 4658SOL    HW214295   4.777   1.933   3.651
 4659SOL     OW14296   4.209   1.892   3.626
 4659SOL    HW114297   4.160   1.838   3.558
 4659SOL    HW214298   4.157   1.974   3.648
 4660SOL     OW14299   4.311   2.736   2.901
 4660SOL    HW114300   4.350   2.827   2.895
 4660SOL    HW214301   4.251   2.731   2.981
 4661SOL     OW14302   5.063   2.715   2.879
 4661SOL    HW114303   4.970   2.707   2.844
 4661SOL    HW214304   5.113   2.630   2.863
 4662SOL     OW14305   4.929   2.386   2.129
 4662SOL    HW114306   4.933   2.303   2.183
 4662SOL    HW214307   4.882   2.458   2.180
 4663SOL     OW14308   4.018   2.057   3.110
 4663SOL    HW114309   3.979   2.093   3.195
 4663SOL    HW214310   4.003   1.959   3.104
 4664SOL     OW14311   3.774   3.175   3.133
 4664SOL    HW114312   3.805   3.111   3.202
 4664SOL    HW214313   3.780   3.268   3.169
 4665SOL     OW14314   4.446   2.494   2.913
 4665SOL    HW114315   4.522   2.481   2.850
 4665SOL    HW214316   4.407   2.586   2.900
 4666SOL     OW14317   5.468   2.823   3.725
 4666SOL    HW114318   5.426   2.754   3.667
 4666SOL    HW214319   5.406   2.846   3.800
 4667SOL     OW14320   4.038   1.920   2.491
 4667SOL    HW114321   4.010   2.014   2.507
 4667SOL    HW214322   4.047   1.872   2.578
 4668SOL     OW14323   5.354   2.240   2.230
 4668SOL    HW114324   5.362   2.170   2.300
 4668SOL    HW214325   5.324   2.326   2.271
 4669SOL     OW14326   4.753   2.611   2.814
 4669SOL    HW114327   4.742   2.632   2.911
 4669SOL    HW214328   4.722   2.518   2.796
 4670SOL     OW14329   4.729   3.444   3.575
 4670SOL    HW114330   4.694   3.485   3.491
 4670SOL    HW214331   4.756   3.349   3.558
 4671SOL     OW14332  -0.015   3.364   3.463
 4671SOL    HW114333   0.007   3.388   3.369
 4671SOL    HW214334   0.066   3.372   3.520
 4672SOL     OW14335   4.066   2.777   3.668
 4672SOL    HW114336   4.147   2.816   3.712
 4672SOL    HW214337   4.094   2.714   3.596
 4673SOL     OW14338   5.252   2.118   1.995
 4673SOL    HW114339   5.178   2.057   2.023
 4673SOL    HW214340   5.286   2.168   2.074
 4674SOL     OW14341   5.012   2.691   1.883
 4674SOL    HW114342   5.050   2.599   1.888
 4674SOL    HW214343   5.042   2.735   1.798
 4675SOL     OW14344   4.794   3.201   2.718
 4675SOL    HW114345   4.801   3.122   2.657
 4675SOL    HW214346   4.848   3.276   2.681
 4676SOL     OW14347   4.045   2.672   2.805
 4676SOL    HW114348   4.142   2.695   2.807
 4676SOL    HW214349   4.033   2.578   2.836
 4677SOL     OW14350   4.045   2.391   2.872
 4677SOL    HW114351   4.006   2.300   2.863
 4677SOL    HW214352   4.126   2.399   2.814
 4678SOL     OW14353   4.862   2.234   3.559
 4678SOL    HW114354   4.807   2.291   3.621
 4678SOL    HW214355   4.952   2.274   3.548
 4679SOL     OW14356   4.894   2.060   3.346
 4679SOL    HW114357   4.874   2.124   3.420
 4679SOL    HW214358   4.934   2.110   3.269
 4680SOL     OW14359   3.717   3.169   2.070
 4680SOL    HW114360   3.620   3.178   2.049
 4680SOL    HW214361   3.736   3.075   2.097
 4681SOL     OW14362   3.817   3.642   2.809
 4681SOL    HW114363   3.781   3.561   2.763
 4681SOL    HW214364   3.910   3.660   2.776
 4682SOL     OW14365   4.213   3.438   2.763
 4682SOL    HW114366   4.283   3.501   2.795
 4682SOL    HW214367   4.255   3.371   2.702
 4683SOL     OW14368   4.696   2.644   3.077
 4683SOL    HW114369   4.755   2.626   3.156
 4683SOL    HW214370   4.603   2.615   3.098
 4684SOL     OW14371   3.770   2.423   2.981
 4684SOL    HW114372   3.852   2.417   2.925
 4684SOL    HW214373   3.796   2.417   3.078
 4685SOL     OW14374   3.916   2.390   3.595
 4685SOL    HW114375   3.961   2.332   3.527
 4685SOL    HW214376   3.875   2.469   3.550
 4686SOL     OW14377   5.109   2.788   3.515
 4686SOL    HW114378   5.135   2.884   3.516
 4686SOL    HW214379   5.099   2.757   3.421
 4687SOL     OW14380   4.542   2.435   2.226
 4687SOL    HW114381   4.552   2.356   2.165
 4687SOL    HW214382   4.463   2.490   2.198
 4688SOL     OW14383   5.370   2.461   3.034
 4688SOL    HW114384   5.351   2.410   3.118
 4688SOL    HW214385   5.462   2.441   3.002
 4689SOL     OW14386   3.957   3.407   3.586
 4689SOL    HW114387   3.940   3.473   3.659
 4689SOL    HW214388   3.968   3.316   3.627
 4690SOL     OW14389   4.446   2.305   3.105
 4690SOL    HW114390   4.380   2.232   3.087
 4690SOL    HW214391   4.437   2.376   3.035
 4691SOL     OW14392   4.634   3.558   3.347
 4691SOL    HW114393   4.616   3.495   3.271
 4691SOL    HW214394   4.625   3.652   3.314
 4692SOL     OW14395   4.177   2.356   2.045
 4692SOL    HW114396   4.243   2.426   2.070
 4692SOL    HW214397   4.086   2.397   2.036
 4693SOL     OW14398   3.859   3.003   3.336
 4693SOL    HW114399   3.865   2.965   3.429
 4693SOL    HW214400   3.881   2.932   3.270
 4694SOL     OW14401   5.034   2.901   3.076
 4694SOL    HW114402   5.058   2.834   3.006
 4694SOL    HW214403   4.966   2.964   3.040
 4695SOL     OW14404   5.043   2.712   2.156
 4695SOL    HW114405   4.962   2.691   2.211
 4695SOL    HW214406   5.021   2.705   2.059
 4696SOL     OW14407   5.483   3.581   3.006
 4696SOL    HW114408   5.557   3.614   2.947
 4696SOL    HW214409   5.465   3.484   2.986
 4697SOL     OW14410   4.980   3.619   2.987
 4697SOL    HW114411   5.070   3.638   2.947
 4697SOL    HW214412   4.971   3.520   3.002
 4698SOL     OW14413   3.816   3.136   2.870
 4698SOL    HW114414   3.798   3.150   2.968
 4698SOL    HW214415   3.763   3.058   2.837
 4699SOL     OW14416   4.414   3.565   3.607
 4699SOL    HW114417   4.346   3.637   3.596
 4699SOL    HW214418   4.481   3.570   3.532
 4700SOL     OW14419   5.482   1.989   2.381
 4700SOL    HW114420   5.537   2.001   2.299
 4700SOL    HW214421   5.447   1.896   2.385
 4701SOL     OW14422   5.126   3.432   2.355
 4701SOL    HW114423   5.184   3.464   2.280
 4701SOL    HW214424   5.065   3.506   2.384
 4702SOL     OW14425   3.863   3.660   3.710
 4702SOL    HW114426   3.810   3.585   3.751
 4702SOL    HW214427   3.917   3.705   3.780
 4703SOL     OW14428   5.010   2.791   2.520
 4703SOL    HW114429   5.086   2.728   2.535
 4703SOL    HW214430   5.042   2.869   2.466
 4704SOL     OW14431   4.394   3.490   2.015
 4704SOL    HW114432   4.412   3.509   1.919
 4704SOL    HW214433   4.336   3.408   2.022
 4705SOL     OW14434   5.337   3.604   3.247
 4705SOL    HW114435   5.398   3.597   3.168
 4705SOL    HW214436   5.332   3.699   3.277
 4706SOL     OW14437   3.981   2.170   2.577
 4706SOL    HW114438   3.894   2.207   2.545
 4706SOL    HW214439   3.981   2.166   2.677
 4707SOL     OW14440   4.935   3.459   1.898
 4707SOL    HW114441   4.925   3.364   1.928
 4707SOL    HW214442   4.870   3.477   1.824
 4708SOL     OW14443   4.546   2.871   3.233
 4708SOL    HW114444   4.595   2.856   3.147
 4708SOL    HW214445   4.528   2.968   3.245
 4709SOL     OW14446   4.648   2.774   2.155
 4709SOL    HW114447   4.705   2.808   2.080
 4709SOL    HW214448   4.696   2.701   2.203
 4710SOL     OW14449   5.212   3.505   1.910
 4710SOL    HW114450   5.114   3.485   1.897
 4710SOL    HW214451   5.257   3.508   1.821
 4711SOL     OW14452   4.083   3.174   3.355
 4711SOL    HW114453   4.081   3.251   3.291
 4711SOL    HW214454   4.004   3.114   3.338
 4712SOL     OW14455   5.339   3.148   3.150
 4712SOL    HW114456   5.396   3.125   3.228
 4712SOL    HW214457   5.269   3.214   3.178
 4713SOL     OW14458   4.798   2.968   2.584
 4713SOL    HW114459   4.719   2.919   2.619
 4713SOL    HW214460   4.865   2.902   2.548
 4714SOL     OW14461   4.756   2.103   2.823
 4714SOL    HW114462   4.750   2.061   2.733
 4714SOL    HW214463   4.747   2.033   2.893
 4715SOL     OW14464   4.327   3.351   2.339
 4715SOL    HW114465   4.382   3.295   2.278
 4715SOL    HW214466   4.253   3.394   2.287
 4716SOL     OW14467   5.464   2.257   3.250
 4716SOL    HW114468   5.538   2.324   3.249
 4716SOL    HW214469   5.488   2.180   3.190
 4717SOL     OW14470   3.975   3.210   2.142
 4717SOL    HW114471   3.879   3.197   2.121
 4717SOL    HW214472   3.984   3.250   2.234
 4718SOL     OW14473   3.840   2.917   3.601
 4718SOL    HW114474   3.757   2.886   3.646
 4718SOL    HW214475   3.917   2.861   3.632
 4719SOL     OW14476   4.410   2.047   3.360
 4719SOL    HW114477   4.498   2.028   3.317
 4719SOL    HW214478   4.425   2.086   3.451
 4720SOL     OW14479   3.804   2.186   1.883
 4720SOL    HW114480   3.719   2.161   1.837
 4720SOL    HW214481   3.841   2.269   1.840
 4721SOL     OW14482   5.139   2.712   3.251
 4721SOL    HW114483   5.081   2.775   3.199
 4721SOL    HW214484   5.233   2.717   3.217
 4722SOL     OW14485   3.780   2.016   2.151
 4722SOL    HW114486   3.763   2.096   2.094
 4722SOL    HW214487   3.869   1.978   2.129
 4723SOL     OW14488   4.905   3.194   1.986
 4723SOL    HW114489   4.809   3.171   1.974
 4723SOL    HW214490   4.928   3.194   2.083
 4724SOL     OW14491   4.354   2.684   3.299
 4724SOL    HW114492   4.408   2.766   3.282
 4724SOL    HW214493   4.414   2.605   3.307
 4725SOL     OW14494   5.241   3.686   2.903
 4725SOL    HW114495   5.237   3.693   2.803
 4725SOL    HW214496   5.320   3.633   2.930
 4726SOL     OW14497   4.450   2.413   3.556
 4726SOL    HW114498   4.493   2.479   3.618
 4726SOL    HW214499   4.459   2.321   3.594
 4727SOL     OW14500   5.211   3.043   3.499
 4727SOL    HW114501   5.191   3.065   3.594
 4727SOL    HW214502   5.305   3.070   3.477
 4728SOL     OW14503   4.091   3.607   3.434
 4728SOL    HW114504   4.006   3.657   3.417
 4728SOL    HW214505   4.068   3.516   3.470
 4729SOL     OW14506   5.383   2.738   3.117
 4729SOL    HW114507   5.380   2.649   3.071
 4729SOL    HW214508   5.370   2.811   3.049
 4730SOL     OW14509   4.943   2.177   2.326
 4730SOL    HW114510   5.005   2.099   2.317
 4730SOL    HW214511   4.972   2.234   2.403
 4731SOL     OW14512   4.309   2.594   2.532
 4731SOL    HW114513   4.350   2.684   2.523
 4731SOL    HW214514   4.240   2.581   2.461
 4732SOL     OW14515   5.471   2.222   3.521
 4732SOL    HW114516   5.465   2.242   3.423
 4732SOL    HW214517   5.393   2.166   3.548
 4733SOL     OW14518   5.483   2.791   3.368
 4733SOL    HW114519   5.469   2.887   3.391
 4733SOL    HW214520   5.456   2.775   3.273
 4734SOL     OW14521   4.598   3.225   1.915
 4734SOL    HW114522   4.552   3.256   1.998
 4734SOL    HW214523   4.613   3.303   1.854
 4735SOL     OW14524   4.388   3.642   2.802
 4735SOL    HW114525   4.366   3.738   2.781
 4735SOL    HW214526   4.486   3.627   2.788
 4736SOL     OW14527   4.597   2.831   2.711
 4736SOL    HW114528   4.648   2.754   2.752
 4736SOL    HW214529   4.551   2.882   2.784
 4737SOL     OW14530   4.798   2.846   1.945
 4737SOL    HW114531   4.769   2.903   1.868
 4737SOL    HW214532   4.877   2.792   1.919
 4738SOL     OW14533   5.561   3.422   2.710
 4738SOL    HW114534   5.488   3.408   2.643
 4738SOL    HW214535   5.552   3.353   2.783
 4739SOL     OW14536   3.944   3.155   3.709
 4739SOL    HW114537   3.893   3.079   3.669
 4739SOL    HW214538   3.916   3.168   3.804
 4740SOL     OW14539   3.852   3.073   2.538
 4740SOL    HW114540   3.895   3.036   2.620
 4740SOL    HW214541   3.898   3.037   2.457
 4741SOL     OW14542   4.431   3.288   3.607
 4741SOL    HW114543   4.418   3.249   3.516
 4741SOL    HW214544   4.415   3.387   3.603
 4742SOL     OW14545   5.527   2.042   3.099
 4742SOL    HW114546   5.534   1.942   3.103
 4742SOL    HW214547   5.547   2.073   3.006
 4743SOL     OW14548   4.153   2.287   2.387
 4743SOL    HW114549   4.187   2.218   2.323
 4743SOL    HW214550   4.099   2.243   2.458
 4744SOL     OW14551   5.413   3.328   2.947
 4744SOL    HW114552   5.331   3.315   2.891
 4744SOL    HW214553   5.412   3.261   3.022
 4745SOL     OW14554   4.063   2.420   3.149
 4745SOL    HW114555   4.118   2.358   3.205
 4745SOL    HW214556   4.074   2.396   3.053
 4746SOL     OW14557   4.554   3.439   2.533
 4746SOL    HW114558   4.531   3.501   2.458
 4746SOL    HW214559   4.479   3.375   2.548
 4747SOL     OW14560   5.159   2.084   2.978
 4747SOL    HW114561   5.156   1.988   3.006
 4747SOL    HW214562   5.108   2.139   3.044
 4748SOL     OW14563   4.734   1.877   2.990
 4748SOL    HW114564   4.669   1.819   2.940
 4748SOL    HW214565   4.822   1.831   2.996
 4749SOL     OW14566   4.497   3.193   2.193
 4749SOL    HW114567   4.473   3.096   2.200
 4749SOL    HW214568   4.584   3.209   2.238
 4750SOL     OW14569   4.321   3.452   3.150
 4750SOL    HW114570   4.343   3.537   3.199
 4750SOL    HW214571   4.397   3.388   3.160
 4751SOL     OW14572   5.073   1.908   2.040
 4751SOL    HW114573   5.116   1.853   1.969
 4751SOL    HW214574   4.981   1.873   2.058
 4752SOL     OW14575   5.026   2.327   2.541
 4752SOL    HW114576   4.973   2.412   2.537
 4752SOL    HW214577   5.018   2.289   2.633
 4753SOL     OW14578   5.342   2.078   2.754
 4753SOL    HW114579   5.285   2.075   2.836
 4753SOL    HW214580   5.323   2.162   2.703
 4754SOL     OW14581   3.784   2.916   2.137
 4754SOL    HW114582   3.881   2.894   2.129
 4754SOL    HW214583   3.735   2.839   2.178
 4755SOL     OW14584   4.608   3.533   2.200
 4755SOL    HW114585   4.533   3.513   2.137
 4755SOL    HW214586   4.584   3.610   2.258
 4756SOL     OW14587   3.933   2.475   3.861
 4756SOL    HW114588   3.842   2.470   3.902
 4756SOL    HW214589   3.926   2.458   3.762
 4757SOL     OW14590   3.704   2.261   4.343
 4757SOL    HW114591   3.625   2.292   4.396
 4757SOL    HW214592   3.683   2.172   4.301
 4758SOL     OW14593   4.307   3.164   4.917
 4758SOL    HW114594   4.213   3.150   4.885
 4758SOL    HW214595   4.317   3.258   4.949
 4759SOL     OW14596   5.296   3.380   4.432
 4759SOL    HW114597   5.251   3.354   4.517
 4759SOL    HW214598   5.228   3.388   4.359
 4760SOL     OW14599   4.833   2.585   4.420
 4760SOL    HW114600   4.911   2.648   4.419
 4760SOL    HW214601   4.806   2.567   4.515
 4761SOL     OW14602   5.508   2.452   3.943
 4761SOL    HW114603   5.476   2.451   3.848
 4761SOL    HW214604   5.464   2.377   3.993
 4762SOL     OW14605   4.471   3.003   4.750
 4762SOL    HW114606   4.408   3.028   4.824
 4762SOL    HW214607   4.512   3.086   4.711
 4763SOL     OW14608   4.609   2.615   5.560
 4763SOL    HW114609   4.593   2.679   5.635
 4763SOL    HW214610   4.628   2.666   5.476
 4764SOL     OW14611   4.429   2.870   4.382
 4764SOL    HW114612   4.477   2.854   4.469
 4764SOL    HW214613   4.345   2.923   4.400
 4765SOL     OW14614   4.440   3.017   5.542
 4765SOL    HW114615   4.487   3.096   5.580
 4765SOL    HW214616   4.354   3.046   5.500
 4766SOL     OW14617   4.050   3.282   4.790
 4766SOL    HW114618   3.974   3.233   4.749
 4766SOL    HW214619   4.099   3.333   4.719
 4767SOL     OW14620   5.182   3.367   5.087
 4767SOL    HW114621   5.238   3.449   5.101
 4767SOL    HW214622   5.105   3.369   5.151
 4768SOL     OW14623   4.175   2.263   5.215
 4768SOL    HW114624   4.251   2.199   5.207
 4768SOL    HW214625   4.091   2.213   5.235
 4769SOL     OW14626   5.328   2.305   4.476
 4769SOL    HW114627   5.256   2.318   4.408
 4769SOL    HW214628   5.314   2.369   4.552
 4770SOL     OW14629   3.946   3.579   4.194
 4770SOL    HW114630   3.967   3.655   4.255
 4770SOL    HW214631   4.022   3.567   4.129
 4771SOL     OW14632   4.863   3.203   5.426
 4771SOL    HW114633   4.902   3.206   5.518
 4771SOL    HW214634   4.803   3.123   5.418
 4772SOL     OW14635   3.963   3.307   4.262
 4772SOL    HW114636   3.940   3.404   4.264
 4772SOL    HW214637   3.905   3.258   4.328
 4773SOL     OW14638   4.018   2.951   4.630
 4773SOL    HW114639   4.006   2.856   4.657
 4773SOL    HW214640   3.951   3.008   4.678
 4774SOL     OW14641   4.316   3.661   5.148
 4774SOL    HW114642   4.235   3.633   5.200
 4774SOL    HW214643   4.348   3.750   5.181
 4775SOL     OW14644   4.302   2.850   3.874
 4775SOL    HW114645   4.345   2.899   3.798
 4775SOL    HW214646   4.343   2.881   3.960
 4776SOL     OW14647   5.327   1.990   5.194
 4776SOL    HW114648   5.341   2.074   5.141
 4776SOL    HW214649   5.302   2.014   5.288
 4777SOL     OW14650   3.842   2.526   4.288
 4777SOL    HW114651   3.806   2.435   4.303
 4777SOL    HW214652   3.837   2.579   4.373
 4778SOL     OW14653  -0.018   3.614   4.054
 4778SOL    HW114654   0.056   3.587   4.116
 4778SOL    HW214655  -0.005   3.710   4.027
 4779SOL     OW14656   3.758   3.450   3.841
 4779SOL    HW114657   3.741   3.352   3.856
 4779SOL    HW214658   3.737   3.501   3.924
 4780SOL     OW14659   5.415   2.781   4.378
 4780SOL    HW114660   5.501   2.730   4.368
 4780SOL    HW214661   5.398   2.833   4.295
 4781SOL     OW14662   5.382   2.961   4.161
 4781SOL    HW114663   5.470   2.956   4.115
 4781SOL    HW214664   5.385   3.030   4.232
 4782SOL     OW14665   3.852   2.603   5.310
 4782SOL    HW114666   3.948   2.630   5.314
 4782SOL    HW214667   3.794   2.685   5.312
 4783SOL     OW14668   4.342   3.254   4.455
 4783SOL    HW114669   4.295   3.167   4.468
 4783SOL    HW214670   4.326   3.287   4.362
 4784SOL     OW14671   5.013   3.097   5.140
 4784SOL    HW114672   5.040   3.022   5.079
 4784SOL    HW214673   5.064   3.090   5.225
 4785SOL     OW14674   4.546   1.878   4.222
 4785SOL    HW114675   4.590   1.966   4.206
 4785SOL    HW214676   4.448   1.892   4.234
 4786SOL     OW14677   3.917   2.817   5.003
 4786SOL    HW114678   4.007   2.775   4.990
 4786SOL    HW214679   3.847   2.758   4.963
 4787SOL     OW14680   5.256   2.869   3.932
 4787SOL    HW114681   5.182   2.808   3.961
 4787SOL    HW214682   5.304   2.902   4.012
 4788SOL     OW14683   4.922   3.691   5.348
 4788SOL    HW114684   4.918   3.751   5.269
 4788SOL    HW214685   4.931   3.596   5.318
 4789SOL     OW14686   4.069   2.103   5.581
 4789SOL    HW114687   4.116   2.190   5.592
 4789SOL    HW214688   3.970   2.118   5.591
 4790SOL     OW14689   5.189   3.279   4.667
 4790SOL    HW114690   5.123   3.301   4.739
 4790SOL    HW214691   5.180   3.183   4.640
 4791SOL     OW14692   5.371   3.627   4.295
 4791SOL    HW114693   5.352   3.594   4.203
 4791SOL    HW214694   5.354   3.553   4.361
 4792SOL     OW14695   4.309   2.583   4.000
 4792SOL    HW114696   4.302   2.668   3.948
 4792SOL    HW214697   4.241   2.582   4.073
 4793SOL     OW14698   5.002   2.230   4.657
 4793SOL    HW114699   4.909   2.196   4.664
 4793SOL    HW214700   5.062   2.178   4.718
 4794SOL     OW14701   5.309   3.538   4.034
 4794SOL    HW114702   5.407   3.560   4.029
 4794SOL    HW214703   5.274   3.522   3.942
 4795SOL     OW14704   4.524   2.473   5.169
 4795SOL    HW114705   4.501   2.448   5.263
 4795SOL    HW214706   4.489   2.403   5.106
 4796SOL     OW14707   5.115   2.333   5.409
 4796SOL    HW114708   5.113   2.380   5.496
 4796SOL    HW214709   5.170   2.250   5.417
 4797SOL     OW14710   4.675   2.744   5.317
 4797SOL    HW114711   4.732   2.673   5.274
 4797SOL    HW214712   4.617   2.787   5.248
 4798SOL     OW14713   4.724   2.262   4.937
 4798SOL    HW114714   4.633   2.282   4.971
 4798SOL    HW214715   4.717   2.198   4.860
 4799SOL     OW14716   4.772   2.550   4.153
 4799SOL    HW114717   4.791   2.530   4.249
 4799SOL    HW214718   4.687   2.505   4.126
 4800SOL     OW14719   3.819   2.700   4.500
 4800SOL    HW114720   3.900   2.677   4.554
 4800SOL    HW214721   3.767   2.772   4.546
 4801SOL     OW14722   3.853   3.739   5.321
 4801SOL    HW114723   3.861   3.714   5.417
 4801SOL    HW214724   3.772   3.696   5.281
 4802SOL     OW14725   4.614   2.215   3.924
 4802SOL    HW114726   4.661   2.276   3.860
 4802SOL    HW214727   4.582   2.134   3.875
 4803SOL     OW14728   5.430   2.432   5.554
 4803SOL    HW114729   5.395   2.513   5.505
 4803SOL    HW214730   5.452   2.360   5.488
 4804SOL     OW14731   5.097   3.011   4.253
 4804SOL    HW114732   5.183   2.992   4.206
 4804SOL    HW214733   5.047   3.083   4.204
 4805SOL     OW14734   4.338   2.053   4.636
 4805SOL    HW114735   4.319   2.068   4.733
 4805SOL    HW214736   4.269   2.101   4.581
 4806SOL     OW14737   4.711   3.309   4.190
 4806SOL    HW114738   4.687   3.385   4.130
 4806SOL    HW214739   4.684   3.330   4.283
 4807SOL     OW14740   4.077   3.677   4.599
 4807SOL    HW114741   4.121   3.588   4.605
 4807SOL    HW214742   4.143   3.748   4.623
 4808SOL     OW14743   5.528   2.921   4.600
 4808SOL    HW114744   5.475   2.894   4.519
 4808SOL    HW214745   5.467   2.928   4.679
 4809SOL     OW14746   4.950   3.400   5.236
 4809SOL    HW114747   4.937   3.329   5.305
 4809SOL    HW214748   4.863   3.418   5.190
 4810SOL     OW14749   4.038   2.821   3.981
 4810SOL    HW114750   4.124   2.840   3.934
 4810SOL    HW214751   3.999   2.736   3.945
 4811SOL     OW14752   5.192   2.632   4.445
 4811SOL    HW114753   5.197   2.576   4.528
 4811SOL    HW214754   5.278   2.682   4.434
 4812SOL     OW14755   4.204   3.116   5.435
 4812SOL    HW114756   4.170   3.126   5.341
 4812SOL    HW214757   4.127   3.115   5.498
 4813SOL     OW14758   4.850   3.633   3.949
 4813SOL    HW114759   4.766   3.601   3.992
 4813SOL    HW214760   4.877   3.570   3.876
 4814SOL     OW14761   3.916   2.149   5.259
 4814SOL    HW114762   3.831   2.187   5.224
 4814SOL    HW214763   3.901   2.056   5.291
 4815SOL     OW14764   5.350   3.247   3.818
 4815SOL    HW114765   5.313   3.338   3.801
 4815SOL    HW214766   5.280   3.179   3.797
 4816SOL     OW14767   4.184   3.598   4.041
 4816SOL    HW114768   4.229   3.658   4.107
 4816SOL    HW214769   4.253   3.557   3.981
 4817SOL     OW14770   5.127   1.968   4.167
 4817SOL    HW114771   5.118   1.941   4.072
 4817SOL    HW214772   5.224   1.973   4.192
 4818SOL     OW14773   3.983   3.655   4.944
 4818SOL    HW114774   4.029   3.580   4.992
 4818SOL    HW214775   3.962   3.627   4.851
 4819SOL     OW14776   4.660   3.570   4.617
 4819SOL    HW114777   4.739   3.524   4.658
 4819SOL    HW214778   4.623   3.514   4.543
 4820SOL     OW14779   4.124   2.550   4.205
 4820SOL    HW114780   4.146   2.453   4.216
 4820SOL    HW214781   4.027   2.564   4.222
 4821SOL     OW14782   5.244   2.083   5.453
 4821SOL    HW114783   5.258   2.101   5.550
 4821SOL    HW214784   5.170   2.017   5.442
 4822SOL     OW14785   4.379   1.977   3.823
 4822SOL    HW114786   4.421   1.899   3.869
 4822SOL    HW214787   4.314   1.945   3.754
 4823SOL     OW14788   4.485   2.137   5.482
 4823SOL    HW114789   4.570   2.084   5.478
 4823SOL    HW214790   4.431   2.107   5.561
 4824SOL     OW14791   4.600   3.377   4.912
 4824SOL    HW114792   4.578   3.336   4.824
 4824SOL    HW214793   4.664   3.318   4.962
 4825SOL     OW14794   5.061   2.448   5.164
 4825SOL    HW114795   5.089   2.414   5.254
 4825SOL    HW214796   5.093   2.542   5.153
 4826SOL     OW14797   4.557   3.246   4.658
 4826SOL    HW114798   4.645   3.241   4.610
 4826SOL    HW214799   4.484   3.260   4.592
 4827SOL     OW14800   4.661   2.379   4.612
 4827SOL    HW114801   4.635   2.364   4.517
 4827SOL    HW214802   4.674   2.290   4.657
 4828SOL     OW14803   4.276   1.929   4.209
 4828SOL    HW114804   4.198   1.926   4.271
 4828SOL    HW214805   4.268   2.010   4.150
 4829SOL     OW14806   5.150   3.067   3.767
 4829SOL    HW114807   5.180   2.989   3.823
 4829SOL    HW214808   5.060   3.097   3.797
 4830SOL     OW14809   4.011   1.914   3.908
 4830SOL    HW114810   4.062   1.992   3.873
 4830SOL    HW214811   4.073   1.851   3.955
 4831SOL     OW14812   4.675   2.121   4.177
 4831SOL    HW114813   4.647   2.156   4.088
 4831SOL    HW214814   4.774   2.131   4.187
 4832SOL     OW14815   4.798   2.550   5.169
 4832SOL    HW114816   4.717   2.492   5.180
 4832SOL    HW214817   4.880   2.494   5.176
 4833SOL     OW14818   4.943   3.447   4.524
 4833SOL    HW114819   4.954   3.514   4.451
 4833SOL    HW214820   5.009   3.466   4.598
 4834SOL     OW14821   4.202   3.011   4.439
 4834SOL    HW114822   4.140   2.991   4.515
 4834SOL    HW214823   4.152   3.006   4.353
 4835SOL     OW14824   4.980   3.654   4.338
 4835SOL    HW114825   5.032   3.717   4.280
 4835SOL    HW214826   4.903   3.703   4.379
 4836SOL     OW14827   4.746   2.391   3.754
 4836SOL    HW114828   4.700   2.476   3.729
 4836SOL    HW214829   4.813   2.409   3.826
 4837SOL     OW14830   3.818   2.431   5.104
 4837SOL    HW114831   3.913   2.421   5.074
 4837SOL    HW214832   3.813   2.495   5.180
 4838SOL     OW14833   4.301   2.081   4.910
 4838SOL    HW114834   4.341   2.000   4.952
 4838SOL    HW214835   4.205   2.089   4.936
 4839SOL     OW14836   4.602   2.334   4.351
 4839SOL    HW114837   4.518   2.375   4.315
 4839SOL    HW214838   4.622   2.249   4.302
 4840SOL     OW14839   4.751   1.906   4.455
 4840SOL    HW114840   4.680   1.908   4.384
 4840SOL    HW214841   4.728   1.836   4.523
 4841SOL     OW14842   5.171   3.016   4.587
 4841SOL    HW114843   5.113   2.936   4.597
 4841SOL    HW214844   5.201   3.025   4.492
 4842SOL     OW14845   5.193   2.470   4.682
 4842SOL    HW114846   5.125   2.396   4.688
 4842SOL    HW214847   5.253   2.467   4.761
 4843SOL     OW14848   5.562   2.664   4.104
 4843SOL    HW114849   5.622   2.620   4.171
 4843SOL    HW214850   5.539   2.599   4.032
 4844SOL     OW14851   4.213   3.287   3.878
 4844SOL    HW114852   4.130   3.255   3.924
 4844SOL    HW214853   4.225   3.236   3.793
 4845SOL     OW14854   5.405   3.130   4.366
 4845SOL    HW114855   5.504   3.128   4.377
 4845SOL    HW214856   5.372   3.223   4.386
 4846SOL     OW14857   5.111   2.439   3.794
 4846SOL    HW114858   5.049   2.414   3.868
 4846SOL    HW214859   5.206   2.421   3.821
 4847SOL     OW14860   4.254   2.129   4.020
 4847SOL    HW114861   4.305   2.078   3.950
 4847SOL    HW214862   4.220   2.214   3.981
 4848SOL     OW14863   5.472   3.099   5.284
 4848SOL    HW114864   5.541   3.043   5.330
 4848SOL    HW214865   5.491   3.196   5.299
 4849SOL     OW14866   4.769   3.202   5.054
 4849SOL    HW114867   4.687   3.176   5.104
 4849SOL    HW214868   4.850   3.173   5.105
 4850SOL     OW14869   5.340   3.497   5.388
 4850SOL    HW114870   5.324   3.529   5.294
 4850SOL    HW214871   5.420   3.436   5.389
 4851SOL     OW14872   4.858   3.084   4.827
 4851SOL    HW114873   4.808   3.115   4.908
 4851SOL    HW214874   4.815   3.121   4.745
 4852SOL     OW14875   5.354   2.964   4.809
 4852SOL    HW114876   5.352   3.026   4.887
 4852SOL    HW214877   5.276   2.982   4.750
 4853SOL     OW14878   4.654   1.952   5.117
 4853SOL    HW114879   4.673   1.932   5.021
 4853SOL    HW214880   4.733   1.997   5.158
 4854SOL     OW14881   4.704   2.978   5.446
 4854SOL    HW114882   4.612   3.000   5.479
 4854SOL    HW214883   4.702   2.892   5.396
 4855SOL     OW14884   4.444   2.924   4.100
 4855SOL    HW114885   4.415   2.907   4.194
 4855SOL    HW214886   4.530   2.876   4.082
 4856SOL     OW14887   4.155   2.675   4.974
 4856SOL    HW114888   4.223   2.689   5.047
 4856SOL    HW214889   4.116   2.584   4.981
 4857SOL     OW14890   4.988   2.241   5.003
 4857SOL    HW114891   5.020   2.318   5.057
 4857SOL    HW214892   4.892   2.255   4.977
 4858SOL     OW14893   3.799   3.433   5.082
 4858SOL    HW114894   3.762   3.500   5.018
 4858SOL    HW214895   3.899   3.431   5.074
 4859SOL     OW14896   4.067   2.990   4.202
 4859SOL    HW114897   4.056   3.072   4.147
 4859SOL    HW214898   4.059   2.909   4.144
 4860SOL     OW14899   4.280   2.417   4.573
 4860SOL    HW114900   4.304   2.479   4.499
 4860SOL    HW214901   4.346   2.427   4.648
 4861SOL     OW14902   4.964   3.222   4.125
 4861SOL    HW114903   5.026   3.295   4.152
 4861SOL    HW214904   4.870   3.246   4.150
 4862SOL     OW14905   5.019   3.327   4.873
 4862SOL    HW114906   5.076   3.337   4.955
 4862SOL    HW214907   4.957   3.249   4.885
 4863SOL     OW14908   5.296   2.485   4.208
 4863SOL    HW114909   5.239   2.529   4.277
 4863SOL    HW214910   5.351   2.553   4.161
 4864SOL     OW14911   4.069   3.397   5.029
 4864SOL    HW114912   4.055   3.349   4.943
 4864SOL    HW214913   4.167   3.409   5.045
 4865SOL     OW14914   4.135   2.609   5.326
 4865SOL    HW114915   4.209   2.648   5.271
 4865SOL    HW214916   4.151   2.511   5.338
 4866SOL     OW14917   5.347   2.649   5.414
 4866SOL    HW114918   5.254   2.687   5.412
 4866SOL    HW214919   5.400   2.691   5.340
 4867SOL     OW14920   4.731   1.995   5.471
 4867SOL    HW114921   4.781   2.081   5.456
 4867SOL    HW214922   4.785   1.919   5.436
 4868SOL     OW14923   4.218   1.889   5.486
 4868SOL    HW114924   4.171   1.838   5.414
 4868SOL    HW214925   4.163   1.969   5.511
 4869SOL     OW14926   4.310   2.732   4.754
 4869SOL    HW114927   4.340   2.827   4.756
 4869SOL    HW214928   4.252   2.714   4.834
 4870SOL     OW14929   5.056   2.716   4.734
 4870SOL    HW114930   4.959   2.690   4.728
 4870SOL    HW214931   5.113   2.635   4.726
 4871SOL     OW14932   4.919   2.385   3.986
 4871SOL    HW114933   4.935   2.302   4.039
 4871SOL    HW214934   4.871   2.453   4.042
 4872SOL     OW14935   4.056   2.058   5.026
 4872SOL    HW114936   3.995   2.084   5.100
 4872SOL    HW214937   4.013   1.988   4.969
 4873SOL     OW14938   3.787   3.172   4.992
 4873SOL    HW114939   3.810   3.107   5.064
 4873SOL    HW214940   3.782   3.264   5.031
 4874SOL     OW14941   4.453   2.496   4.776
 4874SOL    HW114942   4.527   2.480   4.710
 4874SOL    HW214943   4.411   2.584   4.758
 4875SOL     OW14944   5.465   2.833   5.582
 4875SOL    HW114945   5.425   2.757   5.531
 4875SOL    HW214946   5.409   2.853   5.661
 4876SOL     OW14947   4.037   1.928   4.339
 4876SOL    HW114948   4.003   2.022   4.353
 4876SOL    HW214949   4.043   1.881   4.426
 4877SOL     OW14950   5.358   2.250   4.079
 4877SOL    HW114951   5.381   2.173   4.139
 4877SOL    HW214952   5.326   2.327   4.134
 4878SOL     OW14953   4.765   2.613   4.694
 4878SOL    HW114954   4.745   2.637   4.789
 4878SOL    HW214955   4.733   2.520   4.675
 4879SOL     OW14956   4.724   3.447   5.441
 4879SOL    HW114957   4.700   3.480   5.349
 4879SOL    HW214958   4.744   3.349   5.436
 4880SOL     OW14959  -0.016   3.356   5.317
 4880SOL    HW114960   0.011   3.399   5.231
 4880SOL    HW214961   0.057   3.367   5.385
 4881SOL     OW14962   4.076   2.788   5.530
 4881SOL    HW114963   4.152   2.806   5.592
 4881SOL    HW214964   4.103   2.720   5.462
 4882SOL     OW14965   5.255   2.127   3.852
 4882SOL    HW114966   5.186   2.060   3.882
 4882SOL    HW214967   5.292   2.174   3.932
 4883SOL     OW14968   5.006   2.689   3.750
 4883SOL    HW114969   5.045   2.598   3.757
 4883SOL    HW214970   5.036   2.732   3.665
 4884SOL     OW14971   4.813   3.211   4.564
 4884SOL    HW114972   4.871   3.140   4.525
 4884SOL    HW214973   4.855   3.300   4.548
 4885SOL     OW14974   4.037   2.664   4.665
 4885SOL    HW114975   4.134   2.686   4.671
 4885SOL    HW214976   4.021   2.571   4.698
 4886SOL     OW14977   4.069   2.390   4.736
 4886SOL    HW114978   4.032   2.297   4.729
 4886SOL    HW214979   4.144   2.401   4.671
 4887SOL     OW14980   4.858   2.235   5.419
 4887SOL    HW114981   4.804   2.287   5.485
 4887SOL    HW214982   4.950   2.273   5.413
 4888SOL     OW14983   4.890   2.068   5.200
 4888SOL    HW114984   4.872   2.129   5.277
 4888SOL    HW214985   4.931   2.119   5.124
 4889SOL     OW14986   3.727   3.172   3.917
 4889SOL    HW114987   3.637   3.194   3.881
 4889SOL    HW214988   3.726   3.078   3.953
 4890SOL     OW14989   3.815   3.639   4.671
 4890SOL    HW114990   3.778   3.560   4.624
 4890SOL    HW214991   3.908   3.657   4.638
 4891SOL     OW14992   4.212   3.437   4.622
 4891SOL    HW114993   4.282   3.503   4.649
 4891SOL    HW214994   4.252   3.368   4.562
 4892SOL     OW14995   4.684   2.657   4.946
 4892SOL    HW114996   4.742   2.632   5.024
 4892SOL    HW214997   4.595   2.614   4.955
 4893SOL     OW14998   3.753   2.408   4.834
 4893SOL    HW114999   3.803   2.336   4.785
 4893SOL    HW215000   3.787   2.414   4.928
 4894SOL     OW15001   3.912   2.376   5.456
 4894SOL    HW115002   3.932   2.303   5.391
 4894SOL    HW215003   3.880   2.457   5.407
 4895SOL     OW15004   5.113   2.786   5.379
 4895SOL    HW115005   5.130   2.885   5.382
 4895SOL    HW215006   5.104   2.757   5.284
 4896SOL     OW15007   4.543   2.449   4.064
 4896SOL    HW115008   4.546   2.361   4.018
 4896SOL    HW215009   4.456   2.494   4.044
 4897SOL     OW15010   5.368   2.468   4.894
 4897SOL    HW115011   5.349   2.409   4.972
 4897SOL    HW215012   5.461   2.453   4.862
 4898SOL     OW15013   3.957   3.405   5.449
 4898SOL    HW115014   3.941   3.480   5.513
 4898SOL    HW215015   3.974   3.320   5.499
 4899SOL     OW15016   4.451   2.304   4.971
 4899SOL    HW115017   4.392   2.225   4.956
 4899SOL    HW215018   4.435   2.372   4.899
 4900SOL     OW15019   4.669   3.536   5.182
 4900SOL    HW115020   4.620   3.488   5.110
 4900SOL    HW215021   4.655   3.635   5.172
 4901SOL     OW15022   4.177   2.358   3.895
 4901SOL    HW115023   4.239   2.430   3.925
 4901SOL    HW215024   4.084   2.394   3.890
 4902SOL     OW15025   3.861   2.998   5.197
 4902SOL    HW115026   3.864   2.959   5.289
 4902SOL    HW215027   3.883   2.928   5.130
 4903SOL     OW15028   5.040   2.905   4.932
 4903SOL    HW115029   5.058   2.836   4.863
 4903SOL    HW215030   4.971   2.970   4.898
 4904SOL     OW15031   5.041   2.719   4.019
 4904SOL    HW115032   4.968   2.679   4.074
 4904SOL    HW215033   5.018   2.711   3.922
 4905SOL     OW15034   5.489   3.582   4.872
 4905SOL    HW115035   5.560   3.614   4.810
 4905SOL    HW215036   5.461   3.490   4.847
 4906SOL     OW15037   4.964   3.594   4.817
 4906SOL    HW115038   5.052   3.624   4.782
 4906SOL    HW215039   4.972   3.499   4.849
 4907SOL     OW15040   3.820   3.126   4.729
 4907SOL    HW115041   3.804   3.140   4.826
 4907SOL    HW215042   3.751   3.064   4.692
 4908SOL     OW15043   4.399   3.536   5.463
 4908SOL    HW115044   4.335   3.613   5.469
 4908SOL    HW215045   4.479   3.563   5.410
 4909SOL     OW15046   5.443   2.017   4.213
 4909SOL    HW115047   5.519   2.005   4.150
 4909SOL    HW215048   5.425   1.931   4.261
 4910SOL     OW15049   5.122   3.435   4.216
 4910SOL    HW115050   5.182   3.468   4.144
 4910SOL    HW215051   5.064   3.510   4.248
 4911SOL     OW15052   3.873   3.647  -0.019
 4911SOL    HW115053   3.815   3.579   0.026
 4911SOL    HW215054   3.924   3.698   0.050
 4912SOL     OW15055   4.988   2.804   4.387
 4912SOL    HW115056   5.065   2.745   4.410
 4912SOL    HW215057   5.021   2.883   4.334
 4913SOL     OW15058   4.514   3.143   5.138
 4913SOL    HW115059   4.487   3.189   5.223
 4913SOL    HW215060   4.437   3.146   5.073
 4914SOL     OW15061   4.389   3.496   3.879
 4914SOL    HW115062   4.411   3.516   3.784
 4914SOL    HW215063   4.335   3.412   3.884
 4915SOL     OW15064   5.343   3.592   5.113
 4915SOL    HW115065   5.388   3.595   5.023
 4915SOL    HW215066   5.331   3.686   5.146
 4916SOL     OW15067   5.574   2.026   4.685
 4916SOL    HW115068   5.606   1.933   4.668
 4916SOL    HW215069   5.481   2.036   4.650
 4917SOL     OW15070   3.969   2.192   4.387
 4917SOL    HW115071   3.875   2.224   4.372
 4917SOL    HW215072   3.981   2.170   4.484
 4918SOL     OW15073   4.936   3.459   3.756
 4918SOL    HW115074   4.929   3.366   3.792
 4918SOL    HW215075   4.866   3.474   3.687
 4919SOL     OW15076   4.545   2.871   5.112
 4919SOL    HW115077   4.599   2.853   5.030
 4919SOL    HW215078   4.538   2.970   5.126
 4920SOL     OW15079   4.689   2.799   4.080
 4920SOL    HW115080   4.720   2.834   3.991
 4920SOL    HW215081   4.707   2.701   4.085
 4921SOL     OW15082   5.212   3.500   3.770
 4921SOL    HW115083   5.114   3.484   3.756
 4921SOL    HW215084   5.257   3.505   3.681
 4922SOL     OW15085   4.086   3.163   5.198
 4922SOL    HW115086   4.069   3.247   5.147
 4922SOL    HW215087   4.005   3.105   5.194
 4923SOL     OW15088   5.351   3.154   5.022
 4923SOL    HW115089   5.398   3.123   5.104
 4923SOL    HW215090   5.278   3.218   5.047
 4924SOL     OW15091   4.754   2.099   4.687
 4924SOL    HW115092   4.744   2.058   4.596
 4924SOL    HW215093   4.748   2.028   4.756
 4925SOL     OW15094   4.328   3.349   4.203
 4925SOL    HW115095   4.380   3.297   4.135
 4925SOL    HW215096   4.246   3.386   4.160
 4926SOL     OW15097   5.463   2.260   5.102
 4926SOL    HW115098   5.539   2.325   5.104
 4926SOL    HW215099   5.487   2.183   5.042
 4927SOL     OW15100   3.980   3.207   4.017
 4927SOL    HW115101   3.885   3.197   3.987
 4927SOL    HW215102   3.982   3.251   4.107
 4928SOL     OW15103   3.840   2.908   5.455
 4928SOL    HW115104   3.759   2.880   5.507
 4928SOL    HW215105   3.921   2.861   5.491
 4929SOL     OW15106   4.413   2.053   5.223
 4929SOL    HW115107   4.501   2.027   5.184
 4929SOL    HW215108   4.427   2.090   5.315
 4930SOL     OW15109   3.815   2.180   3.745
 4930SOL    HW115110   3.717   2.161   3.736
 4930SOL    HW215111   3.836   2.267   3.700
 4931SOL     OW15112   5.141   2.717   5.114
 4931SOL    HW115113   5.085   2.780   5.061
 4931SOL    HW215114   5.235   2.718   5.079
 4932SOL     OW15115   3.779   2.012   4.021
 4932SOL    HW115116   3.765   2.103   3.981
 4932SOL    HW215117   3.867   1.975   3.992
 4933SOL     OW15118   4.905   3.198   3.847
 4933SOL    HW115119   4.806   3.202   3.835
 4933SOL    HW215120   4.926   3.197   3.944
 4934SOL     OW15121   4.349   2.687   5.162
 4934SOL    HW115122   4.407   2.768   5.153
 4934SOL    HW215123   4.406   2.605   5.171
 4935SOL     OW15124   5.212   3.662   4.720
 4935SOL    HW115125   5.233   3.728   4.647
 4935SOL    HW215126   5.298   3.626   4.757
 4936SOL     OW15127   4.466   2.413   5.420
 4936SOL    HW115128   4.501   2.476   5.490
 4936SOL    HW215129   4.467   2.320   5.456
 4937SOL     OW15130   5.193   3.052   5.362
 4937SOL    HW115131   5.172   3.067   5.459
 4937SOL    HW215132   5.288   3.077   5.345
 4938SOL     OW15133   4.089   3.599   5.291
 4938SOL    HW115134   4.006   3.653   5.282
 4938SOL    HW215135   4.067   3.511   5.333
 4939SOL     OW15136   5.385   2.736   4.979
 4939SOL    HW115137   5.382   2.646   4.937
 4939SOL    HW215138   5.376   2.806   4.908
 4940SOL     OW15139   4.951   2.182   4.181
 4940SOL    HW115140   5.010   2.101   4.175
 4940SOL    HW215141   4.975   2.235   4.262
 4941SOL     OW15142   4.338   2.602   4.376
 4941SOL    HW115143   4.354   2.700   4.376
 4941SOL    HW215144   4.257   2.582   4.320
 4942SOL     OW15145   5.468   2.228   5.376
 4942SOL    HW115146   5.460   2.244   5.277
 4942SOL    HW215147   5.394   2.169   5.406
 4943SOL     OW15148   5.482   2.797   5.227
 4943SOL    HW115149   5.455   2.892   5.245
 4943SOL    HW215150   5.456   2.772   5.134
 4944SOL     OW15151   4.638   3.241   3.807
 4944SOL    HW115152   4.571   3.232   3.881
 4944SOL    HW215153   4.595   3.285   3.729
 4945SOL     OW15154   4.389   3.638   4.656
 4945SOL    HW115155   4.364   3.734   4.645
 4945SOL    HW215156   4.489   3.629   4.649
 4946SOL     OW15157   4.624   2.828   4.578
 4946SOL    HW115158   4.670   2.755   4.627
 4946SOL    HW215159   4.576   2.888   4.642
 4947SOL     OW15160   4.784   2.842   3.823
 4947SOL    HW115161   4.756   2.903   3.749
 4947SOL    HW215162   4.862   2.787   3.793
 4948SOL     OW15163   5.561   3.422   4.576
 4948SOL    HW115164   5.487   3.412   4.510
 4948SOL    HW215165   5.549   3.355   4.649
 4949SOL     OW15166   3.981   3.162  -0.006
 4949SOL    HW115167   3.913   3.094  -0.031
 4949SOL    HW215168   3.979   3.176   0.093
 4950SOL     OW15169   3.817   3.094   4.391
 4950SOL    HW115170   3.801   3.045   4.477
 4950SOL    HW215171   3.883   3.043   4.336
 4951SOL     OW15172   4.408   3.280   5.350
 4951SOL    HW115173   4.335   3.220   5.385
 4951SOL    HW215174   4.402   3.369   5.395
 4952SOL     OW15175   5.532   2.047   4.955
 4952SOL    HW115176   5.529   1.951   4.982
 4952SOL    HW215177   5.549   2.053   4.856
 4953SOL     OW15178   4.176   2.292   4.240
 4953SOL    HW115179   4.202   2.220   4.175
 4953SOL    HW215180   4.106   2.257   4.302
 4954SOL     OW15181   5.415   3.331   4.815
 4954SOL    HW115182   5.335   3.317   4.757
 4954SOL    HW215183   5.413   3.266   4.891
 4955SOL     OW15184   4.070   2.420   5.012
 4955SOL    HW115185   4.118   2.357   5.073
 4955SOL    HW215186   4.078   2.387   4.918
 4956SOL     OW15187   4.559   3.440   4.398
 4956SOL    HW115188   4.540   3.512   4.333
 4956SOL    HW215189   4.480   3.380   4.406
 4957SOL     OW15190   5.152   2.094   4.838
 4957SOL    HW115191   5.154   1.998   4.863
 4957SOL    HW215192   5.100   2.145   4.907
 4958SOL     OW15193   4.737   1.883   4.858
 4958SOL    HW115194   4.663   1.824   4.825
 4958SOL    HW215195   4.823   1.834   4.854
 4959SOL     OW15196   4.496   3.193   4.045
 4959SOL    HW115197   4.469   3.098   4.057
 4959SOL    HW215198   4.580   3.211   4.098
 4960SOL     OW15199   4.347   3.426   5.009
 4960SOL    HW115200   4.342   3.511   5.060
 4960SOL    HW215201   4.439   3.414   4.973
 4961SOL     OW15202   5.086   1.910   3.900
 4961SOL    HW115203   5.135   1.836   3.854
 4961SOL    HW215204   4.991   1.882   3.917
 4962SOL     OW15205   5.017   2.329   4.404
 4962SOL    HW115206   4.954   2.406   4.405
 4962SOL    HW215207   5.016   2.283   4.493
 4963SOL     OW15208   5.314   2.060   4.616
 4963SOL    HW115209   5.258   2.080   4.696
 4963SOL    HW215210   5.315   2.139   4.554
 4964SOL     OW15211   3.768   2.917   4.033
 4964SOL    HW115212   3.866   2.913   4.011
 4964SOL    HW215213   3.735   2.825   4.052
 4965SOL     OW15214   4.611   3.531   4.059
 4965SOL    HW115215   4.535   3.510   3.996
 4965SOL    HW215216   4.585   3.606   4.119
 4966SOL     OW15217   3.934   4.351   0.132
 4966SOL    HW115218   3.843   4.341   0.174
 4966SOL    HW215219   3.928   4.328   0.035
 4967SOL     OW15220   3.924   4.036   1.006
 4967SOL    HW115221   3.972   3.987   1.079
 4967SOL    HW215222   3.841   3.985   0.981
 4968SOL     OW15223   3.724   4.126   0.638
 4968SOL    HW115224   3.634   4.140   0.681
 4968SOL    HW215225   3.721   4.044   0.582
 4969SOL     OW15226   4.298   5.032   1.200
 4969SOL    HW115227   4.209   5.026   1.155
 4969SOL    HW215228   4.314   5.126   1.231
 4970SOL     OW15229   5.294   5.241   0.704
 4970SOL    HW115230   5.253   5.214   0.791
 4970SOL    HW215231   5.223   5.247   0.634
 4971SOL     OW15232   4.866   4.432   0.686
 4971SOL    HW115233   4.914   4.519   0.677
 4971SOL    HW215234   4.814   4.431   0.772
 4972SOL     OW15235   5.511   4.314   0.213
 4972SOL    HW115236   5.480   4.311   0.118
 4972SOL    HW215237   5.465   4.241   0.265
 4973SOL     OW15238   4.460   4.866   1.045
 4973SOL    HW115239   4.395   4.901   1.113
 4973SOL    HW215240   4.504   4.943   1.000
 4974SOL     OW15241   4.607   4.478   1.823
 4974SOL    HW115242   4.591   4.548   1.893
 4974SOL    HW215243   4.628   4.522   1.736
 4975SOL     OW15244   4.409   4.728   0.649
 4975SOL    HW115245   4.479   4.716   0.720
 4975SOL    HW215246   4.334   4.782   0.685
 4976SOL     OW15247   4.437   4.878   1.826
 4976SOL    HW115248   4.491   4.955   1.860
 4976SOL    HW215249   4.355   4.912   1.779
 4977SOL     OW15250   4.052   5.139   1.067
 4977SOL    HW115251   3.975   5.092   1.025
 4977SOL    HW215252   4.099   5.194   0.997
 4978SOL     OW15253   5.179   5.229   1.363
 4978SOL    HW115254   5.237   5.310   1.372
 4978SOL    HW215255   5.105   5.234   1.431
 4979SOL     OW15256   4.174   4.114   1.492
 4979SOL    HW115257   4.257   4.058   1.486
 4979SOL    HW215258   4.094   4.055   1.494
 4980SOL     OW15259   5.327   4.159   0.738
 4980SOL    HW115260   5.244   4.170   0.682
 4980SOL    HW215261   5.331   4.231   0.806
 4981SOL     OW15262   3.948   5.442   0.469
 4981SOL    HW115263   3.965   5.520   0.529
 4981SOL    HW215264   4.026   5.429   0.408
 4982SOL     OW15265   4.860   5.063   1.699
 4982SOL    HW115266   4.907   5.059   1.787
 4982SOL    HW215267   4.804   4.982   1.687
 4983SOL     OW15268   3.962   5.177   0.547
 4983SOL    HW115269   3.941   5.274   0.540
 4983SOL    HW215270   3.899   5.134   0.611
 4984SOL     OW15271   4.007   4.814   0.898
 4984SOL    HW115272   4.006   4.718   0.926
 4984SOL    HW215273   3.943   4.866   0.955
 4985SOL     OW15274   4.316   5.525   1.428
 4985SOL    HW115275   4.233   5.501   1.478
 4985SOL    HW215276   4.348   5.615   1.457
 4986SOL     OW15277   4.299   4.714   0.147
 4986SOL    HW115278   4.347   4.762   0.075
 4986SOL    HW215279   4.339   4.738   0.236
 4987SOL     OW15280   5.322   3.851   1.466
 4987SOL    HW115281   5.347   3.927   1.407
 4987SOL    HW215282   5.300   3.884   1.558
 4988SOL     OW15283   3.837   4.390   0.566
 4988SOL    HW115284   3.811   4.295   0.585
 4988SOL    HW215285   3.834   4.443   0.651
 4989SOL     OW15286  -0.017   5.475   0.329
 4989SOL    HW115287   0.055   5.448   0.392
 4989SOL    HW215288  -0.007   5.571   0.305
 4990SOL     OW15289   3.762   5.308   0.128
 4990SOL    HW115290   3.742   5.213   0.150
 4990SOL    HW215291   3.737   5.366   0.205
 4991SOL     OW15292   5.427   4.644   0.659
 4991SOL    HW115293   5.513   4.593   0.656
 4991SOL    HW215294   5.413   4.690   0.571
 4992SOL     OW15295   5.390   4.822   0.435
 4992SOL    HW115296   5.478   4.814   0.389
 4992SOL    HW215297   5.396   4.893   0.506
 4993SOL     OW15298   3.848   4.468   1.581
 4993SOL    HW115299   3.943   4.499   1.579
 4993SOL    HW215300   3.787   4.546   1.571
 4994SOL     OW15301   4.337   5.127   0.723
 4994SOL    HW115302   4.292   5.038   0.738
 4994SOL    HW215303   4.321   5.156   0.628
 4995SOL     OW15304   5.008   4.955   1.419
 4995SOL    HW115305   5.032   4.883   1.354
 4995SOL    HW215306   5.069   4.950   1.498
 4996SOL     OW15307   4.550   3.736   0.526
 4996SOL    HW115308   4.593   3.821   0.496
 4996SOL    HW215309   4.451   3.747   0.526
 4997SOL     OW15310   3.914   4.679   1.287
 4997SOL    HW115311   4.005   4.639   1.275
 4997SOL    HW215312   3.851   4.639   1.221
 4998SOL     OW15313   5.256   4.736   0.205
 4998SOL    HW115314   5.182   4.676   0.234
 4998SOL    HW215315   5.309   4.765   0.285
 4999SOL     OW15316   4.904   5.547   1.627
 4999SOL    HW115317   4.909   5.616   1.555
 4999SOL    HW215318   4.922   5.457   1.587
 5000SOL     OW15319   4.066   3.970   1.852
 5000SOL    HW115320   4.117   4.055   1.866
 5000SOL    HW215321   3.968   3.988   1.864
 5001SOL     OW15322   5.190   5.144   0.939
 5001SOL    HW115323   5.127   5.165   1.014
 5001SOL    HW215324   5.181   5.047   0.915
 5002SOL     OW15325   5.368   5.488   0.571
 5002SOL    HW115326   5.349   5.455   0.478
 5002SOL    HW215327   5.353   5.414   0.636
 5003SOL     OW15328   4.311   4.439   0.272
 5003SOL    HW115329   4.311   4.527   0.226
 5003SOL    HW215330   4.243   4.439   0.345
 5004SOL     OW15331   5.002   4.097   0.934
 5004SOL    HW115332   4.908   4.063   0.939
 5004SOL    HW215333   5.061   4.043   0.994
 5005SOL     OW15334   5.310   5.395   0.310
 5005SOL    HW115335   5.407   5.419   0.306
 5005SOL    HW215336   5.276   5.380   0.217
 5006SOL     OW15337   4.518   4.336   1.464
 5006SOL    HW115338   4.487   4.307   1.554
 5006SOL    HW215339   4.492   4.268   1.395
 5007SOL     OW15340   5.113   4.196   1.678
 5007SOL    HW115341   5.115   4.244   1.765
 5007SOL    HW215342   5.168   4.112   1.684
 5008SOL     OW15343   4.676   4.606   1.587
 5008SOL    HW115344   4.732   4.535   1.543
 5008SOL    HW215345   4.618   4.650   1.519
 5009SOL     OW15346   4.723   4.119   1.217
 5009SOL    HW115347   4.630   4.137   1.248
 5009SOL    HW215348   4.721   4.067   1.131
 5010SOL     OW15349   4.779   4.428   0.420
 5010SOL    HW115350   4.802   4.421   0.517
 5010SOL    HW215351   4.691   4.382   0.404
 5011SOL     OW15352   3.813   4.559   0.781
 5011SOL    HW115353   3.899   4.542   0.830
 5011SOL    HW215354   3.765   4.636   0.823
 5012SOL     OW15355   3.851   5.608   1.592
 5012SOL    HW115356   3.857   5.579   1.688
 5012SOL    HW215357   3.769   5.568   1.551
 5013SOL     OW15358   4.611   4.079   0.206
 5013SOL    HW115359   4.654   4.133   0.134
 5013SOL    HW215360   4.608   3.983   0.179
 5014SOL     OW15361   5.420   4.297   1.831
 5014SOL    HW115362   5.390   4.377   1.779
 5014SOL    HW215363   5.447   4.225   1.768
 5015SOL     OW15364   5.118   4.858   0.508
 5015SOL    HW115365   5.215   4.842   0.488
 5015SOL    HW215366   5.070   4.879   0.423
 5016SOL     OW15367   4.077   5.543   0.880
 5016SOL    HW115368   4.122   5.454   0.885
 5016SOL    HW215369   4.144   5.616   0.897
 5017SOL     OW15370   5.527   4.785   0.880
 5017SOL    HW115371   5.479   4.754   0.798
 5017SOL    HW215372   5.464   4.789   0.957
 5018SOL     OW15373   4.947   5.261   1.515
 5018SOL    HW115374   4.936   5.187   1.582
 5018SOL    HW215375   4.878   5.252   1.443
 5019SOL     OW15376   4.036   4.683   0.257
 5019SOL    HW115377   4.123   4.704   0.213
 5019SOL    HW215378   4.004   4.593   0.225
 5020SOL     OW15379   5.209   4.484   0.719
 5020SOL    HW115380   5.204   4.432   0.805
 5020SOL    HW215381   5.294   4.537   0.717
 5021SOL     OW15382   4.197   4.995   1.730
 5021SOL    HW115383   4.171   5.001   1.633
 5021SOL    HW215384   4.115   4.989   1.786
 5022SOL     OW15385   4.834   5.502   0.221
 5022SOL    HW115386   4.761   5.456   0.272
 5022SOL    HW215387   4.871   5.439   0.152
 5023SOL     OW15388   3.919   4.001   1.500
 5023SOL    HW115389   3.859   4.078   1.477
 5023SOL    HW215390   3.889   3.960   1.586
 5024SOL     OW15391   5.349   5.103   0.088
 5024SOL    HW115392   5.313   5.195   0.075
 5024SOL    HW215393   5.278   5.036   0.067
 5025SOL     OW15394   4.201   5.456   0.333
 5025SOL    HW115395   4.230   5.530   0.394
 5025SOL    HW215396   4.259   5.454   0.252
 5026SOL     OW15397   5.126   3.832   0.441
 5026SOL    HW115398   5.117   3.800   0.347
 5026SOL    HW215399   5.223   3.843   0.463
 5027SOL     OW15400   3.981   5.518   1.219
 5027SOL    HW115401   4.029   5.439   1.257
 5027SOL    HW215402   3.954   5.499   1.125
 5028SOL     OW15403   4.664   5.434   0.893
 5028SOL    HW115404   4.743   5.390   0.936
 5028SOL    HW215405   4.628   5.375   0.821
 5029SOL     OW15406   4.119   4.412   0.472
 5029SOL    HW115407   4.139   4.315   0.486
 5029SOL    HW215408   4.022   4.430   0.491
 5030SOL     OW15409   5.241   3.948   1.724
 5030SOL    HW115410   5.250   3.966   1.822
 5030SOL    HW215411   5.173   3.876   1.710
 5031SOL     OW15412   4.363   3.861   0.095
 5031SOL    HW115413   4.450   3.820   0.121
 5031SOL    HW215414   4.314   3.800   0.033
 5032SOL     OW15415   4.493   4.001   1.767
 5032SOL    HW115416   4.578   3.950   1.756
 5032SOL    HW215417   4.438   3.958   1.839
 5033SOL     OW15418   4.597   5.241   1.192
 5033SOL    HW115419   4.575   5.201   1.103
 5033SOL    HW215420   4.666   5.185   1.238
 5034SOL     OW15421   5.055   4.313   1.435
 5034SOL    HW115422   5.086   4.278   1.523
 5034SOL    HW215423   5.091   4.405   1.422
 5035SOL     OW15424   4.543   5.114   0.941
 5035SOL    HW115425   4.632   5.100   0.899
 5035SOL    HW215426   4.473   5.118   0.870
 5036SOL     OW15427   4.647   4.235   0.897
 5036SOL    HW115428   4.622   4.227   0.800
 5036SOL    HW215429   4.673   4.144   0.931
 5037SOL     OW15430   4.282   3.792   0.492
 5037SOL    HW115431   4.214   3.791   0.566
 5037SOL    HW215432   4.268   3.872   0.435
 5038SOL     OW15433   5.144   4.926   0.037
 5038SOL    HW115434   5.181   4.850   0.092
 5038SOL    HW215435   5.056   4.954   0.075
 5039SOL     OW15436   4.011   3.778   0.179
 5039SOL    HW115437   4.065   3.852   0.139
 5039SOL    HW215438   4.073   3.714   0.225
 5040SOL     OW15439   4.677   3.980   0.459
 5040SOL    HW115440   4.643   4.017   0.372
 5040SOL    HW215441   4.775   3.994   0.465
 5041SOL     OW15442   4.793   4.412   1.439
 5041SOL    HW115443   4.716   4.349   1.450
 5041SOL    HW215444   4.879   4.360   1.437
 5042SOL     OW15445   4.947   5.289   0.782
 5042SOL    HW115446   4.958   5.366   0.719
 5042SOL    HW215447   5.014   5.295   0.855
 5043SOL     OW15448   4.196   4.888   0.719
 5043SOL    HW115449   4.134   4.861   0.793
 5043SOL    HW215450   4.150   4.877   0.631
 5044SOL     OW15451   4.981   5.517   0.612
 5044SOL    HW115452   5.036   5.580   0.557
 5044SOL    HW215453   4.908   5.567   0.658
 5045SOL     OW15454   4.749   4.247   0.026
 5045SOL    HW115455   4.703   4.333   0.005
 5045SOL    HW215456   4.810   4.259   0.105
 5046SOL     OW15457   3.827   4.270   1.394
 5046SOL    HW115458   3.920   4.271   1.357
 5046SOL    HW215459   3.816   4.343   1.461
 5047SOL     OW15460   4.277   3.982   1.199
 5047SOL    HW115461   4.291   3.956   1.104
 5047SOL    HW215462   4.185   3.954   1.227
 5048SOL     OW15463   4.596   4.193   0.632
 5048SOL    HW115464   4.541   4.249   0.571
 5048SOL    HW215465   4.618   4.106   0.588
 5049SOL     OW15466   4.746   3.771   0.738
 5049SOL    HW115467   4.677   3.773   0.665
 5049SOL    HW215468   4.723   3.699   0.803
 5050SOL     OW15469   5.173   4.879   0.863
 5050SOL    HW115470   5.103   4.807   0.868
 5050SOL    HW215471   5.207   4.885   0.769
 5051SOL     OW15472   5.192   4.336   0.959
 5051SOL    HW115473   5.126   4.261   0.959
 5051SOL    HW215474   5.251   4.329   1.039
 5052SOL     OW15475   5.559   4.526   0.375
 5052SOL    HW115476   5.619   4.484   0.444
 5052SOL    HW215477   5.537   4.459   0.305
 5053SOL     OW15478   4.215   5.135   0.160
 5053SOL    HW115479   4.134   5.114   0.215
 5053SOL    HW215480   4.201   5.103   0.067
 5054SOL     OW15481   5.409   4.995   0.638
 5054SOL    HW115482   5.508   4.991   0.653
 5054SOL    HW215483   5.376   5.087   0.659
 5055SOL     OW15484   5.110   4.296   0.070
 5055SOL    HW115485   5.041   4.275   0.140
 5055SOL    HW215486   5.200   4.265   0.101
 5056SOL     OW15487   4.246   3.994   0.305
 5056SOL    HW115488   4.296   3.939   0.237
 5056SOL    HW215489   4.215   4.079   0.263
 5057SOL     OW15490   5.475   4.967   1.544
 5057SOL    HW115491   5.564   4.925   1.528
 5057SOL    HW215492   5.488   5.059   1.581
 5058SOL     OW15493   4.771   5.075   1.338
 5058SOL    HW115494   4.688   5.044   1.384
 5058SOL    HW215495   4.851   5.032   1.380
 5059SOL     OW15496   5.341   5.358   1.662
 5059SOL    HW115497   5.322   5.394   1.571
 5059SOL    HW215498   5.425   5.304   1.660
 5060SOL     OW15499   4.869   4.959   1.105
 5060SOL    HW115500   4.808   4.987   1.179
 5060SOL    HW215501   4.826   4.981   1.017
 5061SOL     OW15502   5.348   4.820   1.083
 5061SOL    HW115503   5.344   4.886   1.158
 5061SOL    HW215504   5.272   4.836   1.020
 5062SOL     OW15505   4.646   3.812   1.393
 5062SOL    HW115506   4.661   3.793   1.296
 5062SOL    HW215507   4.728   3.855   1.432
 5063SOL     OW15508   4.701   4.838   1.721
 5063SOL    HW115509   4.607   4.856   1.750
 5063SOL    HW215510   4.704   4.755   1.666
 5064SOL     OW15511   4.437   4.776   0.378
 5064SOL    HW115512   4.419   4.756   0.475
 5064SOL    HW215513   4.516   4.723   0.348
 5065SOL     OW15514   4.150   4.542   1.260
 5065SOL    HW115515   4.225   4.553   1.326
 5065SOL    HW215516   4.115   4.449   1.264
 5066SOL     OW15517   4.985   4.094   1.286
 5066SOL    HW115518   5.018   4.176   1.333
 5066SOL    HW215519   4.890   4.108   1.257
 5067SOL     OW15520   3.800   5.294   1.355
 5067SOL    HW115521   3.760   5.361   1.292
 5067SOL    HW215522   3.899   5.294   1.346
 5068SOL     OW15523   4.057   4.856   0.482
 5068SOL    HW115524   4.046   4.934   0.420
 5068SOL    HW215525   4.057   4.771   0.429
 5069SOL     OW15526   4.281   4.292   0.871
 5069SOL    HW115527   4.299   4.353   0.794
 5069SOL    HW215528   4.309   4.199   0.847
 5070SOL     OW15529   4.928   5.098   0.407
 5070SOL    HW115530   4.995   5.169   0.428
 5070SOL    HW215531   4.927   5.031   0.481
 5071SOL     OW15532   5.021   5.189   1.144
 5071SOL    HW115533   5.075   5.195   1.228
 5071SOL    HW215534   4.968   5.105   1.145
 5072SOL     OW15535   5.295   4.349   0.479
 5072SOL    HW115536   5.244   4.386   0.557
 5072SOL    HW215537   5.353   4.421   0.441
 5073SOL     OW15538   4.071   5.261   1.303
 5073SOL    HW115539   4.057   5.211   1.218
 5073SOL    HW215540   4.169   5.275   1.317
 5074SOL     OW15541   4.143   4.468   1.602
 5074SOL    HW115542   4.210   4.514   1.543
 5074SOL    HW215543   4.174   4.375   1.620
 5075SOL     OW15544   5.342   4.515   1.691
 5075SOL    HW115545   5.250   4.554   1.685
 5075SOL    HW215546   5.398   4.552   1.617
 5076SOL     OW15547   4.726   3.862   1.758
 5076SOL    HW115548   4.782   3.942   1.739
 5076SOL    HW215549   4.773   3.780   1.727
 5077SOL     OW15550   4.210   3.755   1.764
 5077SOL    HW115551   4.164   3.699   1.696
 5077SOL    HW215552   4.156   3.836   1.783
 5078SOL     OW15553   4.293   4.608   1.031
 5078SOL    HW115554   4.346   4.692   1.041
 5078SOL    HW215555   4.243   4.590   1.116
 5079SOL     OW15556   5.055   4.578   1.013
 5079SOL    HW115557   4.961   4.557   0.987
 5079SOL    HW215558   5.112   4.497   1.001
 5080SOL     OW15559   4.913   4.250   0.258
 5080SOL    HW115560   4.930   4.168   0.313
 5080SOL    HW215561   4.869   4.320   0.314
 5081SOL     OW15562   4.011   3.918   1.250
 5081SOL    HW115563   3.974   3.947   1.339
 5081SOL    HW215564   4.003   3.818   1.243
 5082SOL     OW15565   3.778   5.032   1.272
 5082SOL    HW115566   3.809   4.971   1.344
 5082SOL    HW215567   3.779   5.127   1.306
 5083SOL     OW15568   4.485   4.380   1.080
 5083SOL    HW115569   4.527   4.324   1.009
 5083SOL    HW215570   4.407   4.430   1.041
 5084SOL     OW15571   5.469   4.688   1.864
 5084SOL    HW115572   5.429   4.618   1.805
 5084SOL    HW215573   5.406   4.709   1.939
 5085SOL     OW15574   4.023   3.778   0.633
 5085SOL    HW115575   4.012   3.876   0.649
 5085SOL    HW215576   4.041   3.733   0.721
 5086SOL     OW15577   5.356   4.115   0.348
 5086SOL    HW115578   5.374   4.036   0.406
 5086SOL    HW215579   5.324   4.191   0.405
 5087SOL     OW15580   4.759   4.481   0.953
 5087SOL    HW115581   4.742   4.508   1.048
 5087SOL    HW215582   4.721   4.390   0.937
 5088SOL     OW15583   4.707   5.289   1.723
 5088SOL    HW115584   4.687   5.336   1.637
 5088SOL    HW215585   4.752   5.201   1.704
 5089SOL     OW15586  -0.017   5.225   1.601
 5089SOL    HW115587   0.005   5.251   1.507
 5089SOL    HW215588   0.065   5.232   1.658
 5090SOL     OW15589   4.076   4.642   1.804
 5090SOL    HW115590   4.155   4.662   1.862
 5090SOL    HW215591   4.102   4.576   1.733
 5091SOL     OW15592   5.250   3.991   0.123
 5091SOL    HW115593   5.185   3.920   0.152
 5091SOL    HW215594   5.288   4.035   0.204
 5092SOL     OW15595   5.012   4.549   5.616
 5092SOL    HW115596   5.048   4.457   5.628
 5092SOL    HW215597   5.044   4.587   5.530
 5093SOL     OW15598   4.789   5.069   0.846
 5093SOL    HW115599   4.800   4.987   0.789
 5093SOL    HW215600   4.852   5.140   0.815
 5094SOL     OW15601   4.037   4.535   0.941
 5094SOL    HW115602   4.133   4.560   0.945
 5094SOL    HW215603   4.026   4.440   0.971
 5095SOL     OW15604   4.056   4.268   1.014
 5095SOL    HW115605   4.017   4.177   1.000
 5095SOL    HW215606   4.142   4.275   0.963
 5096SOL     OW15607   4.858   4.096   1.696
 5096SOL    HW115608   4.806   4.152   1.761
 5096SOL    HW215609   4.949   4.135   1.683
 5097SOL     OW15610   4.885   3.922   1.481
 5097SOL    HW115611   4.869   3.987   1.556
 5097SOL    HW215612   4.928   3.969   1.404
 5098SOL     OW15613   3.738   5.031   0.190
 5098SOL    HW115614   3.647   5.053   0.154
 5098SOL    HW215615   3.737   4.938   0.228
 5099SOL     OW15616   3.818   5.503   0.953
 5099SOL    HW115617   3.780   5.425   0.903
 5099SOL    HW215618   3.909   5.524   0.918
 5100SOL     OW15619   4.211   5.301   0.902
 5100SOL    HW115620   4.283   5.366   0.925
 5100SOL    HW215621   4.247   5.233   0.838
 5101SOL     OW15622   4.681   4.532   1.213
 5101SOL    HW115623   4.727   4.493   1.293
 5101SOL    HW215624   4.604   4.473   1.188
 5102SOL     OW15625   3.761   4.285   1.118
 5102SOL    HW115626   3.831   4.248   1.056
 5102SOL    HW215627   3.795   4.282   1.212
 5103SOL     OW15628   3.924   4.250   1.731
 5103SOL    HW115629   3.993   4.209   1.672
 5103SOL    HW215630   3.883   4.329   1.684
 5104SOL     OW15631   5.109   4.655   1.653
 5104SOL    HW115632   5.132   4.753   1.651
 5104SOL    HW215633   5.103   4.621   1.559
 5105SOL     OW15634   4.545   4.307   0.355
 5105SOL    HW115635   4.553   4.221   0.305
 5105SOL    HW215636   4.460   4.354   0.328
 5106SOL     OW15637   5.365   4.330   1.175
 5106SOL    HW115638   5.345   4.267   1.250
 5106SOL    HW215639   5.457   4.313   1.141
 5107SOL     OW15640   3.961   5.267   1.723
 5107SOL    HW115641   3.940   5.340   1.788
 5107SOL    HW215642   3.969   5.180   1.771
 5108SOL     OW15643   4.455   4.173   1.262
 5108SOL    HW115644   4.391   4.098   1.244
 5108SOL    HW215645   4.446   4.242   1.191
 5109SOL     OW15646   4.639   5.408   1.480
 5109SOL    HW115647   4.612   5.357   1.398
 5109SOL    HW215648   4.641   5.506   1.459
 5110SOL     OW15649   4.173   4.219   0.166
 5110SOL    HW115650   4.240   4.286   0.197
 5110SOL    HW215651   4.082   4.262   0.163
 5111SOL     OW15652   3.862   4.863   1.478
 5111SOL    HW115653   3.866   4.825   1.570
 5111SOL    HW215654   3.882   4.792   1.411
 5112SOL     OW15655   5.035   4.766   1.211
 5112SOL    HW115656   5.054   4.695   1.143
 5112SOL    HW215657   4.973   4.834   1.173
 5113SOL     OW15658   5.037   4.595   0.294
 5113SOL    HW115659   4.973   4.549   0.355
 5113SOL    HW215660   5.014   4.574   0.199
 5114SOL     OW15661   5.512   5.445   1.164
 5114SOL    HW115662   5.573   5.480   1.093
 5114SOL    HW215663   5.477   5.356   1.137
 5115SOL     OW15664   4.959   5.454   1.089
 5115SOL    HW115665   5.046   5.489   1.054
 5115SOL    HW215666   4.971   5.359   1.119
 5116SOL     OW15667   3.817   4.982   1.009
 5116SOL    HW115668   3.797   4.999   1.106
 5116SOL    HW215669   3.747   4.923   0.970
 5117SOL     OW15670   4.409   5.406   1.746
 5117SOL    HW115671   4.342   5.479   1.735
 5117SOL    HW215672   4.484   5.420   1.682
 5118SOL     OW15673   4.634   3.817   0.126
 5118SOL    HW115674   4.669   3.823   0.033
 5118SOL    HW215675   4.691   3.754   0.179
 5119SOL     OW15676   5.409   3.870   0.477
 5119SOL    HW115677   5.496   3.872   0.429
 5119SOL    HW215678   5.401   3.786   0.531
 5120SOL     OW15679   5.111   5.297   0.485
 5120SOL    HW115680   5.178   5.327   0.416
 5120SOL    HW215681   5.062   5.376   0.521
 5121SOL     OW15682   3.873   5.510   1.846
 5121SOL    HW115683   3.816   5.440   1.890
 5121SOL    HW215684   3.920   5.563   1.916
 5122SOL     OW15685   5.012   4.664   0.668
 5122SOL    HW115686   5.083   4.596   0.687
 5122SOL    HW215687   5.048   4.732   0.604
 5123SOL     OW15688   4.515   5.007   1.415
 5123SOL    HW115689   4.488   5.052   1.501
 5123SOL    HW215690   4.440   5.012   1.350
 5124SOL     OW15691   4.419   5.313   0.139
 5124SOL    HW115692   4.417   5.355   0.048
 5124SOL    HW215693   4.339   5.255   0.151
 5125SOL     OW15694   5.338   5.455   1.389
 5125SOL    HW115695   5.399   5.452   1.310
 5125SOL    HW215696   5.325   5.549   1.418
 5126SOL     OW15697   5.569   3.895   0.964
 5126SOL    HW115698   5.601   3.802   0.945
 5126SOL    HW215699   5.477   3.906   0.925
 5127SOL     OW15700   3.986   4.039   0.703
 5127SOL    HW115701   3.895   4.081   0.704
 5127SOL    HW215702   4.020   4.032   0.797
 5128SOL     OW15703   4.934   5.326   0.034
 5128SOL    HW115704   4.925   5.232   0.067
 5128SOL    HW215705   4.868   5.342  -0.040
 5129SOL     OW15706   4.546   4.732   1.386
 5129SOL    HW115707   4.595   4.702   1.304
 5129SOL    HW215708   4.544   4.832   1.389
 5130SOL     OW15709   4.653   4.645   0.290
 5130SOL    HW115710   4.713   4.677   0.218
 5130SOL    HW215711   4.697   4.570   0.340
 5131SOL     OW15712   5.215   5.351   0.043
 5131SOL    HW115713   5.116   5.344   0.031
 5131SOL    HW215714   5.259   5.359  -0.047
 5132SOL     OW15715   4.088   5.030   1.486
 5132SOL    HW115716   4.078   5.110   1.426
 5132SOL    HW215717   4.009   4.970   1.475
 5133SOL     OW15718   5.339   5.014   1.288
 5133SOL    HW115719   5.396   4.988   1.365
 5133SOL    HW215720   5.271   5.081   1.317
 5134SOL     OW15721   4.797   4.837   0.709
 5134SOL    HW115722   4.719   4.789   0.751
 5134SOL    HW215723   4.869   4.771   0.690
 5135SOL     OW15724   4.751   3.966   0.967
 5135SOL    HW115725   4.740   3.927   0.875
 5135SOL    HW215726   4.745   3.893   1.035
 5136SOL     OW15727   4.338   5.219   0.459
 5136SOL    HW115728   4.335   5.149   0.388
 5136SOL    HW215729   4.276   5.294   0.435
 5137SOL     OW15730   5.472   4.114   1.387
 5137SOL    HW115731   5.544   4.184   1.381
 5137SOL    HW215732   5.493   4.040   1.323
 5138SOL     OW15733   3.989   5.068   0.307
 5138SOL    HW115734   3.897   5.060   0.269
 5138SOL    HW215735   3.985   5.115   0.395
 5139SOL     OW15736   3.844   4.776   1.740
 5139SOL    HW115737   3.762   4.744   1.786
 5139SOL    HW215738   3.923   4.721   1.771
 5140SOL     OW15739   4.402   3.920   1.511
 5140SOL    HW115740   4.482   3.898   1.456
 5140SOL    HW215741   4.431   3.954   1.600
 5141SOL     OW15742   3.808   4.049   5.620
 5141SOL    HW115743   3.720   4.020   5.582
 5141SOL    HW215744   3.837   4.134   5.576
 5142SOL     OW15745   5.141   4.579   1.392
 5142SOL    HW115746   5.084   4.640   1.337
 5142SOL    HW215747   5.235   4.580   1.356
 5143SOL     OW15748   3.779   3.877   0.293
 5143SOL    HW115749   3.765   3.959   0.237
 5143SOL    HW215750   3.869   3.838   0.272
 5144SOL     OW15751   4.897   5.066   0.124
 5144SOL    HW115752   4.801   5.045   0.106
 5144SOL    HW215753   4.911   5.072   0.223
 5145SOL     OW15754   4.351   4.551   1.439
 5145SOL    HW115755   4.409   4.632   1.423
 5145SOL    HW215756   4.408   4.470   1.447
 5146SOL     OW15757   5.209   5.528   0.994
 5146SOL    HW115758   5.233   5.597   0.926
 5146SOL    HW215759   5.292   5.483   1.027
 5147SOL     OW15760   4.441   4.273   1.713
 5147SOL    HW115761   4.494   4.337   1.769
 5147SOL    HW215762   4.462   4.180   1.741
 5148SOL     OW15763   5.199   4.916   1.631
 5148SOL    HW115764   5.185   4.931   1.729
 5148SOL    HW215765   5.294   4.937   1.607
 5149SOL     OW15766   4.090   5.467   1.573
 5149SOL    HW115767   4.008   5.521   1.556
 5149SOL    HW215768   4.064   5.378   1.611
 5150SOL     OW15769   5.384   4.598   1.258
 5150SOL    HW115770   5.381   4.507   1.217
 5150SOL    HW215771   5.374   4.668   1.187
 5151SOL     OW15772   4.952   4.048   0.454
 5151SOL    HW115773   5.011   3.968   0.448
 5151SOL    HW215774   4.977   4.102   0.535
 5152SOL     OW15775   4.317   4.463   0.660
 5152SOL    HW115776   4.353   4.556   0.650
 5152SOL    HW215777   4.246   4.448   0.592
 5153SOL     OW15778   5.469   4.087   1.661
 5153SOL    HW115779   5.469   4.103   1.562
 5153SOL    HW215780   5.391   4.030   1.686
 5154SOL     OW15781   5.485   4.653   1.507
 5154SOL    HW115782   5.469   4.749   1.527
 5154SOL    HW215783   5.458   4.633   1.413
 5155SOL     OW15784   4.597   5.120   0.058
 5155SOL    HW115785   4.532   5.185   0.099
 5155SOL    HW215786   4.636   5.160  -0.024
 5156SOL     OW15787   4.391   5.501   0.923
 5156SOL    HW115788   4.363   5.597   0.915
 5156SOL    HW215789   4.491   5.495   0.924
 5157SOL     OW15790   4.600   4.706   0.855
 5157SOL    HW115791   4.644   4.622   0.885
 5157SOL    HW215792   4.550   4.747   0.931
 5158SOL     OW15793   4.807   4.721   0.082
 5158SOL    HW115794   4.774   4.769   0.001
 5158SOL    HW215795   4.880   4.658   0.057
 5159SOL     OW15796   5.564   5.285   0.849
 5159SOL    HW115797   5.488   5.273   0.785
 5159SOL    HW215798   5.556   5.219   0.923
 5160SOL     OW15799   3.954   5.014   1.850
 5160SOL    HW115800   3.904   4.938   1.807
 5160SOL    HW215801   3.919   5.028   1.943
 5161SOL     OW15802   3.816   4.952   0.662
 5161SOL    HW115803   3.827   4.909   0.752
 5161SOL    HW215804   3.884   4.914   0.599
 5162SOL     OW15805   4.412   5.140   1.635
 5162SOL    HW115806   4.331   5.090   1.668
 5162SOL    HW215807   4.411   5.232   1.672
 5163SOL     OW15808   5.531   3.901   1.234
 5163SOL    HW115809   5.528   3.804   1.255
 5163SOL    HW215810   5.546   3.914   1.136
 5164SOL     OW15811   4.157   4.154   0.519
 5164SOL    HW115812   4.196   4.085   0.458
 5164SOL    HW215813   4.105   4.109   0.591
 5165SOL     OW15814   5.416   5.202   1.091
 5165SOL    HW115815   5.337   5.186   1.032
 5165SOL    HW215816   5.419   5.133   1.163
 5166SOL     OW15817   4.072   4.280   1.289
 5166SOL    HW115818   4.130   4.220   1.343
 5166SOL    HW215819   4.082   4.258   1.192
 5167SOL     OW15820   4.544   5.322   0.664
 5167SOL    HW115821   4.519   5.413   0.632
 5167SOL    HW215822   4.462   5.274   0.695
 5168SOL     OW15823   5.150   3.956   1.112
 5168SOL    HW115824   5.157   3.858   1.129
 5168SOL    HW215825   5.097   4.000   1.184
 5169SOL     OW15826   4.734   3.742   1.132
 5169SOL    HW115827   4.667   3.683   1.086
 5169SOL    HW215828   4.823   3.697   1.133
 5170SOL     OW15829   4.540   5.025   0.329
 5170SOL    HW115830   4.498   4.937   0.351
 5170SOL    HW215831   4.560   5.029   0.231
 5171SOL     OW15832   4.347   5.290   1.291
 5171SOL    HW115833   4.343   5.377   1.341
 5171SOL    HW215834   4.438   5.278   1.253
 5172SOL     OW15835   5.084   3.767   0.174
 5172SOL    HW115836   5.130   3.690   0.129
 5172SOL    HW215837   4.988   3.743   0.191
 5173SOL     OW15838   5.025   4.195   0.678
 5173SOL    HW115839   4.969   4.278   0.676
 5173SOL    HW215840   5.016   4.152   0.768
 5174SOL     OW15841   5.311   3.923   0.887
 5174SOL    HW115842   5.254   3.947   0.966
 5174SOL    HW215843   5.311   3.999   0.822
 5175SOL     OW15844   3.767   4.779   0.309
 5175SOL    HW115845   3.865   4.774   0.287
 5175SOL    HW215846   3.733   4.687   0.330
 5176SOL     OW15847   4.601   5.392   0.339
 5176SOL    HW115848   4.536   5.379   0.264
 5176SOL    HW215849   4.576   5.473   0.391
 5177SOL     OW15850   3.934   4.340   1.996
 5177SOL    HW115851   3.841   4.334   2.032
 5177SOL    HW215852   3.933   4.323   1.898
 5178SOL     OW15853   3.946   4.006   2.856
 5178SOL    HW115854   3.980   3.971   2.943
 5178SOL    HW215855   3.852   3.974   2.841
 5179SOL     OW15856   3.726   4.108   2.492
 5179SOL    HW115857   3.647   4.140   2.546
 5179SOL    HW215858   3.699   4.029   2.438
 5180SOL     OW15859   4.297   5.030   3.061
 5180SOL    HW115860   4.210   5.026   3.013
 5180SOL    HW215861   4.314   5.124   3.092
 5181SOL     OW15862   5.299   5.245   2.567
 5181SOL    HW115863   5.255   5.215   2.651
 5181SOL    HW215864   5.232   5.251   2.494
 5182SOL     OW15865   4.864   4.428   2.555
 5182SOL    HW115866   4.913   4.513   2.536
 5182SOL    HW215867   4.810   4.439   2.638
 5183SOL     OW15868   5.488   4.319   2.089
 5183SOL    HW115869   5.466   4.319   1.992
 5183SOL    HW215870   5.455   4.235   2.131
 5184SOL     OW15871   4.461   4.863   2.910
 5184SOL    HW115872   4.395   4.899   2.976
 5184SOL    HW215873   4.505   4.938   2.862
 5185SOL     OW15874   4.606   4.477   3.686
 5185SOL    HW115875   4.592   4.543   3.760
 5185SOL    HW215876   4.627   4.526   3.601
 5186SOL     OW15877   4.408   4.720   2.509
 5186SOL    HW115878   4.479   4.713   2.580
 5186SOL    HW215879   4.334   4.778   2.542
 5187SOL     OW15880   4.437   4.877   3.686
 5187SOL    HW115881   4.490   4.954   3.722
 5187SOL    HW215882   4.355   4.912   3.641
 5188SOL     OW15883   4.055   5.140   2.929
 5188SOL    HW115884   3.977   5.093   2.888
 5188SOL    HW215885   4.101   5.194   2.858
 5189SOL     OW15886   5.181   5.226   3.228
 5189SOL    HW115887   5.236   5.309   3.236
 5189SOL    HW215888   5.104   5.232   3.292
 5190SOL     OW15889   4.179   4.111   3.335
 5190SOL    HW115890   4.262   4.056   3.344
 5190SOL    HW215891   4.099   4.055   3.355
 5191SOL     OW15892   5.352   4.182   2.609
 5191SOL    HW115893   5.295   4.199   2.529
 5191SOL    HW215894   5.361   4.266   2.663
 5192SOL     OW15895   3.948   5.444   2.332
 5192SOL    HW115896   3.967   5.521   2.392
 5192SOL    HW215897   4.021   5.434   2.265
 5193SOL     OW15898   4.861   5.064   3.562
 5193SOL    HW115899   4.904   5.062   3.652
 5193SOL    HW215900   4.804   4.982   3.551
 5194SOL     OW15901   3.962   5.172   2.402
 5194SOL    HW115902   3.941   5.270   2.402
 5194SOL    HW215903   3.902   5.126   2.467
 5195SOL     OW15904   4.019   4.817   2.776
 5195SOL    HW115905   4.004   4.721   2.802
 5195SOL    HW215906   3.948   4.874   2.818
 5196SOL     OW15907   4.319   5.523   3.293
 5196SOL    HW115908   4.234   5.500   3.342
 5196SOL    HW215909   4.348   5.615   3.320
 5197SOL     OW15910   4.300   4.714   2.011
 5197SOL    HW115911   4.348   4.758   1.935
 5197SOL    HW215912   4.342   4.742   2.097
 5198SOL     OW15913   5.293   3.879   3.305
 5198SOL    HW115914   5.350   3.960   3.291
 5198SOL    HW215915   5.258   3.878   3.399
 5199SOL     OW15916   3.841   4.382   2.420
 5199SOL    HW115917   3.810   4.288   2.436
 5199SOL    HW215918   3.837   4.433   2.506
 5200SOL     OW15919  -0.017   5.478   2.193
 5200SOL    HW115920   0.058   5.452   2.254
 5200SOL    HW215921  -0.005   5.574   2.165
 5201SOL     OW15922   3.759   5.310   1.983
 5201SOL    HW115923   3.741   5.213   2.001
 5201SOL    HW215924   3.737   5.364   2.064
 5202SOL     OW15925   5.425   4.650   2.514
 5202SOL    HW115926   5.505   4.594   2.493
 5202SOL    HW215927   5.398   4.702   2.433
 5203SOL     OW15928   5.382   4.825   2.297
 5203SOL    HW115929   5.471   4.819   2.252
 5203SOL    HW215930   5.387   4.896   2.368
 5204SOL     OW15931   3.850   4.472   3.447
 5204SOL    HW115932   3.946   4.500   3.444
 5204SOL    HW215933   3.791   4.552   3.440
 5205SOL     OW15934   4.340   5.119   2.594
 5205SOL    HW115935   4.294   5.031   2.605
 5205SOL    HW215936   4.326   5.152   2.500
 5206SOL     OW15937   5.006   4.956   3.283
 5206SOL    HW115938   5.030   4.884   3.218
 5206SOL    HW215939   5.067   4.950   3.363
 5207SOL     OW15940   4.547   3.744   2.372
 5207SOL    HW115941   4.592   3.829   2.346
 5207SOL    HW215942   4.448   3.758   2.376
 5208SOL     OW15943   3.913   4.679   3.151
 5208SOL    HW115944   4.003   4.638   3.136
 5208SOL    HW215945   3.851   4.652   3.077
 5209SOL     OW15946   5.258   4.732   2.068
 5209SOL    HW115947   5.185   4.670   2.096
 5209SOL    HW215948   5.306   4.765   2.149
 5210SOL     OW15949   4.914   5.549   3.488
 5210SOL    HW115950   4.910   5.616   3.413
 5210SOL    HW215951   4.925   5.457   3.450
 5211SOL     OW15952   4.075   3.982   3.721
 5211SOL    HW115953   4.123   4.063   3.753
 5211SOL    HW215954   3.977   3.994   3.732
 5212SOL     OW15955   5.190   5.146   2.800
 5212SOL    HW115956   5.125   5.166   2.873
 5212SOL    HW215957   5.181   5.051   2.772
 5213SOL     OW15958   5.369   5.492   2.434
 5213SOL    HW115959   5.352   5.461   2.340
 5213SOL    HW215960   5.353   5.416   2.497
 5214SOL     OW15961   4.316   4.440   2.140
 5214SOL    HW115962   4.318   4.527   2.090
 5214SOL    HW215963   4.246   4.444   2.211
 5215SOL     OW15964   5.002   4.080   2.819
 5215SOL    HW115965   4.914   4.036   2.802
 5215SOL    HW215966   5.015   4.091   2.917
 5216SOL     OW15967   5.310   5.403   2.172
 5216SOL    HW115968   5.408   5.423   2.167
 5216SOL    HW215969   5.275   5.385   2.080
 5217SOL     OW15970   4.524   4.330   3.309
 5217SOL    HW115971   4.495   4.305   3.402
 5217SOL    HW215972   4.490   4.262   3.244
 5218SOL     OW15973   5.115   4.192   3.538
 5218SOL    HW115974   5.116   4.243   3.624
 5218SOL    HW215975   5.167   4.108   3.548
 5219SOL     OW15976   4.676   4.607   3.448
 5219SOL    HW115977   4.735   4.537   3.407
 5219SOL    HW215978   4.622   4.651   3.377
 5220SOL     OW15979   4.739   4.108   3.079
 5220SOL    HW115980   4.652   4.134   3.120
 5220SOL    HW215981   4.722   4.062   2.992
 5221SOL     OW15982   4.777   4.423   2.285
 5221SOL    HW115983   4.799   4.417   2.382
 5221SOL    HW215984   4.690   4.377   2.268
 5222SOL     OW15985   3.823   4.529   2.644
 5222SOL    HW115986   3.904   4.533   2.704
 5222SOL    HW215987   3.767   4.611   2.659
 5223SOL     OW15988   3.854   5.609   3.455
 5223SOL    HW115989   3.860   5.580   3.550
 5223SOL    HW215990   3.768   5.577   3.416
 5224SOL     OW15991   4.619   4.078   2.061
 5224SOL    HW115992   4.665   4.143   2.001
 5224SOL    HW215993   4.602   3.993   2.012
 5225SOL     OW15994   5.414   4.297   3.696
 5225SOL    HW115995   5.389   4.377   3.640
 5225SOL    HW215996   5.441   4.222   3.636
 5226SOL     OW15997   5.109   4.870   2.394
 5226SOL    HW115998   5.192   4.853   2.340
 5226SOL    HW215999   5.051   4.936   2.346
 5227SOL     OW16000   4.270   3.893   2.767
 5227SOL    HW116001   4.277   3.925   2.862
 5227SOL    HW216002   4.270   3.972   2.706
 5228SOL     OW16003   4.717   5.174   2.324
 5228SOL    HW116004   4.688   5.254   2.271
 5228SOL    HW216005   4.691   5.186   2.420
 5229SOL     OW16006   4.079   5.542   2.737
 5229SOL    HW116007   4.122   5.452   2.743
 5229SOL    HW216008   4.146   5.613   2.759
 5230SOL     OW16009   5.531   4.786   2.737
 5230SOL    HW116010   5.483   4.759   2.654
 5230SOL    HW216011   5.467   4.790   2.814
 5231SOL     OW16012   4.949   5.260   3.376
 5231SOL    HW116013   4.936   5.188   3.443
 5231SOL    HW216014   4.875   5.257   3.309
 5232SOL     OW16015   4.039   4.685   2.121
 5232SOL    HW116016   4.127   4.706   2.078
 5232SOL    HW216017   4.003   4.599   2.085
 5233SOL     OW16018   5.214   4.486   2.581
 5233SOL    HW116019   5.211   4.445   2.673
 5233SOL    HW216020   5.294   4.546   2.574
 5234SOL     OW16021   4.198   4.992   3.589
 5234SOL    HW116022   4.171   4.998   3.493
 5234SOL    HW216023   4.117   4.989   3.646
 5235SOL     OW16024   4.851   5.498   2.090
 5235SOL    HW116025   4.767   5.465   2.134
 5235SOL    HW216026   4.879   5.434   2.019
 5236SOL     OW16027   3.932   3.987   3.360
 5236SOL    HW116028   3.854   4.050   3.355
 5236SOL    HW216029   3.903   3.900   3.399
 5237SOL     OW16030   5.347   5.110   1.958
 5237SOL    HW116031   5.310   5.201   1.939
 5237SOL    HW216032   5.279   5.040   1.935
 5238SOL     OW16033   4.185   5.467   2.176
 5238SOL    HW116034   4.230   5.526   2.243
 5238SOL    HW216035   4.255   5.424   2.117
 5239SOL     OW16036   5.123   3.825   2.306
 5239SOL    HW116037   5.108   3.799   2.211
 5239SOL    HW216038   5.221   3.830   2.325
 5240SOL     OW16039   3.985   5.520   3.081
 5240SOL    HW116040   4.031   5.440   3.121
 5240SOL    HW216041   3.956   5.498   2.988
 5241SOL     OW16042   4.662   5.431   2.751
 5241SOL    HW116043   4.745   5.384   2.782
 5241SOL    HW216044   4.621   5.378   2.677
 5242SOL     OW16045   4.121   4.408   2.338
 5242SOL    HW116046   4.141   4.310   2.352
 5242SOL    HW216047   4.024   4.424   2.352
 5243SOL     OW16048   5.229   3.937   3.585
 5243SOL    HW116049   5.248   3.959   3.681
 5243SOL    HW216050   5.156   3.868   3.581
 5244SOL     OW16051   4.376   3.834   1.963
 5244SOL    HW116052   4.442   3.762   1.984
 5244SOL    HW216053   4.314   3.803   1.892
 5245SOL     OW16054   4.489   4.000   3.625
 5245SOL    HW116055   4.575   3.950   3.616
 5245SOL    HW216056   4.435   3.959   3.699
 5246SOL     OW16057   4.596   5.240   3.055
 5246SOL    HW116058   4.575   5.202   2.966
 5246SOL    HW216059   4.666   5.184   3.100
 5247SOL     OW16060   5.063   4.295   3.286
 5247SOL    HW116061   5.090   4.264   3.377
 5247SOL    HW216062   5.092   4.390   3.273
 5248SOL     OW16063   4.545   5.108   2.808
 5248SOL    HW116064   4.635   5.099   2.766
 5248SOL    HW216065   4.476   5.118   2.736
 5249SOL     OW16066   4.652   4.230   2.753
 5249SOL    HW116067   4.626   4.223   2.657
 5249SOL    HW216068   4.678   4.139   2.786
 5250SOL     OW16069   4.276   3.789   2.351
 5250SOL    HW116070   4.195   3.787   2.410
 5250SOL    HW216071   4.269   3.868   2.289
 5251SOL     OW16072   5.151   4.927   1.903
 5251SOL    HW116073   5.184   4.849   1.957
 5251SOL    HW216074   5.061   4.954   1.937
 5252SOL     OW16075   4.011   3.773   2.055
 5252SOL    HW116076   4.057   3.841   1.998
 5252SOL    HW216077   4.079   3.711   2.094
 5253SOL     OW16078   4.676   3.981   2.314
 5253SOL    HW116079   4.646   4.017   2.225
 5253SOL    HW216080   4.775   3.994   2.323
 5254SOL     OW16081   4.801   4.407   3.310
 5254SOL    HW116082   4.719   4.350   3.319
 5254SOL    HW216083   4.882   4.349   3.306
 5255SOL     OW16084   4.938   5.299   2.657
 5255SOL    HW116085   4.951   5.368   2.585
 5255SOL    HW216086   5.016   5.302   2.720
 5256SOL     OW16087   4.198   4.881   2.584
 5256SOL    HW116088   4.137   4.859   2.660
 5256SOL    HW216089   4.150   4.871   2.498
 5257SOL     OW16090   4.982   5.517   2.477
 5257SOL    HW116091   5.034   5.579   2.418
 5257SOL    HW216092   4.904   5.566   2.516
 5258SOL     OW16093   4.749   4.254   1.897
 5258SOL    HW116094   4.704   4.340   1.871
 5258SOL    HW216095   4.819   4.273   1.966
 5259SOL     OW16096   3.821   4.274   3.261
 5259SOL    HW116097   3.915   4.272   3.225
 5259SOL    HW216098   3.812   4.350   3.325
 5260SOL     OW16099   4.286   3.946   3.039
 5260SOL    HW116100   4.333   3.867   3.080
 5260SOL    HW216101   4.190   3.945   3.065
 5261SOL     OW16102   4.592   4.184   2.492
 5261SOL    HW116103   4.543   4.246   2.431
 5261SOL    HW216104   4.621   4.103   2.442
 5262SOL     OW16105   4.743   3.772   2.598
 5262SOL    HW116106   4.681   3.774   2.520
 5262SOL    HW216107   4.717   3.698   2.660
 5263SOL     OW16108   5.175   4.884   2.720
 5263SOL    HW116109   5.096   4.823   2.723
 5263SOL    HW216110   5.206   4.892   2.625
 5264SOL     OW16111   5.203   4.349   2.827
 5264SOL    HW116112   5.149   4.266   2.816
 5264SOL    HW216113   5.266   4.339   2.904
 5265SOL     OW16114   5.566   4.528   2.244
 5265SOL    HW116115   5.628   4.481   2.308
 5265SOL    HW216116   5.534   4.464   2.175
 5266SOL     OW16117   4.210   5.147   2.016
 5266SOL    HW116118   4.129   5.120   2.068
 5266SOL    HW216119   4.213   5.097   1.930
 5267SOL     OW16120   5.409   4.995   2.504
 5267SOL    HW116121   5.508   4.993   2.511
 5267SOL    HW216122   5.376   5.088   2.520
 5268SOL     OW16123   5.114   4.300   1.931
 5268SOL    HW116124   5.053   4.274   2.005
 5268SOL    HW216125   5.207   4.272   1.953
 5269SOL     OW16126   4.254   3.987   2.165
 5269SOL    HW116127   4.304   3.936   2.095
 5269SOL    HW216128   4.222   4.073   2.126
 5270SOL     OW16129   5.472   4.964   3.415
 5270SOL    HW116130   5.555   4.912   3.433
 5270SOL    HW216131   5.487   5.061   3.437
 5271SOL     OW16132   4.769   5.074   3.199
 5271SOL    HW116133   4.687   5.043   3.247
 5271SOL    HW216134   4.850   5.033   3.242
 5272SOL     OW16135   5.343   5.358   3.524
 5272SOL    HW116136   5.323   5.393   3.432
 5272SOL    HW216137   5.425   5.300   3.521
 5273SOL     OW16138   4.871   4.959   2.967
 5273SOL    HW116139   4.807   4.989   3.039
 5273SOL    HW216140   4.836   4.987   2.878
 5274SOL     OW16141   5.350   4.821   2.943
 5274SOL    HW116142   5.343   4.886   3.018
 5274SOL    HW216143   5.276   4.838   2.877
 5275SOL     OW16144   4.641   3.825   3.249
 5275SOL    HW116145   4.662   3.799   3.155
 5275SOL    HW216146   4.722   3.865   3.291
 5276SOL     OW16147   4.702   4.839   3.583
 5276SOL    HW116148   4.608   4.858   3.612
 5276SOL    HW216149   4.703   4.755   3.528
 5277SOL     OW16150   4.441   4.784   2.237
 5277SOL    HW116151   4.422   4.763   2.333
 5277SOL    HW216152   4.520   4.732   2.206
 5278SOL     OW16153   4.150   4.541   3.120
 5278SOL    HW116154   4.224   4.552   3.187
 5278SOL    HW216155   4.112   4.449   3.128
 5279SOL     OW16156   5.009   4.089   3.107
 5279SOL    HW116157   5.042   4.163   3.165
 5279SOL    HW216158   4.910   4.097   3.095
 5280SOL     OW16159   3.800   5.293   3.217
 5280SOL    HW116160   3.760   5.360   3.155
 5280SOL    HW216161   3.900   5.294   3.208
 5281SOL     OW16162   4.057   4.853   2.348
 5281SOL    HW116163   4.054   4.934   2.290
 5281SOL    HW216164   4.056   4.771   2.290
 5282SOL     OW16165   4.268   4.267   2.728
 5282SOL    HW116166   4.281   4.326   2.648
 5282SOL    HW216167   4.339   4.287   2.795
 5283SOL     OW16168   4.969   5.081   2.258
 5283SOL    HW116169   5.030   5.153   2.289
 5283SOL    HW216170   4.875   5.103   2.286
 5284SOL     OW16171   5.022   5.190   3.007
 5284SOL    HW116172   5.075   5.194   3.092
 5284SOL    HW216173   4.966   5.107   3.006
 5285SOL     OW16174   5.299   4.333   2.359
 5285SOL    HW116175   5.246   4.389   2.422
 5285SOL    HW216176   5.341   4.391   2.289
 5286SOL     OW16177   4.072   5.260   3.166
 5286SOL    HW116178   4.057   5.211   3.080
 5286SOL    HW216179   4.170   5.274   3.180
 5287SOL     OW16180   4.144   4.468   3.464
 5287SOL    HW116181   4.211   4.514   3.405
 5287SOL    HW216182   4.176   4.376   3.485
 5288SOL     OW16183   5.346   4.515   3.548
 5288SOL    HW116184   5.253   4.552   3.544
 5288SOL    HW216185   5.401   4.554   3.475
 5289SOL     OW16186   4.722   3.863   3.613
 5289SOL    HW116187   4.783   3.942   3.597
 5289SOL    HW216188   4.772   3.779   3.594
 5290SOL     OW16189   4.214   3.768   3.615
 5290SOL    HW116190   4.166   3.708   3.550
 5290SOL    HW216191   4.158   3.848   3.635
 5291SOL     OW16192   4.316   4.595   2.903
 5291SOL    HW116193   4.346   4.690   2.896
 5291SOL    HW216194   4.250   4.586   2.978
 5292SOL     OW16195   5.061   4.583   2.881
 5292SOL    HW116196   4.970   4.569   2.842
 5292SOL    HW216197   5.116   4.501   2.867
 5293SOL     OW16198   4.923   4.250   2.125
 5293SOL    HW116199   4.933   4.166   2.179
 5293SOL    HW216200   4.877   4.320   2.180
 5294SOL     OW16201   4.023   3.917   3.105
 5294SOL    HW116202   3.990   3.949   3.194
 5294SOL    HW216203   4.009   3.818   3.099
 5295SOL     OW16204   3.777   5.032   3.136
 5295SOL    HW116205   3.808   4.971   3.209
 5295SOL    HW216206   3.778   5.126   3.168
 5296SOL     OW16207   4.451   4.354   2.915
 5296SOL    HW116208   4.524   4.337   2.849
 5296SOL    HW216209   4.413   4.446   2.899
 5297SOL     OW16210   5.467   4.693   3.721
 5297SOL    HW116211   5.429   4.619   3.665
 5297SOL    HW216212   5.405   4.712   3.798
 5298SOL     OW16213   4.039   3.783   2.493
 5298SOL    HW116214   4.011   3.877   2.509
 5298SOL    HW216215   4.050   3.736   2.581
 5299SOL     OW16216   5.355   4.103   2.219
 5299SOL    HW116217   5.386   4.028   2.278
 5299SOL    HW216218   5.324   4.179   2.276
 5300SOL     OW16219   4.749   4.477   2.815
 5300SOL    HW116220   4.738   4.498   2.912
 5300SOL    HW216221   4.721   4.383   2.797
 5301SOL     OW16222   4.711   5.293   3.583
 5301SOL    HW116223   4.690   5.337   3.496
 5301SOL    HW216224   4.752   5.203   3.566
 5302SOL     OW16225  -0.014   5.222   3.454
 5302SOL    HW116226   0.010   5.262   3.365
 5302SOL    HW216227   0.063   5.230   3.516
 5303SOL     OW16228   4.077   4.640   3.669
 5303SOL    HW116229   4.156   4.663   3.726
 5303SOL    HW216230   4.106   4.576   3.598
 5304SOL     OW16231   5.243   3.991   1.990
 5304SOL    HW116232   5.179   3.920   2.017
 5304SOL    HW216233   5.284   4.032   2.072
 5305SOL     OW16234   5.013   4.550   1.886
 5305SOL    HW116235   5.050   4.458   1.894
 5305SOL    HW216236   5.044   4.591   1.800
 5306SOL     OW16237   4.797   5.067   2.721
 5306SOL    HW116238   4.803   4.988   2.660
 5306SOL    HW216239   4.851   5.142   2.683
 5307SOL     OW16240   4.039   4.533   2.812
 5307SOL    HW116241   4.136   4.554   2.799
 5307SOL    HW216242   4.030   4.437   2.840
 5308SOL     OW16243   4.047   4.252   2.874
 5308SOL    HW116244   4.007   4.161   2.863
 5308SOL    HW216245   4.128   4.261   2.816
 5309SOL     OW16246   4.860   4.096   3.554
 5309SOL    HW116247   4.807   4.149   3.620
 5309SOL    HW216248   4.952   4.134   3.546
 5310SOL     OW16249   4.883   3.929   3.333
 5310SOL    HW116250   4.870   3.990   3.411
 5310SOL    HW216251   4.922   3.980   3.256
 5311SOL     OW16252   3.730   5.034   2.055
 5311SOL    HW116253   3.639   5.055   2.018
 5311SOL    HW216254   3.730   4.940   2.090
 5312SOL     OW16255   3.819   5.503   2.813
 5312SOL    HW116256   3.780   5.425   2.765
 5312SOL    HW216257   3.911   5.522   2.777
 5313SOL     OW16258   4.213   5.302   2.764
 5313SOL    HW116259   4.284   5.366   2.791
 5313SOL    HW216260   4.252   5.234   2.701
 5314SOL     OW16261   4.689   4.513   3.079
 5314SOL    HW116262   4.748   4.490   3.157
 5314SOL    HW216263   4.600   4.469   3.091
 5315SOL     OW16264   3.778   4.281   2.979
 5315SOL    HW116265   3.859   4.276   2.920
 5315SOL    HW216266   3.806   4.280   3.075
 5316SOL     OW16267   3.905   4.249   3.594
 5316SOL    HW116268   3.969   4.197   3.538
 5316SOL    HW216269   3.878   4.332   3.545
 5317SOL     OW16270   5.111   4.651   3.511
 5317SOL    HW116271   5.131   4.748   3.510
 5317SOL    HW216272   5.102   4.617   3.417
 5318SOL     OW16273   4.542   4.299   2.225
 5318SOL    HW116274   4.552   4.219   2.166
 5318SOL    HW216275   4.462   4.352   2.196
 5319SOL     OW16276   5.382   4.324   3.035
 5319SOL    HW116277   5.366   4.272   3.119
 5319SOL    HW216278   5.476   4.311   3.005
 5320SOL     OW16279   3.963   5.268   3.585
 5320SOL    HW116280   3.941   5.344   3.647
 5320SOL    HW216281   3.970   5.183   3.637
 5321SOL     OW16282   4.452   4.164   3.108
 5321SOL    HW116283   4.389   4.088   3.090
 5321SOL    HW216284   4.442   4.233   3.036
 5322SOL     OW16285   4.646   5.406   3.336
 5322SOL    HW116286   4.614   5.355   3.255
 5322SOL    HW216287   4.641   5.504   3.317
 5323SOL     OW16288   4.174   4.218   2.047
 5323SOL    HW116289   4.240   4.289   2.070
 5323SOL    HW216290   4.084   4.259   2.037
 5324SOL     OW16291   3.860   4.863   3.341
 5324SOL    HW116292   3.864   4.824   3.433
 5324SOL    HW216293   3.881   4.792   3.274
 5325SOL     OW16294   5.034   4.768   3.077
 5325SOL    HW116295   5.055   4.699   3.008
 5325SOL    HW216296   4.972   4.836   3.038
 5326SOL     OW16297   5.045   4.581   2.157
 5326SOL    HW116298   4.968   4.552   2.214
 5326SOL    HW216299   5.022   4.568   2.061
 5327SOL     OW16300   5.492   5.446   3.015
 5327SOL    HW116301   5.561   5.478   2.950
 5327SOL    HW216302   5.461   5.354   2.988
 5328SOL     OW16303   4.966   5.460   2.967
 5328SOL    HW116304   5.052   5.491   2.926
 5328SOL    HW216305   4.972   5.363   2.988
 5329SOL     OW16306   3.822   4.993   2.871
 5329SOL    HW116307   3.798   5.005   2.968
 5329SOL    HW216308   3.756   4.932   2.828
 5330SOL     OW16309   4.405   5.405   3.606
 5330SOL    HW116310   4.337   5.479   3.599
 5330SOL    HW216311   4.479   5.422   3.541
 5331SOL     OW16312   5.456   3.883   2.358
 5331SOL    HW116313   5.526   3.872   2.287
 5331SOL    HW216314   5.434   3.794   2.398
 5332SOL     OW16315   5.125   5.297   2.354
 5332SOL    HW116316   5.184   5.329   2.281
 5332SOL    HW216317   5.065   5.372   2.384
 5333SOL     OW16318   3.876   5.508   3.707
 5333SOL    HW116319   3.818   5.440   3.752
 5333SOL    HW216320   3.922   5.563   3.777
 5334SOL     OW16321   5.009   4.657   2.526
 5334SOL    HW116322   5.084   4.594   2.543
 5334SOL    HW216323   5.041   4.733   2.470
 5335SOL     OW16324   4.513   5.005   3.282
 5335SOL    HW116325   4.487   5.052   3.366
 5335SOL    HW216326   4.441   5.016   3.214
 5336SOL     OW16327   4.390   5.351   2.019
 5336SOL    HW116328   4.407   5.371   1.922
 5336SOL    HW216329   4.332   5.270   2.026
 5337SOL     OW16330   5.341   5.454   3.252
 5337SOL    HW116331   5.387   5.455   3.163
 5337SOL    HW216332   5.328   5.548   3.283
 5338SOL     OW16333   5.561   3.896   2.823
 5338SOL    HW116334   5.597   3.806   2.799
 5338SOL    HW216335   5.473   3.911   2.778
 5339SOL     OW16336   3.977   4.034   2.575
 5339SOL    HW116337   3.889   4.070   2.545
 5339SOL    HW216338   3.979   4.029   2.674
 5340SOL     OW16339   4.933   5.320   1.898
 5340SOL    HW116340   4.925   5.226   1.930
 5340SOL    HW216341   4.865   5.337   1.827
 5341SOL     OW16342   4.547   4.735   3.245
 5341SOL    HW116343   4.590   4.720   3.156
 5341SOL    HW216344   4.537   4.834   3.261
 5342SOL     OW16345   4.650   4.639   2.153
 5342SOL    HW116346   4.709   4.674   2.079
 5342SOL    HW216347   4.697   4.565   2.201
 5343SOL     OW16348   5.212   5.361   1.908
 5343SOL    HW116349   5.114   5.346   1.896
 5343SOL    HW216350   5.257   5.366   1.819
 5344SOL     OW16351   4.088   5.028   3.346
 5344SOL    HW116352   4.078   5.109   3.288
 5344SOL    HW216353   4.007   4.970   3.337
 5345SOL     OW16354   5.344   5.013   3.156
 5345SOL    HW116355   5.395   4.984   3.238
 5345SOL    HW216356   5.273   5.079   3.183
 5346SOL     OW16357   4.796   4.833   2.588
 5346SOL    HW116358   4.716   4.784   2.622
 5346SOL    HW216359   4.863   4.768   2.553
 5347SOL     OW16360   4.748   3.954   2.823
 5347SOL    HW116361   4.741   3.914   2.732
 5347SOL    HW216362   4.739   3.883   2.892
 5348SOL     OW16363   4.331   5.212   2.340
 5348SOL    HW116364   4.385   5.157   2.276
 5348SOL    HW216365   4.248   5.245   2.295
 5349SOL     OW16366   5.441   4.105   3.242
 5349SOL    HW116367   5.511   4.174   3.261
 5349SOL    HW216368   5.475   4.040   3.174
 5350SOL     OW16369   3.981   5.072   2.157
 5350SOL    HW116370   3.886   5.063   2.126
 5350SOL    HW216371   3.982   5.115   2.248
 5351SOL     OW16372   3.843   4.766   3.598
 5351SOL    HW116373   3.761   4.735   3.646
 5351SOL    HW216374   3.923   4.717   3.633
 5352SOL     OW16375   4.407   3.934   3.366
 5352SOL    HW116376   4.491   3.904   3.319
 5352SOL    HW216377   4.430   3.963   3.459
 5353SOL     OW16378   3.803   4.050   1.876
 5353SOL    HW116379   3.714   4.030   1.835
 5353SOL    HW216380   3.840   4.133   1.836
 5354SOL     OW16381   5.138   4.571   3.249
 5354SOL    HW116382   5.081   4.635   3.198
 5354SOL    HW216383   5.231   4.574   3.213
 5355SOL     OW16384   3.776   3.873   2.152
 5355SOL    HW116385   3.759   3.954   2.096
 5355SOL    HW216386   3.866   3.835   2.130
 5356SOL     OW16387   4.903   5.057   1.984
 5356SOL    HW116388   4.808   5.030   1.975
 5356SOL    HW216389   4.929   5.058   2.081
 5357SOL     OW16390   4.353   4.548   3.298
 5357SOL    HW116391   4.410   4.630   3.285
 5357SOL    HW216392   4.412   4.468   3.306
 5358SOL     OW16393   5.210   5.531   2.861
 5358SOL    HW116394   5.228   5.589   2.781
 5358SOL    HW216395   5.295   5.488   2.891
 5359SOL     OW16396   4.451   4.274   3.561
 5359SOL    HW116397   4.496   4.339   3.622
 5359SOL    HW216398   4.464   4.181   3.596
 5360SOL     OW16399   5.197   4.913   3.495
 5360SOL    HW116400   5.179   4.929   3.592
 5360SOL    HW216401   5.292   4.937   3.474
 5361SOL     OW16402   4.090   5.466   3.434
 5361SOL    HW116403   4.008   5.521   3.418
 5361SOL    HW216404   4.065   5.378   3.473
 5362SOL     OW16405   5.382   4.597   3.117
 5362SOL    HW116406   5.387   4.507   3.074
 5362SOL    HW216407   5.372   4.667   3.046
 5363SOL     OW16408   4.947   4.043   2.322
 5363SOL    HW116409   5.008   3.964   2.314
 5363SOL    HW216410   4.973   4.096   2.403
 5364SOL     OW16411   4.306   4.460   2.536
 5364SOL    HW116412   4.349   4.550   2.522
 5364SOL    HW216413   4.239   4.444   2.463
 5365SOL     OW16414   5.465   4.079   3.536
 5365SOL    HW116415   5.476   4.096   3.438
 5365SOL    HW216416   5.386   4.019   3.550
 5366SOL     OW16417   5.483   4.660   3.364
 5366SOL    HW116418   5.454   4.754   3.381
 5366SOL    HW216419   5.457   4.634   3.271
 5367SOL     OW16420   4.597   5.086   1.917
 5367SOL    HW116421   4.552   5.107   2.004
 5367SOL    HW216422   4.606   5.170   1.863
 5368SOL     OW16423   4.392   5.502   2.803
 5368SOL    HW116424   4.367   5.597   2.784
 5368SOL    HW216425   4.490   5.490   2.787
 5369SOL     OW16426   4.594   4.699   2.719
 5369SOL    HW116427   4.643   4.619   2.753
 5369SOL    HW216428   4.548   4.745   2.795
 5370SOL     OW16429   4.803   4.715   1.945
 5370SOL    HW116430   4.773   4.767   1.866
 5370SOL    HW216431   4.879   4.656   1.919
 5371SOL     OW16432   5.565   5.289   2.714
 5371SOL    HW116433   5.491   5.278   2.647
 5371SOL    HW216434   5.568   5.208   2.773
 5372SOL     OW16435   3.962   5.019   3.718
 5372SOL    HW116436   3.899   4.950   3.682
 5372SOL    HW216437   3.943   5.034   3.815
 5373SOL     OW16438   3.810   4.960   2.526
 5373SOL    HW116439   3.791   4.906   2.609
 5373SOL    HW216440   3.875   4.912   2.469
 5374SOL     OW16441   4.412   5.140   3.499
 5374SOL    HW116442   4.331   5.090   3.530
 5374SOL    HW216443   4.409   5.233   3.536
 5375SOL     OW16444   5.486   3.892   3.079
 5375SOL    HW116445   5.561   3.856   3.135
 5375SOL    HW216446   5.518   3.902   2.984
 5376SOL     OW16447   4.158   4.148   2.389
 5376SOL    HW116448   4.189   4.080   2.323
 5376SOL    HW216449   4.099   4.103   2.458
 5377SOL     OW16450   5.408   5.198   2.960
 5377SOL    HW116451   5.334   5.184   2.895
 5377SOL    HW216452   5.405   5.128   3.031
 5378SOL     OW16453   4.066   4.280   3.151
 5378SOL    HW116454   4.122   4.220   3.208
 5378SOL    HW216455   4.077   4.255   3.054
 5379SOL     OW16456   4.554   5.303   2.538
 5379SOL    HW116457   4.533   5.364   2.462
 5379SOL    HW216458   4.479   5.238   2.550
 5380SOL     OW16459   4.731   3.739   2.999
 5380SOL    HW116460   4.666   3.668   2.971
 5380SOL    HW216461   4.823   3.700   3.002
 5381SOL     OW16462   4.500   5.056   2.187
 5381SOL    HW116463   4.474   4.959   2.197
 5381SOL    HW216464   4.586   5.072   2.236
 5382SOL     OW16465   4.347   5.288   3.156
 5382SOL    HW116466   4.344   5.375   3.205
 5382SOL    HW216467   4.437   5.277   3.114
 5383SOL     OW16468   5.084   3.766   2.041
 5383SOL    HW116469   5.130   3.700   1.983
 5383SOL    HW216470   4.990   3.737   2.058
 5384SOL     OW16471   5.011   4.186   2.550
 5384SOL    HW116472   4.960   4.272   2.546
 5384SOL    HW216473   5.007   4.150   2.644
 5385SOL     OW16474   5.292   3.961   2.761
 5385SOL    HW116475   5.196   3.945   2.737
 5385SOL    HW216476   5.325   4.040   2.708
 5386SOL     OW16477   3.766   4.781   2.171
 5386SOL    HW116478   3.864   4.777   2.152
 5386SOL    HW216479   3.732   4.690   2.193
 5387SOL     OW16480   4.609   5.398   2.201
 5387SOL    HW116481   4.532   5.376   2.141
 5387SOL    HW216482   4.585   5.475   2.259
 5388SOL     OW16483   3.935   4.340   3.858
 5388SOL    HW116484   3.845   4.335   3.900
 5388SOL    HW216485   3.928   4.324   3.759
 5389SOL     OW16486   3.946   4.006   4.718
 5389SOL    HW116487   3.978   3.973   4.807
 5389SOL    HW216488   3.853   3.972   4.701
 5390SOL     OW16489   3.718   4.114   4.357
 5390SOL    HW116490   3.637   4.144   4.407
 5390SOL    HW216491   3.696   4.032   4.305
 5391SOL     OW16492   4.295   5.024   4.915
 5391SOL    HW116493   4.208   5.025   4.866
 5391SOL    HW216494   4.314   5.116   4.951
 5392SOL     OW16495   5.295   5.241   4.430
 5392SOL    HW116496   5.251   5.216   4.517
 5392SOL    HW216497   5.225   5.250   4.359
 5393SOL     OW16498   4.862   4.428   4.414
 5393SOL    HW116499   4.911   4.513   4.398
 5393SOL    HW216500   4.809   4.435   4.499
 5394SOL     OW16501   5.495   4.320   3.950
 5394SOL    HW116502   5.469   4.319   3.853
 5394SOL    HW216503   5.459   4.239   3.995
 5395SOL     OW16504   4.459   4.860   4.769
 5395SOL    HW116505   4.393   4.896   4.834
 5395SOL    HW216506   4.506   4.936   4.724
 5396SOL     OW16507   4.608   4.476   5.549
 5396SOL    HW116508   4.586   4.540   5.622
 5396SOL    HW216509   4.629   4.526   5.465
 5397SOL     OW16510   4.408   4.719   4.372
 5397SOL    HW116511   4.479   4.713   4.442
 5397SOL    HW216512   4.333   4.777   4.405
 5398SOL     OW16513   4.437   4.887   5.560
 5398SOL    HW116514   4.484   4.972   5.587
 5398SOL    HW216515   4.352   4.909   5.512
 5399SOL     OW16516   4.064   5.125   4.778
 5399SOL    HW116517   3.979   5.088   4.740
 5399SOL    HW216518   4.105   5.189   4.713
 5400SOL     OW16519   5.181   5.230   5.086
 5400SOL    HW116520   5.238   5.312   5.096
 5400SOL    HW216521   5.103   5.236   5.149
 5401SOL     OW16522   4.178   4.105   5.187
 5401SOL    HW116523   4.260   4.049   5.203
 5401SOL    HW216524   4.097   4.055   5.217
 5402SOL     OW16525   5.329   4.168   4.475
 5402SOL    HW116526   5.267   4.180   4.398
 5402SOL    HW216527   5.306   4.235   4.546
 5403SOL     OW16528   3.949   5.442   4.196
 5403SOL    HW116529   3.965   5.520   4.257
 5403SOL    HW216530   4.024   5.437   4.129
 5404SOL     OW16531   4.865   5.056   5.419
 5404SOL    HW116532   4.920   5.051   5.503
 5404SOL    HW216533   4.807   4.975   5.412
 5405SOL     OW16534   3.959   5.173   4.260
 5405SOL    HW116535   3.945   5.272   4.258
 5405SOL    HW216536   3.901   5.132   4.330
 5406SOL     OW16537   4.003   4.811   4.620
 5406SOL    HW116538   3.999   4.717   4.652
 5406SOL    HW216539   3.943   4.868   4.676
 5407SOL     OW16540   4.320   5.498   5.148
 5407SOL    HW116541   4.231   5.483   5.192
 5407SOL    HW216542   4.346   5.595   5.158
 5408SOL     OW16543   4.302   4.715   3.872
 5408SOL    HW116544   4.350   4.760   3.797
 5408SOL    HW216545   4.343   4.742   3.959
 5409SOL     OW16546   5.330   3.851   5.195
 5409SOL    HW116547   5.330   3.936   5.142
 5409SOL    HW216548   5.305   3.870   5.290
 5410SOL     OW16549   3.837   4.389   4.290
 5410SOL    HW116550   3.810   4.295   4.310
 5410SOL    HW216551   3.832   4.444   4.373
 5411SOL     OW16552  -0.016   5.474   4.049
 5411SOL    HW116553   0.053   5.446   4.116
 5411SOL    HW216554  -0.006   5.572   4.029
 5412SOL     OW16555   3.759   5.309   3.843
 5412SOL    HW116556   3.740   5.213   3.863
 5412SOL    HW216557   3.737   5.364   3.923
 5413SOL     OW16558   5.420   4.644   4.362
 5413SOL    HW116559   5.491   4.585   4.323
 5413SOL    HW216560   5.389   4.709   4.293
 5414SOL     OW16561   5.382   4.831   4.155
 5414SOL    HW116562   5.472   4.823   4.111
 5414SOL    HW216563   5.387   4.900   4.228
 5415SOL     OW16564   3.851   4.470   5.307
 5415SOL    HW116565   3.947   4.499   5.308
 5415SOL    HW216566   3.792   4.550   5.306
 5416SOL     OW16567   4.343   5.117   4.455
 5416SOL    HW116568   4.296   5.030   4.468
 5416SOL    HW216569   4.329   5.149   4.361
 5417SOL     OW16570   5.008   4.954   5.145
 5417SOL    HW116571   5.034   4.883   5.079
 5417SOL    HW216572   5.068   4.948   5.225
 5418SOL     OW16573   4.547   3.738   4.235
 5418SOL    HW116574   4.592   3.823   4.209
 5418SOL    HW216575   4.448   3.752   4.239
 5419SOL     OW16576   3.915   4.678   5.012
 5419SOL    HW116577   4.005   4.638   4.996
 5419SOL    HW216578   3.849   4.638   4.948
 5420SOL     OW16579   5.260   4.732   3.928
 5420SOL    HW116580   5.187   4.670   3.956
 5420SOL    HW216581   5.306   4.768   4.009
 5421SOL     OW16582   4.914   5.548   5.347
 5421SOL    HW116583   4.917   5.620   5.277
 5421SOL    HW216584   4.932   5.460   5.304
 5422SOL     OW16585   4.074   3.979   5.562
 5422SOL    HW116586   4.125   4.055   5.603
 5422SOL    HW216587   3.977   3.989   5.582
 5423SOL     OW16588   5.198   5.139   4.669
 5423SOL    HW116589   5.129   5.163   4.737
 5423SOL    HW216590   5.183   5.045   4.638
 5424SOL     OW16591   5.373   5.487   4.295
 5424SOL    HW116592   5.350   5.455   4.203
 5424SOL    HW216593   5.352   5.415   4.361
 5425SOL     OW16594   4.315   4.437   3.999
 5425SOL    HW116595   4.320   4.525   3.953
 5425SOL    HW216596   4.246   4.441   4.072
 5426SOL     OW16597   5.005   4.097   4.660
 5426SOL    HW116598   4.910   4.064   4.664
 5426SOL    HW216599   5.062   4.042   4.720
 5427SOL     OW16600   5.309   5.402   4.033
 5427SOL    HW116601   5.407   5.423   4.028
 5427SOL    HW216602   5.274   5.385   3.941
 5428SOL     OW16603   4.520   4.334   5.170
 5428SOL    HW116604   4.495   4.308   5.263
 5428SOL    HW216605   4.487   4.264   5.106
 5429SOL     OW16606   5.117   4.194   5.410
 5429SOL    HW116607   5.115   4.242   5.498
 5429SOL    HW216608   5.170   4.109   5.420
 5430SOL     OW16609   4.677   4.611   5.312
 5430SOL    HW116610   4.734   4.539   5.271
 5430SOL    HW216611   4.622   4.654   5.240
 5431SOL     OW16612   4.724   4.122   4.941
 5431SOL    HW116613   4.632   4.142   4.974
 5431SOL    HW216614   4.719   4.071   4.855
 5432SOL     OW16615   4.777   4.423   4.146
 5432SOL    HW116616   4.800   4.419   4.243
 5432SOL    HW216617   4.689   4.377   4.131
 5433SOL     OW16618   3.810   4.559   4.503
 5433SOL    HW116619   3.896   4.544   4.552
 5433SOL    HW216620   3.761   4.635   4.545
 5434SOL     OW16621   3.837   5.561   5.305
 5434SOL    HW116622   3.848   5.541   5.403
 5434SOL    HW216623   3.765   5.629   5.293
 5435SOL     OW16624   4.616   4.076   3.923
 5435SOL    HW116625   4.663   4.140   3.862
 5435SOL    HW216626   4.600   3.990   3.876
 5436SOL     OW16627   5.431   4.294   5.550
 5436SOL    HW116628   5.396   4.374   5.502
 5436SOL    HW216629   5.454   4.222   5.484
 5437SOL     OW16630   5.110   4.871   4.258
 5437SOL    HW116631   5.193   4.859   4.203
 5437SOL    HW216632   5.050   4.938   4.213
 5438SOL     OW16633   4.273   3.890   4.637
 5438SOL    HW116634   4.277   3.918   4.733
 5438SOL    HW216635   4.272   3.972   4.578
 5439SOL     OW16636   4.713   5.174   4.185
 5439SOL    HW116637   4.688   5.255   4.132
 5439SOL    HW216638   4.688   5.188   4.280
 5440SOL     OW16639   4.075   5.542   4.598
 5440SOL    HW116640   4.120   5.453   4.605
 5440SOL    HW216641   4.138   5.614   4.627
 5441SOL     OW16642   5.528   4.750   4.596
 5441SOL    HW116643   5.477   4.733   4.512
 5441SOL    HW216644   5.464   4.775   4.669
 5442SOL     OW16645   4.949   5.263   5.233
 5442SOL    HW116646   4.938   5.182   5.291
 5442SOL    HW216647   4.864   5.279   5.182
 5443SOL     OW16648   4.041   4.686   3.984
 5443SOL    HW116649   4.129   4.708   3.942
 5443SOL    HW216650   4.007   4.599   3.948
 5444SOL     OW16651   5.209   4.481   4.440
 5444SOL    HW116652   5.207   4.436   4.529
 5444SOL    HW216653   5.291   4.538   4.434
 5445SOL     OW16654   4.195   4.987   5.457
 5445SOL    HW116655   4.168   4.992   5.361
 5445SOL    HW216656   4.113   4.985   5.515
 5446SOL     OW16657   4.854   5.504   3.946
 5446SOL    HW116658   4.771   5.473   3.993
 5446SOL    HW216659   4.881   5.436   3.877
 5447SOL     OW16660   3.927   3.990   5.227
 5447SOL    HW116661   3.846   4.049   5.238
 5447SOL    HW216662   3.909   3.901   5.268
 5448SOL     OW16663   5.351   5.109   3.811
 5448SOL    HW116664   5.312   5.200   3.800
 5448SOL    HW216665   5.281   5.039   3.794
 5449SOL     OW16666   4.184   5.466   4.038
 5449SOL    HW116667   4.227   5.527   4.105
 5449SOL    HW216668   4.256   5.425   3.981
 5450SOL     OW16669   5.122   3.826   4.167
 5450SOL    HW116670   5.110   3.799   4.071
 5450SOL    HW216671   5.219   3.831   4.189
 5451SOL     OW16672   3.980   5.520   4.972
 5451SOL    HW116673   4.021   5.482   5.055
 5451SOL    HW216674   3.998   5.458   4.895
 5452SOL     OW16675   4.660   5.432   4.617
 5452SOL    HW116676   4.732   5.382   4.665
 5452SOL    HW216677   4.624   5.375   4.543
 5453SOL     OW16678   4.120   4.409   4.197
 5453SOL    HW116679   4.136   4.311   4.211
 5453SOL    HW216680   4.024   4.430   4.216
 5454SOL     OW16681   5.244   3.943   5.453
 5454SOL    HW116682   5.258   3.964   5.550
 5454SOL    HW216683   5.171   3.875   5.445
 5455SOL     OW16684   4.373   3.834   3.824
 5455SOL    HW116685   4.428   3.756   3.852
 5455SOL    HW216686   4.312   3.808   3.749
 5456SOL     OW16687   4.486   3.997   5.477
 5456SOL    HW116688   4.573   3.947   5.474
 5456SOL    HW216689   4.433   3.966   5.556
 5457SOL     OW16690   4.601   5.238   4.909
 5457SOL    HW116691   4.578   5.195   4.822
 5457SOL    HW216692   4.669   5.182   4.956
 5458SOL     OW16693   5.061   4.310   5.166
 5458SOL    HW116694   5.091   4.277   5.255
 5458SOL    HW216695   5.095   4.403   5.152
 5459SOL     OW16696   4.549   5.102   4.667
 5459SOL    HW116697   4.639   5.096   4.625
 5459SOL    HW216698   4.480   5.116   4.597
 5460SOL     OW16699   4.653   4.234   4.615
 5460SOL    HW116700   4.626   4.224   4.519
 5460SOL    HW216701   4.680   4.145   4.651
 5461SOL     OW16702   4.276   3.788   4.213
 5461SOL    HW116703   4.196   3.786   4.272
 5461SOL    HW216704   4.270   3.867   4.152
 5462SOL     OW16705   5.149   4.928   3.767
 5462SOL    HW116706   5.183   4.850   3.821
 5462SOL    HW216707   5.060   4.956   3.801
 5463SOL     OW16708   4.013   3.772   3.910
 5463SOL    HW116709   4.066   3.842   3.863
 5463SOL    HW216710   4.075   3.707   3.954
 5464SOL     OW16711   4.675   3.977   4.176
 5464SOL    HW116712   4.645   4.015   4.088
 5464SOL    HW216713   4.774   3.992   4.186
 5465SOL     OW16714   4.799   4.410   5.174
 5465SOL    HW116715   4.720   4.350   5.182
 5465SOL    HW216716   4.883   4.356   5.176
 5466SOL     OW16717   4.951   5.293   4.513
 5466SOL    HW116718   4.957   5.364   4.443
 5466SOL    HW216719   5.001   5.322   4.595
 5467SOL     OW16720   4.196   4.879   4.444
 5467SOL    HW116721   4.133   4.858   4.518
 5467SOL    HW216722   4.149   4.872   4.356
 5468SOL     OW16723   4.981   5.516   4.335
 5468SOL    HW116724   5.032   5.582   4.280
 5468SOL    HW216725   4.905   5.562   4.380
 5469SOL     OW16726   4.749   4.251   3.756
 5469SOL    HW116727   4.704   4.337   3.733
 5469SOL    HW216728   4.816   4.268   3.829
 5470SOL     OW16729   3.815   4.284   5.112
 5470SOL    HW116730   3.910   4.277   5.081
 5470SOL    HW216731   3.808   4.354   5.183
 5471SOL     OW16732   4.282   3.946   4.907
 5471SOL    HW116733   4.330   3.878   4.963
 5471SOL    HW216734   4.186   3.948   4.932
 5472SOL     OW16735   4.592   4.182   4.355
 5472SOL    HW116736   4.543   4.244   4.295
 5472SOL    HW216737   4.619   4.100   4.304
 5473SOL     OW16738   4.746   3.775   4.460
 5473SOL    HW116739   4.682   3.778   4.383
 5473SOL    HW216740   4.719   3.704   4.524
 5474SOL     OW16741   5.172   4.879   4.582
 5474SOL    HW116742   5.091   4.822   4.594
 5474SOL    HW216743   5.191   4.891   4.485
 5475SOL     OW16744   5.195   4.330   4.681
 5475SOL    HW116745   5.124   4.259   4.684
 5475SOL    HW216746   5.250   4.325   4.764
 5476SOL     OW16747   5.567   4.528   4.109
 5476SOL    HW116748   5.630   4.480   4.171
 5476SOL    HW216749   5.535   4.465   4.038
 5477SOL     OW16750   4.211   5.148   3.881
 5477SOL    HW116751   4.129   5.123   3.933
 5477SOL    HW216752   4.210   5.099   3.793
 5478SOL     OW16753   5.411   4.996   4.362
 5478SOL    HW116754   5.510   4.996   4.376
 5478SOL    HW216755   5.375   5.087   4.385
 5479SOL     OW16756   5.112   4.299   3.790
 5479SOL    HW116757   5.051   4.274   3.865
 5479SOL    HW216758   5.206   4.277   3.815
 5480SOL     OW16759   4.254   3.987   4.026
 5480SOL    HW116760   4.304   3.935   3.957
 5480SOL    HW216761   4.222   4.073   3.988
 5481SOL     OW16762   5.469   4.968   5.270
 5481SOL    HW116763   5.557   4.921   5.270
 5481SOL    HW216764   5.481   5.062   5.302
 5482SOL     OW16765   4.768   5.064   5.052
 5482SOL    HW116766   4.686   5.039   5.103
 5482SOL    HW216767   4.849   5.030   5.101
 5483SOL     OW16768   5.341   5.352   5.388
 5483SOL    HW116769   5.322   5.392   5.298
 5483SOL    HW216770   5.427   5.301   5.384
 5484SOL     OW16771   4.872   4.951   4.826
 5484SOL    HW116772   4.811   4.982   4.899
 5484SOL    HW216773   4.838   4.984   4.738
 5485SOL     OW16774   5.353   4.828   4.799
 5485SOL    HW116775   5.346   4.893   4.874
 5485SOL    HW216776   5.279   4.844   4.734
 5486SOL     OW16777   4.651   3.814   5.113
 5486SOL    HW116778   4.671   3.795   5.017
 5486SOL    HW216779   4.728   3.860   5.156
 5487SOL     OW16780   4.696   4.839   5.454
 5487SOL    HW116781   4.602   4.856   5.483
 5487SOL    HW216782   4.700   4.757   5.396
 5488SOL     OW16783   4.441   4.784   4.100
 5488SOL    HW116784   4.423   4.763   4.196
 5488SOL    HW216785   4.519   4.730   4.068
 5489SOL     OW16786   4.151   4.539   4.979
 5489SOL    HW116787   4.222   4.553   5.047
 5489SOL    HW216788   4.112   4.447   4.989
 5490SOL     OW16789   4.988   4.103   5.005
 5490SOL    HW116790   5.021   4.181   5.058
 5490SOL    HW216791   4.893   4.117   4.978
 5491SOL     OW16792   3.804   5.289   5.073
 5491SOL    HW116793   3.780   5.382   5.045
 5491SOL    HW216794   3.903   5.278   5.073
 5492SOL     OW16795   4.051   4.855   4.209
 5492SOL    HW116796   4.050   4.938   4.154
 5492SOL    HW216797   4.054   4.775   4.149
 5493SOL     OW16798   4.266   4.264   4.585
 5493SOL    HW116799   4.281   4.324   4.506
 5493SOL    HW216800   4.335   4.284   4.655
 5494SOL     OW16801   4.967   5.083   4.121
 5494SOL    HW116802   5.028   5.155   4.153
 5494SOL    HW216803   4.873   5.103   4.150
 5495SOL     OW16804   5.022   5.188   4.868
 5495SOL    HW116805   5.074   5.197   4.953
 5495SOL    HW216806   4.965   5.106   4.872
 5496SOL     OW16807   5.296   4.337   4.214
 5496SOL    HW116808   5.245   4.384   4.286
 5496SOL    HW216809   5.329   4.404   4.147
 5497SOL     OW16810   4.069   5.221   5.027
 5497SOL    HW116811   4.060   5.182   4.936
 5497SOL    HW216812   4.162   5.256   5.040
 5498SOL     OW16813   4.143   4.473   5.327
 5498SOL    HW116814   4.211   4.515   5.268
 5498SOL    HW216815   4.172   4.381   5.353
 5499SOL     OW16816   5.346   4.513   5.412
 5499SOL    HW116817   5.253   4.548   5.411
 5499SOL    HW216818   5.399   4.556   5.339
 5500SOL     OW16819   4.732   3.857   5.471
 5500SOL    HW116820   4.783   3.942   5.457
 5500SOL    HW216821   4.787   3.780   5.440
 5501SOL     OW16822   4.220   3.755   5.475
 5501SOL    HW116823   4.168   3.698   5.411
 5501SOL    HW216824   4.167   3.836   5.498
 5502SOL     OW16825   4.310   4.596   4.760
 5502SOL    HW116826   4.345   4.690   4.758
 5502SOL    HW216827   4.249   4.585   4.839
 5503SOL     OW16828   5.062   4.574   4.742
 5503SOL    HW116829   4.967   4.563   4.711
 5503SOL    HW216830   5.113   4.490   4.725
 5504SOL     OW16831   4.920   4.250   3.985
 5504SOL    HW116832   4.932   4.167   4.040
 5504SOL    HW216833   4.875   4.320   4.041
 5505SOL     OW16834   4.017   3.921   4.969
 5505SOL    HW116835   3.983   3.955   5.057
 5505SOL    HW216836   4.004   3.822   4.965
 5506SOL     OW16837   3.773   5.031   4.996
 5506SOL    HW116838   3.808   4.972   5.070
 5506SOL    HW216839   3.778   5.126   5.024
 5507SOL     OW16840   4.445   4.354   4.773
 5507SOL    HW116841   4.522   4.338   4.711
 5507SOL    HW216842   4.409   4.446   4.758
 5508SOL     OW16843   5.463   4.687  -0.003
 5508SOL    HW116844   5.421   4.615  -0.059
 5508SOL    HW216845   5.402   4.708   0.074
 5509SOL     OW16846   4.038   3.784   4.353
 5509SOL    HW116847   4.009   3.878   4.370
 5509SOL    HW216848   4.048   3.736   4.440
 5510SOL     OW16849   5.357   4.107   4.079
 5510SOL    HW116850   5.385   4.031   4.138
 5510SOL    HW216851   5.324   4.183   4.135
 5511SOL     OW16852   4.752   4.479   4.680
 5511SOL    HW116853   4.739   4.499   4.777
 5511SOL    HW216854   4.723   4.385   4.662
 5512SOL     OW16855   4.718   5.279   5.445
 5512SOL    HW116856   4.694   5.331   5.363
 5512SOL    HW216857   4.769   5.197   5.419
 5513SOL     OW16858  -0.015   5.222   5.321
 5513SOL    HW116859   0.006   5.253   5.228
 5513SOL    HW216860   0.065   5.234   5.379
 5514SOL     OW16861   4.076   4.645   5.531
 5514SOL    HW116862   4.153   4.661   5.592
 5514SOL    HW216863   4.103   4.580   5.460
 5515SOL     OW16864   5.248   3.989   3.849
 5515SOL    HW116865   5.183   3.919   3.879
 5515SOL    HW216866   5.288   4.034   3.930
 5516SOL     OW16867   5.011   4.549   3.745
 5516SOL    HW116868   5.048   4.457   3.755
 5516SOL    HW216869   5.044   4.590   3.660
 5517SOL     OW16870   4.803   5.066   4.580
 5517SOL    HW116871   4.807   4.988   4.519
 5517SOL    HW216872   4.859   5.140   4.543
 5518SOL     OW16873   4.036   4.530   4.662
 5518SOL    HW116874   4.133   4.554   4.661
 5518SOL    HW216875   4.026   4.436   4.695
 5519SOL     OW16876   4.043   4.253   4.732
 5519SOL    HW116877   4.004   4.161   4.724
 5519SOL    HW216878   4.124   4.261   4.675
 5520SOL     OW16879   4.859   4.096   5.417
 5520SOL    HW116880   4.807   4.148   5.484
 5520SOL    HW216881   4.952   4.133   5.411
 5521SOL     OW16882   4.886   3.930   5.196
 5521SOL    HW116883   4.871   3.989   5.276
 5521SOL    HW216884   4.928   3.983   5.123
 5522SOL     OW16885   3.726   5.032   3.915
 5522SOL    HW116886   3.636   5.054   3.878
 5522SOL    HW216887   3.725   4.939   3.951
 5523SOL     OW16888   3.807   5.506   4.662
 5523SOL    HW116889   3.776   5.423   4.616
 5523SOL    HW216890   3.903   5.523   4.640
 5524SOL     OW16891   4.213   5.301   4.621
 5524SOL    HW116892   4.282   5.369   4.644
 5524SOL    HW216893   4.254   5.233   4.560
 5525SOL     OW16894   4.689   4.513   4.943
 5525SOL    HW116895   4.748   4.490   5.020
 5525SOL    HW216896   4.598   4.472   4.957
 5526SOL     OW16897   3.765   4.288   4.840
 5526SOL    HW116898   3.849   4.278   4.787
 5526SOL    HW216899   3.786   4.287   4.938
 5527SOL     OW16900   3.910   4.254   5.467
 5527SOL    HW116901   3.967   4.195   5.409
 5527SOL    HW216902   3.878   4.332   5.413
 5528SOL     OW16903   5.111   4.649   5.380
 5528SOL    HW116904   5.132   4.747   5.380
 5528SOL    HW216905   5.101   4.618   5.285
 5529SOL     OW16906   4.542   4.298   4.086
 5529SOL    HW116907   4.552   4.217   4.028
 5529SOL    HW216908   4.462   4.351   4.058
 5530SOL     OW16909   5.370   4.333   4.896
 5530SOL    HW116910   5.358   4.268   4.972
 5530SOL    HW216911   5.465   4.330   4.865
 5531SOL     OW16912   3.967   5.266   5.442
 5531SOL    HW116913   3.947   5.348   5.495
 5531SOL    HW216914   3.969   5.186   5.503
 5532SOL     OW16915   4.448   4.166   4.969
 5532SOL    HW116916   4.383   4.092   4.954
 5532SOL    HW216917   4.437   4.235   4.897
 5533SOL     OW16918   4.660   5.398   5.198
 5533SOL    HW116919   4.609   5.355   5.124
 5533SOL    HW216920   4.658   5.497   5.187
 5534SOL     OW16921   4.176   4.216   3.897
 5534SOL    HW116922   4.243   4.285   3.925
 5534SOL    HW216923   4.086   4.258   3.892
 5535SOL     OW16924   3.859   4.861   5.202
 5535SOL    HW116925   3.861   4.821   5.294
 5535SOL    HW216926   3.881   4.790   5.135
 5536SOL     OW16927   5.040   4.765   4.936
 5536SOL    HW116928   5.059   4.695   4.867
 5536SOL    HW216929   4.977   4.832   4.899
 5537SOL     OW16930   5.049   4.581   4.017
 5537SOL    HW116931   4.974   4.555   4.078
 5537SOL    HW216932   5.020   4.569   3.922
 5538SOL     OW16933   5.502   5.447   4.881
 5538SOL    HW116934   5.567   5.481   4.813
 5538SOL    HW216935   5.473   5.355   4.856
 5539SOL     OW16936   4.961   5.452   4.809
 5539SOL    HW116937   5.050   5.486   4.778
 5539SOL    HW216938   4.972   5.358   4.841
 5540SOL     OW16939   3.822   4.975   4.737
 5540SOL    HW116940   3.802   4.998   4.832
 5540SOL    HW216941   3.743   4.928   4.696
 5541SOL     OW16942   4.407   5.392   5.461
 5541SOL    HW116943   4.345   5.470   5.466
 5541SOL    HW216944   4.480   5.410   5.395
 5542SOL     OW16945   5.456   3.884   4.219
 5542SOL    HW116946   5.526   3.871   4.149
 5542SOL    HW216947   5.433   3.796   4.261
 5543SOL     OW16948   5.121   5.298   4.214
 5543SOL    HW116949   5.181   5.333   4.142
 5543SOL    HW216950   5.064   5.372   4.248
 5544SOL     OW16951   3.875   5.496  -0.025
 5544SOL    HW116952   3.821   5.430   0.027
 5544SOL    HW216953   3.924   5.557   0.038
 5545SOL     OW16954   5.007   4.655   4.384
 5545SOL    HW116955   5.082   4.592   4.402
 5545SOL    HW216956   5.041   4.733   4.331
 5546SOL     OW16957   4.515   5.006   5.145
 5546SOL    HW116958   4.489   5.049   5.232
 5546SOL    HW216959   4.443   5.021   5.078
 5547SOL     OW16960   4.390   5.352   3.879
 5547SOL    HW116961   4.405   5.372   3.782
 5547SOL    HW216962   4.332   5.271   3.888
 5548SOL     OW16963   5.341   5.455   5.114
 5548SOL    HW116964   5.397   5.456   5.032
 5548SOL    HW216965   5.328   5.549   5.146
 5549SOL     OW16966   5.573   3.888   4.687
 5549SOL    HW116967   5.606   3.796   4.667
 5549SOL    HW216968   5.481   3.899   4.650
 5550SOL     OW16969   3.973   4.035   4.437
 5550SOL    HW116970   3.884   4.073   4.410
 5550SOL    HW216971   3.978   4.028   4.537
 5551SOL     OW16972   4.935   5.319   3.759
 5551SOL    HW116973   4.925   5.226   3.795
 5551SOL    HW216974   4.864   5.335   3.690
 5552SOL     OW16975   4.547   4.737   5.108
 5552SOL    HW116976   4.591   4.722   5.019
 5552SOL    HW216977   4.535   4.835   5.123
 5553SOL     OW16978   4.646   4.634   4.010
 5553SOL    HW116979   4.706   4.671   3.939
 5553SOL    HW216980   4.694   4.564   4.062
 5554SOL     OW16981   5.212   5.360   3.770
 5554SOL    HW116982   5.114   5.345   3.759
 5554SOL    HW216983   5.256   5.365   3.680
 5555SOL     OW16984   4.091   5.015   5.212
 5555SOL    HW116985   4.084   5.093   5.151
 5555SOL    HW216986   4.008   4.960   5.205
 5556SOL     OW16987   5.345   5.018   5.012
 5556SOL    HW116988   5.396   4.992   5.094
 5556SOL    HW216989   5.274   5.085   5.037
 5557SOL     OW16990   4.797   4.831   4.447
 5557SOL    HW116991   4.717   4.784   4.484
 5557SOL    HW216992   4.863   4.764   4.414
 5558SOL     OW16993   4.752   3.965   4.688
 5558SOL    HW116994   4.748   3.924   4.596
 5558SOL    HW216995   4.747   3.893   4.757
 5559SOL     OW16996   4.330   5.208   4.201
 5559SOL    HW116997   4.381   5.156   4.133
 5559SOL    HW216998   4.248   5.247   4.158
 5560SOL     OW16999   5.457   4.128   5.094
 5560SOL    HW117000   5.537   4.188   5.107
 5560SOL    HW217001   5.484   4.048   5.040
 5561SOL     OW17002   3.976   5.073   4.014
 5561SOL    HW117003   3.880   5.064   3.985
 5561SOL    HW217004   3.979   5.117   4.104
 5562SOL     OW17005   3.841   4.768   5.460
 5562SOL    HW117006   3.760   4.739   5.510
 5562SOL    HW217007   3.921   4.718   5.495
 5563SOL     OW17008   4.410   3.916   5.220
 5563SOL    HW117009   4.498   3.889   5.180
 5563SOL    HW217010   4.424   3.947   5.314
 5564SOL     OW17011   3.806   4.049   3.753
 5564SOL    HW117012   3.726   4.012   3.706
 5564SOL    HW217013   3.837   4.132   3.706
 5565SOL     OW17014   5.145   4.577   5.115
 5565SOL    HW117015   5.088   4.639   5.062
 5565SOL    HW217016   5.239   4.581   5.083
 5566SOL     OW17017   3.783   3.878   4.014
 5566SOL    HW117018   3.771   3.962   3.962
 5566SOL    HW217019   3.871   3.837   3.993
 5567SOL     OW17020   4.902   5.058   3.848
 5567SOL    HW117021   4.806   5.032   3.839
 5567SOL    HW217022   4.928   5.059   3.944
 5568SOL     OW17023   4.351   4.551   5.160
 5568SOL    HW117024   4.409   4.632   5.148
 5568SOL    HW217025   4.410   4.470   5.168
 5569SOL     OW17026   5.212   5.522   4.716
 5569SOL    HW117027   5.228   5.594   4.648
 5569SOL    HW217028   5.299   5.497   4.759
 5570SOL     OW17029   4.454   4.272   5.422
 5570SOL    HW117030   4.498   4.334   5.486
 5570SOL    HW217031   4.463   4.178   5.454
 5571SOL     OW17032   5.196   4.912   5.360
 5571SOL    HW117033   5.180   4.928   5.457
 5571SOL    HW217034   5.290   4.940   5.337
 5572SOL     OW17035   4.068   5.439   5.234
 5572SOL    HW117036   3.993   5.502   5.255
 5572SOL    HW217037   4.064   5.361   5.296
 5573SOL     OW17038   5.394   4.605   4.969
 5573SOL    HW117039   5.374   4.515   4.930
 5573SOL    HW217040   5.373   4.676   4.902
 5574SOL     OW17041   4.946   4.043   4.182
 5574SOL    HW117042   5.007   3.964   4.175
 5574SOL    HW217043   4.972   4.099   4.261
 5575SOL     OW17044   4.311   4.456   4.392
 5575SOL    HW117045   4.351   4.547   4.384
 5575SOL    HW217046   4.241   4.443   4.321
 5576SOL     OW17047   5.468   4.092   5.368
 5576SOL    HW117048   5.451   4.108   5.270
 5576SOL    HW217049   5.398   4.031   5.404
 5577SOL     OW17050   5.472   4.663   5.223
 5577SOL    HW117051   5.448   4.757   5.247
 5577SOL    HW217052   5.449   4.646   5.127
 5578SOL     OW17053   4.599   5.083   3.781
 5578SOL    HW117054   4.556   5.096   3.870
 5578SOL    HW217055   4.602   5.170   3.732
 5579SOL     OW17056   4.388   5.503   4.649
 5579SOL    HW117057   4.361   5.599   4.647
 5579SOL    HW217058   4.488   5.496   4.647
 5580SOL     OW17059   4.595   4.699   4.581
 5580SOL    HW117060   4.644   4.620   4.617
 5580SOL    HW217061   4.547   4.746   4.655
 5581SOL     OW17062   4.803   4.714   3.807
 5581SOL    HW117063   4.773   4.769   3.728
 5581SOL    HW217064   4.879   4.655   3.780
 5582SOL     OW17065   5.553   5.283   4.577
 5582SOL    HW117066   5.483   5.275   4.507
 5582SOL    HW217067   5.522   5.238   4.661
 5583SOL     OW17068   3.950   5.014   5.581
 5583SOL    HW117069   3.904   4.942   5.530
 5583SOL    HW217070   3.899   5.034   5.665
 5584SOL     OW17071   3.818   4.944   4.386
 5584SOL    HW117072   3.834   4.910   4.478
 5584SOL    HW217073   3.888   4.908   4.324
 5585SOL     OW17074   4.416   5.128   5.370
 5585SOL    HW117075   4.331   5.081   5.395
 5585SOL    HW217076   4.411   5.224   5.399
 5586SOL     OW17077   5.536   3.913   4.955
 5586SOL    HW117078   5.526   3.820   4.990
 5586SOL    HW217079   5.549   3.911   4.856
 5587SOL     OW17080   4.148   4.148   4.246
 5587SOL    HW117081   4.186   4.077   4.186
 5587SOL    HW217082   4.095   4.105   4.319
 5588SOL     OW17083   5.425   5.194   4.807
 5588SOL    HW117084   5.341   5.182   4.754
 5588SOL    HW217085   5.424   5.133   4.886
 5589SOL     OW17086   4.065   4.281   5.011
 5589SOL    HW117087   4.118   4.218   5.069
 5589SOL    HW217088   4.075   4.254   4.915
 5590SOL     OW17089   4.559   5.298   4.400
 5590SOL    HW117090   4.533   5.369   4.335
 5590SOL    HW217091   4.483   5.235   4.415
 5591SOL     OW17092   5.151   3.956   4.841
 5591SOL    HW117093   5.152   3.860   4.868
 5591SOL    HW217094   5.099   4.009   4.908
 5592SOL     OW17095   4.735   3.743   4.856
 5592SOL    HW117096   4.665   3.681   4.819
 5592SOL    HW217097   4.824   3.698   4.854
 5593SOL     OW17098   4.503   5.054   4.044
 5593SOL    HW117099   4.476   4.959   4.059
 5593SOL    HW217100   4.583   5.076   4.099
 5594SOL     OW17101   4.350   5.273   5.010
 5594SOL    HW117102   4.340   5.358   5.062
 5594SOL    HW217103   4.440   5.270   4.967
 5595SOL     OW17104   5.085   3.766   3.901
 5595SOL    HW117105   5.131   3.697   3.845
 5595SOL    HW217106   4.991   3.738   3.919
 5596SOL     OW17107   5.016   4.192   4.401
 5596SOL    HW117108   4.963   4.276   4.400
 5596SOL    HW217109   5.013   4.152   4.493
 5597SOL     OW17110   5.315   3.925   4.618
 5597SOL    HW117111   5.256   3.945   4.696
 5597SOL    HW217112   5.313   4.003   4.555
 5598SOL     OW17113   3.764   4.779   4.030
 5598SOL    HW117114   3.863   4.778   4.014
 5598SOL    HW217115   3.733   4.686   4.051
 5599SOL     OW17116   4.613   5.399   4.057
 5599SOL    HW117117   4.535   5.376   3.998
 5599SOL    HW217118   4.588   5.473   4.119
 5600NA      NA17119   1.742   0.630   3.122
 5601NA      NA17120   0.627   1.336   3.266
 5602NA      NA17121   1.199   2.193   0.924
 5603NA      NA17122   0.417   3.296   5.027
 5604NA      NA17123   1.906   4.065   1.307
 5605NA      NA17124   0.421   5.154   3.154
 5606NA      NA17125   1.626   4.099   2.385
 5607NA      NA17126   0.181   4.532   4.893
 5608NA      NA17127   3.343   4.163   3.673
 5609NA      NA17128   2.284   4.475   4.624
 5610NA      NA17129   4.919   1.498   3.393
 5611NA      NA17130   5.073   0.845   3.771
 5612NA      NA17131   5.524   2.003   2.617
 5613NA      NA17132   4.707   2.790   4.343
 5614NA      NA17133   4.610   5.195   0.471
 5615NA      NA17134   5.241   3.867   3.063
 5616CL      CL17135   0.136   2.971   1.473
 5617CL      CL17136   0.268   3.819   0.609
 5618CL      CL17137   0.887   5.100   1.936
 5619CL      CL17138   0.330   4.263   3.195
 5620CL      CL17139   2.934   0.727   4.153
 5621CL      CL17140   2.525   0.827   5.127
 5622CL      CL17141   2.875   2.038   5.470
 5623CL      CL17142   3.319   4.438   2.625
 5624CL      CL17143   4.268   0.091   5.483
 5625CL      CL17144   5.081   1.058   4.879
 5626CL      CL17145   3.957   1.289   0.025
 5627CL      CL17146   5.155   2.732   0.994
 5628CL      CL17147   4.298   3.344   0.476
 5629CL      CL17148   4.518   3.196   3.254
 5630CL      CL17149   3.983   2.094   4.680
 5631CL      CL17150   4.261   3.909   0.892
   5.59418   5.59418   5.59418
