Protein in water
21091
    1MET      N    1   1.903   2.017   3.784
    1MET     H1    2   1.883   2.006   3.685
    1MET     H2    3   2.003   2.005   3.797
    1MET     H3    4   1.856   1.944   3.835
    1MET     CA    5   1.860   2.151   3.830
    1MET     HA    6   1.752   2.160   3.822
    1MET     CB    7   1.903   2.180   3.975
    1MET    HB1    8   1.898   2.288   3.993
    1MET    HB2    9   2.006   2.149   3.990
    1MET     CG   10   1.814   2.115   4.080
    1MET    HG1   11   1.820   2.007   4.071
    1MET    HG2   12   1.711   2.146   4.064
    1MET     SD   13   1.865   2.165   4.245
    1MET     CE   14   1.742   2.073   4.341
    1MET    HE1   15   1.758   2.094   4.447
    1MET    HE2   16   1.642   2.104   4.313
    1MET    HE3   17   1.754   1.966   4.324
    1MET      C   18   1.923   2.259   3.743
    1MET      O   19   2.028   2.236   3.685
    2LYS      N   20   1.863   2.378   3.744
    2LYS      H   21   1.776   2.388   3.794
    2LYS     CA   22   1.904   2.495   3.663
    2LYS     HA   23   1.897   2.466   3.558
    2LYS     CB   24   1.798   2.605   3.684
    2LYS    HB1   25   1.702   2.559   3.662
    2LYS    HB2   26   1.815   2.683   3.611
    2LYS     CG   27   1.787   2.666   3.825
    2LYS    HG1   28   1.883   2.710   3.853
    2LYS    HG2   29   1.763   2.586   3.895
    2LYS     CD   30   1.677   2.773   3.831
    2LYS    HD1   31   1.584   2.731   3.792
    2LYS    HD2   32   1.705   2.858   3.769
    2LYS     CE   33   1.654   2.821   3.975
    2LYS    HE1   34   1.745   2.871   4.010
    2LYS    HE2   35   1.637   2.733   4.038
    2LYS     NZ   36   1.538   2.912   3.987
    2LYS    HZ1   37   1.527   2.948   4.082
    2LYS    HZ2   38   1.541   2.989   3.922
    2LYS    HZ3   39   1.451   2.860   3.972
    2LYS      C   40   2.049   2.543   3.681
    2LYS      O   41   2.105   2.604   3.590
    3LEU      N   42   2.116   2.502   3.790
    3LEU      H   43   2.064   2.453   3.860
    3LEU     CA   44   2.263   2.509   3.806
    3LEU     HA   45   2.293   2.614   3.813
    3LEU     CB   46   2.301   2.433   3.935
    3LEU    HB1   47   2.408   2.412   3.933
    3LEU    HB2   48   2.250   2.337   3.934
    3LEU     CG   49   2.269   2.505   4.067
    3LEU     HG   50   2.166   2.540   4.065
    3LEU    CD1   51   2.287   2.411   4.186
    3LEU   HD11   52   2.256   2.460   4.278
    3LEU   HD12   53   2.225   2.322   4.173
    3LEU   HD13   54   2.391   2.380   4.195
    3LEU    CD2   55   2.362   2.624   4.090
    3LEU   HD21   56   2.330   2.682   4.177
    3LEU   HD22   57   2.465   2.591   4.105
    3LEU   HD23   58   2.361   2.691   4.004
    3LEU      C   59   2.341   2.449   3.687
    3LEU      O   60   2.446   2.502   3.651
    4ALA      N   61   2.294   2.340   3.626
    4ALA      H   62   2.208   2.299   3.660
    4ALA     CA   63   2.358   2.277   3.510
    4ALA     HA   64   2.462   2.256   3.533
    4ALA     CB   65   2.288   2.143   3.486
    4ALA    HB1   66   2.319   2.102   3.390
    4ALA    HB2   67   2.316   2.073   3.565
    4ALA    HB3   68   2.181   2.156   3.487
    4ALA      C   69   2.358   2.369   3.386
    4ALA      O   70   2.460   2.385   3.320
    5VAL      N   71   2.246   2.439   3.362
    5VAL      H   72   2.168   2.424   3.425
    5VAL     CA   73   2.231   2.539   3.255
    5VAL     HA   74   2.256   2.492   3.160
    5VAL     CB   75   2.085   2.589   3.248
    5VAL     HB   76   2.059   2.638   3.342
    5VAL    CG1   77   2.065   2.691   3.135
    5VAL   HG11   78   1.961   2.724   3.132
    5VAL   HG12   79   2.128   2.779   3.151
    5VAL   HG13   80   2.092   2.646   3.040
    5VAL    CG2   81   1.986   2.474   3.225
    5VAL   HG21   82   1.885   2.515   3.217
    5VAL   HG22   83   2.012   2.422   3.133
    5VAL   HG23   84   1.990   2.405   3.309
    5VAL      C   85   2.327   2.657   3.276
    5VAL      O   86   2.396   2.696   3.182
    6ASP      N   87   2.334   2.710   3.398
    6ASP      H   88   2.272   2.674   3.470
    6ASP     CA   89   2.426   2.819   3.433
    6ASP     HA   90   2.404   2.904   3.369
    6ASP     CB   91   2.407   2.864   3.579
    6ASP    HB1   92   2.483   2.939   3.601
    6ASP    HB2   93   2.426   2.776   3.641
    6ASP     CG   94   2.271   2.921   3.620
    6ASP    OD1   95   2.182   2.948   3.534
    6ASP    OD2   96   2.252   2.944   3.741
    6ASP      C   97   2.574   2.782   3.411
    6ASP      O   98   2.649   2.864   3.357
    7ALA      N   99   2.617   2.660   3.445
    7ALA      H  100   2.553   2.596   3.491
    7ALA     CA  101   2.755   2.618   3.418
    7ALA     HA  102   2.823   2.693   3.459
    7ALA     CB  103   2.784   2.486   3.489
    7ALA    HB1  104   2.886   2.454   3.466
    7ALA    HB2  105   2.774   2.502   3.596
    7ALA    HB3  106   2.714   2.409   3.454
    7ALA      C  107   2.785   2.609   3.268
    7ALA      O  108   2.888   2.660   3.224
    8LEU      N  109   2.695   2.551   3.188
    8LEU      H  110   2.611   2.511   3.230
    8LEU     CA  111   2.707   2.551   3.041
    8LEU     HA  112   2.799   2.499   3.014
    8LEU     CB  113   2.586   2.477   2.981
    8LEU    HB1  114   2.571   2.512   2.878
    8LEU    HB2  115   2.496   2.503   3.037
    8LEU     CG  116   2.600   2.325   2.976
    8LEU     HG  117   2.637   2.288   3.071
    8LEU    CD1  118   2.465   2.259   2.948
    8LEU   HD11  119   2.476   2.151   2.955
    8LEU   HD12  120   2.392   2.290   3.023
    8LEU   HD13  121   2.429   2.287   2.849
    8LEU    CD2  122   2.694   2.283   2.862
    8LEU   HD21  123   2.698   2.175   2.855
    8LEU   HD22  124   2.659   2.323   2.767
    8LEU   HD23  125   2.795   2.321   2.879
    8LEU      C  126   2.717   2.693   2.984
    8LEU      O  127   2.798   2.718   2.895
    9LEU      N  128   2.639   2.788   3.038
    9LEU      H  129   2.576   2.761   3.113
    9LEU     CA  130   2.648   2.930   3.001
    9LEU     HA  131   2.638   2.938   2.892
    9LEU     CB  132   2.535   3.010   3.069
    9LEU    HB1  133   2.560   3.116   3.063
    9LEU    HB2  134   2.531   2.983   3.174
    9LEU     CG  135   2.396   2.991   3.008
    9LEU     HG  136   2.371   2.886   3.005
    9LEU    CD1  137   2.290   3.059   3.093
    9LEU   HD11  138   2.192   3.047   3.047
    9LEU   HD12  139   2.288   3.014   3.193
    9LEU   HD13  140   2.313   3.165   3.102
    9LEU    CD2  141   2.391   3.051   2.868
    9LEU   HD21  142   2.289   3.054   2.833
    9LEU   HD22  143   2.430   3.153   2.870
    9LEU   HD23  144   2.450   2.990   2.799
    9LEU      C  145   2.785   2.989   3.036
    9LEU      O  146   2.846   3.056   2.952
   10ARG      N  147   2.835   2.961   3.157
   10ARG      H  148   2.777   2.906   3.220
   10ARG     CA  149   2.961   3.016   3.208
   10ARG     HA  150   2.958   3.124   3.193
   10ARG     CB  151   2.969   2.987   3.359
   10ARG    HB1  152   3.004   2.886   3.377
   10ARG    HB2  153   2.869   2.997   3.401
   10ARG     CG  154   3.060   3.088   3.431
   10ARG    HG1  155   3.033   3.188   3.397
   10ARG    HG2  156   3.164   3.069   3.406
   10ARG     CD  157   3.039   3.082   3.583
   10ARG    HD1  158   3.072   2.985   3.619
   10ARG    HD2  159   2.932   3.092   3.604
   10ARG     NE  160   3.114   3.188   3.653
   10ARG     HE  161   3.213   3.193   3.631
   10ARG     CZ  162   3.076   3.256   3.760
   10ARG    NH1  163   2.959   3.249   3.814
   10ARG   HH11  164   2.881   3.202   3.768
   10ARG   HH12  165   2.939   3.300   3.898
   10ARG    NH2  166   3.158   3.337   3.820
   10ARG   HH21  167   3.251   3.355   3.783
   10ARG   HH22  168   3.125   3.390   3.898
   10ARG      C  169   3.081   2.965   3.128
   10ARG      O  170   3.164   3.044   3.084
   11THR      N  171   3.084   2.835   3.098
   11THR      H  172   3.015   2.775   3.142
   11THR     CA  173   3.184   2.770   3.011
   11THR     HA  174   3.283   2.786   3.052
   11THR     CB  175   3.156   2.619   3.006
   11THR     HB  176   3.056   2.602   2.965
   11THR    CG2  177   3.257   2.541   2.923
   11THR   HG21  178   3.252   2.435   2.946
   11THR   HG22  179   3.234   2.554   2.817
   11THR   HG23  180   3.357   2.578   2.942
   11THR    OG1  181   3.160   2.567   3.136
   11THR    HG1  182   3.135   2.475   3.130
   11THR      C  183   3.181   2.824   2.868
   11THR      O  184   3.285   2.836   2.803
   12PHE      N  185   3.062   2.856   2.816
   12PHE      H  186   2.978   2.840   2.871
   12PHE     CA  187   3.048   2.915   2.683
   12PHE     HA  188   3.112   2.859   2.614
   12PHE     CB  189   2.903   2.899   2.637
   12PHE    HB1  190   2.838   2.961   2.700
   12PHE    HB2  191   2.872   2.795   2.649
   12PHE     CG  192   2.885   2.937   2.492
   12PHE    CD1  193   2.944   2.856   2.393
   12PHE    HD1  194   2.999   2.768   2.420
   12PHE    CE1  195   2.934   2.892   2.258
   12PHE    HE1  196   2.982   2.832   2.183
   12PHE     CZ  197   2.863   3.007   2.221
   12PHE     HZ  198   2.854   3.033   2.116
   12PHE    CE2  199   2.804   3.088   2.319
   12PHE    HE2  200   2.750   3.177   2.290
   12PHE    CD2  201   2.815   3.054   2.455
   12PHE    HD2  202   2.771   3.117   2.530
   12PHE      C  203   3.095   3.061   2.678
   12PHE      O  204   3.166   3.098   2.584
   13ALA      N  205   3.063   3.141   2.780
   13ALA      H  206   3.005   3.102   2.854
   13ALA     CA  207   3.108   3.279   2.795
   13ALA     HA  208   3.081   3.335   2.705
   13ALA     CB  209   3.035   3.340   2.915
   13ALA    HB1  210   3.064   3.445   2.926
   13ALA    HB2  211   2.928   3.333   2.901
   13ALA    HB3  212   3.063   3.287   3.007
   13ALA      C  213   3.261   3.290   2.813
   13ALA      O  214   3.324   3.379   2.756
   14GLU      N  215   3.321   3.197   2.888
   14GLU      H  216   3.262   3.133   2.941
   14GLU     CA  217   3.466   3.184   2.902
   14GLU     HA  218   3.508   3.279   2.937
   14GLU     CB  219   3.497   3.075   3.004
   14GLU    HB1  220   3.593   3.032   2.978
   14GLU    HB2  221   3.423   2.994   2.996
   14GLU     CG  222   3.502   3.124   3.149
   14GLU    HG1  223   3.402   3.154   3.181
   14GLU    HG2  224   3.566   3.213   3.155
   14GLU     CD  225   3.557   3.014   3.242
   14GLU    OE1  226   3.639   2.932   3.194
   14GLU    OE2  227   3.512   3.005   3.358
   14GLU      C  228   3.536   3.150   2.770
   14GLU      O  229   3.637   3.213   2.736
   15SER      N  230   3.486   3.052   2.694
   15SER      H  231   3.407   3.000   2.731
   15SER     CA  232   3.537   3.018   2.560
   15SER     HA  233   3.643   2.993   2.568
   15SER     CB  234   3.462   2.894   2.509
   15SER    HB1  235   3.355   2.906   2.532
   15SER    HB2  236   3.497   2.806   2.563
   15SER     OG  237   3.474   2.873   2.369
   15SER     HG  238   3.545   2.808   2.353
   15SER      C  239   3.525   3.138   2.464
   15SER      O  240   3.619   3.170   2.391
   16SER      N  241   3.414   3.211   2.472
   16SER      H  242   3.341   3.179   2.534
   16SER     CA  243   3.386   3.328   2.389
   16SER     HA  244   3.398   3.299   2.285
   16SER     CB  245   3.239   3.366   2.410
   16SER    HB1  246   3.223   3.395   2.513
   16SER    HB2  247   3.178   3.278   2.389
   16SER     OG  248   3.195   3.471   2.326
   16SER     HG  249   3.099   3.456   2.312
   16SER      C  250   3.481   3.446   2.416
   16SER      O  251   3.528   3.508   2.321
   17ASP      N  252   3.520   3.471   2.543
   17ASP      H  253   3.476   3.416   2.616
   17ASP     CA  254   3.622   3.570   2.583
   17ASP     HA  255   3.589   3.670   2.552
   17ASP     CB  256   3.633   3.568   2.738
   17ASP    HB1  257   3.675   3.471   2.768
   17ASP    HB2  258   3.532   3.571   2.778
   17ASP     CG  259   3.713   3.678   2.810
   17ASP    OD1  260   3.725   3.793   2.761
   17ASP    OD2  261   3.755   3.652   2.926
   17ASP      C  262   3.757   3.541   2.514
   17ASP      O  263   3.813   3.628   2.447
   18LYS      N  264   3.803   3.414   2.518
   18LYS      H  265   3.746   3.347   2.570
   18LYS     CA  266   3.929   3.367   2.456
   18LYS     HA  267   4.010   3.431   2.491
   18LYS     CB  268   3.957   3.221   2.497
   18LYS    HB1  269   4.037   3.182   2.434
   18LYS    HB2  270   3.868   3.161   2.481
   18LYS     CG  271   4.002   3.208   2.643
   18LYS    HG1  272   3.927   3.254   2.707
   18LYS    HG2  273   4.096   3.261   2.656
   18LYS     CD  274   4.022   3.061   2.687
   18LYS    HD1  275   3.930   3.007   2.667
   18LYS    HD2  276   4.041   3.060   2.794
   18LYS     CE  277   4.140   2.990   2.622
   18LYS    HE1  278   4.233   3.027   2.666
   18LYS    HE2  279   4.141   3.011   2.516
   18LYS     NZ  280   4.131   2.843   2.644
   18LYS    HZ1  281   4.205   2.795   2.595
   18LYS    HZ2  282   4.141   2.819   2.742
   18LYS    HZ3  283   4.043   2.806   2.610
   18LYS      C  284   3.931   3.375   2.303
   18LYS      O  285   4.039   3.382   2.244
   19LEU      N  286   3.815   3.371   2.237
   19LEU      H  287   3.731   3.354   2.291
   19LEU     CA  288   3.804   3.390   2.092
   19LEU     HA  289   3.896   3.357   2.044
   19LEU     CB  290   3.687   3.308   2.038
   19LEU    HB1  291   3.664   3.341   1.936
   19LEU    HB2  292   3.599   3.328   2.100
   19LEU     CG  293   3.716   3.158   2.036
   19LEU     HG  294   3.748   3.125   2.134
   19LEU    CD1  295   3.588   3.087   1.999
   19LEU   HD11  296   3.608   2.980   2.003
   19LEU   HD12  297   3.509   3.112   2.071
   19LEU   HD13  298   3.555   3.114   1.899
   19LEU    CD2  299   3.823   3.120   1.932
   19LEU   HD21  300   3.833   3.012   1.930
   19LEU   HD22  301   3.794   3.155   1.833
   19LEU   HD23  302   3.920   3.162   1.960
   19LEU      C  303   3.787   3.536   2.051
   19LEU      O  304   3.834   3.574   1.943
   20ARG      N  305   3.723   3.617   2.136
   20ARG      H  306   3.683   3.576   2.220
   20ARG     CA  307   3.703   3.760   2.111
   20ARG     HA  308   3.654   3.771   2.014
   20ARG     CB  309   3.611   3.818   2.220
   20ARG    HB1  310   3.666   3.827   2.314
   20ARG    HB2  311   3.529   3.749   2.238
   20ARG     CG  312   3.552   3.953   2.180
   20ARG    HG1  313   3.511   3.946   2.079
   20ARG    HG2  314   3.630   4.029   2.181
   20ARG     CD  315   3.439   3.992   2.277
   20ARG    HD1  316   3.477   3.993   2.379
   20ARG    HD2  317   3.361   3.916   2.270
   20ARG     NE  318   3.380   4.122   2.243
   20ARG     HE  319   3.295   4.120   2.189
   20ARG     CZ  320   3.423   4.242   2.278
   20ARG    NH1  321   3.531   4.261   2.350
   20ARG   HH11  322   3.584   4.182   2.383
   20ARG   HH12  323   3.562   4.354   2.369
   20ARG    NH2  324   3.357   4.348   2.243
   20ARG   HH21  325   3.267   4.339   2.198
   20ARG   HH22  326   3.387   4.439   2.271
   20ARG      C  327   3.837   3.834   2.104
   20ARG      O  328   3.849   3.926   2.023
   21ARG      N  329   3.933   3.792   2.187
   21ARG      H  330   3.906   3.717   2.251
   21ARG     CA  331   4.067   3.848   2.204
   21ARG     HA  332   4.061   3.956   2.186
   21ARG     CB  333   4.110   3.825   2.350
   21ARG    HB1  334   4.139   3.720   2.364
   21ARG    HB2  335   4.027   3.846   2.418
   21ARG     CG  336   4.227   3.918   2.385
   21ARG    HG1  337   4.191   4.021   2.383
   21ARG    HG2  338   4.307   3.908   2.311
   21ARG     CD  339   4.283   3.885   2.523
   21ARG    HD1  340   4.323   3.784   2.522
   21ARG    HD2  341   4.201   3.889   2.595
   21ARG     NE  342   4.385   3.985   2.559
   21ARG     HE  343   4.352   4.080   2.572
   21ARG     CZ  344   4.514   3.965   2.572
   21ARG    NH1  345   4.568   3.847   2.574
   21ARG   HH11  346   4.508   3.769   2.548
   21ARG   HH12  347   4.667   3.835   2.568
   21ARG    NH2  348   4.594   4.067   2.585
   21ARG   HH21  349   4.554   4.158   2.571
   21ARG   HH22  350   4.692   4.054   2.571
   21ARG      C  351   4.171   3.797   2.103
   21ARG    OC1  352   4.263   3.722   2.143
   21ARG    OC2  353   4.169   3.844   1.987
   22SOL     OW  354   0.240   0.645   0.117
   22SOL    HW1  355   0.151   0.617   0.154
   22SOL    HW2  356   0.243   0.624   0.020
   23SOL     OW  357   0.211   0.311   1.000
   23SOL    HW1  358   0.250   0.257   1.074
   23SOL    HW2  359   0.117   0.279   0.982
   24SOL     OW  360   6.001   0.387   0.622
   24SOL    HW1  361   5.952   0.423   0.702
   24SOL    HW2  362   5.942   0.324   0.572
   25SOL     OW  363   0.577   1.303   1.200
   25SOL    HW1  364   0.486   1.300   1.159
   25SOL    HW2  365   0.596   1.396   1.232
   26SOL     OW  366   1.572   1.515   0.708
   26SOL    HW1  367   1.528   1.490   0.794
   26SOL    HW2  368   1.504   1.523   0.636
   27SOL     OW  369   1.135   0.707   0.690
   27SOL    HW1  370   1.187   0.791   0.677
   27SOL    HW2  371   1.083   0.712   0.775
   28SOL     OW  372   1.804   0.594   0.237
   28SOL    HW1  373   1.746   0.622   0.161
   28SOL    HW2  374   1.762   0.517   0.284
   29SOL     OW  375   0.733   1.136   1.043
   29SOL    HW1  376   0.671   1.174   1.112
   29SOL    HW2  377   0.780   1.211   0.996
   30SOL     OW  378   0.879   0.757   1.824
   30SOL    HW1  379   0.871   0.824   1.898
   30SOL    HW2  380   0.901   0.804   1.739
   31SOL     OW  381   0.683   0.992   0.649
   31SOL    HW1  382   0.757   0.984   0.716
   31SOL    HW2  383   0.615   1.057   0.681
   32SOL     OW  384   0.713   1.154   1.825
   32SOL    HW1  385   0.767   1.230   1.861
   32SOL    HW2  386   0.630   1.188   1.782
   33SOL     OW  387   0.340   1.406   1.074
   33SOL    HW1  388   0.256   1.367   1.035
   33SOL    HW2  389   0.386   1.462   1.005
   34SOL     OW  390   1.455   1.503   1.364
   34SOL    HW1  391   1.514   1.584   1.371
   34SOL    HW2  392   1.381   1.510   1.431
   35SOL     OW  393   0.450   0.400   1.481
   35SOL    HW1  394   0.535   0.348   1.489
   35SOL    HW2  395   0.372   0.339   1.495
   36SOL     OW  396   1.614   0.454   0.741
   36SOL    HW1  397   1.542   0.470   0.674
   36SOL    HW2  398   1.621   0.534   0.802
   37SOL     OW  399   0.240   1.714   0.495
   37SOL    HW1  400   0.254   1.796   0.551
   37SOL    HW2  401   0.321   1.698   0.438
   38SOL     OW  402   1.137   1.340   1.698
   38SOL    HW1  403   1.185   1.336   1.786
   38SOL    HW2  404   1.081   1.258   1.688
   39SOL     OW  405   0.237   1.438   0.532
   39SOL    HW1  406   0.216   1.536   0.541
   39SOL    HW2  407   0.177   1.386   0.592
   40SOL     OW  408   0.287   1.090   0.901
   40SOL    HW1  409   0.285   1.002   0.949
   40SOL    HW2  410   0.222   1.153   0.944
   41SOL     OW  411   0.594   1.800   1.423
   41SOL    HW1  412   0.510   1.778   1.472
   41SOL    HW2  413   0.627   1.890   1.454
   42SOL     OW  414   0.594   0.963   0.143
   42SOL    HW1  415   0.533   1.029   0.099
   42SOL    HW2  416   0.642   1.007   0.218
   43SOL     OW  417   1.652   0.101   1.508
   43SOL    HW1  418   1.574   0.120   1.448
   43SOL    HW2  419   1.643   0.155   1.592
   44SOL     OW  420   0.129   0.647   0.592
   44SOL    HW1  421   0.082   0.562   0.572
   44SOL    HW2  422   0.065   0.713   0.632
   45SOL     OW  423   1.859   1.749   0.336
   45SOL    HW1  424   1.931   1.714   0.396
   45SOL    HW2  425   1.867   1.848   0.327
   46SOL     OW  426   5.972   1.557   0.097
   46SOL    HW1  427   5.981   1.458   0.113
   46SOL    HW2  428   5.984   1.606   0.183
   47SOL     OW  429   1.698   0.908   0.662
   47SOL    HW1  430   1.784   0.860   0.650
   47SOL    HW2  431   1.676   0.960   0.579
   48SOL     OW  432   1.633   1.096   0.469
   48SOL    HW1  433   1.658   1.154   0.392
   48SOL    HW2  434   1.644   1.147   0.554
   49SOL     OW  435   0.075   0.759   1.680
   49SOL    HW1  436   0.136   0.786   1.755
   49SOL    HW2  437   0.113   0.790   1.593
   50SOL     OW  438   0.619   1.402   0.731
   50SOL    HW1  439   0.578   1.312   0.742
   50SOL    HW2  440   0.609   1.432   0.636
   51SOL     OW  441   1.282   1.230   1.421
   51SOL    HW1  442   1.308   1.160   1.355
   51SOL    HW2  443   1.345   1.227   1.499
   52SOL     OW  444   0.824   0.029   0.537
   52SOL    HW1  445   0.866   0.117   0.513
   52SOL    HW2  446   0.724   0.037   0.532
   53SOL     OW  447   0.201   0.961   1.231
   53SOL    HW1  448   0.294   0.930   1.210
   53SOL    HW2  449   0.136   0.915   1.170
   54SOL     OW  450   1.447   1.035   0.221
   54SOL    HW1  451   1.381   0.974   0.264
   54SOL    HW2  452   1.535   1.027   0.269
   55SOL     OW  453   1.180   1.818   1.626
   55SOL    HW1  454   1.185   1.888   1.555
   55SOL    HW2  455   1.200   1.728   1.586
   56SOL     OW  456   0.351   0.258   1.843
   56SOL    HW1  457   0.404   0.340   1.864
   56SOL    HW2  458   0.254   0.275   1.863
   57SOL     OW  459   1.464   1.422   0.942
   57SOL    HW1  460   1.399   1.442   1.016
   57SOL    HW2  461   1.456   1.326   0.916
   58SOL     OW  462   1.645   1.757   0.580
   58SOL    HW1  463   1.628   1.727   0.486
   58SOL    HW2  464   1.629   1.681   0.643
   59SOL     OW  465   0.595   0.724   0.284
   59SOL    HW1  466   0.601   0.810   0.233
   59SOL    HW2  467   0.524   0.733   0.354
   60SOL     OW  468   1.296   0.376   0.932
   60SOL    HW1  469   1.205   0.335   0.930
   60SOL    HW2  470   1.356   0.321   0.991
   61SOL     OW  471   1.591   1.676   0.317
   61SOL    HW1  472   1.690   1.692   0.315
   61SOL    HW2  473   1.558   1.661   0.223
   62SOL     OW  474   0.806   0.605   1.458
   62SOL    HW1  475   0.773   0.583   1.550
   62SOL    HW2  476   0.757   0.548   1.391
   63SOL     OW  477   1.388   0.469   1.680
   63SOL    HW1  478   1.388   0.521   1.765
   63SOL    HW2  479   1.459   0.399   1.684
   64SOL     OW  480   0.948   0.885   1.587
   64SOL    HW1  481   1.009   0.817   1.546
   64SOL    HW2  482   0.896   0.932   1.516
   65SOL     OW  483   0.985   0.392   1.236
   65SOL    HW1  484   0.918   0.442   1.290
   65SOL    HW2  485   0.937   0.335   1.169
   66SOL     OW  486   1.057   0.689   0.426
   66SOL    HW1  487   1.080   0.691   0.523
   66SOL    HW2  488   0.969   0.644   0.414
   67SOL     OW  489   0.069   0.841   0.806
   67SOL    HW1  490   0.148   0.806   0.856
   67SOL    HW2  491   0.100   0.906   0.737
   68SOL     OW  492   0.121   1.883   1.584
   68SOL    HW1  493   0.126   1.849   1.678
   68SOL    HW2  494   0.035   1.854   1.542
   69SOL     OW  495   0.868   0.347   0.231
   69SOL    HW1  496   0.921   0.400   0.164
   69SOL    HW2  497   0.847   0.257   0.192
   70SOL     OW  498   1.696   0.573   1.825
   70SOL    HW1  499   1.664   0.655   1.778
   70SOL    HW2  500   1.729   0.507   1.757
   71SOL     OW  501   1.367   1.143   0.533
   71SOL    HW1  502   1.456   1.125   0.490
   71SOL    HW2  503   1.318   1.213   0.481
   72SOL     OW  504   0.544   0.221   0.902
   72SOL    HW1  505   0.545   0.238   1.001
   72SOL    HW2  506   0.546   0.309   0.854
   73SOL     OW  507   1.000   1.453   0.466
   73SOL    HW1  508   0.964   1.531   0.414
   73SOL    HW2  509   0.974   1.462   0.562
   74SOL     OW  510   0.348   1.820   0.892
   74SOL    HW1  511   0.397   1.733   0.891
   74SOL    HW2  512   0.413   1.894   0.907
   75SOL     OW  513   1.802   1.049   0.886
   75SOL    HW1  514   1.753   1.026   0.802
   75SOL    HW2  515   1.737   1.058   0.961
   76SOL     OW  516   1.224   1.537   1.515
   76SOL    HW1  517   1.212   1.463   1.581
   76SOL    HW2  518   1.154   1.530   1.444
   77SOL     OW  519   0.303   0.951   0.262
   77SOL    HW1  520   0.341   1.004   0.186
   77SOL    HW2  521   0.307   0.854   0.240
   78SOL     OW  522   1.482   0.754   0.723
   78SOL    HW1  523   1.477   0.711   0.813
   78SOL    HW2  524   1.565   0.810   0.718
   79SOL     OW  525   0.474   1.264   1.732
   79SOL    HW1  526   0.452   1.272   1.635
   79SOL    HW2  527   0.389   1.265   1.785
   80SOL     OW  528   1.103   1.782   0.213
   80SOL    HW1  529   1.040   1.735   0.275
   80SOL    HW2  530   1.156   1.715   0.162
   81SOL     OW  531   0.195   0.288   1.495
   81SOL    HW1  532   0.133   0.363   1.469
   81SOL    HW2  533   0.159   0.242   1.576
   82SOL     OW  534   1.609   1.368   0.056
   82SOL    HW1  535   1.600   1.468   0.052
   82SOL    HW2  536   1.521   1.326   0.037
   83SOL     OW  537   0.472   1.732   0.346
   83SOL    HW1  538   0.520   1.796   0.405
   83SOL    HW2  539   0.535   1.698   0.276
   84SOL     OW  540   1.424   0.155   0.408
   84SOL    HW1  541   1.407   0.113   0.320
   84SOL    HW2  542   1.520   0.143   0.434
   85SOL     OW  543   0.257   1.778   1.221
   85SOL    HW1  544   0.303   1.703   1.269
   85SOL    HW2  545   0.270   1.767   1.123
   86SOL     OW  546   0.938   1.704   0.897
   86SOL    HW1  547   1.023   1.660   0.926
   86SOL    HW2  548   0.898   1.653   0.821
   87SOL     OW  549   0.390   0.687   0.480
   87SOL    HW1  550   0.417   0.591   0.489
   87SOL    HW2  551   0.295   0.698   0.507
   88SOL     OW  552   1.547   0.230   1.736
   88SOL    HW1  553   1.538   0.260   1.831
   88SOL    HW2  554   1.482   0.155   1.719
   89SOL     OW  555   0.602   0.094   0.137
   89SOL    HW1  556   0.700   0.079   0.144
   89SOL    HW2  557   0.583   0.154   0.058
   90SOL     OW  558   0.758   0.285   1.774
   90SOL    HW1  559   0.845   0.236   1.774
   90SOL    HW2  560   0.696   0.243   1.841
   91SOL     OW  561   0.874   1.514   1.193
   91SOL    HW1  562   0.854   1.475   1.103
   91SOL    HW2  563   0.945   1.460   1.238
   92SOL     OW  564   1.331   0.589   1.437
   92SOL    HW1  565   1.364   0.555   1.525
   92SOL    HW2  566   1.369   0.680   1.421
   93SOL     OW  567   0.822   1.382   0.945
   93SOL    HW1  568   0.913   1.373   0.905
   93SOL    HW2  569   0.755   1.397   0.873
   94SOL     OW  570   0.931   0.518   0.892
   94SOL    HW1  571   0.902   0.506   0.797
   94SOL    HW2  572   0.971   0.434   0.926
   95SOL     OW  573   0.551   0.058   0.499
   95SOL    HW1  574   0.471   0.043   0.557
   95SOL    HW2  575   0.538   0.141   0.445
   96SOL     OW  576   1.386   1.219   0.031
   96SOL    HW1  577   1.411   1.148   0.096
   96SOL    HW2  578   1.305   1.267   0.064
   97SOL     OW  579   0.308   0.019   0.242
   97SOL    HW1  580   0.337   0.091   0.179
   97SOL    HW2  581   0.387  -0.039   0.264
   98SOL     OW  582   0.952   0.259   0.471
   98SOL    HW1  583   0.917   0.294   0.385
   98SOL    HW2  584   1.051   0.272   0.476
   99SOL     OW  585   1.077   0.692   1.450
   99SOL    HW1  586   1.001   0.629   1.464
   99SOL    HW2  587   1.163   0.642   1.451
  100SOL     OW  588   1.213   1.575   0.797
  100SOL    HW1  589   1.227   1.642   0.724
  100SOL    HW2  590   1.289   1.580   0.861
  101SOL     OW  591   0.484   1.166   0.723
  101SOL    HW1  592   0.414   1.147   0.792
  101SOL    HW2  593   0.443   1.163   0.632
  102SOL     OW  594   1.258   1.794   0.611
  102SOL    HW1  595   1.314   1.857   0.556
  102SOL    HW2  596   1.184   1.844   0.655
  103SOL     OW  597   1.003   0.515   0.069
  103SOL    HW1  598   0.936   0.562   0.012
  103SOL    HW2  599   1.048   0.581   0.130
  104SOL     OW  600   0.094   0.541   1.402
  104SOL    HW1  601   0.186   0.551   1.363
  104SOL    HW2  602   0.067   0.628   1.444
  105SOL     OW  603   0.560   0.241   1.184
  105SOL    HW1  604   0.599   0.164   1.234
  105SOL    HW2  605   0.462   0.246   1.203
  106SOL     OW  606   0.864   0.465   0.636
  106SOL    HW1  607   0.818   0.523   0.569
  106SOL    HW2  608   0.895   0.381   0.592
  107SOL     OW  609   0.982   0.041   0.771
  107SOL    HW1  610   0.925   0.034   0.689
  107SOL    HW2  611   0.986  -0.047   0.817
  108SOL     OW  612   1.450   1.160   0.864
  108SOL    HW1  613   1.372   1.098   0.853
  108SOL    HW2  614   1.495   1.172   0.776
  109SOL     OW  615   1.465   0.613   0.965
  109SOL    HW1  616   1.404   0.535   0.961
  109SOL    HW2  617   1.525   0.605   1.044
  110SOL     OW  618   1.860   0.813   0.392
  110SOL    HW1  619   1.918   0.773   0.463
  110SOL    HW2  620   1.834   0.742   0.326
  111SOL     OW  621   0.485   1.413   0.156
  111SOL    HW1  622   0.404   1.389   0.210
  111SOL    HW2  623   0.504   1.340   0.090
  112SOL     OW  624   1.675   1.257   0.678
  112SOL    HW1  625   1.775   1.254   0.674
  112SOL    HW2  626   1.645   1.353   0.678
  113SOL     OW  627   1.410   0.586   0.110
  113SOL    HW1  628   1.352   0.571   0.190
  113SOL    HW2  629   1.469   0.507   0.095
  114SOL     OW  630   0.513   0.267   0.325
  114SOL    HW1  631   0.547   0.200   0.259
  114SOL    HW2  632   0.494   0.353   0.278
  115SOL     OW  633   1.749   1.242   1.548
  115SOL    HW1  634   1.839   1.201   1.531
  115SOL    HW2  635   1.762   1.335   1.584
  116SOL     OW  636   1.047   1.349   1.337
  116SOL    HW1  637   0.965   1.319   1.386
  116SOL    HW2  638   1.128   1.308   1.379
  117SOL     OW  639   1.615   1.633   1.661
  117SOL    HW1  640   1.597   1.669   1.570
  117SOL    HW2  641   1.699   1.579   1.660
  118SOL     OW  642   1.144   1.231   1.105
  118SOL    HW1  643   1.082   1.265   1.176
  118SOL    HW2  644   1.112   1.261   1.016
  119SOL     OW  645   1.619   1.094   1.083
  119SOL    HW1  646   1.614   1.161   1.156
  119SOL    HW2  647   1.547   1.112   1.016
  120SOL     OW  648   0.897   0.106   1.393
  120SOL    HW1  649   0.922   0.064   1.306
  120SOL    HW2  650   0.978   0.145   1.436
  121SOL     OW  651   0.977   1.116   1.722
  121SOL    HW1  652   0.883   1.136   1.750
  121SOL    HW2  653   0.979   1.033   1.667
  122SOL     OW  654   0.720   1.058   0.372
  122SOL    HW1  655   0.693   1.042   0.467
  122SOL    HW2  656   0.793   0.995   0.346
  123SOL     OW  657   0.440   0.822   1.245
  123SOL    HW1  658   0.513   0.834   1.313
  123SOL    HW2  659   0.396   0.733   1.259
  124SOL     OW  660   1.257   0.381   1.278
  124SOL    HW1  661   1.287   0.464   1.325
  124SOL    HW2  662   1.164   0.393   1.245
  125SOL     OW  663   0.068   1.595   1.342
  125SOL    HW1  664   0.094   1.665   1.275
  125SOL    HW2  665   0.150   1.559   1.385
  126SOL     OW  666   0.393   1.135   0.460
  126SOL    HW1  667   0.365   1.219   0.413
  126SOL    HW2  668   0.373   1.057   0.402
  127SOL     OW  669   0.558   0.520   0.857
  127SOL    HW1  670   0.562   0.580   0.778
  127SOL    HW2  671   0.626   0.550   0.925
  128SOL     OW  672   1.253   1.361   0.399
  128SOL    HW1  673   1.309   1.436   0.434
  128SOL    HW2  674   1.157   1.375   0.424
  129SOL     OW  675   1.295   1.465   1.147
  129SOL    HW1  676   1.351   1.471   1.230
  129SOL    HW2  677   1.243   1.380   1.149
  130SOL     OW  678   1.563   0.625   0.489
  130SOL    HW1  679   1.518   0.670   0.566
  130SOL    HW2  680   1.587   0.694   0.420
  131SOL     OW  681   0.354   1.530   1.313
  131SOL    HW1  682   0.335   1.478   1.230
  131SOL    HW2  683   0.452   1.546   1.321
  132SOL     OW  684   0.443   0.729   1.592
  132SOL    HW1  685   0.513   0.775   1.538
  132SOL    HW2  686   0.473   0.637   1.615
  133SOL     OW  687   1.614   0.790   1.689
  133SOL    HW1  688   1.523   0.832   1.684
  133SOL    HW2  689   1.671   0.828   1.617
  134SOL     OW  690   0.989   0.138   1.784
  134SOL    HW1  691   1.054   0.210   1.760
  134SOL    HW2  692   0.980   0.074   1.708
  135SOL     OW  693   0.482   0.036   1.769
  135SOL    HW1  694   0.487   0.016   1.671
  135SOL    HW2  695   0.430   0.120   1.783
  136SOL     OW  696   0.599   0.879   1.028
  136SOL    HW1  697   0.637   0.971   1.029
  136SOL    HW2  698   0.539   0.866   1.107
  137SOL     OW  699   1.338   0.855   1.020
  137SOL    HW1  700   1.247   0.843   0.980
  137SOL    HW2  701   1.391   0.771   1.008
  138SOL     OW  702   1.220   0.515   0.290
  138SOL    HW1  703   1.225   0.432   0.346
  138SOL    HW2  704   1.167   0.585   0.338
  139SOL     OW  705   0.296   0.212   1.251
  139SOL    HW1  706   0.258   0.235   1.340
  139SOL    HW2  707   0.306   0.112   1.243
  140SOL     OW  708   0.062   1.323   1.262
  140SOL    HW1  709   0.093   1.269   1.341
  140SOL    HW2  710   0.045   1.418   1.292
  141SOL     OW  711   0.724   0.630   1.043
  141SOL    HW1  712   0.804   0.609   0.987
  141SOL    HW2  713   0.694   0.724   1.024
  142SOL     OW  714   1.741   0.964   1.863
  142SOL    HW1  715   1.700   0.893   1.805
  142SOL    HW2  716   1.679   0.984   1.939
  143SOL     OW  717   0.312   0.048   0.644
  143SOL    HW1  718   0.305   0.143   0.675
  143SOL    HW2  719   0.222   0.006   0.644
  144SOL     OW  720   1.655   0.400   0.369
  144SOL    HW1  721   1.658   0.315   0.423
  144SOL    HW2  722   1.616   0.473   0.424
  145SOL     OW  723   1.029   0.761   0.956
  145SOL    HW1  724   1.018   0.781   1.053
  145SOL    HW2  725   0.999   0.667   0.938
  146SOL     OW  726   0.983   1.563   1.722
  146SOL    HW1  727   0.963   1.610   1.636
  146SOL    HW2  728   1.029   1.477   1.703
  147SOL     OW  729   1.851   1.500   1.602
  147SOL    HW1  730   1.872   1.527   1.508
  147SOL    HW2  731   1.934   1.509   1.658
  148SOL     OW  732   0.348   0.897   1.789
  148SOL    HW1  733   0.423   0.929   1.846
  148SOL    HW2  734   0.384   0.836   1.719
  149SOL     OW  735   1.535   0.341   0.136
  149SOL    HW1  736   1.484   0.255   0.144
  149SOL    HW2  737   1.579   0.361   0.223
  150SOL     OW  738   1.282   0.805   0.025
  150SOL    HW1  739   1.336   0.724   0.047
  150SOL    HW2  740   1.339   0.870  -0.025
  151SOL     OW  741   1.073   1.341   0.858
  151SOL    HW1  742   1.078   1.264   0.795
  151SOL    HW2  743   1.128   1.417   0.823
  152SOL     OW  744   0.320   0.809   0.950
  152SOL    HW1  745   0.414   0.834   0.927
  152SOL    HW2  746   0.318   0.718   0.991
  153SOL     OW  747   0.348   0.536   1.020
  153SOL    HW1  748   0.299   0.449   1.019
  153SOL    HW2  749   0.427   0.531   0.960
  154SOL     OW  750   1.133   0.368   1.706
  154SOL    HW1  751   1.082   0.426   1.769
  154SOL    HW2  752   1.225   0.406   1.694
  155SOL     OW  753   1.134   0.211   1.486
  155SOL    HW1  754   1.128   0.272   1.565
  155SOL    HW2  755   1.149   0.265   1.403
  156SOL     OW  756   5.990   1.298   0.200
  156SOL    HW1  757   5.908   1.328   0.248
  156SOL    HW2  758   6.009   1.202   0.221
  157SOL     OW  759   0.065   1.820   0.867
  157SOL    HW1  760   0.055   1.721   0.880
  157SOL    HW2  761   0.161   1.845   0.882
  158SOL     OW  762   0.482   1.575   0.901
  158SOL    HW1  763   0.552   1.640   0.931
  158SOL    HW2  764   0.522   1.510   0.837
  159SOL     OW  765   0.965   0.793   1.219
  159SOL    HW1  766   1.025   0.772   1.297
  159SOL    HW2  767   0.877   0.749   1.231
  160SOL     OW  768  -0.009   0.602   1.130
  160SOL    HW1  769   0.017   0.556   1.046
  160SOL    HW2  770   0.030   0.553   1.208
  161SOL     OW  771   0.178   0.510   1.726
  161SOL    HW1  772   0.244   0.486   1.655
  161SOL    HW2  773   0.125   0.590   1.697
  162SOL     OW  774   1.383   0.932   1.650
  162SOL    HW1  775   1.407   1.029   1.650
  162SOL    HW2  776   1.378   0.899   1.556
  163SOL     OW  777   0.815   0.580   0.373
  163SOL    HW1  778   0.817   0.494   0.322
  163SOL    HW2  779   0.738   0.636   0.342
  164SOL     OW  780   1.639   0.604   1.177
  164SOL    HW1  781   1.627   0.544   1.256
  164SOL    HW2  782   1.730   0.591   1.138
  165SOL     OW  783   0.288   1.551   1.732
  165SOL    HW1  784   0.230   1.619   1.777
  165SOL    HW2  785   0.262   1.460   1.763
  166SOL     OW  786   0.695   0.472   1.259
  166SOL    HW1  787   0.633   0.394   1.246
  166SOL    HW2  788   0.696   0.528   1.176
  167SOL     OW  789   0.915   1.680   1.477
  167SOL    HW1  790   0.889   1.630   1.395
  167SOL    HW2  791   0.917   1.779   1.458
  168SOL     OW  792   0.468   0.500   0.198
  168SOL    HW1  793   0.528   0.575   0.224
  168SOL    HW2  794   0.379   0.536   0.171
  169SOL     OW  795   0.178   1.145   1.441
  169SOL    HW1  796   0.138   1.111   1.526
  169SOL    HW2  797   0.171   1.075   1.371
  170SOL     OW  798   1.308   1.041   1.216
  170SOL    HW1  799   1.332   0.973   1.147
  170SOL    HW2  800   1.247   1.109   1.175
  171SOL     OW  801   1.275   0.844   0.309
  171SOL    HW1  802   1.203   0.799   0.361
  171SOL    HW2  803   1.269   0.817   0.213
  172SOL     OW  804   1.787   1.721   1.164
  172SOL    HW1  805   1.848   1.755   1.092
  172SOL    HW2  806   1.751   1.631   1.137
  173SOL     OW  807   1.241   1.733   1.100
  173SOL    HW1  808   1.327   1.765   1.060
  173SOL    HW2  809   1.250   1.636   1.124
  174SOL     OW  810   0.099   1.258   1.007
  174SOL    HW1  811   0.084   1.281   1.103
  174SOL    HW2  812   0.022   1.206   0.972
  175SOL     OW  813   0.685   1.680   1.746
  175SOL    HW1  814   0.616   1.752   1.736
  175SOL    HW2  815   0.759   1.695   1.680
  176SOL     OW  816   0.869   0.054   0.186
  176SOL    HW1  817   0.945   0.085   0.129
  176SOL    HW2  818   0.904   0.002   0.264
  177SOL     OW  819   1.687   0.149   0.480
  177SOL    HW1  820   1.776   0.133   0.437
  177SOL    HW2  821   1.677   0.088   0.558
  178SOL     OW  822   1.399   1.577   0.497
  178SOL    HW1  823   1.461   1.608   0.425
  178SOL    HW2  824   1.343   1.653   0.529
  179SOL     OW  825   0.141   1.770   1.832
  179SOL    HW1  826   0.080   1.701   1.871
  179SOL    HW2  827   0.190   1.817   1.905
  180SOL     OW  828   1.281   0.933   0.673
  180SOL    HW1  829   1.358   0.870   0.687
  180SOL    HW2  830   1.311   1.008   0.614
  181SOL     OW  831   0.792   1.282   1.422
  181SOL    HW1  832   0.765   1.328   1.507
  181SOL    HW2  833   0.719   1.291   1.355
  182SOL     OW  834   0.661   1.614   0.177
  182SOL    HW1  835   0.684   1.635   0.082
  182SOL    HW2  836   0.602   1.533   0.180
  183SOL     OW  837   1.614   1.729   1.389
  183SOL    HW1  838   1.674   1.726   1.309
  183SOL    HW2  839   1.600   1.823   1.418
  184SOL     OW  840   1.853   0.142   0.961
  184SOL    HW1  841   1.881   0.064   0.905
  184SOL    HW2  842   1.762   0.173   0.931
  185SOL     OW  843   0.260   0.308   0.717
  185SOL    HW1  844   0.173   0.341   0.681
  185SOL    HW2  845   0.257   0.311   0.817
  186SOL     OW  846   1.237   1.609   0.048
  186SOL    HW1  847   1.209   1.515   0.068
  186SOL    HW2  848   1.188   1.642  -0.033
  187SOL     OW  849   0.827   1.014   1.381
  187SOL    HW1  850   0.876   0.999   1.296
  187SOL    HW2  851   0.817   1.112   1.398
  188SOL     OW  852   0.917   0.894   0.301
  188SOL    HW1  853   0.966   0.916   0.216
  188SOL    HW2  854   0.965   0.820   0.349
  189SOL     OW  855   1.502   1.655   0.055
  189SOL    HW1  856   1.405   1.630   0.046
  189SOL    HW2  857   1.540   1.672  -0.036
  190SOL     OW  858   0.389   1.306   1.483
  190SOL    HW1  859   0.373   1.391   1.433
  190SOL    HW2  860   0.312   1.243   1.467
  191SOL     OW  861   1.610   1.286   1.286
  191SOL    HW1  862   1.672   1.264   1.361
  191SOL    HW2  863   1.544   1.355   1.317
  192SOL     OW  864   1.066   1.109   0.720
  192SOL    HW1  865   0.990   1.058   0.759
  192SOL    HW2  866   1.138   1.046   0.691
  193SOL     OW  867   1.056   0.245   0.934
  193SOL    HW1  868   1.046   0.176   0.863
  193SOL    HW2  869   0.979   0.241   0.997
  194SOL     OW  870   0.616   1.485   0.476
  194SOL    HW1  871   0.669   1.430   0.411
  194SOL    HW2  872   0.538   1.527   0.428
  195SOL     OW  873   1.724   0.408   1.370
  195SOL    HW1  874   1.807   0.463   1.371
  195SOL    HW2  875   1.740   0.325   1.316
  196SOL     OW  876   0.263   1.337   0.289
  196SOL    HW1  877   0.172   1.322   0.251
  196SOL    HW2  878   0.255   1.379   0.380
  197SOL     OW  879   0.134   1.057   1.734
  197SOL    HW1  880   0.055   0.999   1.749
  197SOL    HW2  881   0.218   1.005   1.752
  198SOL     OW  882   0.679   0.247   1.505
  198SOL    HW1  883   0.748   0.188   1.462
  198SOL    HW2  884   0.703   0.260   1.601
  199SOL     OW  885   0.036   0.449   0.039
  199SOL    HW1  886  -0.036   0.382   0.057
  199SOL    HW2  887   0.126   0.404   0.044
  200SOL     OW  888   1.417   0.853   1.390
  200SOL    HW1  889   1.361   0.917   1.337
  200SOL    HW2  890   1.511   0.855   1.356
  201SOL     OW  891   0.109   0.197   0.317
  201SOL    HW1  892   0.125   0.273   0.380
  201SOL    HW2  893   0.184   0.131   0.326
  202SOL     OW  894   1.173   1.356   0.125
  202SOL    HW1  895   1.075   1.345   0.111
  202SOL    HW2  896   1.195   1.341   0.221
  203SOL     OW  897   0.639   0.824   1.430
  203SOL    HW1  898   0.694   0.907   1.418
  203SOL    HW2  899   0.700   0.746   1.443
  204SOL     OW  900   1.486   1.801   0.993
  204SOL    HW1  901   1.510   1.870   0.925
  204SOL    HW2  902   1.569   1.754   1.024
  205SOL     OW  903   0.718   0.557   1.707
  205SOL    HW1  904   0.766   0.622   1.765
  205SOL    HW2  905   0.732   0.464   1.741
  206SOL     OW  906   1.475   1.192   1.631
  206SOL    HW1  907   1.461   1.207   1.729
  206SOL    HW2  908   1.570   1.213   1.608
  207SOL     OW  909   0.368   1.750   1.565
  207SOL    HW1  910   0.281   1.797   1.549
  207SOL    HW2  911   0.351   1.664   1.613
  208SOL     OW  912   1.659   0.876   1.258
  208SOL    HW1  913   1.657   0.785   1.216
  208SOL    HW2  914   1.647   0.946   1.187
  209SOL     OW  915   1.219   0.312   0.475
  209SOL    HW1  916   1.295   0.249   0.453
  209SOL    HW2  917   1.247   0.371   0.550
  210SOL     OW  918   0.575   0.734   0.679
  210SOL    HW1  919   0.622   0.821   0.666
  210SOL    HW2  920   0.511   0.719   0.604
  211SOL     OW  921   1.751   0.382   1.640
  211SOL    HW1  922   1.733   0.391   1.542
  211SOL    HW2  923   1.683   0.322   1.681
  212SOL     OW  924   1.758   0.930   1.508
  212SOL    HW1  925   1.743   1.027   1.529
  212SOL    HW2  926   1.732   0.913   1.413
  213SOL     OW  927   0.907   1.388   0.056
  213SOL    HW1  928   0.848   1.368   0.134
  213SOL    HW2  929   0.887   1.480   0.022
  214SOL     OW  930   0.661   1.775   0.938
  214SOL    HW1  931   0.638   1.871   0.921
  214SOL    HW2  932   0.760   1.762   0.930
  215SOL     OW  933   0.871   0.972   0.855
  215SOL    HW1  934   0.924   0.895   0.891
  215SOL    HW2  935   0.825   1.018   0.930
  216SOL     OW  936   1.067   0.965   0.084
  216SOL    HW1  937   1.043   1.025   0.008
  216SOL    HW2  938   1.146   0.908   0.058
  217SOL     OW  939   1.839   1.557   0.846
  217SOL    HW1  940   1.761   1.545   0.785
  217SOL    HW2  941   1.837   1.486   0.917
  218SOL     OW  942   0.229   1.297   1.843
  218SOL    HW1  943   0.178   1.226   1.794
  218SOL    HW2  944   0.199   1.300   1.939
  219SOL     OW  945   0.099   1.255   0.686
  219SOL    HW1  946   0.025   1.225   0.745
  219SOL    HW2  947   0.144   1.175   0.644
  220SOL     OW  948   0.688   1.414   1.640
  220SOL    HW1  949   0.605   1.366   1.668
  220SOL    HW2  950   0.686   1.508   1.675
  221SOL     OW  951   1.781   0.182   1.227
  221SOL    HW1  952   1.798   0.100   1.282
  221SOL    HW2  953   1.816   0.168   1.135
  222SOL     OW  954   0.433   0.429   0.533
  222SOL    HW1  955   0.467   0.363   0.466
  222SOL    HW2  956   0.382   0.380   0.604
  223SOL     OW  957   1.688   1.479   1.094
  223SOL    HW1  958   1.610   1.463   1.033
  223SOL    HW2  959   1.691   1.408   1.164
  224SOL     OW  960   0.343   0.570   1.295
  224SOL    HW1  961   0.395   0.510   1.355
  224SOL    HW2  962   0.356   0.543   1.200
  225SOL     OW  963   0.833   1.582   0.680
  225SOL    HW1  964   0.813   1.643   0.604
  225SOL    HW2  965   0.758   1.517   0.691
  226SOL     OW  966   1.443   0.247   1.119
  226SOL    HW1  967   1.495   0.185   1.177
  226SOL    HW2  968   1.372   0.293   1.173
  227SOL     OW  969   1.022   0.006   1.160
  227SOL    HW1  970   0.966  -0.049   1.097
  227SOL    HW2  971   1.100   0.044   1.111
  228SOL     OW  972   0.781   1.327   0.313
  228SOL    HW1  973   0.750   1.233   0.326
  228SOL    HW2  974   0.874   1.336   0.349
  229SOL     OW  975   0.626   1.563   1.292
  229SOL    HW1  976   0.622   1.650   1.340
  229SOL    HW2  977   0.717   1.551   1.252
  230SOL     OW  978   1.357   0.102   0.142
  230SOL    HW1  979   1.411   0.019   0.130
  230SOL    HW2  980   1.261   0.078   0.155
  231SOL     OW  981   1.290   0.472   0.678
  231SOL    HW1  982   1.238   0.557   0.678
  231SOL    HW2  983   1.296   0.436   0.771
  232SOL     OW  984   1.606   0.228   0.893
  232SOL    HW1  985   1.546   0.238   0.973
  232SOL    HW2  986   1.604   0.312   0.839
  233SOL     OW  987   0.046   1.044   0.283
  233SOL    HW1  988   0.142   1.018   0.277
  233SOL    HW2  989   0.000   0.987   0.351
  234SOL     OW  990   0.884   1.671   0.343
  234SOL    HW1  991   0.803   1.643   0.291
  234SOL    HW2  992   0.860   1.747   0.404
  235SOL     OW  993   0.210   0.620   1.979
  235SOL    HW1  994   0.117   0.627   2.014
  235SOL    HW2  995   0.209   0.581   1.887
  236SOL     OW  996   0.210   0.311   2.857
  236SOL    HW1  997   0.251   0.251   2.925
  236SOL    HW2  998   0.114   0.285   2.843
  237SOL     OW  999   6.006   0.391   2.480
  237SOL    HW1 1000   5.932   0.405   2.545
  237SOL    HW2 1001   5.977   0.328   2.408
  238SOL     OW 1002   0.578   1.303   3.063
  238SOL    HW1 1003   0.487   1.298   3.022
  238SOL    HW2 1004   0.595   1.397   3.094
  239SOL     OW 1005   1.574   1.518   2.568
  239SOL    HW1 1006   1.529   1.490   2.653
  239SOL    HW2 1007   1.507   1.525   2.495
  240SOL     OW 1008   1.137   0.708   2.552
  240SOL    HW1 1009   1.188   0.793   2.537
  240SOL    HW2 1010   1.085   0.715   2.637
  241SOL     OW 1011   1.780   0.591   2.078
  241SOL    HW1 1012   1.751   0.593   1.983
  241SOL    HW2 1013   1.733   0.517   2.126
  242SOL     OW 1014   0.734   1.137   2.906
  242SOL    HW1 1015   0.672   1.174   2.975
  242SOL    HW2 1016   0.780   1.212   2.858
  243SOL     OW 1017   0.880   0.756   3.687
  243SOL    HW1 1018   0.869   0.823   3.761
  243SOL    HW2 1019   0.901   0.804   3.602
  244SOL     OW 1020   0.684   0.991   2.510
  244SOL    HW1 1021   0.757   0.984   2.578
  244SOL    HW2 1022   0.616   1.057   2.543
  245SOL     OW 1023   0.714   1.153   3.687
  245SOL    HW1 1024   0.767   1.230   3.723
  245SOL    HW2 1025   0.630   1.188   3.644
  246SOL     OW 1026   0.339   1.407   2.936
  246SOL    HW1 1027   0.257   1.366   2.897
  246SOL    HW2 1028   0.386   1.462   2.867
  247SOL     OW 1029   1.455   1.500   3.226
  247SOL    HW1 1030   1.514   1.580   3.233
  247SOL    HW2 1031   1.380   1.508   3.293
  248SOL     OW 1032   0.450   0.400   3.343
  248SOL    HW1 1033   0.535   0.348   3.351
  248SOL    HW2 1034   0.372   0.340   3.357
  249SOL     OW 1035   1.615   0.450   2.599
  249SOL    HW1 1036   1.542   0.466   2.533
  249SOL    HW2 1037   1.627   0.531   2.657
  250SOL     OW 1038   0.250   1.711   2.357
  250SOL    HW1 1039   0.265   1.793   2.412
  250SOL    HW2 1040   0.322   1.703   2.288
  251SOL     OW 1041   1.137   1.340   3.562
  251SOL    HW1 1042   1.181   1.337   3.651
  251SOL    HW2 1043   1.080   1.259   3.549
  252SOL     OW 1044   0.250   1.438   2.398
  252SOL    HW1 1045   0.230   1.536   2.404
  252SOL    HW2 1046   0.186   1.387   2.456
  253SOL     OW 1047   0.287   1.089   2.763
  253SOL    HW1 1048   0.285   1.000   2.809
  253SOL    HW2 1049   0.222   1.151   2.807
  254SOL     OW 1050   0.596   1.800   3.289
  254SOL    HW1 1051   0.511   1.777   3.336
  254SOL    HW2 1052   0.627   1.891   3.318
  255SOL     OW 1053   0.577   0.991   2.011
  255SOL    HW1 1054   0.624   1.036   1.934
  255SOL    HW2 1055   0.619   1.020   2.097
  256SOL     OW 1056   1.651   0.101   3.371
  256SOL    HW1 1057   1.574   0.120   3.311
  256SOL    HW2 1058   1.643   0.155   3.454
  257SOL     OW 1059   0.134   0.646   2.458
  257SOL    HW1 1060   0.088   0.559   2.440
  257SOL    HW2 1061   0.068   0.711   2.497
  258SOL     OW 1062   1.848   1.753   2.192
  258SOL    HW1 1063   1.922   1.725   2.253
  258SOL    HW2 1064   1.861   1.848   2.165
  259SOL     OW 1065   0.016   1.571   1.965
  259SOL    HW1 1066   0.012   1.473   1.983
  259SOL    HW2 1067   0.005   1.622   2.051
  260SOL     OW 1068   1.695   0.923   2.514
  260SOL    HW1 1069   1.779   0.871   2.498
  260SOL    HW2 1070   1.672   0.976   2.432
  261SOL     OW 1071   1.657   1.102   2.297
  261SOL    HW1 1072   1.745   1.096   2.252
  261SOL    HW2 1073   1.661   1.171   2.370
  262SOL     OW 1074   0.073   0.758   3.540
  262SOL    HW1 1075   0.131   0.785   3.616
  262SOL    HW2 1076   0.113   0.790   3.454
  263SOL     OW 1077   0.619   1.404   2.592
  263SOL    HW1 1078   0.578   1.313   2.604
  263SOL    HW2 1079   0.606   1.435   2.498
  264SOL     OW 1080   1.282   1.231   3.284
  264SOL    HW1 1081   1.307   1.160   3.217
  264SOL    HW2 1082   1.345   1.226   3.362
  265SOL     OW 1083   0.824   0.037   2.403
  265SOL    HW1 1084   0.866   0.121   2.369
  265SOL    HW2 1085   0.725   0.042   2.391
  266SOL     OW 1086   0.201   0.961   3.093
  266SOL    HW1 1087   0.294   0.931   3.071
  266SOL    HW2 1088   0.136   0.915   3.033
  267SOL     OW 1089   1.533   1.007   2.068
  267SOL    HW1 1090   1.460   0.945   2.096
  267SOL    HW2 1091   1.581   1.042   2.148
  268SOL     OW 1092   1.192   1.820   3.490
  268SOL    HW1 1093   1.189   1.888   3.416
  268SOL    HW2 1094   1.203   1.729   3.451
  269SOL     OW 1095   0.352   0.259   3.704
  269SOL    HW1 1096   0.404   0.341   3.727
  269SOL    HW2 1097   0.255   0.275   3.724
  270SOL     OW 1098   1.462   1.422   2.800
  270SOL    HW1 1099   1.399   1.441   2.875
  270SOL    HW2 1100   1.455   1.326   2.773
  271SOL     OW 1101   1.644   1.765   2.434
  271SOL    HW1 1102   1.626   1.732   2.341
  271SOL    HW2 1103   1.631   1.690   2.498
  272SOL     OW 1104   0.589   0.718   2.138
  272SOL    HW1 1105   0.597   0.805   2.091
  272SOL    HW2 1106   0.521   0.724   2.210
  273SOL     OW 1107   1.297   0.377   2.793
  273SOL    HW1 1108   1.205   0.337   2.791
  273SOL    HW2 1109   1.356   0.322   2.852
  274SOL     OW 1110   1.583   1.675   2.172
  274SOL    HW1 1111   1.681   1.697   2.167
  274SOL    HW2 1112   1.549   1.659   2.079
  275SOL     OW 1113   0.806   0.605   3.321
  275SOL    HW1 1114   0.774   0.583   3.413
  275SOL    HW2 1115   0.758   0.548   3.254
  276SOL     OW 1116   1.389   0.470   3.542
  276SOL    HW1 1117   1.388   0.521   3.628
  276SOL    HW2 1118   1.458   0.397   3.547
  277SOL     OW 1119   0.949   0.885   3.450
  277SOL    HW1 1120   1.009   0.817   3.408
  277SOL    HW2 1121   0.896   0.931   3.378
  278SOL     OW 1122   0.985   0.392   3.098
  278SOL    HW1 1123   0.917   0.441   3.153
  278SOL    HW2 1124   0.938   0.335   3.030
  279SOL     OW 1125   1.053   0.699   2.286
  279SOL    HW1 1126   1.077   0.696   2.383
  279SOL    HW2 1127   0.965   0.654   2.272
  280SOL     OW 1128   0.063   0.843   2.664
  280SOL    HW1 1129   0.137   0.798   2.714
  280SOL    HW2 1130   0.100   0.907   2.598
  281SOL     OW 1131   0.122   1.884   3.446
  281SOL    HW1 1132   0.127   1.849   3.540
  281SOL    HW2 1133   0.037   1.854   3.404
  282SOL     OW 1134   0.884   0.359   2.067
  282SOL    HW1 1135   0.934   0.416   2.002
  282SOL    HW2 1136   0.844   0.281   2.019
  283SOL     OW 1137   1.698   0.573   3.686
  283SOL    HW1 1138   1.665   0.654   3.640
  283SOL    HW2 1139   1.730   0.506   3.619
  284SOL     OW 1140   1.383   1.145   2.391
  284SOL    HW1 1141   1.468   1.129   2.340
  284SOL    HW2 1142   1.327   1.211   2.343
  285SOL     OW 1143   0.546   0.221   2.764
  285SOL    HW1 1144   0.545   0.239   2.863
  285SOL    HW2 1145   0.546   0.308   2.715
  286SOL     OW 1146   0.992   1.447   2.324
  286SOL    HW1 1147   0.963   1.527   2.271
  286SOL    HW2 1148   0.970   1.461   2.421
  287SOL     OW 1149   0.349   1.820   2.754
  287SOL    HW1 1150   0.397   1.733   2.753
  287SOL    HW2 1151   0.414   1.894   2.769
  288SOL     OW 1152   1.800   1.056   2.740
  288SOL    HW1 1153   1.752   1.032   2.656
  288SOL    HW2 1154   1.735   1.060   2.816
  289SOL     OW 1155   1.225   1.537   3.378
  289SOL    HW1 1156   1.212   1.463   3.444
  289SOL    HW2 1157   1.156   1.530   3.306
  290SOL     OW 1158   0.321   0.957   2.113
  290SOL    HW1 1159   0.408   0.982   2.072
  290SOL    HW2 1160   0.294   0.865   2.083
  291SOL     OW 1161   1.486   0.758   2.585
  291SOL    HW1 1162   1.481   0.715   2.675
  291SOL    HW2 1163   1.566   0.817   2.581
  292SOL     OW 1164   0.475   1.264   3.593
  292SOL    HW1 1165   0.453   1.272   3.496
  292SOL    HW2 1166   0.391   1.265   3.647
  293SOL     OW 1167   1.125   1.773   2.088
  293SOL    HW1 1168   1.042   1.739   2.133
  293SOL    HW2 1169   1.153   1.709   2.017
  294SOL     OW 1170   0.195   0.288   3.357
  294SOL    HW1 1171   0.133   0.363   3.332
  294SOL    HW2 1172   0.160   0.242   3.439
  295SOL     OW 1173   1.623   1.385   1.956
  295SOL    HW1 1174   1.586   1.476   1.938
  295SOL    HW2 1175   1.555   1.316   1.934
  296SOL     OW 1176   0.465   1.738   2.179
  296SOL    HW1 1177   0.511   1.801   2.242
  296SOL    HW2 1178   0.533   1.697   2.118
  297SOL     OW 1179   1.427   0.153   2.280
  297SOL    HW1 1180   1.397   0.111   2.194
  297SOL    HW2 1181   1.525   0.138   2.293
  298SOL     OW 1182   0.258   1.779   3.082
  298SOL    HW1 1183   0.303   1.703   3.130
  298SOL    HW2 1184   0.269   1.768   2.984
  299SOL     OW 1185   0.938   1.704   2.756
  299SOL    HW1 1186   1.023   1.659   2.784
  299SOL    HW2 1187   0.898   1.653   2.680
  300SOL     OW 1188   0.393   0.683   2.341
  300SOL    HW1 1189   0.419   0.587   2.350
  300SOL    HW2 1190   0.297   0.694   2.369
  301SOL     OW 1191   1.546   0.231   3.598
  301SOL    HW1 1192   1.539   0.261   3.693
  301SOL    HW2 1193   1.483   0.155   3.583
  302SOL     OW 1194   0.645   0.122   1.970
  302SOL    HW1 1195   0.719   0.060   1.996
  302SOL    HW2 1196   0.589   0.079   1.899
  303SOL     OW 1197   0.758   0.285   3.636
  303SOL    HW1 1198   0.845   0.236   3.636
  303SOL    HW2 1199   0.696   0.243   3.702
  304SOL     OW 1200   0.874   1.515   3.055
  304SOL    HW1 1201   0.854   1.477   2.965
  304SOL    HW2 1202   0.944   1.460   3.100
  305SOL     OW 1203   1.331   0.589   3.299
  305SOL    HW1 1204   1.364   0.555   3.387
  305SOL    HW2 1205   1.369   0.680   3.283
  306SOL     OW 1206   0.821   1.383   2.807
  306SOL    HW1 1207   0.912   1.374   2.767
  306SOL    HW2 1208   0.754   1.398   2.734
  307SOL     OW 1209   0.930   0.519   2.751
  307SOL    HW1 1210   0.902   0.506   2.656
  307SOL    HW2 1211   0.970   0.434   2.786
  308SOL     OW 1212   0.550   0.057   2.348
  308SOL    HW1 1213   0.472   0.047   2.410
  308SOL    HW2 1214   0.537   0.139   2.292
  309SOL     OW 1215   1.425   1.202   1.903
  309SOL    HW1 1216   1.459   1.125   1.958
  309SOL    HW2 1217   1.336   1.231   1.938
  310SOL     OW 1218   0.290   0.034   2.075
  310SOL    HW1 1219   0.334   0.109   2.025
  310SOL    HW2 1220   0.360  -0.032   2.103
  311SOL     OW 1221   0.954   0.264   2.316
  311SOL    HW1 1222   0.922   0.297   2.227
  311SOL    HW2 1223   1.052   0.277   2.324
  312SOL     OW 1224   1.076   0.692   3.311
  312SOL    HW1 1225   1.000   0.629   3.325
  312SOL    HW2 1226   1.162   0.641   3.313
  313SOL     OW 1227   1.213   1.575   2.659
  313SOL    HW1 1228   1.227   1.643   2.587
  313SOL    HW2 1229   1.292   1.574   2.720
  314SOL     OW 1230   0.485   1.167   2.586
  314SOL    HW1 1231   0.416   1.147   2.655
  314SOL    HW2 1232   0.444   1.164   2.495
  315SOL     OW 1233   1.258   1.791   2.476
  315SOL    HW1 1234   1.311   1.852   2.418
  315SOL    HW2 1235   1.182   1.841   2.517
  316SOL     OW 1236   1.021   0.530   1.898
  316SOL    HW1 1237   0.977   0.616   1.873
  316SOL    HW2 1238   1.088   0.546   1.970
  317SOL     OW 1239   0.094   0.541   3.266
  317SOL    HW1 1240   0.186   0.551   3.225
  317SOL    HW2 1241   0.067   0.627   3.308
  318SOL     OW 1242   0.560   0.241   3.046
  318SOL    HW1 1243   0.599   0.163   3.095
  318SOL    HW2 1244   0.462   0.247   3.065
  319SOL     OW 1245   0.866   0.463   2.494
  319SOL    HW1 1246   0.819   0.523   2.429
  319SOL    HW2 1247   0.897   0.381   2.447
  320SOL     OW 1248   0.984   0.043   2.632
  320SOL    HW1 1249   0.926   0.038   2.551
  320SOL    HW2 1250   0.986  -0.047   2.677
  321SOL     OW 1251   1.450   1.160   2.719
  321SOL    HW1 1252   1.372   1.097   2.719
  321SOL    HW2 1253   1.485   1.169   2.626
  322SOL     OW 1254   1.466   0.615   2.826
  322SOL    HW1 1255   1.404   0.537   2.821
  322SOL    HW2 1256   1.525   0.606   2.906
  323SOL     OW 1257   1.833   0.802   2.242
  323SOL    HW1 1258   1.895   0.758   2.308
  323SOL    HW2 1259   1.811   0.737   2.169
  324SOL     OW 1260   0.483   1.425   2.016
  324SOL    HW1 1261   0.401   1.397   2.065
  324SOL    HW2 1262   0.478   1.392   1.922
  325SOL     OW 1263   1.682   1.267   2.507
  325SOL    HW1 1264   1.781   1.262   2.517
  325SOL    HW2 1265   1.651   1.361   2.523
  326SOL     OW 1266   1.384   0.580   1.931
  326SOL    HW1 1267   1.319   0.557   2.004
  326SOL    HW2 1268   1.472   0.536   1.950
  327SOL     OW 1269   0.522   0.266   2.168
  327SOL    HW1 1270   0.573   0.213   2.101
  327SOL    HW2 1271   0.492   0.352   2.127
  328SOL     OW 1272   1.749   1.242   3.411
  328SOL    HW1 1273   1.838   1.200   3.394
  328SOL    HW2 1274   1.761   1.334   3.447
  329SOL     OW 1275   1.047   1.350   3.200
  329SOL    HW1 1276   0.965   1.320   3.248
  329SOL    HW2 1277   1.128   1.308   3.242
  330SOL     OW 1278   1.622   1.644   3.527
  330SOL    HW1 1279   1.598   1.673   3.435
  330SOL    HW2 1280   1.702   1.584   3.524
  331SOL     OW 1281   1.145   1.232   2.967
  331SOL    HW1 1282   1.082   1.264   3.039
  331SOL    HW2 1283   1.111   1.261   2.878
  332SOL     OW 1284   1.619   1.093   2.942
  332SOL    HW1 1285   1.613   1.159   3.017
  332SOL    HW2 1286   1.546   1.112   2.876
  333SOL     OW 1287   0.897   0.106   3.255
  333SOL    HW1 1288   0.923   0.064   3.167
  333SOL    HW2 1289   0.978   0.144   3.298
  334SOL     OW 1290   0.977   1.117   3.583
  334SOL    HW1 1291   0.883   1.135   3.613
  334SOL    HW2 1292   0.979   1.032   3.529
  335SOL     OW 1293   0.718   1.059   2.236
  335SOL    HW1 1294   0.698   1.038   2.332
  335SOL    HW2 1295   0.796   1.005   2.206
  336SOL     OW 1296   0.441   0.822   3.107
  336SOL    HW1 1297   0.513   0.834   3.176
  336SOL    HW2 1298   0.396   0.734   3.121
  337SOL     OW 1299   1.257   0.381   3.139
  337SOL    HW1 1300   1.287   0.464   3.188
  337SOL    HW2 1301   1.164   0.393   3.107
  338SOL     OW 1302   0.066   1.596   3.204
  338SOL    HW1 1303   0.092   1.664   3.135
  338SOL    HW2 1304   0.149   1.560   3.247
  339SOL     OW 1305   0.392   1.140   2.324
  339SOL    HW1 1306   0.368   1.226   2.279
  339SOL    HW2 1307   0.370   1.063   2.264
  340SOL     OW 1308   0.559   0.521   2.719
  340SOL    HW1 1309   0.562   0.582   2.640
  340SOL    HW2 1310   0.627   0.550   2.787
  341SOL     OW 1311   1.244   1.356   2.256
  341SOL    HW1 1312   1.306   1.428   2.288
  341SOL    HW2 1313   1.151   1.377   2.286
  342SOL     OW 1314   1.296   1.465   3.008
  342SOL    HW1 1315   1.351   1.469   3.091
  342SOL    HW2 1316   1.242   1.380   3.008
  343SOL     OW 1317   1.573   0.626   2.352
  343SOL    HW1 1318   1.522   0.673   2.424
  343SOL    HW2 1319   1.623   0.694   2.298
  344SOL     OW 1320   0.353   1.532   3.175
  344SOL    HW1 1321   0.334   1.479   3.092
  344SOL    HW2 1322   0.452   1.546   3.183
  345SOL     OW 1323   0.443   0.728   3.454
  345SOL    HW1 1324   0.513   0.774   3.400
  345SOL    HW2 1325   0.472   0.636   3.477
  346SOL     OW 1326   1.615   0.791   3.551
  346SOL    HW1 1327   1.524   0.831   3.546
  346SOL    HW2 1328   1.672   0.827   3.478
  347SOL     OW 1329   0.989   0.138   3.646
  347SOL    HW1 1330   1.054   0.210   3.621
  347SOL    HW2 1331   0.980   0.074   3.570
  348SOL     OW 1332   0.482   0.036   3.631
  348SOL    HW1 1333   0.487   0.016   3.533
  348SOL    HW2 1334   0.431   0.121   3.645
  349SOL     OW 1335   0.601   0.878   2.890
  349SOL    HW1 1336   0.637   0.972   2.891
  349SOL    HW2 1337   0.540   0.865   2.968
  350SOL     OW 1338   1.337   0.856   2.881
  350SOL    HW1 1339   1.245   0.843   2.843
  350SOL    HW2 1340   1.390   0.773   2.869
  351SOL     OW 1341   1.191   0.527   2.123
  351SOL    HW1 1342   1.207   0.445   2.178
  351SOL    HW2 1343   1.149   0.597   2.180
  352SOL     OW 1344   0.297   0.212   3.114
  352SOL    HW1 1345   0.258   0.235   3.203
  352SOL    HW2 1346   0.305   0.113   3.106
  353SOL     OW 1347   0.063   1.323   3.125
  353SOL    HW1 1348   0.092   1.269   3.203
  353SOL    HW2 1349   0.043   1.417   3.154
  354SOL     OW 1350   0.725   0.630   2.906
  354SOL    HW1 1351   0.804   0.609   2.848
  354SOL    HW2 1352   0.694   0.723   2.886
  355SOL     OW 1353   1.739   0.966   3.723
  355SOL    HW1 1354   1.701   0.894   3.666
  355SOL    HW2 1355   1.678   0.984   3.801
  356SOL     OW 1356   0.316   0.048   2.507
  356SOL    HW1 1357   0.306   0.143   2.535
  356SOL    HW2 1358   0.228   0.002   2.510
  357SOL     OW 1359   1.621   0.399   2.211
  357SOL    HW1 1360   1.637   0.320   2.270
  357SOL    HW2 1361   1.592   0.477   2.267
  358SOL     OW 1362   1.029   0.762   2.818
  358SOL    HW1 1363   1.017   0.781   2.915
  358SOL    HW2 1364   0.999   0.668   2.799
  359SOL     OW 1365   0.988   1.569   3.584
  359SOL    HW1 1366   0.965   1.613   3.497
  359SOL    HW2 1367   1.030   1.480   3.566
  360SOL     OW 1368   1.850   1.501   3.464
  360SOL    HW1 1369   1.869   1.527   3.369
  360SOL    HW2 1370   1.935   1.501   3.515
  361SOL     OW 1371   0.348   0.898   3.650
  361SOL    HW1 1372   0.423   0.928   3.709
  361SOL    HW2 1373   0.384   0.836   3.580
  362SOL     OW 1374   1.484   0.305   1.986
  362SOL    HW1 1375   1.423   0.230   2.013
  362SOL    HW2 1376   1.535   0.337   2.066
  363SOL     OW 1377   1.287   0.829   1.885
  363SOL    HW1 1378   1.327   0.738   1.895
  363SOL    HW2 1379   1.319   0.870   1.799
  364SOL     OW 1380   1.073   1.342   2.721
  364SOL    HW1 1381   1.079   1.264   2.659
  364SOL    HW2 1382   1.127   1.418   2.684
  365SOL     OW 1383   0.321   0.811   2.813
  365SOL    HW1 1384   0.416   0.833   2.790
  365SOL    HW2 1385   0.317   0.720   2.854
  366SOL     OW 1386   0.351   0.533   2.885
  366SOL    HW1 1387   0.301   0.447   2.882
  366SOL    HW2 1388   0.430   0.529   2.823
  367SOL     OW 1389   1.133   0.369   3.567
  367SOL    HW1 1390   1.082   0.426   3.631
  367SOL    HW2 1391   1.226   0.406   3.556
  368SOL     OW 1392   1.134   0.211   3.348
  368SOL    HW1 1393   1.128   0.272   3.426
  368SOL    HW2 1394   1.148   0.265   3.265
  369SOL     OW 1395   5.984   1.310   2.061
  369SOL    HW1 1396   5.888   1.332   2.079
  369SOL    HW2 1397   6.002   1.215   2.085
  370SOL     OW 1398   0.067   1.820   2.731
  370SOL    HW1 1399   0.055   1.722   2.743
  370SOL    HW2 1400   0.163   1.845   2.744
  371SOL     OW 1401   0.482   1.576   2.763
  371SOL    HW1 1402   0.553   1.640   2.794
  371SOL    HW2 1403   0.522   1.511   2.699
  372SOL     OW 1404   0.965   0.793   3.081
  372SOL    HW1 1405   1.023   0.771   3.159
  372SOL    HW2 1406   0.876   0.748   3.091
  373SOL     OW 1407  -0.010   0.604   2.992
  373SOL    HW1 1408   0.021   0.564   2.906
  373SOL    HW2 1409   0.029   0.553   3.068
  374SOL     OW 1410   0.178   0.511   3.588
  374SOL    HW1 1411   0.244   0.486   3.518
  374SOL    HW2 1412   0.124   0.590   3.558
  375SOL     OW 1413   1.384   0.932   3.512
  375SOL    HW1 1414   1.406   1.029   3.512
  375SOL    HW2 1415   1.379   0.898   3.418
  376SOL     OW 1416   0.815   0.578   2.230
  376SOL    HW1 1417   0.827   0.497   2.172
  376SOL    HW2 1418   0.737   0.631   2.197
  377SOL     OW 1419   1.639   0.605   3.039
  377SOL    HW1 1420   1.627   0.544   3.118
  377SOL    HW2 1421   1.730   0.591   3.000
  378SOL     OW 1422   0.289   1.552   3.595
  378SOL    HW1 1423   0.231   1.619   3.640
  378SOL    HW2 1424   0.264   1.460   3.626
  379SOL     OW 1425   0.696   0.472   3.121
  379SOL    HW1 1426   0.634   0.394   3.108
  379SOL    HW2 1427   0.697   0.528   3.038
  380SOL     OW 1428   0.918   1.682   3.339
  380SOL    HW1 1429   0.891   1.629   3.258
  380SOL    HW2 1430   0.915   1.779   3.317
  381SOL     OW 1431   0.452   0.497   2.038
  381SOL    HW1 1432   0.518   0.567   2.065
  381SOL    HW2 1433   0.362   0.538   2.027
  382SOL     OW 1434   0.179   1.145   3.304
  382SOL    HW1 1435   0.139   1.111   3.389
  382SOL    HW2 1436   0.172   1.075   3.233
  383SOL     OW 1437   1.309   1.042   3.077
  383SOL    HW1 1438   1.332   0.973   3.008
  383SOL    HW2 1439   1.247   1.110   3.037
  384SOL     OW 1440   1.319   0.858   2.157
  384SOL    HW1 1441   1.244   0.828   2.215
  384SOL    HW2 1442   1.294   0.846   2.061
  385SOL     OW 1443   1.789   1.714   3.027
  385SOL    HW1 1444   1.847   1.751   2.955
  385SOL    HW2 1445   1.752   1.626   2.998
  386SOL     OW 1446   1.242   1.735   2.967
  386SOL    HW1 1447   1.328   1.766   2.926
  386SOL    HW2 1448   1.249   1.637   2.988
  387SOL     OW 1449   0.099   1.258   2.869
  387SOL    HW1 1450   0.084   1.280   2.966
  387SOL    HW2 1451   0.021   1.205   2.835
  388SOL     OW 1452   0.684   1.680   3.606
  388SOL    HW1 1453   0.614   1.751   3.597
  388SOL    HW2 1454   0.756   1.696   3.538
  389SOL     OW 1455   1.700   0.139   2.319
  389SOL    HW1 1456   1.799   0.134   2.301
  389SOL    HW2 1457   1.679   0.092   2.404
  390SOL     OW 1458   1.399   1.571   2.354
  390SOL    HW1 1459   1.459   1.603   2.281
  390SOL    HW2 1460   1.341   1.646   2.385
  391SOL     OW 1461   0.141   1.770   3.693
  391SOL    HW1 1462   0.080   1.701   3.732
  391SOL    HW2 1463   0.189   1.818   3.767
  392SOL     OW 1464   1.285   0.934   2.528
  392SOL    HW1 1465   1.359   0.870   2.546
  392SOL    HW2 1466   1.318   1.009   2.471
  393SOL     OW 1467   0.791   1.282   3.283
  393SOL    HW1 1468   0.765   1.328   3.368
  393SOL    HW2 1469   0.717   1.290   3.217
  394SOL     OW 1470   0.667   1.624   2.018
  394SOL    HW1 1471   0.684   1.644   1.921
  394SOL    HW2 1472   0.608   1.544   2.025
  395SOL     OW 1473   1.616   1.722   3.251
  395SOL    HW1 1474   1.676   1.720   3.171
  395SOL    HW2 1475   1.598   1.817   3.276
  396SOL     OW 1476   1.853   0.142   2.824
  396SOL    HW1 1477   1.881   0.062   2.770
  396SOL    HW2 1478   1.762   0.172   2.794
  397SOL     OW 1479   0.262   0.310   2.577
  397SOL    HW1 1480   0.176   0.342   2.539
  397SOL    HW2 1481   0.256   0.312   2.677
  398SOL     OW 1482   1.209   1.597   1.896
  398SOL    HW1 1483   1.200   1.503   1.929
  398SOL    HW2 1484   1.141   1.614   1.825
  399SOL     OW 1485   0.826   1.014   3.244
  399SOL    HW1 1486   0.875   0.998   3.158
  399SOL    HW2 1487   0.817   1.112   3.259
  400SOL     OW 1488   0.923   0.910   2.151
  400SOL    HW1 1489   0.982   0.946   2.079
  400SOL    HW2 1490   0.972   0.839   2.202
  401SOL     OW 1491   1.487   1.637   1.907
  401SOL    HW1 1492   1.389   1.621   1.894
  401SOL    HW2 1493   1.532   1.641   1.818
  402SOL     OW 1494   0.389   1.307   3.345
  402SOL    HW1 1495   0.372   1.392   3.294
  402SOL    HW2 1496   0.313   1.244   3.329
  403SOL     OW 1497   1.609   1.284   3.148
  403SOL    HW1 1498   1.671   1.261   3.223
  403SOL    HW2 1499   1.543   1.352   3.178
  404SOL     OW 1500   1.071   1.110   2.585
  404SOL    HW1 1501   0.992   1.060   2.621
  404SOL    HW2 1502   1.140   1.045   2.552
  405SOL     OW 1503   1.057   0.246   2.797
  405SOL    HW1 1504   1.047   0.177   2.725
  405SOL    HW2 1505   0.979   0.241   2.859
  406SOL     OW 1506   0.608   1.490   2.338
  406SOL    HW1 1507   0.662   1.434   2.275
  406SOL    HW2 1508   0.526   1.523   2.290
  407SOL     OW 1509   1.724   0.408   3.232
  407SOL    HW1 1510   1.808   0.463   3.233
  407SOL    HW2 1511   1.740   0.325   3.178
  408SOL     OW 1512   0.252   1.347   2.150
  408SOL    HW1 1513   0.156   1.336   2.124
  408SOL    HW2 1514   0.258   1.386   2.242
  409SOL     OW 1515   0.135   1.058   3.595
  409SOL    HW1 1516   0.055   1.001   3.614
  409SOL    HW2 1517   0.218   1.006   3.613
  410SOL     OW 1518   0.679   0.247   3.367
  410SOL    HW1 1519   0.748   0.188   3.324
  410SOL    HW2 1520   0.703   0.260   3.464
  411SOL     OW 1521   0.094   0.311   1.899
  411SOL    HW1 1522  -0.002   0.292   1.921
  411SOL    HW2 1523   0.099   0.392   1.841
  412SOL     OW 1524   1.417   0.854   3.252
  412SOL    HW1 1525   1.361   0.917   3.199
  412SOL    HW2 1526   1.511   0.855   3.217
  413SOL     OW 1527   0.068   0.165   2.187
  413SOL    HW1 1528   0.061   0.246   2.130
  413SOL    HW2 1529   0.153   0.117   2.167
  414SOL     OW 1530   1.178   1.334   1.983
  414SOL    HW1 1531   1.081   1.310   1.975
  414SOL    HW2 1532   1.204   1.334   2.080
  415SOL     OW 1533   0.639   0.824   3.292
  415SOL    HW1 1534   0.694   0.907   3.281
  415SOL    HW2 1535   0.700   0.745   3.305
  416SOL     OW 1536   1.486   1.805   2.860
  416SOL    HW1 1537   1.509   1.865   2.784
  416SOL    HW2 1538   1.568   1.754   2.888
  417SOL     OW 1539   0.719   0.556   3.569
  417SOL    HW1 1540   0.767   0.621   3.628
  417SOL    HW2 1541   0.732   0.463   3.603
  418SOL     OW 1542   1.475   1.192   3.495
  418SOL    HW1 1543   1.461   1.207   3.593
  418SOL    HW2 1544   1.570   1.212   3.471
  419SOL     OW 1545   0.369   1.750   3.428
  419SOL    HW1 1546   0.282   1.796   3.411
  419SOL    HW2 1547   0.352   1.664   3.476
  420SOL     OW 1548   1.659   0.875   3.120
  420SOL    HW1 1549   1.657   0.784   3.079
  420SOL    HW2 1550   1.648   0.944   3.048
  421SOL     OW 1551   1.223   0.324   2.323
  421SOL    HW1 1552   1.297   0.258   2.307
  421SOL    HW2 1553   1.246   0.382   2.400
  422SOL     OW 1554   0.574   0.735   2.542
  422SOL    HW1 1555   0.622   0.822   2.528
  422SOL    HW2 1556   0.512   0.718   2.466
  423SOL     OW 1557   1.752   0.381   3.502
  423SOL    HW1 1558   1.733   0.391   3.404
  423SOL    HW2 1559   1.683   0.322   3.543
  424SOL     OW 1560   1.760   0.930   3.369
  424SOL    HW1 1561   1.743   1.026   3.391
  424SOL    HW2 1562   1.733   0.911   3.275
  425SOL     OW 1563   0.876   1.361   1.917
  425SOL    HW1 1564   0.829   1.382   2.003
  425SOL    HW2 1565   0.883   1.443   1.861
  426SOL     OW 1566   0.663   1.775   2.803
  426SOL    HW1 1567   0.639   1.870   2.784
  426SOL    HW2 1568   0.761   1.762   2.791
  427SOL     OW 1569   0.872   0.974   2.716
  427SOL    HW1 1570   0.924   0.896   2.752
  427SOL    HW2 1571   0.825   1.019   2.792
  428SOL     OW 1572   1.074   0.988   1.945
  428SOL    HW1 1573   1.047   1.045   1.867
  428SOL    HW2 1574   1.153   0.932   1.919
  429SOL     OW 1575   1.837   1.558   2.709
  429SOL    HW1 1576   1.759   1.545   2.647
  429SOL    HW2 1577   1.842   1.481   2.773
  430SOL     OW 1578   0.230   1.297   3.705
  430SOL    HW1 1579   0.179   1.226   3.656
  430SOL    HW2 1580   0.200   1.299   3.801
  431SOL     OW 1581   0.103   1.255   2.547
  431SOL    HW1 1582   0.031   1.224   2.608
  431SOL    HW2 1583   0.147   1.177   2.503
  432SOL     OW 1584   0.689   1.415   3.502
  432SOL    HW1 1585   0.607   1.365   3.530
  432SOL    HW2 1586   0.685   1.508   3.538
  433SOL     OW 1587   1.783   0.182   3.090
  433SOL    HW1 1588   1.797   0.099   3.144
  433SOL    HW2 1589   1.817   0.168   2.997
  434SOL     OW 1590   0.437   0.424   2.388
  434SOL    HW1 1591   0.471   0.356   2.322
  434SOL    HW2 1592   0.383   0.378   2.459
  435SOL     OW 1593   1.684   1.477   2.957
  435SOL    HW1 1594   1.608   1.461   2.894
  435SOL    HW2 1595   1.686   1.405   3.026
  436SOL     OW 1596   0.343   0.571   3.158
  436SOL    HW1 1597   0.395   0.510   3.218
  436SOL    HW2 1598   0.355   0.543   3.063
  437SOL     OW 1599   0.833   1.583   2.538
  437SOL    HW1 1600   0.813   1.646   2.463
  437SOL    HW2 1601   0.757   1.519   2.549
  438SOL     OW 1602   1.442   0.247   2.981
  438SOL    HW1 1603   1.493   0.184   3.039
  438SOL    HW2 1604   1.372   0.293   3.034
  439SOL     OW 1605   1.022   0.006   3.022
  439SOL    HW1 1606   0.966  -0.048   2.960
  439SOL    HW2 1607   1.100   0.044   2.972
  440SOL     OW 1608   0.775   1.331   2.187
  440SOL    HW1 1609   0.749   1.235   2.197
  440SOL    HW2 1610   0.861   1.347   2.236
  441SOL     OW 1611   0.626   1.563   3.154
  441SOL    HW1 1612   0.622   1.650   3.203
  441SOL    HW2 1613   0.717   1.552   3.114
  442SOL     OW 1614   1.347   0.064   2.037
  442SOL    HW1 1615   1.404  -0.014   2.010
  442SOL    HW2 1616   1.253   0.033   2.052
  443SOL     OW 1617   1.291   0.474   2.538
  443SOL    HW1 1618   1.238   0.558   2.538
  443SOL    HW2 1619   1.296   0.437   2.631
  444SOL     OW 1620   1.606   0.226   2.755
  444SOL    HW1 1621   1.546   0.236   2.835
  444SOL    HW2 1622   1.604   0.311   2.701
  445SOL     OW 1623   0.060   1.060   2.138
  445SOL    HW1 1624   0.157   1.036   2.124
  445SOL    HW2 1625   0.019   0.995   2.202
  446SOL     OW 1626   0.885   1.669   2.199
  446SOL    HW1 1627   0.809   1.648   2.139
  446SOL    HW2 1628   0.861   1.746   2.258
  447SOL     OW 1629   0.211   0.621   3.841
  447SOL    HW1 1630   0.118   0.628   3.877
  447SOL    HW2 1631   0.208   0.582   3.749
  448SOL     OW 1632   0.212   0.309   4.722
  448SOL    HW1 1633   0.250   0.256   4.798
  448SOL    HW2 1634   0.118   0.281   4.705
  449SOL     OW 1635   6.008   0.393   4.342
  449SOL    HW1 1636   5.937   0.407   4.412
  449SOL    HW2 1637   5.974   0.329   4.273
  450SOL     OW 1638   0.578   1.303   4.926
  450SOL    HW1 1639   0.487   1.297   4.884
  450SOL    HW2 1640   0.595   1.397   4.957
  451SOL     OW 1641   1.569   1.512   4.433
  451SOL    HW1 1642   1.528   1.486   4.520
  451SOL    HW2 1643   1.498   1.516   4.363
  452SOL     OW 1644   1.136   0.707   4.413
  452SOL    HW1 1645   1.187   0.792   4.399
  452SOL    HW2 1646   1.085   0.713   4.499
  453SOL     OW 1647   1.781   0.591   3.940
  453SOL    HW1 1648   1.751   0.592   3.845
  453SOL    HW2 1649   1.733   0.518   3.989
  454SOL     OW 1650   0.733   1.137   4.767
  454SOL    HW1 1651   0.671   1.173   4.836
  454SOL    HW2 1652   0.780   1.212   4.721
  455SOL     OW 1653   0.878   0.759   5.553
  455SOL    HW1 1654   0.859   0.820   5.629
  455SOL    HW2 1655   0.899   0.812   5.471
  456SOL     OW 1656   0.684   0.992   4.372
  456SOL    HW1 1657   0.757   0.984   4.440
  456SOL    HW2 1658   0.615   1.057   4.405
  457SOL     OW 1659   0.713   1.164   5.547
  457SOL    HW1 1660   0.765   1.243   5.581
  457SOL    HW2 1661   0.628   1.196   5.505
  458SOL     OW 1662   0.340   1.407   4.797
  458SOL    HW1 1663   0.258   1.366   4.758
  458SOL    HW2 1664   0.386   1.462   4.728
  459SOL     OW 1665   1.456   1.505   5.086
  459SOL    HW1 1666   1.514   1.585   5.094
  459SOL    HW2 1667   1.383   1.510   5.154
  460SOL     OW 1668   0.450   0.401   5.206
  460SOL    HW1 1669   0.534   0.346   5.212
  460SOL    HW2 1670   0.371   0.341   5.220
  461SOL     OW 1671   1.615   0.450   4.462
  461SOL    HW1 1672   1.541   0.466   4.396
  461SOL    HW2 1673   1.623   0.529   4.522
  462SOL     OW 1674   0.249   1.712   4.218
  462SOL    HW1 1675   0.264   1.793   4.275
  462SOL    HW2 1676   0.322   1.705   4.150
  463SOL     OW 1677   1.138   1.336   5.420
  463SOL    HW1 1678   1.189   1.335   5.506
  463SOL    HW2 1679   1.083   1.254   5.413
  464SOL     OW 1680   0.252   1.439   4.260
  464SOL    HW1 1681   0.230   1.536   4.267
  464SOL    HW2 1682   0.189   1.386   4.317
  465SOL     OW 1683   0.283   1.090   4.629
  465SOL    HW1 1684   0.282   1.006   4.683
  465SOL    HW2 1685   0.220   1.156   4.668
  466SOL     OW 1686   0.593   1.799   5.147
  466SOL    HW1 1687   0.508   1.776   5.195
  466SOL    HW2 1688   0.625   1.889   5.179
  467SOL     OW 1689   0.577   0.991   3.873
  467SOL    HW1 1690   0.624   1.035   3.796
  467SOL    HW2 1691   0.619   1.020   3.959
  468SOL     OW 1692   1.650   0.097   5.231
  468SOL    HW1 1693   1.574   0.118   5.169
  468SOL    HW2 1694   1.639   0.149   5.316
  469SOL     OW 1695   0.134   0.649   4.317
  469SOL    HW1 1696   0.087   0.561   4.303
  469SOL    HW2 1697   0.073   0.712   4.364
  470SOL     OW 1698   1.847   1.746   4.066
  470SOL    HW1 1699   1.904   1.684   4.120
  470SOL    HW2 1700   1.852   1.838   4.106
  471SOL     OW 1701   0.015   1.571   3.826
  471SOL    HW1 1702   0.012   1.472   3.844
  471SOL    HW2 1703   0.004   1.621   3.912
  472SOL     OW 1704   1.695   0.923   4.377
  472SOL    HW1 1705   1.780   0.872   4.364
  472SOL    HW2 1706   1.673   0.974   4.294
  473SOL     OW 1707   1.658   1.101   4.157
  473SOL    HW1 1708   1.748   1.093   4.112
  473SOL    HW2 1709   1.663   1.170   4.229
  474SOL     OW 1710   0.075   0.760   5.394
  474SOL    HW1 1711   0.136   0.787   5.468
  474SOL    HW2 1712   0.112   0.792   5.307
  475SOL     OW 1713   0.621   1.403   4.454
  475SOL    HW1 1714   0.579   1.313   4.466
  475SOL    HW2 1715   0.608   1.434   4.360
  476SOL     OW 1716   1.283   1.231   5.144
  476SOL    HW1 1717   1.309   1.160   5.078
  476SOL    HW2 1718   1.345   1.228   5.222
  477SOL     OW 1719   0.824   0.036   4.264
  477SOL    HW1 1720   0.866   0.121   4.231
  477SOL    HW2 1721   0.725   0.042   4.253
  478SOL     OW 1722   0.204   0.971   4.908
  478SOL    HW1 1723   0.295   0.934   4.927
  478SOL    HW2 1724   0.136   0.898   4.920
  479SOL     OW 1725   1.534   1.007   3.929
  479SOL    HW1 1726   1.460   0.946   3.957
  479SOL    HW2 1727   1.582   1.040   4.010
  480SOL     OW 1728   1.173   1.815   5.346
  480SOL    HW1 1729   1.185   1.886   5.276
  480SOL    HW2 1730   1.199   1.726   5.308
  481SOL     OW 1731   0.358   0.265   5.550
  481SOL    HW1 1732   0.418   0.341   5.573
  481SOL    HW2 1733   0.266   0.283   5.584
  482SOL     OW 1734   1.466   1.418   4.668
  482SOL    HW1 1735   1.401   1.438   4.740
  482SOL    HW2 1736   1.456   1.322   4.640
  483SOL     OW 1737   1.630   1.749   4.291
  483SOL    HW1 1738   1.612   1.713   4.199
  483SOL    HW2 1739   1.621   1.675   4.358
  484SOL     OW 1740   0.589   0.717   4.000
  484SOL    HW1 1741   0.596   0.805   3.953
  484SOL    HW2 1742   0.520   0.723   4.073
  485SOL     OW 1743   1.297   0.376   4.654
  485SOL    HW1 1744   1.205   0.336   4.653
  485SOL    HW2 1745   1.356   0.322   4.713
  486SOL     OW 1746   1.575   1.683   4.028
  486SOL    HW1 1747   1.674   1.697   4.025
  486SOL    HW2 1748   1.541   1.663   3.936
  487SOL     OW 1749   0.808   0.607   5.180
  487SOL    HW1 1750   0.774   0.588   5.272
  487SOL    HW2 1751   0.758   0.549   5.114
  488SOL     OW 1752   1.390   0.468   5.398
  488SOL    HW1 1753   1.395   0.524   5.481
  488SOL    HW2 1754   1.457   0.394   5.404
  489SOL     OW 1755   0.949   0.888   5.315
  489SOL    HW1 1756   1.009   0.819   5.274
  489SOL    HW2 1757   0.897   0.933   5.243
  490SOL     OW 1758   0.985   0.392   4.959
  490SOL    HW1 1759   0.919   0.443   5.015
  490SOL    HW2 1760   0.936   0.336   4.892
  491SOL     OW 1761   1.052   0.700   4.148
  491SOL    HW1 1762   1.076   0.697   4.245
  491SOL    HW2 1763   0.964   0.655   4.133
  492SOL     OW 1764   0.068   0.839   4.526
  492SOL    HW1 1765   0.146   0.806   4.579
  492SOL    HW2 1766   0.099   0.908   4.460
  493SOL     OW 1767   0.122   1.883   5.308
  493SOL    HW1 1768   0.130   1.851   5.402
  493SOL    HW2 1769   0.035   1.853   5.269
  494SOL     OW 1770   0.883   0.358   3.928
  494SOL    HW1 1771   0.933   0.415   3.863
  494SOL    HW2 1772   0.843   0.280   3.881
  495SOL     OW 1773   1.692   0.561   5.554
  495SOL    HW1 1774   1.662   0.646   5.511
  495SOL    HW2 1775   1.725   0.498   5.483
  496SOL     OW 1776   1.386   1.146   4.257
  496SOL    HW1 1777   1.469   1.129   4.205
  496SOL    HW2 1778   1.327   1.210   4.208
  497SOL     OW 1779   0.548   0.221   4.626
  497SOL    HW1 1780   0.545   0.237   4.725
  497SOL    HW2 1781   0.546   0.309   4.579
  498SOL     OW 1782   0.991   1.448   4.186
  498SOL    HW1 1783   0.964   1.529   4.133
  498SOL    HW2 1784   0.969   1.461   4.282
  499SOL     OW 1785   0.348   1.820   4.615
  499SOL    HW1 1786   0.397   1.732   4.614
  499SOL    HW2 1787   0.413   1.894   4.632
  500SOL     OW 1788   1.799   1.058   4.601
  500SOL    HW1 1789   1.750   1.032   4.518
  500SOL    HW2 1790   1.736   1.063   4.678
  501SOL     OW 1791   1.224   1.537   5.238
  501SOL    HW1 1792   1.215   1.461   5.302
  501SOL    HW2 1793   1.153   1.529   5.168
  502SOL     OW 1794   0.319   0.956   3.974
  502SOL    HW1 1795   0.407   0.981   3.934
  502SOL    HW2 1796   0.294   0.863   3.946
  503SOL     OW 1797   1.485   0.758   4.447
  503SOL    HW1 1798   1.480   0.714   4.536
  503SOL    HW2 1799   1.566   0.817   4.443
  504SOL     OW 1800   0.465   1.264   5.462
  504SOL    HW1 1801   0.444   1.272   5.364
  504SOL    HW2 1802   0.381   1.265   5.515
  505SOL     OW 1803   1.130   1.775   3.950
  505SOL    HW1 1804   1.046   1.745   3.996
  505SOL    HW2 1805   1.155   1.709   3.879
  506SOL     OW 1806   0.195   0.288   5.219
  506SOL    HW1 1807   0.133   0.362   5.193
  506SOL    HW2 1808   0.159   0.242   5.300
  507SOL     OW 1809   1.620   1.390   3.817
  507SOL    HW1 1810   1.580   1.479   3.794
  507SOL    HW2 1811   1.554   1.318   3.798
  508SOL     OW 1812   0.464   1.741   4.039
  508SOL    HW1 1813   0.510   1.801   4.104
  508SOL    HW2 1814   0.532   1.697   3.981
  509SOL     OW 1815   1.427   0.155   4.141
  509SOL    HW1 1816   1.398   0.111   4.055
  509SOL    HW2 1817   1.525   0.138   4.155
  510SOL     OW 1818   0.258   1.778   4.946
  510SOL    HW1 1819   0.304   1.704   4.995
  510SOL    HW2 1820   0.270   1.766   4.848
  511SOL     OW 1821   0.936   1.705   4.620
  511SOL    HW1 1822   1.015   1.657   4.657
  511SOL    HW2 1823   0.898   1.652   4.544
  512SOL     OW 1824   0.392   0.683   4.203
  512SOL    HW1 1825   0.419   0.587   4.212
  512SOL    HW2 1826   0.297   0.694   4.231
  513SOL     OW 1827   1.539   0.224   5.456
  513SOL    HW1 1828   1.531   0.262   5.548
  513SOL    HW2 1829   1.478   0.145   5.448
  514SOL     OW 1830   0.645   0.122   3.832
  514SOL    HW1 1831   0.719   0.060   3.858
  514SOL    HW2 1832   0.589   0.079   3.761
  515SOL     OW 1833   0.758   0.281   5.487
  515SOL    HW1 1834   0.832   0.213   5.484
  515SOL    HW2 1835   0.755   0.323   5.578
  516SOL     OW 1836   0.875   1.516   4.916
  516SOL    HW1 1837   0.853   1.476   4.827
  516SOL    HW2 1838   0.944   1.461   4.962
  517SOL     OW 1839   1.331   0.590   5.159
  517SOL    HW1 1840   1.364   0.554   5.246
  517SOL    HW2 1841   1.369   0.682   5.144
  518SOL     OW 1842   0.822   1.383   4.670
  518SOL    HW1 1843   0.913   1.373   4.629
  518SOL    HW2 1844   0.754   1.396   4.598
  519SOL     OW 1845   0.930   0.520   4.614
  519SOL    HW1 1846   0.903   0.506   4.518
  519SOL    HW2 1847   0.969   0.435   4.650
  520SOL     OW 1848   0.549   0.057   4.209
  520SOL    HW1 1849   0.472   0.047   4.272
  520SOL    HW2 1850   0.537   0.139   4.154
  521SOL     OW 1851   1.427   1.203   3.767
  521SOL    HW1 1852   1.461   1.125   3.820
  521SOL    HW2 1853   1.336   1.228   3.800
  522SOL     OW 1854   0.290   0.034   3.937
  522SOL    HW1 1855   0.334   0.110   3.889
  522SOL    HW2 1856   0.360  -0.032   3.965
  523SOL     OW 1857   0.954   0.264   4.178
  523SOL    HW1 1858   0.922   0.297   4.089
  523SOL    HW2 1859   1.052   0.277   4.186
  524SOL     OW 1860   1.076   0.694   5.174
  524SOL    HW1 1861   1.000   0.632   5.188
  524SOL    HW2 1862   1.162   0.643   5.175
  525SOL     OW 1863   1.219   1.569   4.518
  525SOL    HW1 1864   1.230   1.641   4.450
  525SOL    HW2 1865   1.289   1.579   4.589
  526SOL     OW 1866   0.484   1.167   4.450
  526SOL    HW1 1867   0.415   1.146   4.518
  526SOL    HW2 1868   0.443   1.164   4.359
  527SOL     OW 1869   1.250   1.789   4.337
  527SOL    HW1 1870   1.297   1.855   4.278
  527SOL    HW2 1871   1.174   1.835   4.383
  528SOL     OW 1872   1.021   0.529   3.760
  528SOL    HW1 1873   0.977   0.616   3.736
  528SOL    HW2 1874   1.087   0.545   3.833
  529SOL     OW 1875   0.094   0.541   5.127
  529SOL    HW1 1876   0.185   0.552   5.087
  529SOL    HW2 1877   0.065   0.627   5.168
  530SOL     OW 1878   0.560   0.241   4.909
  530SOL    HW1 1879   0.598   0.165   4.962
  530SOL    HW2 1880   0.461   0.247   4.926
  531SOL     OW 1881   0.867   0.463   4.356
  531SOL    HW1 1882   0.818   0.523   4.292
  531SOL    HW2 1883   0.897   0.381   4.309
  532SOL     OW 1884   0.984   0.042   4.494
  532SOL    HW1 1885   0.926   0.037   4.413
  532SOL    HW2 1886   0.986  -0.047   4.539
  533SOL     OW 1887   1.445   1.157   4.582
  533SOL    HW1 1888   1.370   1.091   4.592
  533SOL    HW2 1889   1.469   1.166   4.485
  534SOL     OW 1890   1.466   0.615   4.688
  534SOL    HW1 1891   1.404   0.537   4.683
  534SOL    HW2 1892   1.525   0.606   4.768
  535SOL     OW 1893   1.833   0.803   4.103
  535SOL    HW1 1894   1.894   0.760   4.170
  535SOL    HW2 1895   1.811   0.737   4.031
  536SOL     OW 1896   0.483   1.427   3.878
  536SOL    HW1 1897   0.401   1.398   3.928
  536SOL    HW2 1898   0.478   1.392   3.784
  537SOL     OW 1899   1.686   1.270   4.360
  537SOL    HW1 1900   1.785   1.265   4.377
  537SOL    HW2 1901   1.652   1.360   4.387
  538SOL     OW 1902   1.384   0.580   3.794
  538SOL    HW1 1903   1.318   0.558   3.866
  538SOL    HW2 1904   1.470   0.533   3.813
  539SOL     OW 1905   0.521   0.266   4.030
  539SOL    HW1 1906   0.573   0.213   3.962
  539SOL    HW2 1907   0.492   0.352   3.989
  540SOL     OW 1908   1.749   1.242   5.269
  540SOL    HW1 1909   1.838   1.201   5.252
  540SOL    HW2 1910   1.761   1.334   5.307
  541SOL     OW 1911   1.047   1.349   5.060
  541SOL    HW1 1912   0.965   1.319   5.109
  541SOL    HW2 1913   1.127   1.307   5.103
  542SOL     OW 1914   1.611   1.631   5.377
  542SOL    HW1 1915   1.599   1.667   5.284
  542SOL    HW2 1916   1.695   1.578   5.382
  543SOL     OW 1917   1.144   1.231   4.829
  543SOL    HW1 1918   1.082   1.263   4.901
  543SOL    HW2 1919   1.110   1.261   4.740
  544SOL     OW 1920   1.621   1.096   4.805
  544SOL    HW1 1921   1.616   1.161   4.880
  544SOL    HW2 1922   1.546   1.114   4.741
  545SOL     OW 1923   0.896   0.104   5.116
  545SOL    HW1 1924   0.922   0.063   5.028
  545SOL    HW2 1925   0.977   0.144   5.159
  546SOL     OW 1926   0.981   1.111   5.460
  546SOL    HW1 1927   0.887   1.132   5.486
  546SOL    HW2 1928   0.982   1.030   5.402
  547SOL     OW 1929   0.719   1.060   4.098
  547SOL    HW1 1930   0.698   1.039   4.193
  547SOL    HW2 1931   0.797   1.005   4.068
  548SOL     OW 1932   0.439   0.825   4.966
  548SOL    HW1 1933   0.511   0.836   5.036
  548SOL    HW2 1934   0.391   0.739   4.982
  549SOL     OW 1935   1.257   0.381   5.001
  549SOL    HW1 1936   1.286   0.464   5.049
  549SOL    HW2 1937   1.163   0.393   4.969
  550SOL     OW 1938   0.065   1.610   5.059
  550SOL    HW1 1939   0.106   1.682   5.004
  550SOL    HW2 1940   0.137   1.558   5.106
  551SOL     OW 1941   0.395   1.143   4.185
  551SOL    HW1 1942   0.366   1.226   4.137
  551SOL    HW2 1943   0.370   1.063   4.132
  552SOL     OW 1944   0.559   0.520   4.581
  552SOL    HW1 1945   0.562   0.581   4.502
  552SOL    HW2 1946   0.626   0.550   4.649
  553SOL     OW 1947   1.243   1.355   4.118
  553SOL    HW1 1948   1.304   1.426   4.153
  553SOL    HW2 1949   1.149   1.374   4.148
  554SOL     OW 1950   1.295   1.465   4.871
  554SOL    HW1 1951   1.351   1.472   4.953
  554SOL    HW2 1952   1.242   1.380   4.873
  555SOL     OW 1953   1.572   0.627   4.213
  555SOL    HW1 1954   1.522   0.672   4.287
  555SOL    HW2 1955   1.621   0.696   4.160
  556SOL     OW 1956   0.351   1.528   5.037
  556SOL    HW1 1957   0.334   1.477   4.953
  556SOL    HW2 1958   0.450   1.543   5.047
  557SOL     OW 1959   0.439   0.727   5.312
  557SOL    HW1 1960   0.510   0.773   5.259
  557SOL    HW2 1961   0.470   0.635   5.336
  558SOL     OW 1962   1.615   0.785   5.416
  558SOL    HW1 1963   1.524   0.826   5.412
  558SOL    HW2 1964   1.672   0.822   5.343
  559SOL     OW 1965   0.987   0.123   5.504
  559SOL    HW1 1966   1.051   0.199   5.492
  559SOL    HW2 1967   0.984   0.069   5.420
  560SOL     OW 1968   0.471   0.037   5.466
  560SOL    HW1 1969   0.478   0.020   5.368
  560SOL    HW2 1970   0.426   0.125   5.482
  561SOL     OW 1971   0.600   0.878   4.750
  561SOL    HW1 1972   0.635   0.971   4.751
  561SOL    HW2 1973   0.538   0.865   4.828
  562SOL     OW 1974   1.336   0.857   4.739
  562SOL    HW1 1975   1.243   0.841   4.707
  562SOL    HW2 1976   1.390   0.774   4.729
  563SOL     OW 1977   1.190   0.527   3.985
  563SOL    HW1 1978   1.207   0.446   4.040
  563SOL    HW2 1979   1.148   0.598   4.042
  564SOL     OW 1980   0.296   0.212   4.974
  564SOL    HW1 1981   0.258   0.236   5.063
  564SOL    HW2 1982   0.309   0.113   4.969
  565SOL     OW 1983   0.069   1.329   4.993
  565SOL    HW1 1984   0.038   1.298   5.084
  565SOL    HW2 1985   0.047   1.426   4.983
  566SOL     OW 1986   0.724   0.630   4.768
  566SOL    HW1 1987   0.803   0.609   4.710
  566SOL    HW2 1988   0.693   0.723   4.749
  567SOL     OW 1989   1.752   0.969   5.570
  567SOL    HW1 1990   1.710   0.893   5.521
  567SOL    HW2 1991   1.693   0.998   5.645
  568SOL     OW 1992   0.317   0.048   4.368
  568SOL    HW1 1993   0.306   0.144   4.397
  568SOL    HW2 1994   0.228   0.003   4.372
  569SOL     OW 1995   1.622   0.400   4.073
  569SOL    HW1 1996   1.637   0.320   4.132
  569SOL    HW2 1997   1.592   0.477   4.129
  570SOL     OW 1998   1.030   0.762   4.681
  570SOL    HW1 1999   1.018   0.782   4.778
  570SOL    HW2 2000   1.000   0.669   4.661
  571SOL     OW 2001   0.979   1.556   5.438
  571SOL    HW1 2002   0.960   1.606   5.353
  571SOL    HW2 2003   1.032   1.474   5.417
  572SOL     OW 2004   1.851   1.499   5.326
  572SOL    HW1 2005   1.874   1.527   5.232
  572SOL    HW2 2006   1.931   1.509   5.384
  573SOL     OW 2007   0.345   0.895   5.505
  573SOL    HW1 2008   0.422   0.935   5.555
  573SOL    HW2 2009   0.379   0.832   5.435
  574SOL     OW 2010   1.484   0.306   3.848
  574SOL    HW1 2011   1.423   0.231   3.875
  574SOL    HW2 2012   1.536   0.337   3.928
  575SOL     OW 2013   1.287   0.829   3.746
  575SOL    HW1 2014   1.327   0.738   3.757
  575SOL    HW2 2015   1.319   0.869   3.660
  576SOL     OW 2016   1.073   1.341   4.581
  576SOL    HW1 2017   1.079   1.262   4.520
  576SOL    HW2 2018   1.129   1.415   4.546
  577SOL     OW 2019   0.324   0.803   4.659
  577SOL    HW1 2020   0.419   0.830   4.645
  577SOL    HW2 2021   0.321   0.718   4.712
  578SOL     OW 2022   0.351   0.533   4.748
  578SOL    HW1 2023   0.301   0.446   4.744
  578SOL    HW2 2024   0.429   0.529   4.685
  579SOL     OW 2025   1.137   0.365   5.427
  579SOL    HW1 2026   1.087   0.426   5.487
  579SOL    HW2 2027   1.230   0.400   5.413
  580SOL     OW 2028   1.133   0.208   5.208
  580SOL    HW1 2029   1.128   0.268   5.288
  580SOL    HW2 2030   1.148   0.263   5.126
  581SOL     OW 2031   5.984   1.310   3.923
  581SOL    HW1 2032   5.889   1.333   3.944
  581SOL    HW2 2033   6.002   1.215   3.946
  582SOL     OW 2034   0.065   1.820   4.591
  582SOL    HW1 2035   0.055   1.721   4.603
  582SOL    HW2 2036   0.160   1.846   4.605
  583SOL     OW 2037   0.482   1.575   4.624
  583SOL    HW1 2038   0.552   1.640   4.654
  583SOL    HW2 2039   0.522   1.510   4.560
  584SOL     OW 2040   0.965   0.793   4.943
  584SOL    HW1 2041   1.023   0.772   5.021
  584SOL    HW2 2042   0.876   0.749   4.955
  585SOL     OW 2043  -0.011   0.603   4.854
  585SOL    HW1 2044   0.020   0.562   4.768
  585SOL    HW2 2045   0.029   0.553   4.931
  586SOL     OW 2046   0.189   0.520   5.451
  586SOL    HW1 2047   0.249   0.489   5.377
  586SOL    HW2 2048   0.131   0.595   5.417
  587SOL     OW 2049   1.387   0.933   5.377
  587SOL    HW1 2050   1.410   1.030   5.374
  587SOL    HW2 2051   1.380   0.898   5.283
  588SOL     OW 2052   0.816   0.579   4.090
  588SOL    HW1 2053   0.827   0.497   4.033
  588SOL    HW2 2054   0.737   0.631   4.059
  589SOL     OW 2055   1.639   0.605   4.901
  589SOL    HW1 2056   1.626   0.546   4.980
  589SOL    HW2 2057   1.730   0.591   4.862
  590SOL     OW 2058   0.287   1.550   5.459
  590SOL    HW1 2059   0.234   1.621   5.504
  590SOL    HW2 2060   0.257   1.460   5.492
  591SOL     OW 2061   0.695   0.472   4.983
  591SOL    HW1 2062   0.633   0.394   4.971
  591SOL    HW2 2063   0.696   0.528   4.901
  592SOL     OW 2064   0.916   1.679   5.198
  592SOL    HW1 2065   0.887   1.631   5.114
  592SOL    HW2 2066   0.917   1.777   5.181
  593SOL     OW 2067   0.452   0.496   3.899
  593SOL    HW1 2068   0.518   0.566   3.927
  593SOL    HW2 2069   0.362   0.538   3.888
  594SOL     OW 2070   0.204   1.099   5.173
  594SOL    HW1 2071   0.134   1.124   5.241
  594SOL    HW2 2072   0.164   1.103   5.082
  595SOL     OW 2073   1.310   1.041   4.938
  595SOL    HW1 2074   1.332   0.973   4.869
  595SOL    HW2 2075   1.247   1.109   4.899
  596SOL     OW 2076   1.319   0.861   4.019
  596SOL    HW1 2077   1.246   0.828   4.078
  596SOL    HW2 2078   1.293   0.847   3.923
  597SOL     OW 2079   1.783   1.723   4.884
  597SOL    HW1 2080   1.845   1.756   4.812
  597SOL    HW2 2081   1.751   1.632   4.860
  598SOL     OW 2082   1.239   1.732   4.820
  598SOL    HW1 2083   1.326   1.763   4.782
  598SOL    HW2 2084   1.248   1.636   4.847
  599SOL     OW 2085   0.097   1.265   4.731
  599SOL    HW1 2086   0.088   1.279   4.830
  599SOL    HW2 2087   0.022   1.207   4.698
  600SOL     OW 2088   0.683   1.680   5.473
  600SOL    HW1 2089   0.614   1.752   5.465
  600SOL    HW2 2090   0.756   1.696   5.407
  601SOL     OW 2091   1.701   0.138   4.180
  601SOL    HW1 2092   1.799   0.133   4.163
  601SOL    HW2 2093   1.679   0.091   4.266
  602SOL     OW 2094   1.392   1.570   4.215
  602SOL    HW1 2095   1.447   1.605   4.140
  602SOL    HW2 2096   1.333   1.643   4.251
  603SOL     OW 2097   0.147   1.772   5.555
  603SOL    HW1 2098   0.077   1.710   5.589
  603SOL    HW2 2099   0.191   1.818   5.632
  604SOL     OW 2100   1.284   0.933   4.389
  604SOL    HW1 2101   1.358   0.869   4.408
  604SOL    HW2 2102   1.318   1.009   4.333
  605SOL     OW 2103   0.791   1.283   5.146
  605SOL    HW1 2104   0.763   1.328   5.230
  605SOL    HW2 2105   0.717   1.290   5.078
  606SOL     OW 2106   0.667   1.626   3.879
  606SOL    HW1 2107   0.684   1.645   3.782
  606SOL    HW2 2108   0.609   1.545   3.888
  607SOL     OW 2109   1.614   1.731   5.110
  607SOL    HW1 2110   1.674   1.730   5.030
  607SOL    HW2 2111   1.601   1.825   5.140
  608SOL     OW 2112   1.853   0.142   4.686
  608SOL    HW1 2113   1.880   0.061   4.633
  608SOL    HW2 2114   1.762   0.172   4.657
  609SOL     OW 2115   0.263   0.310   4.440
  609SOL    HW1 2116   0.177   0.344   4.401
  609SOL    HW2 2117   0.258   0.313   4.540
  610SOL     OW 2118   1.210   1.596   3.758
  610SOL    HW1 2119   1.200   1.503   3.793
  610SOL    HW2 2120   1.141   1.612   3.688
  611SOL     OW 2121   0.827   1.014   5.107
  611SOL    HW1 2122   0.875   0.998   5.021
  611SOL    HW2 2123   0.817   1.113   5.122
  612SOL     OW 2124   0.923   0.910   4.011
  612SOL    HW1 2125   0.983   0.947   3.940
  612SOL    HW2 2126   0.972   0.839   4.062
  613SOL     OW 2127   1.483   1.650   3.765
  613SOL    HW1 2128   1.387   1.625   3.752
  613SOL    HW2 2129   1.529   1.650   3.677
  614SOL     OW 2130   0.385   1.302   5.211
  614SOL    HW1 2131   0.362   1.383   5.156
  614SOL    HW2 2132   0.323   1.227   5.188
  615SOL     OW 2133   1.611   1.286   5.012
  615SOL    HW1 2134   1.670   1.262   5.089
  615SOL    HW2 2135   1.545   1.356   5.040
  616SOL     OW 2136   1.071   1.109   4.445
  616SOL    HW1 2137   0.993   1.059   4.482
  616SOL    HW2 2138   1.140   1.043   4.414
  617SOL     OW 2139   1.057   0.245   4.659
  617SOL    HW1 2140   1.046   0.176   4.587
  617SOL    HW2 2141   0.979   0.241   4.721
  618SOL     OW 2142   0.609   1.490   4.199
  618SOL    HW1 2143   0.662   1.434   4.135
  618SOL    HW2 2144   0.522   1.514   4.157
  619SOL     OW 2145   1.725   0.409   5.093
  619SOL    HW1 2146   1.808   0.464   5.096
  619SOL    HW2 2147   1.741   0.326   5.040
  620SOL     OW 2148   0.252   1.347   4.012
  620SOL    HW1 2149   0.156   1.335   3.987
  620SOL    HW2 2150   0.258   1.386   4.104
  621SOL     OW 2151   0.129   1.058   5.469
  621SOL    HW1 2152   0.050   0.997   5.480
  621SOL    HW2 2153   0.213   1.005   5.478
  622SOL     OW 2154   0.675   0.242   5.225
  622SOL    HW1 2155   0.746   0.185   5.183
  622SOL    HW2 2156   0.696   0.254   5.322
  623SOL     OW 2157   0.094   0.310   3.760
  623SOL    HW1 2158  -0.001   0.291   3.783
  623SOL    HW2 2159   0.099   0.392   3.703
  624SOL     OW 2160   1.417   0.854   5.115
  624SOL    HW1 2161   1.362   0.918   5.062
  624SOL    HW2 2162   1.511   0.856   5.081
  625SOL     OW 2163   0.067   0.163   4.049
  625SOL    HW1 2164   0.061   0.247   3.994
  625SOL    HW2 2165   0.152   0.116   4.028
  626SOL     OW 2166   1.177   1.335   3.846
  626SOL    HW1 2167   1.080   1.311   3.836
  626SOL    HW2 2168   1.203   1.333   3.942
  627SOL     OW 2169   0.638   0.825   5.154
  627SOL    HW1 2170   0.693   0.908   5.143
  627SOL    HW2 2171   0.698   0.746   5.166
  628SOL     OW 2172   1.486   1.798   4.718
  628SOL    HW1 2173   1.512   1.872   4.656
  628SOL    HW2 2174   1.569   1.754   4.754
  629SOL     OW 2175   0.717   0.565   5.428
  629SOL    HW1 2176   0.766   0.627   5.489
  629SOL    HW2 2177   0.730   0.470   5.458
  630SOL     OW 2178   1.475   1.194   5.353
  630SOL    HW1 2179   1.460   1.212   5.450
  630SOL    HW2 2180   1.570   1.214   5.329
  631SOL     OW 2181   0.365   1.745   5.286
  631SOL    HW1 2182   0.279   1.793   5.272
  631SOL    HW2 2183   0.349   1.660   5.336
  632SOL     OW 2184   1.660   0.876   4.982
  632SOL    HW1 2185   1.657   0.785   4.940
  632SOL    HW2 2186   1.649   0.946   4.911
  633SOL     OW 2187   1.223   0.325   4.184
  633SOL    HW1 2188   1.297   0.259   4.168
  633SOL    HW2 2189   1.246   0.383   4.262
  634SOL     OW 2190   0.577   0.734   4.401
  634SOL    HW1 2191   0.623   0.822   4.388
  634SOL    HW2 2192   0.513   0.718   4.327
  635SOL     OW 2193   1.744   0.377   5.362
  635SOL    HW1 2194   1.730   0.388   5.264
  635SOL    HW2 2195   1.674   0.316   5.399
  636SOL     OW 2196   1.758   0.928   5.233
  636SOL    HW1 2197   1.741   1.024   5.256
  636SOL    HW2 2198   1.732   0.912   5.138
  637SOL     OW 2199   0.877   1.360   3.781
  637SOL    HW1 2200   0.830   1.376   3.868
  637SOL    HW2 2201   0.879   1.444   3.728
  638SOL     OW 2202   0.661   1.775   4.661
  638SOL    HW1 2203   0.638   1.870   4.645
  638SOL    HW2 2204   0.760   1.763   4.652
  639SOL     OW 2205   0.872   0.974   4.578
  639SOL    HW1 2206   0.924   0.897   4.614
  639SOL    HW2 2207   0.824   1.020   4.654
  640SOL     OW 2208   1.077   0.991   3.807
  640SOL    HW1 2209   1.049   1.046   3.728
  640SOL    HW2 2210   1.154   0.933   3.781
  641SOL     OW 2211   1.839   1.555   4.568
  641SOL    HW1 2212   1.756   1.543   4.513
  641SOL    HW2 2213   1.841   1.486   4.641
  642SOL     OW 2214   0.214   1.295   5.573
  642SOL    HW1 2215   0.179   1.216   5.522
  642SOL    HW2 2216   0.154   1.313   5.651
  643SOL     OW 2217   0.105   1.255   4.407
  643SOL    HW1 2218   0.032   1.226   4.470
  643SOL    HW2 2219   0.150   1.174   4.368
  644SOL     OW 2220   0.683   1.415   5.362
  644SOL    HW1 2221   0.599   1.368   5.389
  644SOL    HW2 2222   0.682   1.508   5.399
  645SOL     OW 2223   1.782   0.183   4.952
  645SOL    HW1 2224   1.797   0.101   5.007
  645SOL    HW2 2225   1.817   0.168   4.860
  646SOL     OW 2226   0.437   0.424   4.250
  646SOL    HW1 2227   0.470   0.356   4.184
  646SOL    HW2 2228   0.384   0.379   4.321
  647SOL     OW 2229   1.691   1.478   4.818
  647SOL    HW1 2230   1.611   1.461   4.759
  647SOL    HW2 2231   1.696   1.409   4.889
  648SOL     OW 2232   0.342   0.571   5.020
  648SOL    HW1 2233   0.395   0.511   5.080
  648SOL    HW2 2234   0.356   0.544   4.925
  649SOL     OW 2235   0.834   1.580   4.401
  649SOL    HW1 2236   0.809   1.642   4.327
  649SOL    HW2 2237   0.760   1.515   4.417
  650SOL     OW 2238   1.442   0.247   4.842
  650SOL    HW1 2239   1.494   0.185   4.902
  650SOL    HW2 2240   1.371   0.293   4.896
  651SOL     OW 2241   1.021   0.006   4.883
  651SOL    HW1 2242   0.966  -0.048   4.819
  651SOL    HW2 2243   1.099   0.045   4.834
  652SOL     OW 2244   0.777   1.331   4.046
  652SOL    HW1 2245   0.749   1.235   4.057
  652SOL    HW2 2246   0.861   1.348   4.098
  653SOL     OW 2247   0.625   1.562   5.014
  653SOL    HW1 2248   0.620   1.650   5.063
  653SOL    HW2 2249   0.717   1.552   4.975
  654SOL     OW 2250   1.348   0.064   3.898
  654SOL    HW1 2251   1.404  -0.014   3.872
  654SOL    HW2 2252   1.254   0.033   3.915
  655SOL     OW 2253   1.292   0.474   4.400
  655SOL    HW1 2254   1.238   0.558   4.400
  655SOL    HW2 2255   1.296   0.436   4.492
  656SOL     OW 2256   1.605   0.225   4.617
  656SOL    HW1 2257   1.546   0.235   4.697
  656SOL    HW2 2258   1.604   0.310   4.564
  657SOL     OW 2259   0.060   1.059   3.999
  657SOL    HW1 2260   0.156   1.035   3.985
  657SOL    HW2 2261   0.019   0.997   4.065
  658SOL     OW 2262   0.888   1.672   4.060
  658SOL    HW1 2263   0.811   1.649   4.001
  658SOL    HW2 2264   0.862   1.747   4.121
  659SOL     OW 2265   0.207   0.625   5.713
  659SOL    HW1 2266   0.112   0.619   5.745
  659SOL    HW2 2267   0.212   0.591   5.619
  660SOL     OW 2268   1.799   0.605   5.800
  660SOL    HW1 2269   1.751   0.583   5.716
  660SOL    HW2 2270   1.800   0.525   5.860
  661SOL     OW 2271   0.250   1.742   0.101
  661SOL    HW1 2272   0.265   1.830   0.146
  661SOL    HW2 2273   0.328   1.721   0.043
  662SOL     OW 2274   0.606   0.979   5.727
  662SOL    HW1 2275   0.626   1.046   5.656
  662SOL    HW2 2276   0.690   0.959   5.779
  663SOL     OW 2277   1.804   1.757   5.905
  663SOL    HW1 2278   1.826   1.697   5.981
  663SOL    HW2 2279   1.872   1.830   5.898
  664SOL     OW 2280   0.010   1.557   5.670
  664SOL    HW1 2281   0.010   1.464   5.706
  664SOL    HW2 2282   0.027   1.622   5.744
  665SOL     OW 2283   1.723   0.871   0.152
  665SOL    HW1 2284   1.768   0.895   0.238
  665SOL    HW2 2285   1.695   0.954   0.104
  666SOL     OW 2286   1.688   1.097   5.992
  666SOL    HW1 2287   1.781   1.101   5.955
  666SOL    HW2 2288   1.657   1.189   6.014
  667SOL     OW 2289   1.553   1.014   5.762
  667SOL    HW1 2290   1.499   0.930   5.766
  667SOL    HW2 2291   1.590   1.035   5.853
  668SOL     OW 2292   0.575   0.731   5.863
  668SOL    HW1 2293   0.584   0.807   5.797
  668SOL    HW2 2294   0.554   0.768   5.953
  669SOL     OW 2295   0.828   0.402   5.719
  669SOL    HW1 2296   0.915   0.436   5.682
  669SOL    HW2 2297   0.846   0.329   5.785
  670SOL     OW 2298   0.330   0.948   5.819
  670SOL    HW1 2299   0.422   0.969   5.785
  670SOL    HW2 2300   0.300   0.861   5.781
  671SOL     OW 2301   1.119   1.743   5.828
  671SOL    HW1 2302   1.026   1.714   5.850
  671SOL    HW2 2303   1.147   1.701   5.742
  672SOL     OW 2304   1.633   1.392   5.681
  672SOL    HW1 2305   1.596   1.484   5.668
  672SOL    HW2 2306   1.562   1.325   5.658
  673SOL     OW 2307   0.483   1.766   5.922
  673SOL    HW1 2308   0.534   1.828   5.982
  673SOL    HW2 2309   0.545   1.722   5.858
  674SOL     OW 2310   0.604   0.071   5.697
  674SOL    HW1 2311   0.699   0.039   5.698
  674SOL    HW2 2312   0.567   0.062   5.605
  675SOL     OW 2313   1.428   1.213   5.623
  675SOL    HW1 2314   1.470   1.138   5.673
  675SOL    HW2 2315   1.340   1.236   5.664
  676SOL     OW 2316   0.311   0.047   5.768
  676SOL    HW1 2317   0.381   0.092   5.714
  676SOL    HW2 2318   0.346  -0.040   5.804
  677SOL     OW 2319   1.035   0.537   5.608
  677SOL    HW1 2320   0.987   0.624   5.591
  677SOL    HW2 2321   1.100   0.549   5.682
  678SOL     OW 2322   1.895   0.814   5.936
  678SOL    HW1 2323   1.847   0.820   6.024
  678SOL    HW2 2324   1.853   0.742   5.880
  679SOL     OW 2325   0.480   1.421   5.750
  679SOL    HW1 2326   0.404   1.396   5.810
  679SOL    HW2 2327   0.461   1.389   5.657
  680SOL     OW 2328   1.712   1.263   0.282
  680SOL    HW1 2329   1.801   1.224   0.260
  680SOL    HW2 2330   1.675   1.308   0.201
  681SOL     OW 2331   1.399   0.588   5.645
  681SOL    HW1 2332   1.330   0.563   5.713
  681SOL    HW2 2333   1.484   0.537   5.664
  682SOL     OW 2334   0.555   0.246   5.901
  682SOL    HW1 2335   0.554   0.195   5.816
  682SOL    HW2 2336   0.506   0.333   5.889
  683SOL     OW 2337   0.378   1.112   0.040
  683SOL    HW1 2338   0.333   1.200   0.023
  683SOL    HW2 2339   0.359   1.049  -0.035
  684SOL     OW 2340   1.203   0.534   5.825
  684SOL    HW1 2341   1.227   0.452   5.877
  684SOL    HW2 2342   1.172   0.605   5.888
  685SOL     OW 2343   1.497   0.312   5.705
  685SOL    HW1 2344   1.429   0.242   5.723
  685SOL    HW2 2345   1.581   0.290   5.754
  686SOL     OW 2346   1.317   0.850   5.628
  686SOL    HW1 2347   1.346   0.754   5.636
  686SOL    HW2 2348   1.336   0.884   5.537
  687SOL     OW 2349   5.999   1.307   5.782
  687SOL    HW1 2350   5.902   1.329   5.796
  687SOL    HW2 2351   6.016   1.213   5.810
  688SOL     OW 2352   0.820   0.616   5.889
  688SOL    HW1 2353   0.820   0.537   5.828
  688SOL    HW2 2354   0.730   0.659   5.889
  689SOL     OW 2355   0.444   0.491   5.785
  689SOL    HW1 2356   0.507   0.564   5.811
  689SOL    HW2 2357   0.354   0.529   5.765
  690SOL     OW 2358   1.744   0.129   0.057
  690SOL    HW1 2359   1.815   0.060   0.069
  690SOL    HW2 2360   1.683   0.128   0.137
  691SOL     OW 2361   0.666   1.617   5.745
  691SOL    HW1 2362   0.676   1.641   5.649
  691SOL    HW2 2363   0.599   1.544   5.754
  692SOL     OW 2364   1.198   1.597   5.614
  692SOL    HW1 2365   1.191   1.503   5.648
  692SOL    HW2 2366   1.130   1.611   5.542
  693SOL     OW 2367   0.860   0.907   5.806
  693SOL    HW1 2368   0.946   0.945   5.773
  693SOL    HW2 2369   0.879   0.836   5.874
  694SOL     OW 2370   1.475   1.637   5.619
  694SOL    HW1 2371   1.377   1.621   5.604
  694SOL    HW2 2372   1.523   1.639   5.531
  695SOL     OW 2373   1.035   1.160   0.299
  695SOL    HW1 2374   0.992   1.104   0.370
  695SOL    HW2 2375   1.074   1.100   0.229
  696SOL     OW 2376   0.258   1.358   5.923
  696SOL    HW1 2377   0.168   1.342   5.883
  696SOL    HW2 2378   0.254   1.434   5.988
  697SOL     OW 2379   0.110   0.333   5.628
  697SOL    HW1 2380   0.014   0.305   5.624
  697SOL    HW2 2381   0.124   0.410   5.566
  698SOL     OW 2382   0.090   0.164   5.853
  698SOL    HW1 2383   0.077   0.250   5.804
  698SOL    HW2 2384   0.172   0.118   5.820
  699SOL     OW 2385   1.168   1.338   5.708
  699SOL    HW1 2386   1.071   1.319   5.693
  699SOL    HW2 2387   1.191   1.322   5.804
  700SOL     OW 2388   1.256   0.338   0.022
  700SOL    HW1 2389   1.310   0.260   0.053
  700SOL    HW2 2390   1.256   0.409   0.092
  701SOL     OW 2391   0.872   1.380   5.633
  701SOL    HW1 2392   0.821   1.426   5.705
  701SOL    HW2 2393   0.893   1.445   5.559
  702SOL     OW 2394   1.089   0.994   5.691
  702SOL    HW1 2395   1.062   1.042   5.608
  702SOL    HW2 2396   1.172   0.941   5.673
  703SOL     OW 2397   1.350   0.081   5.721
  703SOL    HW1 2398   1.405  -0.002   5.722
  703SOL    HW2 2399   1.272   0.070   5.782
  704SOL     OW 2400   0.065   1.058   5.866
  704SOL    HW1 2401   0.156   1.024   5.843
  704SOL    HW2 2402   0.025   0.999   5.937
  705SOL     OW 2403   0.867   1.657   5.926
  705SOL    HW1 2404   0.796   1.647   5.857
  705SOL    HW2 2405   0.854   1.742   5.976
  706SOL     OW 2406   0.235   2.488   0.114
  706SOL    HW1 2407   0.147   2.479   0.160
  706SOL    HW2 2408   0.221   2.519   0.020
  707SOL     OW 2409   0.217   2.130   0.996
  707SOL    HW1 2410   0.244   2.093   1.085
  707SOL    HW2 2411   0.118   2.126   0.986
  708SOL     OW 2412   6.010   2.256   0.605
  708SOL    HW1 2413   5.922   2.269   0.650
  708SOL    HW2 2414   5.997   2.205   0.520
  709SOL     OW 2415   0.575   3.161   1.200
  709SOL    HW1 2416   0.484   3.157   1.160
  709SOL    HW2 2417   0.598   3.255   1.223
  710SOL     OW 2418   1.571   3.377   0.709
  710SOL    HW1 2419   1.527   3.351   0.795
  710SOL    HW2 2420   1.502   3.385   0.638
  711SOL     OW 2421   1.134   2.566   0.694
  711SOL    HW1 2422   1.187   2.650   0.678
  711SOL    HW2 2423   1.083   2.574   0.780
  712SOL     OW 2424   1.797   2.452   0.241
  712SOL    HW1 2425   1.742   2.491   0.167
  712SOL    HW2 2426   1.751   2.371   0.278
  713SOL     OW 2427   0.733   2.997   1.043
  713SOL    HW1 2428   0.669   3.034   1.110
  713SOL    HW2 2429   0.780   3.072   0.996
  714SOL     OW 2430   0.879   2.618   1.820
  714SOL    HW1 2431   0.869   2.686   1.893
  714SOL    HW2 2432   0.901   2.664   1.734
  715SOL     OW 2433   0.685   2.851   0.647
  715SOL    HW1 2434   0.759   2.847   0.714
  715SOL    HW2 2435   0.615   2.915   0.678
  716SOL     OW 2436   0.714   3.016   1.827
  716SOL    HW1 2437   0.769   3.092   1.861
  716SOL    HW2 2438   0.632   3.051   1.783
  717SOL     OW 2439   0.324   3.231   1.096
  717SOL    HW1 2440   0.238   3.196   1.059
  717SOL    HW2 2441   0.367   3.291   1.029
  718SOL     OW 2442   1.455   3.365   1.364
  718SOL    HW1 2443   1.513   3.446   1.372
  718SOL    HW2 2444   1.380   3.371   1.429
  719SOL     OW 2445   0.452   2.251   1.475
  719SOL    HW1 2446   0.532   2.191   1.483
  719SOL    HW2 2447   0.369   2.198   1.492
  720SOL     OW 2448   1.608   2.303   0.747
  720SOL    HW1 2449   1.539   2.322   0.677
  720SOL    HW2 2450   1.605   2.374   0.817
  721SOL     OW 2451   0.241   3.578   0.493
  721SOL    HW1 2452   0.256   3.658   0.552
  721SOL    HW2 2453   0.324   3.560   0.440
  722SOL     OW 2454   1.137   3.200   1.697
  722SOL    HW1 2455   1.183   3.197   1.786
  722SOL    HW2 2456   1.081   3.119   1.686
  723SOL     OW 2457   0.220   3.301   0.517
  723SOL    HW1 2458   0.218   3.398   0.542
  723SOL    HW2 2459   0.172   3.247   0.586
  724SOL     OW 2460   0.271   2.949   0.897
  724SOL    HW1 2461   0.278   2.862   0.947
  724SOL    HW2 2462   0.212   3.012   0.947
  725SOL     OW 2463   0.602   3.656   1.440
  725SOL    HW1 2464   0.513   3.638   1.481
  725SOL    HW2 2465   0.628   3.751   1.456
  726SOL     OW 2466   0.594   2.821   0.144
  726SOL    HW1 2467   0.535   2.888   0.099
  726SOL    HW2 2468   0.644   2.865   0.218
  727SOL     OW 2469   1.598   1.988   1.468
  727SOL    HW1 2470   1.628   2.066   1.413
  727SOL    HW2 2471   1.576   2.019   1.560
  728SOL     OW 2472   0.140   2.506   0.596
  728SOL    HW1 2473   0.092   2.420   0.583
  728SOL    HW2 2474   0.081   2.571   0.643
  729SOL     OW 2475   1.858   3.609   0.335
  729SOL    HW1 2476   1.930   3.575   0.395
  729SOL    HW2 2477   1.866   3.708   0.325
  730SOL     OW 2478   5.967   3.419   0.097
  730SOL    HW1 2479   5.976   3.321   0.112
  730SOL    HW2 2480   5.984   3.468   0.183
  731SOL     OW 2481   1.697   2.770   0.660
  731SOL    HW1 2482   1.783   2.722   0.648
  731SOL    HW2 2483   1.675   2.821   0.577
  732SOL     OW 2484   1.629   2.958   0.465
  732SOL    HW1 2485   1.658   3.015   0.388
  732SOL    HW2 2486   1.641   3.008   0.551
  733SOL     OW 2487   0.086   2.611   1.687
  733SOL    HW1 2488   0.149   2.643   1.758
  733SOL    HW2 2489   0.117   2.643   1.598
  734SOL     OW 2490   0.672   3.219   0.705
  734SOL    HW1 2491   0.604   3.151   0.731
  734SOL    HW2 2492   0.641   3.268   0.624
  735SOL     OW 2493   1.283   3.091   1.423
  735SOL    HW1 2494   1.308   3.021   1.356
  735SOL    HW2 2495   1.347   3.087   1.500
  736SOL     OW 2496   0.826   1.878   0.515
  736SOL    HW1 2497   0.873   1.963   0.491
  736SOL    HW2 2498   0.728   1.895   0.522
  737SOL     OW 2499   0.203   2.826   1.236
  737SOL    HW1 2500   0.295   2.795   1.213
  737SOL    HW2 2501   0.137   2.788   1.171
  738SOL     OW 2502   1.456   2.895   0.225
  738SOL    HW1 2503   1.388   2.832   0.261
  738SOL    HW2 2504   1.528   2.909   0.293
  739SOL     OW 2505   1.184   3.681   1.627
  739SOL    HW1 2506   1.185   3.751   1.555
  739SOL    HW2 2507   1.200   3.591   1.586
  740SOL     OW 2508   0.330   2.095   1.865
  740SOL    HW1 2509   0.381   2.181   1.875
  740SOL    HW2 2510   0.232   2.115   1.862
  741SOL     OW 2511   1.469   3.282   0.945
  741SOL    HW1 2512   1.402   3.304   1.015
  741SOL    HW2 2513   1.459   3.186   0.918
  742SOL     OW 2514   1.646   3.617   0.580
  742SOL    HW1 2515   1.628   3.588   0.486
  742SOL    HW2 2516   1.628   3.542   0.643
  743SOL     OW 2517   0.598   2.579   0.280
  743SOL    HW1 2518   0.607   2.666   0.232
  743SOL    HW2 2519   0.531   2.588   0.354
  744SOL     OW 2520   1.278   2.232   0.937
  744SOL    HW1 2521   1.185   2.197   0.942
  744SOL    HW2 2522   1.338   2.179   0.997
  745SOL     OW 2523   1.591   3.540   0.315
  745SOL    HW1 2524   1.689   3.557   0.314
  745SOL    HW2 2525   1.558   3.525   0.222
  746SOL     OW 2526   0.792   2.470   1.446
  746SOL    HW1 2527   0.765   2.445   1.539
  746SOL    HW2 2528   0.759   2.401   1.382
  747SOL     OW 2529   1.389   2.332   1.678
  747SOL    HW1 2530   1.391   2.382   1.765
  747SOL    HW2 2531   1.447   2.250   1.685
  748SOL     OW 2532   0.950   2.745   1.584
  748SOL    HW1 2533   1.008   2.674   1.543
  748SOL    HW2 2534   0.899   2.792   1.512
  749SOL     OW 2535   0.996   2.260   1.220
  749SOL    HW1 2536   0.902   2.279   1.249
  749SOL    HW2 2537   0.994   2.213   1.132
  750SOL     OW 2538   1.054   2.554   0.431
  750SOL    HW1 2539   1.076   2.554   0.529
  750SOL    HW2 2540   0.967   2.506   0.417
  751SOL     OW 2541   0.072   2.692   0.803
  751SOL    HW1 2542   0.152   2.666   0.857
  751SOL    HW2 2543   0.099   2.759   0.734
  752SOL     OW 2544   0.120   3.746   1.583
  752SOL    HW1 2545   0.125   3.712   1.677
  752SOL    HW2 2546   0.034   3.715   1.542
  753SOL     OW 2547   0.886   2.204   0.213
  753SOL    HW1 2548   0.938   2.268   0.157
  753SOL    HW2 2549   0.883   2.114   0.168
  754SOL     OW 2550   1.691   2.433   1.829
  754SOL    HW1 2551   1.662   2.514   1.777
  754SOL    HW2 2552   1.722   2.362   1.765
  755SOL     OW 2553   1.367   3.007   0.539
  755SOL    HW1 2554   1.456   2.991   0.495
  755SOL    HW2 2555   1.317   3.077   0.488
  756SOL     OW 2556   0.543   2.028   0.908
  756SOL    HW1 2557   0.550   2.059   1.003
  756SOL    HW2 2558   0.548   2.106   0.846
  757SOL     OW 2559   0.991   3.312   0.461
  757SOL    HW1 2560   0.963   3.394   0.411
  757SOL    HW2 2561   0.961   3.319   0.556
  758SOL     OW 2562   0.333   3.728   0.897
  758SOL    HW1 2563   0.374   3.637   0.896
  758SOL    HW2 2564   0.405   3.797   0.903
  759SOL     OW 2565   1.801   2.911   0.884
  759SOL    HW1 2566   1.751   2.889   0.800
  759SOL    HW2 2567   1.737   2.921   0.960
  760SOL     OW 2568   1.224   3.399   1.514
  760SOL    HW1 2569   1.212   3.323   1.578
  760SOL    HW2 2570   1.151   3.398   1.446
  761SOL     OW 2571   0.302   2.817   0.264
  761SOL    HW1 2572   0.344   2.867   0.189
  761SOL    HW2 2573   0.322   2.719   0.255
  762SOL     OW 2574   1.483   2.613   0.720
  762SOL    HW1 2575   1.479   2.569   0.810
  762SOL    HW2 2576   1.565   2.670   0.715
  763SOL     OW 2577   0.473   3.125   1.735
  763SOL    HW1 2578   0.451   3.133   1.638
  763SOL    HW2 2579   0.388   3.126   1.788
  764SOL     OW 2580   1.110   3.646   0.214
  764SOL    HW1 2581   1.043   3.601   0.274
  764SOL    HW2 2582   1.160   3.577   0.162
  765SOL     OW 2583   0.201   2.138   1.496
  765SOL    HW1 2584   0.123   2.196   1.472
  765SOL    HW2 2585   0.167   2.052   1.534
  766SOL     OW 2586   1.607   3.240   0.059
  766SOL    HW1 2587   1.591   3.339   0.052
  766SOL    HW2 2588   1.522   3.192   0.037
  767SOL     OW 2589   0.473   3.595   0.342
  767SOL    HW1 2590   0.520   3.656   0.406
  767SOL    HW2 2591   0.538   3.561   0.274
  768SOL     OW 2592   1.407   1.965   0.441
  768SOL    HW1 2593   1.400   1.941   0.344
  768SOL    HW2 2594   1.503   1.980   0.465
  769SOL     OW 2595   0.266   3.636   1.210
  769SOL    HW1 2596   0.312   3.561   1.259
  769SOL    HW2 2597   0.288   3.630   1.113
  770SOL     OW 2598   0.944   3.560   0.893
  770SOL    HW1 2599   1.020   3.506   0.929
  770SOL    HW2 2600   0.900   3.510   0.819
  771SOL     OW 2601   0.394   2.547   0.476
  771SOL    HW1 2602   0.421   2.451   0.484
  771SOL    HW2 2603   0.300   2.558   0.509
  772SOL     OW 2604   1.518   2.084   1.725
  772SOL    HW1 2605   1.530   2.103   1.822
  772SOL    HW2 2606   1.447   2.015   1.714
  773SOL     OW 2607   0.628   1.951   0.092
  773SOL    HW1 2608   0.728   1.954   0.096
  773SOL    HW2 2609   0.596   2.019   0.026
  774SOL     OW 2610   0.762   2.137   1.758
  774SOL    HW1 2611   0.849   2.088   1.750
  774SOL    HW2 2612   0.711   2.100   1.835
  775SOL     OW 2613   0.875   3.377   1.198
  775SOL    HW1 2614   0.854   3.340   1.108
  775SOL    HW2 2615   0.947   3.321   1.241
  776SOL     OW 2616   1.336   2.451   1.435
  776SOL    HW1 2617   1.367   2.417   1.524
  776SOL    HW2 2618   1.372   2.543   1.421
  777SOL     OW 2619   0.825   3.246   0.956
  777SOL    HW1 2620   0.911   3.236   0.906
  777SOL    HW2 2621   0.751   3.263   0.891
  778SOL     OW 2622   0.927   2.368   0.895
  778SOL    HW1 2623   0.900   2.360   0.799
  778SOL    HW2 2624   0.958   2.279   0.928
  779SOL     OW 2625   0.560   1.936   0.502
  779SOL    HW1 2626   0.480   1.934   0.562
  779SOL    HW2 2627   0.552   2.012   0.438
  780SOL     OW 2628   1.390   3.080   0.034
  780SOL    HW1 2629   1.415   3.008   0.099
  780SOL    HW2 2630   1.308   3.127   0.067
  781SOL     OW 2631   0.953   2.113   0.462
  781SOL    HW1 2632   0.922   2.151   0.374
  781SOL    HW2 2633   1.052   2.127   0.471
  782SOL     OW 2634   1.077   2.547   1.451
  782SOL    HW1 2635   1.004   2.480   1.455
  782SOL    HW2 2636   1.165   2.500   1.447
  783SOL     OW 2637   1.222   3.429   0.792
  783SOL    HW1 2638   1.227   3.499   0.722
  783SOL    HW2 2639   1.287   3.450   0.866
  784SOL     OW 2640   0.482   3.016   0.720
  784SOL    HW1 2641   0.410   3.016   0.790
  784SOL    HW2 2642   0.440   3.024   0.630
  785SOL     OW 2643   1.257   3.654   0.611
  785SOL    HW1 2644   1.310   3.720   0.558
  785SOL    HW2 2645   1.180   3.700   0.654
  786SOL     OW 2646   1.023   2.391   0.070
  786SOL    HW1 2647   0.949   2.426   0.012
  786SOL    HW2 2648   1.051   2.461   0.135
  787SOL     OW 2649   0.094   2.404   1.394
  787SOL    HW1 2650   0.186   2.411   1.357
  787SOL    HW2 2651   0.069   2.490   1.439
  788SOL     OW 2652   0.557   2.084   1.178
  788SOL    HW1 2653   0.608   2.014   1.227
  788SOL    HW2 2654   0.461   2.081   1.205
  789SOL     OW 2655   0.866   2.320   0.635
  789SOL    HW1 2656   0.817   2.380   0.572
  789SOL    HW2 2657   0.896   2.238   0.585
  790SOL     OW 2658   1.019   1.915   0.741
  790SOL    HW1 2659   0.957   1.914   0.663
  790SOL    HW2 2660   0.995   1.840   0.804
  791SOL     OW 2661   1.448   3.021   0.865
  791SOL    HW1 2662   1.365   2.964   0.861
  791SOL    HW2 2663   1.484   3.033   0.773
  792SOL     OW 2664   1.468   2.471   0.962
  792SOL    HW1 2665   1.402   2.396   0.965
  792SOL    HW2 2666   1.528   2.466   1.042
  793SOL     OW 2667   1.856   2.672   0.393
  793SOL    HW1 2668   1.917   2.636   0.464
  793SOL    HW2 2669   1.832   2.598   0.330
  794SOL     OW 2670   0.485   3.275   0.156
  794SOL    HW1 2671   0.403   3.252   0.208
  794SOL    HW2 2672   0.511   3.197   0.098
  795SOL     OW 2673   1.676   3.120   0.672
  795SOL    HW1 2674   1.776   3.118   0.670
  795SOL    HW2 2675   1.644   3.215   0.677
  796SOL     OW 2676   1.394   2.429   0.102
  796SOL    HW1 2677   1.334   2.419   0.181
  796SOL    HW2 2678   1.447   2.345   0.090
  797SOL     OW 2679   0.517   2.116   0.297
  797SOL    HW1 2680   0.566   2.061   0.230
  797SOL    HW2 2681   0.501   2.207   0.261
  798SOL     OW 2682   1.750   3.104   1.548
  798SOL    HW1 2683   1.839   3.063   1.530
  798SOL    HW2 2684   1.762   3.197   1.584
  799SOL     OW 2685   1.048   3.208   1.336
  799SOL    HW1 2686   0.966   3.180   1.386
  799SOL    HW2 2687   1.129   3.168   1.380
  800SOL     OW 2688   1.617   3.495   1.663
  800SOL    HW1 2689   1.597   3.530   1.571
  800SOL    HW2 2690   1.701   3.441   1.660
  801SOL     OW 2691   1.144   3.092   1.103
  801SOL    HW1 2692   1.082   3.125   1.174
  801SOL    HW2 2693   1.111   3.123   1.014
  802SOL     OW 2694   1.620   2.957   1.082
  802SOL    HW1 2695   1.614   3.024   1.156
  802SOL    HW2 2696   1.548   2.975   1.016
  803SOL     OW 2697   0.925   1.951   1.388
  803SOL    HW1 2698   0.946   1.929   1.293
  803SOL    HW2 2699   1.004   1.996   1.430
  804SOL     OW 2700   0.978   2.975   1.722
  804SOL    HW1 2701   0.884   2.996   1.749
  804SOL    HW2 2702   0.979   2.893   1.666
  805SOL     OW 2703   0.721   2.921   0.370
  805SOL    HW1 2704   0.696   2.908   0.466
  805SOL    HW2 2705   0.794   2.856   0.346
  806SOL     OW 2706   0.439   2.682   1.244
  806SOL    HW1 2707   0.510   2.697   1.312
  806SOL    HW2 2708   0.398   2.592   1.259
  807SOL     OW 2709   1.260   2.235   1.286
  807SOL    HW1 2710   1.295   2.316   1.333
  807SOL    HW2 2711   1.165   2.251   1.258
  808SOL     OW 2712   0.079   3.451   1.335
  808SOL    HW1 2713   0.100   3.513   1.259
  808SOL    HW2 2714   0.165   3.424   1.379
  809SOL     OW 2715   0.386   3.002   0.459
  809SOL    HW1 2716   0.359   3.087   0.413
  809SOL    HW2 2717   0.364   2.924   0.400
  810SOL     OW 2718   0.556   2.395   0.860
  810SOL    HW1 2719   0.562   2.457   0.782
  810SOL    HW2 2720   0.623   2.421   0.929
  811SOL     OW 2721   1.251   3.223   0.402
  811SOL    HW1 2722   1.306   3.299   0.438
  811SOL    HW2 2723   1.155   3.237   0.426
  812SOL     OW 2724   1.295   3.328   1.146
  812SOL    HW1 2725   1.349   3.333   1.229
  812SOL    HW2 2726   1.240   3.244   1.146
  813SOL     OW 2727   1.565   2.479   0.488
  813SOL    HW1 2728   1.519   2.523   0.565
  813SOL    HW2 2729   1.598   2.549   0.424
  814SOL     OW 2730   0.358   3.387   1.314
  814SOL    HW1 2731   0.337   3.330   1.235
  814SOL    HW2 2732   0.457   3.405   1.317
  815SOL     OW 2733   0.441   2.595   1.591
  815SOL    HW1 2734   0.513   2.640   1.538
  815SOL    HW2 2735   0.469   2.502   1.615
  816SOL     OW 2736   1.615   2.651   1.688
  816SOL    HW1 2737   1.524   2.692   1.683
  816SOL    HW2 2738   1.673   2.689   1.616
  817SOL     OW 2739   0.998   2.001   1.752
  817SOL    HW1 2740   1.055   2.082   1.738
  817SOL    HW2 2741   1.048   1.919   1.725
  818SOL     OW 2742   0.489   1.896   1.758
  818SOL    HW1 2743   0.446   1.843   1.685
  818SOL    HW2 2744   0.429   1.972   1.784
  819SOL     OW 2745   0.600   2.739   1.028
  819SOL    HW1 2746   0.636   2.832   1.026
  819SOL    HW2 2747   0.539   2.729   1.107
  820SOL     OW 2748   1.339   2.716   1.021
  820SOL    HW1 2749   1.248   2.704   0.982
  820SOL    HW2 2750   1.393   2.632   1.007
  821SOL     OW 2751   1.216   2.381   0.298
  821SOL    HW1 2752   1.225   2.297   0.351
  821SOL    HW2 2753   1.162   2.447   0.350
  822SOL     OW 2754   0.295   2.047   1.247
  822SOL    HW1 2755   0.259   2.087   1.332
  822SOL    HW2 2756   0.277   1.949   1.247
  823SOL     OW 2757   0.035   3.183   1.271
  823SOL    HW1 2758   0.085   3.129   1.339
  823SOL    HW2 2759   0.048   3.281   1.291
  824SOL     OW 2760   0.726   2.493   1.051
  824SOL    HW1 2761   0.804   2.473   0.991
  824SOL    HW2 2762   0.693   2.586   1.033
  825SOL     OW 2763   1.741   2.825   1.863
  825SOL    HW1 2764   1.701   2.755   1.804
  825SOL    HW2 2765   1.679   2.846   1.938
  826SOL     OW 2766   0.325   1.927   0.641
  826SOL    HW1 2767   0.294   2.021   0.655
  826SOL    HW2 2768   0.328   1.880   0.729
  827SOL     OW 2769   1.632   2.249   0.357
  827SOL    HW1 2770   1.648   2.170   0.416
  827SOL    HW2 2771   1.600   2.327   0.412
  828SOL     OW 2772   1.026   2.614   0.955
  828SOL    HW1 2773   1.016   2.636   1.052
  828SOL    HW2 2774   0.998   2.520   0.940
  829SOL     OW 2775   0.984   3.425   1.719
  829SOL    HW1 2776   0.963   3.472   1.634
  829SOL    HW2 2777   1.031   3.339   1.700
  830SOL     OW 2778   1.852   3.362   1.602
  830SOL    HW1 2779   1.872   3.389   1.508
  830SOL    HW2 2780   1.935   3.370   1.657
  831SOL     OW 2781   0.348   2.758   1.792
  831SOL    HW1 2782   0.424   2.793   1.848
  831SOL    HW2 2783   0.384   2.699   1.720
  832SOL     OW 2784   1.487   2.167   0.133
  832SOL    HW1 2785   1.463   2.070   0.146
  832SOL    HW2 2786   1.545   2.197   0.209
  833SOL     OW 2787   1.284   2.662   0.029
  833SOL    HW1 2788   1.331   2.575   0.047
  833SOL    HW2 2789   1.347   2.725  -0.017
  834SOL     OW 2790   1.075   3.201   0.856
  834SOL    HW1 2791   1.077   3.124   0.792
  834SOL    HW2 2792   1.130   3.276   0.820
  835SOL     OW 2793   0.317   2.670   0.952
  835SOL    HW1 2794   0.411   2.693   0.928
  835SOL    HW2 2795   0.315   2.582   0.998
  836SOL     OW 2796   0.351   2.366   1.025
  836SOL    HW1 2797   0.312   2.274   1.018
  836SOL    HW2 2798   0.428   2.374   0.963
  837SOL     OW 2799   1.134   2.234   1.696
  837SOL    HW1 2800   1.082   2.291   1.760
  837SOL    HW2 2801   1.226   2.272   1.685
  838SOL     OW 2802   1.161   2.062   1.479
  838SOL    HW1 2803   1.146   2.125   1.556
  838SOL    HW2 2804   1.205   2.112   1.404
  839SOL     OW 2805   5.984   3.159   0.197
  839SOL    HW1 2806   5.911   3.192   0.256
  839SOL    HW2 2807   6.003   3.063   0.218
  840SOL     OW 2808   0.063   3.678   0.866
  840SOL    HW1 2809   0.064   3.579   0.877
  840SOL    HW2 2810   0.155   3.714   0.882
  841SOL     OW 2811   0.968   2.651   1.219
  841SOL    HW1 2812   1.028   2.630   1.296
  841SOL    HW2 2813   0.878   2.609   1.234
  842SOL     OW 2814  -0.019   2.463   1.129
  842SOL    HW1 2815   0.018   2.423   1.045
  842SOL    HW2 2816   0.021   2.417   1.209
  843SOL     OW 2817   0.182   2.359   1.729
  843SOL    HW1 2818   0.225   2.317   1.650
  843SOL    HW2 2819   0.133   2.442   1.701
  844SOL     OW 2820   1.384   2.793   1.651
  844SOL    HW1 2821   1.407   2.890   1.651
  844SOL    HW2 2822   1.378   2.760   1.557
  845SOL     OW 2823   0.820   2.434   0.365
  845SOL    HW1 2824   0.823   2.350   0.310
  845SOL    HW2 2825   0.743   2.491   0.336
  846SOL     OW 2826   1.641   2.464   1.175
  846SOL    HW1 2827   1.625   2.405   1.254
  846SOL    HW2 2828   1.734   2.449   1.141
  847SOL     OW 2829   0.287   3.413   1.733
  847SOL    HW1 2830   0.229   3.482   1.777
  847SOL    HW2 2831   0.261   3.322   1.764
  848SOL     OW 2832   0.718   2.305   1.245
  848SOL    HW1 2833   0.655   2.230   1.224
  848SOL    HW2 2834   0.711   2.375   1.174
  849SOL     OW 2835   0.921   3.540   1.472
  849SOL    HW1 2836   0.891   3.491   1.390
  849SOL    HW2 2837   0.916   3.638   1.455
  850SOL     OW 2838   0.463   2.358   0.198
  850SOL    HW1 2839   0.526   2.430   0.224
  850SOL    HW2 2840   0.376   2.398   0.169
  851SOL     OW 2841   0.167   3.013   1.441
  851SOL    HW1 2842   0.142   2.971   1.528
  851SOL    HW2 2843   0.174   2.941   1.371
  852SOL     OW 2844   1.308   2.903   1.215
  852SOL    HW1 2845   1.332   2.835   1.146
  852SOL    HW2 2846   1.247   2.971   1.175
  853SOL     OW 2847   1.277   2.710   0.308
  853SOL    HW1 2848   1.209   2.663   0.365
  853SOL    HW2 2849   1.271   2.675   0.215
  854SOL     OW 2850   1.787   3.582   1.164
  854SOL    HW1 2851   1.848   3.617   1.093
  854SOL    HW2 2852   1.752   3.493   1.138
  855SOL     OW 2853   1.233   3.594   1.096
  855SOL    HW1 2854   1.320   3.627   1.060
  855SOL    HW2 2855   1.243   3.498   1.123
  856SOL     OW 2856   0.084   3.111   1.017
  856SOL    HW1 2857   0.061   3.138   1.110
  856SOL    HW2 2858   0.008   3.060   0.978
  857SOL     OW 2859   0.684   3.543   1.744
  857SOL    HW1 2860   0.613   3.613   1.736
  857SOL    HW2 2861   0.752   3.557   1.673
  858SOL     OW 2862   0.914   1.946   0.091
  858SOL    HW1 2863   0.975   1.986   0.023
  858SOL    HW2 2864   0.967   1.890   0.154
  859SOL     OW 2865   1.691   2.013   0.495
  859SOL    HW1 2866   1.777   2.011   0.444
  859SOL    HW2 2867   1.680   1.927   0.545
  860SOL     OW 2868   1.399   3.439   0.496
  860SOL    HW1 2869   1.460   3.473   0.424
  860SOL    HW2 2870   1.343   3.515   0.530
  861SOL     OW 2871   0.141   3.633   1.831
  861SOL    HW1 2872   0.079   3.565   1.871
  861SOL    HW2 2873   0.190   3.680   1.905
  862SOL     OW 2874   1.281   2.790   0.669
  862SOL    HW1 2875   1.358   2.728   0.683
  862SOL    HW2 2876   1.310   2.868   0.613
  863SOL     OW 2877   0.793   3.145   1.425
  863SOL    HW1 2878   0.766   3.190   1.510
  863SOL    HW2 2879   0.723   3.160   1.356
  864SOL     OW 2880   0.662   3.476   0.169
  864SOL    HW1 2881   0.661   3.504   0.073
  864SOL    HW2 2882   0.607   3.394   0.181
  865SOL     OW 2883   1.615   3.590   1.390
  865SOL    HW1 2884   1.674   3.587   1.310
  865SOL    HW2 2885   1.601   3.684   1.419
  866SOL     OW 2886   1.843   2.027   0.963
  866SOL    HW1 2887   1.877   1.936   0.943
  866SOL    HW2 2888   1.752   2.038   0.924
  867SOL     OW 2889   0.258   2.177   0.715
  867SOL    HW1 2890   0.172   2.212   0.679
  867SOL    HW2 2891   0.251   2.168   0.815
  868SOL     OW 2892   1.238   3.470   0.047
  868SOL    HW1 2893   1.209   3.377   0.069
  868SOL    HW2 2894   1.187   3.503  -0.033
  869SOL     OW 2895   0.827   2.878   1.381
  869SOL    HW1 2896   0.871   2.866   1.292
  869SOL    HW2 2897   0.815   2.976   1.399
  870SOL     OW 2898   0.913   2.750   0.297
  870SOL    HW1 2899   0.963   2.772   0.213
  870SOL    HW2 2900   0.965   2.683   0.350
  871SOL     OW 2901   1.503   3.516   0.052
  871SOL    HW1 2902   1.406   3.493   0.045
  871SOL    HW2 2903   1.539   3.537  -0.039
  872SOL     OW 2904   0.385   3.167   1.488
  872SOL    HW1 2905   0.380   3.250   1.433
  872SOL    HW2 2906   0.306   3.109   1.468
  873SOL     OW 2907   1.612   3.149   1.287
  873SOL    HW1 2908   1.671   3.126   1.365
  873SOL    HW2 2909   1.544   3.217   1.316
  874SOL     OW 2910   1.068   2.969   0.716
  874SOL    HW1 2911   0.990   2.921   0.757
  874SOL    HW2 2912   1.138   2.903   0.689
  875SOL     OW 2913   1.026   2.103   0.966
  875SOL    HW1 2914   1.023   2.061   0.875
  875SOL    HW2 2915   1.022   2.031   1.036
  876SOL     OW 2916   0.625   3.354   0.469
  876SOL    HW1 2917   0.667   3.296   0.399
  876SOL    HW2 2918   0.537   3.389   0.436
  877SOL     OW 2919   1.740   2.253   1.384
  877SOL    HW1 2920   1.812   2.322   1.383
  877SOL    HW2 2921   1.763   2.179   1.320
  878SOL     OW 2922   0.258   3.198   0.279
  878SOL    HW1 2923   0.168   3.181   0.239
  878SOL    HW2 2924   0.247   3.242   0.368
  879SOL     OW 2925   0.135   2.916   1.727
  879SOL    HW1 2926   0.056   2.859   1.745
  879SOL    HW2 2927   0.219   2.866   1.750
  880SOL     OW 2928   0.686   2.053   1.499
  880SOL    HW1 2929   0.773   2.028   1.455
  880SOL    HW2 2930   0.704   2.089   1.591
  881SOL     OW 2931   0.055   2.249   0.079
  881SOL    HW1 2932   0.026   2.176   0.018
  881SOL    HW2 2933   0.140   2.289   0.046
  882SOL     OW 2934   1.418   2.716   1.391
  882SOL    HW1 2935   1.360   2.779   1.338
  882SOL    HW2 2936   1.511   2.719   1.355
  883SOL     OW 2937   0.075   2.114   0.319
  883SOL    HW1 2938   0.070   2.176   0.241
  883SOL    HW2 2939   0.154   2.054   0.308
  884SOL     OW 2940   1.175   3.217   0.127
  884SOL    HW1 2941   1.077   3.201   0.113
  884SOL    HW2 2942   1.197   3.203   0.223
  885SOL     OW 2943   0.636   2.692   1.429
  885SOL    HW1 2944   0.692   2.774   1.418
  885SOL    HW2 2945   0.695   2.611   1.437
  886SOL     OW 2946   1.483   3.664   0.996
  886SOL    HW1 2947   1.506   3.731   0.925
  886SOL    HW2 2948   1.565   3.616   1.025
  887SOL     OW 2949   0.721   2.414   1.699
  887SOL    HW1 2950   0.768   2.480   1.758
  887SOL    HW2 2951   0.737   2.322   1.733
  888SOL     OW 2952   1.476   3.052   1.632
  888SOL    HW1 2953   1.462   3.069   1.730
  888SOL    HW2 2954   1.571   3.075   1.608
  889SOL     OW 2955   0.367   3.613   1.567
  889SOL    HW1 2956   0.280   3.659   1.549
  889SOL    HW2 2957   0.350   3.527   1.614
  890SOL     OW 2958   1.660   2.738   1.257
  890SOL    HW1 2959   1.657   2.648   1.213
  890SOL    HW2 2960   1.647   2.809   1.187
  891SOL     OW 2961   1.222   2.168   0.471
  891SOL    HW1 2962   1.289   2.094   0.461
  891SOL    HW2 2963   1.248   2.225   0.549
  892SOL     OW 2964   0.580   2.595   0.674
  892SOL    HW1 2965   0.625   2.684   0.663
  892SOL    HW2 2966   0.514   2.582   0.600
  893SOL     OW 2967   1.745   2.224   1.658
  893SOL    HW1 2968   1.741   2.241   1.560
  893SOL    HW2 2969   1.668   2.166   1.685
  894SOL     OW 2970   1.760   2.791   1.507
  894SOL    HW1 2971   1.744   2.888   1.529
  894SOL    HW2 2972   1.734   2.774   1.413
  895SOL     OW 2973   0.905   3.245   0.051
  895SOL    HW1 2974   0.851   3.224   0.132
  895SOL    HW2 2975   0.887   3.339   0.022
  896SOL     OW 2976   0.725   3.732   1.013
  896SOL    HW1 2977   0.660   3.773   0.950
  896SOL    HW2 2978   0.752   3.642   0.979
  897SOL     OW 2979   0.874   2.834   0.854
  897SOL    HW1 2980   0.923   2.756   0.892
  897SOL    HW2 2981   0.826   2.882   0.928
  898SOL     OW 2982   1.066   2.819   0.082
  898SOL    HW1 2983   1.051   2.888   0.011
  898SOL    HW2 2984   1.146   2.764   0.058
  899SOL     OW 2985   1.836   3.419   0.847
  899SOL    HW1 2986   1.759   3.408   0.785
  899SOL    HW2 2987   1.829   3.352   0.921
  900SOL     OW 2988   0.226   3.157   1.843
  900SOL    HW1 2989   0.176   3.088   1.791
  900SOL    HW2 2990   0.190   3.162   1.936
  901SOL     OW 2991   0.102   3.112   0.680
  901SOL    HW1 2992   0.049   3.079   0.758
  901SOL    HW2 2993   0.147   3.035   0.635
  902SOL     OW 2994   0.690   3.274   1.646
  902SOL    HW1 2995   0.605   3.228   1.671
  902SOL    HW2 2996   0.686   3.369   1.677
  903SOL     OW 2997   1.802   2.041   1.233
  903SOL    HW1 2998   1.814   1.944   1.256
  903SOL    HW2 2999   1.817   2.053   1.134
  904SOL     OW 3000   0.438   2.287   0.525
  904SOL    HW1 3001   0.459   2.216   0.457
  904SOL    HW2 3002   0.381   2.247   0.597
  905SOL     OW 3003   1.692   3.340   1.094
  905SOL    HW1 3004   1.613   3.324   1.035
  905SOL    HW2 3005   1.695   3.270   1.165
  906SOL     OW 3006   0.347   2.428   1.292
  906SOL    HW1 3007   0.398   2.367   1.353
  906SOL    HW2 3008   0.356   2.395   1.198
  907SOL     OW 3009   0.835   3.433   0.680
  907SOL    HW1 3010   0.788   3.491   0.613
  907SOL    HW2 3011   0.778   3.354   0.701
  908SOL     OW 3012   1.428   2.096   1.117
  908SOL    HW1 3013   1.444   2.002   1.149
  908SOL    HW2 3014   1.375   2.145   1.186
  909SOL     OW 3015   1.010   1.877   1.131
  909SOL    HW1 3016   0.947   1.816   1.083
  909SOL    HW2 3017   1.101   1.835   1.133
  910SOL     OW 3018   0.782   3.188   0.302
  910SOL    HW1 3019   0.754   3.094   0.320
  910SOL    HW2 3020   0.867   3.208   0.351
  911SOL     OW 3021   0.628   3.422   1.300
  911SOL    HW1 3022   0.625   3.509   1.350
  911SOL    HW2 3023   0.717   3.413   1.254
  912SOL     OW 3024   1.366   1.911   0.172
  912SOL    HW1 3025   1.409   1.837   0.120
  912SOL    HW2 3026   1.269   1.891   0.185
  913SOL     OW 3027   1.287   2.328   0.680
  913SOL    HW1 3028   1.236   2.414   0.680
  913SOL    HW2 3029   1.287   2.290   0.773
  914SOL     OW 3030   1.584   2.061   0.889
  914SOL    HW1 3031   1.529   2.085   0.968
  914SOL    HW2 3032   1.587   2.139   0.826
  915SOL     OW 3033   0.044   2.905   0.280
  915SOL    HW1 3034   0.141   2.880   0.275
  915SOL    HW2 3035   0.001   2.856   0.355
  916SOL     OW 3036   0.888   3.537   0.335
  916SOL    HW1 3037   0.805   3.507   0.288
  916SOL    HW2 3038   0.864   3.606   0.403
  917SOL     OW 3039   0.211   2.477   1.981
  917SOL    HW1 3040   0.117   2.487   2.013
  917SOL    HW2 3041   0.211   2.439   1.888
  918SOL     OW 3042   0.217   2.130   2.859
  918SOL    HW1 3043   0.244   2.093   2.948
  918SOL    HW2 3044   0.118   2.121   2.848
  919SOL     OW 3045   6.010   2.253   2.469
  919SOL    HW1 3046   5.923   2.265   2.516
  919SOL    HW2 3047   5.995   2.202   2.384
  920SOL     OW 3048   0.578   3.165   3.063
  920SOL    HW1 3049   0.487   3.160   3.021
  920SOL    HW2 3050   0.595   3.258   3.094
  921SOL     OW 3051   1.574   3.378   2.567
  921SOL    HW1 3052   1.529   3.352   2.652
  921SOL    HW2 3053   1.507   3.386   2.494
  922SOL     OW 3054   1.137   2.567   2.553
  922SOL    HW1 3055   1.188   2.652   2.536
  922SOL    HW2 3056   1.086   2.576   2.638
  923SOL     OW 3057   1.778   2.453   2.081
  923SOL    HW1 3058   1.748   2.453   1.986
  923SOL    HW2 3059   1.738   2.375   2.129
  924SOL     OW 3060   0.734   2.999   2.906
  924SOL    HW1 3061   0.672   3.036   2.974
  924SOL    HW2 3062   0.780   3.074   2.858
  925SOL     OW 3063   0.879   2.617   3.686
  925SOL    HW1 3064   0.853   2.684   3.755
  925SOL    HW2 3065   0.900   2.664   3.600
  926SOL     OW 3066   0.685   2.855   2.510
  926SOL    HW1 3067   0.758   2.848   2.578
  926SOL    HW2 3068   0.616   2.921   2.542
  927SOL     OW 3069   0.716   3.016   3.689
  927SOL    HW1 3070   0.768   3.094   3.724
  927SOL    HW2 3071   0.633   3.050   3.645
  928SOL     OW 3072   0.340   3.268   2.935
  928SOL    HW1 3073   0.257   3.229   2.896
  928SOL    HW2 3074   0.386   3.324   2.866
  929SOL     OW 3075   1.458   3.363   3.229
  929SOL    HW1 3076   1.514   3.445   3.233
  929SOL    HW2 3077   1.381   3.372   3.293
  930SOL     OW 3078   0.453   2.251   3.337
  930SOL    HW1 3079   0.532   2.191   3.344
  930SOL    HW2 3080   0.370   2.200   3.355
  931SOL     OW 3081   1.602   2.306   2.605
  931SOL    HW1 3082   1.528   2.311   2.537
  931SOL    HW2 3083   1.609   2.393   2.653
  932SOL     OW 3084   0.250   3.573   2.357
  932SOL    HW1 3085   0.265   3.655   2.412
  932SOL    HW2 3086   0.323   3.565   2.289
  933SOL     OW 3087   1.138   3.198   3.561
  933SOL    HW1 3088   1.167   3.203   3.657
  933SOL    HW2 3089   1.083   3.116   3.547
  934SOL     OW 3090   0.251   3.300   2.401
  934SOL    HW1 3091   0.230   3.398   2.405
  934SOL    HW2 3092   0.185   3.250   2.457
  935SOL     OW 3093   0.285   2.950   2.764
  935SOL    HW1 3094   0.284   2.864   2.814
  935SOL    HW2 3095   0.222   3.014   2.806
  936SOL     OW 3096   0.596   3.660   3.289
  936SOL    HW1 3097   0.511   3.639   3.336
  936SOL    HW2 3098   0.628   3.751   3.317
  937SOL     OW 3099   0.578   2.853   2.010
  937SOL    HW1 3100   0.624   2.899   1.934
  937SOL    HW2 3101   0.620   2.882   2.097
  938SOL     OW 3102   1.588   1.979   3.323
  938SOL    HW1 3103   1.617   2.046   3.254
  938SOL    HW2 3104   1.571   2.026   3.410
  939SOL     OW 3105   0.141   2.505   2.464
  939SOL    HW1 3106   0.092   2.420   2.445
  939SOL    HW2 3107   0.079   2.570   2.509
  940SOL     OW 3108   1.848   3.614   2.191
  940SOL    HW1 3109   1.921   3.588   2.254
  940SOL    HW2 3110   1.860   3.710   2.165
  941SOL     OW 3111   0.012   3.437   1.964
  941SOL    HW1 3112   0.010   3.338   1.979
  941SOL    HW2 3113   0.003   3.484   2.052
  942SOL     OW 3114   1.683   2.785   2.510
  942SOL    HW1 3115   1.770   2.738   2.504
  942SOL    HW2 3116   1.667   2.837   2.426
  943SOL     OW 3117   1.656   2.966   2.296
  943SOL    HW1 3118   1.745   2.960   2.251
  943SOL    HW2 3119   1.661   3.032   2.371
  944SOL     OW 3120   0.085   2.609   3.542
  944SOL    HW1 3121   0.145   2.641   3.615
  944SOL    HW2 3122   0.117   2.644   3.454
  945SOL     OW 3123   0.618   3.265   2.593
  945SOL    HW1 3124   0.576   3.175   2.604
  945SOL    HW2 3125   0.604   3.296   2.499
  946SOL     OW 3126   1.281   3.090   3.281
  946SOL    HW1 3127   1.305   3.024   3.210
  946SOL    HW2 3128   1.352   3.091   3.351
  947SOL     OW 3129   0.825   1.878   2.373
  947SOL    HW1 3130   0.871   1.963   2.347
  947SOL    HW2 3131   0.726   1.893   2.376
  948SOL     OW 3132   0.198   2.829   3.081
  948SOL    HW1 3133   0.291   2.793   3.069
  948SOL    HW2 3134   0.133   2.765   3.041
  949SOL     OW 3135   1.533   2.868   2.068
  949SOL    HW1 3136   1.460   2.807   2.096
  949SOL    HW2 3137   1.580   2.904   2.148
  950SOL     OW 3138   1.183   3.681   3.489
  950SOL    HW1 3139   1.186   3.752   3.419
  950SOL    HW2 3140   1.201   3.592   3.447
  951SOL     OW 3141   0.331   2.097   3.727
  951SOL    HW1 3142   0.380   2.184   3.737
  951SOL    HW2 3143   0.232   2.115   3.725
  952SOL     OW 3144   1.465   3.284   2.801
  952SOL    HW1 3145   1.400   3.303   2.875
  952SOL    HW2 3146   1.456   3.188   2.774
  953SOL     OW 3147   1.645   3.626   2.433
  953SOL    HW1 3148   1.626   3.594   2.341
  953SOL    HW2 3149   1.631   3.552   2.498
  954SOL     OW 3150   0.592   2.579   2.139
  954SOL    HW1 3151   0.599   2.667   2.090
  954SOL    HW2 3152   0.523   2.587   2.211
  955SOL     OW 3153   1.279   2.236   2.799
  955SOL    HW1 3154   1.186   2.199   2.803
  955SOL    HW2 3155   1.338   2.181   2.858
  956SOL     OW 3156   1.583   3.536   2.172
  956SOL    HW1 3157   1.680   3.559   2.167
  956SOL    HW2 3158   1.548   3.521   2.079
  957SOL     OW 3159   0.795   2.469   3.308
  957SOL    HW1 3160   0.768   2.444   3.400
  957SOL    HW2 3161   0.761   2.401   3.243
  958SOL     OW 3162   1.383   2.335   3.545
  958SOL    HW1 3163   1.389   2.386   3.631
  958SOL    HW2 3164   1.440   2.253   3.551
  959SOL     OW 3165   0.951   2.744   3.449
  959SOL    HW1 3166   1.006   2.672   3.407
  959SOL    HW2 3167   0.899   2.791   3.377
  960SOL     OW 3168   0.997   2.259   3.081
  960SOL    HW1 3169   0.903   2.277   3.109
  960SOL    HW2 3170   0.997   2.212   2.992
  961SOL     OW 3171   1.053   2.559   2.285
  961SOL    HW1 3172   1.076   2.556   2.383
  961SOL    HW2 3173   0.966   2.513   2.270
  962SOL     OW 3174   0.070   2.695   2.666
  962SOL    HW1 3175   0.149   2.664   2.719
  962SOL    HW2 3176   0.099   2.762   2.599
  963SOL     OW 3177   0.121   3.745   3.446
  963SOL    HW1 3178   0.126   3.710   3.540
  963SOL    HW2 3179   0.035   3.715   3.404
  964SOL     OW 3180   0.895   2.216   2.062
  964SOL    HW1 3181   0.939   2.282   2.001
  964SOL    HW2 3182   0.888   2.128   2.015
  965SOL     OW 3183   1.382   3.006   2.390
  965SOL    HW1 3184   1.467   2.992   2.339
  965SOL    HW2 3185   1.325   3.074   2.343
  966SOL     OW 3186   0.543   2.027   2.770
  966SOL    HW1 3187   0.550   2.061   2.863
  966SOL    HW2 3188   0.546   2.104   2.706
  967SOL     OW 3189   0.992   3.310   2.324
  967SOL    HW1 3190   0.963   3.389   2.271
  967SOL    HW2 3191   0.969   3.324   2.420
  968SOL     OW 3192   0.348   3.682   2.755
  968SOL    HW1 3193   0.397   3.595   2.753
  968SOL    HW2 3194   0.414   3.757   2.769
  969SOL     OW 3195   1.786   2.915   2.744
  969SOL    HW1 3196   1.736   2.904   2.658
  969SOL    HW2 3197   1.722   2.920   2.820
  970SOL     OW 3198   1.225   3.397   3.376
  970SOL    HW1 3199   1.211   3.322   3.441
  970SOL    HW2 3200   1.153   3.395   3.307
  971SOL     OW 3201   0.321   2.820   2.114
  971SOL    HW1 3202   0.409   2.845   2.072
  971SOL    HW2 3203   0.294   2.729   2.082
  972SOL     OW 3204   1.484   2.614   2.580
  972SOL    HW1 3205   1.480   2.577   2.673
  972SOL    HW2 3206   1.561   2.677   2.572
  973SOL     OW 3207   0.475   3.123   3.593
  973SOL    HW1 3208   0.453   3.132   3.496
  973SOL    HW2 3209   0.391   3.124   3.647
  974SOL     OW 3210   1.125   3.634   2.089
  974SOL    HW1 3211   1.042   3.600   2.133
  974SOL    HW2 3212   1.154   3.571   2.017
  975SOL     OW 3213   0.201   2.139   3.360
  975SOL    HW1 3214   0.123   2.197   3.333
  975SOL    HW2 3215   0.167   2.053   3.397
  976SOL     OW 3216   1.627   3.247   1.957
  976SOL    HW1 3217   1.590   3.338   1.939
  976SOL    HW2 3218   1.558   3.178   1.935
  977SOL     OW 3219   0.465   3.599   2.179
  977SOL    HW1 3220   0.511   3.662   2.242
  977SOL    HW2 3221   0.533   3.559   2.117
  978SOL     OW 3222   1.399   1.964   2.306
  978SOL    HW1 3223   1.387   1.938   2.210
  978SOL    HW2 3224   1.497   1.970   2.327
  979SOL     OW 3225   0.257   3.639   3.081
  979SOL    HW1 3226   0.303   3.564   3.129
  979SOL    HW2 3227   0.272   3.630   2.983
  980SOL     OW 3228   0.938   3.565   2.757
  980SOL    HW1 3229   1.024   3.522   2.784
  980SOL    HW2 3230   0.898   3.515   2.681
  981SOL     OW 3231   0.395   2.545   2.342
  981SOL    HW1 3232   0.423   2.450   2.350
  981SOL    HW2 3233   0.300   2.555   2.371
  982SOL     OW 3234   1.512   2.089   3.599
  982SOL    HW1 3235   1.512   2.104   3.698
  982SOL    HW2 3236   1.444   2.019   3.576
  983SOL     OW 3237   0.651   1.973   1.962
  983SOL    HW1 3238   0.714   1.900   1.986
  983SOL    HW2 3239   0.590   1.942   1.889
  984SOL     OW 3240   0.765   2.136   3.622
  984SOL    HW1 3241   0.851   2.086   3.613
  984SOL    HW2 3242   0.710   2.095   3.695
  985SOL     OW 3243   0.873   3.377   3.054
  985SOL    HW1 3244   0.853   3.339   2.964
  985SOL    HW2 3245   0.944   3.322   3.099
  986SOL     OW 3246   1.337   2.454   3.295
  986SOL    HW1 3247   1.371   2.424   3.384
  986SOL    HW2 3248   1.367   2.548   3.277
  987SOL     OW 3249   0.821   3.244   2.806
  987SOL    HW1 3250   0.912   3.236   2.765
  987SOL    HW2 3251   0.754   3.260   2.734
  988SOL     OW 3252   0.926   2.369   2.754
  988SOL    HW1 3253   0.900   2.362   2.658
  988SOL    HW2 3254   0.956   2.280   2.788
  989SOL     OW 3255   0.556   1.929   2.351
  989SOL    HW1 3256   0.478   1.928   2.413
  989SOL    HW2 3257   0.548   2.007   2.289
  990SOL     OW 3258   1.427   3.066   1.904
  990SOL    HW1 3259   1.459   2.988   1.958
  990SOL    HW2 3260   1.337   3.094   1.937
  991SOL     OW 3261   0.270   1.889   2.048
  991SOL    HW1 3262   0.310   1.962   1.992
  991SOL    HW2 3263   0.343   1.835   2.090
  992SOL     OW 3264   0.952   2.116   2.315
  992SOL    HW1 3265   0.921   2.155   2.228
  992SOL    HW2 3266   1.050   2.130   2.324
  993SOL     OW 3267   1.076   2.547   3.315
  993SOL    HW1 3268   1.001   2.481   3.315
  993SOL    HW2 3269   1.163   2.498   3.307
  994SOL     OW 3270   1.214   3.439   2.659
  994SOL    HW1 3271   1.226   3.506   2.586
  994SOL    HW2 3272   1.290   3.446   2.724
  995SOL     OW 3273   0.484   3.027   2.586
  995SOL    HW1 3274   0.414   3.008   2.655
  995SOL    HW2 3275   0.443   3.025   2.495
  996SOL     OW 3276   1.257   3.653   2.476
  996SOL    HW1 3277   1.310   3.714   2.417
  996SOL    HW2 3278   1.181   3.703   2.517
  997SOL     OW 3279   1.023   2.393   1.895
  997SOL    HW1 3280   0.978   2.479   1.869
  997SOL    HW2 3281   1.093   2.412   1.964
  998SOL     OW 3282   0.093   2.403   3.257
  998SOL    HW1 3283   0.185   2.412   3.220
  998SOL    HW2 3284   0.066   2.487   3.303
  999SOL     OW 3285   0.557   2.086   3.039
  999SOL    HW1 3286   0.607   2.012   3.084
  999SOL    HW2 3287   0.461   2.083   3.067
 1000SOL     OW 3288   0.867   2.321   2.493
 1000SOL    HW1 3289   0.821   2.382   2.429
 1000SOL    HW2 3290   0.897   2.238   2.445
 1001SOL     OW 3291   1.016   1.917   2.603
 1001SOL    HW1 3292   0.956   1.917   2.524
 1001SOL    HW2 3293   0.992   1.841   2.664
 1002SOL     OW 3294   1.452   3.021   2.719
 1002SOL    HW1 3295   1.371   2.962   2.712
 1002SOL    HW2 3296   1.492   3.033   2.628
 1003SOL     OW 3297   1.464   2.479   2.828
 1003SOL    HW1 3298   1.402   2.401   2.822
 1003SOL    HW2 3299   1.522   2.469   2.909
 1004SOL     OW 3300   1.834   2.665   2.243
 1004SOL    HW1 3301   1.896   2.620   2.307
 1004SOL    HW2 3302   1.810   2.601   2.170
 1005SOL     OW 3303   0.483   3.288   2.015
 1005SOL    HW1 3304   0.401   3.258   2.065
 1005SOL    HW2 3305   0.478   3.254   1.921
 1006SOL     OW 3306   1.681   3.125   2.512
 1006SOL    HW1 3307   1.780   3.119   2.521
 1006SOL    HW2 3308   1.651   3.219   2.526
 1007SOL     OW 3309   1.389   2.438   1.930
 1007SOL    HW1 3310   1.329   2.413   2.006
 1007SOL    HW2 3311   1.484   2.416   1.954
 1008SOL     OW 3312   0.527   2.124   2.163
 1008SOL    HW1 3313   0.577   2.073   2.093
 1008SOL    HW2 3314   0.496   2.211   2.126
 1009SOL     OW 3315   1.764   3.095   3.426
 1009SOL    HW1 3316   1.854   3.054   3.411
 1009SOL    HW2 3317   1.775   3.191   3.451
 1010SOL     OW 3318   1.045   3.212   3.199
 1010SOL    HW1 3319   0.963   3.182   3.247
 1010SOL    HW2 3320   1.125   3.169   3.240
 1011SOL     OW 3321   1.614   3.487   3.522
 1011SOL    HW1 3322   1.594   3.528   3.432
 1011SOL    HW2 3323   1.700   3.437   3.517
 1012SOL     OW 3324   1.141   3.098   2.965
 1012SOL    HW1 3325   1.078   3.129   3.035
 1012SOL    HW2 3326   1.109   3.128   2.875
 1013SOL     OW 3327   1.610   2.953   2.948
 1013SOL    HW1 3328   1.607   3.022   3.019
 1013SOL    HW2 3329   1.540   2.972   2.879
 1014SOL     OW 3330   0.924   1.952   3.250
 1014SOL    HW1 3331   0.944   1.929   3.155
 1014SOL    HW2 3332   1.004   1.995   3.291
 1015SOL     OW 3333   0.979   2.972   3.589
 1015SOL    HW1 3334   0.885   2.994   3.615
 1015SOL    HW2 3335   0.979   2.891   3.531
 1016SOL     OW 3336   0.718   2.920   2.236
 1016SOL    HW1 3337   0.698   2.900   2.332
 1016SOL    HW2 3338   0.797   2.867   2.206
 1017SOL     OW 3339   0.436   2.684   3.106
 1017SOL    HW1 3340   0.508   2.698   3.174
 1017SOL    HW2 3341   0.393   2.595   3.121
 1018SOL     OW 3342   1.261   2.234   3.149
 1018SOL    HW1 3343   1.296   2.316   3.194
 1018SOL    HW2 3344   1.167   2.250   3.120
 1019SOL     OW 3345   0.065   3.465   3.201
 1019SOL    HW1 3346   0.101   3.532   3.136
 1019SOL    HW2 3347   0.141   3.420   3.247
 1020SOL     OW 3348   0.390   3.000   2.325
 1020SOL    HW1 3349   0.368   3.087   2.280
 1020SOL    HW2 3350   0.370   2.925   2.263
 1021SOL     OW 3351   0.554   2.397   2.725
 1021SOL    HW1 3352   0.561   2.459   2.647
 1021SOL    HW2 3353   0.624   2.423   2.793
 1022SOL     OW 3354   1.244   3.218   2.257
 1022SOL    HW1 3355   1.306   3.290   2.288
 1022SOL    HW2 3356   1.150   3.240   2.286
 1023SOL     OW 3357   1.297   3.327   3.009
 1023SOL    HW1 3358   1.352   3.330   3.092
 1023SOL    HW2 3359   1.242   3.243   3.009
 1024SOL     OW 3360   1.577   2.479   2.348
 1024SOL    HW1 3361   1.524   2.525   2.419
 1024SOL    HW2 3362   1.624   2.547   2.292
 1025SOL     OW 3363   0.353   3.392   3.175
 1025SOL    HW1 3364   0.334   3.340   3.092
 1025SOL    HW2 3365   0.452   3.407   3.182
 1026SOL     OW 3366   0.439   2.593   3.452
 1026SOL    HW1 3367   0.511   2.636   3.399
 1026SOL    HW2 3368   0.464   2.498   3.472
 1027SOL     OW 3369   1.556   2.626   3.478
 1027SOL    HW1 3370   1.478   2.687   3.489
 1027SOL    HW2 3371   1.634   2.678   3.444
 1028SOL     OW 3372   0.999   1.999   3.613
 1028SOL    HW1 3373   1.055   2.080   3.597
 1028SOL    HW2 3374   1.050   1.917   3.587
 1029SOL     OW 3375   0.489   1.899   3.620
 1029SOL    HW1 3376   0.445   1.844   3.548
 1029SOL    HW2 3377   0.428   1.974   3.646
 1030SOL     OW 3378   0.602   2.738   2.892
 1030SOL    HW1 3379   0.635   2.832   2.890
 1030SOL    HW2 3380   0.537   2.727   2.968
 1031SOL     OW 3381   1.335   2.720   2.879
 1031SOL    HW1 3382   1.244   2.708   2.838
 1031SOL    HW2 3383   1.388   2.636   2.866
 1032SOL     OW 3384   1.197   2.386   2.124
 1032SOL    HW1 3385   1.209   2.304   2.179
 1032SOL    HW2 3386   1.153   2.457   2.180
 1033SOL     OW 3387   0.296   2.048   3.110
 1033SOL    HW1 3388   0.260   2.087   3.195
 1033SOL    HW2 3389   0.278   1.949   3.109
 1034SOL     OW 3390   0.068   3.188   3.125
 1034SOL    HW1 3391   0.084   3.139   3.211
 1034SOL    HW2 3392   0.039   3.282   3.145
 1035SOL     OW 3393   0.730   2.494   2.914
 1035SOL    HW1 3394   0.804   2.473   2.851
 1035SOL    HW2 3395   0.695   2.586   2.895
 1036SOL     OW 3396   0.327   1.926   2.502
 1036SOL    HW1 3397   0.297   2.021   2.515
 1036SOL    HW2 3398   0.330   1.880   2.591
 1037SOL     OW 3399   1.631   2.245   2.218
 1037SOL    HW1 3400   1.660   2.171   2.278
 1037SOL    HW2 3401   1.602   2.324   2.272
 1038SOL     OW 3402   1.026   2.616   2.816
 1038SOL    HW1 3403   1.016   2.637   2.913
 1038SOL    HW2 3404   0.998   2.522   2.799
 1039SOL     OW 3405   0.987   3.427   3.581
 1039SOL    HW1 3406   0.964   3.475   3.496
 1039SOL    HW2 3407   1.029   3.339   3.560
 1040SOL     OW 3408   1.850   3.358   3.460
 1040SOL    HW1 3409   1.870   3.387   3.366
 1040SOL    HW2 3410   1.931   3.371   3.517
 1041SOL     OW 3411   0.347   2.759   3.651
 1041SOL    HW1 3412   0.422   2.791   3.708
 1041SOL    HW2 3413   0.383   2.699   3.580
 1042SOL     OW 3414   1.524   2.128   1.990
 1042SOL    HW1 3415   1.458   2.058   2.019
 1042SOL    HW2 3416   1.563   2.172   2.071
 1043SOL     OW 3417   1.287   2.688   1.884
 1043SOL    HW1 3418   1.327   2.596   1.893
 1043SOL    HW2 3419   1.319   2.729   1.799
 1044SOL     OW 3420   1.073   3.206   2.720
 1044SOL    HW1 3421   1.080   3.127   2.658
 1044SOL    HW2 3422   1.128   3.281   2.683
 1045SOL     OW 3423   0.318   2.666   2.809
 1045SOL    HW1 3424   0.412   2.685   2.782
 1045SOL    HW2 3425   0.314   2.579   2.858
 1046SOL     OW 3426   0.349   2.366   2.889
 1046SOL    HW1 3427   0.310   2.274   2.881
 1046SOL    HW2 3428   0.427   2.374   2.827
 1047SOL     OW 3429   1.131   2.234   3.557
 1047SOL    HW1 3430   1.077   2.290   3.621
 1047SOL    HW2 3431   1.221   2.276   3.543
 1048SOL     OW 3432   1.161   2.062   3.341
 1048SOL    HW1 3433   1.143   2.125   3.416
 1048SOL    HW2 3434   1.204   2.111   3.265
 1049SOL     OW 3435   5.987   3.173   2.059
 1049SOL    HW1 3436   5.890   3.194   2.072
 1049SOL    HW2 3437   6.004   3.078   2.085
 1050SOL     OW 3438   0.066   3.682   2.732
 1050SOL    HW1 3439   0.055   3.583   2.744
 1050SOL    HW2 3440   0.162   3.707   2.745
 1051SOL     OW 3441   0.482   3.438   2.763
 1051SOL    HW1 3442   0.553   3.502   2.793
 1051SOL    HW2 3443   0.522   3.373   2.698
 1052SOL     OW 3444   0.967   2.652   3.081
 1052SOL    HW1 3445   1.025   2.631   3.160
 1052SOL    HW2 3446   0.879   2.605   3.091
 1053SOL     OW 3447  -0.015   2.467   2.990
 1053SOL    HW1 3448   0.020   2.425   2.906
 1053SOL    HW2 3449   0.021   2.418   3.069
 1054SOL     OW 3450   0.181   2.359   3.590
 1054SOL    HW1 3451   0.219   2.311   3.511
 1054SOL    HW2 3452   0.133   2.441   3.560
 1055SOL     OW 3453   1.361   2.818   3.503
 1055SOL    HW1 3454   1.404   2.908   3.496
 1055SOL    HW2 3455   1.341   2.784   3.412
 1056SOL     OW 3456   0.816   2.435   2.228
 1056SOL    HW1 3457   0.828   2.356   2.168
 1056SOL    HW2 3458   0.739   2.490   2.197
 1057SOL     OW 3459   1.647   2.462   3.038
 1057SOL    HW1 3460   1.626   2.403   3.117
 1057SOL    HW2 3461   1.728   2.428   2.992
 1058SOL     OW 3462   0.291   3.413   3.596
 1058SOL    HW1 3463   0.233   3.481   3.640
 1058SOL    HW2 3464   0.263   3.322   3.626
 1059SOL     OW 3465   0.721   2.304   3.107
 1059SOL    HW1 3466   0.657   2.230   3.087
 1059SOL    HW2 3467   0.713   2.374   3.036
 1060SOL     OW 3468   0.919   3.542   3.336
 1060SOL    HW1 3469   0.890   3.492   3.254
 1060SOL    HW2 3470   0.919   3.640   3.318
 1061SOL     OW 3471   0.452   2.357   2.046
 1061SOL    HW1 3472   0.518   2.428   2.070
 1061SOL    HW2 3473   0.362   2.399   2.032
 1062SOL     OW 3474   0.191   2.997   3.307
 1062SOL    HW1 3475   0.131   2.973   3.384
 1062SOL    HW2 3476   0.164   2.943   3.227
 1063SOL     OW 3477   1.306   2.911   3.068
 1063SOL    HW1 3478   1.330   2.842   2.999
 1063SOL    HW2 3479   1.244   2.978   3.028
 1064SOL     OW 3480   1.320   2.718   2.156
 1064SOL    HW1 3481   1.243   2.691   2.214
 1064SOL    HW2 3482   1.296   2.706   2.060
 1065SOL     OW 3483   1.786   3.582   3.024
 1065SOL    HW1 3484   1.848   3.617   2.954
 1065SOL    HW2 3485   1.751   3.492   2.996
 1066SOL     OW 3486   1.242   3.595   2.964
 1066SOL    HW1 3487   1.328   3.627   2.923
 1066SOL    HW2 3488   1.251   3.498   2.987
 1067SOL     OW 3489   0.098   3.121   2.869
 1067SOL    HW1 3490   0.086   3.141   2.966
 1067SOL    HW2 3491   0.020   3.067   2.836
 1068SOL     OW 3492   0.683   3.543   3.605
 1068SOL    HW1 3493   0.613   3.613   3.600
 1068SOL    HW2 3494   0.753   3.560   3.536
 1069SOL     OW 3495   1.729   2.021   2.357
 1069SOL    HW1 3496   1.799   2.009   2.287
 1069SOL    HW2 3497   1.708   1.933   2.399
 1070SOL     OW 3498   1.399   3.433   2.355
 1070SOL    HW1 3499   1.459   3.465   2.281
 1070SOL    HW2 3500   1.340   3.508   2.385
 1071SOL     OW 3501   0.142   3.630   3.694
 1071SOL    HW1 3502   0.080   3.562   3.733
 1071SOL    HW2 3503   0.190   3.679   3.767
 1072SOL     OW 3504   1.285   2.795   2.527
 1072SOL    HW1 3505   1.359   2.730   2.542
 1072SOL    HW2 3506   1.317   2.870   2.470
 1073SOL     OW 3507   0.791   3.144   3.286
 1073SOL    HW1 3508   0.764   3.190   3.371
 1073SOL    HW2 3509   0.718   3.154   3.218
 1074SOL     OW 3510   0.667   3.486   2.017
 1074SOL    HW1 3511   0.684   3.507   1.920
 1074SOL    HW2 3512   0.608   3.406   2.024
 1075SOL     OW 3513   1.614   3.590   3.250
 1075SOL    HW1 3514   1.674   3.588   3.170
 1075SOL    HW2 3515   1.600   3.684   3.279
 1076SOL     OW 3516   1.848   2.033   2.826
 1076SOL    HW1 3517   1.882   1.940   2.808
 1076SOL    HW2 3518   1.757   2.043   2.785
 1077SOL     OW 3519   0.259   2.176   2.578
 1077SOL    HW1 3520   0.173   2.211   2.541
 1077SOL    HW2 3521   0.251   2.167   2.677
 1078SOL     OW 3522   1.210   3.459   1.896
 1078SOL    HW1 3523   1.200   3.365   1.928
 1078SOL    HW2 3524   1.143   3.477   1.824
 1079SOL     OW 3525   0.828   2.876   3.246
 1079SOL    HW1 3526   0.870   2.861   3.157
 1079SOL    HW2 3527   0.816   2.975   3.261
 1080SOL     OW 3528   0.925   2.772   2.154
 1080SOL    HW1 3529   0.982   2.807   2.080
 1080SOL    HW2 3530   0.974   2.700   2.203
 1081SOL     OW 3531   1.488   3.498   1.908
 1081SOL    HW1 3532   1.389   3.483   1.895
 1081SOL    HW2 3533   1.532   3.503   1.818
 1082SOL     OW 3534   0.392   3.169   3.345
 1082SOL    HW1 3535   0.372   3.252   3.293
 1082SOL    HW2 3536   0.320   3.101   3.329
 1083SOL     OW 3537   1.612   3.149   3.142
 1083SOL    HW1 3538   1.691   3.139   3.202
 1083SOL    HW2 3539   1.550   3.218   3.181
 1084SOL     OW 3540   1.072   2.972   2.586
 1084SOL    HW1 3541   0.993   2.922   2.622
 1084SOL    HW2 3542   1.139   2.907   2.551
 1085SOL     OW 3543   1.026   2.103   2.829
 1085SOL    HW1 3544   1.022   2.062   2.738
 1085SOL    HW2 3545   1.022   2.031   2.898
 1086SOL     OW 3546   0.608   3.352   2.339
 1086SOL    HW1 3547   0.662   3.296   2.276
 1086SOL    HW2 3548   0.528   3.388   2.290
 1087SOL     OW 3549   1.743   2.263   3.243
 1087SOL    HW1 3550   1.816   2.329   3.229
 1087SOL    HW2 3551   1.758   2.183   3.185
 1088SOL     OW 3552   0.254   3.210   2.152
 1088SOL    HW1 3553   0.158   3.199   2.125
 1088SOL    HW2 3554   0.259   3.248   2.244
 1089SOL     OW 3555   0.130   2.917   3.601
 1089SOL    HW1 3556   0.052   2.857   3.620
 1089SOL    HW2 3557   0.215   2.867   3.615
 1090SOL     OW 3558   0.686   2.055   3.362
 1090SOL    HW1 3559   0.772   2.029   3.318
 1090SOL    HW2 3560   0.705   2.090   3.454
 1091SOL     OW 3561   0.060   2.187   1.898
 1091SOL    HW1 3562  -0.040   2.190   1.891
 1091SOL    HW2 3563   0.100   2.256   1.837
 1092SOL     OW 3564   1.399   2.725   3.244
 1092SOL    HW1 3565   1.350   2.789   3.185
 1092SOL    HW2 3566   1.495   2.723   3.217
 1093SOL     OW 3567   0.094   2.089   2.160
 1093SOL    HW1 3568   0.093   2.150   2.081
 1093SOL    HW2 3569   0.166   2.020   2.149
 1094SOL     OW 3570   1.177   3.196   1.982
 1094SOL    HW1 3571   1.079   3.177   1.973
 1094SOL    HW2 3572   1.202   3.196   2.079
 1095SOL     OW 3573   0.635   2.689   3.292
 1095SOL    HW1 3574   0.692   2.771   3.281
 1095SOL    HW2 3575   0.694   2.609   3.298
 1096SOL     OW 3576   1.486   3.662   2.855
 1096SOL    HW1 3577   1.507   3.731   2.785
 1096SOL    HW2 3578   1.572   3.620   2.886
 1097SOL     OW 3579   0.725   2.411   3.560
 1097SOL    HW1 3580   0.769   2.476   3.622
 1097SOL    HW2 3581   0.738   2.318   3.594
 1098SOL     OW 3582   1.487   3.060   3.486
 1098SOL    HW1 3583   1.468   3.107   3.572
 1098SOL    HW2 3584   1.582   3.075   3.460
 1099SOL     OW 3585   0.368   3.611   3.427
 1099SOL    HW1 3586   0.281   3.658   3.411
 1099SOL    HW2 3587   0.351   3.525   3.475
 1100SOL     OW 3588   1.653   2.737   3.126
 1100SOL    HW1 3589   1.654   2.648   3.081
 1100SOL    HW2 3590   1.642   2.809   3.057
 1101SOL     OW 3591   1.222   2.179   2.322
 1101SOL    HW1 3592   1.284   2.101   2.314
 1101SOL    HW2 3593   1.248   2.235   2.400
 1102SOL     OW 3594   0.576   2.601   2.541
 1102SOL    HW1 3595   0.623   2.688   2.526
 1102SOL    HW2 3596   0.513   2.583   2.465
 1103SOL     OW 3597   1.750   2.185   3.507
 1103SOL    HW1 3598   1.738   2.225   3.416
 1103SOL    HW2 3599   1.662   2.152   3.541
 1104SOL     OW 3600   1.740   2.806   3.378
 1104SOL    HW1 3601   1.733   2.905   3.390
 1104SOL    HW2 3602   1.719   2.783   3.284
 1105SOL     OW 3603   0.882   3.224   1.919
 1105SOL    HW1 3604   0.830   3.247   2.001
 1105SOL    HW2 3605   0.885   3.304   1.859
 1106SOL     OW 3606   0.663   3.637   2.803
 1106SOL    HW1 3607   0.638   3.732   2.784
 1106SOL    HW2 3608   0.761   3.624   2.791
 1107SOL     OW 3609   0.872   2.835   2.717
 1107SOL    HW1 3610   0.922   2.756   2.752
 1107SOL    HW2 3611   0.826   2.881   2.793
 1108SOL     OW 3612   1.075   2.847   1.945
 1108SOL    HW1 3613   1.047   2.904   1.868
 1108SOL    HW2 3614   1.153   2.791   1.918
 1109SOL     OW 3615   1.835   3.421   2.706
 1109SOL    HW1 3616   1.758   3.409   2.643
 1109SOL    HW2 3617   1.826   3.357   2.782
 1110SOL     OW 3618   0.230   3.158   3.705
 1110SOL    HW1 3619   0.178   3.087   3.657
 1110SOL    HW2 3620   0.201   3.161   3.801
 1111SOL     OW 3621   0.103   3.118   2.547
 1111SOL    HW1 3622   0.032   3.086   2.609
 1111SOL    HW2 3623   0.146   3.040   2.502
 1112SOL     OW 3624   0.692   3.275   3.508
 1112SOL    HW1 3625   0.607   3.227   3.532
 1112SOL    HW2 3626   0.686   3.370   3.539
 1113SOL     OW 3627   1.783   2.047   3.091
 1113SOL    HW1 3628   1.827   1.965   3.128
 1113SOL    HW2 3629   1.802   2.053   2.993
 1114SOL     OW 3630   0.442   2.286   2.389
 1114SOL    HW1 3631   0.468   2.217   2.321
 1114SOL    HW2 3632   0.383   2.244   2.458
 1115SOL     OW 3633   1.690   3.340   2.949
 1115SOL    HW1 3634   1.611   3.327   2.890
 1115SOL    HW2 3635   1.690   3.269   3.021
 1116SOL     OW 3636   0.346   2.429   3.155
 1116SOL    HW1 3637   0.397   2.368   3.215
 1116SOL    HW2 3638   0.354   2.396   3.061
 1117SOL     OW 3639   0.834   3.445   2.538
 1117SOL    HW1 3640   0.816   3.510   2.464
 1117SOL    HW2 3641   0.757   3.382   2.546
 1118SOL     OW 3642   1.428   2.095   2.977
 1118SOL    HW1 3643   1.437   1.998   2.999
 1118SOL    HW2 3644   1.374   2.140   3.048
 1119SOL     OW 3645   1.009   1.876   2.994
 1119SOL    HW1 3646   0.946   1.815   2.945
 1119SOL    HW2 3647   1.100   1.834   2.996
 1120SOL     OW 3648   0.774   3.193   2.188
 1120SOL    HW1 3649   0.748   3.096   2.197
 1120SOL    HW2 3650   0.860   3.208   2.236
 1121SOL     OW 3651   0.626   3.424   3.155
 1121SOL    HW1 3652   0.622   3.511   3.204
 1121SOL    HW2 3653   0.716   3.413   3.113
 1122SOL     OW 3654   1.360   1.906   2.040
 1122SOL    HW1 3655   1.406   1.838   1.983
 1122SOL    HW2 3656   1.265   1.877   2.057
 1123SOL     OW 3657   1.292   2.329   2.541
 1123SOL    HW1 3658   1.241   2.415   2.538
 1123SOL    HW2 3659   1.289   2.291   2.633
 1124SOL     OW 3660   1.590   2.068   2.751
 1124SOL    HW1 3661   1.531   2.087   2.830
 1124SOL    HW2 3662   1.589   2.146   2.689
 1125SOL     OW 3663   0.061   2.922   2.138
 1125SOL    HW1 3664   0.157   2.899   2.125
 1125SOL    HW2 3665   0.019   2.856   2.200
 1126SOL     OW 3666   0.885   3.531   2.199
 1126SOL    HW1 3667   0.809   3.510   2.138
 1126SOL    HW2 3668   0.861   3.608   2.258
 1127SOL     OW 3669   0.214   2.478   3.841
 1127SOL    HW1 3670   0.121   2.487   3.877
 1127SOL    HW2 3671   0.210   2.439   3.749
 1128SOL     OW 3672   0.218   2.128   4.720
 1128SOL    HW1 3673   0.244   2.092   4.810
 1128SOL    HW2 3674   0.119   2.124   4.710
 1129SOL     OW 3675   6.013   2.258   4.333
 1129SOL    HW1 3676   5.930   2.267   4.388
 1129SOL    HW2 3677   5.993   2.203   4.252
 1130SOL     OW 3678   0.577   3.165   4.925
 1130SOL    HW1 3679   0.487   3.161   4.882
 1130SOL    HW2 3680   0.595   3.258   4.957
 1131SOL     OW 3681   1.568   3.367   4.427
 1131SOL    HW1 3682   1.524   3.350   4.516
 1131SOL    HW2 3683   1.497   3.386   4.359
 1132SOL     OW 3684   1.140   2.571   4.414
 1132SOL    HW1 3685   1.190   2.655   4.396
 1132SOL    HW2 3686   1.090   2.579   4.500
 1133SOL     OW 3687   0.733   2.999   4.765
 1133SOL    HW1 3688   0.671   3.034   4.835
 1133SOL    HW2 3689   0.779   3.076   4.720
 1134SOL     OW 3690   0.874   2.617   5.552
 1134SOL    HW1 3691   0.859   2.678   5.630
 1134SOL    HW2 3692   0.897   2.671   5.471
 1135SOL     OW 3693   0.686   2.856   4.372
 1135SOL    HW1 3694   0.759   2.849   4.441
 1135SOL    HW2 3695   0.616   2.920   4.405
 1136SOL     OW 3696   0.713   3.026   5.547
 1136SOL    HW1 3697   0.766   3.104   5.580
 1136SOL    HW2 3698   0.629   3.058   5.504
 1137SOL     OW 3699   0.340   3.268   4.796
 1137SOL    HW1 3700   0.257   3.230   4.757
 1137SOL    HW2 3701   0.387   3.325   4.728
 1138SOL     OW 3702   1.456   3.368   5.086
 1138SOL    HW1 3703   1.515   3.449   5.094
 1138SOL    HW2 3704   1.383   3.373   5.154
 1139SOL     OW 3705   0.453   2.251   5.198
 1139SOL    HW1 3706   0.532   2.191   5.207
 1139SOL    HW2 3707   0.370   2.198   5.217
 1140SOL     OW 3708   1.563   2.298   4.483
 1140SOL    HW1 3709   1.477   2.315   4.434
 1140SOL    HW2 3710   1.586   2.379   4.537
 1141SOL     OW 3711   0.249   3.573   4.218
 1141SOL    HW1 3712   0.264   3.654   4.275
 1141SOL    HW2 3713   0.323   3.565   4.150
 1142SOL     OW 3714   1.138   3.198   5.420
 1142SOL    HW1 3715   1.188   3.198   5.506
 1142SOL    HW2 3716   1.082   3.115   5.413
 1143SOL     OW 3717   0.251   3.299   4.260
 1143SOL    HW1 3718   0.230   3.397   4.267
 1143SOL    HW2 3719   0.187   3.248   4.318
 1144SOL     OW 3720   0.281   2.951   4.631
 1144SOL    HW1 3721   0.278   2.872   4.692
 1144SOL    HW2 3722   0.218   3.022   4.665
 1145SOL     OW 3723   0.594   3.660   5.147
 1145SOL    HW1 3724   0.509   3.637   5.195
 1145SOL    HW2 3725   0.626   3.749   5.179
 1146SOL     OW 3726   0.579   2.852   3.872
 1146SOL    HW1 3727   0.624   2.898   3.797
 1146SOL    HW2 3728   0.619   2.881   3.959
 1147SOL     OW 3729   1.596   1.990   5.193
 1147SOL    HW1 3730   1.625   2.071   5.141
 1147SOL    HW2 3731   1.574   2.016   5.287
 1148SOL     OW 3732   0.140   2.511   4.313
 1148SOL    HW1 3733   0.093   2.424   4.303
 1148SOL    HW2 3734   0.085   2.572   4.370
 1149SOL     OW 3735   1.850   3.614   4.056
 1149SOL    HW1 3736   1.923   3.586   4.118
 1149SOL    HW2 3737   1.861   3.710   4.031
 1150SOL     OW 3738   0.015   3.431   3.827
 1150SOL    HW1 3739   0.012   3.334   3.848
 1150SOL    HW2 3740   0.006   3.484   3.912
 1151SOL     OW 3741   1.695   2.799   4.383
 1151SOL    HW1 3742   1.779   2.750   4.358
 1151SOL    HW2 3743   1.689   2.884   4.330
 1152SOL     OW 3744   0.088   2.612   5.395
 1152SOL    HW1 3745   0.154   2.644   5.464
 1152SOL    HW2 3746   0.114   2.647   5.305
 1153SOL     OW 3747   0.620   3.264   4.454
 1153SOL    HW1 3748   0.578   3.174   4.466
 1153SOL    HW2 3749   0.606   3.295   4.360
 1154SOL     OW 3750   1.284   3.093   5.143
 1154SOL    HW1 3751   1.310   3.022   5.078
 1154SOL    HW2 3752   1.345   3.090   5.222
 1155SOL     OW 3753   0.826   1.880   4.235
 1155SOL    HW1 3754   0.870   1.966   4.210
 1155SOL    HW2 3755   0.727   1.893   4.239
 1156SOL     OW 3756   0.208   2.824   4.896
 1156SOL    HW1 3757   0.299   2.791   4.922
 1156SOL    HW2 3758   0.138   2.764   4.934
 1157SOL     OW 3759   1.174   3.678   5.347
 1157SOL    HW1 3760   1.185   3.749   5.277
 1157SOL    HW2 3761   1.201   3.589   5.308
 1158SOL     OW 3762   0.339   2.096   5.581
 1158SOL    HW1 3763   0.388   2.181   5.601
 1158SOL    HW2 3764   0.241   2.115   5.578
 1159SOL     OW 3765   1.467   3.282   4.670
 1159SOL    HW1 3766   1.402   3.306   4.742
 1159SOL    HW2 3767   1.458   3.185   4.647
 1160SOL     OW 3768   1.648   3.621   4.298
 1160SOL    HW1 3769   1.629   3.588   4.205
 1160SOL    HW2 3770   1.631   3.546   4.363
 1161SOL     OW 3771   0.591   2.581   4.001
 1161SOL    HW1 3772   0.594   2.668   3.953
 1161SOL    HW2 3773   0.522   2.585   4.074
 1162SOL     OW 3774   1.275   2.228   4.659
 1162SOL    HW1 3775   1.181   2.193   4.666
 1162SOL    HW2 3776   1.334   2.177   4.720
 1163SOL     OW 3777   1.585   3.532   4.033
 1163SOL    HW1 3778   1.682   3.559   4.029
 1163SOL    HW2 3779   1.552   3.517   3.940
 1164SOL     OW 3780   0.792   2.472   5.169
 1164SOL    HW1 3781   0.766   2.448   5.263
 1164SOL    HW2 3782   0.759   2.402   5.106
 1165SOL     OW 3783   1.392   2.329   5.399
 1165SOL    HW1 3784   1.396   2.384   5.482
 1165SOL    HW2 3785   1.446   2.246   5.412
 1166SOL     OW 3786   0.951   2.746   5.314
 1166SOL    HW1 3787   1.008   2.675   5.273
 1166SOL    HW2 3788   0.898   2.792   5.242
 1167SOL     OW 3789   0.995   2.262   4.943
 1167SOL    HW1 3790   0.902   2.281   4.974
 1167SOL    HW2 3791   0.991   2.209   4.858
 1168SOL     OW 3792   1.051   2.562   4.148
 1168SOL    HW1 3793   1.074   2.559   4.245
 1168SOL    HW2 3794   0.963   2.517   4.132
 1169SOL     OW 3795   0.076   2.688   4.525
 1169SOL    HW1 3796   0.157   2.667   4.580
 1169SOL    HW2 3797   0.098   2.762   4.461
 1170SOL     OW 3798   0.122   3.745   5.308
 1170SOL    HW1 3799   0.130   3.713   5.402
 1170SOL    HW2 3800   0.034   3.715   5.269
 1171SOL     OW 3801   0.891   2.214   3.923
 1171SOL    HW1 3802   0.936   2.276   3.859
 1171SOL    HW2 3803   0.864   2.130   3.875
 1172SOL     OW 3804   1.682   2.422   5.557
 1172SOL    HW1 3805   1.658   2.505   5.507
 1172SOL    HW2 3806   1.719   2.354   5.493
 1173SOL     OW 3807   1.421   3.014   4.230
 1173SOL    HW1 3808   1.495   3.063   4.277
 1173SOL    HW2 3809   1.352   3.079   4.199
 1174SOL     OW 3810   0.544   2.028   4.634
 1174SOL    HW1 3811   0.551   2.059   4.729
 1174SOL    HW2 3812   0.545   2.107   4.573
 1175SOL     OW 3813   0.993   3.307   4.184
 1175SOL    HW1 3814   0.964   3.387   4.131
 1175SOL    HW2 3815   0.970   3.322   4.281
 1176SOL     OW 3816   0.348   3.682   4.616
 1176SOL    HW1 3817   0.397   3.595   4.615
 1176SOL    HW2 3818   0.412   3.757   4.632
 1177SOL     OW 3819   1.798   2.912   4.615
 1177SOL    HW1 3820   1.746   2.884   4.534
 1177SOL    HW2 3821   1.736   2.921   4.693
 1178SOL     OW 3822   1.225   3.399   5.238
 1178SOL    HW1 3823   1.215   3.323   5.301
 1178SOL    HW2 3824   1.150   3.397   5.171
 1179SOL     OW 3825   0.319   2.819   3.975
 1179SOL    HW1 3826   0.407   2.844   3.934
 1179SOL    HW2 3827   0.293   2.727   3.945
 1180SOL     OW 3828   1.491   2.618   4.439
 1180SOL    HW1 3829   1.480   2.578   4.530
 1180SOL    HW2 3830   1.570   2.679   4.439
 1181SOL     OW 3831   0.466   3.125   5.461
 1181SOL    HW1 3832   0.444   3.134   5.363
 1181SOL    HW2 3833   0.382   3.128   5.514
 1182SOL     OW 3834   1.125   3.635   3.951
 1182SOL    HW1 3835   1.042   3.601   3.994
 1182SOL    HW2 3836   1.153   3.573   3.878
 1183SOL     OW 3837   0.201   2.138   5.221
 1183SOL    HW1 3838   0.123   2.195   5.197
 1183SOL    HW2 3839   0.168   2.052   5.259
 1184SOL     OW 3840   1.601   3.218   3.836
 1184SOL    HW1 3841   1.585   3.315   3.818
 1184SOL    HW2 3842   1.523   3.165   3.802
 1185SOL     OW 3843   0.466   3.599   4.041
 1185SOL    HW1 3844   0.510   3.662   4.105
 1185SOL    HW2 3845   0.534   3.559   3.980
 1186SOL     OW 3846   1.400   1.956   4.159
 1186SOL    HW1 3847   1.388   1.924   4.065
 1186SOL    HW2 3848   1.483   1.916   4.197
 1187SOL     OW 3849   0.258   3.640   4.946
 1187SOL    HW1 3850   0.305   3.566   4.994
 1187SOL    HW2 3851   0.271   3.629   4.848
 1188SOL     OW 3852   0.934   3.567   4.620
 1188SOL    HW1 3853   1.013   3.521   4.660
 1188SOL    HW2 3854   0.899   3.514   4.543
 1189SOL     OW 3855   0.396   2.545   4.203
 1189SOL    HW1 3856   0.423   2.449   4.212
 1189SOL    HW2 3857   0.300   2.555   4.230
 1190SOL     OW 3858   1.519   2.083   5.457
 1190SOL    HW1 3859   1.531   2.106   5.554
 1190SOL    HW2 3860   1.454   2.008   5.449
 1191SOL     OW 3861   0.653   1.973   3.822
 1191SOL    HW1 3862   0.708   1.895   3.853
 1191SOL    HW2 3863   0.590   1.943   3.750
 1192SOL     OW 3864   0.766   2.142   5.475
 1192SOL    HW1 3865   0.850   2.088   5.469
 1192SOL    HW2 3866   0.732   2.141   5.569
 1193SOL     OW 3867   0.875   3.377   4.915
 1193SOL    HW1 3868   0.853   3.336   4.826
 1193SOL    HW2 3869   0.944   3.321   4.961
 1194SOL     OW 3870   1.336   2.452   5.160
 1194SOL    HW1 3871   1.367   2.415   5.247
 1194SOL    HW2 3872   1.372   2.545   5.148
 1195SOL     OW 3873   0.823   3.244   4.668
 1195SOL    HW1 3874   0.913   3.235   4.627
 1195SOL    HW2 3875   0.755   3.260   4.596
 1196SOL     OW 3876   0.929   2.372   4.617
 1196SOL    HW1 3877   0.903   2.362   4.521
 1196SOL    HW2 3878   0.957   2.283   4.653
 1197SOL     OW 3879   0.556   1.929   4.213
 1197SOL    HW1 3880   0.479   1.928   4.276
 1197SOL    HW2 3881   0.548   2.007   4.151
 1198SOL     OW 3882   1.392   3.052   3.771
 1198SOL    HW1 3883   1.360   2.969   3.725
 1198SOL    HW2 3884   1.313   3.105   3.801
 1199SOL     OW 3885   0.269   1.889   3.909
 1199SOL    HW1 3886   0.310   1.962   3.854
 1199SOL    HW2 3887   0.341   1.835   3.952
 1200SOL     OW 3888   0.953   2.119   4.175
 1200SOL    HW1 3889   0.923   2.154   4.087
 1200SOL    HW2 3890   1.052   2.132   4.184
 1201SOL     OW 3891   1.077   2.550   5.174
 1201SOL    HW1 3892   1.003   2.483   5.181
 1201SOL    HW2 3893   1.165   2.502   5.173
 1202SOL     OW 3894   1.223   3.430   4.513
 1202SOL    HW1 3895   1.231   3.502   4.444
 1202SOL    HW2 3896   1.284   3.450   4.590
 1203SOL     OW 3897   0.484   3.027   4.451
 1203SOL    HW1 3898   0.414   3.006   4.519
 1203SOL    HW2 3899   0.442   3.024   4.360
 1204SOL     OW 3900   1.258   3.651   4.337
 1204SOL    HW1 3901   1.311   3.714   4.281
 1204SOL    HW2 3902   1.182   3.700   4.380
 1205SOL     OW 3903   1.021   2.393   3.757
 1205SOL    HW1 3904   0.974   2.477   3.732
 1205SOL    HW2 3905   1.082   2.410   3.835
 1206SOL     OW 3906   0.092   2.403   5.118
 1206SOL    HW1 3907   0.184   2.413   5.081
 1206SOL    HW2 3908   0.065   2.487   5.165
 1207SOL     OW 3909   0.557   2.084   4.903
 1207SOL    HW1 3910   0.607   2.015   4.956
 1207SOL    HW2 3911   0.461   2.082   4.929
 1208SOL     OW 3912   0.870   2.322   4.356
 1208SOL    HW1 3913   0.815   2.382   4.299
 1208SOL    HW2 3914   0.895   2.240   4.304
 1209SOL     OW 3915   1.019   1.909   4.459
 1209SOL    HW1 3916   0.954   1.908   4.383
 1209SOL    HW2 3917   0.994   1.838   4.525
 1210SOL     OW 3918   1.452   3.017   4.599
 1210SOL    HW1 3919   1.374   2.953   4.601
 1210SOL    HW2 3920   1.493   3.016   4.508
 1211SOL     OW 3921   1.462   2.482   4.692
 1211SOL    HW1 3922   1.400   2.403   4.692
 1211SOL    HW2 3923   1.525   2.474   4.769
 1212SOL     OW 3924   1.852   2.654   4.141
 1212SOL    HW1 3925   1.900   2.591   4.202
 1212SOL    HW2 3926   1.918   2.712   4.093
 1213SOL     OW 3927   0.482   3.287   3.876
 1213SOL    HW1 3928   0.402   3.258   3.928
 1213SOL    HW2 3929   0.472   3.259   3.781
 1214SOL     OW 3930   1.650   3.109   4.359
 1214SOL    HW1 3931   1.749   3.098   4.362
 1214SOL    HW2 3932   1.626   3.204   4.380
 1215SOL     OW 3933   1.388   2.440   3.803
 1215SOL    HW1 3934   1.309   2.419   3.862
 1215SOL    HW2 3935   1.471   2.443   3.859
 1216SOL     OW 3936   0.529   2.124   4.024
 1216SOL    HW1 3937   0.577   2.072   3.953
 1216SOL    HW2 3938   0.497   2.211   3.987
 1217SOL     OW 3939   1.749   3.104   5.268
 1217SOL    HW1 3940   1.838   3.063   5.252
 1217SOL    HW2 3941   1.761   3.196   5.307
 1218SOL     OW 3942   1.046   3.208   5.058
 1218SOL    HW1 3943   0.964   3.180   5.108
 1218SOL    HW2 3944   1.127   3.169   5.102
 1219SOL     OW 3945   1.611   3.492   5.376
 1219SOL    HW1 3946   1.600   3.529   5.284
 1219SOL    HW2 3947   1.696   3.439   5.381
 1220SOL     OW 3948   1.143   3.090   4.828
 1220SOL    HW1 3949   1.083   3.123   4.901
 1220SOL    HW2 3950   1.110   3.123   4.739
 1221SOL     OW 3951   1.621   2.957   4.815
 1221SOL    HW1 3952   1.619   3.024   4.889
 1221SOL    HW2 3953   1.547   2.977   4.751
 1222SOL     OW 3954   0.925   1.951   5.112
 1222SOL    HW1 3955   0.947   1.930   5.017
 1222SOL    HW2 3956   1.004   1.995   5.155
 1223SOL     OW 3957   0.981   2.972   5.458
 1223SOL    HW1 3958   0.887   2.993   5.485
 1223SOL    HW2 3959   0.982   2.890   5.401
 1224SOL     OW 3960   0.719   2.922   4.097
 1224SOL    HW1 3961   0.698   2.902   4.193
 1224SOL    HW2 3962   0.798   2.868   4.068
 1225SOL     OW 3963   0.440   2.682   4.963
 1225SOL    HW1 3964   0.509   2.697   5.034
 1225SOL    HW2 3965   0.394   2.595   4.981
 1226SOL     OW 3966   1.258   2.239   5.009
 1226SOL    HW1 3967   1.293   2.319   5.059
 1226SOL    HW2 3968   1.163   2.255   4.983
 1227SOL     OW 3969   0.065   3.475   5.059
 1227SOL    HW1 3970   0.110   3.546   5.005
 1227SOL    HW2 3971   0.134   3.420   5.107
 1228SOL     OW 3972   0.395   3.003   4.186
 1228SOL    HW1 3973   0.367   3.087   4.141
 1228SOL    HW2 3974   0.368   2.924   4.130
 1229SOL     OW 3975   0.555   2.394   4.584
 1229SOL    HW1 3976   0.562   2.456   4.506
 1229SOL    HW2 3977   0.622   2.421   4.654
 1230SOL     OW 3978   1.248   3.218   4.121
 1230SOL    HW1 3979   1.305   3.294   4.149
 1230SOL    HW2 3980   1.154   3.234   4.149
 1231SOL     OW 3981   1.294   3.328   4.872
 1231SOL    HW1 3982   1.350   3.336   4.955
 1231SOL    HW2 3983   1.241   3.244   4.876
 1232SOL     OW 3984   1.599   2.521   4.158
 1232SOL    HW1 3985   1.548   2.535   4.243
 1232SOL    HW2 3986   1.687   2.568   4.164
 1233SOL     OW 3987   0.352   3.389   5.037
 1233SOL    HW1 3988   0.334   3.338   4.953
 1233SOL    HW2 3989   0.450   3.404   5.047
 1234SOL     OW 3990   0.435   2.593   5.311
 1234SOL    HW1 3991   0.508   2.637   5.259
 1234SOL    HW2 3992   0.463   2.500   5.335
 1235SOL     OW 3993   1.616   2.645   5.414
 1235SOL    HW1 3994   1.525   2.687   5.412
 1235SOL    HW2 3995   1.673   2.685   5.342
 1236SOL     OW 3996   0.999   1.998   5.474
 1236SOL    HW1 3997   1.055   2.079   5.462
 1236SOL    HW2 3998   1.049   1.917   5.444
 1237SOL     OW 3999   0.492   1.893   5.474
 1237SOL    HW1 4000   0.445   1.839   5.404
 1237SOL    HW2 4001   0.435   1.971   5.500
 1238SOL     OW 4002   0.601   2.739   4.749
 1238SOL    HW1 4003   0.634   2.833   4.749
 1238SOL    HW2 4004   0.539   2.725   4.826
 1239SOL     OW 4005   1.333   2.724   4.732
 1239SOL    HW1 4006   1.237   2.704   4.712
 1239SOL    HW2 4007   1.386   2.639   4.726
 1240SOL     OW 4008   1.191   2.392   3.986
 1240SOL    HW1 4009   1.203   2.309   4.041
 1240SOL    HW2 4010   1.146   2.462   4.042
 1241SOL     OW 4011   0.295   2.048   4.972
 1241SOL    HW1 4012   0.260   2.088   5.057
 1241SOL    HW2 4013   0.277   1.950   4.972
 1242SOL     OW 4014   0.068   3.190   4.995
 1242SOL    HW1 4015   0.032   3.165   5.085
 1242SOL    HW2 4016   0.048   3.287   4.978
 1243SOL     OW 4017   0.727   2.493   4.773
 1243SOL    HW1 4018   0.804   2.473   4.713
 1243SOL    HW2 4019   0.693   2.586   4.755
 1244SOL     OW 4020   1.752   2.829   5.570
 1244SOL    HW1 4021   1.709   2.753   5.522
 1244SOL    HW2 4022   1.693   2.859   5.645
 1245SOL     OW 4023   0.328   1.927   4.364
 1245SOL    HW1 4024   0.297   2.021   4.377
 1245SOL    HW2 4025   0.331   1.880   4.452
 1246SOL     OW 4026   1.031   2.617   4.681
 1246SOL    HW1 4027   1.016   2.639   4.777
 1246SOL    HW2 4028   1.001   2.524   4.662
 1247SOL     OW 4029   0.979   3.418   5.438
 1247SOL    HW1 4030   0.961   3.468   5.353
 1247SOL    HW2 4031   1.031   3.336   5.418
 1248SOL     OW 4032   1.851   3.361   5.325
 1248SOL    HW1 4033   1.874   3.389   5.232
 1248SOL    HW2 4034   1.931   3.371   5.384
 1249SOL     OW 4035   0.344   2.755   5.510
 1249SOL    HW1 4036   0.421   2.799   5.557
 1249SOL    HW2 4037   0.379   2.695   5.438
 1250SOL     OW 4038   1.520   2.118   3.875
 1250SOL    HW1 4039   1.463   2.036   3.877
 1250SOL    HW2 4040   1.493   2.180   3.948
 1251SOL     OW 4041   1.305   2.700   3.741
 1251SOL    HW1 4042   1.334   2.605   3.746
 1251SOL    HW2 4043   1.322   2.735   3.649
 1252SOL     OW 4044   1.075   3.204   4.580
 1252SOL    HW1 4045   1.083   3.124   4.519
 1252SOL    HW2 4046   1.131   3.278   4.545
 1253SOL     OW 4047   0.323   2.656   4.653
 1253SOL    HW1 4048   0.419   2.682   4.641
 1253SOL    HW2 4049   0.317   2.583   4.722
 1254SOL     OW 4050   0.351   2.363   4.752
 1254SOL    HW1 4051   0.311   2.272   4.743
 1254SOL    HW2 4052   0.427   2.373   4.687
 1255SOL     OW 4053   1.136   2.231   5.416
 1255SOL    HW1 4054   1.084   2.290   5.478
 1255SOL    HW2 4055   1.229   2.268   5.406
 1256SOL     OW 4056   1.162   2.062   5.201
 1256SOL    HW1 4057   1.147   2.122   5.279
 1256SOL    HW2 4058   1.205   2.113   5.126
 1257SOL     OW 4059   5.984   3.172   3.923
 1257SOL    HW1 4060   5.889   3.195   3.946
 1257SOL    HW2 4061   6.002   3.076   3.946
 1258SOL     OW 4062   0.064   3.682   4.591
 1258SOL    HW1 4063   0.055   3.583   4.605
 1258SOL    HW2 4064   0.159   3.709   4.606
 1259SOL     OW 4065   0.482   3.437   4.624
 1259SOL    HW1 4066   0.552   3.502   4.653
 1259SOL    HW2 4067   0.522   3.371   4.560
 1260SOL     OW 4068   0.966   2.653   4.943
 1260SOL    HW1 4069   1.025   2.631   5.021
 1260SOL    HW2 4070   0.876   2.610   4.956
 1261SOL     OW 4071  -0.020   2.465   4.854
 1261SOL    HW1 4072   0.017   2.423   4.771
 1261SOL    HW2 4073   0.019   2.420   4.934
 1262SOL     OW 4074   0.189   2.366   5.453
 1262SOL    HW1 4075   0.229   2.318   5.375
 1262SOL    HW2 4076   0.139   2.446   5.420
 1263SOL     OW 4077   1.387   2.794   5.378
 1263SOL    HW1 4078   1.410   2.891   5.376
 1263SOL    HW2 4079   1.379   2.760   5.284
 1264SOL     OW 4080   0.818   2.439   4.083
 1264SOL    HW1 4081   0.825   2.356   4.027
 1264SOL    HW2 4082   0.738   2.492   4.056
 1265SOL     OW 4083   1.644   2.466   4.898
 1265SOL    HW1 4084   1.627   2.407   4.976
 1265SOL    HW2 4085   1.736   2.451   4.863
 1266SOL     OW 4086   0.287   3.412   5.458
 1266SOL    HW1 4087   0.234   3.484   5.504
 1266SOL    HW2 4088   0.257   3.322   5.492
 1267SOL     OW 4089   0.718   2.305   4.969
 1267SOL    HW1 4090   0.654   2.230   4.950
 1267SOL    HW2 4091   0.710   2.375   4.898
 1268SOL     OW 4092   0.921   3.539   5.195
 1268SOL    HW1 4093   0.888   3.493   5.112
 1268SOL    HW2 4094   0.921   3.638   5.180
 1269SOL     OW 4095   0.454   2.358   3.906
 1269SOL    HW1 4096   0.518   2.429   3.932
 1269SOL    HW2 4097   0.363   2.398   3.892
 1270SOL     OW 4098   0.199   2.961   5.174
 1270SOL    HW1 4099   0.139   2.985   5.250
 1270SOL    HW2 4100   0.155   2.983   5.087
 1271SOL     OW 4101   1.311   2.903   4.937
 1271SOL    HW1 4102   1.334   2.836   4.866
 1271SOL    HW2 4103   1.247   2.971   4.900
 1272SOL     OW 4104   1.316   2.740   4.017
 1272SOL    HW1 4105   1.246   2.707   4.079
 1272SOL    HW2 4106   1.290   2.720   3.923
 1273SOL     OW 4107   1.781   3.585   4.882
 1273SOL    HW1 4108   1.844   3.618   4.813
 1273SOL    HW2 4109   1.751   3.492   4.858
 1274SOL     OW 4110   1.239   3.592   4.814
 1274SOL    HW1 4111   1.326   3.625   4.778
 1274SOL    HW2 4112   1.249   3.498   4.845
 1275SOL     OW 4113   0.095   3.127   4.732
 1275SOL    HW1 4114   0.086   3.140   4.830
 1275SOL    HW2 4115   0.021   3.069   4.699
 1276SOL     OW 4116   0.682   3.542   5.475
 1276SOL    HW1 4117   0.613   3.613   5.466
 1276SOL    HW2 4118   0.756   3.559   5.409
 1277SOL     OW 4119   1.397   3.434   4.213
 1277SOL    HW1 4120   1.459   3.468   4.142
 1277SOL    HW2 4121   1.339   3.508   4.246
 1278SOL     OW 4122   0.148   3.634   5.555
 1278SOL    HW1 4123   0.077   3.572   5.589
 1278SOL    HW2 4124   0.192   3.680   5.632
 1279SOL     OW 4125   1.293   2.796   4.367
 1279SOL    HW1 4126   1.365   2.730   4.391
 1279SOL    HW2 4127   1.332   2.866   4.308
 1280SOL     OW 4128   0.791   3.145   5.146
 1280SOL    HW1 4129   0.764   3.191   5.231
 1280SOL    HW2 4130   0.718   3.152   5.079
 1281SOL     OW 4131   0.668   3.485   3.878
 1281SOL    HW1 4132   0.683   3.506   3.782
 1281SOL    HW2 4133   0.608   3.405   3.886
 1282SOL     OW 4134   1.615   3.593   5.110
 1282SOL    HW1 4135   1.674   3.593   5.029
 1282SOL    HW2 4136   1.601   3.687   5.141
 1283SOL     OW 4137   1.839   2.029   4.688
 1283SOL    HW1 4138   1.873   1.937   4.667
 1283SOL    HW2 4139   1.745   2.039   4.657
 1284SOL     OW 4140   0.261   2.177   4.440
 1284SOL    HW1 4141   0.176   2.214   4.403
 1284SOL    HW2 4142   0.254   2.168   4.539
 1285SOL     OW 4143   1.211   3.462   3.756
 1285SOL    HW1 4144   1.196   3.370   3.792
 1285SOL    HW2 4145   1.145   3.482   3.684
 1286SOL     OW 4146   0.827   2.876   5.108
 1286SOL    HW1 4147   0.875   2.860   5.022
 1286SOL    HW2 4148   0.817   2.974   5.124
 1287SOL     OW 4149   0.927   2.775   4.010
 1287SOL    HW1 4150   0.989   2.811   3.941
 1287SOL    HW2 4151   0.973   2.702   4.062
 1288SOL     OW 4152   1.491   3.481   3.770
 1288SOL    HW1 4153   1.392   3.478   3.757
 1288SOL    HW2 4154   1.536   3.491   3.681
 1289SOL     OW 4155   0.385   3.163   5.210
 1289SOL    HW1 4156   0.362   3.244   5.156
 1289SOL    HW2 4157   0.323   3.088   5.187
 1290SOL     OW 4158   1.614   3.151   5.014
 1290SOL    HW1 4159   1.671   3.128   5.092
 1290SOL    HW2 4160   1.547   3.221   5.041
 1291SOL     OW 4161   1.081   2.969   4.445
 1291SOL    HW1 4162   1.001   2.922   4.482
 1291SOL    HW2 4163   1.145   2.901   4.410
 1292SOL     OW 4164   1.024   2.101   4.688
 1292SOL    HW1 4165   1.020   2.060   4.597
 1292SOL    HW2 4166   1.021   2.030   4.758
 1293SOL     OW 4167   0.608   3.351   4.199
 1293SOL    HW1 4168   0.660   3.295   4.133
 1293SOL    HW2 4169   0.525   3.386   4.155
 1294SOL     OW 4170   1.737   2.255   5.107
 1294SOL    HW1 4171   1.810   2.323   5.108
 1294SOL    HW2 4172   1.761   2.181   5.045
 1295SOL     OW 4173   0.252   3.209   4.012
 1295SOL    HW1 4174   0.156   3.197   3.987
 1295SOL    HW2 4175   0.258   3.247   4.104
 1296SOL     OW 4176   0.129   2.919   5.468
 1296SOL    HW1 4177   0.050   2.861   5.485
 1296SOL    HW2 4178   0.213   2.866   5.479
 1297SOL     OW 4179   0.685   2.053   5.221
 1297SOL    HW1 4180   0.772   2.027   5.179
 1297SOL    HW2 4181   0.702   2.087   5.314
 1298SOL     OW 4182   0.061   2.187   3.760
 1298SOL    HW1 4183  -0.039   2.187   3.755
 1298SOL    HW2 4184   0.098   2.256   3.698
 1299SOL     OW 4185   1.418   2.717   5.116
 1299SOL    HW1 4186   1.362   2.781   5.062
 1299SOL    HW2 4187   1.512   2.719   5.083
 1300SOL     OW 4188   0.092   2.087   4.020
 1300SOL    HW1 4189   0.093   2.148   3.941
 1300SOL    HW2 4190   0.164   2.018   4.009
 1301SOL     OW 4191   1.170   3.201   3.845
 1301SOL    HW1 4192   1.071   3.188   3.835
 1301SOL    HW2 4193   1.194   3.202   3.943
 1302SOL     OW 4194   0.633   2.691   5.154
 1302SOL    HW1 4195   0.690   2.773   5.145
 1302SOL    HW2 4196   0.692   2.611   5.161
 1303SOL     OW 4197   1.488   3.659   4.715
 1303SOL    HW1 4198   1.510   3.732   4.649
 1303SOL    HW2 4199   1.573   3.624   4.754
 1304SOL     OW 4200   0.721   2.419   5.422
 1304SOL    HW1 4201   0.769   2.482   5.483
 1304SOL    HW2 4202   0.739   2.325   5.451
 1305SOL     OW 4203   1.475   3.055   5.353
 1305SOL    HW1 4204   1.459   3.074   5.450
 1305SOL    HW2 4205   1.570   3.076   5.329
 1306SOL     OW 4206   0.365   3.607   5.285
 1306SOL    HW1 4207   0.278   3.655   5.272
 1306SOL    HW2 4208   0.348   3.522   5.335
 1307SOL     OW 4209   1.661   2.737   4.983
 1307SOL    HW1 4210   1.659   2.647   4.939
 1307SOL    HW2 4211   1.649   2.809   4.915
 1308SOL     OW 4212   1.231   2.184   4.177
 1308SOL    HW1 4213   1.288   2.102   4.175
 1308SOL    HW2 4214   1.252   2.237   4.259
 1309SOL     OW 4215   0.585   2.596   4.397
 1309SOL    HW1 4216   0.626   2.687   4.385
 1309SOL    HW2 4217   0.517   2.581   4.325
 1310SOL     OW 4218   1.747   2.219   5.381
 1310SOL    HW1 4219   1.739   2.239   5.283
 1310SOL    HW2 4220   1.669   2.163   5.410
 1311SOL     OW 4221   1.757   2.791   5.234
 1311SOL    HW1 4222   1.741   2.887   5.257
 1311SOL    HW2 4223   1.732   2.775   5.139
 1312SOL     OW 4224   0.890   3.224   3.786
 1312SOL    HW1 4225   0.836   3.238   3.868
 1312SOL    HW2 4226   0.883   3.305   3.727
 1313SOL     OW 4227   0.660   3.637   4.660
 1313SOL    HW1 4228   0.636   3.732   4.645
 1313SOL    HW2 4229   0.759   3.625   4.652
 1314SOL     OW 4230   0.877   2.838   4.579
 1314SOL    HW1 4231   0.924   2.758   4.615
 1314SOL    HW2 4232   0.827   2.884   4.652
 1315SOL     OW 4233   1.090   2.855   3.809
 1315SOL    HW1 4234   1.050   2.906   3.733
 1315SOL    HW2 4235   1.162   2.794   3.775
 1316SOL     OW 4236   1.837   3.413   4.571
 1316SOL    HW1 4237   1.762   3.401   4.506
 1316SOL    HW2 4238   1.820   3.360   4.653
 1317SOL     OW 4239   0.215   3.157   5.573
 1317SOL    HW1 4240   0.178   3.079   5.523
 1317SOL    HW2 4241   0.158   3.176   5.652
 1318SOL     OW 4242   0.104   3.118   4.409
 1318SOL    HW1 4243   0.030   3.089   4.471
 1318SOL    HW2 4244   0.148   3.037   4.370
 1319SOL     OW 4245   0.683   3.278   5.362
 1319SOL    HW1 4246   0.599   3.230   5.389
 1319SOL    HW2 4247   0.682   3.370   5.400
 1320SOL     OW 4248   1.803   2.044   4.958
 1320SOL    HW1 4249   1.817   1.948   4.984
 1320SOL    HW2 4250   1.817   2.053   4.859
 1321SOL     OW 4251   0.443   2.286   4.250
 1321SOL    HW1 4252   0.467   2.215   4.184
 1321SOL    HW2 4253   0.385   2.246   4.321
 1322SOL     OW 4254   1.698   3.336   4.811
 1322SOL    HW1 4255   1.614   3.322   4.758
 1322SOL    HW2 4256   1.702   3.270   4.885
 1323SOL     OW 4257   0.345   2.428   5.017
 1323SOL    HW1 4258   0.396   2.367   5.078
 1323SOL    HW2 4259   0.353   2.396   4.923
 1324SOL     OW 4260   0.837   3.442   4.400
 1324SOL    HW1 4261   0.815   3.510   4.329
 1324SOL    HW2 4262   0.759   3.379   4.411
 1325SOL     OW 4263   1.421   2.093   4.849
 1325SOL    HW1 4264   1.437   2.002   4.887
 1325SOL    HW2 4265   1.368   2.147   4.913
 1326SOL     OW 4266   1.010   1.878   4.855
 1326SOL    HW1 4267   0.944   1.817   4.813
 1326SOL    HW2 4268   1.100   1.836   4.856
 1327SOL     OW 4269   0.777   3.192   4.044
 1327SOL    HW1 4270   0.748   3.097   4.057
 1327SOL    HW2 4271   0.859   3.210   4.098
 1328SOL     OW 4272   0.626   3.424   5.014
 1328SOL    HW1 4273   0.621   3.511   5.063
 1328SOL    HW2 4274   0.717   3.413   4.974
 1329SOL     OW 4275   1.367   1.895   3.885
 1329SOL    HW1 4276   1.407   1.819   3.834
 1329SOL    HW2 4277   1.271   1.875   3.906
 1330SOL     OW 4278   1.290   2.330   4.405
 1330SOL    HW1 4279   1.238   2.415   4.403
 1330SOL    HW2 4280   1.282   2.288   4.495
 1331SOL     OW 4281   1.576   2.062   4.627
 1331SOL    HW1 4282   1.522   2.079   4.709
 1331SOL    HW2 4283   1.571   2.141   4.566
 1332SOL     OW 4284   0.060   2.921   3.999
 1332SOL    HW1 4285   0.156   2.897   3.986
 1332SOL    HW2 4286   0.018   2.858   4.065
 1333SOL     OW 4287   0.887   3.529   4.058
 1333SOL    HW1 4288   0.809   3.509   3.998
 1333SOL    HW2 4289   0.862   3.605   4.119
 1334SOL     OW 4290   0.192   2.477   5.713
 1334SOL    HW1 4291   0.094   2.486   5.731
 1334SOL    HW2 4292   0.207   2.441   5.621
 1335SOL     OW 4293   1.800   2.465   5.798
 1335SOL    HW1 4294   1.751   2.442   5.714
 1335SOL    HW2 4295   1.805   2.385   5.858
 1336SOL     OW 4296   0.247   3.607   0.100
 1336SOL    HW1 4297   0.264   3.693   0.147
 1336SOL    HW2 4298   0.328   3.583   0.045
 1337SOL     OW 4299   0.606   2.842   5.727
 1337SOL    HW1 4300   0.627   2.909   5.656
 1337SOL    HW2 4301   0.690   2.821   5.778
 1338SOL     OW 4302   1.805   3.620   5.904
 1338SOL    HW1 4303   1.829   3.559   5.979
 1338SOL    HW2 4304   1.873   3.694   5.898
 1339SOL     OW 4305   0.010   3.419   5.669
 1339SOL    HW1 4306   0.009   3.325   5.706
 1339SOL    HW2 4307   0.027   3.483   5.744
 1340SOL     OW 4308   1.731   2.727   0.147
 1340SOL    HW1 4309   1.769   2.748   0.236
 1340SOL    HW2 4310   1.692   2.810   0.107
 1341SOL     OW 4311   1.684   2.955   5.989
 1341SOL    HW1 4312   1.778   2.963   5.956
 1341SOL    HW2 4313   1.653   3.043   6.024
 1342SOL     OW 4314   1.552   2.877   5.759
 1342SOL    HW1 4315   1.492   2.797   5.765
 1342SOL    HW2 4316   1.588   2.898   5.850
 1343SOL     OW 4317   0.581   2.589   5.859
 1343SOL    HW1 4318   0.590   2.664   5.794
 1343SOL    HW2 4319   0.569   2.626   5.952
 1344SOL     OW 4320   0.871   2.224   5.748
 1344SOL    HW1 4321   0.922   2.285   5.687
 1344SOL    HW2 4322   0.928   2.146   5.772
 1345SOL     OW 4323   0.332   2.812   5.818
 1345SOL    HW1 4324   0.425   2.834   5.788
 1345SOL    HW2 4325   0.301   2.730   5.771
 1346SOL     OW 4326   1.122   3.610   5.827
 1346SOL    HW1 4327   1.029   3.582   5.851
 1346SOL    HW2 4328   1.149   3.565   5.741
 1347SOL     OW 4329   1.633   3.253   5.679
 1347SOL    HW1 4330   1.598   3.346   5.667
 1347SOL    HW2 4331   1.562   3.187   5.657
 1348SOL     OW 4332   0.483   3.628   5.923
 1348SOL    HW1 4333   0.534   3.691   5.982
 1348SOL    HW2 4334   0.546   3.586   5.858
 1349SOL     OW 4335   0.643   1.968   5.687
 1349SOL    HW1 4336   0.734   1.927   5.680
 1349SOL    HW2 4337   0.587   1.939   5.609
 1350SOL     OW 4338   1.427   3.077   5.622
 1350SOL    HW1 4339   1.469   3.001   5.672
 1350SOL    HW2 4340   1.339   3.100   5.664
 1351SOL     OW 4341   0.290   1.896   5.773
 1351SOL    HW1 4342   0.329   1.965   5.712
 1351SOL    HW2 4343   0.364   1.852   5.824
 1352SOL     OW 4344   1.026   2.394   5.605
 1352SOL    HW1 4345   0.980   2.481   5.590
 1352SOL    HW2 4346   1.093   2.404   5.678
 1353SOL     OW 4347   1.897   2.671   5.937
 1353SOL    HW1 4348   1.841   2.687   6.018
 1353SOL    HW2 4349   1.855   2.600   5.880
 1354SOL     OW 4350   0.480   3.283   5.750
 1354SOL    HW1 4351   0.404   3.258   5.810
 1354SOL    HW2 4352   0.460   3.252   5.657
 1355SOL     OW 4353   1.708   3.120   0.276
 1355SOL    HW1 4354   1.802   3.092   0.256
 1355SOL    HW2 4355   1.672   3.172   0.199
 1356SOL     OW 4356   1.399   2.449   5.644
 1356SOL    HW1 4357   1.337   2.413   5.714
 1356SOL    HW2 4358   1.492   2.420   5.663
 1357SOL     OW 4359   0.538   2.114   5.892
 1357SOL    HW1 4360   0.576   2.068   5.812
 1357SOL    HW2 4361   0.501   2.203   5.865
 1358SOL     OW 4362   0.381   2.973   0.041
 1358SOL    HW1 4363   0.336   3.061   0.027
 1358SOL    HW2 4364   0.361   2.913  -0.036
 1359SOL     OW 4365   1.204   2.374   5.821
 1359SOL    HW1 4366   1.213   2.284   5.865
 1359SOL    HW2 4367   1.175   2.441   5.889
 1360SOL     OW 4368   0.304   1.949   0.267
 1360SOL    HW1 4369   0.368   2.026   0.269
 1360SOL    HW2 4370   0.348   1.867   0.303
 1361SOL     OW 4371   1.517   2.127   5.724
 1361SOL    HW1 4372   1.457   2.048   5.737
 1361SOL    HW2 4373   1.555   2.154   5.812
 1362SOL     OW 4374   1.317   2.712   5.630
 1362SOL    HW1 4375   1.342   2.615   5.637
 1362SOL    HW2 4376   1.337   2.745   5.538
 1363SOL     OW 4377   5.997   3.170   5.782
 1363SOL    HW1 4378   5.900   3.192   5.797
 1363SOL    HW2 4379   6.014   3.075   5.810
 1364SOL     OW 4380   0.821   2.455   5.896
 1364SOL    HW1 4381   0.823   2.368   5.847
 1364SOL    HW2 4382   0.732   2.499   5.882
 1365SOL     OW 4383   0.440   2.356   5.781
 1365SOL    HW1 4384   0.503   2.429   5.809
 1365SOL    HW2 4385   0.349   2.395   5.765
 1366SOL     OW 4386   1.787   2.013   0.093
 1366SOL    HW1 4387   1.843   2.005   0.010
 1366SOL    HW2 4388   1.726   1.934   0.099
 1367SOL     OW 4389   0.665   3.481   5.748
 1367SOL    HW1 4390   0.677   3.504   5.651
 1367SOL    HW2 4391   0.599   3.406   5.757
 1368SOL     OW 4392   1.198   3.460   5.614
 1368SOL    HW1 4393   1.191   3.366   5.648
 1368SOL    HW2 4394   1.130   3.474   5.542
 1369SOL     OW 4395   0.861   2.764   5.803
 1369SOL    HW1 4396   0.945   2.806   5.771
 1369SOL    HW2 4397   0.880   2.706   5.882
 1370SOL     OW 4398   1.475   3.498   5.619
 1370SOL    HW1 4399   1.378   3.482   5.604
 1370SOL    HW2 4400   1.522   3.500   5.531
 1371SOL     OW 4401   1.041   3.017   0.294
 1371SOL    HW1 4402   1.002   2.975   0.376
 1371SOL    HW2 4403   1.071   2.946   0.231
 1372SOL     OW 4404   0.258   3.219   5.921
 1372SOL    HW1 4405   0.165   3.207   5.884
 1372SOL    HW2 4406   0.257   3.294   5.988
 1373SOL     OW 4407   0.069   2.182   5.607
 1373SOL    HW1 4408  -0.030   2.176   5.597
 1373SOL    HW2 4409   0.103   2.258   5.551
 1374SOL     OW 4410   0.089   2.075   5.853
 1374SOL    HW1 4411   0.087   2.127   5.768
 1374SOL    HW2 4412   0.166   2.010   5.850
 1375SOL     OW 4413   1.168   3.200   5.708
 1375SOL    HW1 4414   1.071   3.181   5.694
 1375SOL    HW2 4415   1.191   3.187   5.804
 1376SOL     OW 4416   1.209   2.170   0.021
 1376SOL    HW1 4417   1.299   2.150   0.061
 1376SOL    HW2 4418   1.165   2.243   0.072
 1377SOL     OW 4419   0.873   3.240   5.633
 1377SOL    HW1 4420   0.826   3.285   5.709
 1377SOL    HW2 4421   0.892   3.307   5.561
 1378SOL     OW 4422   1.089   2.856   5.690
 1378SOL    HW1 4423   1.063   2.904   5.606
 1378SOL    HW2 4424   1.172   2.803   5.674
 1379SOL     OW 4425   1.366   1.899   5.738
 1379SOL    HW1 4426   1.409   1.816   5.702
 1379SOL    HW2 4427   1.277   1.876   5.778
 1380SOL     OW 4428   0.063   2.920   5.866
 1380SOL    HW1 4429   0.155   2.888   5.845
 1380SOL    HW2 4430   0.027   2.871   5.945
 1381SOL     OW 4431   0.876   3.521   5.919
 1381SOL    HW1 4432   0.799   3.510   5.856
 1381SOL    HW2 4433   0.853   3.591   5.987
 1382SOL     OW 4434   0.237   4.363   0.121
 1382SOL    HW1 4435   0.150   4.334   0.159
 1382SOL    HW2 4436   0.227   4.377   0.022
 1383SOL     OW 4437   0.216   4.000   1.001
 1383SOL    HW1 4438   0.250   3.956   1.084
 1383SOL    HW2 4439   0.119   3.978   0.989
 1384SOL     OW 4440   6.011   4.120   0.607
 1384SOL    HW1 4441   5.923   4.131   0.655
 1384SOL    HW2 4442   5.998   4.065   0.525
 1385SOL     OW 4443   0.577   5.026   1.200
 1385SOL    HW1 4444   0.487   5.023   1.158
 1385SOL    HW2 4445   0.596   5.119   1.232
 1386SOL     OW 4446   1.571   5.237   0.708
 1386SOL    HW1 4447   1.526   5.211   0.793
 1386SOL    HW2 4448   1.503   5.246   0.636
 1387SOL     OW 4449   1.135   4.429   0.693
 1387SOL    HW1 4450   1.187   4.514   0.680
 1387SOL    HW2 4451   1.084   4.435   0.779
 1388SOL     OW 4452   1.797   4.315   0.241
 1388SOL    HW1 4453   1.740   4.352   0.167
 1388SOL    HW2 4454   1.752   4.234   0.279
 1389SOL     OW 4455   0.733   4.860   1.042
 1389SOL    HW1 4456   0.671   4.897   1.111
 1389SOL    HW2 4457   0.780   4.935   0.996
 1390SOL     OW 4458   0.880   4.479   1.823
 1390SOL    HW1 4459   0.869   4.547   1.895
 1390SOL    HW2 4460   0.902   4.525   1.737
 1391SOL     OW 4461   0.685   4.718   0.648
 1391SOL    HW1 4462   0.757   4.709   0.716
 1391SOL    HW2 4463   0.616   4.783   0.681
 1392SOL     OW 4464   0.714   4.878   1.825
 1392SOL    HW1 4465   0.767   4.954   1.861
 1392SOL    HW2 4466   0.631   4.912   1.782
 1393SOL     OW 4467   0.340   5.128   1.074
 1393SOL    HW1 4468   0.256   5.092   1.035
 1393SOL    HW2 4469   0.386   5.185   1.006
 1394SOL     OW 4470   1.456   5.227   1.364
 1394SOL    HW1 4471   1.513   5.308   1.371
 1394SOL    HW2 4472   1.382   5.231   1.431
 1395SOL     OW 4473   0.452   4.115   1.479
 1395SOL    HW1 4474   0.533   4.055   1.482
 1395SOL    HW2 4475   0.370   4.060   1.492
 1396SOL     OW 4476   1.606   4.165   0.747
 1396SOL    HW1 4477   1.534   4.181   0.679
 1396SOL    HW2 4478   1.602   4.236   0.817
 1397SOL     OW 4479   0.243   5.441   0.500
 1397SOL    HW1 4480   0.254   5.523   0.556
 1397SOL    HW2 4481   0.327   5.425   0.447
 1398SOL     OW 4482   1.137   5.061   1.699
 1398SOL    HW1 4483   1.182   5.058   1.788
 1398SOL    HW2 4484   1.080   4.980   1.688
 1399SOL     OW 4485   0.235   5.164   0.530
 1399SOL    HW1 4486   0.216   5.261   0.543
 1399SOL    HW2 4487   0.176   5.111   0.591
 1400SOL     OW 4488   0.286   4.813   0.901
 1400SOL    HW1 4489   0.286   4.725   0.950
 1400SOL    HW2 4490   0.222   4.876   0.945
 1401SOL     OW 4491   0.599   5.513   1.429
 1401SOL    HW1 4492   0.512   5.493   1.475
 1401SOL    HW2 4493   0.628   5.606   1.452
 1402SOL     OW 4494   0.593   4.684   0.144
 1402SOL    HW1 4495   0.534   4.751   0.099
 1402SOL    HW2 4496   0.642   4.727   0.219
 1403SOL     OW 4497   1.600   3.849   1.469
 1403SOL    HW1 4498   1.624   3.928   1.412
 1403SOL    HW2 4499   1.576   3.880   1.561
 1404SOL     OW 4500   0.138   4.372   0.595
 1404SOL    HW1 4501   0.091   4.285   0.582
 1404SOL    HW2 4502   0.079   4.434   0.647
 1405SOL     OW 4503   1.858   5.482   0.329
 1405SOL    HW1 4504   1.929   5.448   0.392
 1405SOL    HW2 4505   1.867   5.581   0.318
 1406SOL     OW 4506   5.969   5.283   0.103
 1406SOL    HW1 4507   5.982   5.185   0.118
 1406SOL    HW2 4508   5.984   5.332   0.188
 1407SOL     OW 4509   1.697   4.633   0.661
 1407SOL    HW1 4510   1.783   4.583   0.649
 1407SOL    HW2 4511   1.676   4.682   0.576
 1408SOL     OW 4512   1.630   4.822   0.464
 1408SOL    HW1 4513   1.659   4.881   0.390
 1408SOL    HW2 4514   1.641   4.869   0.551
 1409SOL     OW 4515   0.086   4.472   1.684
 1409SOL    HW1 4516   0.148   4.502   1.756
 1409SOL    HW2 4517   0.118   4.506   1.596
 1410SOL     OW 4518   0.621   5.125   0.730
 1410SOL    HW1 4519   0.578   5.035   0.742
 1410SOL    HW2 4520   0.610   5.155   0.635
 1411SOL     OW 4521   1.283   4.955   1.421
 1411SOL    HW1 4522   1.308   4.884   1.355
 1411SOL    HW2 4523   1.345   4.950   1.499
 1412SOL     OW 4524   0.829   3.742   0.511
 1412SOL    HW1 4525   0.873   3.829   0.490
 1412SOL    HW2 4526   0.730   3.756   0.521
 1413SOL     OW 4527   0.203   4.687   1.231
 1413SOL    HW1 4528   0.295   4.653   1.210
 1413SOL    HW2 4529   0.136   4.640   1.175
 1414SOL     OW 4530   1.454   4.759   0.226
 1414SOL    HW1 4531   1.385   4.696   0.262
 1414SOL    HW2 4532   1.529   4.767   0.292
 1415SOL     OW 4533   1.206   5.524   1.620
 1415SOL    HW1 4534   1.200   5.581   1.538
 1415SOL    HW2 4535   1.214   5.428   1.593
 1416SOL     OW 4536   0.329   3.958   1.867
 1416SOL    HW1 4537   0.381   4.043   1.873
 1416SOL    HW2 4538   0.231   3.978   1.863
 1417SOL     OW 4539   1.460   5.146   0.940
 1417SOL    HW1 4540   1.397   5.166   1.016
 1417SOL    HW2 4541   1.453   5.050   0.915
 1418SOL     OW 4542   1.656   5.471   0.578
 1418SOL    HW1 4543   1.630   5.446   0.485
 1418SOL    HW2 4544   1.634   5.395   0.640
 1419SOL     OW 4545   0.597   4.442   0.281
 1419SOL    HW1 4546   0.605   4.528   0.232
 1419SOL    HW2 4547   0.528   4.450   0.353
 1420SOL     OW 4548   1.277   4.094   0.936
 1420SOL    HW1 4549   1.184   4.058   0.940
 1420SOL    HW2 4550   1.336   4.040   0.996
 1421SOL     OW 4551   1.592   5.399   0.316
 1421SOL    HW1 4552   1.690   5.418   0.314
 1421SOL    HW2 4553   1.559   5.383   0.223
 1422SOL     OW 4554   0.791   4.332   1.447
 1422SOL    HW1 4555   0.765   4.306   1.540
 1422SOL    HW2 4556   0.759   4.263   1.383
 1423SOL     OW 4557   1.390   4.195   1.679
 1423SOL    HW1 4558   1.392   4.244   1.766
 1423SOL    HW2 4559   1.446   4.112   1.685
 1424SOL     OW 4560   0.951   4.605   1.587
 1424SOL    HW1 4561   1.008   4.534   1.545
 1424SOL    HW2 4562   0.898   4.651   1.515
 1425SOL     OW 4563   0.996   4.123   1.219
 1425SOL    HW1 4564   0.902   4.140   1.249
 1425SOL    HW2 4565   0.994   4.068   1.135
 1426SOL     OW 4566   1.054   4.416   0.431
 1426SOL    HW1 4567   1.076   4.416   0.529
 1426SOL    HW2 4568   0.968   4.368   0.417
 1427SOL     OW 4569   0.070   4.558   0.801
 1427SOL    HW1 4570   0.148   4.525   0.855
 1427SOL    HW2 4571   0.101   4.627   0.736
 1428SOL     OW 4572   0.126   5.598   1.583
 1428SOL    HW1 4573   0.129   5.565   1.677
 1428SOL    HW2 4574   0.036   5.577   1.544
 1429SOL     OW 4575   0.887   4.069   0.212
 1429SOL    HW1 4576   0.940   4.131   0.154
 1429SOL    HW2 4577   0.883   3.979   0.169
 1430SOL     OW 4578   1.693   4.295   1.829
 1430SOL    HW1 4579   1.663   4.376   1.778
 1430SOL    HW2 4580   1.722   4.224   1.765
 1431SOL     OW 4581   1.367   4.868   0.536
 1431SOL    HW1 4582   1.456   4.851   0.493
 1431SOL    HW2 4583   1.317   4.938   0.484
 1432SOL     OW 4584   0.532   3.918   0.896
 1432SOL    HW1 4585   0.547   3.945   0.991
 1432SOL    HW2 4586   0.543   3.998   0.837
 1433SOL     OW 4587   0.999   5.178   0.465
 1433SOL    HW1 4588   0.965   5.254   0.410
 1433SOL    HW2 4589   0.969   5.189   0.560
 1434SOL     OW 4590   0.346   5.536   0.887
 1434SOL    HW1 4591   0.398   5.450   0.885
 1434SOL    HW2 4592   0.409   5.612   0.904
 1435SOL     OW 4593   1.802   4.772   0.884
 1435SOL    HW1 4594   1.752   4.749   0.801
 1435SOL    HW2 4595   1.737   4.782   0.960
 1436SOL     OW 4596   1.224   5.257   1.516
 1436SOL    HW1 4597   1.213   5.182   1.582
 1436SOL    HW2 4598   1.155   5.249   1.444
 1437SOL     OW 4599   0.302   4.677   0.264
 1437SOL    HW1 4600   0.344   4.728   0.189
 1437SOL    HW2 4601   0.314   4.579   0.249
 1438SOL     OW 4602   1.482   4.477   0.720
 1438SOL    HW1 4603   1.478   4.430   0.809
 1438SOL    HW2 4604   1.565   4.532   0.716
 1439SOL     OW 4605   0.475   4.987   1.731
 1439SOL    HW1 4606   0.452   4.995   1.634
 1439SOL    HW2 4607   0.390   4.988   1.785
 1440SOL     OW 4608   1.117   5.497   0.220
 1440SOL    HW1 4609   1.046   5.453   0.275
 1440SOL    HW2 4610   1.163   5.428   0.163
 1441SOL     OW 4611   0.202   3.998   1.494
 1441SOL    HW1 4612   0.125   4.056   1.469
 1441SOL    HW2 4613   0.169   3.912   1.532
 1442SOL     OW 4614   1.608   5.093   0.056
 1442SOL    HW1 4615   1.598   5.192   0.052
 1442SOL    HW2 4616   1.520   5.049   0.037
 1443SOL     OW 4617   0.479   5.452   0.352
 1443SOL    HW1 4618   0.523   5.519   0.412
 1443SOL    HW2 4619   0.544   5.422   0.282
 1444SOL     OW 4620   1.406   3.828   0.441
 1444SOL    HW1 4621   1.398   3.804   0.344
 1444SOL    HW2 4622   1.502   3.841   0.465
 1445SOL     OW 4623   0.256   5.500   1.219
 1445SOL    HW1 4624   0.304   5.426   1.266
 1445SOL    HW2 4625   0.272   5.493   1.120
 1446SOL     OW 4626   0.941   5.423   0.896
 1446SOL    HW1 4627   1.026   5.379   0.924
 1446SOL    HW2 4628   0.898   5.371   0.822
 1447SOL     OW 4629   0.393   4.410   0.478
 1447SOL    HW1 4630   0.421   4.314   0.485
 1447SOL    HW2 4631   0.298   4.419   0.509
 1448SOL     OW 4632   1.518   3.946   1.725
 1448SOL    HW1 4633   1.530   3.965   1.822
 1448SOL    HW2 4634   1.445   3.878   1.713
 1449SOL     OW 4635   0.626   3.813   0.090
 1449SOL    HW1 4636   0.726   3.816   0.097
 1449SOL    HW2 4637   0.595   3.882   0.025
 1450SOL     OW 4638   0.764   4.000   1.761
 1450SOL    HW1 4639   0.851   3.951   1.752
 1450SOL    HW2 4640   0.711   3.961   1.836
 1451SOL     OW 4641   0.877   5.240   1.192
 1451SOL    HW1 4642   0.855   5.201   1.103
 1451SOL    HW2 4643   0.946   5.184   1.237
 1452SOL     OW 4644   1.335   4.313   1.436
 1452SOL    HW1 4645   1.366   4.279   1.524
 1452SOL    HW2 4646   1.372   4.405   1.422
 1453SOL     OW 4647   0.822   5.107   0.945
 1453SOL    HW1 4648   0.913   5.097   0.905
 1453SOL    HW2 4649   0.754   5.122   0.873
 1454SOL     OW 4650   0.926   4.232   0.894
 1454SOL    HW1 4651   0.901   4.223   0.798
 1454SOL    HW2 4652   0.956   4.144   0.929
 1455SOL     OW 4653   0.561   3.797   0.501
 1455SOL    HW1 4654   0.482   3.794   0.563
 1455SOL    HW2 4655   0.551   3.873   0.438
 1456SOL     OW 4656   1.386   4.940   0.032
 1456SOL    HW1 4657   1.414   4.869   0.097
 1456SOL    HW2 4658   1.305   4.987   0.066
 1457SOL     OW 4659   0.953   3.980   0.461
 1457SOL    HW1 4660   0.924   4.016   0.373
 1457SOL    HW2 4661   1.052   3.991   0.471
 1458SOL     OW 4662   1.076   4.409   1.449
 1458SOL    HW1 4663   1.002   4.342   1.454
 1458SOL    HW2 4664   1.164   4.362   1.446
 1459SOL     OW 4665   1.212   5.299   0.798
 1459SOL    HW1 4666   1.228   5.367   0.725
 1459SOL    HW2 4667   1.292   5.297   0.858
 1460SOL     OW 4668   0.484   4.890   0.724
 1460SOL    HW1 4669   0.415   4.870   0.792
 1460SOL    HW2 4670   0.443   4.887   0.633
 1461SOL     OW 4671   1.263   5.516   0.610
 1461SOL    HW1 4672   1.319   5.581   0.559
 1461SOL    HW2 4673   1.183   5.564   0.647
 1462SOL     OW 4674   1.025   4.256   0.067
 1462SOL    HW1 4675   0.950   4.292   0.012
 1462SOL    HW2 4676   1.052   4.323   0.135
 1463SOL     OW 4677   0.093   4.265   1.394
 1463SOL    HW1 4678   0.186   4.272   1.358
 1463SOL    HW2 4679   0.069   4.351   1.440
 1464SOL     OW 4680   0.568   3.949   1.166
 1464SOL    HW1 4681   0.620   3.864   1.165
 1464SOL    HW2 4682   0.477   3.932   1.204
 1465SOL     OW 4683   0.868   4.186   0.633
 1465SOL    HW1 4684   0.818   4.244   0.569
 1465SOL    HW2 4685   0.897   4.102   0.587
 1466SOL     OW 4686   1.020   3.770   0.737
 1466SOL    HW1 4687   0.955   3.767   0.661
 1466SOL    HW2 4688   0.997   3.699   0.804
 1467SOL     OW 4689   1.449   4.883   0.865
 1467SOL    HW1 4690   1.372   4.820   0.856
 1467SOL    HW2 4691   1.492   4.895   0.776
 1468SOL     OW 4692   1.468   4.333   0.962
 1468SOL    HW1 4693   1.402   4.258   0.964
 1468SOL    HW2 4694   1.527   4.327   1.042
 1469SOL     OW 4695   1.857   4.534   0.393
 1469SOL    HW1 4696   1.918   4.498   0.463
 1469SOL    HW2 4697   1.832   4.461   0.330
 1470SOL     OW 4698   0.484   5.138   0.152
 1470SOL    HW1 4699   0.405   5.115   0.208
 1470SOL    HW2 4700   0.505   5.062   0.091
 1471SOL     OW 4701   1.674   4.980   0.676
 1471SOL    HW1 4702   1.774   4.977   0.672
 1471SOL    HW2 4703   1.644   5.075   0.677
 1472SOL     OW 4704   1.395   4.290   0.103
 1472SOL    HW1 4705   1.333   4.280   0.181
 1472SOL    HW2 4706   1.447   4.206   0.090
 1473SOL     OW 4707   0.516   3.979   0.297
 1473SOL    HW1 4708   0.565   3.923   0.230
 1473SOL    HW2 4709   0.500   4.070   0.259
 1474SOL     OW 4710   1.750   4.967   1.548
 1474SOL    HW1 4711   1.839   4.925   1.531
 1474SOL    HW2 4712   1.762   5.059   1.584
 1475SOL     OW 4713   1.048   5.074   1.338
 1475SOL    HW1 4714   0.965   5.043   1.385
 1475SOL    HW2 4715   1.128   5.031   1.380
 1476SOL     OW 4716   1.615   5.359   1.661
 1476SOL    HW1 4717   1.597   5.394   1.569
 1476SOL    HW2 4718   1.699   5.305   1.661
 1477SOL     OW 4719   1.145   4.956   1.105
 1477SOL    HW1 4720   1.082   4.987   1.176
 1477SOL    HW2 4721   1.112   4.985   1.015
 1478SOL     OW 4722   1.620   4.818   1.082
 1478SOL    HW1 4723   1.614   4.885   1.157
 1478SOL    HW2 4724   1.547   4.836   1.016
 1479SOL     OW 4725   0.923   3.815   1.393
 1479SOL    HW1 4726   0.939   3.795   1.297
 1479SOL    HW2 4727   1.004   3.858   1.433
 1480SOL     OW 4728   0.977   4.838   1.721
 1480SOL    HW1 4729   0.883   4.857   1.749
 1480SOL    HW2 4730   0.979   4.754   1.666
 1481SOL     OW 4731   0.720   4.782   0.370
 1481SOL    HW1 4732   0.694   4.768   0.466
 1481SOL    HW2 4733   0.793   4.719   0.346
 1482SOL     OW 4734   0.439   4.543   1.244
 1482SOL    HW1 4735   0.510   4.558   1.313
 1482SOL    HW2 4736   0.398   4.453   1.257
 1483SOL     OW 4737   1.260   4.097   1.285
 1483SOL    HW1 4738   1.294   4.178   1.333
 1483SOL    HW2 4739   1.165   4.113   1.257
 1484SOL     OW 4740   0.071   5.318   1.341
 1484SOL    HW1 4741   0.098   5.388   1.275
 1484SOL    HW2 4742   0.153   5.283   1.388
 1485SOL     OW 4743   0.394   4.862   0.461
 1485SOL    HW1 4744   0.366   4.945   0.414
 1485SOL    HW2 4745   0.371   4.782   0.405
 1486SOL     OW 4746   0.556   4.257   0.859
 1486SOL    HW1 4747   0.563   4.320   0.782
 1486SOL    HW2 4748   0.623   4.281   0.929
 1487SOL     OW 4749   1.253   5.085   0.400
 1487SOL    HW1 4750   1.308   5.160   0.435
 1487SOL    HW2 4751   1.157   5.099   0.425
 1488SOL     OW 4752   1.294   5.190   1.147
 1488SOL    HW1 4753   1.350   5.195   1.230
 1488SOL    HW2 4754   1.241   5.105   1.148
 1489SOL     OW 4755   1.564   4.342   0.487
 1489SOL    HW1 4756   1.518   4.386   0.564
 1489SOL    HW2 4757   1.596   4.412   0.423
 1490SOL     OW 4758   0.355   5.252   1.313
 1490SOL    HW1 4759   0.336   5.201   1.229
 1490SOL    HW2 4760   0.454   5.268   1.320
 1491SOL     OW 4761   0.440   4.454   1.592
 1491SOL    HW1 4762   0.512   4.498   1.538
 1491SOL    HW2 4763   0.466   4.359   1.611
 1492SOL     OW 4764   1.615   4.513   1.689
 1492SOL    HW1 4765   1.524   4.553   1.684
 1492SOL    HW2 4766   1.672   4.551   1.616
 1493SOL     OW 4767   0.999   3.863   1.754
 1493SOL    HW1 4768   1.056   3.944   1.738
 1493SOL    HW2 4769   1.048   3.781   1.726
 1494SOL     OW 4770   0.487   3.758   1.761
 1494SOL    HW1 4771   0.445   3.706   1.687
 1494SOL    HW2 4772   0.427   3.834   1.786
 1495SOL     OW 4773   0.597   4.601   1.026
 1495SOL    HW1 4774   0.634   4.694   1.028
 1495SOL    HW2 4775   0.538   4.588   1.106
 1496SOL     OW 4776   1.340   4.578   1.020
 1496SOL    HW1 4777   1.248   4.565   0.981
 1496SOL    HW2 4778   1.393   4.495   1.007
 1497SOL     OW 4779   1.215   4.243   0.297
 1497SOL    HW1 4780   1.225   4.159   0.350
 1497SOL    HW2 4781   1.162   4.310   0.350
 1498SOL     OW 4782   0.305   3.904   1.246
 1498SOL    HW1 4783   0.268   3.941   1.331
 1498SOL    HW2 4784   0.286   3.806   1.241
 1499SOL     OW 4785   0.058   5.047   1.262
 1499SOL    HW1 4786   0.092   4.993   1.339
 1499SOL    HW2 4787   0.048   5.142   1.290
 1500SOL     OW 4788   0.727   4.355   1.051
 1500SOL    HW1 4789   0.804   4.332   0.991
 1500SOL    HW2 4790   0.695   4.447   1.029
 1501SOL     OW 4791   1.741   4.687   1.862
 1501SOL    HW1 4792   1.700   4.616   1.805
 1501SOL    HW2 4793   1.679   4.708   1.938
 1502SOL     OW 4794   0.322   3.796   0.635
 1502SOL    HW1 4795   0.293   3.891   0.646
 1502SOL    HW2 4796   0.325   3.751   0.724
 1503SOL     OW 4797   1.635   4.112   0.359
 1503SOL    HW1 4798   1.649   4.032   0.418
 1503SOL    HW2 4799   1.601   4.189   0.413
 1504SOL     OW 4800   1.025   4.478   0.956
 1504SOL    HW1 4801   1.015   4.500   1.053
 1504SOL    HW2 4802   0.998   4.384   0.940
 1505SOL     OW 4803   0.989   5.291   1.721
 1505SOL    HW1 4804   0.964   5.334   1.634
 1505SOL    HW2 4805   1.030   5.201   1.703
 1506SOL     OW 4806   1.851   5.225   1.602
 1506SOL    HW1 4807   1.872   5.251   1.508
 1506SOL    HW2 4808   1.933   5.233   1.658
 1507SOL     OW 4809   0.350   4.620   1.791
 1507SOL    HW1 4810   0.425   4.653   1.847
 1507SOL    HW2 4811   0.385   4.560   1.719
 1508SOL     OW 4812   1.493   4.030   0.133
 1508SOL    HW1 4813   1.465   3.935   0.147
 1508SOL    HW2 4814   1.550   4.060   0.210
 1509SOL     OW 4815   1.283   4.524   0.031
 1509SOL    HW1 4816   1.330   4.437   0.048
 1509SOL    HW2 4817   1.344   4.584  -0.022
 1510SOL     OW 4818   1.073   5.064   0.857
 1510SOL    HW1 4819   1.077   4.987   0.794
 1510SOL    HW2 4820   1.127   5.140   0.821
 1511SOL     OW 4821   0.318   4.530   0.949
 1511SOL    HW1 4822   0.415   4.550   0.931
 1511SOL    HW2 4823   0.311   4.439   0.989
 1512SOL     OW 4824   0.349   4.233   1.024
 1512SOL    HW1 4825   0.310   4.141   1.021
 1512SOL    HW2 4826   0.427   4.238   0.962
 1513SOL     OW 4827   1.134   4.097   1.695
 1513SOL    HW1 4828   1.082   4.153   1.760
 1513SOL    HW2 4829   1.226   4.135   1.684
 1514SOL     OW 4830   1.162   3.924   1.480
 1514SOL    HW1 4831   1.146   3.988   1.555
 1514SOL    HW2 4832   1.204   3.972   1.403
 1515SOL     OW 4833   5.990   5.022   0.201
 1515SOL    HW1 4834   5.909   5.052   0.251
 1515SOL    HW2 4835   6.009   4.926   0.222
 1516SOL     OW 4836   0.049   5.538   0.869
 1516SOL    HW1 4837   0.057   5.440   0.883
 1516SOL    HW2 4838   0.135   5.583   0.895
 1517SOL     OW 4839   0.483   5.294   0.901
 1517SOL    HW1 4840   0.553   5.360   0.931
 1517SOL    HW2 4841   0.524   5.230   0.837
 1518SOL     OW 4842   0.964   4.516   1.220
 1518SOL    HW1 4843   1.024   4.493   1.297
 1518SOL    HW2 4844   0.877   4.467   1.229
 1519SOL     OW 4845  -0.015   4.330   1.129
 1519SOL    HW1 4846   0.019   4.287   1.045
 1519SOL    HW2 4847   0.022   4.281   1.208
 1520SOL     OW 4848   0.182   4.220   1.729
 1520SOL    HW1 4849   0.225   4.175   1.650
 1520SOL    HW2 4850   0.133   4.301   1.699
 1521SOL     OW 4851   1.384   4.655   1.652
 1521SOL    HW1 4852   1.407   4.753   1.652
 1521SOL    HW2 4853   1.379   4.622   1.558
 1522SOL     OW 4854   0.820   4.297   0.364
 1522SOL    HW1 4855   0.824   4.214   0.310
 1522SOL    HW2 4856   0.742   4.353   0.335
 1523SOL     OW 4857   1.641   4.327   1.176
 1523SOL    HW1 4858   1.624   4.266   1.253
 1523SOL    HW2 4859   1.734   4.312   1.141
 1524SOL     OW 4860   0.289   5.273   1.733
 1524SOL    HW1 4861   0.232   5.342   1.777
 1524SOL    HW2 4862   0.262   5.182   1.765
 1525SOL     OW 4863   0.719   4.166   1.247
 1525SOL    HW1 4864   0.661   4.088   1.226
 1525SOL    HW2 4865   0.710   4.235   1.174
 1526SOL     OW 4866   0.918   5.401   1.475
 1526SOL    HW1 4867   0.889   5.348   1.395
 1526SOL    HW2 4868   0.912   5.498   1.454
 1527SOL     OW 4869   0.462   4.221   0.196
 1527SOL    HW1 4870   0.527   4.292   0.223
 1527SOL    HW2 4871   0.375   4.264   0.172
 1528SOL     OW 4872   0.172   4.871   1.442
 1528SOL    HW1 4873   0.140   4.833   1.528
 1528SOL    HW2 4874   0.171   4.800   1.371
 1529SOL     OW 4875   1.309   4.765   1.215
 1529SOL    HW1 4876   1.333   4.697   1.146
 1529SOL    HW2 4877   1.248   4.833   1.175
 1530SOL     OW 4878   1.276   4.572   0.310
 1530SOL    HW1 4879   1.207   4.525   0.364
 1530SOL    HW2 4880   1.272   4.539   0.215
 1531SOL     OW 4881   1.782   5.439   1.164
 1531SOL    HW1 4882   1.843   5.477   1.094
 1531SOL    HW2 4883   1.750   5.349   1.134
 1532SOL     OW 4884   1.243   5.458   1.104
 1532SOL    HW1 4885   1.330   5.491   1.066
 1532SOL    HW2 4886   1.250   5.361   1.125
 1533SOL     OW 4887   0.097   4.982   1.007
 1533SOL    HW1 4888   0.081   5.005   1.103
 1533SOL    HW2 4889   0.020   4.928   0.972
 1534SOL     OW 4890   0.685   5.402   1.745
 1534SOL    HW1 4891   0.616   5.475   1.744
 1534SOL    HW2 4892   0.753   5.420   1.673
 1535SOL     OW 4893   0.911   3.811   0.097
 1535SOL    HW1 4894   0.975   3.842   0.027
 1535SOL    HW2 4895   0.960   3.755   0.164
 1536SOL     OW 4896   1.691   3.873   0.495
 1536SOL    HW1 4897   1.777   3.872   0.444
 1536SOL    HW2 4898   1.681   3.788   0.546
 1537SOL     OW 4899   1.399   5.300   0.496
 1537SOL    HW1 4900   1.461   5.332   0.424
 1537SOL    HW2 4901   1.344   5.377   0.528
 1538SOL     OW 4902   0.142   5.489   1.830
 1538SOL    HW1 4903   0.080   5.422   1.872
 1538SOL    HW2 4904   0.191   5.538   1.902
 1539SOL     OW 4905   1.281   4.656   0.673
 1539SOL    HW1 4906   1.357   4.593   0.687
 1539SOL    HW2 4907   1.311   4.732   0.615
 1540SOL     OW 4908   0.792   5.006   1.421
 1540SOL    HW1 4909   0.765   5.052   1.506
 1540SOL    HW2 4910   0.717   5.013   1.355
 1541SOL     OW 4911   0.663   5.337   0.176
 1541SOL    HW1 4912   0.704   5.348   0.085
 1541SOL    HW2 4913   0.599   5.260   0.174
 1542SOL     OW 4914   1.612   5.454   1.388
 1542SOL    HW1 4915   1.673   5.450   1.310
 1542SOL    HW2 4916   1.591   5.550   1.409
 1543SOL     OW 4917   1.844   3.889   0.963
 1543SOL    HW1 4918   1.877   3.797   0.943
 1543SOL    HW2 4919   1.752   3.900   0.925
 1544SOL     OW 4920   0.261   4.047   0.716
 1544SOL    HW1 4921   0.172   4.078   0.682
 1544SOL    HW2 4922   0.256   4.030   0.814
 1545SOL     OW 4923   1.238   5.327   0.043
 1545SOL    HW1 4924   1.210   5.234   0.066
 1545SOL    HW2 4925   1.186   5.359  -0.036
 1546SOL     OW 4926   0.827   4.737   1.384
 1546SOL    HW1 4927   0.875   4.719   1.298
 1546SOL    HW2 4928   0.818   4.836   1.397
 1547SOL     OW 4929   0.916   4.616   0.300
 1547SOL    HW1 4930   0.966   4.638   0.216
 1547SOL    HW2 4931   0.965   4.545   0.351
 1548SOL     OW 4932   1.503   5.374   0.055
 1548SOL    HW1 4933   1.406   5.351   0.046
 1548SOL    HW2 4934   1.540   5.398  -0.035
 1549SOL     OW 4935   0.387   5.029   1.483
 1549SOL    HW1 4936   0.374   5.114   1.432
 1549SOL    HW2 4937   0.310   4.968   1.467
 1550SOL     OW 4938   1.610   5.010   1.286
 1550SOL    HW1 4939   1.672   4.987   1.361
 1550SOL    HW2 4940   1.544   5.079   1.316
 1551SOL     OW 4941   1.066   4.832   0.719
 1551SOL    HW1 4942   0.990   4.781   0.759
 1551SOL    HW2 4943   1.138   4.768   0.692
 1552SOL     OW 4944   1.026   3.967   0.963
 1552SOL    HW1 4945   1.018   3.924   0.873
 1552SOL    HW2 4946   1.019   3.896   1.034
 1553SOL     OW 4947   0.616   5.209   0.476
 1553SOL    HW1 4948   0.667   5.154   0.410
 1553SOL    HW2 4949   0.541   5.257   0.429
 1554SOL     OW 4950   1.739   4.116   1.383
 1554SOL    HW1 4951   1.812   4.185   1.382
 1554SOL    HW2 4952   1.763   4.042   1.321
 1555SOL     OW 4953   0.264   5.061   0.289
 1555SOL    HW1 4954   0.173   5.046   0.250
 1555SOL    HW2 4955   0.255   5.104   0.379
 1556SOL     OW 4956   0.135   4.778   1.730
 1556SOL    HW1 4957   0.056   4.719   1.748
 1556SOL    HW2 4958   0.219   4.728   1.750
 1557SOL     OW 4959   0.682   3.921   1.502
 1557SOL    HW1 4960   0.766   3.894   1.455
 1557SOL    HW2 4961   0.705   3.954   1.594
 1558SOL     OW 4962   0.056   4.120   0.078
 1558SOL    HW1 4963   0.010   4.044   0.032
 1558SOL    HW2 4964   0.140   4.142   0.028
 1559SOL     OW 4965   1.418   4.579   1.391
 1559SOL    HW1 4966   1.361   4.641   1.338
 1559SOL    HW2 4967   1.512   4.580   1.356
 1560SOL     OW 4968   0.075   3.976   0.317
 1560SOL    HW1 4969   0.076   4.042   0.242
 1560SOL    HW2 4970   0.154   3.915   0.308
 1561SOL     OW 4971   1.174   5.077   0.127
 1561SOL    HW1 4972   1.076   5.063   0.113
 1561SOL    HW2 4973   1.197   5.063   0.223
 1562SOL     OW 4974   0.634   4.552   1.430
 1562SOL    HW1 4975   0.691   4.634   1.420
 1562SOL    HW2 4976   0.692   4.471   1.437
 1563SOL     OW 4977   1.490   5.536   1.007
 1563SOL    HW1 4978   1.514   5.592   0.928
 1563SOL    HW2 4979   1.570   5.483   1.035
 1564SOL     OW 4980   0.723   4.276   1.701
 1564SOL    HW1 4981   0.770   4.340   1.761
 1564SOL    HW2 4982   0.738   4.183   1.733
 1565SOL     OW 4983   1.475   4.916   1.632
 1565SOL    HW1 4984   1.460   4.931   1.730
 1565SOL    HW2 4985   1.570   4.937   1.608
 1566SOL     OW 4986   0.369   5.467   1.563
 1566SOL    HW1 4987   0.283   5.515   1.549
 1566SOL    HW2 4988   0.352   5.382   1.613
 1567SOL     OW 4989   1.660   4.599   1.257
 1567SOL    HW1 4990   1.657   4.509   1.214
 1567SOL    HW2 4991   1.648   4.669   1.187
 1568SOL     OW 4992   1.224   4.032   0.471
 1568SOL    HW1 4993   1.288   3.956   0.461
 1568SOL    HW2 4994   1.249   4.088   0.550
 1569SOL     OW 4995   0.579   4.461   0.675
 1569SOL    HW1 4996   0.623   4.550   0.662
 1569SOL    HW2 4997   0.513   4.445   0.601
 1570SOL     OW 4998   1.744   4.087   1.657
 1570SOL    HW1 4999   1.740   4.104   1.559
 1570SOL    HW2 5000   1.667   4.029   1.684
 1571SOL     OW 5001   1.760   4.653   1.508
 1571SOL    HW1 5002   1.744   4.749   1.529
 1571SOL    HW2 5003   1.733   4.635   1.413
 1572SOL     OW 5004   0.905   5.112   0.054
 1572SOL    HW1 5005   0.848   5.092   0.132
 1572SOL    HW2 5006   0.889   5.206   0.024
 1573SOL     OW 5007   0.664   5.491   0.937
 1573SOL    HW1 5008   0.636   5.586   0.920
 1573SOL    HW2 5009   0.764   5.484   0.930
 1574SOL     OW 5010   0.872   4.695   0.855
 1574SOL    HW1 5011   0.922   4.616   0.891
 1574SOL    HW2 5012   0.825   4.741   0.931
 1575SOL     OW 5013   1.068   4.687   0.085
 1575SOL    HW1 5014   1.044   4.744   0.005
 1575SOL    HW2 5015   1.148   4.631   0.062
 1576SOL     OW 5016   1.840   5.281   0.848
 1576SOL    HW1 5017   1.765   5.270   0.783
 1576SOL    HW2 5018   1.834   5.212   0.919
 1577SOL     OW 5019   0.229   5.019   1.843
 1577SOL    HW1 5020   0.177   4.949   1.794
 1577SOL    HW2 5021   0.198   5.023   1.938
 1578SOL     OW 5022   0.099   4.979   0.684
 1578SOL    HW1 5023   0.027   4.950   0.747
 1578SOL    HW2 5024   0.144   4.899   0.645
 1579SOL     OW 5025   0.689   5.138   1.640
 1579SOL    HW1 5026   0.607   5.089   1.668
 1579SOL    HW2 5027   0.685   5.232   1.676
 1580SOL     OW 5028   1.805   3.904   1.233
 1580SOL    HW1 5029   1.811   3.807   1.256
 1580SOL    HW2 5030   1.819   3.915   1.135
 1581SOL     OW 5031   0.439   4.150   0.523
 1581SOL    HW1 5032   0.462   4.078   0.458
 1581SOL    HW2 5033   0.383   4.112   0.597
 1582SOL     OW 5034   1.689   5.197   1.089
 1582SOL    HW1 5035   1.609   5.182   1.030
 1582SOL    HW2 5036   1.691   5.128   1.161
 1583SOL     OW 5037   0.347   4.289   1.293
 1583SOL    HW1 5038   0.398   4.229   1.354
 1583SOL    HW2 5039   0.355   4.257   1.199
 1584SOL     OW 5040   0.833   5.308   0.677
 1584SOL    HW1 5041   0.808   5.378   0.610
 1584SOL    HW2 5042   0.758   5.242   0.686
 1585SOL     OW 5043   1.427   3.957   1.116
 1585SOL    HW1 5044   1.434   3.860   1.142
 1585SOL    HW2 5045   1.374   4.005   1.185
 1586SOL     OW 5046   1.006   3.752   1.135
 1586SOL    HW1 5047   0.929   3.710   1.088
 1586SOL    HW2 5048   1.087   3.694   1.126
 1587SOL     OW 5049   0.781   5.051   0.311
 1587SOL    HW1 5050   0.750   4.957   0.324
 1587SOL    HW2 5051   0.873   5.061   0.350
 1588SOL     OW 5052   0.628   5.283   1.290
 1588SOL    HW1 5053   0.623   5.369   1.341
 1588SOL    HW2 5054   0.718   5.274   1.249
 1589SOL     OW 5055   1.363   3.778   0.170
 1589SOL    HW1 5056   1.407   3.705   0.116
 1589SOL    HW2 5057   1.268   3.754   0.187
 1590SOL     OW 5058   1.291   4.191   0.681
 1590SOL    HW1 5059   1.239   4.276   0.681
 1590SOL    HW2 5060   1.288   4.151   0.773
 1591SOL     OW 5061   1.586   3.923   0.890
 1591SOL    HW1 5062   1.530   3.946   0.969
 1591SOL    HW2 5063   1.587   4.001   0.827
 1592SOL     OW 5064   0.045   4.767   0.282
 1592SOL    HW1 5065   0.142   4.741   0.277
 1592SOL    HW2 5066   0.000   4.713   0.353
 1593SOL     OW 5067   0.887   5.394   0.333
 1593SOL    HW1 5068   0.806   5.363   0.283
 1593SOL    HW2 5069   0.860   5.461   0.402
 1594SOL     OW 5070   0.212   4.341   1.979
 1594SOL    HW1 5071   0.118   4.349   2.012
 1594SOL    HW2 5072   0.212   4.301   1.887
 1595SOL     OW 5073   0.217   3.992   2.859
 1595SOL    HW1 5074   0.244   3.955   2.948
 1595SOL    HW2 5075   0.117   3.984   2.848
 1596SOL     OW 5076   6.010   4.116   2.469
 1596SOL    HW1 5077   5.922   4.126   2.515
 1596SOL    HW2 5078   5.997   4.065   2.383
 1597SOL     OW 5079   0.577   5.026   3.061
 1597SOL    HW1 5080   0.486   5.023   3.019
 1597SOL    HW2 5081   0.596   5.118   3.094
 1598SOL     OW 5082   1.571   5.239   2.568
 1598SOL    HW1 5083   1.527   5.211   2.654
 1598SOL    HW2 5084   1.503   5.245   2.496
 1599SOL     OW 5085   1.136   4.430   2.553
 1599SOL    HW1 5086   1.188   4.514   2.537
 1599SOL    HW2 5087   1.085   4.439   2.639
 1600SOL     OW 5088   1.779   4.315   2.082
 1600SOL    HW1 5089   1.749   4.315   1.986
 1600SOL    HW2 5090   1.738   4.238   2.130
 1601SOL     OW 5091   0.733   4.861   2.905
 1601SOL    HW1 5092   0.671   4.898   2.973
 1601SOL    HW2 5093   0.779   4.936   2.858
 1602SOL     OW 5094   0.879   4.479   3.684
 1602SOL    HW1 5095   0.868   4.546   3.758
 1602SOL    HW2 5096   0.901   4.526   3.599
 1603SOL     OW 5097   0.685   4.718   2.510
 1603SOL    HW1 5098   0.758   4.710   2.578
 1603SOL    HW2 5099   0.616   4.782   2.542
 1604SOL     OW 5100   0.714   4.877   3.687
 1604SOL    HW1 5101   0.767   4.954   3.723
 1604SOL    HW2 5102   0.631   4.912   3.644
 1605SOL     OW 5103   0.340   5.128   2.935
 1605SOL    HW1 5104   0.255   5.094   2.896
 1605SOL    HW2 5105   0.387   5.186   2.867
 1606SOL     OW 5106   1.456   5.227   3.225
 1606SOL    HW1 5107   1.513   5.308   3.233
 1606SOL    HW2 5108   1.382   5.231   3.293
 1607SOL     OW 5109   0.452   4.114   3.337
 1607SOL    HW1 5110   0.532   4.054   3.344
 1607SOL    HW2 5111   0.369   4.060   3.353
 1608SOL     OW 5112   1.605   4.166   2.611
 1608SOL    HW1 5113   1.538   4.183   2.539
 1608SOL    HW2 5114   1.600   4.239   2.680
 1609SOL     OW 5115   0.251   5.439   2.360
 1609SOL    HW1 5116   0.263   5.520   2.417
 1609SOL    HW2 5117   0.326   5.432   2.295
 1610SOL     OW 5118   1.137   5.062   3.561
 1610SOL    HW1 5119   1.182   5.059   3.650
 1610SOL    HW2 5120   1.080   4.980   3.550
 1611SOL     OW 5121   0.249   5.164   2.397
 1611SOL    HW1 5122   0.230   5.262   2.405
 1611SOL    HW2 5123   0.186   5.113   2.455
 1612SOL     OW 5124   0.284   4.812   2.763
 1612SOL    HW1 5125   0.284   4.726   2.814
 1612SOL    HW2 5126   0.221   4.877   2.806
 1613SOL     OW 5127   0.600   5.512   3.292
 1613SOL    HW1 5128   0.513   5.492   3.337
 1613SOL    HW2 5129   0.628   5.606   3.314
 1614SOL     OW 5130   0.578   4.715   2.010
 1614SOL    HW1 5131   0.624   4.760   1.934
 1614SOL    HW2 5132   0.620   4.744   2.096
 1615SOL     OW 5133   1.599   3.848   3.331
 1615SOL    HW1 5134   1.628   3.925   3.274
 1615SOL    HW2 5135   1.576   3.881   3.423
 1616SOL     OW 5136   0.141   4.368   2.463
 1616SOL    HW1 5137   0.092   4.282   2.445
 1616SOL    HW2 5138   0.080   4.432   2.509
 1617SOL     OW 5139   1.850   5.476   2.191
 1617SOL    HW1 5140   1.923   5.449   2.254
 1617SOL    HW2 5141   1.863   5.572   2.164
 1618SOL     OW 5142   0.012   5.297   1.967
 1618SOL    HW1 5143   0.009   5.199   1.985
 1618SOL    HW2 5144   0.001   5.347   2.053
 1619SOL     OW 5145   1.694   4.647   2.512
 1619SOL    HW1 5146   1.777   4.594   2.494
 1619SOL    HW2 5147   1.670   4.700   2.431
 1620SOL     OW 5148   1.656   4.827   2.296
 1620SOL    HW1 5149   1.746   4.820   2.251
 1620SOL    HW2 5150   1.661   4.895   2.369
 1621SOL     OW 5151   0.084   4.468   3.539
 1621SOL    HW1 5152   0.140   4.502   3.615
 1621SOL    HW2 5153   0.117   4.506   3.453
 1622SOL     OW 5154   0.620   5.126   2.591
 1622SOL    HW1 5155   0.578   5.036   2.603
 1622SOL    HW2 5156   0.606   5.157   2.497
 1623SOL     OW 5157   1.283   4.954   3.283
 1623SOL    HW1 5158   1.308   4.884   3.217
 1623SOL    HW2 5159   1.345   4.950   3.361
 1624SOL     OW 5160   0.825   3.740   2.374
 1624SOL    HW1 5161   0.871   3.824   2.347
 1624SOL    HW2 5162   0.726   3.755   2.377
 1625SOL     OW 5163   0.200   4.690   3.086
 1625SOL    HW1 5164   0.293   4.656   3.069
 1625SOL    HW2 5165   0.134   4.629   3.043
 1626SOL     OW 5166   1.533   4.731   2.067
 1626SOL    HW1 5167   1.460   4.670   2.096
 1626SOL    HW2 5168   1.581   4.766   2.148
 1627SOL     OW 5169   1.206   5.525   3.481
 1627SOL    HW1 5170   1.200   5.581   3.399
 1627SOL    HW2 5171   1.215   5.428   3.455
 1628SOL     OW 5172   0.332   3.958   3.727
 1628SOL    HW1 5173   0.382   4.043   3.740
 1628SOL    HW2 5174   0.234   3.977   3.725
 1629SOL     OW 5175   1.462   5.146   2.801
 1629SOL    HW1 5176   1.398   5.164   2.876
 1629SOL    HW2 5177   1.454   5.049   2.775
 1630SOL     OW 5178   1.650   5.475   2.435
 1630SOL    HW1 5179   1.628   5.446   2.342
 1630SOL    HW2 5180   1.631   5.400   2.499
 1631SOL     OW 5181   0.592   4.442   2.139
 1631SOL    HW1 5182   0.599   4.529   2.090
 1631SOL    HW2 5183   0.523   4.449   2.211
 1632SOL     OW 5184   1.278   4.096   2.798
 1632SOL    HW1 5185   1.185   4.060   2.802
 1632SOL    HW2 5186   1.337   4.042   2.858
 1633SOL     OW 5187   1.584   5.400   2.171
 1633SOL    HW1 5188   1.682   5.422   2.167
 1633SOL    HW2 5189   1.550   5.383   2.079
 1634SOL     OW 5190   0.792   4.332   3.308
 1634SOL    HW1 5191   0.766   4.307   3.401
 1634SOL    HW2 5192   0.759   4.263   3.244
 1635SOL     OW 5193   1.389   4.195   3.541
 1635SOL    HW1 5194   1.391   4.244   3.628
 1635SOL    HW2 5195   1.448   4.114   3.548
 1636SOL     OW 5196   0.950   4.606   3.448
 1636SOL    HW1 5197   1.008   4.536   3.407
 1636SOL    HW2 5198   0.898   4.652   3.377
 1637SOL     OW 5199   0.996   4.121   3.081
 1637SOL    HW1 5200   0.902   4.140   3.110
 1637SOL    HW2 5201   0.995   4.076   2.992
 1638SOL     OW 5202   1.053   4.422   2.285
 1638SOL    HW1 5203   1.076   4.418   2.383
 1638SOL    HW2 5204   0.966   4.376   2.270
 1639SOL     OW 5205   0.071   4.556   2.666
 1639SOL    HW1 5206   0.150   4.527   2.719
 1639SOL    HW2 5207   0.099   4.624   2.599
 1640SOL     OW 5208   0.126   5.599   3.445
 1640SOL    HW1 5209   0.129   5.565   3.540
 1640SOL    HW2 5210   0.036   5.577   3.406
 1641SOL     OW 5211   0.895   4.078   2.062
 1641SOL    HW1 5212   0.940   4.143   2.001
 1641SOL    HW2 5213   0.883   3.991   2.014
 1642SOL     OW 5214   1.691   4.294   3.691
 1642SOL    HW1 5215   1.662   4.375   3.640
 1642SOL    HW2 5216   1.722   4.224   3.626
 1643SOL     OW 5217   1.383   4.869   2.392
 1643SOL    HW1 5218   1.467   4.854   2.340
 1643SOL    HW2 5219   1.326   4.935   2.345
 1644SOL     OW 5220   0.542   3.888   2.770
 1644SOL    HW1 5221   0.550   3.922   2.863
 1644SOL    HW2 5222   0.547   3.965   2.706
 1645SOL     OW 5223   0.991   5.172   2.324
 1645SOL    HW1 5224   0.964   5.250   2.268
 1645SOL    HW2 5225   0.966   5.189   2.419
 1646SOL     OW 5226   0.345   5.536   2.751
 1646SOL    HW1 5227   0.397   5.450   2.748
 1646SOL    HW2 5228   0.408   5.612   2.767
 1647SOL     OW 5229   1.799   4.777   2.740
 1647SOL    HW1 5230   1.750   4.754   2.656
 1647SOL    HW2 5231   1.735   4.783   2.815
 1648SOL     OW 5232   1.225   5.257   3.378
 1648SOL    HW1 5233   1.213   5.182   3.444
 1648SOL    HW2 5234   1.154   5.251   3.307
 1649SOL     OW 5235   0.321   4.681   2.113
 1649SOL    HW1 5236   0.408   4.706   2.071
 1649SOL    HW2 5237   0.294   4.590   2.083
 1650SOL     OW 5238   1.485   4.480   2.581
 1650SOL    HW1 5239   1.483   4.436   2.670
 1650SOL    HW2 5240   1.566   4.539   2.575
 1651SOL     OW 5241   0.475   4.986   3.593
 1651SOL    HW1 5242   0.453   4.995   3.496
 1651SOL    HW2 5243   0.390   4.988   3.646
 1652SOL     OW 5244   1.130   5.495   2.087
 1652SOL    HW1 5245   1.045   5.466   2.131
 1652SOL    HW2 5246   1.156   5.430   2.017
 1653SOL     OW 5247   0.201   3.999   3.357
 1653SOL    HW1 5248   0.124   4.058   3.334
 1653SOL    HW2 5249   0.167   3.914   3.396
 1654SOL     OW 5250   1.623   5.110   1.956
 1654SOL    HW1 5251   1.587   5.201   1.935
 1654SOL    HW2 5252   1.554   5.041   1.934
 1655SOL     OW 5253   0.467   5.460   2.182
 1655SOL    HW1 5254   0.509   5.527   2.243
 1655SOL    HW2 5255   0.536   5.422   2.121
 1656SOL     OW 5256   1.399   3.825   2.305
 1656SOL    HW1 5257   1.388   3.800   2.209
 1656SOL    HW2 5258   1.496   3.833   2.327
 1657SOL     OW 5259   0.255   5.499   3.080
 1657SOL    HW1 5260   0.304   5.425   3.127
 1657SOL    HW2 5261   0.273   5.494   2.981
 1658SOL     OW 5262   0.939   5.423   2.756
 1658SOL    HW1 5263   1.024   5.378   2.785
 1658SOL    HW2 5264   0.898   5.371   2.682
 1659SOL     OW 5265   0.395   4.408   2.341
 1659SOL    HW1 5266   0.423   4.312   2.349
 1659SOL    HW2 5267   0.300   4.418   2.371
 1660SOL     OW 5268   1.519   3.947   3.587
 1660SOL    HW1 5269   1.532   3.965   3.685
 1660SOL    HW2 5270   1.444   3.882   3.575
 1661SOL     OW 5271   0.652   3.835   1.962
 1661SOL    HW1 5272   0.717   3.762   1.983
 1661SOL    HW2 5273   0.590   3.804   1.890
 1662SOL     OW 5274   0.762   3.999   3.619
 1662SOL    HW1 5275   0.849   3.950   3.612
 1662SOL    HW2 5276   0.711   3.963   3.698
 1663SOL     OW 5277   0.877   5.240   3.053
 1663SOL    HW1 5278   0.855   5.201   2.964
 1663SOL    HW2 5279   0.946   5.183   3.099
 1664SOL     OW 5280   1.336   4.313   3.298
 1664SOL    HW1 5281   1.366   4.279   3.387
 1664SOL    HW2 5282   1.372   4.405   3.283
 1665SOL     OW 5283   0.822   5.107   2.807
 1665SOL    HW1 5284   0.912   5.097   2.766
 1665SOL    HW2 5285   0.754   5.122   2.734
 1666SOL     OW 5286   0.926   4.231   2.754
 1666SOL    HW1 5287   0.900   4.224   2.658
 1666SOL    HW2 5288   0.957   4.142   2.788
 1667SOL     OW 5289   0.556   3.791   2.351
 1667SOL    HW1 5290   0.477   3.790   2.413
 1667SOL    HW2 5291   0.548   3.869   2.289
 1668SOL     OW 5292   1.425   4.927   1.904
 1668SOL    HW1 5293   1.459   4.850   1.958
 1668SOL    HW2 5294   1.335   4.954   1.938
 1669SOL     OW 5295   0.270   3.751   2.048
 1669SOL    HW1 5296   0.310   3.823   1.992
 1669SOL    HW2 5297   0.343   3.697   2.090
 1670SOL     OW 5298   0.952   3.978   2.315
 1670SOL    HW1 5299   0.921   4.016   2.227
 1670SOL    HW2 5300   1.051   3.992   2.324
 1671SOL     OW 5301   1.077   4.410   3.311
 1671SOL    HW1 5302   1.003   4.343   3.316
 1671SOL    HW2 5303   1.165   4.363   3.308
 1672SOL     OW 5304   1.214   5.298   2.658
 1672SOL    HW1 5305   1.228   5.367   2.587
 1672SOL    HW2 5306   1.291   5.298   2.721
 1673SOL     OW 5307   0.484   4.889   2.586
 1673SOL    HW1 5308   0.414   4.871   2.655
 1673SOL    HW2 5309   0.443   4.887   2.495
 1674SOL     OW 5310   1.261   5.512   2.475
 1674SOL    HW1 5311   1.316   5.576   2.421
 1674SOL    HW2 5312   1.180   5.559   2.509
 1675SOL     OW 5313   1.024   4.255   1.896
 1675SOL    HW1 5314   0.979   4.340   1.871
 1675SOL    HW2 5315   1.093   4.273   1.966
 1676SOL     OW 5316   0.092   4.265   3.256
 1676SOL    HW1 5317   0.184   4.275   3.220
 1676SOL    HW2 5318   0.067   4.348   3.307
 1677SOL     OW 5319   0.557   3.948   3.039
 1677SOL    HW1 5320   0.608   3.876   3.087
 1677SOL    HW2 5321   0.461   3.944   3.066
 1678SOL     OW 5322   0.867   4.182   2.493
 1678SOL    HW1 5323   0.821   4.243   2.429
 1678SOL    HW2 5324   0.897   4.100   2.445
 1679SOL     OW 5325   1.016   3.779   2.603
 1679SOL    HW1 5326   0.956   3.779   2.523
 1679SOL    HW2 5327   0.991   3.703   2.664
 1680SOL     OW 5328   1.449   4.884   2.720
 1680SOL    HW1 5329   1.371   4.821   2.721
 1680SOL    HW2 5330   1.483   4.893   2.626
 1681SOL     OW 5331   1.469   4.335   2.823
 1681SOL    HW1 5332   1.403   4.260   2.824
 1681SOL    HW2 5333   1.528   4.329   2.904
 1682SOL     OW 5334   1.837   4.527   2.242
 1682SOL    HW1 5335   1.897   4.482   2.308
 1682SOL    HW2 5336   1.812   4.463   2.171
 1683SOL     OW 5337   0.482   5.148   2.014
 1683SOL    HW1 5338   0.401   5.120   2.065
 1683SOL    HW2 5339   0.475   5.116   1.920
 1684SOL     OW 5340   1.681   4.991   2.506
 1684SOL    HW1 5341   1.781   4.986   2.517
 1684SOL    HW2 5342   1.650   5.084   2.524
 1685SOL     OW 5343   1.389   4.300   1.931
 1685SOL    HW1 5344   1.328   4.275   2.006
 1685SOL    HW2 5345   1.483   4.276   1.956
 1686SOL     OW 5346   0.527   3.985   2.163
 1686SOL    HW1 5347   0.577   3.934   2.093
 1686SOL    HW2 5348   0.497   4.073   2.125
 1687SOL     OW 5349   1.750   4.967   3.410
 1687SOL    HW1 5350   1.839   4.925   3.393
 1687SOL    HW2 5351   1.762   5.059   3.446
 1688SOL     OW 5352   1.047   5.073   3.199
 1688SOL    HW1 5353   0.965   5.043   3.247
 1688SOL    HW2 5354   1.128   5.031   3.242
 1689SOL     OW 5355   1.615   5.359   3.523
 1689SOL    HW1 5356   1.597   5.394   3.431
 1689SOL    HW2 5357   1.699   5.304   3.523
 1690SOL     OW 5358   1.145   4.955   2.967
 1690SOL    HW1 5359   1.083   4.987   3.039
 1690SOL    HW2 5360   1.111   4.985   2.878
 1691SOL     OW 5361   1.619   4.818   2.942
 1691SOL    HW1 5362   1.614   4.885   3.017
 1691SOL    HW2 5363   1.547   4.837   2.876
 1692SOL     OW 5364   0.926   3.812   3.251
 1692SOL    HW1 5365   0.946   3.791   3.155
 1692SOL    HW2 5366   1.005   3.858   3.292
 1693SOL     OW 5367   0.977   4.838   3.583
 1693SOL    HW1 5368   0.883   4.858   3.612
 1693SOL    HW2 5369   0.978   4.754   3.528
 1694SOL     OW 5370   0.718   4.783   2.236
 1694SOL    HW1 5371   0.698   4.763   2.332
 1694SOL    HW2 5372   0.797   4.729   2.206
 1695SOL     OW 5373   0.437   4.546   3.106
 1695SOL    HW1 5374   0.509   4.560   3.173
 1695SOL    HW2 5375   0.395   4.456   3.120
 1696SOL     OW 5376   1.260   4.096   3.149
 1696SOL    HW1 5377   1.295   4.177   3.196
 1696SOL    HW2 5378   1.165   4.112   3.121
 1697SOL     OW 5379   0.070   5.321   3.201
 1697SOL    HW1 5380   0.103   5.390   3.137
 1697SOL    HW2 5381   0.148   5.282   3.250
 1698SOL     OW 5382   0.390   4.863   2.325
 1698SOL    HW1 5383   0.367   4.949   2.280
 1698SOL    HW2 5384   0.369   4.787   2.263
 1699SOL     OW 5385   0.554   4.259   2.724
 1699SOL    HW1 5386   0.560   4.321   2.646
 1699SOL    HW2 5387   0.624   4.284   2.792
 1700SOL     OW 5388   1.243   5.080   2.257
 1700SOL    HW1 5389   1.305   5.152   2.289
 1700SOL    HW2 5390   1.150   5.101   2.287
 1701SOL     OW 5391   1.295   5.189   3.009
 1701SOL    HW1 5392   1.351   5.195   3.092
 1701SOL    HW2 5393   1.242   5.105   3.010
 1702SOL     OW 5394   1.574   4.341   2.350
 1702SOL    HW1 5395   1.523   4.388   2.422
 1702SOL    HW2 5396   1.620   4.408   2.292
 1703SOL     OW 5397   0.355   5.252   3.174
 1703SOL    HW1 5398   0.336   5.200   3.091
 1703SOL    HW2 5399   0.454   5.267   3.182
 1704SOL     OW 5400   0.440   4.455   3.454
 1704SOL    HW1 5401   0.512   4.499   3.400
 1704SOL    HW2 5402   0.469   4.362   3.478
 1705SOL     OW 5403   1.615   4.512   3.551
 1705SOL    HW1 5404   1.523   4.553   3.546
 1705SOL    HW2 5405   1.672   4.551   3.478
 1706SOL     OW 5406   0.998   3.863   3.615
 1706SOL    HW1 5407   1.055   3.944   3.601
 1706SOL    HW2 5408   1.049   3.781   3.587
 1707SOL     OW 5409   0.488   3.757   3.620
 1707SOL    HW1 5410   0.445   3.705   3.547
 1707SOL    HW2 5411   0.429   3.834   3.646
 1708SOL     OW 5412   0.601   4.601   2.891
 1708SOL    HW1 5413   0.636   4.695   2.890
 1708SOL    HW2 5414   0.538   4.590   2.968
 1709SOL     OW 5415   1.339   4.579   2.881
 1709SOL    HW1 5416   1.248   4.566   2.842
 1709SOL    HW2 5417   1.393   4.496   2.867
 1710SOL     OW 5418   1.197   4.249   2.124
 1710SOL    HW1 5419   1.209   4.166   2.179
 1710SOL    HW2 5420   1.153   4.319   2.180
 1711SOL     OW 5421   0.295   3.909   3.109
 1711SOL    HW1 5422   0.260   3.948   3.194
 1711SOL    HW2 5423   0.277   3.810   3.108
 1712SOL     OW 5424   0.061   5.047   3.124
 1712SOL    HW1 5425   0.092   4.996   3.205
 1712SOL    HW2 5426   0.044   5.142   3.149
 1713SOL     OW 5427   0.728   4.356   2.913
 1713SOL    HW1 5428   0.804   4.334   2.852
 1713SOL    HW2 5429   0.695   4.448   2.894
 1714SOL     OW 5430   1.741   4.686   3.724
 1714SOL    HW1 5431   1.699   4.616   3.667
 1714SOL    HW2 5432   1.679   4.708   3.800
 1715SOL     OW 5433   0.327   3.788   2.503
 1715SOL    HW1 5434   0.297   3.883   2.516
 1715SOL    HW2 5435   0.330   3.742   2.591
 1716SOL     OW 5436   1.631   4.108   2.218
 1716SOL    HW1 5437   1.659   4.034   2.278
 1716SOL    HW2 5438   1.601   4.186   2.273
 1717SOL     OW 5439   1.025   4.478   2.816
 1717SOL    HW1 5440   1.015   4.499   2.913
 1717SOL    HW2 5441   0.998   4.384   2.800
 1718SOL     OW 5442   0.989   5.291   3.583
 1718SOL    HW1 5443   0.964   5.334   3.496
 1718SOL    HW2 5444   1.030   5.201   3.565
 1719SOL     OW 5445   1.851   5.225   3.464
 1719SOL    HW1 5446   1.872   5.251   3.370
 1719SOL    HW2 5447   1.933   5.233   3.520
 1720SOL     OW 5448   0.348   4.621   3.652
 1720SOL    HW1 5449   0.423   4.655   3.710
 1720SOL    HW2 5450   0.384   4.561   3.581
 1721SOL     OW 5451   1.524   3.990   1.990
 1721SOL    HW1 5452   1.458   3.921   2.019
 1721SOL    HW2 5453   1.563   4.034   2.071
 1722SOL     OW 5454   1.287   4.549   1.884
 1722SOL    HW1 5455   1.326   4.458   1.893
 1722SOL    HW2 5456   1.319   4.591   1.799
 1723SOL     OW 5457   1.073   5.066   2.721
 1723SOL    HW1 5458   1.079   4.987   2.659
 1723SOL    HW2 5459   1.127   5.141   2.684
 1724SOL     OW 5460   0.318   4.528   2.810
 1724SOL    HW1 5461   0.413   4.549   2.784
 1724SOL    HW2 5462   0.316   4.440   2.857
 1725SOL     OW 5463   0.350   4.228   2.889
 1725SOL    HW1 5464   0.311   4.136   2.881
 1725SOL    HW2 5465   0.428   4.236   2.826
 1726SOL     OW 5466   1.135   4.096   3.559
 1726SOL    HW1 5467   1.083   4.152   3.623
 1726SOL    HW2 5468   1.226   4.134   3.547
 1727SOL     OW 5469   1.162   3.924   3.343
 1727SOL    HW1 5470   1.146   3.987   3.419
 1727SOL    HW2 5471   1.205   3.973   3.267
 1728SOL     OW 5472   5.984   5.034   2.061
 1728SOL    HW1 5473   5.888   5.055   2.077
 1728SOL    HW2 5474   6.002   4.939   2.085
 1729SOL     OW 5475   0.049   5.538   2.736
 1729SOL    HW1 5476   0.057   5.439   2.748
 1729SOL    HW2 5477   0.136   5.581   2.758
 1730SOL     OW 5478   0.483   5.295   2.764
 1730SOL    HW1 5479   0.553   5.360   2.793
 1730SOL    HW2 5480   0.523   5.231   2.698
 1731SOL     OW 5481   0.966   4.515   3.081
 1731SOL    HW1 5482   1.025   4.493   3.158
 1731SOL    HW2 5483   0.877   4.470   3.093
 1732SOL     OW 5484  -0.017   4.328   2.990
 1732SOL    HW1 5485   0.019   4.287   2.907
 1732SOL    HW2 5486   0.021   4.282   3.070
 1733SOL     OW 5487   0.183   4.221   3.591
 1733SOL    HW1 5488   0.228   4.178   3.512
 1733SOL    HW2 5489   0.134   4.303   3.560
 1734SOL     OW 5490   1.384   4.655   3.513
 1734SOL    HW1 5491   1.407   4.752   3.514
 1734SOL    HW2 5492   1.379   4.622   3.419
 1735SOL     OW 5493   0.817   4.298   2.227
 1735SOL    HW1 5494   0.828   4.218   2.168
 1735SOL    HW2 5495   0.739   4.352   2.196
 1736SOL     OW 5496   1.641   4.326   3.038
 1736SOL    HW1 5497   1.624   4.267   3.116
 1736SOL    HW2 5498   1.734   4.311   3.003
 1737SOL     OW 5499   0.290   5.273   3.595
 1737SOL    HW1 5500   0.233   5.343   3.639
 1737SOL    HW2 5501   0.264   5.183   3.628
 1738SOL     OW 5502   0.719   4.166   3.107
 1738SOL    HW1 5503   0.655   4.092   3.086
 1738SOL    HW2 5504   0.712   4.237   3.036
 1739SOL     OW 5505   0.919   5.400   3.336
 1739SOL    HW1 5506   0.889   5.348   3.256
 1739SOL    HW2 5507   0.913   5.498   3.315
 1740SOL     OW 5508   0.452   4.219   2.047
 1740SOL    HW1 5509   0.518   4.290   2.071
 1740SOL    HW2 5510   0.362   4.261   2.032
 1741SOL     OW 5511   0.178   4.868   3.304
 1741SOL    HW1 5512   0.136   4.833   3.388
 1741SOL    HW2 5513   0.164   4.802   3.230
 1742SOL     OW 5514   1.309   4.765   3.077
 1742SOL    HW1 5515   1.333   4.697   3.008
 1742SOL    HW2 5516   1.248   4.833   3.037
 1743SOL     OW 5517   1.321   4.581   2.156
 1743SOL    HW1 5518   1.245   4.553   2.215
 1743SOL    HW2 5519   1.295   4.569   2.060
 1744SOL     OW 5520   1.781   5.439   3.025
 1744SOL    HW1 5521   1.843   5.477   2.956
 1744SOL    HW2 5522   1.750   5.349   2.995
 1745SOL     OW 5523   1.243   5.458   2.965
 1745SOL    HW1 5524   1.330   5.491   2.929
 1745SOL    HW2 5525   1.251   5.360   2.987
 1746SOL     OW 5526   0.095   4.981   2.868
 1746SOL    HW1 5527   0.082   5.003   2.964
 1746SOL    HW2 5528   0.018   4.927   2.835
 1747SOL     OW 5529   0.685   5.402   3.607
 1747SOL    HW1 5530   0.615   5.474   3.607
 1747SOL    HW2 5531   0.752   5.421   3.535
 1748SOL     OW 5532   1.728   3.884   2.357
 1748SOL    HW1 5533   1.799   3.872   2.288
 1748SOL    HW2 5534   1.707   3.796   2.400
 1749SOL     OW 5535   1.398   5.294   2.354
 1749SOL    HW1 5536   1.458   5.327   2.281
 1749SOL    HW2 5537   1.341   5.369   2.386
 1750SOL     OW 5538   0.141   5.488   3.693
 1750SOL    HW1 5539   0.079   5.422   3.734
 1750SOL    HW2 5540   0.190   5.538   3.765
 1751SOL     OW 5541   1.284   4.657   2.527
 1751SOL    HW1 5542   1.359   4.592   2.543
 1751SOL    HW2 5543   1.317   4.732   2.470
 1752SOL     OW 5544   0.792   5.006   3.284
 1752SOL    HW1 5545   0.765   5.052   3.369
 1752SOL    HW2 5546   0.718   5.015   3.218
 1753SOL     OW 5547   0.668   5.345   2.017
 1753SOL    HW1 5548   0.684   5.367   1.921
 1753SOL    HW2 5549   0.608   5.266   2.024
 1754SOL     OW 5550   1.612   5.454   3.250
 1754SOL    HW1 5551   1.673   5.450   3.171
 1754SOL    HW2 5552   1.591   5.549   3.271
 1755SOL     OW 5553   1.842   3.890   2.826
 1755SOL    HW1 5554   1.877   3.799   2.805
 1755SOL    HW2 5555   1.751   3.901   2.786
 1756SOL     OW 5556   0.260   4.038   2.578
 1756SOL    HW1 5557   0.174   4.073   2.541
 1756SOL    HW2 5558   0.252   4.029   2.677
 1757SOL     OW 5559   1.209   5.317   1.896
 1757SOL    HW1 5560   1.201   5.224   1.931
 1757SOL    HW2 5561   1.139   5.332   1.826
 1758SOL     OW 5562   0.827   4.738   3.245
 1758SOL    HW1 5563   0.874   4.723   3.158
 1758SOL    HW2 5564   0.817   4.836   3.260
 1759SOL     OW 5565   0.924   4.634   2.152
 1759SOL    HW1 5566   0.983   4.670   2.079
 1759SOL    HW2 5567   0.973   4.562   2.201
 1760SOL     OW 5568   1.483   5.368   1.906
 1760SOL    HW1 5569   1.387   5.346   1.892
 1760SOL    HW2 5570   1.530   5.370   1.818
 1761SOL     OW 5571   0.389   5.029   3.344
 1761SOL    HW1 5572   0.374   5.113   3.293
 1761SOL    HW2 5573   0.313   4.965   3.329
 1762SOL     OW 5574   1.610   5.010   3.147
 1762SOL    HW1 5575   1.672   4.987   3.222
 1762SOL    HW2 5576   1.544   5.078   3.178
 1763SOL     OW 5577   1.072   4.833   2.585
 1763SOL    HW1 5578   0.993   4.783   2.621
 1763SOL    HW2 5579   1.140   4.768   2.552
 1764SOL     OW 5580   1.025   3.965   2.828
 1764SOL    HW1 5581   1.022   3.924   2.737
 1764SOL    HW2 5582   1.022   3.894   2.898
 1765SOL     OW 5583   0.608   5.214   2.337
 1765SOL    HW1 5584   0.661   5.158   2.274
 1765SOL    HW2 5585   0.529   5.253   2.290
 1766SOL     OW 5586   1.739   4.115   3.245
 1766SOL    HW1 5587   1.812   4.184   3.244
 1766SOL    HW2 5588   1.762   4.041   3.182
 1767SOL     OW 5589   0.252   5.071   2.150
 1767SOL    HW1 5590   0.156   5.060   2.124
 1767SOL    HW2 5591   0.258   5.111   2.241
 1768SOL     OW 5592   0.132   4.778   3.592
 1768SOL    HW1 5593   0.054   4.723   3.622
 1768SOL    HW2 5594   0.217   4.728   3.611
 1769SOL     OW 5595   0.686   3.915   3.361
 1769SOL    HW1 5596   0.773   3.890   3.317
 1769SOL    HW2 5597   0.704   3.951   3.453
 1770SOL     OW 5598   0.059   4.049   1.899
 1770SOL    HW1 5599  -0.041   4.050   1.890
 1770SOL    HW2 5600   0.099   4.117   1.838
 1771SOL     OW 5601   1.418   4.578   3.253
 1771SOL    HW1 5602   1.361   4.641   3.200
 1771SOL    HW2 5603   1.512   4.580   3.218
 1772SOL     OW 5604   0.096   3.953   2.162
 1772SOL    HW1 5605   0.093   4.012   2.082
 1772SOL    HW2 5606   0.167   3.883   2.150
 1773SOL     OW 5607   1.177   5.057   1.985
 1773SOL    HW1 5608   1.080   5.035   1.976
 1773SOL    HW2 5609   1.203   5.057   2.081
 1774SOL     OW 5610   0.634   4.553   3.291
 1774SOL    HW1 5611   0.691   4.634   3.281
 1774SOL    HW2 5612   0.693   4.472   3.298
 1775SOL     OW 5613   1.491   5.537   2.870
 1775SOL    HW1 5614   1.513   5.589   2.787
 1775SOL    HW2 5615   1.572   5.485   2.899
 1776SOL     OW 5616   0.721   4.277   3.561
 1776SOL    HW1 5617   0.768   4.342   3.621
 1776SOL    HW2 5618   0.737   4.184   3.595
 1777SOL     OW 5619   1.475   4.916   3.494
 1777SOL    HW1 5620   1.460   4.931   3.592
 1777SOL    HW2 5621   1.570   4.937   3.471
 1778SOL     OW 5622   0.369   5.467   3.424
 1778SOL    HW1 5623   0.283   5.516   3.410
 1778SOL    HW2 5624   0.352   5.382   3.474
 1779SOL     OW 5625   1.660   4.600   3.118
 1779SOL    HW1 5626   1.658   4.509   3.076
 1779SOL    HW2 5627   1.648   4.670   3.048
 1780SOL     OW 5628   1.222   4.041   2.322
 1780SOL    HW1 5629   1.284   3.963   2.314
 1780SOL    HW2 5630   1.248   4.098   2.400
 1781SOL     OW 5631   0.576   4.463   2.541
 1781SOL    HW1 5632   0.623   4.550   2.525
 1781SOL    HW2 5633   0.513   4.445   2.465
 1782SOL     OW 5634   1.745   4.086   3.519
 1782SOL    HW1 5635   1.741   4.104   3.420
 1782SOL    HW2 5636   1.668   4.029   3.546
 1783SOL     OW 5637   1.758   4.653   3.370
 1783SOL    HW1 5638   1.744   4.749   3.392
 1783SOL    HW2 5639   1.733   4.636   3.274
 1784SOL     OW 5640   0.878   5.085   1.919
 1784SOL    HW1 5641   0.829   5.102   2.005
 1784SOL    HW2 5642   0.879   5.168   1.864
 1785SOL     OW 5643   0.664   5.491   2.801
 1785SOL    HW1 5644   0.636   5.585   2.783
 1785SOL    HW2 5645   0.764   5.484   2.791
 1786SOL     OW 5646   0.872   4.697   2.717
 1786SOL    HW1 5647   0.922   4.618   2.752
 1786SOL    HW2 5648   0.825   4.743   2.792
 1787SOL     OW 5649   1.076   4.712   1.945
 1787SOL    HW1 5650   1.048   4.767   1.866
 1787SOL    HW2 5651   1.154   4.654   1.918
 1788SOL     OW 5652   1.839   5.282   2.710
 1788SOL    HW1 5653   1.763   5.270   2.645
 1788SOL    HW2 5654   1.832   5.215   2.783
 1789SOL     OW 5655   0.231   5.021   3.706
 1789SOL    HW1 5656   0.175   4.953   3.658
 1789SOL    HW2 5657   0.204   5.023   3.803
 1790SOL     OW 5658   0.105   4.980   2.546
 1790SOL    HW1 5659   0.036   4.949   2.611
 1790SOL    HW2 5660   0.147   4.901   2.502
 1791SOL     OW 5661   0.689   5.138   3.503
 1791SOL    HW1 5662   0.607   5.089   3.530
 1791SOL    HW2 5663   0.685   5.232   3.538
 1792SOL     OW 5664   1.801   3.902   3.095
 1792SOL    HW1 5665   1.816   3.805   3.118
 1792SOL    HW2 5666   1.816   3.916   2.997
 1793SOL     OW 5667   0.441   4.148   2.388
 1793SOL    HW1 5668   0.468   4.079   2.321
 1793SOL    HW2 5669   0.383   4.106   2.458
 1794SOL     OW 5670   1.690   5.197   2.950
 1794SOL    HW1 5671   1.610   5.182   2.892
 1794SOL    HW2 5672   1.692   5.128   3.023
 1795SOL     OW 5673   0.345   4.291   3.155
 1795SOL    HW1 5674   0.396   4.231   3.216
 1795SOL    HW2 5675   0.354   4.258   3.061
 1796SOL     OW 5676   0.833   5.308   2.536
 1796SOL    HW1 5677   0.810   5.378   2.468
 1796SOL    HW2 5678   0.757   5.244   2.545
 1797SOL     OW 5679   1.427   3.958   2.979
 1797SOL    HW1 5680   1.444   3.865   3.010
 1797SOL    HW2 5681   1.374   4.007   3.048
 1798SOL     OW 5682   1.010   3.738   2.993
 1798SOL    HW1 5683   0.947   3.678   2.944
 1798SOL    HW2 5684   1.101   3.697   2.995
 1799SOL     OW 5685   0.776   5.054   2.186
 1799SOL    HW1 5686   0.749   4.958   2.196
 1799SOL    HW2 5687   0.860   5.071   2.237
 1800SOL     OW 5688   0.628   5.282   3.153
 1800SOL    HW1 5689   0.623   5.368   3.204
 1800SOL    HW2 5690   0.718   5.273   3.111
 1801SOL     OW 5691   1.359   3.769   2.040
 1801SOL    HW1 5692   1.404   3.701   1.981
 1801SOL    HW2 5693   1.265   3.740   2.058
 1802SOL     OW 5694   1.290   4.192   2.540
 1802SOL    HW1 5695   1.238   4.277   2.540
 1802SOL    HW2 5696   1.288   4.153   2.632
 1803SOL     OW 5697   1.584   3.924   2.751
 1803SOL    HW1 5698   1.528   3.947   2.830
 1803SOL    HW2 5699   1.587   4.002   2.688
 1804SOL     OW 5700   0.061   4.784   2.138
 1804SOL    HW1 5701   0.157   4.761   2.124
 1804SOL    HW2 5702   0.020   4.718   2.201
 1805SOL     OW 5703   0.887   5.390   2.191
 1805SOL    HW1 5704   0.812   5.368   2.130
 1805SOL    HW2 5705   0.858   5.462   2.255
 1806SOL     OW 5706   0.212   4.339   3.842
 1806SOL    HW1 5707   0.119   4.349   3.877
 1806SOL    HW2 5708   0.210   4.300   3.750
 1807SOL     OW 5709   0.218   3.990   4.720
 1807SOL    HW1 5710   0.243   3.954   4.810
 1807SOL    HW2 5711   0.118   3.987   4.710
 1808SOL     OW 5712   6.011   4.119   4.334
 1808SOL    HW1 5713   5.928   4.129   4.388
 1808SOL    HW2 5714   5.991   4.066   4.252
 1809SOL     OW 5715   0.577   5.025   4.925
 1809SOL    HW1 5716   0.487   5.023   4.880
 1809SOL    HW2 5717   0.595   5.118   4.957
 1810SOL     OW 5718   1.571   5.238   4.431
 1810SOL    HW1 5719   1.527   5.211   4.516
 1810SOL    HW2 5720   1.502   5.245   4.359
 1811SOL     OW 5721   1.136   4.429   4.415
 1811SOL    HW1 5722   1.188   4.514   4.399
 1811SOL    HW2 5723   1.085   4.438   4.501
 1812SOL     OW 5724   1.782   4.315   3.942
 1812SOL    HW1 5725   1.751   4.314   3.847
 1812SOL    HW2 5726   1.740   4.238   3.992
 1813SOL     OW 5727   0.733   4.861   4.766
 1813SOL    HW1 5728   0.670   4.897   4.835
 1813SOL    HW2 5729   0.779   4.937   4.720
 1814SOL     OW 5730   0.875   4.480   5.550
 1814SOL    HW1 5731   0.858   4.543   5.626
 1814SOL    HW2 5732   0.898   4.532   5.468
 1815SOL     OW 5733   0.685   4.718   4.372
 1815SOL    HW1 5734   0.758   4.710   4.440
 1815SOL    HW2 5735   0.615   4.782   4.405
 1816SOL     OW 5736   0.713   4.887   5.548
 1816SOL    HW1 5737   0.766   4.966   5.580
 1816SOL    HW2 5738   0.629   4.920   5.505
 1817SOL     OW 5739   0.341   5.128   4.796
 1817SOL    HW1 5740   0.256   5.094   4.757
 1817SOL    HW2 5741   0.388   5.186   4.729
 1818SOL     OW 5742   1.456   5.227   5.086
 1818SOL    HW1 5743   1.514   5.308   5.094
 1818SOL    HW2 5744   1.384   5.232   5.156
 1819SOL     OW 5745   0.452   4.113   5.199
 1819SOL    HW1 5746   0.532   4.054   5.208
 1819SOL    HW2 5747   0.369   4.060   5.217
 1820SOL     OW 5748   1.605   4.165   4.474
 1820SOL    HW1 5749   1.536   4.183   4.404
 1820SOL    HW2 5750   1.599   4.236   4.545
 1821SOL     OW 5751   0.251   5.438   4.223
 1821SOL    HW1 5752   0.263   5.520   4.279
 1821SOL    HW2 5753   0.326   5.432   4.157
 1822SOL     OW 5754   1.138   5.059   5.421
 1822SOL    HW1 5755   1.189   5.057   5.507
 1822SOL    HW2 5756   1.082   4.976   5.414
 1823SOL     OW 5757   0.249   5.163   4.257
 1823SOL    HW1 5758   0.230   5.261   4.266
 1823SOL    HW2 5759   0.186   5.112   4.316
 1824SOL     OW 5760   0.281   4.812   4.630
 1824SOL    HW1 5761   0.279   4.732   4.689
 1824SOL    HW2 5762   0.219   4.882   4.666
 1825SOL     OW 5763   0.600   5.510   5.156
 1825SOL    HW1 5764   0.512   5.491   5.200
 1825SOL    HW2 5765   0.627   5.605   5.176
 1826SOL     OW 5766   0.578   4.715   3.872
 1826SOL    HW1 5767   0.624   4.760   3.796
 1826SOL    HW2 5768   0.619   4.744   3.958
 1827SOL     OW 5769   1.598   3.851   5.194
 1827SOL    HW1 5770   1.627   3.932   5.143
 1827SOL    HW2 5771   1.574   3.878   5.287
 1828SOL     OW 5772   0.140   4.372   4.316
 1828SOL    HW1 5773   0.092   4.285   4.305
 1828SOL    HW2 5774   0.084   4.434   4.371
 1829SOL     OW 5775   1.850   5.476   4.053
 1829SOL    HW1 5776   1.923   5.449   4.116
 1829SOL    HW2 5777   1.863   5.571   4.026
 1830SOL     OW 5778   0.013   5.295   3.830
 1830SOL    HW1 5779   0.009   5.197   3.849
 1830SOL    HW2 5780   0.003   5.347   3.915
 1831SOL     OW 5781   1.693   4.646   4.374
 1831SOL    HW1 5782   1.778   4.596   4.359
 1831SOL    HW2 5783   1.671   4.700   4.293
 1832SOL     OW 5784   1.657   4.827   4.158
 1832SOL    HW1 5785   1.746   4.820   4.113
 1832SOL    HW2 5786   1.661   4.895   4.231
 1833SOL     OW 5787   0.087   4.476   5.398
 1833SOL    HW1 5788   0.154   4.507   5.467
 1833SOL    HW2 5789   0.114   4.510   5.308
 1834SOL     OW 5790   0.620   5.125   4.453
 1834SOL    HW1 5791   0.578   5.036   4.466
 1834SOL    HW2 5792   0.606   5.156   4.359
 1835SOL     OW 5793   1.283   4.954   5.145
 1835SOL    HW1 5794   1.308   4.884   5.078
 1835SOL    HW2 5795   1.346   4.950   5.222
 1836SOL     OW 5796   0.824   3.737   4.233
 1836SOL    HW1 5797   0.871   3.822   4.208
 1836SOL    HW2 5798   0.726   3.753   4.237
 1837SOL     OW 5799   0.205   4.690   4.902
 1837SOL    HW1 5800   0.297   4.656   4.924
 1837SOL    HW2 5801   0.137   4.623   4.931
 1838SOL     OW 5802   1.534   4.731   3.929
 1838SOL    HW1 5803   1.460   4.669   3.958
 1838SOL    HW2 5804   1.581   4.766   4.010
 1839SOL     OW 5805   1.191   5.521   5.345
 1839SOL    HW1 5806   1.199   5.583   5.268
 1839SOL    HW2 5807   1.207   5.427   5.315
 1840SOL     OW 5808   0.340   3.958   5.580
 1840SOL    HW1 5809   0.389   4.043   5.601
 1840SOL    HW2 5810   0.242   3.977   5.577
 1841SOL     OW 5811   1.463   5.145   4.664
 1841SOL    HW1 5812   1.399   5.164   4.739
 1841SOL    HW2 5813   1.454   5.049   4.637
 1842SOL     OW 5814   1.650   5.475   4.297
 1842SOL    HW1 5815   1.627   5.445   4.204
 1842SOL    HW2 5816   1.632   5.400   4.361
 1843SOL     OW 5817   0.591   4.441   4.000
 1843SOL    HW1 5818   0.599   4.528   3.953
 1843SOL    HW2 5819   0.523   4.447   4.073
 1844SOL     OW 5820   1.279   4.094   4.659
 1844SOL    HW1 5821   1.185   4.060   4.665
 1844SOL    HW2 5822   1.338   4.041   4.720
 1845SOL     OW 5823   1.584   5.400   4.033
 1845SOL    HW1 5824   1.682   5.422   4.029
 1845SOL    HW2 5825   1.550   5.383   3.941
 1846SOL     OW 5826   0.792   4.333   5.170
 1846SOL    HW1 5827   0.765   4.309   5.263
 1846SOL    HW2 5828   0.758   4.263   5.106
 1847SOL     OW 5829   1.392   4.191   5.399
 1847SOL    HW1 5830   1.395   4.247   5.482
 1847SOL    HW2 5831   1.446   4.108   5.412
 1848SOL     OW 5832   0.951   4.608   5.313
 1848SOL    HW1 5833   1.008   4.537   5.272
 1848SOL    HW2 5834   0.898   4.654   5.241
 1849SOL     OW 5835   0.996   4.122   4.943
 1849SOL    HW1 5836   0.903   4.142   4.974
 1849SOL    HW2 5837   0.993   4.075   4.855
 1850SOL     OW 5838   1.053   4.421   4.147
 1850SOL    HW1 5839   1.076   4.419   4.244
 1850SOL    HW2 5840   0.965   4.375   4.133
 1851SOL     OW 5841   0.075   4.551   4.526
 1851SOL    HW1 5842   0.156   4.529   4.582
 1851SOL    HW2 5843   0.098   4.623   4.461
 1852SOL     OW 5844   0.126   5.597   5.305
 1852SOL    HW1 5845   0.129   5.565   5.400
 1852SOL    HW2 5846   0.037   5.575   5.266
 1853SOL     OW 5847   0.895   4.077   3.924
 1853SOL    HW1 5848   0.939   4.144   3.863
 1853SOL    HW2 5849   0.890   3.989   3.877
 1854SOL     OW 5850   1.682   4.285   5.557
 1854SOL    HW1 5851   1.658   4.368   5.507
 1854SOL    HW2 5852   1.718   4.217   5.494
 1855SOL     OW 5853   1.383   4.868   4.254
 1855SOL    HW1 5854   1.468   4.855   4.203
 1855SOL    HW2 5855   1.326   4.935   4.207
 1856SOL     OW 5856   0.543   3.889   4.634
 1856SOL    HW1 5857   0.550   3.921   4.728
 1856SOL    HW2 5858   0.546   3.968   4.572
 1857SOL     OW 5859   0.991   5.172   4.186
 1857SOL    HW1 5860   0.964   5.250   4.130
 1857SOL    HW2 5861   0.966   5.188   4.281
 1858SOL     OW 5862   0.346   5.535   4.613
 1858SOL    HW1 5863   0.398   5.450   4.610
 1858SOL    HW2 5864   0.407   5.612   4.629
 1859SOL     OW 5865   1.799   4.777   4.602
 1859SOL    HW1 5866   1.749   4.755   4.518
 1859SOL    HW2 5867   1.735   4.784   4.678
 1860SOL     OW 5868   1.224   5.257   5.239
 1860SOL    HW1 5869   1.214   5.180   5.303
 1860SOL    HW2 5870   1.155   5.249   5.167
 1861SOL     OW 5871   0.320   4.682   3.975
 1861SOL    HW1 5872   0.408   4.707   3.934
 1861SOL    HW2 5873   0.295   4.589   3.948
 1862SOL     OW 5874   1.485   4.479   4.442
 1862SOL    HW1 5875   1.483   4.435   4.532
 1862SOL    HW2 5876   1.566   4.538   4.436
 1863SOL     OW 5877   0.465   4.987   5.462
 1863SOL    HW1 5878   0.443   4.996   5.365
 1863SOL    HW2 5879   0.381   4.989   5.516
 1864SOL     OW 5880   1.130   5.496   3.949
 1864SOL    HW1 5881   1.046   5.466   3.993
 1864SOL    HW2 5882   1.156   5.430   3.878
 1865SOL     OW 5883   0.201   4.000   5.221
 1865SOL    HW1 5884   0.123   4.058   5.197
 1865SOL    HW2 5885   0.168   3.913   5.259
 1866SOL     OW 5886   1.622   5.109   3.817
 1866SOL    HW1 5887   1.586   5.200   3.797
 1866SOL    HW2 5888   1.553   5.041   3.796
 1867SOL     OW 5889   0.467   5.460   4.044
 1867SOL    HW1 5890   0.509   5.527   4.105
 1867SOL    HW2 5891   0.537   5.422   3.983
 1868SOL     OW 5892   1.401   3.826   4.170
 1868SOL    HW1 5893   1.390   3.802   4.073
 1868SOL    HW2 5894   1.498   3.838   4.190
 1869SOL     OW 5895   0.258   5.499   4.942
 1869SOL    HW1 5896   0.306   5.424   4.987
 1869SOL    HW2 5897   0.274   5.494   4.843
 1870SOL     OW 5898   0.939   5.423   4.618
 1870SOL    HW1 5899   1.023   5.378   4.648
 1870SOL    HW2 5900   0.898   5.371   4.544
 1871SOL     OW 5901   0.395   4.408   4.202
 1871SOL    HW1 5902   0.422   4.312   4.211
 1871SOL    HW2 5903   0.300   4.418   4.230
 1872SOL     OW 5904   1.519   3.945   5.458
 1872SOL    HW1 5905   1.531   3.968   5.554
 1872SOL    HW2 5906   1.451   3.871   5.449
 1873SOL     OW 5907   0.651   3.836   3.824
 1873SOL    HW1 5908   0.714   3.763   3.849
 1873SOL    HW2 5909   0.590   3.805   3.751
 1874SOL     OW 5910   0.765   4.004   5.475
 1874SOL    HW1 5911   0.850   3.951   5.469
 1874SOL    HW2 5912   0.727   3.996   5.567
 1875SOL     OW 5913   0.877   5.240   4.916
 1875SOL    HW1 5914   0.855   5.201   4.826
 1875SOL    HW2 5915   0.946   5.184   4.961
 1876SOL     OW 5916   1.336   4.313   5.159
 1876SOL    HW1 5917   1.367   4.277   5.247
 1876SOL    HW2 5918   1.372   4.406   5.146
 1877SOL     OW 5919   0.822   5.107   4.669
 1877SOL    HW1 5920   0.913   5.097   4.628
 1877SOL    HW2 5921   0.754   5.122   4.596
 1878SOL     OW 5922   0.927   4.232   4.617
 1878SOL    HW1 5923   0.900   4.224   4.521
 1878SOL    HW2 5924   0.957   4.143   4.651
 1879SOL     OW 5925   0.555   3.790   4.213
 1879SOL    HW1 5926   0.478   3.790   4.276
 1879SOL    HW2 5927   0.548   3.869   4.151
 1880SOL     OW 5928   1.424   4.927   3.766
 1880SOL    HW1 5929   1.459   4.850   3.820
 1880SOL    HW2 5930   1.335   4.954   3.800
 1881SOL     OW 5931   0.270   3.750   3.910
 1881SOL    HW1 5932   0.311   3.824   3.855
 1881SOL    HW2 5933   0.343   3.696   3.952
 1882SOL     OW 5934   0.951   3.976   4.177
 1882SOL    HW1 5935   0.921   4.016   4.090
 1882SOL    HW2 5936   1.050   3.991   4.187
 1883SOL     OW 5937   1.077   4.411   5.174
 1883SOL    HW1 5938   1.003   4.343   5.180
 1883SOL    HW2 5939   1.165   4.364   5.172
 1884SOL     OW 5940   1.215   5.297   4.520
 1884SOL    HW1 5941   1.229   5.366   4.449
 1884SOL    HW2 5942   1.291   5.299   4.584
 1885SOL     OW 5943   0.483   4.889   4.450
 1885SOL    HW1 5944   0.413   4.869   4.519
 1885SOL    HW2 5945   0.442   4.886   4.359
 1886SOL     OW 5946   1.261   5.512   4.336
 1886SOL    HW1 5947   1.316   5.576   4.283
 1886SOL    HW2 5948   1.180   5.559   4.371
 1887SOL     OW 5949   1.023   4.255   3.757
 1887SOL    HW1 5950   0.978   4.340   3.732
 1887SOL    HW2 5951   1.092   4.273   3.828
 1888SOL     OW 5952   0.092   4.266   5.117
 1888SOL    HW1 5953   0.185   4.274   5.081
 1888SOL    HW2 5954   0.066   4.351   5.162
 1889SOL     OW 5955   0.557   3.946   4.903
 1889SOL    HW1 5956   0.608   3.879   4.956
 1889SOL    HW2 5957   0.460   3.944   4.929
 1890SOL     OW 5958   0.867   4.181   4.356
 1890SOL    HW1 5959   0.820   4.243   4.294
 1890SOL    HW2 5960   0.896   4.099   4.306
 1891SOL     OW 5961   1.021   3.775   4.464
 1891SOL    HW1 5962   0.959   3.777   4.386
 1891SOL    HW2 5963   0.993   3.702   4.527
 1892SOL     OW 5964   1.448   4.883   4.583
 1892SOL    HW1 5965   1.371   4.820   4.585
 1892SOL    HW2 5966   1.481   4.892   4.488
 1893SOL     OW 5967   1.470   4.335   4.685
 1893SOL    HW1 5968   1.403   4.260   4.687
 1893SOL    HW2 5969   1.529   4.329   4.766
 1894SOL     OW 5970   1.837   4.527   4.104
 1894SOL    HW1 5971   1.897   4.482   4.170
 1894SOL    HW2 5972   1.813   4.462   4.032
 1895SOL     OW 5973   0.482   5.148   3.877
 1895SOL    HW1 5974   0.401   5.120   3.927
 1895SOL    HW2 5975   0.475   5.117   3.782
 1896SOL     OW 5976   1.682   4.991   4.367
 1896SOL    HW1 5977   1.781   4.986   4.379
 1896SOL    HW2 5978   1.650   5.083   4.386
 1897SOL     OW 5979   1.389   4.300   3.793
 1897SOL    HW1 5980   1.328   4.276   3.868
 1897SOL    HW2 5981   1.483   4.281   3.818
 1898SOL     OW 5982   0.527   3.986   4.025
 1898SOL    HW1 5983   0.577   3.935   3.955
 1898SOL    HW2 5984   0.496   4.073   3.988
 1899SOL     OW 5985   1.749   4.966   5.270
 1899SOL    HW1 5986   1.838   4.925   5.252
 1899SOL    HW2 5987   1.761   5.058   5.308
 1900SOL     OW 5988   1.048   5.073   5.061
 1900SOL    HW1 5989   0.965   5.043   5.109
 1900SOL    HW2 5990   1.128   5.030   5.103
 1901SOL     OW 5991   1.611   5.355   5.377
 1901SOL    HW1 5992   1.599   5.392   5.285
 1901SOL    HW2 5993   1.695   5.302   5.382
 1902SOL     OW 5994   1.145   4.955   4.829
 1902SOL    HW1 5995   1.082   4.987   4.900
 1902SOL    HW2 5996   1.111   4.985   4.739
 1903SOL     OW 5997   1.620   4.819   4.805
 1903SOL    HW1 5998   1.615   4.885   4.880
 1903SOL    HW2 5999   1.547   4.838   4.739
 1904SOL     OW 6000   0.926   3.813   5.113
 1904SOL    HW1 6001   0.947   3.793   5.017
 1904SOL    HW2 6002   1.005   3.857   5.156
 1905SOL     OW 6003   0.981   4.833   5.459
 1905SOL    HW1 6004   0.886   4.853   5.484
 1905SOL    HW2 6005   0.983   4.752   5.400
 1906SOL     OW 6006   0.718   4.783   4.098
 1906SOL    HW1 6007   0.698   4.763   4.194
 1906SOL    HW2 6008   0.796   4.728   4.068
 1907SOL     OW 6009   0.438   4.545   4.965
 1907SOL    HW1 6010   0.509   4.560   5.034
 1907SOL    HW2 6011   0.393   4.458   4.982
 1908SOL     OW 6012   1.260   4.099   5.008
 1908SOL    HW1 6013   1.295   4.179   5.057
 1908SOL    HW2 6014   1.165   4.114   4.982
 1909SOL     OW 6015   0.066   5.337   5.058
 1909SOL    HW1 6016   0.112   5.408   5.004
 1909SOL    HW2 6017   0.133   5.281   5.106
 1910SOL     OW 6018   0.393   4.864   4.187
 1910SOL    HW1 6019   0.368   4.950   4.143
 1910SOL    HW2 6020   0.369   4.788   4.127
 1911SOL     OW 6021   0.554   4.257   4.585
 1911SOL    HW1 6022   0.561   4.319   4.507
 1911SOL    HW2 6023   0.622   4.283   4.654
 1912SOL     OW 6024   1.243   5.080   4.119
 1912SOL    HW1 6025   1.305   5.153   4.151
 1912SOL    HW2 6026   1.150   5.101   4.149
 1913SOL     OW 6027   1.295   5.189   4.871
 1913SOL    HW1 6028   1.351   5.195   4.953
 1913SOL    HW2 6029   1.242   5.105   4.872
 1914SOL     OW 6030   1.575   4.342   4.211
 1914SOL    HW1 6031   1.524   4.387   4.284
 1914SOL    HW2 6032   1.622   4.412   4.156
 1915SOL     OW 6033   0.354   5.250   5.036
 1915SOL    HW1 6034   0.335   5.199   4.952
 1915SOL    HW2 6035   0.452   5.265   5.045
 1916SOL     OW 6036   0.436   4.454   5.312
 1916SOL    HW1 6037   0.508   4.499   5.259
 1916SOL    HW2 6038   0.465   4.361   5.335
 1917SOL     OW 6039   1.616   4.508   5.413
 1917SOL    HW1 6040   1.525   4.549   5.411
 1917SOL    HW2 6041   1.673   4.547   5.341
 1918SOL     OW 6042   0.998   3.860   5.473
 1918SOL    HW1 6043   1.055   3.942   5.461
 1918SOL    HW2 6044   1.049   3.779   5.443
 1919SOL     OW 6045   0.492   3.754   5.473
 1919SOL    HW1 6046   0.445   3.701   5.403
 1919SOL    HW2 6047   0.435   3.832   5.500
 1920SOL     OW 6048   0.601   4.600   4.751
 1920SOL    HW1 6049   0.634   4.695   4.750
 1920SOL    HW2 6050   0.538   4.588   4.827
 1921SOL     OW 6051   1.339   4.579   4.742
 1921SOL    HW1 6052   1.247   4.565   4.706
 1921SOL    HW2 6053   1.393   4.496   4.729
 1922SOL     OW 6054   1.196   4.249   3.986
 1922SOL    HW1 6055   1.209   4.166   4.041
 1922SOL    HW2 6056   1.153   4.319   4.042
 1923SOL     OW 6057   0.294   3.910   4.972
 1923SOL    HW1 6058   0.260   3.950   5.057
 1923SOL    HW2 6059   0.277   3.811   4.972
 1924SOL     OW 6060   0.068   5.052   4.994
 1924SOL    HW1 6061   0.035   5.026   5.085
 1924SOL    HW2 6062   0.045   5.147   4.976
 1925SOL     OW 6063   0.727   4.355   4.774
 1925SOL    HW1 6064   0.803   4.334   4.713
 1925SOL    HW2 6065   0.694   4.448   4.756
 1926SOL     OW 6066   1.753   4.691   5.570
 1926SOL    HW1 6067   1.710   4.615   5.521
 1926SOL    HW2 6068   1.693   4.720   5.645
 1927SOL     OW 6069   0.327   3.788   4.364
 1927SOL    HW1 6070   0.297   3.882   4.377
 1927SOL    HW2 6071   0.330   3.742   4.453
 1928SOL     OW 6072   1.631   4.109   4.080
 1928SOL    HW1 6073   1.657   4.035   4.141
 1928SOL    HW2 6074   1.601   4.188   4.134
 1929SOL     OW 6075   1.026   4.478   4.679
 1929SOL    HW1 6076   1.015   4.500   4.777
 1929SOL    HW2 6077   0.998   4.384   4.663
 1930SOL     OW 6078   0.981   5.281   5.438
 1930SOL    HW1 6079   0.960   5.329   5.353
 1930SOL    HW2 6080   1.032   5.197   5.418
 1931SOL     OW 6081   1.851   5.224   5.326
 1931SOL    HW1 6082   1.873   5.251   5.232
 1931SOL    HW2 6083   1.932   5.233   5.383
 1932SOL     OW 6084   0.345   4.616   5.510
 1932SOL    HW1 6085   0.422   4.661   5.555
 1932SOL    HW2 6086   0.379   4.556   5.438
 1933SOL     OW 6087   1.527   3.988   3.852
 1933SOL    HW1 6088   1.458   3.922   3.882
 1933SOL    HW2 6089   1.565   4.035   3.932
 1934SOL     OW 6090   1.286   4.549   3.745
 1934SOL    HW1 6091   1.325   4.458   3.755
 1934SOL    HW2 6092   1.318   4.591   3.660
 1935SOL     OW 6093   1.073   5.065   4.582
 1935SOL    HW1 6094   1.080   4.987   4.521
 1935SOL    HW2 6095   1.128   5.141   4.545
 1936SOL     OW 6096   0.321   4.519   4.658
 1936SOL    HW1 6097   0.416   4.545   4.640
 1936SOL    HW2 6098   0.319   4.443   4.722
 1937SOL     OW 6099   0.351   4.226   4.752
 1937SOL    HW1 6100   0.311   4.134   4.743
 1937SOL    HW2 6101   0.427   4.236   4.688
 1938SOL     OW 6102   1.137   4.093   5.415
 1938SOL    HW1 6103   1.085   4.152   5.477
 1938SOL    HW2 6104   1.229   4.130   5.405
 1939SOL     OW 6105   1.163   3.923   5.201
 1939SOL    HW1 6106   1.148   3.984   5.278
 1939SOL    HW2 6107   1.206   3.974   5.126
 1940SOL     OW 6108   5.981   5.034   3.924
 1940SOL    HW1 6109   5.886   5.056   3.944
 1940SOL    HW2 6110   6.000   4.938   3.947
 1941SOL     OW 6111   0.048   5.538   4.597
 1941SOL    HW1 6112   0.058   5.439   4.609
 1941SOL    HW2 6113   0.133   5.584   4.621
 1942SOL     OW 6114   0.484   5.295   4.625
 1942SOL    HW1 6115   0.554   5.360   4.655
 1942SOL    HW2 6116   0.524   5.231   4.560
 1943SOL     OW 6117   0.965   4.515   4.944
 1943SOL    HW1 6118   1.025   4.493   5.021
 1943SOL    HW2 6119   0.877   4.470   4.956
 1944SOL     OW 6120  -0.020   4.326   4.853
 1944SOL    HW1 6121   0.018   4.285   4.769
 1944SOL    HW2 6122   0.020   4.281   4.933
 1945SOL     OW 6123   0.188   4.229   5.452
 1945SOL    HW1 6124   0.231   4.183   5.375
 1945SOL    HW2 6125   0.138   4.309   5.420
 1946SOL     OW 6126   1.387   4.657   5.378
 1946SOL    HW1 6127   1.410   4.754   5.375
 1946SOL    HW2 6128   1.380   4.622   5.284
 1947SOL     OW 6129   0.817   4.297   4.089
 1947SOL    HW1 6130   0.827   4.218   4.029
 1947SOL    HW2 6131   0.739   4.352   4.059
 1948SOL     OW 6132   1.641   4.327   4.899
 1948SOL    HW1 6133   1.625   4.268   4.978
 1948SOL    HW2 6134   1.734   4.311   4.865
 1949SOL     OW 6135   0.291   5.271   5.463
 1949SOL    HW1 6136   0.235   5.343   5.504
 1949SOL    HW2 6137   0.258   5.182   5.494
 1950SOL     OW 6138   0.719   4.167   4.969
 1950SOL    HW1 6139   0.655   4.092   4.949
 1950SOL    HW2 6140   0.711   4.237   4.898
 1951SOL     OW 6141   0.916   5.399   5.197
 1951SOL    HW1 6142   0.887   5.349   5.116
 1951SOL    HW2 6143   0.913   5.497   5.179
 1952SOL     OW 6144   0.452   4.219   3.906
 1952SOL    HW1 6145   0.518   4.289   3.931
 1952SOL    HW2 6146   0.362   4.260   3.892
 1953SOL     OW 6147   0.200   4.823   5.173
 1953SOL    HW1 6148   0.134   4.852   5.242
 1953SOL    HW2 6149   0.162   4.838   5.082
 1954SOL     OW 6150   1.309   4.765   4.939
 1954SOL    HW1 6151   1.333   4.697   4.870
 1954SOL    HW2 6152   1.248   4.833   4.899
 1955SOL     OW 6153   1.321   4.581   4.017
 1955SOL    HW1 6154   1.246   4.554   4.077
 1955SOL    HW2 6155   1.294   4.569   3.922
 1956SOL     OW 6156   1.779   5.440   4.884
 1956SOL    HW1 6157   1.842   5.478   4.816
 1956SOL    HW2 6158   1.750   5.349   4.856
 1957SOL     OW 6159   1.242   5.457   4.825
 1957SOL    HW1 6160   1.330   5.491   4.790
 1957SOL    HW2 6161   1.251   5.360   4.848
 1958SOL     OW 6162   0.095   4.987   4.731
 1958SOL    HW1 6163   0.086   5.001   4.830
 1958SOL    HW2 6164   0.020   4.929   4.699
 1959SOL     OW 6165   0.685   5.404   5.474
 1959SOL    HW1 6166   0.613   5.473   5.467
 1959SOL    HW2 6167   0.752   5.419   5.401
 1960SOL     OW 6168   1.722   3.881   4.218
 1960SOL    HW1 6169   1.795   3.870   4.150
 1960SOL    HW2 6170   1.704   3.794   4.263
 1961SOL     OW 6171   1.398   5.294   4.215
 1961SOL    HW1 6172   1.458   5.328   4.143
 1961SOL    HW2 6173   1.341   5.369   4.248
 1962SOL     OW 6174   0.144   5.489   5.554
 1962SOL    HW1 6175   0.075   5.426   5.589
 1962SOL    HW2 6176   0.189   5.535   5.630
 1963SOL     OW 6177   1.284   4.656   4.387
 1963SOL    HW1 6178   1.359   4.592   4.404
 1963SOL    HW2 6179   1.318   4.732   4.332
 1964SOL     OW 6180   0.792   5.007   5.147
 1964SOL    HW1 6181   0.764   5.052   5.231
 1964SOL    HW2 6182   0.719   5.015   5.079
 1965SOL     OW 6183   0.668   5.345   3.879
 1965SOL    HW1 6184   0.684   5.367   3.783
 1965SOL    HW2 6185   0.608   5.266   3.886
 1966SOL     OW 6186   1.612   5.455   5.110
 1966SOL    HW1 6187   1.673   5.452   5.031
 1966SOL    HW2 6188   1.592   5.550   5.133
 1967SOL     OW 6189   1.843   3.889   4.687
 1967SOL    HW1 6190   1.876   3.797   4.665
 1967SOL    HW2 6191   1.751   3.900   4.648
 1968SOL     OW 6192   0.260   4.038   4.439
 1968SOL    HW1 6193   0.175   4.075   4.403
 1968SOL    HW2 6194   0.253   4.029   4.539
 1969SOL     OW 6195   1.209   5.317   3.758
 1969SOL    HW1 6196   1.201   5.224   3.794
 1969SOL    HW2 6197   1.138   5.332   3.688
 1970SOL     OW 6198   0.827   4.738   5.108
 1970SOL    HW1 6199   0.874   4.721   5.021
 1970SOL    HW2 6200   0.817   4.836   5.122
 1971SOL     OW 6201   0.923   4.632   4.013
 1971SOL    HW1 6202   0.982   4.669   3.941
 1971SOL    HW2 6203   0.973   4.562   4.063
 1972SOL     OW 6204   1.484   5.367   3.768
 1972SOL    HW1 6205   1.387   5.346   3.754
 1972SOL    HW2 6206   1.530   5.369   3.679
 1973SOL     OW 6207   0.384   5.026   5.212
 1973SOL    HW1 6208   0.364   5.106   5.155
 1973SOL    HW2 6209   0.323   4.951   5.187
 1974SOL     OW 6210   1.611   5.010   5.010
 1974SOL    HW1 6211   1.672   4.987   5.086
 1974SOL    HW2 6212   1.545   5.079   5.040
 1975SOL     OW 6213   1.072   4.832   4.447
 1975SOL    HW1 6214   0.993   4.783   4.483
 1975SOL    HW2 6215   1.140   4.767   4.413
 1976SOL     OW 6216   1.026   3.966   4.689
 1976SOL    HW1 6217   1.023   3.924   4.599
 1976SOL    HW2 6218   1.022   3.894   4.759
 1977SOL     OW 6219   0.608   5.214   4.199
 1977SOL    HW1 6220   0.660   5.158   4.135
 1977SOL    HW2 6221   0.529   5.253   4.152
 1978SOL     OW 6222   1.738   4.115   5.109
 1978SOL    HW1 6223   1.810   4.184   5.109
 1978SOL    HW2 6224   1.761   4.042   5.045
 1979SOL     OW 6225   0.250   5.071   4.009
 1979SOL    HW1 6226   0.154   5.060   3.985
 1979SOL    HW2 6227   0.257   5.110   4.101
 1980SOL     OW 6228   0.129   4.780   5.471
 1980SOL    HW1 6229   0.050   4.719   5.480
 1980SOL    HW2 6230   0.213   4.727   5.480
 1981SOL     OW 6231   0.686   3.914   5.221
 1981SOL    HW1 6232   0.773   3.889   5.179
 1981SOL    HW2 6233   0.702   3.949   5.313
 1982SOL     OW 6234   0.062   4.049   3.759
 1982SOL    HW1 6235  -0.038   4.051   3.754
 1982SOL    HW2 6236   0.100   4.118   3.697
 1983SOL     OW 6237   1.418   4.579   5.116
 1983SOL    HW1 6238   1.361   4.642   5.063
 1983SOL    HW2 6239   1.512   4.581   5.081
 1984SOL     OW 6240   0.091   3.948   4.020
 1984SOL    HW1 6241   0.093   4.011   3.942
 1984SOL    HW2 6242   0.165   3.881   4.010
 1985SOL     OW 6243   1.177   5.057   3.847
 1985SOL    HW1 6244   1.080   5.035   3.838
 1985SOL    HW2 6245   1.203   5.057   3.943
 1986SOL     OW 6246   0.633   4.554   5.155
 1986SOL    HW1 6247   0.690   4.635   5.144
 1986SOL    HW2 6248   0.692   4.473   5.161
 1987SOL     OW 6249   1.492   5.536   4.732
 1987SOL    HW1 6250   1.514   5.589   4.650
 1987SOL    HW2 6251   1.573   5.487   4.762
 1988SOL     OW 6252   0.721   4.280   5.423
 1988SOL    HW1 6253   0.769   4.344   5.483
 1988SOL    HW2 6254   0.739   4.186   5.452
 1989SOL     OW 6255   1.475   4.918   5.353
 1989SOL    HW1 6256   1.461   4.937   5.450
 1989SOL    HW2 6257   1.570   4.938   5.329
 1990SOL     OW 6258   0.368   5.464   5.287
 1990SOL    HW1 6259   0.281   5.512   5.272
 1990SOL    HW2 6260   0.351   5.379   5.337
 1991SOL     OW 6261   1.660   4.600   4.981
 1991SOL    HW1 6262   1.658   4.510   4.938
 1991SOL    HW2 6263   1.648   4.670   4.911
 1992SOL     OW 6264   1.221   4.040   4.183
 1992SOL    HW1 6265   1.284   3.963   4.178
 1992SOL    HW2 6266   1.246   4.097   4.262
 1993SOL     OW 6267   0.579   4.460   4.400
 1993SOL    HW1 6268   0.624   4.549   4.387
 1993SOL    HW2 6269   0.514   4.444   4.326
 1994SOL     OW 6270   1.746   4.081   5.383
 1994SOL    HW1 6271   1.740   4.100   5.285
 1994SOL    HW2 6272   1.668   4.025   5.411
 1995SOL     OW 6273   1.758   4.652   5.232
 1995SOL    HW1 6274   1.742   4.748   5.256
 1995SOL    HW2 6275   1.733   4.636   5.137
 1996SOL     OW 6276   0.878   5.084   3.782
 1996SOL    HW1 6277   0.830   5.100   3.868
 1996SOL    HW2 6278   0.879   5.168   3.727
 1997SOL     OW 6279   0.665   5.491   4.662
 1997SOL    HW1 6280   0.636   5.586   4.644
 1997SOL    HW2 6281   0.764   5.484   4.653
 1998SOL     OW 6282   0.873   4.697   4.579
 1998SOL    HW1 6283   0.922   4.618   4.615
 1998SOL    HW2 6284   0.825   4.743   4.654
 1999SOL     OW 6285   1.075   4.711   3.807
 1999SOL    HW1 6286   1.047   4.768   3.729
 1999SOL    HW2 6287   1.153   4.654   3.780
 2000SOL     OW 6288   1.839   5.282   4.571
 2000SOL    HW1 6289   1.763   5.269   4.507
 2000SOL    HW2 6290   1.830   5.216   4.646
 2001SOL     OW 6291   0.213   5.018   5.573
 2001SOL    HW1 6292   0.178   4.940   5.522
 2001SOL    HW2 6293   0.154   5.036   5.651
 2002SOL     OW 6294   0.105   4.980   4.408
 2002SOL    HW1 6295   0.035   4.951   4.474
 2002SOL    HW2 6296   0.149   4.900   4.368
 2003SOL     OW 6297   0.684   5.139   5.364
 2003SOL    HW1 6298   0.599   5.092   5.389
 2003SOL    HW2 6299   0.682   5.232   5.401
 2004SOL     OW 6300   1.801   3.905   4.956
 2004SOL    HW1 6301   1.818   3.810   4.982
 2004SOL    HW2 6302   1.816   3.916   4.857
 2005SOL     OW 6303   0.441   4.148   4.249
 2005SOL    HW1 6304   0.467   4.078   4.184
 2005SOL    HW2 6305   0.383   4.108   4.320
 2006SOL     OW 6306   1.692   5.196   4.811
 2006SOL    HW1 6307   1.611   5.181   4.755
 2006SOL    HW2 6308   1.694   5.128   4.885
 2007SOL     OW 6309   0.345   4.290   5.017
 2007SOL    HW1 6310   0.397   4.230   5.078
 2007SOL    HW2 6311   0.354   4.258   4.923
 2008SOL     OW 6312   0.834   5.308   4.398
 2008SOL    HW1 6313   0.810   5.377   4.330
 2008SOL    HW2 6314   0.757   5.244   4.408
 2009SOL     OW 6315   1.428   3.959   4.843
 2009SOL    HW1 6316   1.450   3.869   4.881
 2009SOL    HW2 6317   1.373   4.010   4.909
 2010SOL     OW 6318   1.010   3.741   4.855
 2010SOL    HW1 6319   0.944   3.680   4.811
 2010SOL    HW2 6320   1.101   3.698   4.854
 2011SOL     OW 6321   0.776   5.054   4.047
 2011SOL    HW1 6322   0.749   4.958   4.058
 2011SOL    HW2 6323   0.860   5.071   4.099
 2012SOL     OW 6324   0.627   5.282   5.015
 2012SOL    HW1 6325   0.622   5.367   5.067
 2012SOL    HW2 6326   0.718   5.273   4.973
 2013SOL     OW 6327   1.357   3.772   3.904
 2013SOL    HW1 6328   1.399   3.709   3.839
 2013SOL    HW2 6329   1.263   3.743   3.924
 2014SOL     OW 6330   1.289   4.191   4.402
 2014SOL    HW1 6331   1.238   4.277   4.402
 2014SOL    HW2 6332   1.288   4.152   4.494
 2015SOL     OW 6333   1.583   3.922   4.614
 2015SOL    HW1 6334   1.528   3.946   4.694
 2015SOL    HW2 6335   1.586   4.000   4.551
 2016SOL     OW 6336   0.060   4.783   3.998
 2016SOL    HW1 6337   0.156   4.760   3.985
 2016SOL    HW2 6338   0.020   4.722   4.067
 2017SOL     OW 6339   0.887   5.390   4.053
 2017SOL    HW1 6340   0.812   5.368   3.992
 2017SOL    HW2 6341   0.859   5.462   4.117
 2018SOL     OW 6342   0.192   4.339   5.713
 2018SOL    HW1 6343   0.094   4.349   5.731
 2018SOL    HW2 6344   0.206   4.303   5.621
 2019SOL     OW 6345   1.801   4.327   5.799
 2019SOL    HW1 6346   1.751   4.304   5.715
 2019SOL    HW2 6347   1.805   4.247   5.858
 2020SOL     OW 6348   0.255   5.453   0.097
 2020SOL    HW1 6349   0.272   5.538   0.147
 2020SOL    HW2 6350   0.332   5.435   0.035
 2021SOL     OW 6351   0.608   4.704   5.729
 2021SOL    HW1 6352   0.628   4.770   5.657
 2021SOL    HW2 6353   0.691   4.684   5.781
 2022SOL     OW 6354   1.813   5.480   5.902
 2022SOL    HW1 6355   1.829   5.418   5.979
 2022SOL    HW2 6356   1.884   5.551   5.902
 2023SOL     OW 6357   0.006   5.280   5.672
 2023SOL    HW1 6358   0.009   5.187   5.708
 2023SOL    HW2 6359   0.022   5.346   5.746
 2024SOL     OW 6360   1.729   4.591   0.147
 2024SOL    HW1 6361   1.769   4.612   0.236
 2024SOL    HW2 6362   1.692   4.675   0.107
 2025SOL     OW 6363   1.686   4.821   5.990
 2025SOL    HW1 6364   1.780   4.824   5.955
 2025SOL    HW2 6365   1.655   4.913   6.013
 2026SOL     OW 6366   1.552   4.739   5.759
 2026SOL    HW1 6367   1.492   4.659   5.764
 2026SOL    HW2 6368   1.587   4.759   5.851
 2027SOL     OW 6369   0.579   4.451   5.859
 2027SOL    HW1 6370   0.589   4.527   5.795
 2027SOL    HW2 6371   0.567   4.488   5.952
 2028SOL     OW 6372   0.871   4.091   5.752
 2028SOL    HW1 6373   0.922   4.148   5.688
 2028SOL    HW2 6374   0.925   4.010   5.776
 2029SOL     OW 6375   0.333   4.674   5.818
 2029SOL    HW1 6376   0.426   4.696   5.788
 2029SOL    HW2 6377   0.301   4.592   5.771
 2030SOL     OW 6378   1.119   5.474   5.824
 2030SOL    HW1 6379   1.027   5.445   5.851
 2030SOL    HW2 6380   1.145   5.426   5.741
 2031SOL     OW 6381   1.633   5.116   5.681
 2031SOL    HW1 6382   1.599   5.209   5.668
 2031SOL    HW2 6383   1.561   5.051   5.658
 2032SOL     OW 6384   0.482   5.489   5.915
 2032SOL    HW1 6385   0.532   5.545   5.982
 2032SOL    HW2 6386   0.548   5.437   5.859
 2033SOL     OW 6387   0.645   3.833   5.684
 2033SOL    HW1 6388   0.732   3.785   5.684
 2033SOL    HW2 6389   0.589   3.802   5.607
 2034SOL     OW 6390   1.428   4.939   5.623
 2034SOL    HW1 6391   1.470   4.864   5.672
 2034SOL    HW2 6392   1.339   4.961   5.664
 2035SOL     OW 6393   0.291   3.757   5.772
 2035SOL    HW1 6394   0.331   3.827   5.712
 2035SOL    HW2 6395   0.363   3.714   5.826
 2036SOL     OW 6396   1.027   4.256   5.604
 2036SOL    HW1 6397   0.981   4.344   5.589
 2036SOL    HW2 6398   1.094   4.266   5.677
 2037SOL     OW 6399   1.896   4.534   5.938
 2037SOL    HW1 6400   1.839   4.548   6.019
 2037SOL    HW2 6401   1.855   4.462   5.881
 2038SOL     OW 6402   0.482   5.148   5.751
 2038SOL    HW1 6403   0.407   5.122   5.811
 2038SOL    HW2 6404   0.462   5.119   5.658
 2039SOL     OW 6405   1.715   4.990   0.281
 2039SOL    HW1 6406   1.803   4.949   0.258
 2039SOL    HW2 6407   1.676   5.034   0.200
 2040SOL     OW 6408   1.399   4.312   5.645
 2040SOL    HW1 6409   1.337   4.275   5.715
 2040SOL    HW2 6410   1.492   4.282   5.663
 2041SOL     OW 6411   0.537   3.977   5.890
 2041SOL    HW1 6412   0.577   3.932   5.811
 2041SOL    HW2 6413   0.501   4.066   5.864
 2042SOL     OW 6414   0.380   4.837   0.040
 2042SOL    HW1 6415   0.335   4.925   0.024
 2042SOL    HW2 6416   0.360   4.775  -0.036
 2043SOL     OW 6417   1.204   4.235   5.822
 2043SOL    HW1 6418   1.215   4.144   5.862
 2043SOL    HW2 6419   1.170   4.298   5.891
 2044SOL     OW 6420   0.303   3.812   0.267
 2044SOL    HW1 6421   0.368   3.887   0.270
 2044SOL    HW2 6422   0.346   3.730   0.305
 2045SOL     OW 6423   1.516   3.989   5.724
 2045SOL    HW1 6424   1.457   3.910   5.737
 2045SOL    HW2 6425   1.554   4.017   5.813
 2046SOL     OW 6426   1.318   4.574   5.630
 2046SOL    HW1 6427   1.343   4.477   5.637
 2046SOL    HW2 6428   1.338   4.608   5.538
 2047SOL     OW 6429   5.998   5.031   5.783
 2047SOL    HW1 6430   5.901   5.052   5.795
 2047SOL    HW2 6431   6.016   4.936   5.811
 2048SOL     OW 6432   0.823   4.325   5.894
 2048SOL    HW1 6433   0.827   4.236   5.848
 2048SOL    HW2 6434   0.732   4.365   5.881
 2049SOL     OW 6435   0.439   4.219   5.781
 2049SOL    HW1 6436   0.502   4.292   5.808
 2049SOL    HW2 6437   0.348   4.258   5.764
 2050SOL     OW 6438   1.788   3.875   0.093
 2050SOL    HW1 6439   1.843   3.869   0.010
 2050SOL    HW2 6440   1.726   3.797   0.098
 2051SOL     OW 6441   0.668   5.346   5.746
 2051SOL    HW1 6442   0.680   5.367   5.649
 2051SOL    HW2 6443   0.602   5.271   5.756
 2052SOL     OW 6444   1.195   5.319   5.617
 2052SOL    HW1 6445   1.192   5.225   5.651
 2052SOL    HW2 6446   1.128   5.330   5.543
 2053SOL     OW 6447   0.861   4.626   5.806
 2053SOL    HW1 6448   0.946   4.666   5.773
 2053SOL    HW2 6449   0.881   4.555   5.874
 2054SOL     OW 6450   1.472   5.368   5.618
 2054SOL    HW1 6451   1.376   5.347   5.602
 2054SOL    HW2 6452   1.521   5.367   5.531
 2055SOL     OW 6453   1.035   4.883   0.297
 2055SOL    HW1 6454   0.996   4.830   0.373
 2055SOL    HW2 6455   1.070   4.820   0.228
 2056SOL     OW 6456   0.259   5.082   5.923
 2056SOL    HW1 6457   0.168   5.068   5.884
 2056SOL    HW2 6458   0.257   5.158   5.988
 2057SOL     OW 6459   0.070   4.044   5.606
 2057SOL    HW1 6460  -0.029   4.038   5.597
 2057SOL    HW2 6461   0.104   4.120   5.550
 2058SOL     OW 6462   0.090   3.937   5.852
 2058SOL    HW1 6463   0.088   3.988   5.766
 2058SOL    HW2 6464   0.166   3.872   5.850
 2059SOL     OW 6465   1.168   5.060   5.710
 2059SOL    HW1 6466   1.071   5.041   5.694
 2059SOL    HW2 6467   1.191   5.043   5.806
 2060SOL     OW 6468   1.207   4.027   0.018
 2060SOL    HW1 6469   1.292   3.997   0.060
 2060SOL    HW2 6470   1.169   4.103   0.071
 2061SOL     OW 6471   0.874   5.102   5.633
 2061SOL    HW1 6472   0.824   5.147   5.707
 2061SOL    HW2 6473   0.892   5.168   5.560
 2062SOL     OW 6474   1.088   4.716   5.690
 2062SOL    HW1 6475   1.061   4.764   5.607
 2062SOL    HW2 6476   1.172   4.664   5.673
 2063SOL     OW 6477   1.365   3.761   5.739
 2063SOL    HW1 6478   1.408   3.679   5.702
 2063SOL    HW2 6479   1.276   3.738   5.778
 2064SOL     OW 6480   0.064   4.781   5.867
 2064SOL    HW1 6481   0.156   4.749   5.845
 2064SOL    HW2 6482   0.027   4.729   5.944
 2065SOL     OW 6483   0.867   5.383   5.934
 2065SOL    HW1 6484   0.797   5.379   5.863
 2065SOL    HW2 6485   0.863   5.472   5.979
 2066SOL     OW 6486   0.237   0.260   0.082
 2066SOL    HW1 6487   0.180   0.237   0.161
 2066SOL    HW2 6488   0.202   0.213   0.001
 2067SOL     OW 6489   0.203   5.802   0.982
 2067SOL    HW1 6490   0.229   5.791   1.078
 2067SOL    HW2 6491   0.107   5.829   0.977
 2068SOL     OW 6492   0.057   5.940   0.638
 2068SOL    HW1 6493  -0.018   5.953   0.703
 2068SOL    HW2 6494   0.020   5.906   0.551
 2069SOL     OW 6495   0.457   5.950   1.510
 2069SOL    HW1 6496   0.528   5.885   1.482
 2069SOL    HW2 6497   0.367   5.908   1.498
 2070SOL     OW 6498   1.588   0.023   0.719
 2070SOL    HW1 6499   1.494   0.018   0.686
 2070SOL    HW2 6500   1.596   0.098   0.784
 2071SOL     OW 6501   1.585   5.722   1.441
 2071SOL    HW1 6502   1.657   5.758   1.381
 2071SOL    HW2 6503   1.588   5.769   1.529
 2072SOL     OW 6504   0.816   5.585   0.515
 2072SOL    HW1 6505   0.867   5.664   0.479
 2072SOL    HW2 6506   0.720   5.610   0.526
 2073SOL     OW 6507   0.333   5.807   1.841
 2073SOL    HW1 6508   0.396   5.883   1.820
 2073SOL    HW2 6509   0.239   5.838   1.831
 2074SOL     OW 6510   1.258   5.929   0.944
 2074SOL    HW1 6511   1.173   5.878   0.939
 2074SOL    HW2 6512   1.319   5.886   1.010
 2075SOL     OW 6513   0.546   5.738   0.898
 2075SOL    HW1 6514   0.550   5.768   0.994
 2075SOL    HW2 6515   0.541   5.818   0.838
 2076SOL     OW 6516   0.196   5.847   1.488
 2076SOL    HW1 6517   0.113   5.903   1.495
 2076SOL    HW2 6518   0.180   5.758   1.531
 2077SOL     OW 6519   1.416   5.688   0.445
 2077SOL    HW1 6520   1.408   5.665   0.348
 2077SOL    HW2 6521   1.511   5.710   0.466
 2078SOL     OW 6522   1.548   5.793   1.721
 2078SOL    HW1 6523   1.540   5.822   1.817
 2078SOL    HW2 6524   1.489   5.714   1.706
 2079SOL     OW 6525   0.617   5.674   0.086
 2079SOL    HW1 6526   0.717   5.667   0.086
 2079SOL    HW2 6527   0.588   5.742   0.019
 2080SOL     OW 6528   0.772   5.836   1.737
 2080SOL    HW1 6529   0.857   5.785   1.748
 2080SOL    HW2 6530   0.722   5.838   1.824
 2081SOL     OW 6531   1.405   0.179   1.414
 2081SOL    HW1 6532   1.317   0.153   1.456
 2081SOL    HW2 6533   1.396   0.269   1.372
 2082SOL     OW 6534   0.550   5.662   0.510
 2082SOL    HW1 6535   0.471   5.663   0.572
 2082SOL    HW2 6536   0.542   5.736   0.444
 2083SOL     OW 6537   0.954   5.805   0.438
 2083SOL    HW1 6538   0.903   5.882   0.478
 2083SOL    HW2 6539   1.052   5.823   0.444
 2084SOL     OW 6540   0.550   5.795   1.161
 2084SOL    HW1 6541   0.605   5.754   1.234
 2084SOL    HW2 6542   0.454   5.798   1.190
 2085SOL     OW 6543   1.018   5.618   0.724
 2085SOL    HW1 6544   0.954   5.618   0.648
 2085SOL    HW2 6545   0.994   5.546   0.788
 2086SOL     OW 6546   0.519   5.835   0.297
 2086SOL    HW1 6547   0.568   5.791   0.222
 2086SOL    HW2 6548   0.569   5.917   0.326
 2087SOL     OW 6549   0.923   5.670   1.386
 2087SOL    HW1 6550   0.947   5.647   1.292
 2087SOL    HW2 6551   0.997   5.724   1.427
 2088SOL     OW 6552   1.011   5.706   1.733
 2088SOL    HW1 6553   1.032   5.744   1.643
 2088SOL    HW2 6554   1.063   5.622   1.746
 2089SOL     OW 6555   0.494   5.608   1.757
 2089SOL    HW1 6556   0.452   5.555   1.683
 2089SOL    HW2 6557   0.434   5.683   1.782
 2090SOL     OW 6558   0.290   5.769   1.244
 2090SOL    HW1 6559   0.252   5.808   1.328
 2090SOL    HW2 6560   0.275   5.671   1.243
 2091SOL     OW 6561   0.812   0.255   1.051
 2091SOL    HW1 6562   0.777   0.228   0.961
 2091SOL    HW2 6563   0.736   0.265   1.115
 2092SOL     OW 6564   0.307   5.665   0.646
 2092SOL    HW1 6565   0.253   5.749   0.652
 2092SOL    HW2 6566   0.311   5.621   0.736
 2093SOL     OW 6567   1.494   5.864   0.133
 2093SOL    HW1 6568   1.429   5.790   0.151
 2093SOL    HW2 6569   1.586   5.826   0.122
 2094SOL     OW 6570   0.339   0.048   1.011
 2094SOL    HW1 6571   0.309  -0.041   0.976
 2094SOL    HW2 6572   0.406   0.087   0.948
 2095SOL     OW 6573   1.136   5.813   1.484
 2095SOL    HW1 6574   1.192   5.863   1.550
 2095SOL    HW2 6575   1.146   5.854   1.393
 2096SOL     OW 6576   0.073   0.068   1.093
 2096SOL    HW1 6577   0.171   0.064   1.071
 2096SOL    HW2 6578   0.058   0.137   1.164
 2097SOL     OW 6579   0.890   5.629   0.078
 2097SOL    HW1 6580   0.959   5.686   0.034
 2097SOL    HW2 6581   0.925   5.597   0.167
 2098SOL     OW 6582   1.703   5.730   0.504
 2098SOL    HW1 6583   1.777   5.733   0.437
 2098SOL    HW2 6584   1.697   5.638   0.543
 2099SOL     OW 6585   1.827   5.748   0.981
 2099SOL    HW1 6586   1.867   5.660   0.958
 2099SOL    HW2 6587   1.740   5.760   0.933
 2100SOL     OW 6588   1.021   5.793   0.935
 2100SOL    HW1 6589   1.023   5.737   0.852
 2100SOL    HW2 6590   1.014   5.733   1.015
 2101SOL     OW 6591   0.683   5.770   1.484
 2101SOL    HW1 6592   0.769   5.744   1.441
 2101SOL    HW2 6593   0.701   5.803   1.577
 2102SOL     OW 6594   0.041   5.945   0.030
 2102SOL    HW1 6595  -0.024   5.956   0.105
 2102SOL    HW2 6596   0.053   6.034  -0.016
 2103SOL     OW 6597   0.100   5.843   0.317
 2103SOL    HW1 6598   0.162   5.911   0.278
 2103SOL    HW2 6599   0.147   5.754   0.321
 2104SOL     OW 6600   1.218   5.878   0.469
 2104SOL    HW1 6601   1.288   5.809   0.455
 2104SOL    HW2 6602   1.248   5.942   0.540
 2105SOL     OW 6603   1.793   5.914   1.652
 2105SOL    HW1 6604   1.756   5.981   1.588
 2105SOL    HW2 6605   1.719   5.855   1.685
 2106SOL     OW 6606   1.783   5.771   1.255
 2106SOL    HW1 6607   1.846   5.699   1.283
 2106SOL    HW2 6608   1.790   5.785   1.156
 2107SOL     OW 6609   1.430   5.801   1.117
 2107SOL    HW1 6610   1.445   5.703   1.110
 2107SOL    HW2 6611   1.456   5.833   1.209
 2108SOL     OW 6612   1.010   5.595   1.134
 2108SOL    HW1 6613   0.944   5.532   1.093
 2108SOL    HW2 6614   1.101   5.555   1.133
 2109SOL     OW 6615   1.354   5.633   0.178
 2109SOL    HW1 6616   1.403   5.565   0.124
 2109SOL    HW2 6617   1.262   5.598   0.199
 2110SOL     OW 6618   1.311   0.036   0.694
 2110SOL    HW1 6619   1.259   0.120   0.678
 2110SOL    HW2 6620   1.290   0.000   0.785
 2111SOL     OW 6621   1.578   5.783   0.879
 2111SOL    HW1 6622   1.519   5.812   0.955
 2111SOL    HW2 6623   1.577   5.852   0.807
 2112SOL     OW 6624   0.204   5.803   2.844
 2112SOL    HW1 6625   0.229   5.791   2.941
 2112SOL    HW2 6626   0.108   5.828   2.837
 2113SOL     OW 6627   0.058   5.926   2.505
 2113SOL    HW1 6628  -0.017   5.951   2.565
 2113SOL    HW2 6629   0.027   5.923   2.411
 2114SOL     OW 6630   1.760   0.173   2.025
 2114SOL    HW1 6631   1.767   0.084   1.980
 2114SOL    HW2 6632   1.716   0.162   2.114
 2115SOL     OW 6633   0.458   5.950   3.372
 2115SOL    HW1 6634   0.528   5.885   3.344
 2115SOL    HW2 6635   0.368   5.908   3.360
 2116SOL     OW 6636   1.589   0.035   2.567
 2116SOL    HW1 6637   1.493   0.027   2.539
 2116SOL    HW2 6638   1.598   0.105   2.637
 2117SOL     OW 6639   1.586   5.721   3.303
 2117SOL    HW1 6640   1.657   5.759   3.244
 2117SOL    HW2 6641   1.588   5.768   3.392
 2118SOL     OW 6642   0.814   5.590   2.370
 2118SOL    HW1 6643   0.864   5.668   2.332
 2118SOL    HW2 6644   0.717   5.612   2.376
 2119SOL     OW 6645   0.333   5.807   3.703
 2119SOL    HW1 6646   0.396   5.883   3.682
 2119SOL    HW2 6647   0.239   5.838   3.693
 2120SOL     OW 6648   1.258   5.930   2.808
 2120SOL    HW1 6649   1.172   5.879   2.802
 2120SOL    HW2 6650   1.319   5.885   2.874
 2121SOL     OW 6651   0.857   5.960   2.027
 2121SOL    HW1 6652   0.927   5.981   1.959
 2121SOL    HW2 6653   0.895   5.898   2.096
 2122SOL     OW 6654   0.545   5.737   2.760
 2122SOL    HW1 6655   0.549   5.769   2.855
 2122SOL    HW2 6656   0.539   5.817   2.700
 2123SOL     OW 6657   0.197   5.847   3.351
 2123SOL    HW1 6658   0.114   5.903   3.358
 2123SOL    HW2 6659   0.180   5.758   3.393
 2124SOL     OW 6660   1.413   5.682   2.306
 2124SOL    HW1 6661   1.406   5.649   2.212
 2124SOL    HW2 6662   1.509   5.695   2.330
 2125SOL     OW 6663   1.549   5.793   3.584
 2125SOL    HW1 6664   1.541   5.822   3.679
 2125SOL    HW2 6665   1.489   5.714   3.568
 2126SOL     OW 6666   0.639   5.711   1.968
 2126SOL    HW1 6667   0.717   5.653   1.990
 2126SOL    HW2 6668   0.589   5.672   1.892
 2127SOL     OW 6669   0.772   5.836   3.599
 2127SOL    HW1 6670   0.857   5.785   3.610
 2127SOL    HW2 6671   0.723   5.838   3.686
 2128SOL     OW 6672   1.405   0.178   3.276
 2128SOL    HW1 6673   1.318   0.152   3.318
 2128SOL    HW2 6674   1.395   0.268   3.233
 2129SOL     OW 6675   0.541   5.661   2.351
 2129SOL    HW1 6676   0.469   5.660   2.420
 2129SOL    HW2 6677   0.523   5.734   2.285
 2130SOL     OW 6678   0.271   5.609   2.044
 2130SOL    HW1 6679   0.310   5.682   1.988
 2130SOL    HW2 6680   0.345   5.556   2.087
 2131SOL     OW 6681   0.949   5.815   2.288
 2131SOL    HW1 6682   0.900   5.891   2.332
 2131SOL    HW2 6683   1.048   5.829   2.298
 2132SOL     OW 6684   0.550   5.796   3.023
 2132SOL    HW1 6685   0.605   5.755   3.095
 2132SOL    HW2 6686   0.454   5.799   3.052
 2133SOL     OW 6687   1.016   5.618   2.583
 2133SOL    HW1 6688   0.952   5.619   2.507
 2133SOL    HW2 6689   0.991   5.546   2.648
 2134SOL     OW 6690   0.492   5.854   2.157
 2134SOL    HW1 6691   0.555   5.819   2.088
 2134SOL    HW2 6692   0.538   5.923   2.212
 2135SOL     OW 6693   0.923   5.669   3.248
 2135SOL    HW1 6694   0.947   5.647   3.154
 2135SOL    HW2 6695   0.997   5.723   3.289
 2136SOL     OW 6696   1.011   5.706   3.595
 2136SOL    HW1 6697   1.032   5.744   3.505
 2136SOL    HW2 6698   1.063   5.622   3.608
 2137SOL     OW 6699   0.494   5.607   3.619
 2137SOL    HW1 6700   0.452   5.555   3.545
 2137SOL    HW2 6701   0.434   5.683   3.644
 2138SOL     OW 6702   0.290   5.769   3.107
 2138SOL    HW1 6703   0.252   5.808   3.190
 2138SOL    HW2 6704   0.274   5.670   3.105
 2139SOL     OW 6705   0.812   0.255   2.913
 2139SOL    HW1 6706   0.777   0.228   2.823
 2139SOL    HW2 6707   0.736   0.265   2.977
 2140SOL     OW 6708   0.308   5.663   2.507
 2140SOL    HW1 6709   0.251   5.745   2.511
 2140SOL    HW2 6710   0.312   5.621   2.598
 2141SOL     OW 6711   1.511   5.842   1.993
 2141SOL    HW1 6712   1.454   5.761   2.008
 2141SOL    HW2 6713   1.588   5.840   2.057
 2142SOL     OW 6714   0.337   0.051   2.870
 2142SOL    HW1 6715   0.308  -0.039   2.838
 2142SOL    HW2 6716   0.406   0.088   2.808
 2143SOL     OW 6717   1.135   5.813   3.345
 2143SOL    HW1 6718   1.192   5.863   3.411
 2143SOL    HW2 6719   1.145   5.855   3.255
 2144SOL     OW 6720   0.075   0.065   2.964
 2144SOL    HW1 6721   0.170   0.062   2.934
 2144SOL    HW2 6722   0.063   0.142   3.028
 2145SOL     OW 6723   1.726   5.729   2.360
 2145SOL    HW1 6724   1.797   5.725   2.290
 2145SOL    HW2 6725   1.711   5.638   2.397
 2146SOL     OW 6726   1.827   5.750   2.843
 2146SOL    HW1 6727   1.866   5.661   2.819
 2146SOL    HW2 6728   1.741   5.763   2.794
 2147SOL     OW 6729   1.022   5.792   2.796
 2147SOL    HW1 6730   1.023   5.737   2.713
 2147SOL    HW2 6731   1.014   5.732   2.876
 2148SOL     OW 6732   0.683   5.770   3.346
 2148SOL    HW1 6733   0.769   5.744   3.303
 2148SOL    HW2 6734   0.701   5.803   3.439
 2149SOL     OW 6735   0.095   5.945   1.844
 2149SOL    HW1 6736   0.012   5.927   1.897
 2149SOL    HW2 6737   0.144   6.022   1.886
 2150SOL     OW 6738   0.113   5.825   2.157
 2150SOL    HW1 6739   0.173   5.900   2.130
 2150SOL    HW2 6740   0.161   5.738   2.149
 2151SOL     OW 6741   1.218   5.878   2.327
 2151SOL    HW1 6742   1.286   5.805   2.316
 2151SOL    HW2 6743   1.248   5.940   2.400
 2152SOL     OW 6744   1.793   5.914   3.513
 2152SOL    HW1 6745   1.756   5.981   3.450
 2152SOL    HW2 6746   1.720   5.855   3.547
 2153SOL     OW 6747   1.783   5.772   3.117
 2153SOL    HW1 6748   1.847   5.700   3.146
 2153SOL    HW2 6749   1.790   5.785   3.018
 2154SOL     OW 6750   1.431   5.801   2.978
 2154SOL    HW1 6751   1.447   5.702   2.969
 2154SOL    HW2 6752   1.456   5.831   3.070
 2155SOL     OW 6753   1.009   5.595   2.996
 2155SOL    HW1 6754   0.943   5.532   2.955
 2155SOL    HW2 6755   1.100   5.554   2.994
 2156SOL     OW 6756   1.370   5.615   2.035
 2156SOL    HW1 6757   1.413   5.540   1.984
 2156SOL    HW2 6758   1.276   5.591   2.057
 2157SOL     OW 6759   1.312   0.034   2.557
 2157SOL    HW1 6760   1.259   0.117   2.539
 2157SOL    HW2 6761   1.290  -0.001   2.648
 2158SOL     OW 6762   1.580   5.791   2.738
 2158SOL    HW1 6763   1.520   5.817   2.813
 2158SOL    HW2 6764   1.574   5.859   2.665
 2159SOL     OW 6765   0.202   5.801   4.705
 2159SOL    HW1 6766   0.228   5.791   4.801
 2159SOL    HW2 6767   0.107   5.831   4.699
 2160SOL     OW 6768   0.060   5.928   4.369
 2160SOL    HW1 6769  -0.014   5.952   4.432
 2160SOL    HW2 6770   0.025   5.924   4.275
 2161SOL     OW 6771   1.758   0.171   3.885
 2161SOL    HW1 6772   1.772   0.081   3.844
 2161SOL    HW2 6773   1.717   0.161   3.976
 2162SOL     OW 6774   0.456   5.951   5.207
 2162SOL    HW1 6775   0.527   5.884   5.189
 2162SOL    HW2 6776   0.367   5.906   5.206
 2163SOL     OW 6777   1.589   0.034   4.428
 2163SOL    HW1 6778   1.493   0.027   4.401
 2163SOL    HW2 6779   1.597   0.105   4.499
 2164SOL     OW 6780   1.586   5.721   5.169
 2164SOL    HW1 6781   1.656   5.760   5.110
 2164SOL    HW2 6782   1.587   5.767   5.258
 2165SOL     OW 6783   0.814   5.590   4.231
 2165SOL    HW1 6784   0.864   5.668   4.194
 2165SOL    HW2 6785   0.717   5.612   4.238
 2166SOL     OW 6786   0.339   5.811   5.563
 2166SOL    HW1 6787   0.397   5.886   5.531
 2166SOL    HW2 6788   0.243   5.836   5.553
 2167SOL     OW 6789   1.259   5.928   4.668
 2167SOL    HW1 6790   1.173   5.878   4.663
 2167SOL    HW2 6791   1.320   5.884   4.735
 2168SOL     OW 6792   0.857   5.959   3.890
 2168SOL    HW1 6793   0.928   5.980   3.823
 2168SOL    HW2 6794   0.894   5.898   3.961
 2169SOL     OW 6795   0.546   5.738   4.622
 2169SOL    HW1 6796   0.550   5.768   4.717
 2169SOL    HW2 6797   0.538   5.817   4.562
 2170SOL     OW 6798   0.197   5.846   5.212
 2170SOL    HW1 6799   0.120   5.907   5.230
 2170SOL    HW2 6800   0.179   5.756   5.253
 2171SOL     OW 6801   1.413   5.682   4.168
 2171SOL    HW1 6802   1.407   5.649   4.074
 2171SOL    HW2 6803   1.509   5.695   4.193
 2172SOL     OW 6804   1.548   5.794   5.456
 2172SOL    HW1 6805   1.541   5.825   5.551
 2172SOL    HW2 6806   1.494   5.710   5.445
 2173SOL     OW 6807   0.639   5.712   3.830
 2173SOL    HW1 6808   0.717   5.654   3.852
 2173SOL    HW2 6809   0.588   5.672   3.754
 2174SOL     OW 6810   0.769   5.836   5.456
 2174SOL    HW1 6811   0.852   5.781   5.466
 2174SOL    HW2 6812   0.711   5.824   5.537
 2175SOL     OW 6813   1.405   0.178   5.135
 2175SOL    HW1 6814   1.320   0.151   5.180
 2175SOL    HW2 6815   1.393   0.268   5.093
 2176SOL     OW 6816   0.541   5.660   4.213
 2176SOL    HW1 6817   0.469   5.660   4.283
 2176SOL    HW2 6818   0.523   5.734   4.147
 2177SOL     OW 6819   0.271   5.608   3.906
 2177SOL    HW1 6820   0.310   5.682   3.850
 2177SOL    HW2 6821   0.345   5.556   3.949
 2178SOL     OW 6822   0.949   5.816   4.149
 2178SOL    HW1 6823   0.900   5.891   4.193
 2178SOL    HW2 6824   1.047   5.829   4.159
 2179SOL     OW 6825   0.550   5.794   4.885
 2179SOL    HW1 6826   0.605   5.756   4.959
 2179SOL    HW2 6827   0.454   5.799   4.913
 2180SOL     OW 6828   1.017   5.618   4.445
 2180SOL    HW1 6829   0.952   5.619   4.369
 2180SOL    HW2 6830   0.991   5.546   4.510
 2181SOL     OW 6831   0.492   5.853   4.019
 2181SOL    HW1 6832   0.555   5.819   3.950
 2181SOL    HW2 6833   0.537   5.923   4.075
 2182SOL     OW 6834   0.925   5.669   5.113
 2182SOL    HW1 6835   0.950   5.649   5.018
 2182SOL    HW2 6836   0.998   5.722   5.156
 2183SOL     OW 6837   1.004   5.700   5.463
 2183SOL    HW1 6838   1.031   5.754   5.383
 2183SOL    HW2 6839   1.056   5.614   5.464
 2184SOL     OW 6840   0.492   5.609   5.476
 2184SOL    HW1 6841   0.449   5.554   5.404
 2184SOL    HW2 6842   0.432   5.685   5.500
 2185SOL     OW 6843   0.289   5.769   4.967
 2185SOL    HW1 6844   0.249   5.808   5.050
 2185SOL    HW2 6845   0.274   5.670   4.966
 2186SOL     OW 6846   0.812   0.256   4.774
 2186SOL    HW1 6847   0.776   0.230   4.685
 2186SOL    HW2 6848   0.736   0.265   4.839
 2187SOL     OW 6849   0.308   5.663   4.369
 2187SOL    HW1 6850   0.251   5.745   4.373
 2187SOL    HW2 6851   0.312   5.621   4.460
 2188SOL     OW 6852   1.511   5.842   3.855
 2188SOL    HW1 6853   1.454   5.761   3.870
 2188SOL    HW2 6854   1.588   5.841   3.919
 2189SOL     OW 6855   0.341   0.046   4.735
 2189SOL    HW1 6856   0.309  -0.042   4.699
 2189SOL    HW2 6857   0.406   0.086   4.671
 2190SOL     OW 6858   1.138   5.815   5.212
 2190SOL    HW1 6859   1.201   5.861   5.274
 2190SOL    HW2 6860   1.143   5.856   5.122
 2191SOL     OW 6861   0.074   0.067   4.817
 2191SOL    HW1 6862   0.172   0.064   4.796
 2191SOL    HW2 6863   0.057   0.136   4.888
 2192SOL     OW 6864   1.724   5.729   4.220
 2192SOL    HW1 6865   1.796   5.725   4.151
 2192SOL    HW2 6866   1.710   5.637   4.259
 2193SOL     OW 6867   1.827   5.750   4.705
 2193SOL    HW1 6868   1.865   5.661   4.681
 2193SOL    HW2 6869   1.741   5.763   4.656
 2194SOL     OW 6870   1.022   5.792   4.658
 2194SOL    HW1 6871   1.023   5.737   4.575
 2194SOL    HW2 6872   1.014   5.733   4.738
 2195SOL     OW 6873   0.681   5.770   5.203
 2195SOL    HW1 6874   0.768   5.743   5.161
 2195SOL    HW2 6875   0.698   5.806   5.295
 2196SOL     OW 6876   0.095   5.946   3.706
 2196SOL    HW1 6877   0.012   5.927   3.759
 2196SOL    HW2 6878   0.144   6.022   3.748
 2197SOL     OW 6879   0.112   5.825   4.017
 2197SOL    HW1 6880   0.173   5.900   3.992
 2197SOL    HW2 6881   0.161   5.738   4.010
 2198SOL     OW 6882   1.218   5.878   4.189
 2198SOL    HW1 6883   1.286   5.805   4.178
 2198SOL    HW2 6884   1.247   5.940   4.262
 2199SOL     OW 6885   1.789   5.910   5.378
 2199SOL    HW1 6886   1.753   5.977   5.313
 2199SOL    HW2 6887   1.713   5.855   5.414
 2200SOL     OW 6888   1.782   5.773   4.979
 2200SOL    HW1 6889   1.846   5.703   5.009
 2200SOL    HW2 6890   1.789   5.785   4.880
 2201SOL     OW 6891   1.432   5.802   4.840
 2201SOL    HW1 6892   1.448   5.703   4.835
 2201SOL    HW2 6893   1.456   5.834   4.932
 2202SOL     OW 6894   1.010   5.596   4.859
 2202SOL    HW1 6895   0.943   5.534   4.819
 2202SOL    HW2 6896   1.101   5.554   4.856
 2203SOL     OW 6897   1.371   5.615   3.898
 2203SOL    HW1 6898   1.413   5.540   3.847
 2203SOL    HW2 6899   1.276   5.592   3.919
 2204SOL     OW 6900   1.311   0.034   4.418
 2204SOL    HW1 6901   1.259   0.117   4.402
 2204SOL    HW2 6902   1.291  -0.002   4.509
 2205SOL     OW 6903   1.580   5.790   4.600
 2205SOL    HW1 6904   1.520   5.816   4.676
 2205SOL    HW2 6905   1.573   5.859   4.527
 2206SOL     OW 6906   1.731   0.188   5.785
 2206SOL    HW1 6907   1.726   0.098   5.743
 2206SOL    HW2 6908   1.732   0.178   5.885
 2207SOL     OW 6909   1.052   0.167   0.027
 2207SOL    HW1 6910   1.117   0.243   0.021
 2207SOL    HW2 6911   0.970   0.190  -0.025
 2208SOL     OW 6912   0.864   5.977   5.722
 2208SOL    HW1 6913   0.917   6.020   5.649
 2208SOL    HW2 6914   0.890   5.881   5.730
 2209SOL     OW 6915   0.649   5.703   5.676
 2209SOL    HW1 6916   0.714   5.631   5.701
 2209SOL    HW2 6917   0.589   5.669   5.604
 2210SOL     OW 6918   0.292   5.615   5.762
 2210SOL    HW1 6919   0.331   5.681   5.698
 2210SOL    HW2 6920   0.366   5.572   5.814
 2211SOL     OW 6921   0.538   5.844   5.885
 2211SOL    HW1 6922   0.573   5.800   5.802
 2211SOL    HW2 6923   0.554   5.943   5.880
 2212SOL     OW 6924   0.311   5.655   0.264
 2212SOL    HW1 6925   0.369   5.736   0.264
 2212SOL    HW2 6926   0.364   5.577   0.301
 2213SOL     OW 6927   1.507   5.846   5.730
 2213SOL    HW1 6928   1.451   5.763   5.734
 2213SOL    HW2 6929   1.569   5.848   5.808
 2214SOL     OW 6930   0.820   0.196   5.893
 2214SOL    HW1 6931   0.827   0.110   5.842
 2214SOL    HW2 6932   0.724   0.220   5.904
 2215SOL     OW 6933   1.707   5.700   0.088
 2215SOL    HW1 6934   1.776   5.706   0.016
 2215SOL    HW2 6935   1.707   5.607   0.126
 2216SOL     OW 6936   0.102   5.946   5.538
 2216SOL    HW1 6937   0.021   5.922   5.591
 2216SOL    HW2 6938   0.146   6.025   5.581
 2217SOL     OW 6939   0.083   5.781   5.816
 2217SOL    HW1 6940   0.082   5.830   5.903
 2217SOL    HW2 6941   0.166   5.726   5.809
 2218SOL     OW 6942   1.366   5.615   5.737
 2218SOL    HW1 6943   1.412   5.534   5.700
 2218SOL    HW2 6944   1.277   5.588   5.775
 2219SOL     OW 6945   2.072   0.603   0.136
 2219SOL    HW1 6946   1.983   0.600   0.182
 2219SOL    HW2 6947   2.058   0.624   0.039
 2220SOL     OW 6948   2.048   0.326   1.001
 2220SOL    HW1 6949   2.101   0.287   1.077
 2220SOL    HW2 6950   1.974   0.265   0.977
 2221SOL     OW 6951   1.870   0.396   0.631
 2221SOL    HW1 6952   1.782   0.418   0.672
 2221SOL    HW2 6953   1.858   0.322   0.564
 2222SOL     OW 6954   2.433   1.305   1.196
 2222SOL    HW1 6955   2.345   1.303   1.148
 2222SOL    HW2 6956   2.452   1.398   1.227
 2223SOL     OW 6957   3.435   1.518   0.708
 2223SOL    HW1 6958   3.390   1.491   0.793
 2223SOL    HW2 6959   3.367   1.524   0.635
 2224SOL     OW 6960   2.997   0.708   0.690
 2224SOL    HW1 6961   3.050   0.792   0.677
 2224SOL    HW2 6962   2.945   0.714   0.775
 2225SOL     OW 6963   3.655   0.593   0.233
 2225SOL    HW1 6964   3.599   0.618   0.154
 2225SOL    HW2 6965   3.611   0.518   0.282
 2226SOL     OW 6966   2.595   1.136   1.045
 2226SOL    HW1 6967   2.531   1.174   1.112
 2226SOL    HW2 6968   2.642   1.211   0.999
 2227SOL     OW 6969   2.743   0.757   1.825
 2227SOL    HW1 6970   2.734   0.825   1.898
 2227SOL    HW2 6971   2.764   0.804   1.739
 2228SOL     OW 6972   2.544   0.994   0.649
 2228SOL    HW1 6973   2.616   0.986   0.718
 2228SOL    HW2 6974   2.471   1.053   0.684
 2229SOL     OW 6975   2.573   1.154   1.825
 2229SOL    HW1 6976   2.627   1.231   1.859
 2229SOL    HW2 6977   2.492   1.188   1.778
 2230SOL     OW 6978   2.191   1.416   1.065
 2230SOL    HW1 6979   2.113   1.371   1.021
 2230SOL    HW2 6980   2.240   1.471   0.997
 2231SOL     OW 6981   3.317   1.503   1.365
 2231SOL    HW1 6982   3.376   1.584   1.371
 2231SOL    HW2 6983   3.244   1.510   1.432
 2232SOL     OW 6984   2.309   0.397   1.481
 2232SOL    HW1 6985   2.394   0.346   1.489
 2232SOL    HW2 6986   2.231   0.335   1.493
 2233SOL     OW 6987   3.476   0.456   0.741
 2233SOL    HW1 6988   3.405   0.473   0.672
 2233SOL    HW2 6989   3.486   0.535   0.800
 2234SOL     OW 6990   2.089   1.710   0.481
 2234SOL    HW1 6991   2.105   1.790   0.538
 2234SOL    HW2 6992   2.168   1.696   0.420
 2235SOL     OW 6993   2.999   1.340   1.699
 2235SOL    HW1 6994   3.048   1.335   1.786
 2235SOL    HW2 6995   2.943   1.258   1.688
 2236SOL     OW 6996   2.075   1.439   0.524
 2236SOL    HW1 6997   2.071   1.539   0.529
 2236SOL    HW2 6998   2.024   1.399   0.600
 2237SOL     OW 6999   2.139   1.091   0.901
 2237SOL    HW1 7000   2.138   0.996   0.932
 2237SOL    HW2 7001   2.077   1.145   0.957
 2238SOL     OW 7002   2.450   1.801   1.423
 2238SOL    HW1 7003   2.369   1.776   1.475
 2238SOL    HW2 7004   2.485   1.889   1.454
 2239SOL     OW 7005   2.455   0.965   0.145
 2239SOL    HW1 7006   2.399   1.034   0.099
 2239SOL    HW2 7007   2.505   1.006   0.221
 2240SOL     OW 7008   3.514   0.100   1.509
 2240SOL    HW1 7009   3.437   0.120   1.448
 2240SOL    HW2 7010   3.505   0.154   1.593
 2241SOL     OW 7011   1.989   0.661   0.577
 2241SOL    HW1 7012   1.957   0.568   0.592
 2241SOL    HW2 7013   1.980   0.713   0.662
 2242SOL     OW 7014   3.720   1.751   0.338
 2242SOL    HW1 7015   3.793   1.716   0.397
 2242SOL    HW2 7016   3.730   1.850   0.329
 2243SOL     OW 7017   1.830   1.586   0.120
 2243SOL    HW1 7018   1.835   1.489   0.146
 2243SOL    HW2 7019   1.860   1.643   0.196
 2244SOL     OW 7020   3.559   0.907   0.662
 2244SOL    HW1 7021   3.644   0.859   0.642
 2244SOL    HW2 7022   3.534   0.964   0.583
 2245SOL     OW 7023   3.493   1.095   0.478
 2245SOL    HW1 7024   3.515   1.143   0.393
 2245SOL    HW2 7025   3.508   1.157   0.555
 2246SOL     OW 7026   1.984   0.749   1.576
 2246SOL    HW1 7027   2.079   0.781   1.576
 2246SOL    HW2 7028   1.922   0.827   1.568
 2247SOL     OW 7029   2.476   1.394   0.732
 2247SOL    HW1 7030   2.431   1.305   0.744
 2247SOL    HW2 7031   2.466   1.423   0.637
 2248SOL     OW 7032   3.144   1.230   1.422
 2248SOL    HW1 7033   3.169   1.160   1.355
 2248SOL    HW2 7034   3.208   1.227   1.499
 2249SOL     OW 7035   2.686   0.028   0.536
 2249SOL    HW1 7036   2.728   0.116   0.513
 2249SOL    HW2 7037   2.586   0.037   0.531
 2250SOL     OW 7038   2.052   0.957   1.286
 2250SOL    HW1 7039   2.143   0.918   1.272
 2250SOL    HW2 7040   1.987   0.914   1.222
 2251SOL     OW 7041   3.302   1.035   0.215
 2251SOL    HW1 7042   3.239   0.980   0.270
 2251SOL    HW2 7043   3.393   0.993   0.217
 2252SOL     OW 7044   3.039   1.816   1.625
 2252SOL    HW1 7045   3.046   1.887   1.555
 2252SOL    HW2 7046   3.060   1.727   1.585
 2253SOL     OW 7047   2.213   0.271   1.828
 2253SOL    HW1 7048   2.263   0.350   1.862
 2253SOL    HW2 7049   2.115   0.281   1.848
 2254SOL     OW 7050   3.324   1.424   0.940
 2254SOL    HW1 7051   3.261   1.442   1.015
 2254SOL    HW2 7052   3.318   1.327   0.914
 2255SOL     OW 7053   3.505   1.760   0.581
 2255SOL    HW1 7054   3.489   1.730   0.486
 2255SOL    HW2 7055   3.491   1.682   0.643
 2256SOL     OW 7056   2.456   0.721   0.279
 2256SOL    HW1 7057   2.464   0.809   0.231
 2256SOL    HW2 7058   2.388   0.729   0.352
 2257SOL     OW 7059   3.158   0.376   0.932
 2257SOL    HW1 7060   3.067   0.335   0.930
 2257SOL    HW2 7061   3.218   0.321   0.991
 2258SOL     OW 7062   3.452   1.677   0.318
 2258SOL    HW1 7063   3.551   1.690   0.317
 2258SOL    HW2 7064   3.419   1.663   0.225
 2259SOL     OW 7065   2.667   0.608   1.459
 2259SOL    HW1 7066   2.635   0.585   1.551
 2259SOL    HW2 7067   2.620   0.551   1.392
 2260SOL     OW 7068   3.250   0.469   1.680
 2260SOL    HW1 7069   3.249   0.522   1.765
 2260SOL    HW2 7070   3.321   0.399   1.684
 2261SOL     OW 7071   2.810   0.886   1.588
 2261SOL    HW1 7072   2.871   0.818   1.546
 2261SOL    HW2 7073   2.756   0.930   1.516
 2262SOL     OW 7074   2.847   0.391   1.238
 2262SOL    HW1 7075   2.778   0.442   1.289
 2262SOL    HW2 7076   2.803   0.334   1.169
 2263SOL     OW 7077   2.918   0.689   0.426
 2263SOL    HW1 7078   2.941   0.692   0.523
 2263SOL    HW2 7079   2.830   0.644   0.413
 2264SOL     OW 7080   1.954   0.829   0.789
 2264SOL    HW1 7081   2.040   0.816   0.838
 2264SOL    HW2 7082   1.904   0.905   0.829
 2265SOL     OW 7083   1.988   1.879   1.592
 2265SOL    HW1 7084   1.994   1.852   1.688
 2265SOL    HW2 7085   1.905   1.840   1.551
 2266SOL     OW 7086   2.728   0.345   0.232
 2266SOL    HW1 7087   2.780   0.400   0.167
 2266SOL    HW2 7088   2.710   0.255   0.192
 2267SOL     OW 7089   3.559   0.573   1.825
 2267SOL    HW1 7090   3.526   0.655   1.778
 2267SOL    HW2 7091   3.591   0.507   1.757
 2268SOL     OW 7092   3.227   1.141   0.529
 2268SOL    HW1 7093   3.317   1.121   0.489
 2268SOL    HW2 7094   3.182   1.212   0.475
 2269SOL     OW 7095   2.423   0.237   0.898
 2269SOL    HW1 7096   2.414   0.248   0.997
 2269SOL    HW2 7097   2.421   0.327   0.854
 2270SOL     OW 7098   2.862   1.453   0.467
 2270SOL    HW1 7099   2.825   1.531   0.416
 2270SOL    HW2 7100   2.837   1.461   0.563
 2271SOL     OW 7101   2.218   1.816   0.877
 2271SOL    HW1 7102   2.263   1.727   0.883
 2271SOL    HW2 7103   2.284   1.888   0.896
 2272SOL     OW 7104   3.665   1.049   0.885
 2272SOL    HW1 7105   3.617   1.026   0.800
 2272SOL    HW2 7106   3.599   1.057   0.960
 2273SOL     OW 7107   3.085   1.537   1.515
 2273SOL    HW1 7108   3.074   1.463   1.582
 2273SOL    HW2 7109   3.019   1.525   1.441
 2274SOL     OW 7110   2.164   0.953   0.260
 2274SOL    HW1 7111   2.213   1.000   0.187
 2274SOL    HW2 7112   2.169   0.854   0.245
 2275SOL     OW 7113   3.344   0.754   0.724
 2275SOL    HW1 7114   3.340   0.712   0.814
 2275SOL    HW2 7115   3.426   0.810   0.717
 2276SOL     OW 7116   2.334   1.270   1.730
 2276SOL    HW1 7117   2.309   1.275   1.634
 2276SOL    HW2 7118   2.251   1.265   1.786
 2277SOL     OW 7119   2.964   1.782   0.213
 2277SOL    HW1 7120   2.902   1.735   0.276
 2277SOL    HW2 7121   3.017   1.714   0.161
 2278SOL     OW 7122   2.058   0.274   1.507
 2278SOL    HW1 7123   1.986   0.342   1.493
 2278SOL    HW2 7124   2.050   0.234   1.598
 2279SOL     OW 7125   3.473   1.362   0.055
 2279SOL    HW1 7126   3.469   1.462   0.055
 2279SOL    HW2 7127   3.382   1.325   0.035
 2280SOL     OW 7128   2.328   1.728   0.338
 2280SOL    HW1 7129   2.374   1.792   0.400
 2280SOL    HW2 7130   2.394   1.695   0.270
 2281SOL     OW 7131   3.284   0.153   0.409
 2281SOL    HW1 7132   3.269   0.115   0.318
 2281SOL    HW2 7133   3.380   0.141   0.435
 2282SOL     OW 7134   2.120   1.790   1.220
 2282SOL    HW1 7135   2.170   1.714   1.261
 2282SOL    HW2 7136   2.099   1.769   1.125
 2283SOL     OW 7137   2.802   1.703   0.895
 2283SOL    HW1 7138   2.889   1.660   0.921
 2283SOL    HW2 7139   2.760   1.651   0.821
 2284SOL     OW 7140   2.257   0.687   0.474
 2284SOL    HW1 7141   2.278   0.590   0.486
 2284SOL    HW2 7142   2.161   0.703   0.499
 2285SOL     OW 7143   3.409   0.230   1.736
 2285SOL    HW1 7144   3.401   0.260   1.831
 2285SOL    HW2 7145   3.344   0.156   1.719
 2286SOL     OW 7146   2.464   0.091   0.135
 2286SOL    HW1 7147   2.563   0.077   0.144
 2286SOL    HW2 7148   2.445   0.152   0.058
 2287SOL     OW 7149   2.621   0.285   1.775
 2287SOL    HW1 7150   2.707   0.235   1.775
 2287SOL    HW2 7151   2.558   0.243   1.841
 2288SOL     OW 7152   2.733   1.513   1.194
 2288SOL    HW1 7153   2.715   1.475   1.103
 2288SOL    HW2 7154   2.806   1.460   1.238
 2289SOL     OW 7155   3.193   0.589   1.437
 2289SOL    HW1 7156   3.226   0.555   1.525
 2289SOL    HW2 7157   3.231   0.680   1.420
 2290SOL     OW 7158   2.682   1.381   0.945
 2290SOL    HW1 7159   2.774   1.373   0.905
 2290SOL    HW2 7160   2.615   1.394   0.873
 2291SOL     OW 7161   2.792   0.519   0.892
 2291SOL    HW1 7162   2.763   0.507   0.797
 2291SOL    HW2 7163   2.834   0.435   0.925
 2292SOL     OW 7164   2.412   0.057   0.497
 2292SOL    HW1 7165   2.332   0.045   0.556
 2292SOL    HW2 7166   2.401   0.141   0.444
 2293SOL     OW 7167   3.241   1.221   0.028
 2293SOL    HW1 7168   3.270   1.151   0.093
 2293SOL    HW2 7169   3.162   1.270   0.064
 2294SOL     OW 7170   2.156  -0.003   0.205
 2294SOL    HW1 7171   2.161   0.094   0.182
 2294SOL    HW2 7172   2.246  -0.036   0.234
 2295SOL     OW 7173   2.814   0.258   0.472
 2295SOL    HW1 7174   2.778   0.294   0.385
 2295SOL    HW2 7175   2.913   0.272   0.476
 2296SOL     OW 7176   2.939   0.693   1.450
 2296SOL    HW1 7177   2.862   0.630   1.463
 2296SOL    HW2 7178   3.024   0.641   1.450
 2297SOL     OW 7179   3.073   1.576   0.798
 2297SOL    HW1 7180   3.089   1.642   0.725
 2297SOL    HW2 7181   3.153   1.575   0.859
 2298SOL     OW 7182   2.334   1.156   0.725
 2298SOL    HW1 7183   2.269   1.134   0.798
 2298SOL    HW2 7184   2.290   1.144   0.636
 2299SOL     OW 7185   3.121   1.795   0.610
 2299SOL    HW1 7186   3.176   1.857   0.555
 2299SOL    HW2 7187   3.047   1.845   0.655
 2300SOL     OW 7188   2.862   0.512   0.072
 2300SOL    HW1 7189   2.799   0.560   0.012
 2300SOL    HW2 7190   2.914   0.578   0.126
 2301SOL     OW 7191   1.955   0.552   1.388
 2301SOL    HW1 7192   2.050   0.551   1.355
 2301SOL    HW2 7193   1.945   0.623   1.458
 2302SOL     OW 7194   2.425   0.245   1.185
 2302SOL    HW1 7195   2.457   0.162   1.230
 2302SOL    HW2 7196   2.327   0.255   1.200
 2303SOL     OW 7197   2.726   0.465   0.636
 2303SOL    HW1 7198   2.679   0.523   0.570
 2303SOL    HW2 7199   2.756   0.381   0.592
 2304SOL     OW 7200   2.846   0.041   0.770
 2304SOL    HW1 7201   2.788   0.034   0.688
 2304SOL    HW2 7202   2.848  -0.047   0.816
 2305SOL     OW 7203   3.315   1.161   0.862
 2305SOL    HW1 7204   3.237   1.099   0.846
 2305SOL    HW2 7205   3.365   1.174   0.777
 2306SOL     OW 7206   3.327   0.614   0.966
 2306SOL    HW1 7207   3.266   0.535   0.961
 2306SOL    HW2 7208   3.387   0.605   1.046
 2307SOL     OW 7209   3.725   0.809   0.385
 2307SOL    HW1 7210   3.777   0.769   0.461
 2307SOL    HW2 7211   3.699   0.736   0.322
 2308SOL     OW 7212   2.341   1.412   0.161
 2308SOL    HW1 7213   2.260   1.385   0.213
 2308SOL    HW2 7214   2.362   1.343   0.093
 2309SOL     OW 7215   3.540   1.262   0.681
 2309SOL    HW1 7216   3.640   1.257   0.673
 2309SOL    HW2 7217   3.511   1.357   0.677
 2310SOL     OW 7218   3.271   0.585   0.107
 2310SOL    HW1 7219   3.215   0.571   0.189
 2310SOL    HW2 7220   3.329   0.505   0.093
 2311SOL     OW 7221   2.379   0.267   0.324
 2311SOL    HW1 7222   2.410   0.200   0.257
 2311SOL    HW2 7223   2.356   0.353   0.277
 2312SOL     OW 7224   3.612   1.242   1.549
 2312SOL    HW1 7225   3.701   1.201   1.532
 2312SOL    HW2 7226   3.624   1.335   1.585
 2313SOL     OW 7227   2.911   1.351   1.338
 2313SOL    HW1 7228   2.828   1.319   1.386
 2313SOL    HW2 7229   2.991   1.308   1.379
 2314SOL     OW 7230   3.477   1.633   1.661
 2314SOL    HW1 7231   3.459   1.668   1.569
 2314SOL    HW2 7232   3.561   1.579   1.660
 2315SOL     OW 7233   3.006   1.232   1.106
 2315SOL    HW1 7234   2.944   1.265   1.176
 2315SOL    HW2 7235   2.974   1.261   1.016
 2316SOL     OW 7236   3.480   1.093   1.082
 2316SOL    HW1 7237   3.475   1.160   1.156
 2316SOL    HW2 7238   3.409   1.111   1.014
 2317SOL     OW 7239   2.759   0.103   1.396
 2317SOL    HW1 7240   2.784   0.062   1.308
 2317SOL    HW2 7241   2.840   0.144   1.437
 2318SOL     OW 7242   2.839   1.117   1.722
 2318SOL    HW1 7243   2.745   1.136   1.751
 2318SOL    HW2 7244   2.841   1.033   1.667
 2319SOL     OW 7245   2.580   1.058   0.376
 2319SOL    HW1 7246   2.557   1.041   0.472
 2319SOL    HW2 7247   2.653   0.996   0.347
 2320SOL     OW 7248   2.290   0.822   1.257
 2320SOL    HW1 7249   2.364   0.832   1.324
 2320SOL    HW2 7250   2.251   0.730   1.265
 2321SOL     OW 7251   3.120   0.381   1.278
 2321SOL    HW1 7252   3.149   0.464   1.325
 2321SOL    HW2 7253   3.026   0.393   1.245
 2322SOL     OW 7254   1.939   1.570   1.355
 2322SOL    HW1 7255   1.901   1.638   1.292
 2322SOL    HW2 7256   2.039   1.569   1.347
 2323SOL     OW 7257   2.202   1.122   0.489
 2323SOL    HW1 7258   2.208   1.203   0.431
 2323SOL    HW2 7259   2.199   1.040   0.432
 2324SOL     OW 7260   2.422   0.520   0.852
 2324SOL    HW1 7261   2.427   0.582   0.774
 2324SOL    HW2 7262   2.485   0.551   0.923
 2325SOL     OW 7263   3.115   1.362   0.397
 2325SOL    HW1 7264   3.172   1.435   0.434
 2325SOL    HW2 7265   3.020   1.377   0.424
 2326SOL     OW 7266   3.157   1.465   1.147
 2326SOL    HW1 7267   3.213   1.471   1.230
 2326SOL    HW2 7268   3.106   1.380   1.148
 2327SOL     OW 7269   3.428   0.627   0.489
 2327SOL    HW1 7270   3.380   0.672   0.563
 2327SOL    HW2 7271   3.462   0.695   0.424
 2328SOL     OW 7272   2.210   1.532   1.305
 2328SOL    HW1 7273   2.196   1.485   1.218
 2328SOL    HW2 7274   2.308   1.547   1.319
 2329SOL     OW 7275   2.282   0.749   1.601
 2329SOL    HW1 7276   2.350   0.792   1.542
 2329SOL    HW2 7277   2.311   0.655   1.621
 2330SOL     OW 7278   3.476   0.791   1.689
 2330SOL    HW1 7279   3.385   0.832   1.684
 2330SOL    HW2 7280   3.533   0.828   1.616
 2331SOL     OW 7281   2.852   0.137   1.784
 2331SOL    HW1 7282   2.916   0.211   1.763
 2331SOL    HW2 7283   2.843   0.076   1.705
 2332SOL     OW 7284   2.339   0.042   1.772
 2332SOL    HW1 7285   2.348   0.019   1.675
 2332SOL    HW2 7286   2.292   0.129   1.781
 2333SOL     OW 7287   2.450   0.875   1.036
 2333SOL    HW1 7288   2.488   0.967   1.035
 2333SOL    HW2 7289   2.390   0.864   1.115
 2334SOL     OW 7290   3.200   0.855   1.022
 2334SOL    HW1 7291   3.111   0.845   0.978
 2334SOL    HW2 7292   3.253   0.771   1.009
 2335SOL     OW 7293   3.081   0.516   0.290
 2335SOL    HW1 7294   3.087   0.433   0.345
 2335SOL    HW2 7295   3.028   0.585   0.338
 2336SOL     OW 7296   2.157   0.234   1.241
 2336SOL    HW1 7297   2.118   0.229   1.333
 2336SOL    HW2 7298   2.161   0.142   1.202
 2337SOL     OW 7299   1.916   1.309   1.272
 2337SOL    HW1 7300   1.947   1.247   1.344
 2337SOL    HW2 7301   1.918   1.403   1.305
 2338SOL     OW 7302   2.582   0.629   1.043
 2338SOL    HW1 7303   2.662   0.612   0.986
 2338SOL    HW2 7304   2.549   0.722   1.027
 2339SOL     OW 7305   3.603   0.963   1.863
 2339SOL    HW1 7306   3.562   0.893   1.804
 2339SOL    HW2 7307   3.541   0.984   1.939
 2340SOL     OW 7308   2.168   0.049   0.650
 2340SOL    HW1 7309   2.166   0.145   0.675
 2340SOL    HW2 7310   2.076   0.010   0.657
 2341SOL     OW 7311   3.511   0.398   0.368
 2341SOL    HW1 7312   3.515   0.315   0.423
 2341SOL    HW2 7313   3.474   0.473   0.423
 2342SOL     OW 7314   2.889   0.762   0.955
 2342SOL    HW1 7315   2.879   0.782   1.053
 2342SOL    HW2 7316   2.859   0.668   0.937
 2343SOL     OW 7317   2.842   1.561   1.723
 2343SOL    HW1 7318   2.823   1.609   1.637
 2343SOL    HW2 7319   2.891   1.476   1.703
 2344SOL     OW 7320   3.713   1.500   1.602
 2344SOL    HW1 7321   3.734   1.527   1.508
 2344SOL    HW2 7322   3.796   1.509   1.658
 2345SOL     OW 7323   2.214   0.919   1.805
 2345SOL    HW1 7324   2.293   0.940   1.862
 2345SOL    HW2 7325   2.240   0.854   1.734
 2346SOL     OW 7326   3.394   0.338   0.134
 2346SOL    HW1 7327   3.345   0.251   0.141
 2346SOL    HW2 7328   3.437   0.359   0.222
 2347SOL     OW 7329   3.148   0.807   0.024
 2347SOL    HW1 7330   3.201   0.725   0.046
 2347SOL    HW2 7331   3.209   0.879  -0.006
 2348SOL     OW 7332   2.934   1.341   0.858
 2348SOL    HW1 7333   2.939   1.263   0.796
 2348SOL    HW2 7334   2.989   1.417   0.822
 2349SOL     OW 7335   2.180   0.810   0.944
 2349SOL    HW1 7336   2.276   0.836   0.938
 2349SOL    HW2 7337   2.172   0.717   0.979
 2350SOL     OW 7338   2.211   0.540   1.017
 2350SOL    HW1 7339   2.148   0.464   1.001
 2350SOL    HW2 7340   2.287   0.535   0.952
 2351SOL     OW 7341   2.995   0.368   1.708
 2351SOL    HW1 7342   2.944   0.427   1.770
 2351SOL    HW2 7343   3.087   0.405   1.695
 2352SOL     OW 7344   2.996   0.211   1.486
 2352SOL    HW1 7345   2.990   0.272   1.566
 2352SOL    HW2 7346   3.010   0.266   1.404
 2353SOL     OW 7347   1.957   1.778   0.949
 2353SOL    HW1 7348   1.918   1.699   0.900
 2353SOL    HW2 7349   2.049   1.796   0.915
 2354SOL     OW 7350   2.353   1.575   0.903
 2354SOL    HW1 7351   2.423   1.641   0.930
 2354SOL    HW2 7352   2.392   1.508   0.840
 2355SOL     OW 7353   2.826   0.793   1.220
 2355SOL    HW1 7354   2.887   0.772   1.297
 2355SOL    HW2 7355   2.738   0.749   1.233
 2356SOL     OW 7356   1.893   0.550   1.114
 2356SOL    HW1 7357   1.950   0.485   1.063
 2356SOL    HW2 7358   1.926   0.556   1.208
 2357SOL     OW 7359   2.052   0.532   1.727
 2357SOL    HW1 7360   2.121   0.487   1.670
 2357SOL    HW2 7361   2.015   0.611   1.678
 2358SOL     OW 7362   3.245   0.932   1.650
 2358SOL    HW1 7363   3.269   1.030   1.650
 2358SOL    HW2 7364   3.240   0.899   1.556
 2359SOL     OW 7365   2.676   0.579   0.374
 2359SOL    HW1 7366   2.678   0.493   0.322
 2359SOL    HW2 7367   2.600   0.635   0.341
 2360SOL     OW 7368   3.500   0.604   1.178
 2360SOL    HW1 7369   3.489   0.544   1.257
 2360SOL    HW2 7370   3.591   0.590   1.139
 2361SOL     OW 7371   2.098   1.543   1.723
 2361SOL    HW1 7372   2.078   1.617   1.788
 2361SOL    HW2 7373   2.106   1.456   1.772
 2362SOL     OW 7374   2.561   0.472   1.260
 2362SOL    HW1 7375   2.500   0.394   1.248
 2362SOL    HW2 7376   2.560   0.528   1.177
 2363SOL     OW 7377   2.772   1.682   1.480
 2363SOL    HW1 7378   2.750   1.631   1.397
 2363SOL    HW2 7379   2.777   1.779   1.459
 2364SOL     OW 7380   2.318   0.500   0.196
 2364SOL    HW1 7381   2.383   0.572   0.220
 2364SOL    HW2 7382   2.228   0.540   0.178
 2365SOL     OW 7383   1.999   1.139   1.478
 2365SOL    HW1 7384   2.003   1.100   1.570
 2365SOL    HW2 7385   2.020   1.068   1.411
 2366SOL     OW 7386   3.169   1.041   1.216
 2366SOL    HW1 7387   3.194   0.973   1.148
 2366SOL    HW2 7388   3.109   1.110   1.175
 2367SOL     OW 7389   3.129   0.847   0.311
 2367SOL    HW1 7390   3.058   0.797   0.361
 2367SOL    HW2 7391   3.129   0.818   0.216
 2368SOL     OW 7392   3.651   1.721   1.165
 2368SOL    HW1 7393   3.711   1.754   1.093
 2368SOL    HW2 7394   3.613   1.632   1.139
 2369SOL     OW 7395   3.103   1.734   1.102
 2369SOL    HW1 7396   3.189   1.766   1.061
 2369SOL    HW2 7397   3.112   1.637   1.125
 2370SOL     OW 7398   1.951   1.263   1.008
 2370SOL    HW1 7399   1.933   1.279   1.105
 2370SOL    HW2 7400   1.882   1.201   0.971
 2371SOL     OW 7401   2.547   1.680   1.744
 2371SOL    HW1 7402   2.482   1.755   1.734
 2371SOL    HW2 7403   2.623   1.693   1.680
 2372SOL     OW 7404   2.732   0.053   0.185
 2372SOL    HW1 7405   2.808   0.084   0.128
 2372SOL    HW2 7406   2.767   0.005   0.265
 2373SOL     OW 7407   3.547   0.148   0.480
 2373SOL    HW1 7408   3.636   0.134   0.438
 2373SOL    HW2 7409   3.537   0.086   0.558
 2374SOL     OW 7410   3.261   1.576   0.497
 2374SOL    HW1 7411   3.324   1.607   0.425
 2374SOL    HW2 7412   3.206   1.654   0.528
 2375SOL     OW 7413   2.010   1.785   1.846
 2375SOL    HW1 7414   1.953   1.716   1.890
 2375SOL    HW2 7415   2.059   1.837   1.916
 2376SOL     OW 7416   3.144   0.934   0.675
 2376SOL    HW1 7417   3.220   0.871   0.689
 2376SOL    HW2 7418   3.172   1.008   0.614
 2377SOL     OW 7419   2.655   1.281   1.421
 2377SOL    HW1 7420   2.627   1.327   1.505
 2377SOL    HW2 7421   2.584   1.293   1.351
 2378SOL     OW 7422   2.523   1.611   0.178
 2378SOL    HW1 7423   2.554   1.626   0.084
 2378SOL    HW2 7424   2.461   1.532   0.180
 2379SOL     OW 7425   3.476   1.728   1.389
 2379SOL    HW1 7426   3.537   1.726   1.310
 2379SOL    HW2 7427   3.462   1.823   1.417
 2380SOL     OW 7428   3.714   0.143   0.961
 2380SOL    HW1 7429   3.743   0.065   0.904
 2380SOL    HW2 7430   3.625   0.175   0.931
 2381SOL     OW 7431   2.118   0.310   0.722
 2381SOL    HW1 7432   2.032   0.348   0.686
 2381SOL    HW2 7433   2.117   0.316   0.822
 2382SOL     OW 7434   3.096   1.609   0.047
 2382SOL    HW1 7435   3.068   1.515   0.068
 2382SOL    HW2 7436   3.049   1.641  -0.034
 2383SOL     OW 7437   2.685   1.011   1.382
 2383SOL    HW1 7438   2.735   0.994   1.297
 2383SOL    HW2 7439   2.678   1.110   1.397
 2384SOL     OW 7440   2.777   0.895   0.300
 2384SOL    HW1 7441   2.826   0.916   0.215
 2384SOL    HW2 7442   2.825   0.821   0.348
 2385SOL     OW 7443   3.360   1.664   0.058
 2385SOL    HW1 7444   3.265   1.633   0.047
 2385SOL    HW2 7445   3.402   1.672  -0.032
 2386SOL     OW 7446   2.226   1.305   1.486
 2386SOL    HW1 7447   2.218   1.384   1.426
 2386SOL    HW2 7448   2.146   1.246   1.476
 2387SOL     OW 7449   3.470   1.285   1.285
 2387SOL    HW1 7450   3.534   1.264   1.359
 2387SOL    HW2 7451   3.405   1.354   1.317
 2388SOL     OW 7452   2.927   1.109   0.720
 2388SOL    HW1 7453   2.850   1.057   0.759
 2388SOL    HW2 7454   2.999   1.046   0.692
 2389SOL     OW 7455   2.918   0.244   0.935
 2389SOL    HW1 7456   2.909   0.176   0.863
 2389SOL    HW2 7457   2.837   0.242   0.994
 2390SOL     OW 7458   2.474   1.481   0.477
 2390SOL    HW1 7459   2.529   1.428   0.413
 2390SOL    HW2 7460   2.401   1.528   0.426
 2391SOL     OW 7461   3.587   0.407   1.371
 2391SOL    HW1 7462   3.670   0.462   1.372
 2391SOL    HW2 7463   3.602   0.324   1.316
 2392SOL     OW 7464   2.119   1.317   0.292
 2392SOL    HW1 7465   2.050   1.245   0.285
 2392SOL    HW2 7466   2.102   1.371   0.374
 2393SOL     OW 7467   1.981   1.050   1.740
 2393SOL    HW1 7468   1.898   1.018   1.786
 2393SOL    HW2 7469   2.060   0.997   1.771
 2394SOL     OW 7470   2.540   0.245   1.506
 2394SOL    HW1 7471   2.609   0.187   1.463
 2394SOL    HW2 7472   2.565   0.261   1.602
 2395SOL     OW 7473   1.849   0.402   5.977
 2395SOL    HW1 7474   1.788   0.344   6.031
 2395SOL    HW2 7475   1.926   0.347   5.943
 2396SOL     OW 7476   3.279   0.853   1.390
 2396SOL    HW1 7477   3.222   0.917   1.337
 2396SOL    HW2 7478   3.372   0.855   1.356
 2397SOL     OW 7479   1.926   0.153   0.353
 2397SOL    HW1 7480   1.942   0.235   0.299
 2397SOL    HW2 7481   1.996   0.085   0.332
 2398SOL     OW 7482   3.033   1.358   0.128
 2398SOL    HW1 7483   2.935   1.337   0.119
 2398SOL    HW2 7484   3.060   1.346   0.224
 2399SOL     OW 7485   2.493   0.826   1.437
 2399SOL    HW1 7486   2.549   0.907   1.422
 2399SOL    HW2 7487   2.551   0.746   1.450
 2400SOL     OW 7488   3.348   1.802   0.994
 2400SOL    HW1 7489   3.373   1.870   0.925
 2400SOL    HW2 7490   3.429   1.751   1.021
 2401SOL     OW 7491   2.584   0.556   1.707
 2401SOL    HW1 7492   2.631   0.621   1.767
 2401SOL    HW2 7493   2.597   0.463   1.743
 2402SOL     OW 7494   3.337   1.192   1.632
 2402SOL    HW1 7495   3.324   1.207   1.730
 2402SOL    HW2 7496   3.432   1.213   1.608
 2403SOL     OW 7497   2.227   1.740   1.570
 2403SOL    HW1 7498   2.144   1.794   1.555
 2403SOL    HW2 7499   2.202   1.652   1.609
 2404SOL     OW 7500   3.521   0.876   1.258
 2404SOL    HW1 7501   3.518   0.785   1.216
 2404SOL    HW2 7502   3.509   0.945   1.187
 2405SOL     OW 7503   3.081   0.311   0.474
 2405SOL    HW1 7504   3.156   0.249   0.453
 2405SOL    HW2 7505   3.107   0.371   0.550
 2406SOL     OW 7506   2.443   0.731   0.673
 2406SOL    HW1 7507   2.486   0.821   0.664
 2406SOL    HW2 7508   2.376   0.719   0.601
 2407SOL     OW 7509   3.614   0.381   1.641
 2407SOL    HW1 7510   3.596   0.391   1.543
 2407SOL    HW2 7511   3.545   0.321   1.682
 2408SOL     OW 7512   3.621   0.930   1.508
 2408SOL    HW1 7513   3.605   1.026   1.529
 2408SOL    HW2 7514   3.595   0.912   1.413
 2409SOL     OW 7515   2.761   1.386   0.051
 2409SOL    HW1 7516   2.705   1.368   0.131
 2409SOL    HW2 7517   2.747   1.481   0.021
 2410SOL     OW 7518   2.530   1.777   0.940
 2410SOL    HW1 7519   2.506   1.873   0.921
 2410SOL    HW2 7520   2.628   1.764   0.929
 2411SOL     OW 7521   2.730   0.972   0.856
 2411SOL    HW1 7522   2.784   0.896   0.891
 2411SOL    HW2 7523   2.685   1.019   0.932
 2412SOL     OW 7524   2.927   0.959   0.079
 2412SOL    HW1 7525   2.908   1.026   0.007
 2412SOL    HW2 7526   3.007   0.905   0.055
 2413SOL     OW 7527   3.703   1.557   0.847
 2413SOL    HW1 7528   3.625   1.545   0.785
 2413SOL    HW2 7529   3.709   1.479   0.909
 2414SOL     OW 7530   2.093   1.292   1.852
 2414SOL    HW1 7531   2.039   1.218   1.813
 2414SOL    HW2 7532   2.070   1.303   1.949
 2415SOL     OW 7533   1.952   1.221   0.667
 2415SOL    HW1 7534   1.970   1.180   0.756
 2415SOL    HW2 7535   2.020   1.187   0.601
 2416SOL     OW 7536   2.548   1.414   1.636
 2416SOL    HW1 7537   2.467   1.366   1.669
 2416SOL    HW2 7538   2.549   1.507   1.672
 2417SOL     OW 7539   3.642   0.181   1.227
 2417SOL    HW1 7540   3.660   0.099   1.281
 2417SOL    HW2 7541   3.677   0.168   1.134
 2418SOL     OW 7542   2.289   0.428   0.531
 2418SOL    HW1 7543   2.325   0.362   0.466
 2418SOL    HW2 7544   2.239   0.380   0.604
 2419SOL     OW 7545   3.546   1.483   1.097
 2419SOL    HW1 7546   3.471   1.465   1.033
 2419SOL    HW2 7547   3.549   1.409   1.165
 2420SOL     OW 7548   2.204   0.565   1.291
 2420SOL    HW1 7549   2.256   0.503   1.350
 2420SOL    HW2 7550   2.220   0.540   1.195
 2421SOL     OW 7551   2.691   1.580   0.681
 2421SOL    HW1 7552   2.673   1.642   0.604
 2421SOL    HW2 7553   2.616   1.514   0.688
 2422SOL     OW 7554   3.305   0.247   1.119
 2422SOL    HW1 7555   3.359   0.187   1.178
 2422SOL    HW2 7556   3.235   0.292   1.173
 2423SOL     OW 7557   2.885   0.004   1.163
 2423SOL    HW1 7558   2.830  -0.048   1.097
 2423SOL    HW2 7559   2.960   0.049   1.114
 2424SOL     OW 7560   2.642   1.327   0.315
 2424SOL    HW1 7561   2.612   1.232   0.327
 2424SOL    HW2 7562   2.736   1.336   0.349
 2425SOL     OW 7563   2.485   1.563   1.292
 2425SOL    HW1 7564   2.481   1.651   1.339
 2425SOL    HW2 7565   2.576   1.550   1.252
 2426SOL     OW 7566   3.222   0.103   0.143
 2426SOL    HW1 7567   3.275   0.019   0.130
 2426SOL    HW2 7568   3.125   0.080   0.154
 2427SOL     OW 7569   3.150   0.472   0.678
 2427SOL    HW1 7570   3.098   0.558   0.678
 2427SOL    HW2 7571   3.156   0.437   0.771
 2428SOL     OW 7572   3.468   0.229   0.893
 2428SOL    HW1 7573   3.408   0.238   0.973
 2428SOL    HW2 7574   3.465   0.313   0.839
 2429SOL     OW 7575   1.938   1.093   0.301
 2429SOL    HW1 7576   2.021   1.043   0.276
 2429SOL    HW2 7577   1.885   1.040   0.367
 2430SOL     OW 7578   2.745   1.671   0.345
 2430SOL    HW1 7579   2.664   1.643   0.292
 2430SOL    HW2 7580   2.720   1.747   0.405
 2431SOL     OW 7581   2.072   0.614   1.991
 2431SOL    HW1 7582   1.980   0.612   2.030
 2431SOL    HW2 7583   2.067   0.593   1.893
 2432SOL     OW 7584   2.048   0.327   2.863
 2432SOL    HW1 7585   2.101   0.288   2.938
 2432SOL    HW2 7586   1.973   0.265   2.839
 2433SOL     OW 7587   1.878   0.404   2.486
 2433SOL    HW1 7588   1.786   0.416   2.525
 2433SOL    HW2 7589   1.874   0.339   2.411
 2434SOL     OW 7590   2.432   1.303   3.057
 2434SOL    HW1 7591   2.344   1.302   3.009
 2434SOL    HW2 7592   2.451   1.396   3.089
 2435SOL     OW 7593   3.436   1.518   2.568
 2435SOL    HW1 7594   3.391   1.491   2.653
 2435SOL    HW2 7595   3.368   1.525   2.495
 2436SOL     OW 7596   2.998   0.708   2.552
 2436SOL    HW1 7597   3.050   0.792   2.537
 2436SOL    HW2 7598   2.946   0.715   2.637
 2437SOL     OW 7599   3.642   0.591   2.078
 2437SOL    HW1 7600   3.613   0.593   1.983
 2437SOL    HW2 7601   3.594   0.517   2.126
 2438SOL     OW 7602   2.595   1.136   2.907
 2438SOL    HW1 7603   2.531   1.174   2.974
 2438SOL    HW2 7604   2.641   1.211   2.860
 2439SOL     OW 7605   2.744   0.757   3.688
 2439SOL    HW1 7606   2.735   0.825   3.761
 2439SOL    HW2 7607   2.764   0.804   3.602
 2440SOL     OW 7608   2.544   0.993   2.510
 2440SOL    HW1 7609   2.616   0.987   2.579
 2440SOL    HW2 7610   2.471   1.052   2.544
 2441SOL     OW 7611   2.573   1.151   3.687
 2441SOL    HW1 7612   2.626   1.228   3.721
 2441SOL    HW2 7613   2.491   1.184   3.639
 2442SOL     OW 7614   2.189   1.415   2.929
 2442SOL    HW1 7615   2.111   1.370   2.884
 2442SOL    HW2 7616   2.240   1.467   2.861
 2443SOL     OW 7617   3.318   1.503   3.227
 2443SOL    HW1 7618   3.376   1.584   3.233
 2443SOL    HW2 7619   3.244   1.509   3.295
 2444SOL     OW 7620   2.309   0.397   3.342
 2444SOL    HW1 7621   2.395   0.346   3.351
 2444SOL    HW2 7622   2.232   0.336   3.355
 2445SOL     OW 7623   3.478   0.450   2.600
 2445SOL    HW1 7624   3.406   0.467   2.532
 2445SOL    HW2 7625   3.488   0.530   2.658
 2446SOL     OW 7626   2.086   1.716   2.330
 2446SOL    HW1 7627   2.105   1.793   2.390
 2446SOL    HW2 7628   2.160   1.705   2.264
 2447SOL     OW 7629   2.998   1.342   3.563
 2447SOL    HW1 7630   3.049   1.335   3.649
 2447SOL    HW2 7631   2.942   1.260   3.551
 2448SOL     OW 7632   2.099   1.446   2.397
 2448SOL    HW1 7633   2.081   1.545   2.396
 2448SOL    HW2 7634   2.040   1.403   2.465
 2449SOL     OW 7635   2.139   1.091   2.763
 2449SOL    HW1 7636   2.137   0.996   2.793
 2449SOL    HW2 7637   2.076   1.145   2.818
 2450SOL     OW 7638   2.460   1.779   3.300
 2450SOL    HW1 7639   2.374   1.770   3.350
 2450SOL    HW2 7640   2.495   1.871   3.310
 2451SOL     OW 7641   2.439   0.991   2.010
 2451SOL    HW1 7642   2.487   1.035   1.935
 2451SOL    HW2 7643   2.481   1.018   2.097
 2452SOL     OW 7644   3.513   0.100   3.371
 2452SOL    HW1 7645   3.436   0.121   3.311
 2452SOL    HW2 7646   3.506   0.155   3.454
 2453SOL     OW 7647   1.979   0.669   2.428
 2453SOL    HW1 7648   1.953   0.574   2.447
 2453SOL    HW2 7649   1.975   0.722   2.513
 2454SOL     OW 7650   3.711   1.752   2.191
 2454SOL    HW1 7651   3.784   1.725   2.254
 2454SOL    HW2 7652   3.722   1.848   2.165
 2455SOL     OW 7653   1.895   1.586   1.983
 2455SOL    HW1 7654   1.878   1.489   2.001
 2455SOL    HW2 7655   1.873   1.639   2.065
 2456SOL     OW 7656   3.556   0.923   2.514
 2456SOL    HW1 7657   3.640   0.872   2.498
 2456SOL    HW2 7658   3.533   0.976   2.432
 2457SOL     OW 7659   3.519   1.102   2.297
 2457SOL    HW1 7660   3.608   1.096   2.252
 2457SOL    HW2 7661   3.523   1.171   2.370
 2458SOL     OW 7662   1.983   0.749   3.438
 2458SOL    HW1 7663   2.078   0.781   3.438
 2458SOL    HW2 7664   1.921   0.826   3.428
 2459SOL     OW 7665   2.475   1.392   2.592
 2459SOL    HW1 7666   2.431   1.303   2.603
 2459SOL    HW2 7667   2.462   1.424   2.498
 2460SOL     OW 7668   3.145   1.230   3.284
 2460SOL    HW1 7669   3.170   1.160   3.218
 2460SOL    HW2 7670   3.209   1.227   3.361
 2461SOL     OW 7671   2.687   0.037   2.402
 2461SOL    HW1 7672   2.729   0.121   2.369
 2461SOL    HW2 7673   2.587   0.043   2.391
 2462SOL     OW 7674   2.051   0.957   3.148
 2462SOL    HW1 7675   2.143   0.918   3.135
 2462SOL    HW2 7676   1.987   0.913   3.085
 2463SOL     OW 7677   3.395   1.007   2.068
 2463SOL    HW1 7678   3.322   0.945   2.097
 2463SOL    HW2 7679   3.443   1.042   2.148
 2464SOL     OW 7680   3.045   1.807   3.489
 2464SOL    HW1 7681   3.055   1.879   3.421
 2464SOL    HW2 7682   3.065   1.718   3.447
 2465SOL     OW 7683   2.212   0.272   3.687
 2465SOL    HW1 7684   2.263   0.350   3.723
 2465SOL    HW2 7685   2.115   0.282   3.710
 2466SOL     OW 7686   3.328   1.421   2.801
 2466SOL    HW1 7687   3.264   1.440   2.876
 2466SOL    HW2 7688   3.320   1.325   2.774
 2467SOL     OW 7689   3.507   1.764   2.434
 2467SOL    HW1 7690   3.489   1.731   2.341
 2467SOL    HW2 7691   3.493   1.689   2.499
 2468SOL     OW 7692   2.453   0.716   2.137
 2468SOL    HW1 7693   2.457   0.804   2.089
 2468SOL    HW2 7694   2.384   0.721   2.209
 2469SOL     OW 7695   3.158   0.376   2.793
 2469SOL    HW1 7696   3.067   0.336   2.791
 2469SOL    HW2 7697   3.218   0.322   2.852
 2470SOL     OW 7698   3.445   1.675   2.172
 2470SOL    HW1 7699   3.543   1.697   2.167
 2470SOL    HW2 7700   3.411   1.658   2.079
 2471SOL     OW 7701   2.667   0.609   3.321
 2471SOL    HW1 7702   2.635   0.585   3.413
 2471SOL    HW2 7703   2.620   0.551   3.254
 2472SOL     OW 7704   3.250   0.469   3.542
 2472SOL    HW1 7705   3.250   0.521   3.628
 2472SOL    HW2 7706   3.320   0.398   3.547
 2473SOL     OW 7707   2.811   0.886   3.450
 2473SOL    HW1 7708   2.871   0.817   3.409
 2473SOL    HW2 7709   2.756   0.930   3.378
 2474SOL     OW 7710   2.848   0.391   3.100
 2474SOL    HW1 7711   2.778   0.441   3.151
 2474SOL    HW2 7712   2.804   0.334   3.030
 2475SOL     OW 7713   2.914   0.701   2.285
 2475SOL    HW1 7714   2.938   0.698   2.382
 2475SOL    HW2 7715   2.826   0.655   2.271
 2476SOL     OW 7716   1.952   0.831   2.646
 2476SOL    HW1 7717   2.037   0.817   2.697
 2476SOL    HW2 7718   1.903   0.909   2.685
 2477SOL     OW 7719   1.984   1.864   3.455
 2477SOL    HW1 7720   1.996   1.821   3.545
 2477SOL    HW2 7721   1.926   1.805   3.398
 2478SOL     OW 7722   2.747   0.359   2.066
 2478SOL    HW1 7723   2.797   0.417   2.002
 2478SOL    HW2 7724   2.706   0.282   2.016
 2479SOL     OW 7725   3.558   0.572   3.686
 2479SOL    HW1 7726   3.525   0.654   3.640
 2479SOL    HW2 7727   3.591   0.506   3.619
 2480SOL     OW 7728   3.245   1.144   2.391
 2480SOL    HW1 7729   3.330   1.129   2.340
 2480SOL    HW2 7730   3.189   1.212   2.343
 2481SOL     OW 7731   2.425   0.237   2.760
 2481SOL    HW1 7732   2.414   0.248   2.859
 2481SOL    HW2 7733   2.421   0.326   2.716
 2482SOL     OW 7734   2.854   1.447   2.324
 2482SOL    HW1 7735   2.826   1.527   2.272
 2482SOL    HW2 7736   2.833   1.460   2.421
 2483SOL     OW 7737   2.211   1.801   2.733
 2483SOL    HW1 7738   2.254   1.711   2.739
 2483SOL    HW2 7739   2.280   1.872   2.746
 2484SOL     OW 7740   3.662   1.055   2.740
 2484SOL    HW1 7741   3.613   1.032   2.656
 2484SOL    HW2 7742   3.597   1.060   2.816
 2485SOL     OW 7743   3.085   1.537   3.378
 2485SOL    HW1 7744   3.073   1.462   3.444
 2485SOL    HW2 7745   3.018   1.527   3.304
 2486SOL     OW 7746   2.178   0.961   2.120
 2486SOL    HW1 7747   2.267   0.983   2.079
 2486SOL    HW2 7748   2.143   0.876   2.082
 2487SOL     OW 7749   3.347   0.758   2.585
 2487SOL    HW1 7750   3.343   0.715   2.675
 2487SOL    HW2 7751   3.428   0.817   2.580
 2488SOL     OW 7752   2.334   1.269   3.593
 2488SOL    HW1 7753   2.308   1.276   3.497
 2488SOL    HW2 7754   2.252   1.261   3.650
 2489SOL     OW 7755   2.985   1.774   2.087
 2489SOL    HW1 7756   2.904   1.739   2.132
 2489SOL    HW2 7757   3.015   1.710   2.016
 2490SOL     OW 7758   2.059   0.274   3.370
 2490SOL    HW1 7759   1.984   0.338   3.358
 2490SOL    HW2 7760   2.054   0.233   3.461
 2491SOL     OW 7761   3.486   1.385   1.956
 2491SOL    HW1 7762   3.449   1.476   1.938
 2491SOL    HW2 7763   3.418   1.315   1.934
 2492SOL     OW 7764   2.326   1.736   2.179
 2492SOL    HW1 7765   2.370   1.797   2.245
 2492SOL    HW2 7766   2.395   1.698   2.117
 2493SOL     OW 7767   3.289   0.153   2.280
 2493SOL    HW1 7768   3.260   0.112   2.193
 2493SOL    HW2 7769   3.387   0.138   2.292
 2494SOL     OW 7770   2.123   1.791   3.086
 2494SOL    HW1 7771   2.175   1.714   3.124
 2494SOL    HW2 7772   2.102   1.774   2.990
 2495SOL     OW 7773   2.803   1.695   2.756
 2495SOL    HW1 7774   2.891   1.654   2.778
 2495SOL    HW2 7775   2.760   1.643   2.682
 2496SOL     OW 7776   2.258   0.685   2.336
 2496SOL    HW1 7777   2.275   0.588   2.349
 2496SOL    HW2 7778   2.161   0.704   2.352
 2497SOL     OW 7779   3.409   0.230   3.598
 2497SOL    HW1 7780   3.401   0.261   3.693
 2497SOL    HW2 7781   3.345   0.155   3.583
 2498SOL     OW 7782   2.506   0.122   1.971
 2498SOL    HW1 7783   2.580   0.059   1.995
 2498SOL    HW2 7784   2.449   0.080   1.901
 2499SOL     OW 7785   2.620   0.285   3.637
 2499SOL    HW1 7786   2.707   0.235   3.636
 2499SOL    HW2 7787   2.558   0.243   3.703
 2500SOL     OW 7788   2.735   1.513   3.054
 2500SOL    HW1 7789   2.716   1.475   2.963
 2500SOL    HW2 7790   2.807   1.460   3.098
 2501SOL     OW 7791   3.194   0.589   3.300
 2501SOL    HW1 7792   3.226   0.555   3.388
 2501SOL    HW2 7793   3.231   0.680   3.283
 2502SOL     OW 7794   2.682   1.381   2.806
 2502SOL    HW1 7795   2.773   1.373   2.766
 2502SOL    HW2 7796   2.615   1.393   2.733
 2503SOL     OW 7797   2.792   0.520   2.751
 2503SOL    HW1 7798   2.764   0.507   2.656
 2503SOL    HW2 7799   2.832   0.436   2.787
 2504SOL     OW 7800   2.412   0.059   2.350
 2504SOL    HW1 7801   2.334   0.050   2.412
 2504SOL    HW2 7802   2.400   0.141   2.293
 2505SOL     OW 7803   3.288   1.202   1.903
 2505SOL    HW1 7804   3.322   1.125   1.958
 2505SOL    HW2 7805   3.199   1.231   1.939
 2506SOL     OW 7806   2.160   0.045   2.078
 2506SOL    HW1 7807   2.215   0.118   2.037
 2506SOL    HW2 7808   2.221  -0.029   2.107
 2507SOL     OW 7809   2.816   0.264   2.315
 2507SOL    HW1 7810   2.785   0.298   2.227
 2507SOL    HW2 7811   2.914   0.277   2.324
 2508SOL     OW 7812   2.939   0.693   3.312
 2508SOL    HW1 7813   2.862   0.630   3.326
 2508SOL    HW2 7814   3.024   0.641   3.313
 2509SOL     OW 7815   3.074   1.576   2.660
 2509SOL    HW1 7816   3.089   1.643   2.587
 2509SOL    HW2 7817   3.150   1.581   2.725
 2510SOL     OW 7818   2.332   1.154   2.583
 2510SOL    HW1 7819   2.268   1.132   2.657
 2510SOL    HW2 7820   2.286   1.145   2.495
 2511SOL     OW 7821   3.120   1.787   2.473
 2511SOL    HW1 7822   3.173   1.851   2.418
 2511SOL    HW2 7823   3.042   1.834   2.514
 2512SOL     OW 7824   2.883   0.530   1.898
 2512SOL    HW1 7825   2.839   0.616   1.873
 2512SOL    HW2 7826   2.950   0.546   1.970
 2513SOL     OW 7827   1.955   0.552   3.249
 2513SOL    HW1 7828   2.050   0.551   3.217
 2513SOL    HW2 7829   1.945   0.623   3.319
 2514SOL     OW 7830   2.425   0.245   3.047
 2514SOL    HW1 7831   2.458   0.162   3.092
 2514SOL    HW2 7832   2.327   0.255   3.062
 2515SOL     OW 7833   2.727   0.463   2.494
 2515SOL    HW1 7834   2.680   0.523   2.430
 2515SOL    HW2 7835   2.758   0.381   2.446
 2516SOL     OW 7836   2.848   0.042   2.631
 2516SOL    HW1 7837   2.789   0.038   2.550
 2516SOL    HW2 7838   2.849  -0.047   2.677
 2517SOL     OW 7839   3.312   1.159   2.719
 2517SOL    HW1 7840   3.235   1.096   2.719
 2517SOL    HW2 7841   3.347   1.169   2.626
 2518SOL     OW 7842   3.328   0.615   2.826
 2518SOL    HW1 7843   3.266   0.536   2.821
 2518SOL    HW2 7844   3.387   0.606   2.906
 2519SOL     OW 7845   3.696   0.802   2.242
 2519SOL    HW1 7846   3.757   0.758   2.308
 2519SOL    HW2 7847   3.673   0.737   2.169
 2520SOL     OW 7848   2.348   1.422   2.015
 2520SOL    HW1 7849   2.266   1.395   2.066
 2520SOL    HW2 7850   2.352   1.371   1.929
 2521SOL     OW 7851   3.543   1.267   2.507
 2521SOL    HW1 7852   3.642   1.262   2.517
 2521SOL    HW2 7853   3.512   1.360   2.524
 2522SOL     OW 7854   3.245   0.580   1.931
 2522SOL    HW1 7855   3.181   0.558   2.004
 2522SOL    HW2 7856   3.333   0.535   1.949
 2523SOL     OW 7857   2.385   0.267   2.169
 2523SOL    HW1 7858   2.438   0.215   2.102
 2523SOL    HW2 7859   2.356   0.353   2.129
 2524SOL     OW 7860   3.611   1.243   3.410
 2524SOL    HW1 7861   3.701   1.201   3.394
 2524SOL    HW2 7862   3.624   1.335   3.446
 2525SOL     OW 7863   2.912   1.351   3.199
 2525SOL    HW1 7864   2.829   1.319   3.246
 2525SOL    HW2 7865   2.992   1.308   3.241
 2526SOL     OW 7866   3.476   1.633   3.523
 2526SOL    HW1 7867   3.459   1.669   3.431
 2526SOL    HW2 7868   3.560   1.579   3.522
 2527SOL     OW 7869   3.006   1.230   2.967
 2527SOL    HW1 7870   2.944   1.264   3.038
 2527SOL    HW2 7871   2.973   1.261   2.878
 2528SOL     OW 7872   3.481   1.094   2.942
 2528SOL    HW1 7873   3.476   1.161   3.017
 2528SOL    HW2 7874   3.409   1.113   2.876
 2529SOL     OW 7875   2.759   0.104   3.257
 2529SOL    HW1 7876   2.785   0.062   3.170
 2529SOL    HW2 7877   2.840   0.144   3.299
 2530SOL     OW 7878   2.839   1.117   3.583
 2530SOL    HW1 7879   2.745   1.136   3.612
 2530SOL    HW2 7880   2.841   1.034   3.528
 2531SOL     OW 7881   2.578   1.059   2.239
 2531SOL    HW1 7882   2.560   1.037   2.335
 2531SOL    HW2 7883   2.656   1.006   2.206
 2532SOL     OW 7884   2.290   0.822   3.120
 2532SOL    HW1 7885   2.364   0.833   3.186
 2532SOL    HW2 7886   2.251   0.731   3.127
 2533SOL     OW 7887   3.120   0.381   3.139
 2533SOL    HW1 7888   3.150   0.464   3.188
 2533SOL    HW2 7889   3.026   0.393   3.108
 2534SOL     OW 7890   1.940   1.573   3.219
 2534SOL    HW1 7891   1.900   1.634   3.151
 2534SOL    HW2 7892   2.039   1.570   3.207
 2535SOL     OW 7893   2.190   1.128   2.348
 2535SOL    HW1 7894   2.195   1.210   2.290
 2535SOL    HW2 7895   2.192   1.047   2.290
 2536SOL     OW 7896   2.421   0.520   2.714
 2536SOL    HW1 7897   2.426   0.583   2.636
 2536SOL    HW2 7898   2.485   0.551   2.785
 2537SOL     OW 7899   3.107   1.357   2.256
 2537SOL    HW1 7900   3.169   1.429   2.288
 2537SOL    HW2 7901   3.014   1.378   2.286
 2538SOL     OW 7902   3.161   1.461   3.009
 2538SOL    HW1 7903   3.215   1.467   3.092
 2538SOL    HW2 7904   3.107   1.376   3.010
 2539SOL     OW 7905   3.435   0.626   2.352
 2539SOL    HW1 7906   3.384   0.672   2.424
 2539SOL    HW2 7907   3.485   0.694   2.298
 2540SOL     OW 7908   2.211   1.532   3.168
 2540SOL    HW1 7909   2.195   1.484   3.081
 2540SOL    HW2 7910   2.309   1.545   3.181
 2541SOL     OW 7911   2.281   0.749   3.462
 2541SOL    HW1 7912   2.350   0.792   3.404
 2541SOL    HW2 7913   2.308   0.655   3.482
 2542SOL     OW 7914   3.475   0.790   3.551
 2542SOL    HW1 7915   3.384   0.831   3.546
 2542SOL    HW2 7916   3.533   0.828   3.479
 2543SOL     OW 7917   2.852   0.138   3.646
 2543SOL    HW1 7918   2.916   0.211   3.624
 2543SOL    HW2 7919   2.844   0.076   3.568
 2544SOL     OW 7920   2.339   0.042   3.633
 2544SOL    HW1 7921   2.348   0.019   3.536
 2544SOL    HW2 7922   2.291   0.130   3.642
 2545SOL     OW 7923   2.450   0.875   2.898
 2545SOL    HW1 7924   2.488   0.967   2.897
 2545SOL    HW2 7925   2.389   0.864   2.976
 2546SOL     OW 7926   3.199   0.856   2.881
 2546SOL    HW1 7927   3.107   0.843   2.843
 2546SOL    HW2 7928   3.252   0.772   2.869
 2547SOL     OW 7929   3.053   0.527   2.124
 2547SOL    HW1 7930   3.069   0.445   2.179
 2547SOL    HW2 7931   3.011   0.598   2.180
 2548SOL     OW 7932   2.157   0.234   3.104
 2548SOL    HW1 7933   2.118   0.230   3.196
 2548SOL    HW2 7934   2.161   0.142   3.065
 2549SOL     OW 7935   1.916   1.310   3.134
 2549SOL    HW1 7936   1.947   1.247   3.206
 2549SOL    HW2 7937   1.918   1.404   3.169
 2550SOL     OW 7938   2.583   0.630   2.905
 2550SOL    HW1 7939   2.662   0.612   2.846
 2550SOL    HW2 7940   2.549   0.722   2.889
 2551SOL     OW 7941   3.602   0.964   3.724
 2551SOL    HW1 7942   3.562   0.893   3.667
 2551SOL    HW2 7943   3.541   0.984   3.801
 2552SOL     OW 7944   2.175   0.051   2.511
 2552SOL    HW1 7945   2.170   0.148   2.537
 2552SOL    HW2 7946   2.084   0.011   2.514
 2553SOL     OW 7947   3.484   0.399   2.211
 2553SOL    HW1 7948   3.500   0.319   2.269
 2553SOL    HW2 7949   3.454   0.476   2.267
 2554SOL     OW 7950   2.890   0.763   2.818
 2554SOL    HW1 7951   2.879   0.782   2.915
 2554SOL    HW2 7952   2.860   0.669   2.799
 2555SOL     OW 7953   2.836   1.561   3.582
 2555SOL    HW1 7954   2.824   1.607   3.494
 2555SOL    HW2 7955   2.887   1.476   3.568
 2556SOL     OW 7956   3.713   1.500   3.464
 2556SOL    HW1 7957   3.734   1.527   3.370
 2556SOL    HW2 7958   3.795   1.509   3.521
 2557SOL     OW 7959   2.214   0.923   3.664
 2557SOL    HW1 7960   2.293   0.939   3.724
 2557SOL    HW2 7961   2.240   0.856   3.594
 2558SOL     OW 7962   3.345   0.307   1.986
 2558SOL    HW1 7963   3.285   0.231   2.012
 2558SOL    HW2 7964   3.398   0.337   2.065
 2559SOL     OW 7965   3.149   0.830   1.885
 2559SOL    HW1 7966   3.189   0.739   1.895
 2559SOL    HW2 7967   3.181   0.871   1.799
 2560SOL     OW 7968   2.935   1.342   2.721
 2560SOL    HW1 7969   2.941   1.264   2.660
 2560SOL    HW2 7970   2.990   1.417   2.685
 2561SOL     OW 7971   2.177   0.811   2.805
 2561SOL    HW1 7972   2.273   0.836   2.797
 2561SOL    HW2 7973   2.169   0.718   2.841
 2562SOL     OW 7974   2.211   0.541   2.879
 2562SOL    HW1 7975   2.148   0.465   2.863
 2562SOL    HW2 7976   2.286   0.536   2.814
 2563SOL     OW 7977   2.996   0.368   3.569
 2563SOL    HW1 7978   2.944   0.427   3.632
 2563SOL    HW2 7979   3.088   0.405   3.557
 2564SOL     OW 7980   2.996   0.211   3.348
 2564SOL    HW1 7981   2.990   0.272   3.427
 2564SOL    HW2 7982   3.010   0.265   3.265
 2565SOL     OW 7983   1.863   1.311   2.058
 2565SOL    HW1 7984   1.773   1.332   2.020
 2565SOL    HW2 7985   1.863   1.216   2.091
 2566SOL     OW 7986   1.953   1.779   2.811
 2566SOL    HW1 7987   1.912   1.701   2.764
 2566SOL    HW2 7988   2.046   1.793   2.777
 2567SOL     OW 7989   2.351   1.567   2.765
 2567SOL    HW1 7990   2.421   1.633   2.793
 2567SOL    HW2 7991   2.390   1.501   2.701
 2568SOL     OW 7992   2.826   0.793   3.082
 2568SOL    HW1 7993   2.885   0.772   3.159
 2568SOL    HW2 7994   2.738   0.748   3.094
 2569SOL     OW 7995   1.893   0.549   2.975
 2569SOL    HW1 7996   1.949   0.483   2.925
 2569SOL    HW2 7997   1.926   0.555   3.069
 2570SOL     OW 7998   2.052   0.532   3.590
 2570SOL    HW1 7999   2.119   0.485   3.533
 2570SOL    HW2 8000   2.015   0.611   3.540
 2571SOL     OW 8001   3.245   0.933   3.513
 2571SOL    HW1 8002   3.269   1.030   3.512
 2571SOL    HW2 8003   3.240   0.899   3.418
 2572SOL     OW 8004   2.678   0.578   2.229
 2572SOL    HW1 8005   2.689   0.497   2.171
 2572SOL    HW2 8006   2.599   0.631   2.198
 2573SOL     OW 8007   3.501   0.604   3.039
 2573SOL    HW1 8008   3.489   0.545   3.118
 2573SOL    HW2 8009   3.592   0.591   3.000
 2574SOL     OW 8010   2.099   1.530   3.577
 2574SOL    HW1 8011   2.088   1.600   3.647
 2574SOL    HW2 8012   2.110   1.440   3.620
 2575SOL     OW 8013   2.562   0.472   3.122
 2575SOL    HW1 8014   2.500   0.394   3.110
 2575SOL    HW2 8015   2.560   0.528   3.039
 2576SOL     OW 8016   2.781   1.675   3.338
 2576SOL    HW1 8017   2.750   1.627   3.256
 2576SOL    HW2 8018   2.788   1.773   3.319
 2577SOL     OW 8019   2.315   0.495   2.038
 2577SOL    HW1 8020   2.380   0.566   2.065
 2577SOL    HW2 8021   2.224   0.535   2.028
 2578SOL     OW 8022   1.999   1.140   3.340
 2578SOL    HW1 8023   2.004   1.101   3.432
 2578SOL    HW2 8024   2.020   1.069   3.273
 2579SOL     OW 8025   3.170   1.041   3.078
 2579SOL    HW1 8026   3.194   0.973   3.009
 2579SOL    HW2 8027   3.109   1.109   3.037
 2580SOL     OW 8028   3.181   0.858   2.157
 2580SOL    HW1 8029   3.105   0.828   2.215
 2580SOL    HW2 8030   3.156   0.846   2.061
 2581SOL     OW 8031   3.650   1.721   3.026
 2581SOL    HW1 8032   3.711   1.754   2.955
 2581SOL    HW2 8033   3.613   1.632   3.000
 2582SOL     OW 8034   3.106   1.725   2.961
 2582SOL    HW1 8035   3.191   1.761   2.922
 2582SOL    HW2 8036   3.118   1.629   2.985
 2583SOL     OW 8037   1.949   1.264   2.869
 2583SOL    HW1 8038   1.931   1.279   2.966
 2583SOL    HW2 8039   1.881   1.202   2.831
 2584SOL     OW 8040   2.547   1.669   3.597
 2584SOL    HW1 8041   2.481   1.710   3.534
 2584SOL    HW2 8042   2.639   1.679   3.559
 2585SOL     OW 8043   3.563   0.139   2.319
 2585SOL    HW1 8044   3.661   0.134   2.301
 2585SOL    HW2 8045   3.542   0.092   2.404
 2586SOL     OW 8046   3.261   1.571   2.354
 2586SOL    HW1 8047   3.321   1.603   2.281
 2586SOL    HW2 8048   3.203   1.646   2.386
 2587SOL     OW 8049   2.018   1.770   3.708
 2587SOL    HW1 8050   1.967   1.698   3.755
 2587SOL    HW2 8051   2.092   1.803   3.766
 2588SOL     OW 8052   3.146   0.935   2.528
 2588SOL    HW1 8053   3.221   0.870   2.546
 2588SOL    HW2 8054   3.179   1.009   2.470
 2589SOL     OW 8055   2.657   1.279   3.279
 2589SOL    HW1 8056   2.628   1.323   3.364
 2589SOL    HW2 8057   2.586   1.292   3.209
 2590SOL     OW 8058   2.528   1.625   2.017
 2590SOL    HW1 8059   2.546   1.645   1.921
 2590SOL    HW2 8060   2.470   1.544   2.024
 2591SOL     OW 8061   3.475   1.730   3.251
 2591SOL    HW1 8062   3.536   1.727   3.171
 2591SOL    HW2 8063   3.461   1.825   3.279
 2592SOL     OW 8064   3.715   0.142   2.823
 2592SOL    HW1 8065   3.743   0.063   2.768
 2592SOL    HW2 8066   3.624   0.172   2.794
 2593SOL     OW 8067   2.120   0.312   2.585
 2593SOL    HW1 8068   2.037   0.352   2.547
 2593SOL    HW2 8069   2.117   0.316   2.685
 2594SOL     OW 8070   3.071   1.597   1.896
 2594SOL    HW1 8071   3.062   1.502   1.929
 2594SOL    HW2 8072   3.004   1.614   1.825
 2595SOL     OW 8073   2.685   1.010   3.243
 2595SOL    HW1 8074   2.735   0.991   3.159
 2595SOL    HW2 8075   2.678   1.109   3.257
 2596SOL     OW 8076   2.784   0.912   2.150
 2596SOL    HW1 8077   2.843   0.948   2.078
 2596SOL    HW2 8078   2.832   0.841   2.201
 2597SOL     OW 8079   3.349   1.636   1.907
 2597SOL    HW1 8080   3.251   1.621   1.894
 2597SOL    HW2 8081   3.394   1.641   1.818
 2598SOL     OW 8082   2.225   1.306   3.351
 2598SOL    HW1 8083   2.219   1.384   3.289
 2598SOL    HW2 8084   2.146   1.246   3.338
 2599SOL     OW 8085   3.472   1.286   3.147
 2599SOL    HW1 8086   3.535   1.264   3.221
 2599SOL    HW2 8087   3.407   1.355   3.178
 2600SOL     OW 8088   2.932   1.110   2.586
 2600SOL    HW1 8089   2.853   1.059   2.621
 2600SOL    HW2 8090   3.001   1.045   2.553
 2601SOL     OW 8091   2.919   0.244   2.797
 2601SOL    HW1 8092   2.910   0.176   2.725
 2601SOL    HW2 8093   2.837   0.242   2.856
 2602SOL     OW 8094   2.467   1.487   2.340
 2602SOL    HW1 8095   2.522   1.432   2.277
 2602SOL    HW2 8096   2.391   1.528   2.290
 2603SOL     OW 8097   3.586   0.408   3.232
 2603SOL    HW1 8098   3.669   0.463   3.233
 2603SOL    HW2 8099   3.602   0.325   3.178
 2604SOL     OW 8100   2.115   1.348   2.151
 2604SOL    HW1 8101   2.020   1.339   2.123
 2604SOL    HW2 8102   2.120   1.390   2.242
 2605SOL     OW 8103   1.981   1.053   3.604
 2605SOL    HW1 8104   1.898   1.019   3.649
 2605SOL    HW2 8105   2.059   0.998   3.633
 2606SOL     OW 8106   2.540   0.246   3.368
 2606SOL    HW1 8107   2.609   0.188   3.325
 2606SOL    HW2 8108   2.565   0.261   3.464
 2607SOL     OW 8109   1.952   0.307   1.872
 2607SOL    HW1 8110   1.866   0.289   1.920
 2607SOL    HW2 8111   1.946   0.393   1.823
 2608SOL     OW 8112   3.279   0.854   3.253
 2608SOL    HW1 8113   3.223   0.917   3.199
 2608SOL    HW2 8114   3.373   0.855   3.218
 2609SOL     OW 8115   1.957   0.168   2.228
 2609SOL    HW1 8116   1.920   0.214   2.147
 2609SOL    HW2 8117   2.039   0.117   2.202
 2610SOL     OW 8118   3.043   1.333   1.984
 2610SOL    HW1 8119   2.947   1.304   1.977
 2610SOL    HW2 8120   3.069   1.335   2.081
 2611SOL     OW 8121   2.492   0.826   3.299
 2611SOL    HW1 8122   2.549   0.907   3.283
 2611SOL    HW2 8123   2.551   0.746   3.312
 2612SOL     OW 8124   3.348   1.801   2.855
 2612SOL    HW1 8125   3.368   1.868   2.784
 2612SOL    HW2 8126   3.433   1.755   2.881
 2613SOL     OW 8127   2.585   0.556   3.570
 2613SOL    HW1 8128   2.632   0.621   3.630
 2613SOL    HW2 8129   2.597   0.463   3.605
 2614SOL     OW 8130   3.337   1.192   3.494
 2614SOL    HW1 8131   3.324   1.206   3.592
 2614SOL    HW2 8132   3.432   1.213   3.470
 2615SOL     OW 8133   2.239   1.738   3.447
 2615SOL    HW1 8134   2.162   1.798   3.429
 2615SOL    HW2 8135   2.206   1.648   3.477
 2616SOL     OW 8136   3.521   0.876   3.119
 2616SOL    HW1 8137   3.518   0.785   3.078
 2616SOL    HW2 8138   3.510   0.946   3.048
 2617SOL     OW 8139   3.084   0.323   2.323
 2617SOL    HW1 8140   3.158   0.258   2.307
 2617SOL    HW2 8141   3.108   0.382   2.401
 2618SOL     OW 8142   2.442   0.732   2.536
 2618SOL    HW1 8143   2.486   0.821   2.525
 2618SOL    HW2 8144   2.376   0.718   2.462
 2619SOL     OW 8145   3.614   0.381   3.502
 2619SOL    HW1 8146   3.595   0.391   3.404
 2619SOL    HW2 8147   3.545   0.322   3.543
 2620SOL     OW 8148   3.619   0.930   3.370
 2620SOL    HW1 8149   3.605   1.027   3.391
 2620SOL    HW2 8150   3.594   0.913   3.275
 2621SOL     OW 8151   2.731   1.362   1.914
 2621SOL    HW1 8152   2.690   1.386   2.001
 2621SOL    HW2 8153   2.745   1.444   1.859
 2622SOL     OW 8154   2.530   1.766   2.802
 2622SOL    HW1 8155   2.504   1.860   2.784
 2622SOL    HW2 8156   2.629   1.756   2.793
 2623SOL     OW 8157   2.731   0.974   2.718
 2623SOL    HW1 8158   2.784   0.897   2.752
 2623SOL    HW2 8159   2.685   1.020   2.794
 2624SOL     OW 8160   2.937   0.990   1.945
 2624SOL    HW1 8161   2.909   1.045   1.866
 2624SOL    HW2 8162   3.015   0.933   1.920
 2625SOL     OW 8163   3.700   1.557   2.707
 2625SOL    HW1 8164   3.622   1.546   2.645
 2625SOL    HW2 8165   3.696   1.487   2.779
 2626SOL     OW 8166   2.092   1.286   3.712
 2626SOL    HW1 8167   2.040   1.210   3.674
 2626SOL    HW2 8168   2.074   1.294   3.810
 2627SOL     OW 8169   1.956   1.228   2.523
 2627SOL    HW1 8170   1.968   1.183   2.612
 2627SOL    HW2 8171   2.022   1.189   2.458
 2628SOL     OW 8172   2.549   1.406   3.494
 2628SOL    HW1 8173   2.468   1.360   3.529
 2628SOL    HW2 8174   2.553   1.499   3.531
 2629SOL     OW 8175   3.643   0.182   3.089
 2629SOL    HW1 8176   3.659   0.100   3.144
 2629SOL    HW2 8177   3.678   0.168   2.997
 2630SOL     OW 8178   2.289   0.425   2.388
 2630SOL    HW1 8179   2.326   0.358   2.324
 2630SOL    HW2 8180   2.241   0.378   2.462
 2631SOL     OW 8181   3.551   1.480   2.955
 2631SOL    HW1 8182   3.473   1.464   2.895
 2631SOL    HW2 8183   3.554   1.409   3.025
 2632SOL     OW 8184   2.204   0.565   3.153
 2632SOL    HW1 8185   2.256   0.503   3.211
 2632SOL    HW2 8186   2.219   0.541   3.057
 2633SOL     OW 8187   2.692   1.579   2.538
 2633SOL    HW1 8188   2.675   1.645   2.465
 2633SOL    HW2 8189   2.615   1.515   2.544
 2634SOL     OW 8190   3.305   0.247   2.981
 2634SOL    HW1 8191   3.358   0.186   3.040
 2634SOL    HW2 8192   3.234   0.293   3.034
 2635SOL     OW 8193   2.885   0.004   3.025
 2635SOL    HW1 8194   2.829  -0.048   2.960
 2635SOL    HW2 8195   2.960   0.049   2.976
 2636SOL     OW 8196   2.637   1.331   2.189
 2636SOL    HW1 8197   2.612   1.234   2.198
 2636SOL    HW2 8198   2.723   1.348   2.237
 2637SOL     OW 8199   2.486   1.556   3.153
 2637SOL    HW1 8200   2.482   1.640   3.206
 2637SOL    HW2 8201   2.576   1.547   3.111
 2638SOL     OW 8202   3.210   0.065   2.036
 2638SOL    HW1 8203   3.266  -0.013   2.009
 2638SOL    HW2 8204   3.116   0.034   2.051
 2639SOL     OW 8205   3.152   0.473   2.538
 2639SOL    HW1 8206   3.099   0.558   2.538
 2639SOL    HW2 8207   3.157   0.436   2.631
 2640SOL     OW 8208   3.468   0.226   2.755
 2640SOL    HW1 8209   3.408   0.236   2.835
 2640SOL    HW2 8210   3.466   0.311   2.701
 2641SOL     OW 8211   1.903   1.057   2.172
 2641SOL    HW1 8212   2.001   1.056   2.152
 2641SOL    HW2 8213   1.871   0.964   2.191
 2642SOL     OW 8214   2.747   1.669   2.200
 2642SOL    HW1 8215   2.671   1.648   2.138
 2642SOL    HW2 8216   2.722   1.746   2.259
 2643SOL     OW 8217   2.072   0.616   3.853
 2643SOL    HW1 8218   1.981   0.612   3.893
 2643SOL    HW2 8219   2.067   0.594   3.756
 2644SOL     OW 8220   2.048   0.327   4.726
 2644SOL    HW1 8221   2.100   0.289   4.802
 2644SOL    HW2 8222   1.973   0.265   4.701
 2645SOL     OW 8223   1.878   0.406   4.349
 2645SOL    HW1 8224   1.786   0.418   4.388
 2645SOL    HW2 8225   1.874   0.339   4.274
 2646SOL     OW 8226   2.434   1.305   4.920
 2646SOL    HW1 8227   2.344   1.302   4.875
 2646SOL    HW2 8228   2.452   1.398   4.951
 2647SOL     OW 8229   3.436   1.517   4.431
 2647SOL    HW1 8230   3.392   1.491   4.517
 2647SOL    HW2 8231   3.368   1.523   4.358
 2648SOL     OW 8232   2.998   0.708   4.413
 2648SOL    HW1 8233   3.049   0.793   4.399
 2648SOL    HW2 8234   2.946   0.714   4.499
 2649SOL     OW 8235   3.644   0.590   3.939
 2649SOL    HW1 8236   3.614   0.592   3.844
 2649SOL    HW2 8237   3.596   0.517   3.988
 2650SOL     OW 8238   2.594   1.136   4.768
 2650SOL    HW1 8239   2.531   1.174   4.836
 2650SOL    HW2 8240   2.642   1.211   4.723
 2651SOL     OW 8241   2.740   0.759   5.554
 2651SOL    HW1 8242   2.723   0.820   5.631
 2651SOL    HW2 8243   2.762   0.813   5.472
 2652SOL     OW 8244   2.544   0.994   4.372
 2652SOL    HW1 8245   2.616   0.986   4.441
 2652SOL    HW2 8246   2.471   1.053   4.407
 2653SOL     OW 8247   2.572   1.164   5.545
 2653SOL    HW1 8248   2.624   1.242   5.579
 2653SOL    HW2 8249   2.488   1.197   5.501
 2654SOL     OW 8250   2.190   1.417   4.789
 2654SOL    HW1 8251   2.113   1.371   4.746
 2654SOL    HW2 8252   2.240   1.470   4.721
 2655SOL     OW 8253   3.318   1.505   5.086
 2655SOL    HW1 8254   3.377   1.585   5.093
 2655SOL    HW2 8255   3.246   1.510   5.156
 2656SOL     OW 8256   2.309   0.398   5.203
 2656SOL    HW1 8257   2.394   0.345   5.211
 2656SOL    HW2 8258   2.231   0.337   5.216
 2657SOL     OW 8259   3.478   0.451   4.463
 2657SOL    HW1 8260   3.405   0.468   4.396
 2657SOL    HW2 8261   3.486   0.529   4.524
 2658SOL     OW 8262   2.092   1.710   4.202
 2658SOL    HW1 8263   2.110   1.787   4.263
 2658SOL    HW2 8264   2.168   1.700   4.138
 2659SOL     OW 8265   3.000   1.337   5.422
 2659SOL    HW1 8266   3.055   1.334   5.505
 2659SOL    HW2 8267   2.944   1.255   5.415
 2660SOL     OW 8268   2.097   1.439   4.255
 2660SOL    HW1 8269   2.085   1.538   4.265
 2660SOL    HW2 8270   2.043   1.392   4.325
 2661SOL     OW 8271   2.140   1.090   4.625
 2661SOL    HW1 8272   2.138   0.995   4.656
 2661SOL    HW2 8273   2.077   1.145   4.681
 2662SOL     OW 8274   2.447   1.802   5.144
 2662SOL    HW1 8275   2.366   1.775   5.197
 2662SOL    HW2 8276   2.483   1.889   5.178
 2663SOL     OW 8277   2.437   0.991   3.874
 2663SOL    HW1 8278   2.487   1.033   3.798
 2663SOL    HW2 8279   2.480   1.017   3.960
 2664SOL     OW 8280   3.512   0.096   5.231
 2664SOL    HW1 8281   3.436   0.118   5.169
 2664SOL    HW2 8282   3.502   0.148   5.315
 2665SOL     OW 8283   1.979   0.670   4.290
 2665SOL    HW1 8284   1.953   0.576   4.308
 2665SOL    HW2 8285   1.975   0.723   4.375
 2666SOL     OW 8286   3.710   1.752   4.054
 2666SOL    HW1 8287   3.784   1.725   4.116
 2666SOL    HW2 8288   3.722   1.848   4.028
 2667SOL     OW 8289   1.896   1.586   3.850
 2667SOL    HW1 8290   1.879   1.488   3.862
 2667SOL    HW2 8291   1.872   1.634   3.934
 2668SOL     OW 8292   3.556   0.922   4.376
 2668SOL    HW1 8293   3.642   0.873   4.364
 2668SOL    HW2 8294   3.535   0.975   4.294
 2669SOL     OW 8295   3.519   1.102   4.158
 2669SOL    HW1 8296   3.608   1.095   4.113
 2669SOL    HW2 8297   3.524   1.170   4.231
 2670SOL     OW 8298   1.985   0.746   5.303
 2670SOL    HW1 8299   2.080   0.778   5.302
 2670SOL    HW2 8300   1.923   0.825   5.297
 2671SOL     OW 8301   2.477   1.393   4.455
 2671SOL    HW1 8302   2.432   1.305   4.467
 2671SOL    HW2 8303   2.465   1.425   4.361
 2672SOL     OW 8304   3.145   1.231   5.144
 2672SOL    HW1 8305   3.171   1.160   5.078
 2672SOL    HW2 8306   3.208   1.228   5.222
 2673SOL     OW 8307   2.686   0.036   4.264
 2673SOL    HW1 8308   2.729   0.121   4.231
 2673SOL    HW2 8309   2.587   0.043   4.253
 2674SOL     OW 8310   2.053   0.957   5.007
 2674SOL    HW1 8311   2.144   0.917   4.994
 2674SOL    HW2 8312   1.987   0.909   4.949
 2675SOL     OW 8313   3.395   1.007   3.930
 2675SOL    HW1 8314   3.322   0.946   3.959
 2675SOL    HW2 8315   3.444   1.042   4.010
 2676SOL     OW 8316   3.031   1.813   5.344
 2676SOL    HW1 8317   3.047   1.884   5.276
 2676SOL    HW2 8318   3.059   1.724   5.307
 2677SOL     OW 8319   2.200   0.272   5.538
 2677SOL    HW1 8320   2.257   0.340   5.584
 2677SOL    HW2 8321   2.106   0.281   5.571
 2678SOL     OW 8322   3.326   1.422   4.664
 2678SOL    HW1 8323   3.262   1.441   4.739
 2678SOL    HW2 8324   3.318   1.326   4.637
 2679SOL     OW 8325   3.504   1.765   4.296
 2679SOL    HW1 8326   3.488   1.730   4.204
 2679SOL    HW2 8327   3.493   1.691   4.362
 2680SOL     OW 8328   2.452   0.715   3.999
 2680SOL    HW1 8329   2.457   0.803   3.952
 2680SOL    HW2 8330   2.383   0.720   4.071
 2681SOL     OW 8331   3.159   0.376   4.654
 2681SOL    HW1 8332   3.067   0.335   4.653
 2681SOL    HW2 8333   3.218   0.322   4.713
 2682SOL     OW 8334   3.445   1.675   4.033
 2682SOL    HW1 8335   3.543   1.697   4.030
 2682SOL    HW2 8336   3.412   1.658   3.941
 2683SOL     OW 8337   2.668   0.610   5.181
 2683SOL    HW1 8338   2.636   0.590   5.273
 2683SOL    HW2 8339   2.620   0.552   5.115
 2684SOL     OW 8340   3.252   0.468   5.398
 2684SOL    HW1 8341   3.256   0.524   5.480
 2684SOL    HW2 8342   3.318   0.393   5.404
 2685SOL     OW 8343   2.811   0.888   5.315
 2685SOL    HW1 8344   2.871   0.820   5.274
 2685SOL    HW2 8345   2.757   0.932   5.243
 2686SOL     OW 8346   2.848   0.392   4.960
 2686SOL    HW1 8347   2.781   0.443   5.014
 2686SOL    HW2 8348   2.800   0.336   4.892
 2687SOL     OW 8349   2.914   0.702   4.147
 2687SOL    HW1 8350   2.938   0.699   4.244
 2687SOL    HW2 8351   2.826   0.655   4.133
 2688SOL     OW 8352   1.953   0.834   4.507
 2688SOL    HW1 8353   2.037   0.818   4.558
 2688SOL    HW2 8354   1.904   0.911   4.547
 2689SOL     OW 8355   1.988   1.878   5.316
 2689SOL    HW1 8356   1.998   1.853   5.412
 2689SOL    HW2 8357   1.903   1.840   5.280
 2690SOL     OW 8358   2.746   0.358   3.928
 2690SOL    HW1 8359   2.796   0.417   3.864
 2690SOL    HW2 8360   2.706   0.281   3.879
 2691SOL     OW 8361   3.554   0.560   5.555
 2691SOL    HW1 8362   3.523   0.645   5.513
 2691SOL    HW2 8363   3.587   0.498   5.485
 2692SOL     OW 8364   3.246   1.144   4.253
 2692SOL    HW1 8365   3.332   1.129   4.204
 2692SOL    HW2 8366   3.191   1.211   4.205
 2693SOL     OW 8367   2.424   0.237   4.622
 2693SOL    HW1 8368   2.414   0.246   4.721
 2693SOL    HW2 8369   2.421   0.327   4.579
 2694SOL     OW 8370   2.855   1.445   4.186
 2694SOL    HW1 8371   2.826   1.527   4.136
 2694SOL    HW2 8372   2.837   1.457   4.283
 2695SOL     OW 8373   2.216   1.813   4.604
 2695SOL    HW1 8374   2.261   1.724   4.609
 2695SOL    HW2 8375   2.282   1.885   4.623
 2696SOL     OW 8376   3.661   1.056   4.603
 2696SOL    HW1 8377   3.611   1.032   4.519
 2696SOL    HW2 8378   3.597   1.061   4.679
 2697SOL     OW 8379   3.085   1.536   5.238
 2697SOL    HW1 8380   3.076   1.461   5.304
 2697SOL    HW2 8381   3.019   1.523   5.164
 2698SOL     OW 8382   2.177   0.962   3.981
 2698SOL    HW1 8383   2.266   0.981   3.940
 2698SOL    HW2 8384   2.143   0.875   3.947
 2699SOL     OW 8385   3.347   0.758   4.446
 2699SOL    HW1 8386   3.343   0.714   4.536
 2699SOL    HW2 8387   3.427   0.817   4.442
 2700SOL     OW 8388   2.325   1.273   5.460
 2700SOL    HW1 8389   2.301   1.278   5.363
 2700SOL    HW2 8390   2.242   1.267   5.515
 2701SOL     OW 8391   2.982   1.777   3.946
 2701SOL    HW1 8392   2.902   1.740   3.994
 2701SOL    HW2 8393   3.013   1.712   3.877
 2702SOL     OW 8394   2.060   0.273   5.231
 2702SOL    HW1 8395   1.985   0.338   5.219
 2702SOL    HW2 8396   2.057   0.236   5.324
 2703SOL     OW 8397   3.485   1.385   3.817
 2703SOL    HW1 8398   3.448   1.476   3.799
 2703SOL    HW2 8399   3.417   1.315   3.795
 2704SOL     OW 8400   2.316   1.733   4.041
 2704SOL    HW1 8401   2.361   1.794   4.107
 2704SOL    HW2 8402   2.384   1.695   3.979
 2705SOL     OW 8403   3.289   0.154   4.141
 2705SOL    HW1 8404   3.260   0.112   4.055
 2705SOL    HW2 8405   3.387   0.138   4.154
 2706SOL     OW 8406   2.121   1.790   4.946
 2706SOL    HW1 8407   2.171   1.718   4.995
 2706SOL    HW2 8408   2.110   1.764   4.851
 2707SOL     OW 8409   2.801   1.703   4.619
 2707SOL    HW1 8410   2.885   1.659   4.650
 2707SOL    HW2 8411   2.761   1.650   4.544
 2708SOL     OW 8412   2.256   0.686   4.197
 2708SOL    HW1 8413   2.275   0.589   4.211
 2708SOL    HW2 8414   2.160   0.705   4.215
 2709SOL     OW 8415   3.400   0.223   5.456
 2709SOL    HW1 8416   3.391   0.262   5.548
 2709SOL    HW2 8417   3.341   0.143   5.448
 2710SOL     OW 8418   2.507   0.122   3.832
 2710SOL    HW1 8419   2.580   0.058   3.857
 2710SOL    HW2 8420   2.449   0.080   3.762
 2711SOL     OW 8421   2.621   0.278   5.486
 2711SOL    HW1 8422   2.696   0.212   5.482
 2711SOL    HW2 8423   2.619   0.320   5.577
 2712SOL     OW 8424   2.734   1.514   4.918
 2712SOL    HW1 8425   2.715   1.475   4.828
 2712SOL    HW2 8426   2.806   1.461   4.963
 2713SOL     OW 8427   3.193   0.590   5.159
 2713SOL    HW1 8428   3.226   0.555   5.246
 2713SOL    HW2 8429   3.231   0.682   5.144
 2714SOL     OW 8430   2.683   1.382   4.670
 2714SOL    HW1 8431   2.774   1.373   4.629
 2714SOL    HW2 8432   2.615   1.392   4.597
 2715SOL     OW 8433   2.792   0.521   4.614
 2715SOL    HW1 8434   2.764   0.506   4.519
 2715SOL    HW2 8435   2.831   0.437   4.650
 2716SOL     OW 8436   2.412   0.059   4.211
 2716SOL    HW1 8437   2.335   0.050   4.274
 2716SOL    HW2 8438   2.400   0.141   4.155
 2717SOL     OW 8439   3.288   1.201   3.765
 2717SOL    HW1 8440   3.323   1.125   3.819
 2717SOL    HW2 8441   3.200   1.230   3.801
 2718SOL     OW 8442   2.160   0.045   3.939
 2718SOL    HW1 8443   2.216   0.119   3.901
 2718SOL    HW2 8444   2.220  -0.030   3.968
 2719SOL     OW 8445   2.815   0.263   4.177
 2719SOL    HW1 8446   2.785   0.298   4.089
 2719SOL    HW2 8447   2.914   0.277   4.186
 2720SOL     OW 8448   2.939   0.695   5.174
 2720SOL    HW1 8449   2.863   0.633   5.189
 2720SOL    HW2 8450   3.025   0.644   5.175
 2721SOL     OW 8451   3.077   1.572   4.518
 2721SOL    HW1 8452   3.093   1.641   4.448
 2721SOL    HW2 8453   3.152   1.575   4.585
 2722SOL     OW 8454   2.332   1.156   4.447
 2722SOL    HW1 8455   2.270   1.133   4.521
 2722SOL    HW2 8456   2.286   1.144   4.359
 2723SOL     OW 8457   3.121   1.790   4.336
 2723SOL    HW1 8458   3.175   1.852   4.280
 2723SOL    HW2 8459   3.048   1.841   4.382
 2724SOL     OW 8460   2.883   0.529   3.760
 2724SOL    HW1 8461   2.840   0.616   3.736
 2724SOL    HW2 8462   2.950   0.545   3.833
 2725SOL     OW 8463   1.955   0.553   5.112
 2725SOL    HW1 8464   2.050   0.552   5.079
 2725SOL    HW2 8465   1.945   0.622   5.183
 2726SOL     OW 8466   2.426   0.243   4.910
 2726SOL    HW1 8467   2.458   0.165   4.963
 2726SOL    HW2 8468   2.327   0.254   4.923
 2727SOL     OW 8469   2.728   0.463   4.357
 2727SOL    HW1 8470   2.680   0.523   4.293
 2727SOL    HW2 8471   2.758   0.380   4.309
 2728SOL     OW 8472   2.847   0.042   4.493
 2728SOL    HW1 8473   2.788   0.037   4.413
 2728SOL    HW2 8474   2.848  -0.047   4.539
 2729SOL     OW 8475   3.310   1.159   4.583
 2729SOL    HW1 8476   3.236   1.093   4.586
 2729SOL    HW2 8477   3.343   1.168   4.489
 2730SOL     OW 8478   3.328   0.615   4.687
 2730SOL    HW1 8479   3.266   0.536   4.683
 2730SOL    HW2 8480   3.387   0.606   4.768
 2731SOL     OW 8481   3.695   0.802   4.103
 2731SOL    HW1 8482   3.756   0.759   4.170
 2731SOL    HW2 8483   3.673   0.736   4.031
 2732SOL     OW 8484   2.347   1.426   3.875
 2732SOL    HW1 8485   2.264   1.397   3.923
 2732SOL    HW2 8486   2.359   1.369   3.794
 2733SOL     OW 8487   3.545   1.268   4.367
 2733SOL    HW1 8488   3.644   1.262   4.379
 2733SOL    HW2 8489   3.513   1.361   4.386
 2734SOL     OW 8490   3.245   0.581   3.794
 2734SOL    HW1 8491   3.181   0.558   3.866
 2734SOL    HW2 8492   3.333   0.536   3.812
 2735SOL     OW 8493   2.384   0.266   4.030
 2735SOL    HW1 8494   2.438   0.215   3.964
 2735SOL    HW2 8495   2.355   0.353   3.990
 2736SOL     OW 8496   3.610   1.243   5.270
 2736SOL    HW1 8497   3.700   1.201   5.254
 2736SOL    HW2 8498   3.623   1.334   5.308
 2737SOL     OW 8499   2.911   1.350   5.062
 2737SOL    HW1 8500   2.829   1.319   5.110
 2737SOL    HW2 8501   2.991   1.308   5.103
 2738SOL     OW 8502   3.471   1.631   5.377
 2738SOL    HW1 8503   3.461   1.667   5.284
 2738SOL    HW2 8504   3.556   1.578   5.382
 2739SOL     OW 8505   3.006   1.231   4.829
 2739SOL    HW1 8506   2.945   1.264   4.901
 2739SOL    HW2 8507   2.972   1.261   4.740
 2740SOL     OW 8508   3.482   1.095   4.805
 2740SOL    HW1 8509   3.478   1.161   4.880
 2740SOL    HW2 8510   3.409   1.115   4.740
 2741SOL     OW 8511   2.758   0.103   5.116
 2741SOL    HW1 8512   2.784   0.062   5.029
 2741SOL    HW2 8513   2.839   0.144   5.159
 2742SOL     OW 8514   2.842   1.113   5.459
 2742SOL    HW1 8515   2.748   1.133   5.485
 2742SOL    HW2 8516   2.844   1.031   5.401
 2743SOL     OW 8517   2.578   1.060   4.101
 2743SOL    HW1 8518   2.560   1.038   4.197
 2743SOL    HW2 8519   2.656   1.006   4.068
 2744SOL     OW 8520   2.291   0.821   4.980
 2744SOL    HW1 8521   2.364   0.832   5.047
 2744SOL    HW2 8522   2.252   0.730   4.988
 2745SOL     OW 8523   3.119   0.381   5.002
 2745SOL    HW1 8524   3.149   0.464   5.049
 2745SOL    HW2 8525   3.025   0.393   4.970
 2746SOL     OW 8526   1.940   1.570   5.079
 2746SOL    HW1 8527   1.905   1.641   5.018
 2746SOL    HW2 8528   2.040   1.567   5.073
 2747SOL     OW 8529   2.190   1.126   4.212
 2747SOL    HW1 8530   2.198   1.207   4.155
 2747SOL    HW2 8531   2.190   1.044   4.154
 2748SOL     OW 8532   2.421   0.519   4.575
 2748SOL    HW1 8533   2.427   0.582   4.497
 2748SOL    HW2 8534   2.484   0.550   4.647
 2749SOL     OW 8535   3.108   1.357   4.117
 2749SOL    HW1 8536   3.169   1.428   4.151
 2749SOL    HW2 8537   3.015   1.377   4.148
 2750SOL     OW 8538   3.158   1.465   4.871
 2750SOL    HW1 8539   3.214   1.472   4.953
 2750SOL    HW2 8540   3.106   1.380   4.873
 2751SOL     OW 8541   3.435   0.627   4.213
 2751SOL    HW1 8542   3.384   0.672   4.287
 2751SOL    HW2 8543   3.487   0.696   4.162
 2752SOL     OW 8544   2.210   1.530   5.031
 2752SOL    HW1 8545   2.195   1.484   4.944
 2752SOL    HW2 8546   2.308   1.545   5.044
 2753SOL     OW 8547   2.282   0.744   5.322
 2753SOL    HW1 8548   2.350   0.789   5.264
 2753SOL    HW2 8549   2.313   0.651   5.343
 2754SOL     OW 8550   3.475   0.783   5.416
 2754SOL    HW1 8551   3.385   0.825   5.413
 2754SOL    HW2 8552   3.533   0.821   5.344
 2755SOL     OW 8553   2.851   0.123   5.503
 2755SOL    HW1 8554   2.915   0.200   5.494
 2755SOL    HW2 8555   2.850   0.071   5.417
 2756SOL     OW 8556   2.324   0.045   5.467
 2756SOL    HW1 8557   2.337   0.028   5.369
 2756SOL    HW2 8558   2.280   0.135   5.479
 2757SOL     OW 8559   2.449   0.875   4.759
 2757SOL    HW1 8560   2.488   0.967   4.760
 2757SOL    HW2 8561   2.390   0.863   4.838
 2758SOL     OW 8562   3.198   0.857   4.740
 2758SOL    HW1 8563   3.106   0.841   4.706
 2758SOL    HW2 8564   3.253   0.774   4.730
 2759SOL     OW 8565   3.052   0.528   3.985
 2759SOL    HW1 8566   3.069   0.446   4.041
 2759SOL    HW2 8567   3.010   0.598   4.042
 2760SOL     OW 8568   2.156   0.234   4.964
 2760SOL    HW1 8569   2.119   0.230   5.057
 2760SOL    HW2 8570   2.163   0.142   4.927
 2761SOL     OW 8571   1.919   1.310   4.993
 2761SOL    HW1 8572   1.948   1.247   5.066
 2761SOL    HW2 8573   1.919   1.403   5.029
 2762SOL     OW 8574   2.582   0.629   4.766
 2762SOL    HW1 8575   2.661   0.611   4.709
 2762SOL    HW2 8576   2.549   0.722   4.750
 2763SOL     OW 8577   3.612   0.969   5.568
 2763SOL    HW1 8578   3.568   0.893   5.521
 2763SOL    HW2 8579   3.555   0.998   5.646
 2764SOL     OW 8580   2.176   0.053   4.372
 2764SOL    HW1 8581   2.170   0.149   4.399
 2764SOL    HW2 8582   2.085   0.011   4.377
 2765SOL     OW 8583   3.483   0.400   4.073
 2765SOL    HW1 8584   3.498   0.321   4.132
 2765SOL    HW2 8585   3.454   0.478   4.128
 2766SOL     OW 8586   2.890   0.763   4.681
 2766SOL    HW1 8587   2.878   0.782   4.778
 2766SOL    HW2 8588   2.860   0.670   4.661
 2767SOL     OW 8589   2.838   1.555   5.439
 2767SOL    HW1 8590   2.820   1.605   5.354
 2767SOL    HW2 8591   2.892   1.473   5.419
 2768SOL     OW 8592   3.711   1.500   5.326
 2768SOL    HW1 8593   3.735   1.527   5.233
 2768SOL    HW2 8594   3.792   1.509   5.385
 2769SOL     OW 8595   2.218   0.916   5.523
 2769SOL    HW1 8596   2.301   0.941   5.573
 2769SOL    HW2 8597   2.240   0.848   5.453
 2770SOL     OW 8598   3.345   0.307   3.848
 2770SOL    HW1 8599   3.285   0.231   3.875
 2770SOL    HW2 8600   3.398   0.337   3.927
 2771SOL     OW 8601   3.147   0.829   3.746
 2771SOL    HW1 8602   3.187   0.738   3.757
 2771SOL    HW2 8603   3.180   0.870   3.661
 2772SOL     OW 8604   2.933   1.342   4.581
 2772SOL    HW1 8605   2.940   1.263   4.521
 2772SOL    HW2 8606   2.990   1.416   4.546
 2773SOL     OW 8607   2.177   0.810   4.667
 2773SOL    HW1 8608   2.274   0.836   4.662
 2773SOL    HW2 8609   2.169   0.717   4.702
 2774SOL     OW 8610   2.211   0.541   4.740
 2774SOL    HW1 8611   2.148   0.464   4.725
 2774SOL    HW2 8612   2.286   0.535   4.675
 2775SOL     OW 8613   2.999   0.365   5.428
 2775SOL    HW1 8614   2.949   0.427   5.489
 2775SOL    HW2 8615   3.092   0.400   5.414
 2776SOL     OW 8616   2.994   0.208   5.209
 2776SOL    HW1 8617   2.990   0.268   5.289
 2776SOL    HW2 8618   3.011   0.264   5.127
 2777SOL     OW 8619   1.858   1.312   3.920
 2777SOL    HW1 8620   1.768   1.332   3.882
 2777SOL    HW2 8621   1.860   1.217   3.953
 2778SOL     OW 8622   1.951   1.781   4.666
 2778SOL    HW1 8623   1.915   1.700   4.620
 2778SOL    HW2 8624   2.045   1.797   4.637
 2779SOL     OW 8625   2.352   1.574   4.625
 2779SOL    HW1 8626   2.423   1.639   4.653
 2779SOL    HW2 8627   2.392   1.506   4.563
 2780SOL     OW 8628   2.825   0.794   4.944
 2780SOL    HW1 8629   2.886   0.773   5.021
 2780SOL    HW2 8630   2.737   0.750   4.958
 2781SOL     OW 8631   1.893   0.550   4.838
 2781SOL    HW1 8632   1.949   0.483   4.788
 2781SOL    HW2 8633   1.926   0.556   4.932
 2782SOL     OW 8634   2.051   0.529   5.456
 2782SOL    HW1 8635   2.124   0.486   5.402
 2782SOL    HW2 8636   2.015   0.608   5.406
 2783SOL     OW 8637   3.249   0.933   5.375
 2783SOL    HW1 8638   3.272   1.030   5.374
 2783SOL    HW2 8639   3.243   0.899   5.282
 2784SOL     OW 8640   2.678   0.578   4.091
 2784SOL    HW1 8641   2.690   0.497   4.033
 2784SOL    HW2 8642   2.598   0.630   4.059
 2785SOL     OW 8643   3.500   0.604   4.900
 2785SOL    HW1 8644   3.488   0.546   4.981
 2785SOL    HW2 8645   3.592   0.590   4.863
 2786SOL     OW 8646   2.097   1.543   5.449
 2786SOL    HW1 8647   2.077   1.618   5.512
 2786SOL    HW2 8648   2.102   1.457   5.500
 2787SOL     OW 8649   2.559   0.472   4.984
 2787SOL    HW1 8650   2.499   0.394   4.972
 2787SOL    HW2 8651   2.558   0.528   4.901
 2788SOL     OW 8652   2.770   1.680   5.201
 2788SOL    HW1 8653   2.748   1.632   5.117
 2788SOL    HW2 8654   2.777   1.779   5.183
 2789SOL     OW 8655   2.314   0.495   3.898
 2789SOL    HW1 8656   2.380   0.565   3.926
 2789SOL    HW2 8657   2.223   0.535   3.889
 2790SOL     OW 8658   1.999   1.139   5.198
 2790SOL    HW1 8659   2.004   1.101   5.290
 2790SOL    HW2 8660   2.020   1.068   5.131
 2791SOL     OW 8661   3.171   1.041   4.938
 2791SOL    HW1 8662   3.195   0.973   4.869
 2791SOL    HW2 8663   3.109   1.109   4.899
 2792SOL     OW 8664   3.181   0.860   4.019
 2792SOL    HW1 8665   3.106   0.828   4.078
 2792SOL    HW2 8666   3.155   0.846   3.923
 2793SOL     OW 8667   3.646   1.722   4.885
 2793SOL    HW1 8668   3.709   1.755   4.814
 2793SOL    HW2 8669   3.613   1.631   4.860
 2794SOL     OW 8670   3.102   1.732   4.820
 2794SOL    HW1 8671   3.189   1.765   4.782
 2794SOL    HW2 8672   3.112   1.636   4.847
 2795SOL     OW 8673   1.951   1.265   4.730
 2795SOL    HW1 8674   1.935   1.280   4.827
 2795SOL    HW2 8675   1.882   1.203   4.693
 2796SOL     OW 8676   2.545   1.680   5.470
 2796SOL    HW1 8677   2.480   1.755   5.460
 2796SOL    HW2 8678   2.622   1.694   5.408
 2797SOL     OW 8679   3.563   0.138   4.180
 2797SOL    HW1 8680   3.661   0.133   4.163
 2797SOL    HW2 8681   3.541   0.092   4.266
 2798SOL     OW 8682   3.260   1.571   4.215
 2798SOL    HW1 8683   3.322   1.603   4.143
 2798SOL    HW2 8684   3.204   1.646   4.248
 2799SOL     OW 8685   2.018   1.787   5.569
 2799SOL    HW1 8686   1.957   1.723   5.616
 2799SOL    HW2 8687   2.074   1.835   5.636
 2800SOL     OW 8688   3.146   0.934   4.390
 2800SOL    HW1 8689   3.220   0.870   4.408
 2800SOL    HW2 8690   3.179   1.009   4.333
 2801SOL     OW 8691   2.655   1.282   5.145
 2801SOL    HW1 8692   2.626   1.327   5.229
 2801SOL    HW2 8693   2.583   1.291   5.075
 2802SOL     OW 8694   2.520   1.635   3.873
 2802SOL    HW1 8695   2.540   1.652   3.777
 2802SOL    HW2 8696   2.467   1.551   3.882
 2803SOL     OW 8697   3.476   1.731   5.110
 2803SOL    HW1 8698   3.537   1.729   5.030
 2803SOL    HW2 8699   3.462   1.825   5.139
 2804SOL     OW 8700   3.715   0.142   4.686
 2804SOL    HW1 8701   3.742   0.062   4.632
 2804SOL    HW2 8702   3.624   0.172   4.656
 2805SOL     OW 8703   2.120   0.313   4.447
 2805SOL    HW1 8704   2.037   0.353   4.410
 2805SOL    HW2 8705   2.118   0.316   4.547
 2806SOL     OW 8706   3.070   1.597   3.759
 2806SOL    HW1 8707   3.061   1.503   3.791
 2806SOL    HW2 8708   3.006   1.614   3.685
 2807SOL     OW 8709   2.685   1.012   5.107
 2807SOL    HW1 8710   2.737   0.993   5.023
 2807SOL    HW2 8711   2.679   1.110   5.121
 2808SOL     OW 8712   2.783   0.912   4.010
 2808SOL    HW1 8713   2.844   0.948   3.940
 2808SOL    HW2 8714   2.831   0.841   4.062
 2809SOL     OW 8715   3.348   1.638   3.769
 2809SOL    HW1 8716   3.250   1.621   3.756
 2809SOL    HW2 8717   3.393   1.642   3.680
 2810SOL     OW 8718   2.224   1.304   5.213
 2810SOL    HW1 8719   2.217   1.384   5.153
 2810SOL    HW2 8720   2.145   1.246   5.200
 2811SOL     OW 8721   3.473   1.286   5.011
 2811SOL    HW1 8722   3.533   1.263   5.087
 2811SOL    HW2 8723   3.407   1.356   5.041
 2812SOL     OW 8724   2.931   1.109   4.445
 2812SOL    HW1 8725   2.853   1.059   4.482
 2812SOL    HW2 8726   3.002   1.044   4.415
 2813SOL     OW 8727   2.919   0.244   4.659
 2813SOL    HW1 8728   2.909   0.175   4.587
 2813SOL    HW2 8729   2.839   0.242   4.719
 2814SOL     OW 8730   2.468   1.485   4.200
 2814SOL    HW1 8731   2.525   1.430   4.139
 2814SOL    HW2 8732   2.389   1.520   4.150
 2815SOL     OW 8733   3.587   0.409   5.095
 2815SOL    HW1 8734   3.670   0.464   5.097
 2815SOL    HW2 8735   3.603   0.326   5.040
 2816SOL     OW 8736   2.112   1.350   4.006
 2816SOL    HW1 8737   2.017   1.338   3.980
 2816SOL    HW2 8738   2.118   1.387   4.099
 2817SOL     OW 8739   1.989   1.051   5.458
 2817SOL    HW1 8740   1.905   1.020   5.502
 2817SOL    HW2 8741   2.066   0.995   5.490
 2818SOL     OW 8742   2.536   0.240   5.226
 2818SOL    HW1 8743   2.607   0.184   5.183
 2818SOL    HW2 8744   2.558   0.254   5.322
 2819SOL     OW 8745   1.952   0.307   3.737
 2819SOL    HW1 8746   1.865   0.288   3.783
 2819SOL    HW2 8747   1.944   0.394   3.687
 2820SOL     OW 8748   3.279   0.854   5.115
 2820SOL    HW1 8749   3.224   0.918   5.061
 2820SOL    HW2 8750   3.374   0.856   5.081
 2821SOL     OW 8751   1.957   0.167   4.088
 2821SOL    HW1 8752   1.922   0.216   4.008
 2821SOL    HW2 8753   2.039   0.116   4.063
 2822SOL     OW 8754   3.045   1.333   3.847
 2822SOL    HW1 8755   2.952   1.296   3.841
 2822SOL    HW2 8756   3.072   1.337   3.943
 2823SOL     OW 8757   2.492   0.827   5.160
 2823SOL    HW1 8758   2.549   0.908   5.146
 2823SOL    HW2 8759   2.551   0.747   5.173
 2824SOL     OW 8760   3.349   1.801   4.718
 2824SOL    HW1 8761   3.375   1.870   4.650
 2824SOL    HW2 8762   3.432   1.756   4.752
 2825SOL     OW 8763   2.582   0.565   5.429
 2825SOL    HW1 8764   2.631   0.628   5.489
 2825SOL    HW2 8765   2.593   0.472   5.462
 2826SOL     OW 8766   3.337   1.194   5.353
 2826SOL    HW1 8767   3.323   1.211   5.451
 2826SOL    HW2 8768   3.432   1.214   5.329
 2827SOL     OW 8769   2.224   1.737   5.290
 2827SOL    HW1 8770   2.141   1.792   5.279
 2827SOL    HW2 8771   2.200   1.650   5.333
 2828SOL     OW 8772   3.521   0.876   4.981
 2828SOL    HW1 8773   3.519   0.786   4.939
 2828SOL    HW2 8774   3.511   0.946   4.910
 2829SOL     OW 8775   3.084   0.324   4.184
 2829SOL    HW1 8776   3.159   0.259   4.168
 2829SOL    HW2 8777   3.107   0.382   4.262
 2830SOL     OW 8778   2.443   0.731   4.396
 2830SOL    HW1 8779   2.486   0.821   4.386
 2830SOL    HW2 8780   2.376   0.719   4.323
 2831SOL     OW 8781   3.606   0.375   5.365
 2831SOL    HW1 8782   3.593   0.388   5.266
 2831SOL    HW2 8783   3.534   0.316   5.400
 2832SOL     OW 8784   3.616   0.927   5.234
 2832SOL    HW1 8785   3.603   1.024   5.257
 2832SOL    HW2 8786   3.592   0.912   5.138
 2833SOL     OW 8787   2.725   1.361   3.774
 2833SOL    HW1 8788   2.690   1.384   3.865
 2833SOL    HW2 8789   2.743   1.445   3.723
 2834SOL     OW 8790   2.529   1.775   4.661
 2834SOL    HW1 8791   2.506   1.871   4.646
 2834SOL    HW2 8792   2.628   1.763   4.652
 2835SOL     OW 8793   2.731   0.974   4.579
 2835SOL    HW1 8794   2.785   0.897   4.614
 2835SOL    HW2 8795   2.685   1.020   4.655
 2836SOL     OW 8796   2.938   0.992   3.806
 2836SOL    HW1 8797   2.910   1.045   3.726
 2836SOL    HW2 8798   3.015   0.934   3.782
 2837SOL     OW 8799   3.701   1.556   4.569
 2837SOL    HW1 8800   3.622   1.544   4.510
 2837SOL    HW2 8801   3.699   1.487   4.642
 2838SOL     OW 8802   2.075   1.289   5.573
 2838SOL    HW1 8803   2.042   1.208   5.525
 2838SOL    HW2 8804   2.011   1.312   5.647
 2839SOL     OW 8805   1.960   1.227   4.387
 2839SOL    HW1 8806   1.966   1.184   4.477
 2839SOL    HW2 8807   2.025   1.183   4.325
 2840SOL     OW 8808   2.541   1.416   5.357
 2840SOL    HW1 8809   2.460   1.369   5.392
 2840SOL    HW2 8810   2.545   1.508   5.395
 2841SOL     OW 8811   3.640   0.183   4.951
 2841SOL    HW1 8812   3.659   0.103   5.008
 2841SOL    HW2 8813   3.677   0.169   4.859
 2842SOL     OW 8814   2.288   0.426   4.249
 2842SOL    HW1 8815   2.326   0.358   4.186
 2842SOL    HW2 8816   2.241   0.380   4.324
 2843SOL     OW 8817   3.552   1.478   4.817
 2843SOL    HW1 8818   3.473   1.462   4.758
 2843SOL    HW2 8819   3.556   1.408   4.888
 2844SOL     OW 8820   2.204   0.565   5.014
 2844SOL    HW1 8821   2.256   0.503   5.073
 2844SOL    HW2 8822   2.220   0.540   4.919
 2845SOL     OW 8823   2.692   1.578   4.403
 2845SOL    HW1 8824   2.670   1.639   4.327
 2845SOL    HW2 8825   2.617   1.513   4.415
 2846SOL     OW 8826   3.305   0.247   4.842
 2846SOL    HW1 8827   3.360   0.189   4.902
 2846SOL    HW2 8828   3.234   0.293   4.896
 2847SOL     OW 8829   2.884   0.004   4.884
 2847SOL    HW1 8830   2.831  -0.049   4.818
 2847SOL    HW2 8831   2.960   0.049   4.837
 2848SOL     OW 8832   2.639   1.331   4.049
 2848SOL    HW1 8833   2.614   1.234   4.060
 2848SOL    HW2 8834   2.724   1.349   4.099
 2849SOL     OW 8835   2.484   1.563   5.013
 2849SOL    HW1 8836   2.479   1.651   5.061
 2849SOL    HW2 8837   2.576   1.551   4.976
 2850SOL     OW 8838   3.210   0.064   3.898
 2850SOL    HW1 8839   3.267  -0.013   3.871
 2850SOL    HW2 8840   3.117   0.032   3.916
 2851SOL     OW 8841   3.152   0.473   4.400
 2851SOL    HW1 8842   3.098   0.558   4.400
 2851SOL    HW2 8843   3.157   0.436   4.492
 2852SOL     OW 8844   3.467   0.226   4.617
 2852SOL    HW1 8845   3.408   0.235   4.697
 2852SOL    HW2 8846   3.466   0.310   4.564
 2853SOL     OW 8847   1.904   1.056   4.031
 2853SOL    HW1 8848   2.002   1.054   4.012
 2853SOL    HW2 8849   1.872   0.964   4.051
 2854SOL     OW 8850   2.746   1.668   4.062
 2854SOL    HW1 8851   2.670   1.650   4.000
 2854SOL    HW2 8852   2.722   1.744   4.122
 2855SOL     OW 8853   2.072   0.611   5.721
 2855SOL    HW1 8854   1.979   0.624   5.755
 2855SOL    HW2 8855   2.068   0.591   5.623
 2856SOL     OW 8856   3.659   0.604   5.805
 2856SOL    HW1 8857   3.613   0.583   5.719
 2856SOL    HW2 8858   3.658   0.523   5.863
 2857SOL     OW 8859   2.104   1.740   0.047
 2857SOL    HW1 8860   2.106   1.813   0.115
 2857SOL    HW2 8861   2.193   1.735   0.001
 2858SOL     OW 8862   2.470   0.976   5.720
 2858SOL    HW1 8863   2.492   1.044   5.650
 2858SOL    HW2 8864   2.552   0.955   5.773
 2859SOL     OW 8865   3.665   1.754   5.912
 2859SOL    HW1 8866   3.686   1.692   5.987
 2859SOL    HW2 8867   3.737   1.823   5.904
 2860SOL     OW 8868   1.890   1.597   5.704
 2860SOL    HW1 8869   1.880   1.500   5.728
 2860SOL    HW2 8870   1.848   1.653   5.776
 2861SOL     OW 8871   3.538   0.901   0.189
 2861SOL    HW1 8872   3.621   0.892   0.244
 2861SOL    HW2 8873   3.557   0.959   0.109
 2862SOL     OW 8874   3.550   1.099   5.985
 2862SOL    HW1 8875   3.644   1.100   5.953
 2862SOL    HW2 8876   3.522   1.191   6.013
 2863SOL     OW 8877   3.415   1.013   5.763
 2863SOL    HW1 8878   3.368   0.925   5.774
 2863SOL    HW2 8879   3.456   1.040   5.850
 2864SOL     OW 8880   2.439   0.728   5.860
 2864SOL    HW1 8881   2.447   0.802   5.793
 2864SOL    HW2 8882   2.413   0.766   5.949
 2865SOL     OW 8883   2.690   0.400   5.717
 2865SOL    HW1 8884   2.777   0.436   5.682
 2865SOL    HW2 8885   2.709   0.329   5.785
 2866SOL     OW 8886   2.206   0.965   5.827
 2866SOL    HW1 8887   2.297   0.971   5.785
 2866SOL    HW2 8888   2.159   0.884   5.792
 2867SOL     OW 8889   2.980   1.745   5.827
 2867SOL    HW1 8890   2.887   1.715   5.850
 2867SOL    HW2 8891   3.009   1.701   5.742
 2868SOL     OW 8892   3.493   1.392   5.678
 2868SOL    HW1 8893   3.456   1.484   5.666
 2868SOL    HW2 8894   3.422   1.325   5.657
 2869SOL     OW 8895   2.351   1.768   5.917
 2869SOL    HW1 8896   2.401   1.827   5.980
 2869SOL    HW2 8897   2.415   1.724   5.854
 2870SOL     OW 8898   2.466   0.074   5.693
 2870SOL    HW1 8899   2.561   0.043   5.694
 2870SOL    HW2 8900   2.429   0.068   5.601
 2871SOL     OW 8901   3.290   1.211   5.623
 2871SOL    HW1 8902   3.332   1.136   5.673
 2871SOL    HW2 8903   3.202   1.234   5.665
 2872SOL     OW 8904   2.185   0.027   5.771
 2872SOL    HW1 8905   2.259   0.067   5.716
 2872SOL    HW2 8906   2.222  -0.048   5.826
 2873SOL     OW 8907   2.897   0.538   5.610
 2873SOL    HW1 8908   2.850   0.624   5.592
 2873SOL    HW2 8909   2.962   0.550   5.685
 2874SOL     OW 8910   3.741   0.822   5.941
 2874SOL    HW1 8911   3.805   0.782   6.007
 2874SOL    HW2 8912   3.699   0.749   5.887
 2875SOL     OW 8913   2.348   1.419   5.748
 2875SOL    HW1 8914   2.271   1.397   5.808
 2875SOL    HW2 8915   2.339   1.367   5.662
 2876SOL     OW 8916   3.578   1.260   0.284
 2876SOL    HW1 8917   3.668   1.221   0.263
 2876SOL    HW2 8918   3.541   1.306   0.203
 2877SOL     OW 8919   3.262   0.589   5.643
 2877SOL    HW1 8920   3.194   0.562   5.711
 2877SOL    HW2 8921   3.348   0.541   5.662
 2878SOL     OW 8922   2.416   0.245   5.900
 2878SOL    HW1 8923   2.417   0.194   5.815
 2878SOL    HW2 8924   2.370   0.333   5.886
 2879SOL     OW 8925   2.249   1.125   0.044
 2879SOL    HW1 8926   2.199   1.210   0.028
 2879SOL    HW2 8927   2.232   1.061  -0.031
 2880SOL     OW 8928   3.067   0.538   5.825
 2880SOL    HW1 8929   3.085   0.457   5.881
 2880SOL    HW2 8930   3.055   0.618   5.885
 2881SOL     OW 8931   3.355   0.312   5.703
 2881SOL    HW1 8932   3.286   0.242   5.721
 2881SOL    HW2 8933   3.440   0.287   5.751
 2882SOL     OW 8934   3.169   0.847   5.623
 2882SOL    HW1 8935   3.203   0.753   5.632
 2882SOL    HW2 8936   3.193   0.883   5.533
 2883SOL     OW 8937   1.881   1.321   5.769
 2883SOL    HW1 8938   1.788   1.340   5.741
 2883SOL    HW2 8939   1.888   1.227   5.804
 2884SOL     OW 8940   2.684   0.613   5.888
 2884SOL    HW1 8941   2.682   0.535   5.826
 2884SOL    HW2 8942   2.594   0.658   5.888
 2885SOL     OW 8943   2.308   0.486   5.784
 2885SOL    HW1 8944   2.371   0.559   5.809
 2885SOL    HW2 8945   2.217   0.523   5.768
 2886SOL     OW 8946   3.607   0.130   0.058
 2886SOL    HW1 8947   3.678   0.061   0.069
 2886SOL    HW2 8948   3.547   0.129   0.138
 2887SOL     OW 8949   2.529   1.619   5.744
 2887SOL    HW1 8950   2.540   1.643   5.647
 2887SOL    HW2 8951   2.463   1.545   5.753
 2888SOL     OW 8952   3.058   1.597   5.615
 2888SOL    HW1 8953   3.053   1.503   5.648
 2888SOL    HW2 8954   2.991   1.610   5.542
 2889SOL     OW 8955   2.722   0.906   5.804
 2889SOL    HW1 8956   2.808   0.947   5.773
 2889SOL    HW2 8957   2.741   0.840   5.877
 2890SOL     OW 8958   3.335   1.640   5.619
 2890SOL    HW1 8959   3.238   1.623   5.603
 2890SOL    HW2 8960   3.383   1.641   5.531
 2891SOL     OW 8961   2.893   1.161   0.297
 2891SOL    HW1 8962   2.852   1.105   0.369
 2891SOL    HW2 8963   2.943   1.102   0.233
 2892SOL     OW 8964   2.125   1.367   5.920
 2892SOL    HW1 8965   2.036   1.357   5.875
 2892SOL    HW2 8966   2.123   1.447   5.979
 2893SOL     OW 8967   1.938   0.316   5.595
 2893SOL    HW1 8968   1.844   0.321   5.628
 2893SOL    HW2 8969   1.960   0.400   5.546
 2894SOL     OW 8970   2.011   0.206   5.870
 2894SOL    HW1 8971   1.935   0.213   5.806
 2894SOL    HW2 8972   2.077   0.139   5.836
 2895SOL     OW 8973   3.036   1.337   5.711
 2895SOL    HW1 8974   2.940   1.308   5.700
 2895SOL    HW2 8975   3.064   1.323   5.806
 2896SOL     OW 8976   3.116   0.341   0.022
 2896SOL    HW1 8977   3.174   0.265   0.051
 2896SOL    HW2 8978   3.118   0.412   0.092
 2897SOL     OW 8979   2.726   1.378   5.630
 2897SOL    HW1 8980   2.687   1.426   5.708
 2897SOL    HW2 8981   2.751   1.445   5.559
 2898SOL     OW 8982   2.950   0.998   5.690
 2898SOL    HW1 8983   2.923   1.044   5.606
 2898SOL    HW2 8984   3.031   0.942   5.673
 2899SOL     OW 8985   3.209   0.080   5.720
 2899SOL    HW1 8986   3.266  -0.002   5.721
 2899SOL    HW2 8987   3.134   0.069   5.785
 2900SOL     OW 8988   1.938   1.071   5.871
 2900SOL    HW1 8989   2.036   1.076   5.852
 2900SOL    HW2 8990   1.911   0.976   5.888
 2901SOL     OW 8991   2.727   1.658   5.929
 2901SOL    HW1 8992   2.657   1.649   5.858
 2901SOL    HW2 8993   2.717   1.746   5.975
 2902SOL     OW 8994   2.072   2.477   0.134
 2902SOL    HW1 8995   1.987   2.462   0.184
 2902SOL    HW2 8996   2.051   2.519   0.045
 2903SOL     OW 8997   2.084   2.145   0.995
 2903SOL    HW1 8998   2.116   2.111   1.083
 2903SOL    HW2 8999   1.991   2.111   0.978
 2904SOL     OW 9000   1.865   2.260   0.634
 2904SOL    HW1 9001   1.778   2.280   0.681
 2904SOL    HW2 9002   1.851   2.186   0.569
 2905SOL     OW 9003   2.433   3.167   1.195
 2905SOL    HW1 9004   2.345   3.166   1.148
 2905SOL    HW2 9005   2.452   3.260   1.227
 2906SOL     OW 9006   3.435   3.377   0.709
 2906SOL    HW1 9007   3.390   3.352   0.794
 2906SOL    HW2 9008   3.366   3.385   0.636
 2907SOL     OW 9009   2.995   2.568   0.694
 2907SOL    HW1 9010   3.048   2.652   0.679
 2907SOL    HW2 9011   2.945   2.575   0.779
 2908SOL     OW 9012   3.658   2.453   0.241
 2908SOL    HW1 9013   3.602   2.488   0.166
 2908SOL    HW2 9014   3.614   2.371   0.279
 2909SOL     OW 9015   2.594   2.998   1.044
 2909SOL    HW1 9016   2.530   3.035   1.112
 2909SOL    HW2 9017   2.642   3.073   0.998
 2910SOL     OW 9018   2.733   2.606   1.821
 2910SOL    HW1 9019   2.718   2.663   1.901
 2910SOL    HW2 9020   2.759   2.664   1.743
 2911SOL     OW 9021   2.545   2.858   0.649
 2911SOL    HW1 9022   2.617   2.849   0.718
 2911SOL    HW2 9023   2.472   2.916   0.684
 2912SOL     OW 9024   2.579   3.025   1.823
 2912SOL    HW1 9025   2.628   3.105   1.858
 2912SOL    HW2 9026   2.495   3.056   1.777
 2913SOL     OW 9027   2.191   3.278   1.065
 2913SOL    HW1 9028   2.113   3.233   1.022
 2913SOL    HW2 9029   2.240   3.332   0.997
 2914SOL     OW 9030   3.318   3.366   1.361
 2914SOL    HW1 9031   3.376   3.447   1.365
 2914SOL    HW2 9032   3.247   3.372   1.431
 2915SOL     OW 9033   2.314   2.248   1.471
 2915SOL    HW1 9034   2.396   2.192   1.481
 2915SOL    HW2 9035   2.233   2.193   1.492
 2916SOL     OW 9036   3.471   2.303   0.747
 2916SOL    HW1 9037   3.403   2.323   0.676
 2916SOL    HW2 9038   3.468   2.374   0.817
 2917SOL     OW 9039   2.089   3.572   0.481
 2917SOL    HW1 9040   2.104   3.653   0.538
 2917SOL    HW2 9041   2.167   3.559   0.420
 2918SOL     OW 9042   3.004   3.201   1.696
 2918SOL    HW1 9043   3.063   3.193   1.776
 2918SOL    HW2 9044   2.947   3.119   1.688
 2919SOL     OW 9045   2.075   3.302   0.524
 2919SOL    HW1 9046   2.070   3.401   0.530
 2919SOL    HW2 9047   2.024   3.261   0.600
 2920SOL     OW 9048   2.141   2.952   0.901
 2920SOL    HW1 9049   2.138   2.857   0.933
 2920SOL    HW2 9050   2.078   3.007   0.955
 2921SOL     OW 9051   2.449   3.664   1.422
 2921SOL    HW1 9052   2.368   3.639   1.474
 2921SOL    HW2 9053   2.484   3.752   1.453
 2922SOL     OW 9054   2.457   2.824   0.145
 2922SOL    HW1 9055   2.399   2.892   0.100
 2922SOL    HW2 9056   2.505   2.865   0.221
 2923SOL     OW 9057   3.460   1.988   1.467
 2923SOL    HW1 9058   3.489   2.066   1.412
 2923SOL    HW2 9059   3.438   2.019   1.560
 2924SOL     OW 9060   1.991   2.522   0.577
 2924SOL    HW1 9061   1.954   2.430   0.591
 2924SOL    HW2 9062   1.981   2.575   0.662
 2925SOL     OW 9063   3.721   3.611   0.337
 2925SOL    HW1 9064   3.793   3.576   0.396
 2925SOL    HW2 9065   3.729   3.710   0.328
 2926SOL     OW 9066   1.834   3.447   0.115
 2926SOL    HW1 9067   1.815   3.353   0.144
 2926SOL    HW2 9068   1.863   3.501   0.195
 2927SOL     OW 9069   3.559   2.770   0.661
 2927SOL    HW1 9070   3.646   2.721   0.650
 2927SOL    HW2 9071   3.538   2.820   0.577
 2928SOL     OW 9072   3.492   2.959   0.466
 2928SOL    HW1 9073   3.521   3.017   0.390
 2928SOL    HW2 9074   3.504   3.008   0.553
 2929SOL     OW 9075   1.986   2.608   1.584
 2929SOL    HW1 9076   2.081   2.639   1.583
 2929SOL    HW2 9077   1.926   2.687   1.574
 2930SOL     OW 9078   2.477   3.256   0.732
 2930SOL    HW1 9079   2.432   3.168   0.744
 2930SOL    HW2 9080   2.466   3.286   0.637
 2931SOL     OW 9081   3.145   3.093   1.419
 2931SOL    HW1 9082   3.170   3.022   1.353
 2931SOL    HW2 9083   3.208   3.090   1.497
 2932SOL     OW 9084   2.684   1.879   0.515
 2932SOL    HW1 9085   2.731   1.964   0.492
 2932SOL    HW2 9086   2.586   1.895   0.521
 2933SOL     OW 9087   2.051   2.819   1.288
 2933SOL    HW1 9088   2.141   2.778   1.272
 2933SOL    HW2 9089   1.986   2.781   1.222
 2934SOL     OW 9090   3.313   2.897   0.222
 2934SOL    HW1 9091   3.244   2.835   0.262
 2934SOL    HW2 9092   3.392   2.903   0.284
 2935SOL     OW 9093   3.026   3.676   1.619
 2935SOL    HW1 9094   3.043   3.747   1.550
 2935SOL    HW2 9095   3.057   3.587   1.584
 2936SOL     OW 9096   2.209   2.109   1.854
 2936SOL    HW1 9097   2.257   2.194   1.876
 2936SOL    HW2 9098   2.110   2.125   1.861
 2937SOL     OW 9099   3.325   3.284   0.941
 2937SOL    HW1 9100   3.261   3.305   1.016
 2937SOL    HW2 9101   3.317   3.188   0.916
 2938SOL     OW 9102   3.506   3.619   0.580
 2938SOL    HW1 9103   3.489   3.589   0.486
 2938SOL    HW2 9104   3.492   3.543   0.643
 2939SOL     OW 9105   2.456   2.578   0.277
 2939SOL    HW1 9106   2.465   2.666   0.229
 2939SOL    HW2 9107   2.390   2.587   0.351
 2940SOL     OW 9108   3.139   2.233   0.937
 2940SOL    HW1 9109   3.046   2.197   0.942
 2940SOL    HW2 9110   3.199   2.180   0.996
 2941SOL     OW 9111   3.453   3.538   0.317
 2941SOL    HW1 9112   3.552   3.554   0.316
 2941SOL    HW2 9113   3.421   3.523   0.223
 2942SOL     OW 9114   2.649   2.472   1.446
 2942SOL    HW1 9115   2.623   2.446   1.539
 2942SOL    HW2 9116   2.618   2.402   1.381
 2943SOL     OW 9117   3.251   2.329   1.677
 2943SOL    HW1 9118   3.253   2.378   1.764
 2943SOL    HW2 9119   3.309   2.248   1.683
 2944SOL     OW 9120   2.812   2.746   1.589
 2944SOL    HW1 9121   2.871   2.675   1.549
 2944SOL    HW2 9122   2.758   2.789   1.517
 2945SOL     OW 9123   2.858   2.260   1.220
 2945SOL    HW1 9124   2.765   2.279   1.249
 2945SOL    HW2 9125   2.857   2.213   1.132
 2946SOL     OW 9126   2.915   2.554   0.431
 2946SOL    HW1 9127   2.936   2.555   0.528
 2946SOL    HW2 9128   2.828   2.506   0.416
 2947SOL     OW 9129   1.954   2.691   0.787
 2947SOL    HW1 9130   2.040   2.680   0.836
 2947SOL    HW2 9131   1.903   2.767   0.827
 2948SOL     OW 9132   1.988   3.742   1.591
 2948SOL    HW1 9133   1.994   3.714   1.687
 2948SOL    HW2 9134   1.905   3.704   1.550
 2949SOL     OW 9135   2.747   2.203   0.215
 2949SOL    HW1 9136   2.799   2.267   0.159
 2949SOL    HW2 9137   2.745   2.114   0.169
 2950SOL     OW 9138   3.553   2.429   1.825
 2950SOL    HW1 9139   3.518   2.506   1.771
 2950SOL    HW2 9140   3.584   2.357   1.763
 2951SOL     OW 9141   3.229   3.005   0.534
 2951SOL    HW1 9142   3.318   2.988   0.493
 2951SOL    HW2 9143   3.180   3.075   0.482
 2952SOL     OW 9144   2.408   2.029   0.906
 2952SOL    HW1 9145   2.414   2.059   1.001
 2952SOL    HW2 9146   2.412   2.108   0.846
 2953SOL     OW 9147   2.862   3.314   0.465
 2953SOL    HW1 9148   2.826   3.393   0.415
 2953SOL    HW2 9149   2.837   3.322   0.562
 2954SOL     OW 9150   2.218   3.678   0.877
 2954SOL    HW1 9151   2.262   3.589   0.882
 2954SOL    HW2 9152   2.284   3.750   0.896
 2955SOL     OW 9153   3.664   2.910   0.884
 2955SOL    HW1 9154   3.614   2.887   0.801
 2955SOL    HW2 9155   3.599   2.921   0.960
 2956SOL     OW 9156   3.085   3.399   1.513
 2956SOL    HW1 9157   3.078   3.325   1.580
 2956SOL    HW2 9158   3.020   3.384   1.439
 2957SOL     OW 9159   2.166   2.814   0.262
 2957SOL    HW1 9160   2.213   2.861   0.188
 2957SOL    HW2 9161   2.169   2.715   0.245
 2958SOL     OW 9162   3.343   2.614   0.721
 2958SOL    HW1 9163   3.340   2.569   0.810
 2958SOL    HW2 9164   3.426   2.670   0.715
 2959SOL     OW 9165   2.333   3.135   1.733
 2959SOL    HW1 9166   2.308   3.139   1.636
 2959SOL    HW2 9167   2.250   3.128   1.789
 2960SOL     OW 9168   2.965   3.644   0.214
 2960SOL    HW1 9169   2.902   3.597   0.276
 2960SOL    HW2 9170   3.017   3.576   0.162
 2961SOL     OW 9171   2.065   2.128   1.500
 2961SOL    HW1 9172   1.986   2.188   1.502
 2961SOL    HW2 9173   2.041   2.040   1.540
 2962SOL     OW 9174   3.471   3.231   0.056
 2962SOL    HW1 9175   3.462   3.330   0.052
 2962SOL    HW2 9176   3.383   3.189   0.036
 2963SOL     OW 9177   2.328   3.590   0.339
 2963SOL    HW1 9178   2.374   3.654   0.401
 2963SOL    HW2 9179   2.394   3.557   0.271
 2964SOL     OW 9180   3.268   1.966   0.440
 2964SOL    HW1 9181   3.262   1.941   0.343
 2964SOL    HW2 9182   3.365   1.979   0.464
 2965SOL     OW 9183   2.121   3.653   1.220
 2965SOL    HW1 9184   2.171   3.576   1.260
 2965SOL    HW2 9185   2.097   3.631   1.125
 2966SOL     OW 9186   2.801   3.565   0.895
 2966SOL    HW1 9187   2.887   3.522   0.924
 2966SOL    HW2 9188   2.760   3.513   0.821
 2967SOL     OW 9189   2.259   2.545   0.475
 2967SOL    HW1 9190   2.282   2.448   0.486
 2967SOL    HW2 9191   2.164   2.560   0.500
 2968SOL     OW 9192   3.382   2.083   1.724
 2968SOL    HW1 9193   3.394   2.103   1.822
 2968SOL    HW2 9194   3.310   2.015   1.713
 2969SOL     OW 9195   2.491   1.952   0.094
 2969SOL    HW1 9196   2.590   1.954   0.098
 2969SOL    HW2 9197   2.458   2.019   0.028
 2970SOL     OW 9198   2.623   2.135   1.758
 2970SOL    HW1 9199   2.710   2.087   1.751
 2970SOL    HW2 9200   2.573   2.102   1.838
 2971SOL     OW 9201   2.734   3.376   1.194
 2971SOL    HW1 9202   2.715   3.338   1.104
 2971SOL    HW2 9203   2.806   3.323   1.238
 2972SOL     OW 9204   3.198   2.453   1.436
 2972SOL    HW1 9205   3.229   2.417   1.524
 2972SOL    HW2 9206   3.234   2.545   1.422
 2973SOL     OW 9207   2.683   3.244   0.946
 2973SOL    HW1 9208   2.774   3.235   0.905
 2973SOL    HW2 9209   2.615   3.256   0.873
 2974SOL     OW 9210   2.788   2.369   0.894
 2974SOL    HW1 9211   2.762   2.361   0.798
 2974SOL    HW2 9212   2.819   2.280   0.928
 2975SOL     OW 9213   2.415   1.931   0.499
 2975SOL    HW1 9214   2.334   1.928   0.557
 2975SOL    HW2 9215   2.406   2.007   0.434
 2976SOL     OW 9216   3.248   3.080   0.030
 2976SOL    HW1 9217   3.274   3.009   0.095
 2976SOL    HW2 9218   3.167   3.128   0.065
 2977SOL     OW 9219   2.814   2.113   0.463
 2977SOL    HW1 9220   2.784   2.150   0.375
 2977SOL    HW2 9221   2.913   2.126   0.472
 2978SOL     OW 9222   2.939   2.549   1.451
 2978SOL    HW1 9223   2.867   2.480   1.456
 2978SOL    HW2 9224   3.028   2.504   1.448
 2979SOL     OW 9225   3.075   3.436   0.797
 2979SOL    HW1 9226   3.090   3.504   0.724
 2979SOL    HW2 9227   3.151   3.440   0.862
 2980SOL     OW 9228   2.335   3.018   0.725
 2980SOL    HW1 9229   2.270   2.996   0.798
 2980SOL    HW2 9230   2.291   3.006   0.637
 2981SOL     OW 9231   3.121   3.656   0.610
 2981SOL    HW1 9232   3.176   3.719   0.556
 2981SOL    HW2 9233   3.047   3.706   0.655
 2982SOL     OW 9234   2.883   2.389   0.071
 2982SOL    HW1 9235   2.811   2.427   0.013
 2982SOL    HW2 9236   2.914   2.460   0.135
 2983SOL     OW 9237   1.955   2.419   1.391
 2983SOL    HW1 9238   2.050   2.415   1.358
 2983SOL    HW2 9239   1.947   2.489   1.461
 2984SOL     OW 9240   2.421   2.084   1.177
 2984SOL    HW1 9241   2.470   2.011   1.225
 2984SOL    HW2 9242   2.325   2.083   1.204
 2985SOL     OW 9243   2.728   2.321   0.634
 2985SOL    HW1 9244   2.678   2.381   0.571
 2985SOL    HW2 9245   2.758   2.239   0.585
 2986SOL     OW 9246   2.880   1.916   0.742
 2986SOL    HW1 9247   2.818   1.915   0.663
 2986SOL    HW2 9248   2.856   1.841   0.803
 2987SOL     OW 9249   3.311   3.022   0.865
 2987SOL    HW1 9250   3.234   2.958   0.856
 2987SOL    HW2 9251   3.354   3.034   0.775
 2988SOL     OW 9252   3.329   2.471   0.962
 2988SOL    HW1 9253   3.264   2.396   0.964
 2988SOL    HW2 9254   3.389   2.466   1.041
 2989SOL     OW 9255   3.719   2.672   0.392
 2989SOL    HW1 9256   3.780   2.636   0.462
 2989SOL    HW2 9257   3.695   2.598   0.328
 2990SOL     OW 9258   2.343   3.274   0.162
 2990SOL    HW1 9259   2.262   3.246   0.215
 2990SOL    HW2 9260   2.360   3.208   0.089
 2991SOL     OW 9261   3.537   3.119   0.676
 2991SOL    HW1 9262   3.637   3.115   0.673
 2991SOL    HW2 9263   3.507   3.214   0.678
 2992SOL     OW 9264   3.255   2.428   0.102
 2992SOL    HW1 9265   3.195   2.418   0.181
 2992SOL    HW2 9266   3.308   2.345   0.089
 2993SOL     OW 9267   2.370   2.112   0.296
 2993SOL    HW1 9268   2.422   2.059   0.229
 2993SOL    HW2 9269   2.352   2.203   0.259
 2994SOL     OW 9270   3.614   3.105   1.549
 2994SOL    HW1 9271   3.702   3.061   1.534
 2994SOL    HW2 9272   3.628   3.198   1.583
 2995SOL     OW 9273   2.911   3.213   1.338
 2995SOL    HW1 9274   2.829   3.181   1.385
 2995SOL    HW2 9275   2.992   3.170   1.378
 2996SOL     OW 9276   3.478   3.489   1.638
 2996SOL    HW1 9277   3.466   3.529   1.547
 2996SOL    HW2 9278   3.563   3.438   1.642
 2997SOL     OW 9279   3.005   3.093   1.105
 2997SOL    HW1 9280   2.944   3.126   1.176
 2997SOL    HW2 9281   2.973   3.124   1.015
 2998SOL     OW 9282   3.482   2.958   1.081
 2998SOL    HW1 9283   3.477   3.024   1.156
 2998SOL    HW2 9284   3.409   2.977   1.015
 2999SOL     OW 9285   2.787   1.951   1.388
 2999SOL    HW1 9286   2.808   1.929   1.293
 2999SOL    HW2 9287   2.866   1.995   1.430
 3000SOL     OW 9288   2.837   2.982   1.717
 3000SOL    HW1 9289   2.744   2.999   1.748
 3000SOL    HW2 9290   2.841   2.898   1.664
 3001SOL     OW 9291   2.580   2.919   0.375
 3001SOL    HW1 9292   2.558   2.903   0.471
 3001SOL    HW2 9293   2.654   2.857   0.348
 3002SOL     OW 9294   2.287   2.680   1.256
 3002SOL    HW1 9295   2.360   2.694   1.323
 3002SOL    HW2 9296   2.250   2.588   1.265
 3003SOL     OW 9297   3.123   2.236   1.287
 3003SOL    HW1 9298   3.158   2.316   1.334
 3003SOL    HW2 9299   3.028   2.252   1.259
 3004SOL     OW 9300   1.939   3.432   1.355
 3004SOL    HW1 9301   1.900   3.500   1.292
 3004SOL    HW2 9302   2.038   3.432   1.347
 3005SOL     OW 9303   2.204   2.984   0.489
 3005SOL    HW1 9304   2.207   3.065   0.431
 3005SOL    HW2 9305   2.200   2.902   0.432
 3006SOL     OW 9306   2.404   2.404   0.863
 3006SOL    HW1 9307   2.419   2.463   0.784
 3006SOL    HW2 9308   2.475   2.423   0.932
 3007SOL     OW 9309   3.115   3.222   0.398
 3007SOL    HW1 9310   3.171   3.297   0.434
 3007SOL    HW2 9311   3.020   3.237   0.424
 3008SOL     OW 9312   3.156   3.327   1.147
 3008SOL    HW1 9313   3.213   3.334   1.229
 3008SOL    HW2 9314   3.105   3.242   1.149
 3009SOL     OW 9315   3.426   2.479   0.489
 3009SOL    HW1 9316   3.380   2.525   0.565
 3009SOL    HW2 9317   3.461   2.547   0.424
 3010SOL     OW 9318   2.210   3.395   1.305
 3010SOL    HW1 9319   2.195   3.347   1.218
 3010SOL    HW2 9320   2.308   3.409   1.318
 3011SOL     OW 9321   2.282   2.609   1.601
 3011SOL    HW1 9322   2.349   2.654   1.542
 3011SOL    HW2 9323   2.315   2.518   1.627
 3012SOL     OW 9324   3.464   2.634   1.673
 3012SOL    HW1 9325   3.375   2.680   1.676
 3012SOL    HW2 9326   3.521   2.679   1.603
 3013SOL     OW 9327   2.860   2.000   1.754
 3013SOL    HW1 9328   2.916   2.081   1.738
 3013SOL    HW2 9329   2.909   1.918   1.725
 3014SOL     OW 9330   2.353   1.895   1.756
 3014SOL    HW1 9331   2.306   1.838   1.688
 3014SOL    HW2 9332   2.297   1.975   1.777
 3015SOL     OW 9333   2.449   2.735   1.036
 3015SOL    HW1 9334   2.487   2.828   1.035
 3015SOL    HW2 9335   2.388   2.726   1.116
 3016SOL     OW 9336   3.202   2.717   1.018
 3016SOL    HW1 9337   3.111   2.704   0.979
 3016SOL    HW2 9338   3.255   2.633   1.006
 3017SOL     OW 9339   3.077   2.381   0.298
 3017SOL    HW1 9340   3.087   2.297   0.351
 3017SOL    HW2 9341   3.024   2.447   0.351
 3018SOL     OW 9342   2.158   2.056   1.245
 3018SOL    HW1 9343   2.122   2.091   1.332
 3018SOL    HW2 9344   2.144   1.957   1.240
 3019SOL     OW 9345   1.920   3.171   1.272
 3019SOL    HW1 9346   1.949   3.110   1.345
 3019SOL    HW2 9347   1.919   3.265   1.306
 3020SOL     OW 9348   2.584   2.491   1.051
 3020SOL    HW1 9349   2.662   2.473   0.990
 3020SOL    HW2 9350   2.550   2.584   1.034
 3021SOL     OW 9351   3.610   2.783   1.849
 3021SOL    HW1 9352   3.560   2.724   1.786
 3021SOL    HW2 9353   3.549   2.813   1.922
 3022SOL     OW 9354   2.174   1.923   0.632
 3022SOL    HW1 9355   2.146   2.017   0.649
 3022SOL    HW2 9356   2.185   1.875   0.719
 3023SOL     OW 9357   3.495   2.250   0.357
 3023SOL    HW1 9358   3.511   2.170   0.416
 3023SOL    HW2 9359   3.463   2.326   0.413
 3024SOL     OW 9360   2.885   2.616   0.956
 3024SOL    HW1 9361   2.876   2.638   1.053
 3024SOL    HW2 9362   2.858   2.521   0.940
 3025SOL     OW 9363   2.838   3.413   1.713
 3025SOL    HW1 9364   2.820   3.464   1.628
 3025SOL    HW2 9365   2.897   3.336   1.693
 3026SOL     OW 9366   3.719   3.361   1.603
 3026SOL    HW1 9367   3.740   3.388   1.510
 3026SOL    HW2 9368   3.797   3.379   1.662
 3027SOL     OW 9369   2.213   2.782   1.803
 3027SOL    HW1 9370   2.291   2.806   1.861
 3027SOL    HW2 9371   2.243   2.717   1.733
 3028SOL     OW 9372   3.352   2.168   0.133
 3028SOL    HW1 9373   3.330   2.071   0.143
 3028SOL    HW2 9374   3.410   2.198   0.209
 3029SOL     OW 9375   3.146   2.663   0.030
 3029SOL    HW1 9376   3.192   2.576   0.047
 3029SOL    HW2 9377   3.209   2.726  -0.014
 3030SOL     OW 9378   2.934   3.203   0.857
 3030SOL    HW1 9379   2.939   3.125   0.795
 3030SOL    HW2 9380   2.989   3.278   0.822
 3031SOL     OW 9381   2.178   2.669   0.944
 3031SOL    HW1 9382   2.275   2.693   0.940
 3031SOL    HW2 9383   2.168   2.574   0.974
 3032SOL     OW 9384   2.182   2.392   1.010
 3032SOL    HW1 9385   2.144   2.300   1.001
 3032SOL    HW2 9386   2.264   2.400   0.953
 3033SOL     OW 9387   2.996   2.232   1.695
 3033SOL    HW1 9388   2.945   2.289   1.760
 3033SOL    HW2 9389   3.088   2.270   1.684
 3034SOL     OW 9390   3.023   2.062   1.479
 3034SOL    HW1 9391   3.008   2.124   1.556
 3034SOL    HW2 9392   3.067   2.111   1.404
 3035SOL     OW 9393   1.957   3.639   0.949
 3035SOL    HW1 9394   1.918   3.561   0.901
 3035SOL    HW2 9395   2.049   3.657   0.915
 3036SOL     OW 9396   2.352   3.437   0.903
 3036SOL    HW1 9397   2.423   3.503   0.930
 3036SOL    HW2 9398   2.392   3.370   0.840
 3037SOL     OW 9399   2.826   2.654   1.221
 3037SOL    HW1 9400   2.888   2.633   1.296
 3037SOL    HW2 9401   2.738   2.609   1.236
 3038SOL     OW 9402   1.901   2.421   1.119
 3038SOL    HW1 9403   1.984   2.413   1.062
 3038SOL    HW2 9404   1.927   2.421   1.215
 3039SOL     OW 9405   2.055   2.388   1.733
 3039SOL    HW1 9406   2.111   2.335   1.670
 3039SOL    HW2 9407   2.019   2.469   1.686
 3040SOL     OW 9408   3.242   2.792   1.652
 3040SOL    HW1 9409   3.264   2.889   1.658
 3040SOL    HW2 9410   3.239   2.764   1.556
 3041SOL     OW 9411   2.680   2.435   0.365
 3041SOL    HW1 9412   2.684   2.351   0.311
 3041SOL    HW2 9413   2.603   2.490   0.335
 3042SOL     OW 9414   3.503   2.464   1.173
 3042SOL    HW1 9415   3.486   2.406   1.254
 3042SOL    HW2 9416   3.596   2.448   1.140
 3043SOL     OW 9417   2.099   3.405   1.723
 3043SOL    HW1 9418   2.078   3.478   1.788
 3043SOL    HW2 9419   2.106   3.318   1.772
 3044SOL     OW 9420   2.581   2.303   1.245
 3044SOL    HW1 9421   2.519   2.228   1.225
 3044SOL    HW2 9422   2.573   2.373   1.174
 3045SOL     OW 9423   2.768   3.542   1.477
 3045SOL    HW1 9424   2.748   3.494   1.392
 3045SOL    HW2 9425   2.776   3.640   1.459
 3046SOL     OW 9426   2.315   2.356   0.199
 3046SOL    HW1 9427   2.377   2.431   0.221
 3046SOL    HW2 9428   2.225   2.394   0.176
 3047SOL     OW 9429   2.000   3.002   1.479
 3047SOL    HW1 9430   2.004   2.963   1.571
 3047SOL    HW2 9431   2.020   2.931   1.412
 3048SOL     OW 9432   3.170   2.903   1.214
 3048SOL    HW1 9433   3.195   2.835   1.145
 3048SOL    HW2 9434   3.109   2.971   1.174
 3049SOL     OW 9435   3.135   2.711   0.310
 3049SOL    HW1 9436   3.067   2.662   0.365
 3049SOL    HW2 9437   3.133   2.676   0.216
 3050SOL     OW 9438   3.645   3.583   1.157
 3050SOL    HW1 9439   3.708   3.616   1.087
 3050SOL    HW2 9440   3.614   3.491   1.132
 3051SOL     OW 9441   3.103   3.595   1.098
 3051SOL    HW1 9442   3.189   3.627   1.060
 3051SOL    HW2 9443   3.112   3.499   1.123
 3052SOL     OW 9444   1.954   3.122   1.009
 3052SOL    HW1 9445   1.936   3.140   1.106
 3052SOL    HW2 9446   1.881   3.064   0.972
 3053SOL     OW 9447   2.548   3.541   1.744
 3053SOL    HW1 9448   2.484   3.617   1.730
 3053SOL    HW2 9449   2.626   3.553   1.682
 3054SOL     OW 9450   2.777   1.946   0.090
 3054SOL    HW1 9451   2.838   1.987   0.023
 3054SOL    HW2 9452   2.830   1.889   0.153
 3055SOL     OW 9453   3.554   2.014   0.496
 3055SOL    HW1 9454   3.639   2.012   0.444
 3055SOL    HW2 9455   3.543   1.928   0.546
 3056SOL     OW 9456   3.261   3.438   0.496
 3056SOL    HW1 9457   3.323   3.470   0.425
 3056SOL    HW2 9458   3.205   3.515   0.529
 3057SOL     OW 9459   2.010   3.648   1.846
 3057SOL    HW1 9460   1.953   3.578   1.890
 3057SOL    HW2 9461   2.059   3.700   1.916
 3058SOL     OW 9462   3.143   2.794   0.673
 3058SOL    HW1 9463   3.219   2.731   0.687
 3058SOL    HW2 9464   3.172   2.869   0.614
 3059SOL     OW 9465   2.655   3.142   1.420
 3059SOL    HW1 9466   2.628   3.189   1.504
 3059SOL    HW2 9467   2.584   3.154   1.351
 3060SOL     OW 9468   2.523   3.473   0.178
 3060SOL    HW1 9469   2.536   3.499   0.082
 3060SOL    HW2 9470   2.465   3.392   0.183
 3061SOL     OW 9471   3.475   3.592   1.378
 3061SOL    HW1 9472   3.536   3.592   1.299
 3061SOL    HW2 9473   3.459   3.686   1.408
 3062SOL     OW 9474   3.705   2.027   0.963
 3062SOL    HW1 9475   3.739   1.936   0.943
 3062SOL    HW2 9476   3.614   2.038   0.924
 3063SOL     OW 9477   2.115   2.174   0.714
 3063SOL    HW1 9478   2.027   2.215   0.688
 3063SOL    HW2 9479   2.120   2.168   0.814
 3064SOL     OW 9480   3.099   3.471   0.048
 3064SOL    HW1 9481   3.070   3.377   0.068
 3064SOL    HW2 9482   3.050   3.504  -0.033
 3065SOL     OW 9483   2.686   2.873   1.383
 3065SOL    HW1 9484   2.737   2.854   1.299
 3065SOL    HW2 9485   2.679   2.971   1.397
 3066SOL     OW 9486   2.777   2.755   0.300
 3066SOL    HW1 9487   2.827   2.777   0.216
 3066SOL    HW2 9488   2.826   2.684   0.350
 3067SOL     OW 9489   3.364   3.517   0.055
 3067SOL    HW1 9490   3.267   3.492   0.046
 3067SOL    HW2 9491   3.402   3.534  -0.036
 3068SOL     OW 9492   2.226   3.168   1.488
 3068SOL    HW1 9493   2.218   3.247   1.427
 3068SOL    HW2 9494   2.146   3.109   1.477
 3069SOL     OW 9495   3.473   3.149   1.286
 3069SOL    HW1 9496   3.533   3.125   1.362
 3069SOL    HW2 9497   3.407   3.218   1.316
 3070SOL     OW 9498   2.927   2.970   0.720
 3070SOL    HW1 9499   2.851   2.919   0.759
 3070SOL    HW2 9500   2.999   2.906   0.692
 3071SOL     OW 9501   2.887   2.103   0.966
 3071SOL    HW1 9502   2.884   2.061   0.876
 3071SOL    HW2 9503   2.884   2.031   1.036
 3072SOL     OW 9504   2.474   3.344   0.477
 3072SOL    HW1 9505   2.529   3.290   0.412
 3072SOL    HW2 9506   2.400   3.390   0.427
 3073SOL     OW 9507   3.601   2.252   1.383
 3073SOL    HW1 9508   3.673   2.321   1.381
 3073SOL    HW2 9509   3.624   2.178   1.319
 3074SOL     OW 9510   2.122   3.177   0.294
 3074SOL    HW1 9511   2.052   3.106   0.287
 3074SOL    HW2 9512   2.104   3.233   0.375
 3075SOL     OW 9513   1.982   2.913   1.740
 3075SOL    HW1 9514   1.899   2.880   1.787
 3075SOL    HW2 9515   2.060   2.859   1.771
 3076SOL     OW 9516   2.548   2.052   1.499
 3076SOL    HW1 9517   2.634   2.027   1.455
 3076SOL    HW2 9518   2.566   2.087   1.591
 3077SOL     OW 9519   1.857   2.266  -0.018
 3077SOL    HW1 9520   1.815   2.195   0.039
 3077SOL    HW2 9521   1.956   2.254  -0.018
 3078SOL     OW 9522   3.280   2.718   1.390
 3078SOL    HW1 9523   3.224   2.782   1.337
 3078SOL    HW2 9524   3.374   2.720   1.357
 3079SOL     OW 9525   1.911   2.018   0.335
 3079SOL    HW1 9526   1.867   2.042   0.249
 3079SOL    HW2 9527   2.008   1.997   0.318
 3080SOL     OW 9528   3.035   3.218   0.125
 3080SOL    HW1 9529   2.937   3.204   0.112
 3080SOL    HW2 9530   3.059   3.204   0.222
 3081SOL     OW 9531   2.488   2.692   1.435
 3081SOL    HW1 9532   2.546   2.772   1.422
 3081SOL    HW2 9533   2.545   2.610   1.443
 3082SOL     OW 9534   3.350   3.663   0.994
 3082SOL    HW1 9535   3.375   3.731   0.926
 3082SOL    HW2 9536   3.433   3.620   1.030
 3083SOL     OW 9537   2.579   2.410   1.697
 3083SOL    HW1 9538   2.628   2.477   1.754
 3083SOL    HW2 9539   2.598   2.318   1.731
 3084SOL     OW 9540   3.334   3.057   1.626
 3084SOL    HW1 9541   3.316   3.063   1.724
 3084SOL    HW2 9542   3.430   3.079   1.609
 3085SOL     OW 9543   2.227   3.603   1.571
 3085SOL    HW1 9544   2.144   3.657   1.555
 3085SOL    HW2 9545   2.202   3.514   1.609
 3086SOL     OW 9546   3.521   2.738   1.250
 3086SOL    HW1 9547   3.518   2.648   1.207
 3086SOL    HW2 9548   3.508   2.809   1.181
 3087SOL     OW 9549   3.084   2.167   0.471
 3087SOL    HW1 9550   3.151   2.094   0.460
 3087SOL    HW2 9551   3.110   2.224   0.549
 3088SOL     OW 9552   2.447   2.596   0.671
 3088SOL    HW1 9553   2.488   2.687   0.661
 3088SOL    HW2 9554   2.379   2.582   0.599
 3089SOL     OW 9555   3.610   2.221   1.656
 3089SOL    HW1 9556   3.604   2.240   1.557
 3089SOL    HW2 9557   3.532   2.164   1.683
 3090SOL     OW 9558   3.601   2.791   1.504
 3090SOL    HW1 9559   3.596   2.889   1.525
 3090SOL    HW2 9560   3.584   2.777   1.407
 3091SOL     OW 9561   2.767   3.250   0.054
 3091SOL    HW1 9562   2.708   3.230   0.132
 3091SOL    HW2 9563   2.749   3.343   0.022
 3092SOL     OW 9564   2.529   3.639   0.939
 3092SOL    HW1 9565   2.506   3.735   0.921
 3092SOL    HW2 9566   2.628   3.626   0.929
 3093SOL     OW 9567   2.731   2.833   0.857
 3093SOL    HW1 9568   2.782   2.755   0.892
 3093SOL    HW2 9569   2.686   2.881   0.932
 3094SOL     OW 9570   2.929   2.825   0.083
 3094SOL    HW1 9571   2.908   2.884   0.006
 3094SOL    HW2 9572   3.009   2.768   0.061
 3095SOL     OW 9573   3.701   3.416   0.845
 3095SOL    HW1 9574   3.622   3.405   0.784
 3095SOL    HW2 9575   3.694   3.351   0.920
 3096SOL     OW 9576   2.087   3.152   1.850
 3096SOL    HW1 9577   2.042   3.075   1.804
 3096SOL    HW2 9578   2.045   3.168   1.939
 3097SOL     OW 9579   1.953   3.084   0.666
 3097SOL    HW1 9580   1.966   3.043   0.757
 3097SOL    HW2 9581   2.022   3.049   0.603
 3098SOL     OW 9582   2.547   3.276   1.633
 3098SOL    HW1 9583   2.465   3.230   1.667
 3098SOL    HW2 9584   2.549   3.370   1.669
 3099SOL     OW 9585   3.665   2.039   1.232
 3099SOL    HW1 9586   3.674   1.942   1.254
 3099SOL    HW2 9587   3.680   2.053   1.134
 3100SOL     OW 9588   2.295   2.284   0.526
 3100SOL    HW1 9589   2.316   2.215   0.456
 3100SOL    HW2 9590   2.238   2.243   0.597
 3101SOL     OW 9591   3.554   3.337   1.089
 3101SOL    HW1 9592   3.473   3.322   1.032
 3101SOL    HW2 9593   3.556   3.269   1.162
 3102SOL     OW 9594   2.203   2.421   1.288
 3102SOL    HW1 9595   2.258   2.360   1.346
 3102SOL    HW2 9596   2.215   2.394   1.192
 3103SOL     OW 9597   2.692   3.442   0.681
 3103SOL    HW1 9598   2.672   3.504   0.605
 3103SOL    HW2 9599   2.617   3.375   0.689
 3104SOL     OW 9600   3.289   2.096   1.116
 3104SOL    HW1 9601   3.306   2.002   1.147
 3104SOL    HW2 9602   3.237   2.145   1.186
 3105SOL     OW 9603   2.872   1.876   1.131
 3105SOL    HW1 9604   2.809   1.815   1.083
 3105SOL    HW2 9605   2.963   1.835   1.134
 3106SOL     OW 9606   2.642   3.189   0.315
 3106SOL    HW1 9607   2.612   3.094   0.327
 3106SOL    HW2 9608   2.735   3.199   0.350
 3107SOL     OW 9609   2.485   3.425   1.291
 3107SOL    HW1 9610   2.480   3.513   1.339
 3107SOL    HW2 9611   2.576   3.412   1.252
 3108SOL     OW 9612   3.229   1.910   0.170
 3108SOL    HW1 9613   3.275   1.834   0.124
 3108SOL    HW2 9614   3.132   1.889   0.182
 3109SOL     OW 9615   3.148   2.328   0.680
 3109SOL    HW1 9616   3.098   2.415   0.680
 3109SOL    HW2 9617   3.149   2.290   0.773
 3110SOL     OW 9618   3.446   2.061   0.888
 3110SOL    HW1 9619   3.391   2.085   0.968
 3110SOL    HW2 9620   3.450   2.139   0.825
 3111SOL     OW 9621   1.941   2.956   0.303
 3111SOL    HW1 9622   2.023   2.904   0.279
 3111SOL    HW2 9623   1.884   2.901   0.366
 3112SOL     OW 9624   2.745   3.533   0.344
 3112SOL    HW1 9625   2.666   3.505   0.291
 3112SOL    HW2 9626   2.721   3.609   0.404
 3113SOL     OW 9627   2.071   2.481   1.996
 3113SOL    HW1 9628   1.978   2.477   2.032
 3113SOL    HW2 9629   2.069   2.462   1.898
 3114SOL     OW 9630   2.091   2.153   2.851
 3114SOL    HW1 9631   2.122   2.125   2.942
 3114SOL    HW2 9632   1.999   2.118   2.835
 3115SOL     OW 9633   1.857   2.246   2.495
 3115SOL    HW1 9634   1.773   2.278   2.540
 3115SOL    HW2 9635   1.836   2.166   2.440
 3116SOL     OW 9636   3.002   2.542   2.565
 3116SOL    HW1 9637   3.039   2.630   2.593
 3116SOL    HW2 9638   2.918   2.522   2.616
 3117SOL     OW 9639   3.650   2.445   2.076
 3117SOL    HW1 9640   3.618   2.448   1.982
 3117SOL    HW2 9641   3.607   2.369   2.124
 3118SOL     OW 9642   2.539   2.872   2.501
 3118SOL    HW1 9643   2.614   2.896   2.563
 3118SOL    HW2 9644   2.458   2.924   2.525
 3119SOL     OW 9645   2.146   3.335   2.921
 3119SOL    HW1 9646   2.093   3.261   2.879
 3119SOL    HW2 9647   2.218   3.364   2.858
 3120SOL     OW 9648   3.283   3.392   3.211
 3120SOL    HW1 9649   3.347   3.468   3.217
 3120SOL    HW2 9650   3.334   3.305   3.205
 3121SOL     OW 9651   3.474   2.303   2.606
 3121SOL    HW1 9652   3.392   2.307   2.549
 3121SOL    HW2 9653   3.492   2.393   2.645
 3122SOL     OW 9654   2.085   3.580   2.331
 3122SOL    HW1 9655   2.104   3.657   2.392
 3122SOL    HW2 9656   2.160   3.569   2.266
 3123SOL     OW 9657   2.098   3.312   2.403
 3123SOL    HW1 9658   2.079   3.411   2.400
 3123SOL    HW2 9659   2.039   3.269   2.471
 3124SOL     OW 9660   2.099   2.943   2.716
 3124SOL    HW1 9661   2.108   2.848   2.747
 3124SOL    HW2 9662   2.055   2.997   2.788
 3125SOL     OW 9663   2.451   3.681   3.292
 3125SOL    HW1 9664   2.369   3.651   3.341
 3125SOL    HW2 9665   2.481   3.770   3.326
 3126SOL     OW 9666   2.423   2.860   1.987
 3126SOL    HW1 9667   2.481   2.903   1.919
 3126SOL    HW2 9668   2.461   2.873   2.078
 3127SOL     OW 9669   3.458   1.989   3.331
 3127SOL    HW1 9670   3.489   2.068   3.277
 3127SOL    HW2 9671   3.438   2.018   3.424
 3128SOL     OW 9672   1.978   2.521   2.425
 3128SOL    HW1 9673   1.947   2.428   2.441
 3128SOL    HW2 9674   1.961   2.576   2.507
 3129SOL     OW 9675   1.898   3.448   1.983
 3129SOL    HW1 9676   1.878   3.351   2.001
 3129SOL    HW2 9677   1.875   3.502   2.064
 3130SOL     OW 9678   2.468   3.248   2.592
 3130SOL    HW1 9679   2.415   3.163   2.599
 3130SOL    HW2 9680   2.457   3.286   2.501
 3131SOL     OW 9681   2.683   1.878   2.372
 3131SOL    HW1 9682   2.730   1.963   2.347
 3131SOL    HW2 9683   2.585   1.894   2.376
 3132SOL     OW 9684   3.404   2.842   2.057
 3132SOL    HW1 9685   3.335   2.781   2.096
 3132SOL    HW2 9686   3.452   2.889   2.131
 3133SOL     OW 9687   3.047   3.695   3.511
 3133SOL    HW1 9688   3.047   3.761   3.435
 3133SOL    HW2 9689   3.049   3.602   3.474
 3134SOL     OW 9690   2.452   2.570   2.138
 3134SOL    HW1 9691   2.473   2.658   2.096
 3134SOL    HW2 9692   2.383   2.583   2.210
 3135SOL     OW 9693   3.142   2.216   2.789
 3135SOL    HW1 9694   3.056   2.165   2.798
 3135SOL    HW2 9695   3.210   2.178   2.851
 3136SOL     OW 9696   3.392   3.603   2.082
 3136SOL    HW1 9697   3.426   3.557   2.164
 3136SOL    HW2 9698   3.379   3.536   2.009
 3137SOL     OW 9699   3.257   2.320   3.577
 3137SOL    HW1 9700   3.264   2.374   3.661
 3137SOL    HW2 9701   3.318   2.241   3.582
 3138SOL     OW 9702   2.894   2.255   3.119
 3138SOL    HW1 9703   2.810   2.259   3.174
 3138SOL    HW2 9704   2.876   2.206   3.034
 3139SOL     OW 9705   2.911   2.536   2.288
 3139SOL    HW1 9706   2.934   2.526   2.385
 3139SOL    HW2 9707   2.822   2.494   2.271
 3140SOL     OW 9708   1.922   2.689   2.635
 3140SOL    HW1 9709   2.010   2.676   2.680
 3140SOL    HW2 9710   1.877   2.769   2.674
 3141SOL     OW 9711   1.989   3.742   3.454
 3141SOL    HW1 9712   1.993   3.715   3.550
 3141SOL    HW2 9713   1.906   3.705   3.412
 3142SOL     OW 9714   2.760   2.209   2.057
 3142SOL    HW1 9715   2.802   2.278   1.998
 3142SOL    HW2 9716   2.764   2.120   2.013
 3143SOL     OW 9717   3.551   2.421   3.700
 3143SOL    HW1 9718   3.516   2.500   3.649
 3143SOL    HW2 9719   3.585   2.353   3.635
 3144SOL     OW 9720   3.234   3.023   2.298
 3144SOL    HW1 9721   3.314   2.964   2.315
 3144SOL    HW2 9722   3.188   3.044   2.384
 3145SOL     OW 9723   2.393   2.007   2.745
 3145SOL    HW1 9724   2.363   2.065   2.822
 3145SOL    HW2 9725   2.419   2.066   2.668
 3146SOL     OW 9726   2.924   3.401   2.350
 3146SOL    HW1 9727   2.864   3.439   2.280
 3146SOL    HW2 9728   2.872   3.389   2.435
 3147SOL     OW 9729   2.216   3.679   2.739
 3147SOL    HW1 9730   2.262   3.590   2.745
 3147SOL    HW2 9731   2.282   3.751   2.758
 3148SOL     OW 9732   3.084   3.442   3.403
 3148SOL    HW1 9733   3.165   3.399   3.443
 3148SOL    HW2 9734   3.093   3.445   3.304
 3149SOL     OW 9735   2.174   2.813   2.112
 3149SOL    HW1 9736   2.259   2.837   2.066
 3149SOL    HW2 9737   2.141   2.726   2.077
 3150SOL     OW 9738   3.340   2.587   2.580
 3150SOL    HW1 9739   3.278   2.510   2.594
 3150SOL    HW2 9740   3.340   2.645   2.661
 3151SOL     OW 9741   2.984   3.656   2.076
 3151SOL    HW1 9742   2.909   3.613   2.127
 3151SOL    HW2 9743   3.019   3.592   2.008
 3152SOL     OW 9744   1.992   2.109   3.329
 3152SOL    HW1 9745   1.919   2.156   3.379
 3152SOL    HW2 9746   2.005   2.018   3.369
 3153SOL     OW 9747   2.328   3.592   2.183
 3153SOL    HW1 9748   2.369   3.660   2.245
 3153SOL    HW2 9749   2.398   3.559   2.120
 3154SOL     OW 9750   3.261   1.964   2.305
 3154SOL    HW1 9751   3.250   1.938   2.209
 3154SOL    HW2 9752   3.358   1.970   2.328
 3155SOL     OW 9753   2.120   3.651   3.081
 3155SOL    HW1 9754   2.170   3.578   3.126
 3155SOL    HW2 9755   2.100   3.625   2.987
 3156SOL     OW 9756   2.798   3.567   2.759
 3156SOL    HW1 9757   2.847   3.501   2.816
 3156SOL    HW2 9758   2.760   3.520   2.679
 3157SOL     OW 9759   2.260   2.546   2.342
 3157SOL    HW1 9760   2.280   2.449   2.356
 3157SOL    HW2 9761   2.162   2.562   2.356
 3158SOL     OW 9762   3.388   2.072   3.594
 3158SOL    HW1 9763   3.397   2.092   3.692
 3158SOL    HW2 9764   3.319   2.000   3.582
 3159SOL     OW 9765   2.509   1.973   1.965
 3159SOL    HW1 9766   2.576   1.902   1.986
 3159SOL    HW2 9767   2.450   1.942   1.890
 3160SOL     OW 9768   2.618   2.061   3.630
 3160SOL    HW1 9769   2.711   2.025   3.625
 3160SOL    HW2 9770   2.620   2.155   3.661
 3161SOL     OW 9771   2.719   3.384   3.064
 3161SOL    HW1 9772   2.700   3.340   2.976
 3161SOL    HW2 9773   2.726   3.314   3.135
 3162SOL     OW 9774   3.259   2.383   3.315
 3162SOL    HW1 9775   3.266   2.375   3.415
 3162SOL    HW2 9776   3.267   2.480   3.289
 3163SOL     OW 9777   2.669   3.274   2.808
 3163SOL    HW1 9778   2.747   3.222   2.775
 3163SOL    HW2 9779   2.594   3.266   2.743
 3164SOL     OW 9780   2.412   1.929   2.354
 3164SOL    HW1 9781   2.328   1.924   2.409
 3164SOL    HW2 9782   2.406   2.007   2.291
 3165SOL     OW 9783   3.267   3.033   1.888
 3165SOL    HW1 9784   3.315   2.968   1.948
 3165SOL    HW2 9785   3.205   3.089   1.943
 3166SOL     OW 9786   2.150   1.910   2.049
 3166SOL    HW1 9787   2.198   1.981   1.997
 3166SOL    HW2 9788   2.217   1.848   2.090
 3167SOL     OW 9789   2.815   2.114   2.313
 3167SOL    HW1 9790   2.787   2.153   2.225
 3167SOL    HW2 9791   2.913   2.128   2.326
 3168SOL     OW 9792   2.314   3.014   2.558
 3168SOL    HW1 9793   2.245   2.988   2.626
 3168SOL    HW2 9794   2.275   3.009   2.467
 3169SOL     OW 9795   3.089   3.724   2.438
 3169SOL    HW1 9796   3.142   3.650   2.399
 3169SOL    HW2 9797   3.101   3.726   2.537
 3170SOL     OW 9798   2.885   2.389   1.893
 3170SOL    HW1 9799   2.838   2.473   1.867
 3170SOL    HW2 9800   2.955   2.410   1.961
 3171SOL     OW 9801   2.740   2.329   2.486
 3171SOL    HW1 9802   2.678   2.381   2.428
 3171SOL    HW2 9803   2.765   2.243   2.441
 3172SOL     OW 9804   2.886   1.896   2.591
 3172SOL    HW1 9805   2.821   1.903   2.515
 3172SOL    HW2 9806   2.856   1.825   2.654
 3173SOL     OW 9807   3.661   2.649   2.262
 3173SOL    HW1 9808   3.730   2.610   2.323
 3173SOL    HW2 9809   3.655   2.594   2.179
 3174SOL     OW 9810   2.355   3.272   2.023
 3174SOL    HW1 9811   2.270   3.252   2.071
 3174SOL    HW2 9812   2.358   3.222   1.937
 3175SOL     OW 9813   3.252   2.434   1.928
 3175SOL    HW1 9814   3.192   2.410   2.004
 3175SOL    HW2 9815   3.347   2.419   1.953
 3176SOL     OW 9816   2.389   2.126   2.167
 3176SOL    HW1 9817   2.439   2.074   2.098
 3176SOL    HW2 9818   2.357   2.212   2.127
 3177SOL     OW 9819   3.472   3.487   3.501
 3177SOL    HW1 9820   3.452   3.525   3.411
 3177SOL    HW2 9821   3.567   3.455   3.502
 3178SOL     OW 9822   2.808   1.942   3.252
 3178SOL    HW1 9823   2.826   1.915   3.157
 3178SOL    HW2 9824   2.891   1.985   3.289
 3179SOL     OW 9825   2.547   2.880   2.223
 3179SOL    HW1 9826   2.551   2.880   2.323
 3179SOL    HW2 9827   2.629   2.837   2.186
 3180SOL     OW 9828   3.154   2.206   3.153
 3180SOL    HW1 9829   3.199   2.272   3.212
 3180SOL    HW2 9830   3.059   2.234   3.137
 3181SOL     OW 9831   1.936   3.430   3.214
 3181SOL    HW1 9832   1.900   3.498   3.150
 3181SOL    HW2 9833   2.036   3.429   3.209
 3182SOL     OW 9834   2.184   2.993   2.322
 3182SOL    HW1 9835   2.177   3.072   2.261
 3182SOL    HW2 9836   2.190   2.909   2.267
 3183SOL     OW 9837   3.444   2.479   2.345
 3183SOL    HW1 9838   3.396   2.525   2.420
 3183SOL    HW2 9839   3.502   2.544   2.298
 3184SOL     OW 9840   2.205   3.395   3.174
 3184SOL    HW1 9841   2.182   3.363   3.082
 3184SOL    HW2 9842   2.304   3.409   3.180
 3185SOL     OW 9843   3.456   2.630   3.566
 3185SOL    HW1 9844   3.370   2.681   3.552
 3185SOL    HW2 9845   3.525   2.665   3.502
 3186SOL     OW 9846   2.874   1.987   3.621
 3186SOL    HW1 9847   2.930   2.068   3.605
 3186SOL    HW2 9848   2.924   1.906   3.589
 3187SOL     OW 9849   2.399   2.701   2.845
 3187SOL    HW1 9850   2.485   2.699   2.794
 3187SOL    HW2 9851   2.418   2.701   2.943
 3188SOL     OW 9852   3.060   2.380   2.122
 3188SOL    HW1 9853   3.076   2.297   2.176
 3188SOL    HW2 9854   3.011   2.447   2.178
 3189SOL     OW 9855   2.144   2.064   3.099
 3189SOL    HW1 9856   2.098   2.095   3.182
 3189SOL    HW2 9857   2.149   1.964   3.100
 3190SOL     OW 9858   1.908   3.166   3.147
 3190SOL    HW1 9859   1.952   3.113   3.220
 3190SOL    HW2 9860   1.917   3.263   3.166
 3191SOL     OW 9861   3.609   2.808   3.732
 3191SOL    HW1 9862   3.566   2.745   3.667
 3191SOL    HW2 9863   3.552   2.815   3.814
 3192SOL     OW 9864   2.173   1.920   2.491
 3192SOL    HW1 9865   2.144   2.014   2.510
 3192SOL    HW2 9866   2.180   1.869   2.576
 3193SOL     OW 9867   3.494   2.244   2.216
 3193SOL    HW1 9868   3.521   2.170   2.277
 3193SOL    HW2 9869   3.466   2.323   2.269
 3194SOL     OW 9870   2.818   3.431   3.557
 3194SOL    HW1 9871   2.800   3.486   3.475
 3194SOL    HW2 9872   2.894   3.368   3.540
 3195SOL     OW 9873   3.732   3.432   3.464
 3195SOL    HW1 9874   3.749   3.434   3.365
 3195SOL    HW2 9875   3.817   3.407   3.511
 3196SOL     OW 9876   3.388   2.125   1.989
 3196SOL    HW1 9877   3.321   2.056   2.018
 3196SOL    HW2 9878   3.426   2.170   2.070
 3197SOL     OW 9879   3.148   2.683   1.884
 3197SOL    HW1 9880   3.188   2.591   1.889
 3197SOL    HW2 9881   3.180   2.729   1.802
 3198SOL     OW 9882   2.143   2.675   2.784
 3198SOL    HW1 9883   2.240   2.698   2.793
 3198SOL    HW2 9884   2.129   2.581   2.816
 3199SOL     OW 9885   2.168   2.415   2.856
 3199SOL    HW1 9886   2.135   2.320   2.858
 3199SOL    HW2 9887   2.255   2.419   2.806
 3200SOL     OW 9888   3.005   2.224   3.573
 3200SOL    HW1 9889   2.964   2.273   3.650
 3200SOL    HW2 9890   3.099   2.256   3.560
 3201SOL     OW 9891   3.037   2.053   3.349
 3201SOL    HW1 9892   3.023   2.120   3.422
 3201SOL    HW2 9893   3.089   2.095   3.275
 3202SOL     OW 9894   1.869   3.171   2.054
 3202SOL    HW1 9895   1.778   3.194   2.018
 3202SOL    HW2 9896   1.868   3.078   2.090
 3203SOL     OW 9897   1.955   3.641   2.809
 3203SOL    HW1 9898   1.918   3.562   2.761
 3203SOL    HW2 9899   2.048   3.659   2.777
 3204SOL     OW 9900   2.351   3.437   2.763
 3204SOL    HW1 9901   2.423   3.502   2.789
 3204SOL    HW2 9902   2.389   3.369   2.700
 3205SOL     OW 9903   3.264   2.816   3.507
 3205SOL    HW1 9904   3.332   2.888   3.518
 3205SOL    HW2 9905   3.254   2.795   3.409
 3206SOL     OW 9906   2.674   2.429   2.218
 3206SOL    HW1 9907   2.684   2.349   2.159
 3206SOL    HW2 9908   2.592   2.480   2.190
 3207SOL     OW 9909   3.546   2.465   3.072
 3207SOL    HW1 9910   3.517   2.390   3.132
 3207SOL    HW2 9911   3.626   2.437   3.020
 3208SOL     OW 9912   2.091   3.410   3.583
 3208SOL    HW1 9913   2.073   3.488   3.643
 3208SOL    HW2 9914   2.094   3.326   3.639
 3209SOL     OW 9915   2.760   3.564   3.334
 3209SOL    HW1 9916   2.744   3.509   3.252
 3209SOL    HW2 9917   2.757   3.661   3.309
 3210SOL     OW 9918   2.310   2.354   2.043
 3210SOL    HW1 9919   2.376   2.424   2.068
 3210SOL    HW2 9920   2.219   2.395   2.033
 3211SOL     OW 9921   2.014   2.995   3.341
 3211SOL    HW1 9922   2.077   2.977   3.416
 3211SOL    HW2 9923   2.027   2.925   3.270
 3212SOL     OW 9924   3.205   2.687   2.154
 3212SOL    HW1 9925   3.128   2.661   2.212
 3212SOL    HW2 9926   3.175   2.687   2.058
 3213SOL     OW 9927   1.955   3.111   2.880
 3213SOL    HW1 9928   1.932   3.130   2.975
 3213SOL    HW2 9929   1.880   3.059   2.838
 3214SOL     OW 9930   2.534   3.533   3.610
 3214SOL    HW1 9931   2.481   3.615   3.588
 3214SOL    HW2 9932   2.618   3.533   3.556
 3215SOL     OW 9933   3.589   2.020   2.356
 3215SOL    HW1 9934   3.660   2.007   2.287
 3215SOL    HW2 9935   3.568   1.933   2.400
 3216SOL     OW 9936   2.007   3.646   3.708
 3216SOL    HW1 9937   1.947   3.578   3.752
 3216SOL    HW2 9938   2.056   3.697   3.779
 3217SOL     OW 9939   2.681   3.221   3.286
 3217SOL    HW1 9940   2.652   3.250   3.376
 3217SOL    HW2 9941   2.619   3.150   3.251
 3218SOL     OW 9942   2.529   3.478   2.013
 3218SOL    HW1 9943   2.543   3.502   1.917
 3218SOL    HW2 9944   2.466   3.401   2.018
 3219SOL     OW 9945   3.467   3.593   3.243
 3219SOL    HW1 9946   3.538   3.586   3.173
 3219SOL    HW2 9947   3.457   3.689   3.270
 3220SOL     OW 9948   3.702   2.024   2.822
 3220SOL    HW1 9949   3.735   1.931   2.802
 3220SOL    HW2 9950   3.612   2.036   2.782
 3221SOL     OW 9951   2.111   2.173   2.574
 3221SOL    HW1 9952   2.023   2.208   2.544
 3221SOL    HW2 9953   2.115   2.170   2.674
 3222SOL     OW 9954   3.058   3.467   1.890
 3222SOL    HW1 9955   3.057   3.373   1.925
 3222SOL    HW2 9956   2.987   3.477   1.820
 3223SOL     OW 9957   2.736   2.727   2.085
 3223SOL    HW1 9958   2.807   2.777   2.036
 3223SOL    HW2 9959   2.779   2.665   2.151
 3224SOL     OW 9960   3.339   3.444   1.872
 3224SOL    HW1 9961   3.241   3.462   1.863
 3224SOL    HW2 9962   3.384   3.459   1.784
 3225SOL     OW 9963   2.281   3.205   3.389
 3225SOL    HW1 9964   2.240   3.263   3.320
 3225SOL    HW2 9965   2.216   3.135   3.418
 3226SOL     OW 9966   2.929   2.053   2.825
 3226SOL    HW1 9967   2.917   2.014   2.734
 3226SOL    HW2 9968   2.910   1.984   2.894
 3227SOL     OW 9969   2.454   3.350   2.342
 3227SOL    HW1 9970   2.468   3.286   2.267
 3227SOL    HW2 9971   2.386   3.419   2.314
 3228SOL     OW 9972   3.614   2.237   3.255
 3228SOL    HW1 9973   3.681   2.311   3.249
 3228SOL    HW2 9974   3.637   2.166   3.189
 3229SOL     OW 9975   2.120   3.211   2.159
 3229SOL    HW1 9976   2.026   3.204   2.126
 3229SOL    HW2 9977   2.121   3.255   2.249
 3230SOL     OW 9978   1.944   2.900   3.641
 3230SOL    HW1 9979   1.894   2.855   3.566
 3230SOL    HW2 9980   2.040   2.908   3.616
 3231SOL     OW 9981   2.572   2.019   3.359
 3231SOL    HW1 9982   2.660   1.998   3.317
 3231SOL    HW2 9983   2.585   2.037   3.456
 3232SOL     OW 9984   1.943   2.186   1.884
 3232SOL    HW1 9985   1.857   2.161   1.840
 3232SOL    HW2 9986   1.978   2.271   1.843
 3233SOL     OW 9987   1.919   2.017   2.153
 3233SOL    HW1 9988   1.902   2.097   2.095
 3233SOL    HW2 9989   2.009   1.978   2.130
 3234SOL     OW 9990   3.041   3.207   1.986
 3234SOL    HW1 9991   2.945   3.183   1.976
 3234SOL    HW2 9992   3.068   3.201   2.082
 3235SOL     OW 9993   3.308   3.693   2.879
 3235SOL    HW1 9994   3.343   3.754   2.808
 3235SOL    HW2 9995   3.339   3.599   2.860
 3236SOL     OW 9996   2.631   2.318   3.705
 3236SOL    HW1 9997   2.566   2.393   3.690
 3236SOL    HW2 9998   2.718   2.341   3.661
 3237SOL     OW 9999   2.229   3.606   3.433
 3237SOL    HW110000   2.145   3.658   3.417
 3237SOL    HW210001   2.205   3.515   3.468
 3238SOL     OW10002   3.493   2.714   3.172
 3238SOL    HW110003   3.525   2.635   3.119
 3238SOL    HW210004   3.556   2.790   3.158
 3239SOL     OW10005   3.088   2.180   2.329
 3239SOL    HW110006   3.146   2.100   2.317
 3239SOL    HW210007   3.122   2.235   2.405
 3240SOL     OW10008   2.458   2.612   2.527
 3240SOL    HW110009   2.491   2.704   2.506
 3240SOL    HW210010   2.386   2.586   2.463
 3241SOL     OW10011   3.610   2.216   3.528
 3241SOL    HW110012   3.610   2.231   3.429
 3241SOL    HW210013   3.533   2.157   3.552
 3242SOL     OW10014   3.622   2.758   3.409
 3242SOL    HW110015   3.615   2.858   3.413
 3242SOL    HW210016   3.584   2.726   3.322
 3243SOL     OW10017   2.724   3.249   1.909
 3243SOL    HW110018   2.680   3.310   1.975
 3243SOL    HW210019   2.757   3.303   1.831
 3244SOL     OW10020   2.527   3.641   2.797
 3244SOL    HW110021   2.501   3.736   2.780
 3244SOL    HW210022   2.626   3.631   2.788
 3245SOL     OW10023   2.928   2.835   1.932
 3245SOL    HW110024   2.909   2.897   1.856
 3245SOL    HW210025   3.011   2.784   1.913
 3246SOL     OW10026   2.077   3.173   3.723
 3246SOL    HW110027   2.093   3.090   3.669
 3246SOL    HW210028   2.125   3.165   3.810
 3247SOL     OW10029   1.956   3.082   2.515
 3247SOL    HW110030   1.989   3.035   2.596
 3247SOL    HW210031   2.010   3.054   2.436
 3248SOL     OW10032   2.516   3.270   3.513
 3248SOL    HW110033   2.432   3.241   3.467
 3248SOL    HW210034   2.506   3.365   3.543
 3249SOL     OW10035   3.672   2.032   3.093
 3249SOL    HW110036   3.678   1.934   3.111
 3249SOL    HW210037   3.682   2.049   2.995
 3250SOL     OW10038   2.295   2.283   2.392
 3250SOL    HW110039   2.325   2.219   2.322
 3250SOL    HW210040   2.231   2.238   2.454
 3251SOL     OW10041   2.702   3.445   2.534
 3251SOL    HW110042   2.688   3.518   2.466
 3251SOL    HW210043   2.623   3.384   2.533
 3252SOL     OW10044   3.306   2.085   2.969
 3252SOL    HW110045   3.317   1.989   2.994
 3252SOL    HW210046   3.255   2.133   3.041
 3253SOL     OW10047   2.872   1.851   3.002
 3253SOL    HW110048   2.807   1.791   2.956
 3253SOL    HW210049   2.963   1.811   2.998
 3254SOL     OW10050   2.468   3.443   3.163
 3254SOL    HW110051   2.473   3.532   3.210
 3254SOL    HW210052   2.556   3.423   3.119
 3255SOL     OW10053   3.222   1.906   2.040
 3255SOL    HW110054   3.268   1.837   1.984
 3255SOL    HW210055   3.127   1.877   2.057
 3256SOL     OW10056   3.183   2.338   2.553
 3256SOL    HW110057   3.108   2.404   2.544
 3256SOL    HW210058   3.171   2.285   2.637
 3257SOL     OW10059   3.448   2.059   2.740
 3257SOL    HW110060   3.396   2.079   2.823
 3257SOL    HW210061   3.454   2.141   2.684
 3258SOL     OW10062   1.903   2.919   2.172
 3258SOL    HW110063   2.000   2.915   2.148
 3258SOL    HW210064   1.870   2.827   2.192
 3259SOL     OW10065   2.742   3.530   2.193
 3259SOL    HW110066   2.666   3.511   2.130
 3259SOL    HW210067   2.717   3.606   2.253
 3260SOL     OW10068   2.080   2.145   4.726
 3260SOL    HW110069   2.113   2.111   4.813
 3260SOL    HW210070   1.988   2.110   4.709
 3261SOL     OW10071   2.432   3.168   4.918
 3261SOL    HW110072   2.343   3.169   4.872
 3261SOL    HW210073   2.453   3.260   4.952
 3262SOL     OW10074   3.435   3.379   4.432
 3262SOL    HW110075   3.391   3.352   4.518
 3262SOL    HW210076   3.365   3.386   4.360
 3263SOL     OW10077   2.996   2.571   4.421
 3263SOL    HW110078   3.049   2.654   4.404
 3263SOL    HW210079   2.947   2.579   4.507
 3264SOL     OW10080   3.636   2.453   3.950
 3264SOL    HW110081   3.610   2.449   3.853
 3264SOL    HW210082   3.599   2.373   3.998
 3265SOL     OW10083   2.593   2.999   4.768
 3265SOL    HW110084   2.529   3.036   4.836
 3265SOL    HW210085   2.640   3.074   4.723
 3266SOL     OW10086   2.737   2.618   5.551
 3266SOL    HW110087   2.721   2.680   5.628
 3266SOL    HW210088   2.761   2.671   5.470
 3267SOL     OW10089   2.548   2.858   4.384
 3267SOL    HW110090   2.620   2.857   4.454
 3267SOL    HW210091   2.474   2.918   4.414
 3268SOL     OW10092   2.573   3.026   5.545
 3268SOL    HW110093   2.626   3.104   5.579
 3268SOL    HW210094   2.489   3.059   5.501
 3269SOL     OW10095   2.194   3.276   4.789
 3269SOL    HW110096   2.114   3.234   4.746
 3269SOL    HW210097   2.241   3.332   4.721
 3270SOL     OW10098   3.318   3.367   5.086
 3270SOL    HW110099   3.377   3.447   5.093
 3270SOL    HW210100   3.246   3.373   5.156
 3271SOL     OW10101   2.314   2.246   5.191
 3271SOL    HW110102   2.397   2.191   5.205
 3271SOL    HW210103   2.234   2.194   5.219
 3272SOL     OW10104   3.470   2.305   4.474
 3272SOL    HW110105   3.408   2.328   4.399
 3272SOL    HW210106   3.465   2.374   4.545
 3273SOL     OW10107   2.089   3.575   4.194
 3273SOL    HW110108   2.106   3.652   4.255
 3273SOL    HW210109   2.163   3.569   4.127
 3274SOL     OW10110   2.999   3.199   5.421
 3274SOL    HW110111   3.053   3.196   5.506
 3274SOL    HW210112   2.945   3.115   5.414
 3275SOL     OW10113   2.084   3.309   4.264
 3275SOL    HW110114   2.082   3.409   4.254
 3275SOL    HW210115   2.026   3.282   4.340
 3276SOL     OW10116   2.133   2.951   4.613
 3276SOL    HW110117   2.136   2.858   4.650
 3276SOL    HW210118   2.076   3.009   4.671
 3277SOL     OW10119   2.449   3.661   5.146
 3277SOL    HW110120   2.367   3.636   5.198
 3277SOL    HW210121   2.484   3.749   5.178
 3278SOL     OW10122   2.497   2.854   3.874
 3278SOL    HW110123   2.421   2.908   3.838
 3278SOL    HW210124   2.526   2.893   3.962
 3279SOL     OW10125   3.457   1.990   5.192
 3279SOL    HW110126   3.489   2.069   5.140
 3279SOL    HW210127   3.436   2.017   5.286
 3280SOL     OW10128   1.965   2.494   4.318
 3280SOL    HW110129   1.917   2.413   4.352
 3280SOL    HW210130   1.971   2.562   4.392
 3281SOL     OW10131   3.713   3.617   4.060
 3281SOL    HW110132   3.788   3.590   4.120
 3281SOL    HW210133   3.726   3.712   4.032
 3282SOL     OW10134   1.881   3.450   3.844
 3282SOL    HW110135   1.883   3.353   3.867
 3282SOL    HW210136   1.867   3.504   3.927
 3283SOL     OW10137   3.556   2.782   4.377
 3283SOL    HW110138   3.642   2.732   4.366
 3283SOL    HW210139   3.538   2.835   4.294
 3284SOL     OW10140   3.524   2.962   4.161
 3284SOL    HW110141   3.612   2.959   4.115
 3284SOL    HW210142   3.526   3.031   4.234
 3285SOL     OW10143   1.988   2.606   5.307
 3285SOL    HW110144   2.084   2.635   5.307
 3285SOL    HW210145   1.929   2.686   5.305
 3286SOL     OW10146   2.475   3.256   4.454
 3286SOL    HW110147   2.430   3.167   4.465
 3286SOL    HW210148   2.462   3.289   4.361
 3287SOL     OW10149   3.146   3.093   5.144
 3287SOL    HW110150   3.171   3.022   5.078
 3287SOL    HW210151   3.208   3.090   5.222
 3288SOL     OW10152   2.679   1.875   4.232
 3288SOL    HW110153   2.726   1.961   4.213
 3288SOL    HW210154   2.580   1.892   4.238
 3289SOL     OW10155   2.052   2.819   5.008
 3289SOL    HW110156   2.142   2.778   4.994
 3289SOL    HW210157   1.984   2.770   4.954
 3290SOL     OW10158   3.421   2.830   3.941
 3290SOL    HW110159   3.340   2.779   3.968
 3290SOL    HW210160   3.461   2.873   4.022
 3291SOL     OW10161   3.033   3.676   5.346
 3291SOL    HW110162   3.047   3.747   5.277
 3291SOL    HW210163   3.061   3.588   5.308
 3292SOL     OW10164   2.213   2.117   5.560
 3292SOL    HW110165   2.259   2.197   5.599
 3292SOL    HW210166   2.115   2.123   5.577
 3293SOL     OW10167   3.327   3.283   4.665
 3293SOL    HW110168   3.263   3.303   4.739
 3293SOL    HW210169   3.319   3.187   4.638
 3294SOL     OW10170   3.504   3.627   4.301
 3294SOL    HW110171   3.493   3.590   4.208
 3294SOL    HW210172   3.492   3.553   4.367
 3295SOL     OW10173   3.139   2.232   4.660
 3295SOL    HW110174   3.046   2.195   4.666
 3295SOL    HW210175   3.199   2.179   4.720
 3296SOL     OW10176   3.456   3.533   4.036
 3296SOL    HW110177   3.551   3.562   4.040
 3296SOL    HW210178   3.436   3.498   3.944
 3297SOL     OW10179   2.648   2.476   5.168
 3297SOL    HW110180   2.626   2.451   5.263
 3297SOL    HW210181   2.619   2.403   5.107
 3298SOL     OW10182   3.253   2.328   5.399
 3298SOL    HW110183   3.258   2.384   5.482
 3298SOL    HW210184   3.307   2.245   5.412
 3299SOL     OW10185   2.813   2.746   5.314
 3299SOL    HW110186   2.870   2.675   5.273
 3299SOL    HW210187   2.758   2.789   5.242
 3300SOL     OW10188   2.859   2.263   4.943
 3300SOL    HW110189   2.765   2.279   4.975
 3300SOL    HW210190   2.856   2.210   4.858
 3301SOL     OW10191   2.922   2.552   4.157
 3301SOL    HW110192   2.945   2.555   4.254
 3301SOL    HW210193   2.837   2.501   4.145
 3302SOL     OW10194   1.955   2.694   4.505
 3302SOL    HW110195   2.042   2.682   4.553
 3302SOL    HW210196   1.904   2.770   4.548
 3303SOL     OW10197   1.987   3.741   5.316
 3303SOL    HW110198   1.997   3.715   5.412
 3303SOL    HW210199   1.900   3.707   5.281
 3304SOL     OW10200   2.768   2.192   3.935
 3304SOL    HW110201   2.803   2.260   3.870
 3304SOL    HW210202   2.778   2.100   3.895
 3305SOL     OW10203   3.544   2.423   5.558
 3305SOL    HW110204   3.521   2.506   5.507
 3305SOL    HW210205   3.581   2.355   5.494
 3306SOL     OW10206   3.248   3.001   4.251
 3306SOL    HW110207   3.335   2.990   4.203
 3306SOL    HW210208   3.195   3.074   4.207
 3307SOL     OW10209   2.406   2.026   4.633
 3307SOL    HW110210   2.413   2.056   4.728
 3307SOL    HW210211   2.403   2.106   4.573
 3308SOL     OW10212   2.858   3.313   4.174
 3308SOL    HW110213   2.823   3.396   4.131
 3308SOL    HW210214   2.841   3.317   4.273
 3309SOL     OW10215   2.217   3.678   4.601
 3309SOL    HW110216   2.263   3.589   4.607
 3309SOL    HW210217   2.282   3.751   4.621
 3310SOL     OW10218   3.661   2.916   4.604
 3310SOL    HW110219   3.611   2.893   4.520
 3310SOL    HW210220   3.596   2.922   4.680
 3311SOL     OW10221   3.086   3.399   5.239
 3311SOL    HW110222   3.077   3.323   5.303
 3311SOL    HW210223   3.017   3.389   5.167
 3312SOL     OW10224   2.140   2.835   3.958
 3312SOL    HW110225   2.168   2.893   3.881
 3312SOL    HW210226   2.182   2.745   3.948
 3313SOL     OW10227   3.346   2.618   4.444
 3313SOL    HW110228   3.345   2.573   4.533
 3313SOL    HW210229   3.428   2.676   4.437
 3314SOL     OW10230   2.326   3.134   5.460
 3314SOL    HW110231   2.301   3.139   5.363
 3314SOL    HW210232   2.242   3.129   5.515
 3315SOL     OW10233   2.988   3.582   3.914
 3315SOL    HW110234   2.914   3.572   3.980
 3315SOL    HW210235   2.951   3.595   3.823
 3316SOL     OW10236   2.064   2.128   5.227
 3316SOL    HW110237   1.983   2.187   5.234
 3316SOL    HW210238   2.043   2.039   5.266
 3317SOL     OW10239   3.504   3.241   3.839
 3317SOL    HW110240   3.480   3.325   3.789
 3317SOL    HW210241   3.441   3.168   3.814
 3318SOL     OW10242   2.324   3.597   4.041
 3318SOL    HW110243   2.367   3.659   4.106
 3318SOL    HW210244   2.393   3.561   3.979
 3319SOL     OW10245   3.264   1.964   4.168
 3319SOL    HW110246   3.253   1.937   4.072
 3319SOL    HW210247   3.361   1.970   4.190
 3320SOL     OW10248   2.118   3.652   4.946
 3320SOL    HW110249   2.169   3.579   4.991
 3320SOL    HW210250   2.104   3.629   4.850
 3321SOL     OW10251   2.801   3.566   4.619
 3321SOL    HW110252   2.884   3.522   4.651
 3321SOL    HW210253   2.761   3.512   4.544
 3322SOL     OW10254   3.382   2.083   5.458
 3322SOL    HW110255   3.393   2.107   5.554
 3322SOL    HW210256   3.319   2.005   5.450
 3323SOL     OW10257   2.469   1.961   3.832
 3323SOL    HW110258   2.507   1.872   3.854
 3323SOL    HW210259   2.513   1.997   3.750
 3324SOL     OW10260   2.628   2.143   5.474
 3324SOL    HW110261   2.712   2.088   5.469
 3324SOL    HW210262   2.596   2.143   5.569
 3325SOL     OW10263   2.734   3.375   4.917
 3325SOL    HW110264   2.715   3.336   4.827
 3325SOL    HW210265   2.806   3.322   4.962
 3326SOL     OW10266   3.198   2.452   5.160
 3326SOL    HW110267   3.230   2.415   5.247
 3326SOL    HW210268   3.236   2.544   5.147
 3327SOL     OW10269   2.683   3.243   4.669
 3327SOL    HW110270   2.774   3.235   4.628
 3327SOL    HW210271   2.615   3.256   4.596
 3328SOL     OW10272   2.785   2.369   4.619
 3328SOL    HW110273   2.759   2.359   4.523
 3328SOL    HW210274   2.819   2.281   4.654
 3329SOL     OW10275   2.405   1.924   4.215
 3329SOL    HW110276   2.329   1.920   4.280
 3329SOL    HW210277   2.394   2.003   4.155
 3330SOL     OW10278   3.320   3.042   3.802
 3330SOL    HW110279   3.373   2.962   3.831
 3330SOL    HW210280   3.234   3.044   3.852
 3331SOL     OW10281   2.166   1.917   3.888
 3331SOL    HW110282   2.244   1.975   3.865
 3331SOL    HW210283   2.194   1.845   3.951
 3332SOL     OW10284   2.815   2.111   4.189
 3332SOL    HW110285   2.791   2.143   4.098
 3332SOL    HW210286   2.914   2.122   4.203
 3333SOL     OW10287   2.941   2.549   5.175
 3333SOL    HW110288   2.869   2.480   5.183
 3333SOL    HW210289   3.030   2.505   5.173
 3334SOL     OW10290   3.079   3.433   4.517
 3334SOL    HW110291   3.093   3.504   4.447
 3334SOL    HW210292   3.151   3.440   4.586
 3335SOL     OW10293   2.329   3.016   4.438
 3335SOL    HW110294   2.264   2.995   4.510
 3335SOL    HW210295   2.286   3.004   4.349
 3336SOL     OW10296   3.120   3.655   4.335
 3336SOL    HW110297   3.176   3.720   4.283
 3336SOL    HW210298   3.046   3.704   4.381
 3337SOL     OW10299   2.917   2.379   3.786
 3337SOL    HW110300   2.914   2.476   3.761
 3337SOL    HW210301   2.981   2.366   3.861
 3338SOL     OW10302   1.952   2.422   5.112
 3338SOL    HW110303   2.047   2.415   5.081
 3338SOL    HW210304   1.945   2.490   5.184
 3339SOL     OW10305   2.420   2.084   4.902
 3339SOL    HW110306   2.471   2.015   4.954
 3339SOL    HW210307   2.324   2.083   4.931
 3340SOL     OW10308   2.726   2.317   4.358
 3340SOL    HW110309   2.687   2.379   4.289
 3340SOL    HW210310   2.759   2.234   4.314
 3341SOL     OW10311   2.878   1.916   4.466
 3341SOL    HW110312   2.818   1.913   4.386
 3341SOL    HW210313   2.855   1.841   4.528
 3342SOL     OW10314   3.312   3.021   4.584
 3342SOL    HW110315   3.237   2.956   4.585
 3342SOL    HW210316   3.348   3.030   4.491
 3343SOL     OW10317   3.332   2.473   4.686
 3343SOL    HW110318   3.266   2.397   4.688
 3343SOL    HW210319   3.391   2.467   4.766
 3344SOL     OW10320   3.695   2.666   4.107
 3344SOL    HW110321   3.756   2.621   4.172
 3344SOL    HW210322   3.671   2.602   4.034
 3345SOL     OW10323   2.352   3.276   3.883
 3345SOL    HW110324   2.271   3.256   3.938
 3345SOL    HW210325   2.357   3.214   3.805
 3346SOL     OW10326   3.542   3.128   4.370
 3346SOL    HW110327   3.641   3.122   4.381
 3346SOL    HW210328   3.512   3.222   4.388
 3347SOL     OW10329   3.263   2.453   3.814
 3347SOL    HW110330   3.210   2.421   3.893
 3347SOL    HW210331   3.360   2.436   3.830
 3348SOL     OW10332   2.383   2.120   4.029
 3348SOL    HW110333   2.421   2.068   3.953
 3348SOL    HW210334   2.441   2.200   4.047
 3349SOL     OW10335   3.611   3.104   5.270
 3349SOL    HW110336   3.700   3.063   5.252
 3349SOL    HW210337   3.623   3.196   5.308
 3350SOL     OW10338   2.911   3.210   5.060
 3350SOL    HW110339   2.829   3.181   5.109
 3350SOL    HW210340   2.991   3.169   5.102
 3351SOL     OW10341   3.472   3.492   5.376
 3351SOL    HW110342   3.461   3.529   5.284
 3351SOL    HW210343   3.557   3.440   5.381
 3352SOL     OW10344   3.005   3.091   4.828
 3352SOL    HW110345   2.945   3.125   4.901
 3352SOL    HW210346   2.972   3.123   4.740
 3353SOL     OW10347   3.481   2.957   4.806
 3353SOL    HW110348   3.477   3.023   4.881
 3353SOL    HW210349   3.409   2.977   4.740
 3354SOL     OW10350   2.787   1.952   5.112
 3354SOL    HW110351   2.809   1.929   5.017
 3354SOL    HW210352   2.866   1.995   5.155
 3355SOL     OW10353   2.843   2.972   5.458
 3355SOL    HW110354   2.749   2.992   5.484
 3355SOL    HW210355   2.845   2.890   5.400
 3356SOL     OW10356   2.596   2.931   4.120
 3356SOL    HW110357   2.573   2.908   4.214
 3356SOL    HW210358   2.671   2.873   4.089
 3357SOL     OW10359   2.287   2.678   4.978
 3357SOL    HW110360   2.359   2.693   5.046
 3357SOL    HW210361   2.250   2.585   4.989
 3358SOL     OW10362   3.123   2.237   5.008
 3358SOL    HW110363   3.158   2.317   5.058
 3358SOL    HW210364   3.028   2.254   4.982
 3359SOL     OW10365   1.940   3.433   5.078
 3359SOL    HW110366   1.905   3.505   5.019
 3359SOL    HW210367   2.040   3.430   5.073
 3360SOL     OW10368   2.190   2.987   4.196
 3360SOL    HW110369   2.196   3.077   4.153
 3360SOL    HW210370   2.177   2.918   4.125
 3361SOL     OW10371   2.406   2.404   4.588
 3361SOL    HW110372   2.427   2.466   4.513
 3361SOL    HW210373   2.473   2.417   4.662
 3362SOL     OW10374   3.117   3.218   4.133
 3362SOL    HW110375   3.173   3.295   4.165
 3362SOL    HW210376   3.021   3.237   4.151
 3363SOL     OW10377   3.158   3.326   4.871
 3363SOL    HW110378   3.214   3.335   4.953
 3363SOL    HW210379   3.106   3.241   4.875
 3364SOL     OW10380   3.435   2.478   4.214
 3364SOL    HW110381   3.386   2.529   4.285
 3364SOL    HW210382   3.490   2.542   4.160
 3365SOL     OW10383   2.210   3.393   5.030
 3365SOL    HW110384   2.196   3.345   4.943
 3365SOL    HW210385   2.308   3.408   5.044
 3366SOL     OW10386   2.281   2.606   5.322
 3366SOL    HW110387   2.349   2.651   5.264
 3366SOL    HW210388   2.314   2.516   5.349
 3367SOL     OW10389   3.478   2.646   5.414
 3367SOL    HW110390   3.387   2.687   5.411
 3367SOL    HW210391   3.535   2.685   5.341
 3368SOL     OW10392   2.860   1.997   5.472
 3368SOL    HW110393   2.917   2.079   5.461
 3368SOL    HW210394   2.910   1.917   5.441
 3369SOL     OW10395   2.355   1.896   5.468
 3369SOL    HW110396   2.304   1.838   5.405
 3369SOL    HW210397   2.302   1.978   5.488
 3370SOL     OW10398   2.443   2.737   4.757
 3370SOL    HW110399   2.485   2.828   4.759
 3370SOL    HW210400   2.387   2.725   4.839
 3371SOL     OW10401   3.202   2.718   4.741
 3371SOL    HW110402   3.109   2.701   4.707
 3371SOL    HW210403   3.257   2.635   4.730
 3372SOL     OW10404   3.073   2.377   4.007
 3372SOL    HW110405   3.086   2.296   4.064
 3372SOL    HW210406   3.033   2.450   4.061
 3373SOL     OW10407   2.157   2.056   4.972
 3373SOL    HW110408   2.122   2.091   5.059
 3373SOL    HW210409   2.143   1.957   4.968
 3374SOL     OW10410   1.921   3.173   4.994
 3374SOL    HW110411   1.949   3.110   5.067
 3374SOL    HW210412   1.920   3.267   5.029
 3375SOL     OW10413   2.583   2.491   4.777
 3375SOL    HW110414   2.661   2.470   4.718
 3375SOL    HW210415   2.550   2.583   4.758
 3376SOL     OW10416   3.614   2.830   5.570
 3376SOL    HW110417   3.571   2.754   5.521
 3376SOL    HW210418   3.555   2.859   5.645
 3377SOL     OW10419   2.171   1.917   4.359
 3377SOL    HW110420   2.151   2.013   4.377
 3377SOL    HW210421   2.183   1.868   4.445
 3378SOL     OW10422   3.489   2.245   4.081
 3378SOL    HW110423   3.519   2.170   4.141
 3378SOL    HW210424   3.460   2.323   4.137
 3379SOL     OW10425   2.885   2.615   4.682
 3379SOL    HW110426   2.876   2.636   4.779
 3379SOL    HW210427   2.858   2.521   4.665
 3380SOL     OW10428   2.839   3.417   5.438
 3380SOL    HW110429   2.821   3.467   5.354
 3380SOL    HW210430   2.893   3.335   5.418
 3381SOL     OW10431   3.713   3.362   5.325
 3381SOL    HW110432   3.736   3.389   5.232
 3381SOL    HW210433   3.793   3.372   5.383
 3382SOL     OW10434   2.218   2.779   5.523
 3382SOL    HW110435   2.301   2.804   5.574
 3382SOL    HW210436   2.241   2.712   5.453
 3383SOL     OW10437   3.382   2.127   3.855
 3383SOL    HW110438   3.318   2.056   3.885
 3383SOL    HW210439   3.422   2.172   3.935
 3384SOL     OW10440   3.142   2.686   3.731
 3384SOL    HW110441   3.192   2.602   3.752
 3384SOL    HW210442   3.187   2.733   3.654
 3385SOL     OW10443   2.935   3.204   4.581
 3385SOL    HW110444   2.942   3.125   4.521
 3385SOL    HW210445   2.991   3.278   4.546
 3386SOL     OW10446   2.179   2.668   4.661
 3386SOL    HW110447   2.276   2.695   4.668
 3386SOL    HW210448   2.168   2.575   4.694
 3387SOL     OW10449   2.180   2.392   4.730
 3387SOL    HW110450   2.143   2.299   4.726
 3387SOL    HW210451   2.263   2.398   4.674
 3388SOL     OW10452   2.998   2.232   5.416
 3388SOL    HW110453   2.946   2.290   5.478
 3388SOL    HW210454   3.091   2.267   5.406
 3389SOL     OW10455   3.023   2.062   5.200
 3389SOL    HW110456   3.009   2.123   5.278
 3389SOL    HW210457   3.069   2.112   5.127
 3390SOL     OW10458   1.861   3.175   3.909
 3390SOL    HW110459   1.764   3.188   3.890
 3390SOL    HW210460   1.907   3.141   3.827
 3391SOL     OW10461   1.955   3.639   4.669
 3391SOL    HW110462   1.919   3.559   4.621
 3391SOL    HW210463   2.048   3.658   4.637
 3392SOL     OW10464   2.352   3.437   4.626
 3392SOL    HW110465   2.422   3.503   4.653
 3392SOL    HW210466   2.391   3.370   4.563
 3393SOL     OW10467   2.826   2.654   4.946
 3393SOL    HW110468   2.889   2.632   5.020
 3393SOL    HW210469   2.738   2.609   4.964
 3394SOL     OW10470   1.905   2.426   4.840
 3394SOL    HW110471   1.990   2.415   4.789
 3394SOL    HW210472   1.924   2.424   4.938
 3395SOL     OW10473   2.050   2.388   5.464
 3395SOL    HW110474   2.106   2.330   5.405
 3395SOL    HW210475   2.017   2.467   5.413
 3396SOL     OW10476   3.249   2.795   5.377
 3396SOL    HW110477   3.272   2.892   5.376
 3396SOL    HW210478   3.243   2.760   5.284
 3397SOL     OW10479   2.687   2.419   4.085
 3397SOL    HW110480   2.708   2.338   4.029
 3397SOL    HW210481   2.653   2.492   4.026
 3398SOL     OW10482   3.504   2.465   4.899
 3398SOL    HW110483   3.488   2.406   4.978
 3398SOL    HW210484   3.597   2.450   4.865
 3399SOL     OW10485   2.098   3.405   5.449
 3399SOL    HW110486   2.077   3.481   5.511
 3399SOL    HW210487   2.102   3.320   5.500
 3400SOL     OW10488   2.581   2.303   4.971
 3400SOL    HW110489   2.519   2.227   4.952
 3400SOL    HW210490   2.573   2.372   4.900
 3401SOL     OW10491   2.774   3.541   5.199
 3401SOL    HW110492   2.749   3.494   5.115
 3401SOL    HW210493   2.779   3.640   5.182
 3402SOL     OW10494   1.999   3.002   5.199
 3402SOL    HW110495   2.004   2.963   5.291
 3402SOL    HW210496   2.021   2.931   5.132
 3403SOL     OW10497   3.171   2.903   4.939
 3403SOL    HW110498   3.196   2.835   4.870
 3403SOL    HW210499   3.109   2.970   4.899
 3404SOL     OW10500   3.184   2.716   4.013
 3404SOL    HW110501   3.111   2.697   4.078
 3404SOL    HW210502   3.149   2.707   3.920
 3405SOL     OW10503   3.646   3.584   4.885
 3405SOL    HW110504   3.709   3.617   4.814
 3405SOL    HW210505   3.613   3.493   4.860
 3406SOL     OW10506   3.102   3.593   4.818
 3406SOL    HW110507   3.188   3.626   4.781
 3406SOL    HW210508   3.112   3.497   4.846
 3407SOL     OW10509   1.956   3.121   4.733
 3407SOL    HW110510   1.940   3.140   4.829
 3407SOL    HW210511   1.883   3.062   4.698
 3408SOL     OW10512   2.544   3.542   5.470
 3408SOL    HW110513   2.478   3.617   5.462
 3408SOL    HW210514   2.620   3.558   5.408
 3409SOL     OW10515   3.586   2.021   4.217
 3409SOL    HW110516   3.659   2.009   4.149
 3409SOL    HW210517   3.567   1.933   4.261
 3410SOL     OW10518   3.260   3.440   4.214
 3410SOL    HW110519   3.326   3.473   4.146
 3410SOL    HW210520   3.207   3.517   4.249
 3411SOL     OW10521   2.018   3.648   5.569
 3411SOL    HW110522   1.957   3.584   5.616
 3411SOL    HW210523   2.074   3.696   5.636
 3412SOL     OW10524   3.146   2.794   4.387
 3412SOL    HW110525   3.221   2.730   4.406
 3412SOL    HW210526   3.180   2.869   4.331
 3413SOL     OW10527   2.656   3.144   5.146
 3413SOL    HW110528   2.627   3.189   5.231
 3413SOL    HW210529   2.585   3.155   5.077
 3414SOL     OW10530   2.523   3.489   3.880
 3414SOL    HW110531   2.538   3.507   3.783
 3414SOL    HW210532   2.469   3.405   3.890
 3415SOL     OW10533   3.476   3.593   5.110
 3415SOL    HW110534   3.537   3.592   5.030
 3415SOL    HW210535   3.462   3.687   5.140
 3416SOL     OW10536   3.704   2.027   4.686
 3416SOL    HW110537   3.739   1.936   4.667
 3416SOL    HW210538   3.613   2.037   4.647
 3417SOL     OW10539   2.128   2.163   4.454
 3417SOL    HW110540   2.068   2.236   4.422
 3417SOL    HW210541   2.121   2.156   4.554
 3418SOL     OW10542   2.685   2.873   5.108
 3418SOL    HW110543   2.739   2.855   5.025
 3418SOL    HW210544   2.680   2.972   5.123
 3419SOL     OW10545   2.795   2.769   4.040
 3419SOL    HW110546   2.843   2.800   3.958
 3419SOL    HW210547   2.849   2.699   4.086
 3420SOL     OW10548   3.386   3.488   3.752
 3420SOL    HW110549   3.342   3.576   3.769
 3420SOL    HW210550   3.425   3.487   3.660
 3421SOL     OW10551   2.225   3.166   5.213
 3421SOL    HW110552   2.218   3.247   5.153
 3421SOL    HW210553   2.145   3.108   5.201
 3422SOL     OW10554   3.472   3.148   5.011
 3422SOL    HW110555   3.533   3.125   5.086
 3422SOL    HW210556   3.407   3.218   5.040
 3423SOL     OW10557   2.933   2.970   4.446
 3423SOL    HW110558   2.856   2.920   4.486
 3423SOL    HW210559   3.002   2.906   4.414
 3424SOL     OW10560   2.886   2.102   4.690
 3424SOL    HW110561   2.883   2.060   4.600
 3424SOL    HW210562   2.884   2.031   4.760
 3425SOL     OW10563   2.465   3.350   4.202
 3425SOL    HW110564   2.519   3.294   4.139
 3425SOL    HW210565   2.393   3.397   4.151
 3426SOL     OW10566   3.600   2.254   5.108
 3426SOL    HW110567   3.673   2.322   5.108
 3426SOL    HW210568   3.623   2.180   5.044
 3427SOL     OW10569   2.118   3.209   4.018
 3427SOL    HW110570   2.025   3.191   3.986
 3427SOL    HW210571   2.114   3.253   4.109
 3428SOL     OW10572   1.988   2.911   5.457
 3428SOL    HW110573   1.904   2.881   5.502
 3428SOL    HW210574   2.066   2.857   5.491
 3429SOL     OW10575   2.547   2.052   5.221
 3429SOL    HW110576   2.634   2.026   5.179
 3429SOL    HW210577   2.564   2.086   5.314
 3430SOL     OW10578   3.281   2.717   5.116
 3430SOL    HW110579   3.224   2.780   5.063
 3430SOL    HW210580   3.375   2.719   5.081
 3431SOL     OW10581   2.486   2.694   5.158
 3431SOL    HW110582   2.545   2.774   5.147
 3431SOL    HW210583   2.543   2.612   5.166
 3432SOL     OW10584   3.349   3.661   4.716
 3432SOL    HW110585   3.374   3.733   4.650
 3432SOL    HW210586   3.432   3.618   4.751
 3433SOL     OW10587   2.585   2.419   5.422
 3433SOL    HW110588   2.633   2.482   5.483
 3433SOL    HW210589   2.603   2.325   5.451
 3434SOL     OW10590   3.337   3.056   5.353
 3434SOL    HW110591   3.323   3.074   5.450
 3434SOL    HW210592   3.432   3.076   5.329
 3435SOL     OW10593   2.223   3.599   5.290
 3435SOL    HW110594   2.141   3.654   5.278
 3435SOL    HW210595   2.199   3.512   5.334
 3436SOL     OW10596   3.522   2.738   4.981
 3436SOL    HW110597   3.521   2.647   4.938
 3436SOL    HW210598   3.511   2.808   4.911
 3437SOL     OW10599   3.084   2.172   4.192
 3437SOL    HW110600   3.149   2.096   4.183
 3437SOL    HW210601   3.110   2.229   4.271
 3438SOL     OW10602   2.465   2.596   4.403
 3438SOL    HW110603   2.507   2.687   4.404
 3438SOL    HW210604   2.405   2.587   4.324
 3439SOL     OW10605   3.609   2.220   5.382
 3439SOL    HW110606   3.602   2.239   5.284
 3439SOL    HW210607   3.531   2.164   5.411
 3440SOL     OW10608   3.619   2.791   5.233
 3440SOL    HW110609   3.604   2.887   5.256
 3440SOL    HW210610   3.594   2.775   5.137
 3441SOL     OW10611   2.694   3.200   3.749
 3441SOL    HW110612   2.640   3.209   3.833
 3441SOL    HW210613   2.646   3.246   3.674
 3442SOL     OW10614   2.529   3.639   4.660
 3442SOL    HW110615   2.505   3.735   4.645
 3442SOL    HW210616   2.628   3.627   4.652
 3443SOL     OW10617   2.735   2.836   4.586
 3443SOL    HW110618   2.786   2.757   4.620
 3443SOL    HW210619   2.690   2.883   4.662
 3444SOL     OW10620   2.929   2.831   3.813
 3444SOL    HW110621   2.870   2.862   3.738
 3444SOL    HW210622   3.008   2.782   3.776
 3445SOL     OW10623   3.702   3.418   4.569
 3445SOL    HW110624   3.622   3.405   4.510
 3445SOL    HW210625   3.699   3.349   4.642
 3446SOL     OW10626   2.075   3.151   5.573
 3446SOL    HW110627   2.042   3.070   5.525
 3446SOL    HW210628   2.013   3.174   5.648
 3447SOL     OW10629   1.927   3.063   4.375
 3447SOL    HW110630   1.952   3.037   4.468
 3447SOL    HW210631   2.005   3.050   4.314
 3448SOL     OW10632   2.542   3.278   5.359
 3448SOL    HW110633   2.461   3.231   5.393
 3448SOL    HW210634   2.545   3.371   5.396
 3449SOL     OW10635   3.662   2.043   4.956
 3449SOL    HW110636   3.679   1.948   4.982
 3449SOL    HW210637   3.678   2.053   4.857
 3450SOL     OW10638   3.552   3.340   4.816
 3450SOL    HW110639   3.473   3.324   4.758
 3450SOL    HW210640   3.557   3.270   4.887
 3451SOL     OW10641   2.203   2.419   5.011
 3451SOL    HW110642   2.255   2.358   5.071
 3451SOL    HW210643   2.216   2.391   4.916
 3452SOL     OW10644   2.693   3.443   4.400
 3452SOL    HW110645   2.670   3.512   4.332
 3452SOL    HW210646   2.618   3.377   4.408
 3453SOL     OW10647   3.290   2.097   4.840
 3453SOL    HW110648   3.312   2.006   4.874
 3453SOL    HW210649   3.237   2.147   4.909
 3454SOL     OW10650   2.872   1.877   4.855
 3454SOL    HW110651   2.808   1.815   4.811
 3454SOL    HW210652   2.963   1.836   4.856
 3455SOL     OW10653   2.634   3.194   4.050
 3455SOL    HW110654   2.615   3.098   4.068
 3455SOL    HW210655   2.723   3.218   4.090
 3456SOL     OW10656   2.485   3.424   5.015
 3456SOL    HW110657   2.480   3.511   5.063
 3456SOL    HW210658   2.577   3.412   4.976
 3457SOL     OW10659   3.222   1.904   3.903
 3457SOL    HW110660   3.269   1.834   3.850
 3457SOL    HW210661   3.127   1.876   3.918
 3458SOL     OW10662   3.145   2.330   4.404
 3458SOL    HW110663   3.096   2.417   4.407
 3458SOL    HW210664   3.148   2.290   4.496
 3459SOL     OW10665   3.445   2.060   4.611
 3459SOL    HW110666   3.391   2.084   4.692
 3459SOL    HW210667   3.450   2.139   4.550
 3460SOL     OW10668   2.750   3.534   4.053
 3460SOL    HW110669   2.671   3.510   3.996
 3460SOL    HW210670   2.724   3.608   4.116
 3461SOL     OW10671   2.072   2.477   5.724
 3461SOL    HW110672   1.979   2.489   5.758
 3461SOL    HW210673   2.069   2.457   5.626
 3462SOL     OW10674   3.660   2.466   5.800
 3462SOL    HW110675   3.612   2.442   5.716
 3462SOL    HW210676   3.666   2.385   5.859
 3463SOL     OW10677   2.107   3.602   0.046
 3463SOL    HW110678   2.108   3.675   0.114
 3463SOL    HW210679   2.196   3.597   0.001
 3464SOL     OW10680   2.471   2.838   5.720
 3464SOL    HW110681   2.493   2.906   5.651
 3464SOL    HW210682   2.552   2.817   5.774
 3465SOL     OW10683   3.666   3.619   5.905
 3465SOL    HW110684   3.688   3.559   5.982
 3465SOL    HW210685   3.735   3.692   5.899
 3466SOL     OW10686   1.890   3.458   5.705
 3466SOL    HW110687   1.879   3.361   5.729
 3466SOL    HW210688   1.849   3.514   5.776
 3467SOL     OW10689   3.589   2.729   0.148
 3467SOL    HW110690   3.630   2.749   0.237
 3467SOL    HW210691   3.556   2.814   0.106
 3468SOL     OW10692   3.549   2.958   5.991
 3468SOL    HW110693   3.642   2.962   5.956
 3468SOL    HW210694   3.518   3.051   6.015
 3469SOL     OW10695   3.415   2.876   5.761
 3469SOL    HW110696   3.358   2.794   5.767
 3469SOL    HW210697   3.451   2.898   5.852
 3470SOL     OW10698   2.446   2.585   5.857
 3470SOL    HW110699   2.452   2.661   5.792
 3470SOL    HW210700   2.422   2.621   5.947
 3471SOL     OW10701   2.733   2.224   5.747
 3471SOL    HW110702   2.784   2.284   5.686
 3471SOL    HW210703   2.792   2.148   5.776
 3472SOL     OW10704   2.206   2.826   5.827
 3472SOL    HW110705   2.296   2.832   5.785
 3472SOL    HW210706   2.158   2.745   5.793
 3473SOL     OW10707   2.982   3.607   5.828
 3473SOL    HW110708   2.889   3.578   5.851
 3473SOL    HW210709   3.010   3.563   5.742
 3474SOL     OW10710   3.495   3.254   5.681
 3474SOL    HW110711   3.459   3.346   5.668
 3474SOL    HW210712   3.424   3.187   5.658
 3475SOL     OW10713   2.353   3.630   5.917
 3475SOL    HW110714   2.403   3.692   5.977
 3475SOL    HW210715   2.417   3.589   5.852
 3476SOL     OW10716   2.501   1.970   5.686
 3476SOL    HW110717   2.593   1.931   5.680
 3476SOL    HW210718   2.448   1.941   5.607
 3477SOL     OW10719   3.290   3.076   5.622
 3477SOL    HW110720   3.332   3.000   5.673
 3477SOL    HW210721   3.202   3.099   5.664
 3478SOL     OW10722   2.174   1.907   5.759
 3478SOL    HW110723   2.226   1.981   5.717
 3478SOL    HW210724   2.233   1.853   5.819
 3479SOL     OW10725   2.888   2.394   5.605
 3479SOL    HW110726   2.843   2.482   5.591
 3479SOL    HW210727   2.956   2.404   5.679
 3480SOL     OW10728   3.757   2.673   5.937
 3480SOL    HW110729   3.703   2.686   6.020
 3480SOL    HW210730   3.715   2.601   5.881
 3481SOL     OW10731   2.347   3.281   5.748
 3481SOL    HW110732   2.270   3.261   5.809
 3481SOL    HW210733   2.336   3.230   5.663
 3482SOL     OW10734   3.574   3.124   0.280
 3482SOL    HW110735   3.664   3.087   0.259
 3482SOL    HW210736   3.537   3.171   0.200
 3483SOL     OW10737   3.262   2.449   5.644
 3483SOL    HW110738   3.200   2.411   5.714
 3483SOL    HW210739   3.355   2.419   5.662
 3484SOL     OW10740   2.402   2.115   5.893
 3484SOL    HW110741   2.441   2.069   5.813
 3484SOL    HW210742   2.366   2.204   5.866
 3485SOL     OW10743   2.249   2.984   0.046
 3485SOL    HW110744   2.199   3.069   0.032
 3485SOL    HW210745   2.232   2.922  -0.031
 3486SOL     OW10746   3.066   2.373   5.821
 3486SOL    HW110747   3.074   2.284   5.866
 3486SOL    HW210748   3.042   2.443   5.890
 3487SOL     OW10749   2.160   1.932   0.249
 3487SOL    HW110750   2.220   2.012   0.252
 3487SOL    HW210751   2.212   1.851   0.278
 3488SOL     OW10752   3.377   2.129   5.724
 3488SOL    HW110753   3.318   2.049   5.736
 3488SOL    HW210754   3.418   2.153   5.812
 3489SOL     OW10755   3.177   2.710   5.629
 3489SOL    HW110756   3.204   2.614   5.636
 3489SOL    HW210757   3.198   2.744   5.537
 3490SOL     OW10758   1.882   3.181   5.769
 3490SOL    HW110759   1.788   3.200   5.741
 3490SOL    HW210760   1.887   3.087   5.804
 3491SOL     OW10761   2.688   2.460   5.892
 3491SOL    HW110762   2.688   2.371   5.846
 3491SOL    HW210763   2.598   2.502   5.881
 3492SOL     OW10764   2.309   2.352   5.775
 3492SOL    HW110765   2.372   2.423   5.804
 3492SOL    HW210766   2.217   2.391   5.764
 3493SOL     OW10767   3.648   2.012   0.093
 3493SOL    HW110768   3.703   2.006   0.010
 3493SOL    HW210769   3.590   1.931   0.101
 3494SOL     OW10770   2.530   3.480   5.743
 3494SOL    HW110771   2.540   3.504   5.647
 3494SOL    HW210772   2.463   3.407   5.753
 3495SOL     OW10773   3.060   3.459   5.614
 3495SOL    HW110774   3.053   3.365   5.647
 3495SOL    HW210775   2.992   3.473   5.541
 3496SOL     OW10776   2.723   2.764   5.803
 3496SOL    HW110777   2.809   2.804   5.772
 3496SOL    HW210778   2.742   2.697   5.875
 3497SOL     OW10779   3.337   3.499   5.619
 3497SOL    HW110780   3.240   3.483   5.604
 3497SOL    HW210781   3.385   3.501   5.531
 3498SOL     OW10782   2.896   3.022   0.297
 3498SOL    HW110783   2.858   2.969   0.373
 3498SOL    HW210784   2.934   2.960   0.228
 3499SOL     OW10785   2.124   3.231   5.920
 3499SOL    HW110786   2.036   3.219   5.875
 3499SOL    HW210787   2.121   3.312   5.980
 3500SOL     OW10788   1.943   2.178   5.613
 3500SOL    HW110789   1.859   2.152   5.564
 3500SOL    HW210790   1.974   2.267   5.579
 3501SOL     OW10791   1.942   2.003   5.860
 3501SOL    HW110792   1.920   2.074   5.792
 3501SOL    HW210793   2.030   1.962   5.838
 3502SOL     OW10794   3.033   3.199   5.709
 3502SOL    HW110795   2.937   3.175   5.697
 3502SOL    HW210796   3.059   3.186   5.805
 3503SOL     OW10797   3.068   2.167   0.019
 3503SOL    HW110798   3.157   2.141   0.058
 3503SOL    HW210799   3.029   2.241   0.074
 3504SOL     OW10800   2.729   3.241   5.630
 3504SOL    HW110801   2.685   3.289   5.707
 3504SOL    HW210802   2.753   3.307   5.559
 3505SOL     OW10803   2.951   2.856   5.690
 3505SOL    HW110804   2.924   2.903   5.606
 3505SOL    HW210805   3.034   2.802   5.674
 3506SOL     OW10806   3.228   1.899   5.736
 3506SOL    HW110807   3.273   1.817   5.703
 3506SOL    HW210808   3.140   1.876   5.777
 3507SOL     OW10809   1.938   2.931   5.872
 3507SOL    HW110810   2.036   2.935   5.853
 3507SOL    HW210811   1.911   2.836   5.890
 3508SOL     OW10812   2.732   3.520   5.924
 3508SOL    HW110813   2.660   3.510   5.856
 3508SOL    HW210814   2.717   3.603   5.978
 3509SOL     OW10815   2.072   4.340   0.135
 3509SOL    HW110816   1.987   4.324   0.184
 3509SOL    HW210817   2.053   4.377   0.044
 3510SOL     OW10818   2.084   4.007   0.995
 3510SOL    HW110819   2.117   3.973   1.083
 3510SOL    HW210820   1.992   3.973   0.978
 3511SOL     OW10821   1.864   4.122   0.634
 3511SOL    HW110822   1.778   4.142   0.681
 3511SOL    HW210823   1.851   4.048   0.569
 3512SOL     OW10824   2.432   5.028   1.195
 3512SOL    HW110825   2.344   5.027   1.147
 3512SOL    HW210826   2.452   5.120   1.227
 3513SOL     OW10827   3.433   5.236   0.707
 3513SOL    HW110828   3.388   5.211   0.793
 3513SOL    HW210829   3.365   5.246   0.635
 3514SOL     OW10830   2.996   4.430   0.693
 3514SOL    HW110831   3.049   4.514   0.680
 3514SOL    HW210832   2.944   4.437   0.779
 3515SOL     OW10833   3.658   4.315   0.240
 3515SOL    HW110834   3.602   4.351   0.166
 3515SOL    HW210835   3.614   4.233   0.278
 3516SOL     OW10836   2.596   4.861   1.045
 3516SOL    HW110837   2.531   4.898   1.111
 3516SOL    HW210838   2.642   4.936   0.998
 3517SOL     OW10839   2.737   4.480   1.820
 3517SOL    HW110840   2.722   4.548   1.892
 3517SOL    HW210841   2.761   4.526   1.735
 3518SOL     OW10842   2.545   4.720   0.649
 3518SOL    HW110843   2.617   4.712   0.718
 3518SOL    HW210844   2.472   4.778   0.684
 3519SOL     OW10845   2.574   4.878   1.825
 3519SOL    HW110846   2.628   4.955   1.860
 3519SOL    HW210847   2.493   4.913   1.779
 3520SOL     OW10848   2.192   5.139   1.065
 3520SOL    HW110849   2.113   5.095   1.022
 3520SOL    HW210850   2.240   5.194   0.997
 3521SOL     OW10851   3.318   5.226   1.364
 3521SOL    HW110852   3.376   5.308   1.371
 3521SOL    HW210853   3.245   5.232   1.432
 3522SOL     OW10854   2.314   4.110   1.471
 3522SOL    HW110855   2.396   4.053   1.481
 3522SOL    HW210856   2.233   4.056   1.493
 3523SOL     OW10857   3.471   4.164   0.747
 3523SOL    HW110858   3.402   4.185   0.677
 3523SOL    HW210859   3.469   4.236   0.817
 3524SOL     OW10860   2.087   5.437   0.479
 3524SOL    HW110861   2.103   5.516   0.538
 3524SOL    HW210862   2.167   5.424   0.420
 3525SOL     OW10863   2.998   5.061   1.699
 3525SOL    HW110864   3.046   5.057   1.787
 3525SOL    HW210865   2.941   4.980   1.689
 3526SOL     OW10866   2.075   5.165   0.523
 3526SOL    HW110867   2.070   5.265   0.528
 3526SOL    HW210868   2.024   5.125   0.600
 3527SOL     OW10869   2.140   4.814   0.902
 3527SOL    HW110870   2.137   4.719   0.934
 3527SOL    HW210871   2.078   4.869   0.956
 3528SOL     OW10872   2.456   5.512   1.429
 3528SOL    HW110873   2.371   5.491   1.479
 3528SOL    HW210874   2.486   5.604   1.452
 3529SOL     OW10875   2.457   4.686   0.145
 3529SOL    HW110876   2.399   4.754   0.100
 3529SOL    HW210877   2.505   4.728   0.222
 3530SOL     OW10878   3.452   3.847   1.463
 3530SOL    HW110879   3.488   3.923   1.409
 3530SOL    HW210880   3.436   3.878   1.557
 3531SOL     OW10881   1.991   4.384   0.577
 3531SOL    HW110882   1.953   4.292   0.590
 3531SOL    HW210883   1.981   4.436   0.662
 3532SOL     OW10884   3.720   5.483   0.329
 3532SOL    HW110885   3.791   5.449   0.391
 3532SOL    HW210886   3.729   5.582   0.318
 3533SOL     OW10887   1.829   5.312   0.119
 3533SOL    HW110888   1.835   5.216   0.146
 3533SOL    HW210889   1.860   5.370   0.194
 3534SOL     OW10890   3.559   4.633   0.661
 3534SOL    HW110891   3.646   4.584   0.653
 3534SOL    HW210892   3.539   4.681   0.576
 3535SOL     OW10893   3.492   4.821   0.465
 3535SOL    HW110894   3.521   4.881   0.390
 3535SOL    HW210895   3.503   4.869   0.552
 3536SOL     OW10896   1.986   4.470   1.583
 3536SOL    HW110897   2.080   4.501   1.583
 3536SOL    HW210898   1.924   4.548   1.575
 3537SOL     OW10899   2.475   5.117   0.731
 3537SOL    HW110900   2.431   5.029   0.744
 3537SOL    HW210901   2.465   5.147   0.637
 3538SOL     OW10902   3.145   4.954   1.421
 3538SOL    HW110903   3.170   4.884   1.355
 3538SOL    HW210904   3.209   4.951   1.498
 3539SOL     OW10905   2.684   3.740   0.514
 3539SOL    HW110906   2.731   3.826   0.491
 3539SOL    HW210907   2.586   3.756   0.520
 3540SOL     OW10908   2.051   4.681   1.287
 3540SOL    HW110909   2.141   4.640   1.272
 3540SOL    HW210910   1.986   4.641   1.223
 3541SOL     OW10911   3.315   4.759   0.224
 3541SOL    HW110912   3.246   4.696   0.262
 3541SOL    HW210913   3.391   4.767   0.288
 3542SOL     OW10914   3.064   5.522   1.621
 3542SOL    HW110915   3.063   5.582   1.540
 3542SOL    HW210916   3.074   5.427   1.591
 3543SOL     OW10917   2.208   3.971   1.855
 3543SOL    HW110918   2.257   4.056   1.874
 3543SOL    HW210919   2.110   3.986   1.862
 3544SOL     OW10920   3.321   5.147   0.940
 3544SOL    HW110921   3.259   5.166   1.016
 3544SOL    HW210922   3.315   5.050   0.915
 3545SOL     OW10923   3.518   5.471   0.578
 3545SOL    HW110924   3.492   5.446   0.485
 3545SOL    HW210925   3.497   5.395   0.640
 3546SOL     OW10926   2.457   4.440   0.277
 3546SOL    HW110927   2.465   4.528   0.229
 3546SOL    HW210928   2.390   4.449   0.351
 3547SOL     OW10929   3.140   4.094   0.936
 3547SOL    HW110930   3.046   4.058   0.942
 3547SOL    HW210931   3.200   4.041   0.996
 3548SOL     OW10932   3.454   5.398   0.317
 3548SOL    HW110933   3.552   5.418   0.315
 3548SOL    HW210934   3.421   5.382   0.224
 3549SOL     OW10935   2.649   4.335   1.445
 3549SOL    HW110936   2.625   4.308   1.538
 3549SOL    HW210937   2.619   4.264   1.381
 3550SOL     OW10938   3.250   4.186   1.667
 3550SOL    HW110939   3.250   4.241   1.751
 3550SOL    HW210940   3.308   4.105   1.679
 3551SOL     OW10941   2.812   4.606   1.586
 3551SOL    HW110942   2.869   4.536   1.545
 3551SOL    HW210943   2.758   4.651   1.515
 3552SOL     OW10944   2.857   4.124   1.218
 3552SOL    HW110945   2.763   4.141   1.248
 3552SOL    HW210946   2.857   4.074   1.132
 3553SOL     OW10947   2.915   4.416   0.431
 3553SOL    HW110948   2.937   4.416   0.528
 3553SOL    HW210949   2.828   4.368   0.416
 3554SOL     OW10950   1.954   4.553   0.787
 3554SOL    HW110951   2.040   4.541   0.836
 3554SOL    HW210952   1.903   4.629   0.827
 3555SOL     OW10953   1.991   5.595   1.591
 3555SOL    HW110954   1.998   5.571   1.687
 3555SOL    HW210955   1.906   5.557   1.553
 3556SOL     OW10956   2.747   4.065   0.215
 3556SOL    HW110957   2.799   4.130   0.159
 3556SOL    HW210958   2.745   3.976   0.170
 3557SOL     OW10959   3.503   4.294   1.850
 3557SOL    HW110960   3.502   4.364   1.779
 3557SOL    HW210961   3.581   4.232   1.834
 3558SOL     OW10962   3.228   4.867   0.534
 3558SOL    HW110963   3.318   4.851   0.493
 3558SOL    HW210964   3.180   4.937   0.482
 3559SOL     OW10965   2.409   3.891   0.906
 3559SOL    HW110966   2.414   3.921   1.001
 3559SOL    HW210967   2.411   3.970   0.846
 3560SOL     OW10968   2.861   5.178   0.465
 3560SOL    HW110969   2.827   5.254   0.410
 3560SOL    HW210970   2.832   5.189   0.560
 3561SOL     OW10971   2.214   5.539   0.876
 3561SOL    HW110972   2.259   5.449   0.880
 3561SOL    HW210973   2.281   5.611   0.894
 3562SOL     OW10974   3.664   4.773   0.886
 3562SOL    HW110975   3.614   4.750   0.802
 3562SOL    HW210976   3.599   4.781   0.961
 3563SOL     OW10977   3.086   5.257   1.516
 3563SOL    HW110978   3.074   5.182   1.581
 3563SOL    HW210979   3.019   5.247   1.442
 3564SOL     OW10980   2.165   4.676   0.261
 3564SOL    HW110981   2.213   4.723   0.187
 3564SOL    HW210982   2.167   4.578   0.245
 3565SOL     OW10983   3.344   4.476   0.721
 3565SOL    HW110984   3.340   4.430   0.810
 3565SOL    HW210985   3.427   4.532   0.716
 3566SOL     OW10986   2.334   4.993   1.730
 3566SOL    HW110987   2.309   4.999   1.633
 3566SOL    HW210988   2.251   4.988   1.786
 3567SOL     OW10989   2.978   5.497   0.219
 3567SOL    HW110990   2.908   5.453   0.275
 3567SOL    HW210991   3.024   5.428   0.163
 3568SOL     OW10992   2.065   3.992   1.501
 3568SOL    HW110993   1.983   4.049   1.498
 3568SOL    HW210994   2.041   3.903   1.540
 3569SOL     OW10995   3.471   5.090   0.055
 3569SOL    HW110996   3.462   5.190   0.052
 3569SOL    HW210997   3.382   5.049   0.036
 3570SOL     OW10998   2.330   5.453   0.340
 3570SOL    HW110999   2.373   5.517   0.403
 3570SOL    HW211000   2.398   5.422   0.273
 3571SOL     OW11001   3.269   3.828   0.441
 3571SOL    HW111002   3.262   3.803   0.344
 3571SOL    HW211003   3.365   3.842   0.465
 3572SOL     OW11004   2.117   5.513   1.223
 3572SOL    HW111005   2.169   5.437   1.263
 3572SOL    HW211006   2.101   5.495   1.126
 3573SOL     OW11007   2.804   5.421   0.895
 3573SOL    HW111008   2.892   5.378   0.919
 3573SOL    HW211009   2.760   5.368   0.822
 3574SOL     OW11010   2.259   4.407   0.475
 3574SOL    HW111011   2.282   4.310   0.486
 3574SOL    HW211012   2.164   4.422   0.500
 3575SOL     OW11013   3.381   3.941   1.732
 3575SOL    HW111014   3.414   3.939   1.826
 3575SOL    HW211015   3.306   3.876   1.721
 3576SOL     OW11016   2.491   3.813   0.093
 3576SOL    HW111017   2.591   3.816   0.098
 3576SOL    HW211018   2.459   3.881   0.028
 3577SOL     OW11019   2.623   4.000   1.759
 3577SOL    HW111020   2.709   3.951   1.750
 3577SOL    HW211021   2.572   3.966   1.838
 3578SOL     OW11022   2.736   5.238   1.193
 3578SOL    HW111023   2.716   5.201   1.103
 3578SOL    HW211024   2.808   5.184   1.237
 3579SOL     OW11025   3.195   4.315   1.430
 3579SOL    HW111026   3.229   4.276   1.516
 3579SOL    HW211027   3.235   4.406   1.418
 3580SOL     OW11028   2.683   5.106   0.945
 3580SOL    HW111029   2.773   5.097   0.904
 3580SOL    HW211030   2.615   5.119   0.872
 3581SOL     OW11031   2.788   4.231   0.894
 3581SOL    HW111032   2.762   4.223   0.798
 3581SOL    HW211033   2.819   4.143   0.928
 3582SOL     OW11034   2.415   3.793   0.499
 3582SOL    HW111035   2.334   3.790   0.557
 3582SOL    HW211036   2.406   3.869   0.434
 3583SOL     OW11037   3.246   4.940   0.030
 3583SOL    HW111038   3.275   4.870   0.095
 3583SOL    HW211039   3.166   4.988   0.066
 3584SOL     OW11040   2.814   3.975   0.463
 3584SOL    HW111041   2.784   4.012   0.375
 3584SOL    HW211042   2.913   3.988   0.472
 3585SOL     OW11043   2.938   4.409   1.451
 3585SOL    HW111044   2.866   4.340   1.453
 3585SOL    HW211045   3.027   4.364   1.444
 3586SOL     OW11046   3.073   5.301   0.798
 3586SOL    HW111047   3.089   5.368   0.726
 3586SOL    HW211048   3.153   5.297   0.858
 3587SOL     OW11049   2.335   4.879   0.725
 3587SOL    HW111050   2.270   4.857   0.798
 3587SOL    HW211051   2.290   4.867   0.636
 3588SOL     OW11052   3.125   5.516   0.610
 3588SOL    HW111053   3.182   5.581   0.559
 3588SOL    HW211054   3.045   5.565   0.647
 3589SOL     OW11055   2.884   4.251   0.071
 3589SOL    HW111056   2.812   4.288   0.012
 3589SOL    HW211057   2.914   4.322   0.135
 3590SOL     OW11058   1.956   4.281   1.390
 3590SOL    HW111059   2.050   4.277   1.358
 3590SOL    HW211060   1.947   4.351   1.461
 3591SOL     OW11061   2.421   3.946   1.177
 3591SOL    HW111062   2.470   3.872   1.224
 3591SOL    HW211063   2.325   3.945   1.204
 3592SOL     OW11064   2.728   4.183   0.634
 3592SOL    HW111065   2.678   4.243   0.571
 3592SOL    HW211066   2.758   4.101   0.585
 3593SOL     OW11067   2.880   3.778   0.741
 3593SOL    HW111068   2.818   3.777   0.663
 3593SOL    HW211069   2.857   3.703   0.803
 3594SOL     OW11070   3.312   4.884   0.864
 3594SOL    HW111071   3.235   4.822   0.852
 3594SOL    HW211072   3.359   4.896   0.777
 3595SOL     OW11073   3.330   4.334   0.963
 3595SOL    HW111074   3.265   4.258   0.965
 3595SOL    HW211075   3.390   4.328   1.042
 3596SOL     OW11076   3.718   4.534   0.392
 3596SOL    HW111077   3.779   4.499   0.463
 3596SOL    HW211078   3.694   4.460   0.329
 3597SOL     OW11079   2.341   5.138   0.158
 3597SOL    HW111080   2.262   5.111   0.212
 3597SOL    HW211081   2.359   5.068   0.089
 3598SOL     OW11082   3.536   4.979   0.678
 3598SOL    HW111083   3.636   4.975   0.674
 3598SOL    HW211084   3.506   5.074   0.677
 3599SOL     OW11085   3.255   4.291   0.102
 3599SOL    HW111086   3.195   4.280   0.181
 3599SOL    HW211087   3.308   4.207   0.089
 3600SOL     OW11088   2.370   3.974   0.295
 3600SOL    HW111089   2.422   3.921   0.228
 3600SOL    HW211090   2.352   4.065   0.259
 3601SOL     OW11091   3.613   4.967   1.550
 3601SOL    HW111092   3.702   4.925   1.533
 3601SOL    HW211093   3.625   5.060   1.585
 3602SOL     OW11094   2.911   5.074   1.338
 3602SOL    HW111095   2.828   5.043   1.386
 3602SOL    HW211096   2.991   5.031   1.379
 3603SOL     OW11097   3.477   5.358   1.661
 3603SOL    HW111098   3.459   5.394   1.569
 3603SOL    HW211099   3.561   5.305   1.660
 3604SOL     OW11100   3.007   4.956   1.105
 3604SOL    HW111101   2.944   4.988   1.175
 3604SOL    HW211102   2.974   4.985   1.015
 3605SOL     OW11103   3.480   4.817   1.082
 3605SOL    HW111104   3.475   4.884   1.156
 3605SOL    HW211105   3.408   4.835   1.015
 3606SOL     OW11106   2.786   3.814   1.388
 3606SOL    HW111107   2.807   3.791   1.293
 3606SOL    HW211108   2.866   3.856   1.430
 3607SOL     OW11109   2.838   4.838   1.723
 3607SOL    HW111110   2.744   4.857   1.750
 3607SOL    HW211111   2.840   4.755   1.667
 3608SOL     OW11112   2.581   4.782   0.375
 3608SOL    HW111113   2.558   4.766   0.471
 3608SOL    HW211114   2.653   4.719   0.348
 3609SOL     OW11115   2.287   4.542   1.256
 3609SOL    HW111116   2.360   4.556   1.324
 3609SOL    HW211117   2.250   4.450   1.265
 3610SOL     OW11118   3.121   4.097   1.283
 3610SOL    HW111119   3.157   4.179   1.330
 3610SOL    HW211120   3.026   4.113   1.257
 3611SOL     OW11121   1.938   5.293   1.355
 3611SOL    HW111122   1.899   5.360   1.292
 3611SOL    HW211123   2.038   5.293   1.347
 3612SOL     OW11124   2.203   4.846   0.489
 3612SOL    HW111125   2.207   4.927   0.431
 3612SOL    HW211126   2.199   4.764   0.431
 3613SOL     OW11127   2.405   4.266   0.864
 3613SOL    HW111128   2.419   4.325   0.784
 3613SOL    HW211129   2.475   4.285   0.932
 3614SOL     OW11130   3.115   5.085   0.400
 3614SOL    HW111131   3.170   5.160   0.434
 3614SOL    HW211132   3.019   5.100   0.425
 3615SOL     OW11133   3.157   5.190   1.148
 3615SOL    HW111134   3.213   5.194   1.230
 3615SOL    HW211135   3.104   5.104   1.148
 3616SOL     OW11136   3.426   4.341   0.488
 3616SOL    HW111137   3.380   4.387   0.564
 3616SOL    HW211138   3.462   4.410   0.425
 3617SOL     OW11139   2.210   5.255   1.305
 3617SOL    HW111140   2.195   5.208   1.218
 3617SOL    HW211141   2.308   5.270   1.318
 3618SOL     OW11142   2.279   4.473   1.601
 3618SOL    HW111143   2.348   4.517   1.543
 3618SOL    HW211144   2.308   4.380   1.622
 3619SOL     OW11145   3.476   4.512   1.686
 3619SOL    HW111146   3.386   4.555   1.680
 3619SOL    HW211147   3.536   4.549   1.615
 3620SOL     OW11148   2.856   3.863   1.750
 3620SOL    HW111149   2.915   3.942   1.736
 3620SOL    HW211150   2.904   3.780   1.723
 3621SOL     OW11151   2.353   3.757   1.757
 3621SOL    HW111152   2.306   3.701   1.689
 3621SOL    HW211153   2.297   3.837   1.778
 3622SOL     OW11154   2.449   4.597   1.036
 3622SOL    HW111155   2.486   4.690   1.034
 3622SOL    HW211156   2.388   4.587   1.115
 3623SOL     OW11157   3.202   4.578   1.021
 3623SOL    HW111158   3.112   4.566   0.979
 3623SOL    HW211159   3.256   4.495   1.008
 3624SOL     OW11160   3.077   4.243   0.298
 3624SOL    HW111161   3.087   4.159   0.351
 3624SOL    HW211162   3.024   4.309   0.350
 3625SOL     OW11163   2.159   3.918   1.246
 3625SOL    HW111164   2.122   3.953   1.332
 3625SOL    HW211165   2.144   3.820   1.240
 3626SOL     OW11166   1.917   5.032   1.272
 3626SOL    HW111167   1.948   4.971   1.345
 3626SOL    HW211168   1.918   5.127   1.305
 3627SOL     OW11169   2.585   4.354   1.052
 3627SOL    HW111170   2.662   4.335   0.990
 3627SOL    HW211171   2.551   4.446   1.034
 3628SOL     OW11172   3.603   4.684   1.862
 3628SOL    HW111173   3.561   4.616   1.802
 3628SOL    HW211174   3.538   4.706   1.936
 3629SOL     OW11175   2.174   3.785   0.632
 3629SOL    HW111176   2.145   3.879   0.649
 3629SOL    HW211177   2.185   3.737   0.719
 3630SOL     OW11178   3.495   4.111   0.357
 3630SOL    HW111179   3.510   4.032   0.416
 3630SOL    HW211180   3.462   4.188   0.412
 3631SOL     OW11181   2.885   4.478   0.956
 3631SOL    HW111182   2.876   4.500   1.053
 3631SOL    HW211183   2.858   4.383   0.940
 3632SOL     OW11184   2.847   5.288   1.722
 3632SOL    HW111185   2.824   5.333   1.636
 3632SOL    HW211186   2.891   5.200   1.703
 3633SOL     OW11187   3.713   5.225   1.602
 3633SOL    HW111188   3.734   5.251   1.508
 3633SOL    HW211189   3.795   5.233   1.658
 3634SOL     OW11190   2.214   4.643   1.807
 3634SOL    HW111191   2.294   4.664   1.863
 3634SOL    HW211192   2.240   4.579   1.735
 3635SOL     OW11193   3.349   4.029   0.133
 3635SOL    HW111194   3.326   3.933   0.145
 3635SOL    HW211195   3.408   4.059   0.209
 3636SOL     OW11196   3.146   4.525   0.030
 3636SOL    HW111197   3.192   4.438   0.048
 3636SOL    HW211198   3.208   4.588  -0.016
 3637SOL     OW11199   2.934   5.065   0.858
 3637SOL    HW111200   2.939   4.987   0.795
 3637SOL    HW211201   2.988   5.140   0.821
 3638SOL     OW11202   2.178   4.531   0.944
 3638SOL    HW111203   2.275   4.554   0.939
 3638SOL    HW211204   2.168   4.436   0.975
 3639SOL     OW11205   2.183   4.254   1.011
 3639SOL    HW111206   2.144   4.162   1.002
 3639SOL    HW211207   2.264   4.262   0.953
 3640SOL     OW11208   2.993   4.096   1.693
 3640SOL    HW111209   2.943   4.154   1.757
 3640SOL    HW211210   3.085   4.132   1.679
 3641SOL     OW11211   3.023   3.924   1.477
 3641SOL    HW111212   3.007   3.986   1.554
 3641SOL    HW211213   3.068   3.974   1.402
 3642SOL     OW11214   1.953   5.506   0.950
 3642SOL    HW111215   1.916   5.426   0.902
 3642SOL    HW211216   2.045   5.525   0.917
 3643SOL     OW11217   2.350   5.297   0.902
 3643SOL    HW111218   2.421   5.363   0.929
 3643SOL    HW211219   2.390   5.231   0.839
 3644SOL     OW11220   2.826   4.516   1.221
 3644SOL    HW111221   2.888   4.494   1.296
 3644SOL    HW211222   2.739   4.469   1.234
 3645SOL     OW11223   1.901   4.285   1.118
 3645SOL    HW111224   1.983   4.275   1.062
 3645SOL    HW211225   1.926   4.283   1.215
 3646SOL     OW11226   2.055   4.249   1.733
 3646SOL    HW111227   2.103   4.192   1.667
 3646SOL    HW211228   2.018   4.330   1.686
 3647SOL     OW11229   3.247   4.660   1.649
 3647SOL    HW111230   3.271   4.757   1.648
 3647SOL    HW211231   3.241   4.625   1.555
 3648SOL     OW11232   2.680   4.297   0.364
 3648SOL    HW111233   2.684   4.213   0.311
 3648SOL    HW211234   2.603   4.352   0.335
 3649SOL     OW11235   3.505   4.328   1.173
 3649SOL    HW111236   3.493   4.265   1.249
 3649SOL    HW211237   3.597   4.317   1.135
 3650SOL     OW11238   2.098   5.265   1.723
 3650SOL    HW111239   2.079   5.340   1.786
 3650SOL    HW211240   2.106   5.179   1.774
 3651SOL     OW11241   2.580   4.165   1.246
 3651SOL    HW111242   2.519   4.089   1.225
 3651SOL    HW211243   2.573   4.235   1.174
 3652SOL     OW11244   2.776   5.401   1.477
 3652SOL    HW111245   2.749   5.348   1.396
 3652SOL    HW211246   2.774   5.499   1.455
 3653SOL     OW11247   2.315   4.218   0.199
 3653SOL    HW111248   2.377   4.293   0.222
 3653SOL    HW211249   2.225   4.256   0.177
 3654SOL     OW11250   1.999   4.864   1.479
 3654SOL    HW111251   2.003   4.825   1.571
 3654SOL    HW211252   2.020   4.792   1.411
 3655SOL     OW11253   3.170   4.766   1.215
 3655SOL    HW111254   3.195   4.697   1.146
 3655SOL    HW211255   3.109   4.834   1.174
 3656SOL     OW11256   3.136   4.572   0.310
 3656SOL    HW111257   3.068   4.524   0.364
 3656SOL    HW211258   3.133   4.539   0.215
 3657SOL     OW11259   3.645   5.439   1.164
 3657SOL    HW111260   3.706   5.477   1.095
 3657SOL    HW211261   3.613   5.349   1.134
 3658SOL     OW11262   3.105   5.458   1.104
 3658SOL    HW111263   3.192   5.491   1.066
 3658SOL    HW211264   3.113   5.361   1.125
 3659SOL     OW11265   1.953   4.985   1.008
 3659SOL    HW111266   1.935   5.002   1.105
 3659SOL    HW211267   1.882   4.925   0.971
 3660SOL     OW11268   2.545   5.404   1.742
 3660SOL    HW111269   2.478   5.478   1.741
 3660SOL    HW211270   2.615   5.421   1.674
 3661SOL     OW11271   2.777   3.809   0.092
 3661SOL    HW111272   2.837   3.848   0.023
 3661SOL    HW211273   2.830   3.752   0.155
 3662SOL     OW11274   3.552   3.875   0.495
 3662SOL    HW111275   3.638   3.873   0.443
 3662SOL    HW211276   3.542   3.789   0.545
 3663SOL     OW11277   3.261   5.300   0.496
 3663SOL    HW111278   3.323   5.332   0.424
 3663SOL    HW211279   3.206   5.378   0.528
 3664SOL     OW11280   2.010   5.506   1.846
 3664SOL    HW111281   1.953   5.437   1.890
 3664SOL    HW211282   2.061   5.557   1.916
 3665SOL     OW11283   3.143   4.656   0.674
 3665SOL    HW111284   3.219   4.593   0.687
 3665SOL    HW211285   3.172   4.731   0.615
 3666SOL     OW11286   2.655   5.006   1.421
 3666SOL    HW111287   2.628   5.051   1.506
 3666SOL    HW211288   2.584   5.017   1.352
 3667SOL     OW11289   2.524   5.335   0.176
 3667SOL    HW111290   2.565   5.346   0.086
 3667SOL    HW211291   2.460   5.258   0.175
 3668SOL     OW11292   3.473   5.454   1.388
 3668SOL    HW111293   3.535   5.450   1.310
 3668SOL    HW211294   3.453   5.550   1.409
 3669SOL     OW11295   3.705   3.890   0.962
 3669SOL    HW111296   3.739   3.798   0.943
 3669SOL    HW211297   3.613   3.900   0.923
 3670SOL     OW11298   2.114   4.037   0.714
 3670SOL    HW111299   2.026   4.077   0.688
 3670SOL    HW211300   2.119   4.030   0.814
 3671SOL     OW11301   3.100   5.327   0.043
 3671SOL    HW111302   3.071   5.234   0.065
 3671SOL    HW211303   3.049   5.360  -0.036
 3672SOL     OW11304   2.685   4.736   1.383
 3672SOL    HW111305   2.734   4.717   1.298
 3672SOL    HW211306   2.678   4.834   1.397
 3673SOL     OW11307   2.777   4.617   0.300
 3673SOL    HW111308   2.827   4.639   0.216
 3673SOL    HW211309   2.826   4.546   0.350
 3674SOL     OW11310   3.365   5.374   0.055
 3674SOL    HW111311   3.269   5.351   0.046
 3674SOL    HW211312   3.403   5.397  -0.034
 3675SOL     OW11313   2.227   5.028   1.486
 3675SOL    HW111314   2.218   5.108   1.426
 3675SOL    HW211315   2.146   4.970   1.476
 3676SOL     OW11316   3.471   5.009   1.284
 3676SOL    HW111317   3.537   4.989   1.356
 3676SOL    HW211318   3.406   5.078   1.316
 3677SOL     OW11319   2.927   4.832   0.720
 3677SOL    HW111320   2.851   4.781   0.760
 3677SOL    HW211321   2.999   4.768   0.693
 3678SOL     OW11322   2.887   3.965   0.967
 3678SOL    HW111323   2.884   3.923   0.876
 3678SOL    HW211324   2.884   3.893   1.036
 3679SOL     OW11325   2.474   5.206   0.477
 3679SOL    HW111326   2.527   5.153   0.411
 3679SOL    HW211327   2.402   5.257   0.428
 3680SOL     OW11328   3.588   4.127   1.362
 3680SOL    HW111329   3.666   4.188   1.372
 3680SOL    HW211330   3.613   4.048   1.306
 3681SOL     OW11331   2.121   5.041   0.293
 3681SOL    HW111332   2.051   4.970   0.286
 3681SOL    HW211333   2.104   5.096   0.374
 3682SOL     OW11334   1.981   4.774   1.740
 3682SOL    HW111335   1.898   4.742   1.786
 3682SOL    HW211336   2.059   4.721   1.772
 3683SOL     OW11337   2.548   3.915   1.500
 3683SOL    HW111338   2.634   3.889   1.456
 3683SOL    HW211339   2.566   3.950   1.591
 3684SOL     OW11340   1.858   4.129  -0.017
 3684SOL    HW111341   1.815   4.060   0.041
 3684SOL    HW211342   1.957   4.111  -0.021
 3685SOL     OW11343   3.280   4.580   1.390
 3685SOL    HW111344   3.224   4.642   1.336
 3685SOL    HW211345   3.374   4.581   1.355
 3686SOL     OW11346   1.912   3.879   0.336
 3686SOL    HW111347   1.867   3.903   0.249
 3686SOL    HW211348   2.008   3.858   0.318
 3687SOL     OW11349   3.035   5.078   0.127
 3687SOL    HW111350   2.937   5.062   0.115
 3687SOL    HW211351   3.060   5.065   0.224
 3688SOL     OW11352   2.488   4.554   1.437
 3688SOL    HW111353   2.546   4.634   1.423
 3688SOL    HW211354   2.544   4.472   1.443
 3689SOL     OW11355   3.352   5.535   1.006
 3689SOL    HW111356   3.375   5.593   0.928
 3689SOL    HW211357   3.433   5.482   1.033
 3690SOL     OW11358   2.583   4.275   1.698
 3690SOL    HW111359   2.628   4.340   1.759
 3690SOL    HW211360   2.599   4.182   1.732
 3691SOL     OW11361   3.338   4.919   1.631
 3691SOL    HW111362   3.324   4.934   1.728
 3691SOL    HW211363   3.433   4.939   1.607
 3692SOL     OW11364   2.228   5.458   1.569
 3692SOL    HW111365   2.146   5.513   1.554
 3692SOL    HW211366   2.203   5.370   1.609
 3693SOL     OW11367   3.522   4.599   1.257
 3693SOL    HW111368   3.521   4.508   1.215
 3693SOL    HW211369   3.510   4.669   1.186
 3694SOL     OW11370   3.084   4.030   0.471
 3694SOL    HW111371   3.151   3.956   0.461
 3694SOL    HW211372   3.110   4.087   0.549
 3695SOL     OW11373   2.447   4.458   0.671
 3695SOL    HW111374   2.488   4.549   0.661
 3695SOL    HW211375   2.379   4.444   0.599
 3696SOL     OW11376   3.624   4.059   1.622
 3696SOL    HW111377   3.597   4.092   1.532
 3696SOL    HW211378   3.543   4.024   1.670
 3697SOL     OW11379   3.620   4.656   1.507
 3697SOL    HW111380   3.605   4.753   1.527
 3697SOL    HW211381   3.595   4.637   1.412
 3698SOL     OW11382   2.765   5.112   0.052
 3698SOL    HW111383   2.708   5.092   0.132
 3698SOL    HW211384   2.751   5.207   0.024
 3699SOL     OW11385   2.532   5.493   0.938
 3699SOL    HW111386   2.505   5.587   0.920
 3699SOL    HW211387   2.631   5.484   0.929
 3700SOL     OW11388   2.731   4.696   0.857
 3700SOL    HW111389   2.782   4.617   0.892
 3700SOL    HW211390   2.686   4.743   0.933
 3701SOL     OW11391   2.929   4.687   0.084
 3701SOL    HW111392   2.905   4.744   0.005
 3701SOL    HW211393   3.009   4.631   0.061
 3702SOL     OW11394   3.704   5.281   0.847
 3702SOL    HW111395   3.628   5.269   0.783
 3702SOL    HW211396   3.699   5.210   0.918
 3703SOL     OW11397   2.094   5.015   1.853
 3703SOL    HW111398   2.039   4.942   1.814
 3703SOL    HW211399   2.071   5.027   1.950
 3704SOL     OW11400   1.951   4.945   0.666
 3704SOL    HW111401   1.967   4.904   0.756
 3704SOL    HW211402   2.020   4.912   0.602
 3705SOL     OW11403   2.550   5.138   1.638
 3705SOL    HW111404   2.468   5.090   1.669
 3705SOL    HW211405   2.549   5.232   1.673
 3706SOL     OW11406   3.658   3.904   1.231
 3706SOL    HW111407   3.687   3.813   1.260
 3706SOL    HW211408   3.674   3.914   1.133
 3707SOL     OW11409   2.295   4.145   0.526
 3707SOL    HW111410   2.316   4.077   0.456
 3707SOL    HW211411   2.238   4.105   0.597
 3708SOL     OW11412   3.551   5.198   1.089
 3708SOL    HW111413   3.471   5.183   1.030
 3708SOL    HW211414   3.553   5.128   1.160
 3709SOL     OW11415   2.204   4.283   1.288
 3709SOL    HW111416   2.258   4.222   1.346
 3709SOL    HW211417   2.215   4.256   1.192
 3710SOL     OW11418   2.692   5.308   0.676
 3710SOL    HW111419   2.671   5.382   0.613
 3710SOL    HW211420   2.616   5.243   0.679
 3711SOL     OW11421   3.290   3.958   1.116
 3711SOL    HW111422   3.312   3.867   1.150
 3711SOL    HW211423   3.237   4.007   1.185
 3712SOL     OW11424   2.872   3.738   1.131
 3712SOL    HW111425   2.808   3.677   1.084
 3712SOL    HW211426   2.963   3.698   1.133
 3713SOL     OW11427   2.643   5.051   0.313
 3713SOL    HW111428   2.612   4.957   0.326
 3713SOL    HW211429   2.735   5.062   0.351
 3714SOL     OW11430   2.486   5.282   1.291
 3714SOL    HW111431   2.481   5.368   1.341
 3714SOL    HW211432   2.577   5.272   1.250
 3715SOL     OW11433   3.228   3.773   0.171
 3715SOL    HW111434   3.271   3.698   0.120
 3715SOL    HW211435   3.131   3.753   0.185
 3716SOL     OW11436   3.148   4.190   0.680
 3716SOL    HW111437   3.098   4.277   0.681
 3716SOL    HW211438   3.149   4.152   0.773
 3717SOL     OW11439   3.445   3.922   0.887
 3717SOL    HW111440   3.391   3.946   0.968
 3717SOL    HW211441   3.449   4.000   0.825
 3718SOL     OW11442   1.939   4.817   0.301
 3718SOL    HW111443   2.021   4.766   0.277
 3718SOL    HW211444   1.884   4.763   0.366
 3719SOL     OW11445   2.748   5.393   0.333
 3719SOL    HW111446   2.667   5.362   0.283
 3719SOL    HW211447   2.722   5.461   0.402
 3720SOL     OW11448   2.074   4.340   1.995
 3720SOL    HW111449   1.982   4.337   2.034
 3720SOL    HW211450   2.071   4.322   1.897
 3721SOL     OW11451   2.083   4.008   2.857
 3721SOL    HW111452   2.116   3.973   2.944
 3721SOL    HW211453   1.990   3.974   2.840
 3722SOL     OW11454   1.858   4.111   2.496
 3722SOL    HW111455   1.776   4.142   2.545
 3722SOL    HW211456   1.835   4.030   2.442
 3723SOL     OW11457   2.432   5.028   3.057
 3723SOL    HW111458   2.344   5.027   3.009
 3723SOL    HW211459   2.452   5.120   3.089
 3724SOL     OW11460   3.433   5.236   2.567
 3724SOL    HW111461   3.389   5.211   2.653
 3724SOL    HW211462   3.364   5.244   2.496
 3725SOL     OW11463   3.002   4.424   2.545
 3725SOL    HW111464   3.052   4.509   2.533
 3725SOL    HW211465   2.948   4.428   2.630
 3726SOL     OW11466   3.666   4.340   2.068
 3726SOL    HW111467   3.598   4.355   1.996
 3726SOL    HW211468   3.704   4.248   2.058
 3727SOL     OW11469   2.596   4.861   2.907
 3727SOL    HW111470   2.531   4.898   2.974
 3727SOL    HW211471   2.642   4.937   2.860
 3728SOL     OW11472   2.742   4.479   3.685
 3728SOL    HW111473   2.731   4.547   3.758
 3728SOL    HW211474   2.764   4.526   3.599
 3729SOL     OW11475   2.546   4.719   2.510
 3729SOL    HW111476   2.617   4.712   2.580
 3729SOL    HW211477   2.472   4.778   2.544
 3730SOL     OW11478   2.574   4.878   3.686
 3730SOL    HW111479   2.628   4.954   3.721
 3730SOL    HW211480   2.492   4.912   3.641
 3731SOL     OW11481   2.192   5.138   2.927
 3731SOL    HW111482   2.113   5.094   2.884
 3731SOL    HW211483   2.240   5.194   2.860
 3732SOL     OW11484   3.318   5.227   3.225
 3732SOL    HW111485   3.375   5.308   3.233
 3732SOL    HW211486   3.245   5.231   3.294
 3733SOL     OW11487   2.314   4.111   3.334
 3733SOL    HW111488   2.396   4.055   3.344
 3733SOL    HW211489   2.233   4.056   3.354
 3734SOL     OW11490   3.468   4.162   2.633
 3734SOL    HW111491   3.384   4.176   2.582
 3734SOL    HW211492   3.470   4.222   2.712
 3735SOL     OW11493   2.087   5.440   2.333
 3735SOL    HW111494   2.106   5.517   2.394
 3735SOL    HW211495   2.162   5.429   2.268
 3736SOL     OW11496   2.999   5.062   3.562
 3736SOL    HW111497   3.046   5.058   3.650
 3736SOL    HW211498   2.942   4.980   3.551
 3737SOL     OW11499   2.098   5.170   2.397
 3737SOL    HW111500   2.082   5.269   2.397
 3737SOL    HW211501   2.039   5.127   2.466
 3738SOL     OW11502   2.141   4.814   2.763
 3738SOL    HW111503   2.136   4.719   2.794
 3738SOL    HW211504   2.078   4.869   2.816
 3739SOL     OW11505   2.456   5.512   3.291
 3739SOL    HW111506   2.372   5.491   3.341
 3739SOL    HW211507   2.486   5.604   3.314
 3740SOL     OW11508   2.440   4.714   2.010
 3740SOL    HW111509   2.487   4.760   1.935
 3740SOL    HW211510   2.481   4.741   2.097
 3741SOL     OW11511   3.457   3.852   3.324
 3741SOL    HW111512   3.490   3.923   3.263
 3741SOL    HW211513   3.452   3.887   3.417
 3742SOL     OW11514   1.978   4.388   2.428
 3742SOL    HW111515   1.948   4.294   2.445
 3742SOL    HW211516   1.972   4.440   2.513
 3743SOL     OW11517   3.712   5.476   2.192
 3743SOL    HW111518   3.785   5.449   2.254
 3743SOL    HW211519   3.726   5.572   2.164
 3744SOL     OW11520   1.892   5.309   1.983
 3744SOL    HW111521   1.877   5.212   2.002
 3744SOL    HW211522   1.873   5.362   2.065
 3745SOL     OW11523   3.555   4.637   2.508
 3745SOL    HW111524   3.648   4.601   2.502
 3745SOL    HW211525   3.535   4.692   2.427
 3746SOL     OW11526   3.518   4.825   2.296
 3746SOL    HW111527   3.606   4.820   2.249
 3746SOL    HW211528   3.523   4.891   2.370
 3747SOL     OW11529   1.986   4.470   3.446
 3747SOL    HW111530   2.081   4.501   3.445
 3747SOL    HW211531   1.925   4.549   3.438
 3748SOL     OW11532   2.475   5.117   2.593
 3748SOL    HW111533   2.430   5.028   2.604
 3748SOL    HW211534   2.461   5.150   2.499
 3749SOL     OW11535   3.146   4.954   3.283
 3749SOL    HW111536   3.171   4.884   3.217
 3749SOL    HW211537   3.208   4.950   3.361
 3750SOL     OW11538   2.676   3.731   2.364
 3750SOL    HW111539   2.726   3.816   2.348
 3750SOL    HW211540   2.578   3.751   2.373
 3751SOL     OW11541   2.051   4.680   3.149
 3751SOL    HW111542   2.141   4.640   3.134
 3751SOL    HW211543   1.986   4.642   3.083
 3752SOL     OW11544   3.393   4.730   2.066
 3752SOL    HW111545   3.320   4.668   2.095
 3752SOL    HW211546   3.440   4.766   2.147
 3753SOL     OW11547   3.065   5.523   3.482
 3753SOL    HW111548   3.063   5.582   3.401
 3753SOL    HW211549   3.075   5.428   3.453
 3754SOL     OW11550   2.208   3.973   3.718
 3754SOL    HW111551   2.256   4.058   3.740
 3754SOL    HW211552   2.110   3.988   3.724
 3755SOL     OW11553   3.324   5.145   2.802
 3755SOL    HW111554   3.261   5.165   2.877
 3755SOL    HW211555   3.316   5.049   2.776
 3756SOL     OW11556   3.513   5.474   2.436
 3756SOL    HW111557   3.490   5.445   2.342
 3756SOL    HW211558   3.494   5.398   2.499
 3757SOL     OW11559   2.455   4.440   2.138
 3757SOL    HW111560   2.458   4.528   2.090
 3757SOL    HW211561   2.385   4.445   2.210
 3758SOL     OW11562   3.136   4.104   2.803
 3758SOL    HW111563   3.043   4.067   2.809
 3758SOL    HW211564   3.197   4.049   2.859
 3759SOL     OW11565   3.447   5.399   2.171
 3759SOL    HW111566   3.544   5.421   2.168
 3759SOL    HW211567   3.413   5.383   2.079
 3760SOL     OW11568   2.651   4.334   3.308
 3760SOL    HW111569   2.627   4.308   3.402
 3760SOL    HW211570   2.619   4.264   3.245
 3761SOL     OW11571   3.250   4.196   3.541
 3761SOL    HW111572   3.252   4.245   3.628
 3761SOL    HW211573   3.315   4.120   3.545
 3762SOL     OW11574   2.812   4.606   3.448
 3762SOL    HW111575   2.870   4.536   3.407
 3762SOL    HW211576   2.758   4.651   3.377
 3763SOL     OW11577   2.857   4.124   3.084
 3763SOL    HW111578   2.762   4.140   3.112
 3763SOL    HW211579   2.858   4.087   2.991
 3764SOL     OW11580   2.919   4.418   2.277
 3764SOL    HW111581   2.941   4.416   2.375
 3764SOL    HW211582   2.832   4.373   2.262
 3765SOL     OW11583   1.951   4.553   2.645
 3765SOL    HW111584   2.037   4.541   2.695
 3765SOL    HW211585   1.901   4.630   2.683
 3766SOL     OW11586   1.991   5.595   3.453
 3766SOL    HW111587   1.999   5.571   3.550
 3766SOL    HW211588   1.906   5.558   3.416
 3767SOL     OW11589   2.763   4.077   2.058
 3767SOL    HW111590   2.802   4.146   1.996
 3767SOL    HW211591   2.770   3.987   2.016
 3768SOL     OW11592   3.550   4.292   3.689
 3768SOL    HW111593   3.522   4.375   3.640
 3768SOL    HW211594   3.587   4.226   3.625
 3769SOL     OW11595   3.245   4.866   2.389
 3769SOL    HW111596   3.332   4.857   2.341
 3769SOL    HW211597   3.189   4.935   2.343
 3770SOL     OW11598   2.407   3.891   2.768
 3770SOL    HW111599   2.413   3.923   2.863
 3770SOL    HW211600   2.411   3.969   2.706
 3771SOL     OW11601   2.853   5.171   2.324
 3771SOL    HW111602   2.826   5.250   2.268
 3771SOL    HW211603   2.829   5.188   2.419
 3772SOL     OW11604   2.213   5.539   2.738
 3772SOL    HW111605   2.258   5.449   2.743
 3772SOL    HW211606   2.280   5.611   2.756
 3773SOL     OW11607   3.659   4.774   2.741
 3773SOL    HW111608   3.607   4.759   2.657
 3773SOL    HW211609   3.596   4.781   2.818
 3774SOL     OW11610   3.086   5.257   3.378
 3774SOL    HW111611   3.074   5.183   3.444
 3774SOL    HW211612   3.017   5.249   3.306
 3775SOL     OW11613   2.179   4.686   2.121
 3775SOL    HW111614   2.267   4.706   2.078
 3775SOL    HW211615   2.143   4.600   2.083
 3776SOL     OW11616   3.341   4.486   2.591
 3776SOL    HW111617   3.347   4.433   2.676
 3776SOL    HW211618   3.427   4.535   2.576
 3777SOL     OW11619   2.335   4.993   3.591
 3777SOL    HW111620   2.309   4.998   3.495
 3777SOL    HW211621   2.252   4.989   3.647
 3778SOL     OW11622   2.993   5.495   2.088
 3778SOL    HW111623   2.907   5.465   2.131
 3778SOL    HW211624   3.019   5.430   2.017
 3779SOL     OW11625   2.066   3.991   3.362
 3779SOL    HW111626   1.986   4.051   3.363
 3779SOL    HW211627   2.041   3.903   3.402
 3780SOL     OW11628   3.485   5.110   1.958
 3780SOL    HW111629   3.450   5.201   1.936
 3780SOL    HW211630   3.415   5.041   1.934
 3781SOL     OW11631   2.328   5.453   2.182
 3781SOL    HW111632   2.368   5.520   2.243
 3781SOL    HW211633   2.397   5.419   2.118
 3782SOL     OW11634   2.117   5.513   3.085
 3782SOL    HW111635   2.169   5.437   3.125
 3782SOL    HW211636   2.102   5.496   2.988
 3783SOL     OW11637   2.802   5.422   2.755
 3783SOL    HW111638   2.888   5.377   2.783
 3783SOL    HW211639   2.760   5.369   2.682
 3784SOL     OW11640   2.259   4.409   2.336
 3784SOL    HW111641   2.277   4.312   2.351
 3784SOL    HW211642   2.162   4.428   2.352
 3785SOL     OW11643   3.391   3.954   3.586
 3785SOL    HW111644   3.397   3.967   3.685
 3785SOL    HW211645   3.318   3.888   3.566
 3786SOL     OW11646   2.510   3.836   1.964
 3786SOL    HW111647   2.583   3.769   1.980
 3786SOL    HW211648   2.451   3.803   1.890
 3787SOL     OW11649   2.627   3.999   3.626
 3787SOL    HW111650   2.713   3.949   3.620
 3787SOL    HW211651   2.571   3.961   3.700
 3788SOL     OW11652   2.736   5.238   3.054
 3788SOL    HW111653   2.716   5.200   2.964
 3788SOL    HW211654   2.807   5.183   3.098
 3789SOL     OW11655   3.197   4.313   3.298
 3789SOL    HW111656   3.227   4.280   3.387
 3789SOL    HW211657   3.233   4.405   3.283
 3790SOL     OW11658   2.683   5.107   2.806
 3790SOL    HW111659   2.773   5.097   2.765
 3790SOL    HW211660   2.615   5.119   2.734
 3791SOL     OW11661   2.787   4.236   2.753
 3791SOL    HW111662   2.761   4.227   2.657
 3791SOL    HW211663   2.817   4.147   2.789
 3792SOL     OW11664   2.407   3.790   2.351
 3792SOL    HW111665   2.327   3.789   2.410
 3792SOL    HW211666   2.404   3.869   2.291
 3793SOL     OW11667   3.287   4.928   1.903
 3793SOL    HW111668   3.320   4.850   1.956
 3793SOL    HW211669   3.198   4.956   1.938
 3794SOL     OW11670   2.151   3.771   2.049
 3794SOL    HW111671   2.198   3.843   1.997
 3794SOL    HW211672   2.218   3.710   2.090
 3795SOL     OW11673   2.804   3.977   2.316
 3795SOL    HW111674   2.774   4.014   2.228
 3795SOL    HW211675   2.903   3.988   2.326
 3796SOL     OW11676   2.939   4.410   3.312
 3796SOL    HW111677   2.865   4.343   3.315
 3796SOL    HW211678   3.027   4.363   3.308
 3797SOL     OW11679   3.076   5.298   2.658
 3797SOL    HW111680   3.090   5.367   2.587
 3797SOL    HW211681   3.152   5.300   2.722
 3798SOL     OW11682   2.333   4.878   2.583
 3798SOL    HW111683   2.269   4.856   2.657
 3798SOL    HW211684   2.287   4.869   2.495
 3799SOL     OW11685   3.123   5.512   2.474
 3799SOL    HW111686   3.179   5.575   2.421
 3799SOL    HW211687   3.042   5.559   2.509
 3800SOL     OW11688   2.884   4.261   1.892
 3800SOL    HW111689   2.831   4.341   1.863
 3800SOL    HW211690   2.964   4.292   1.944
 3801SOL     OW11691   1.955   4.280   3.253
 3801SOL    HW111692   2.050   4.277   3.220
 3801SOL    HW211693   1.947   4.351   3.323
 3802SOL     OW11694   2.421   3.946   3.040
 3802SOL    HW111695   2.468   3.870   3.084
 3802SOL    HW211696   2.324   3.945   3.066
 3803SOL     OW11697   2.727   4.185   2.494
 3803SOL    HW111698   2.681   4.247   2.430
 3803SOL    HW211699   2.751   4.100   2.446
 3804SOL     OW11700   2.854   3.805   2.631
 3804SOL    HW111701   2.852   3.795   2.531
 3804SOL    HW211702   2.838   3.717   2.674
 3805SOL     OW11703   3.311   4.883   2.722
 3805SOL    HW111704   3.234   4.819   2.725
 3805SOL    HW211705   3.344   4.891   2.628
 3806SOL     OW11706   3.329   4.334   2.831
 3806SOL    HW111707   3.260   4.262   2.834
 3806SOL    HW211708   3.386   4.328   2.913
 3807SOL     OW11709   3.696   4.527   2.256
 3807SOL    HW111710   3.763   4.484   2.315
 3807SOL    HW211711   3.678   4.468   2.177
 3808SOL     OW11712   2.348   5.144   2.013
 3808SOL    HW111713   2.267   5.119   2.066
 3808SOL    HW211714   2.348   5.095   1.926
 3809SOL     OW11715   3.543   4.986   2.508
 3809SOL    HW111716   3.643   4.982   2.519
 3809SOL    HW211717   3.511   5.079   2.525
 3810SOL     OW11718   3.239   4.306   1.912
 3810SOL    HW111719   3.201   4.270   1.998
 3810SOL    HW211720   3.338   4.297   1.914
 3811SOL     OW11721   2.391   3.988   2.166
 3811SOL    HW111722   2.441   3.936   2.096
 3811SOL    HW211723   2.360   4.074   2.127
 3812SOL     OW11724   3.611   4.967   3.410
 3812SOL    HW111725   3.701   4.925   3.393
 3812SOL    HW211726   3.624   5.059   3.446
 3813SOL     OW11727   2.910   5.073   3.199
 3813SOL    HW111728   2.828   5.043   3.247
 3813SOL    HW211729   2.991   5.031   3.241
 3814SOL     OW11730   3.476   5.358   3.523
 3814SOL    HW111731   3.459   5.394   3.431
 3814SOL    HW211732   3.561   5.304   3.522
 3815SOL     OW11733   3.007   4.956   2.967
 3815SOL    HW111734   2.944   4.987   3.038
 3815SOL    HW211735   2.973   4.985   2.877
 3816SOL     OW11736   3.481   4.818   2.944
 3816SOL    HW111737   3.477   4.885   3.018
 3816SOL    HW211738   3.409   4.837   2.878
 3817SOL     OW11739   2.777   3.831   3.252
 3817SOL    HW111740   2.795   3.811   3.155
 3817SOL    HW211741   2.860   3.868   3.294
 3818SOL     OW11742   2.839   4.839   3.583
 3818SOL    HW111743   2.745   4.858   3.611
 3818SOL    HW211744   2.840   4.755   3.528
 3819SOL     OW11745   2.578   4.783   2.238
 3819SOL    HW111746   2.560   4.763   2.335
 3819SOL    HW211747   2.656   4.730   2.207
 3820SOL     OW11748   2.287   4.542   3.118
 3820SOL    HW111749   2.360   4.555   3.185
 3820SOL    HW211750   2.250   4.450   3.127
 3821SOL     OW11751   3.119   4.092   3.155
 3821SOL    HW111752   3.156   4.174   3.199
 3821SOL    HW211753   3.025   4.110   3.125
 3822SOL     OW11754   1.938   5.293   3.217
 3822SOL    HW111755   1.900   5.361   3.154
 3822SOL    HW211756   2.038   5.293   3.209
 3823SOL     OW11757   2.191   4.853   2.348
 3823SOL    HW111758   2.195   4.935   2.291
 3823SOL    HW211759   2.193   4.772   2.289
 3824SOL     OW11760   2.405   4.267   2.726
 3824SOL    HW111761   2.418   4.326   2.646
 3824SOL    HW211762   2.476   4.286   2.794
 3825SOL     OW11763   3.106   5.080   2.258
 3825SOL    HW111764   3.167   5.153   2.289
 3825SOL    HW211765   3.012   5.101   2.287
 3826SOL     OW11766   3.157   5.189   3.009
 3826SOL    HW111767   3.213   5.195   3.092
 3826SOL    HW211768   3.104   5.105   3.010
 3827SOL     OW11769   2.210   5.255   3.167
 3827SOL    HW111770   2.195   5.208   3.080
 3827SOL    HW211771   2.308   5.270   3.180
 3828SOL     OW11772   2.280   4.473   3.463
 3828SOL    HW111773   2.348   4.517   3.405
 3828SOL    HW211774   2.310   4.381   3.486
 3829SOL     OW11775   3.475   4.512   3.551
 3829SOL    HW111776   3.385   4.554   3.546
 3829SOL    HW211777   3.533   4.551   3.479
 3830SOL     OW11778   2.864   3.865   3.631
 3830SOL    HW111779   2.916   3.948   3.612
 3830SOL    HW211780   2.912   3.786   3.594
 3831SOL     OW11781   2.352   3.762   3.617
 3831SOL    HW111782   2.305   3.704   3.551
 3831SOL    HW211783   2.295   3.841   3.639
 3832SOL     OW11784   2.450   4.596   2.899
 3832SOL    HW111785   2.486   4.690   2.896
 3832SOL    HW211786   2.388   4.587   2.977
 3833SOL     OW11787   3.198   4.579   2.881
 3833SOL    HW111788   3.107   4.565   2.843
 3833SOL    HW211789   3.254   4.497   2.868
 3834SOL     OW11790   3.099   4.251   2.148
 3834SOL    HW111791   3.082   4.164   2.194
 3834SOL    HW211792   3.037   4.321   2.184
 3835SOL     OW11793   2.158   3.917   3.106
 3835SOL    HW111794   2.122   3.951   3.193
 3835SOL    HW211795   2.143   3.819   3.101
 3836SOL     OW11796   1.916   5.032   3.134
 3836SOL    HW111797   1.947   4.971   3.207
 3836SOL    HW211798   1.918   5.127   3.167
 3837SOL     OW11799   2.586   4.354   2.914
 3837SOL    HW111800   2.662   4.336   2.851
 3837SOL    HW211801   2.550   4.446   2.897
 3838SOL     OW11802   3.603   4.687   3.724
 3838SOL    HW111803   3.561   4.616   3.667
 3838SOL    HW211804   3.541   4.708   3.801
 3839SOL     OW11805   2.172   3.783   2.493
 3839SOL    HW111806   2.144   3.878   2.509
 3839SOL    HW211807   2.183   3.736   2.580
 3840SOL     OW11808   2.889   4.481   2.817
 3840SOL    HW111809   2.878   4.501   2.914
 3840SOL    HW211810   2.860   4.387   2.799
 3841SOL     OW11811   2.847   5.289   3.584
 3841SOL    HW111812   2.825   5.333   3.497
 3841SOL    HW211813   2.891   5.200   3.565
 3842SOL     OW11814   3.713   5.225   3.464
 3842SOL    HW111815   3.734   5.251   3.370
 3842SOL    HW211816   3.795   5.233   3.520
 3843SOL     OW11817   2.213   4.643   3.669
 3843SOL    HW111818   2.293   4.665   3.725
 3843SOL    HW211819   2.240   4.579   3.597
 3844SOL     OW11820   3.147   4.558   1.880
 3844SOL    HW111821   3.180   4.463   1.883
 3844SOL    HW211822   3.179   4.601   1.796
 3845SOL     OW11823   2.935   5.065   2.720
 3845SOL    HW111824   2.941   4.986   2.659
 3845SOL    HW211825   2.989   5.141   2.683
 3846SOL     OW11826   2.175   4.531   2.805
 3846SOL    HW111827   2.272   4.554   2.797
 3846SOL    HW211828   2.166   4.437   2.836
 3847SOL     OW11829   2.183   4.254   2.873
 3847SOL    HW111830   2.144   4.163   2.863
 3847SOL    HW211831   2.264   4.262   2.816
 3848SOL     OW11832   2.997   4.095   3.564
 3848SOL    HW111833   2.945   4.154   3.626
 3848SOL    HW211834   3.088   4.134   3.549
 3849SOL     OW11835   3.019   3.923   3.348
 3849SOL    HW111836   3.005   3.987   3.423
 3849SOL    HW211837   3.065   3.971   3.272
 3850SOL     OW11838   1.862   5.035   2.057
 3850SOL    HW111839   1.772   5.056   2.019
 3850SOL    HW211840   1.863   4.941   2.091
 3851SOL     OW11841   1.952   5.506   2.811
 3851SOL    HW111842   1.916   5.427   2.763
 3851SOL    HW211843   2.044   5.526   2.778
 3852SOL     OW11844   2.350   5.298   2.764
 3852SOL    HW111845   2.421   5.363   2.792
 3852SOL    HW211846   2.389   5.231   2.701
 3853SOL     OW11847   2.827   4.516   3.081
 3853SOL    HW111848   2.887   4.494   3.158
 3853SOL    HW211849   2.738   4.471   3.094
 3854SOL     OW11850   1.901   4.283   2.981
 3854SOL    HW111851   1.982   4.274   2.924
 3854SOL    HW211852   1.927   4.283   3.077
 3855SOL     OW11853   2.055   4.250   3.594
 3855SOL    HW111854   2.108   4.195   3.530
 3855SOL    HW211855   2.018   4.331   3.548
 3856SOL     OW11856   3.246   4.656   3.514
 3856SOL    HW111857   3.269   4.753   3.514
 3856SOL    HW211858   3.240   4.623   3.419
 3857SOL     OW11859   2.681   4.298   2.222
 3857SOL    HW111860   2.690   4.218   2.163
 3857SOL    HW211861   2.602   4.352   2.194
 3858SOL     OW11862   3.501   4.328   3.043
 3858SOL    HW111863   3.485   4.265   3.119
 3858SOL    HW211864   3.593   4.314   3.007
 3859SOL     OW11865   2.098   5.265   3.585
 3859SOL    HW111866   2.079   5.341   3.648
 3859SOL    HW211867   2.106   5.180   3.637
 3860SOL     OW11868   2.581   4.165   3.108
 3860SOL    HW111869   2.519   4.090   3.088
 3860SOL    HW211870   2.573   4.235   3.037
 3861SOL     OW11871   2.778   5.401   3.338
 3861SOL    HW111872   2.749   5.348   3.257
 3861SOL    HW211873   2.775   5.498   3.317
 3862SOL     OW11874   2.315   4.218   2.043
 3862SOL    HW111875   2.381   4.290   2.069
 3862SOL    HW211876   2.224   4.258   2.034
 3863SOL     OW11877   1.999   4.863   3.341
 3863SOL    HW111878   2.003   4.824   3.433
 3863SOL    HW211879   2.020   4.792   3.273
 3864SOL     OW11880   3.171   4.766   3.077
 3864SOL    HW111881   3.194   4.697   3.008
 3864SOL    HW211882   3.110   4.834   3.037
 3865SOL     OW11883   3.182   4.572   2.152
 3865SOL    HW111884   3.100   4.571   2.209
 3865SOL    HW211885   3.155   4.571   2.056
 3866SOL     OW11886   3.641   5.439   3.023
 3866SOL    HW111887   3.704   5.478   2.955
 3866SOL    HW211888   3.612   5.348   2.994
 3867SOL     OW11889   3.105   5.457   2.963
 3867SOL    HW111890   3.192   5.490   2.927
 3867SOL    HW211891   3.113   5.360   2.986
 3868SOL     OW11892   1.953   4.983   2.871
 3868SOL    HW111893   1.934   5.001   2.967
 3868SOL    HW211894   1.881   4.925   2.832
 3869SOL     OW11895   2.545   5.403   3.605
 3869SOL    HW111896   2.478   5.478   3.604
 3869SOL    HW211897   2.616   5.421   3.537
 3870SOL     OW11898   3.260   5.294   2.353
 3870SOL    HW111899   3.320   5.327   2.281
 3870SOL    HW211900   3.203   5.369   2.386
 3871SOL     OW11901   2.011   5.506   3.708
 3871SOL    HW111902   1.953   5.437   3.753
 3871SOL    HW211903   2.061   5.557   3.778
 3872SOL     OW11904   3.143   4.655   2.523
 3872SOL    HW111905   3.218   4.593   2.547
 3872SOL    HW211906   3.179   4.731   2.468
 3873SOL     OW11907   2.655   5.006   3.283
 3873SOL    HW111908   2.628   5.052   3.368
 3873SOL    HW211909   2.583   5.017   3.214
 3874SOL     OW11910   2.530   5.345   2.016
 3874SOL    HW111911   2.545   5.368   1.920
 3874SOL    HW211912   2.470   5.265   2.022
 3875SOL     OW11913   3.474   5.454   3.250
 3875SOL    HW111914   3.534   5.450   3.170
 3875SOL    HW211915   3.453   5.549   3.271
 3876SOL     OW11916   2.112   4.035   2.575
 3876SOL    HW111917   2.023   4.071   2.547
 3876SOL    HW211918   2.116   4.030   2.675
 3877SOL     OW11919   3.071   5.317   1.895
 3877SOL    HW111920   3.062   5.224   1.930
 3877SOL    HW211921   3.001   5.333   1.825
 3878SOL     OW11922   2.685   4.736   3.245
 3878SOL    HW111923   2.733   4.719   3.159
 3878SOL    HW211924   2.678   4.834   3.260
 3879SOL     OW11925   2.785   4.635   2.152
 3879SOL    HW111926   2.843   4.672   2.079
 3879SOL    HW211927   2.832   4.561   2.199
 3880SOL     OW11928   3.346   5.367   1.906
 3880SOL    HW111929   3.249   5.346   1.892
 3880SOL    HW211930   3.393   5.369   1.817
 3881SOL     OW11931   2.227   5.028   3.347
 3881SOL    HW111932   2.218   5.108   3.288
 3881SOL    HW211933   2.146   4.970   3.338
 3882SOL     OW11934   3.472   5.010   3.147
 3882SOL    HW111935   3.535   4.988   3.222
 3882SOL    HW211936   3.407   5.079   3.178
 3883SOL     OW11937   2.934   4.832   2.585
 3883SOL    HW111938   2.854   4.783   2.621
 3883SOL    HW211939   3.001   4.766   2.552
 3884SOL     OW11940   2.879   3.980   2.838
 3884SOL    HW111941   2.870   3.937   2.748
 3884SOL    HW211942   2.873   3.910   2.909
 3885SOL     OW11943   2.467   5.212   2.340
 3885SOL    HW111944   2.520   5.157   2.275
 3885SOL    HW211945   2.394   5.260   2.291
 3886SOL     OW11946   3.608   4.106   3.236
 3886SOL    HW111947   3.679   4.176   3.235
 3886SOL    HW211948   3.629   4.036   3.167
 3887SOL     OW11949   2.115   5.071   2.151
 3887SOL    HW111950   2.019   5.063   2.124
 3887SOL    HW211951   2.120   5.114   2.242
 3888SOL     OW11952   1.980   4.772   3.601
 3888SOL    HW111953   1.898   4.740   3.648
 3888SOL    HW211954   2.059   4.720   3.634
 3889SOL     OW11955   2.543   3.930   3.368
 3889SOL    HW111956   2.627   3.905   3.320
 3889SOL    HW211957   2.565   3.962   3.460
 3890SOL     OW11958   1.943   4.048   1.885
 3890SOL    HW111959   1.856   4.022   1.843
 3890SOL    HW211960   1.976   4.132   1.843
 3891SOL     OW11961   3.280   4.579   3.253
 3891SOL    HW111962   3.223   4.642   3.200
 3891SOL    HW211963   3.374   4.581   3.219
 3892SOL     OW11964   1.919   3.878   2.153
 3892SOL    HW111965   1.902   3.959   2.097
 3892SOL    HW211966   2.009   3.840   2.130
 3893SOL     OW11967   3.041   5.056   1.985
 3893SOL    HW111968   2.944   5.033   1.976
 3893SOL    HW211969   3.066   5.058   2.082
 3894SOL     OW11970   2.488   4.554   3.298
 3894SOL    HW111971   2.546   4.634   3.284
 3894SOL    HW211972   2.546   4.472   3.305
 3895SOL     OW11973   3.353   5.535   2.869
 3895SOL    HW111974   3.375   5.590   2.787
 3895SOL    HW211975   3.435   5.487   2.899
 3896SOL     OW11976   2.588   4.276   3.562
 3896SOL    HW111977   2.633   4.342   3.622
 3896SOL    HW211978   2.603   4.183   3.598
 3897SOL     OW11979   3.337   4.916   3.494
 3897SOL    HW111980   3.323   4.931   3.592
 3897SOL    HW211981   3.432   4.937   3.470
 3898SOL     OW11982   2.229   5.458   3.431
 3898SOL    HW111983   2.146   5.513   3.416
 3898SOL    HW211984   2.203   5.370   3.471
 3899SOL     OW11985   3.522   4.601   3.120
 3899SOL    HW111986   3.519   4.510   3.078
 3899SOL    HW211987   3.510   4.670   3.049
 3900SOL     OW11988   3.079   4.035   2.321
 3900SOL    HW111989   3.108   3.940   2.322
 3900SOL    HW211990   3.111   4.081   2.404
 3901SOL     OW11991   2.445   4.459   2.534
 3901SOL    HW111992   2.488   4.549   2.522
 3901SOL    HW211993   2.378   4.444   2.461
 3902SOL     OW11994   3.614   4.091   3.511
 3902SOL    HW111995   3.608   4.103   3.412
 3902SOL    HW211996   3.536   4.035   3.542
 3903SOL     OW11997   3.619   4.653   3.371
 3903SOL    HW111998   3.606   4.750   3.393
 3903SOL    HW211999   3.594   4.637   3.276
 3904SOL     OW12000   2.737   5.086   1.917
 3904SOL    HW112001   2.691   5.106   2.004
 3904SOL    HW212002   2.744   5.169   1.863
 3905SOL     OW12003   2.532   5.493   2.801
 3905SOL    HW112004   2.504   5.587   2.783
 3905SOL    HW212005   2.631   5.484   2.790
 3906SOL     OW12006   2.732   4.698   2.718
 3906SOL    HW112007   2.784   4.619   2.753
 3906SOL    HW212008   2.686   4.744   2.794
 3907SOL     OW12009   2.938   4.715   1.947
 3907SOL    HW112010   2.906   4.771   1.870
 3907SOL    HW212011   3.015   4.658   1.918
 3908SOL     OW12012   3.701   5.281   2.710
 3908SOL    HW112013   3.626   5.269   2.644
 3908SOL    HW212014   3.689   5.217   2.786
 3909SOL     OW12015   2.096   5.016   3.717
 3909SOL    HW112016   2.037   4.944   3.680
 3909SOL    HW212017   2.077   5.028   3.814
 3910SOL     OW12018   1.956   4.951   2.524
 3910SOL    HW112019   1.967   4.907   2.613
 3910SOL    HW212020   2.022   4.913   2.460
 3911SOL     OW12021   2.549   5.139   3.499
 3911SOL    HW112022   2.468   5.090   3.531
 3911SOL    HW212023   2.548   5.232   3.535
 3912SOL     OW12024   3.669   3.900   3.068
 3912SOL    HW112025   3.722   3.820   3.095
 3912SOL    HW212026   3.656   3.899   2.968
 3913SOL     OW12027   2.291   4.149   2.388
 3913SOL    HW112028   2.325   4.080   2.324
 3913SOL    HW212029   2.235   4.104   2.457
 3914SOL     OW12030   3.555   5.195   2.948
 3914SOL    HW112031   3.473   5.181   2.892
 3914SOL    HW212032   3.557   5.127   3.021
 3915SOL     OW12033   2.203   4.283   3.150
 3915SOL    HW112034   2.258   4.222   3.208
 3915SOL    HW212035   2.214   4.257   3.054
 3916SOL     OW12036   2.693   5.307   2.535
 3916SOL    HW112037   2.673   5.380   2.469
 3916SOL    HW212038   2.616   5.244   2.539
 3917SOL     OW12039   3.289   3.962   2.979
 3917SOL    HW112040   3.295   3.863   2.988
 3917SOL    HW212041   3.238   4.000   3.056
 3918SOL     OW12042   2.863   3.752   2.999
 3918SOL    HW112043   2.811   3.686   2.945
 3918SOL    HW212044   2.957   3.719   3.012
 3919SOL     OW12045   2.637   5.054   2.187
 3919SOL    HW112046   2.612   4.958   2.198
 3919SOL    HW212047   2.721   5.073   2.237
 3920SOL     OW12048   2.486   5.282   3.153
 3920SOL    HW112049   2.481   5.368   3.203
 3920SOL    HW212050   2.577   5.272   3.111
 3921SOL     OW12051   3.220   3.809   2.046
 3921SOL    HW112052   3.288   3.737   2.058
 3921SOL    HW212053   3.128   3.770   2.056
 3922SOL     OW12054   3.164   4.184   2.542
 3922SOL    HW112055   3.113   4.270   2.535
 3922SOL    HW212056   3.154   4.147   2.634
 3923SOL     OW12057   3.393   3.909   2.730
 3923SOL    HW112058   3.370   3.939   2.823
 3923SOL    HW212059   3.438   3.983   2.681
 3924SOL     OW12060   1.903   4.782   2.172
 3924SOL    HW112061   2.001   4.781   2.153
 3924SOL    HW212062   1.873   4.689   2.192
 3925SOL     OW12063   2.749   5.390   2.191
 3925SOL    HW112064   2.673   5.368   2.129
 3925SOL    HW212065   2.721   5.462   2.254
 3926SOL     OW12066   2.074   4.338   3.858
 3926SOL    HW112067   1.981   4.337   3.896
 3926SOL    HW212068   2.070   4.322   3.760
 3927SOL     OW12069   2.084   4.006   4.718
 3927SOL    HW112070   2.116   3.973   4.807
 3927SOL    HW212071   1.991   3.973   4.702
 3928SOL     OW12072   1.858   4.112   4.358
 3928SOL    HW112073   1.776   4.143   4.407
 3928SOL    HW212074   1.835   4.032   4.304
 3929SOL     OW12075   2.432   5.028   4.919
 3929SOL    HW112076   2.344   5.027   4.871
 3929SOL    HW212077   2.452   5.120   4.952
 3930SOL     OW12078   3.433   5.238   4.431
 3930SOL    HW112079   3.390   5.212   4.517
 3930SOL    HW212080   3.364   5.245   4.359
 3931SOL     OW12081   2.997   4.431   4.415
 3931SOL    HW112082   3.049   4.514   4.399
 3931SOL    HW212083   2.946   4.439   4.501
 3932SOL     OW12084   3.643   4.316   3.941
 3932SOL    HW112085   3.611   4.314   3.846
 3932SOL    HW212086   3.603   4.239   3.991
 3933SOL     OW12087   2.595   4.861   4.768
 3933SOL    HW112088   2.530   4.898   4.835
 3933SOL    HW212089   2.641   4.936   4.722
 3934SOL     OW12090   2.738   4.480   5.550
 3934SOL    HW112091   2.720   4.543   5.626
 3934SOL    HW212092   2.761   4.533   5.469
 3935SOL     OW12093   2.545   4.719   4.372
 3935SOL    HW112094   2.617   4.712   4.442
 3935SOL    HW212095   2.472   4.777   4.406
 3936SOL     OW12096   2.573   4.888   5.545
 3936SOL    HW112097   2.626   4.966   5.579
 3936SOL    HW212098   2.490   4.921   5.501
 3937SOL     OW12099   2.192   5.138   4.789
 3937SOL    HW112100   2.113   5.094   4.746
 3937SOL    HW212101   2.240   5.194   4.722
 3938SOL     OW12102   3.318   5.228   5.086
 3938SOL    HW112103   3.376   5.308   5.093
 3938SOL    HW212104   3.247   5.232   5.156
 3939SOL     OW12105   2.315   4.109   5.192
 3939SOL    HW112106   2.397   4.053   5.205
 3939SOL    HW212107   2.234   4.057   5.217
 3940SOL     OW12108   3.469   4.166   4.474
 3940SOL    HW112109   3.402   4.186   4.402
 3940SOL    HW212110   3.464   4.236   4.544
 3941SOL     OW12111   2.087   5.440   4.195
 3941SOL    HW112112   2.105   5.517   4.256
 3941SOL    HW212113   2.163   5.429   4.131
 3942SOL     OW12114   2.999   5.059   5.422
 3942SOL    HW112115   3.052   5.057   5.507
 3942SOL    HW212116   2.944   4.976   5.415
 3943SOL     OW12117   2.097   5.169   4.258
 3943SOL    HW112118   2.082   5.268   4.258
 3943SOL    HW212119   2.040   5.126   4.327
 3944SOL     OW12120   2.140   4.813   4.624
 3944SOL    HW112121   2.136   4.719   4.656
 3944SOL    HW212122   2.078   4.870   4.678
 3945SOL     OW12123   2.455   5.510   5.155
 3945SOL    HW112124   2.370   5.490   5.203
 3945SOL    HW212125   2.484   5.603   5.176
 3946SOL     OW12126   2.440   4.714   3.872
 3946SOL    HW112127   2.488   4.759   3.796
 3946SOL    HW212128   2.481   4.742   3.959
 3947SOL     OW12129   3.458   3.851   5.193
 3947SOL    HW112130   3.490   3.931   5.141
 3947SOL    HW212131   3.436   3.879   5.286
 3948SOL     OW12132   1.977   4.388   4.290
 3948SOL    HW112133   1.948   4.294   4.308
 3948SOL    HW212134   1.972   4.441   4.375
 3949SOL     OW12135   3.712   5.476   4.053
 3949SOL    HW112136   3.785   5.448   4.116
 3949SOL    HW212137   3.725   5.571   4.027
 3950SOL     OW12138   1.892   5.309   3.844
 3950SOL    HW112139   1.877   5.212   3.863
 3950SOL    HW212140   1.873   5.362   3.927
 3951SOL     OW12141   3.555   4.645   4.375
 3951SOL    HW112142   3.641   4.596   4.362
 3951SOL    HW212143   3.534   4.699   4.293
 3952SOL     OW12144   3.519   4.827   4.158
 3952SOL    HW112145   3.608   4.820   4.113
 3952SOL    HW212146   3.524   4.894   4.231
 3953SOL     OW12147   1.986   4.468   5.308
 3953SOL    HW112148   2.081   4.499   5.306
 3953SOL    HW212149   1.925   4.547   5.301
 3954SOL     OW12150   2.475   5.117   4.455
 3954SOL    HW112151   2.430   5.028   4.466
 3954SOL    HW212152   2.462   5.149   4.361
 3955SOL     OW12153   3.145   4.954   5.145
 3955SOL    HW112154   3.170   4.884   5.078
 3955SOL    HW212155   3.209   4.951   5.222
 3956SOL     OW12156   2.683   3.737   4.230
 3956SOL    HW112157   2.729   3.823   4.207
 3956SOL    HW212158   2.584   3.753   4.236
 3957SOL     OW12159   2.051   4.680   5.010
 3957SOL    HW112160   2.142   4.640   4.995
 3957SOL    HW212161   1.986   4.640   4.946
 3958SOL     OW12162   3.395   4.731   3.929
 3958SOL    HW112163   3.322   4.669   3.959
 3958SOL    HW212164   3.443   4.766   4.010
 3959SOL     OW12165   3.049   5.519   5.345
 3959SOL    HW112166   3.062   5.584   5.270
 3959SOL    HW212167   3.067   5.426   5.314
 3960SOL     OW12168   2.213   3.977   5.561
 3960SOL    HW112169   2.258   4.059   5.597
 3960SOL    HW212170   2.114   3.984   5.577
 3961SOL     OW12171   3.324   5.145   4.664
 3961SOL    HW112172   3.261   5.165   4.739
 3961SOL    HW212173   3.316   5.049   4.638
 3962SOL     OW12174   3.512   5.474   4.297
 3962SOL    HW112175   3.490   5.445   4.205
 3962SOL    HW212176   3.494   5.400   4.361
 3963SOL     OW12177   2.454   4.439   4.000
 3963SOL    HW112178   2.459   4.527   3.952
 3963SOL    HW212179   2.385   4.445   4.072
 3964SOL     OW12180   3.141   4.095   4.659
 3964SOL    HW112181   3.047   4.060   4.666
 3964SOL    HW212182   3.200   4.041   4.719
 3965SOL     OW12183   3.446   5.399   4.033
 3965SOL    HW112184   3.544   5.421   4.030
 3965SOL    HW212185   3.413   5.382   3.941
 3966SOL     OW12186   2.651   4.336   5.168
 3966SOL    HW112187   2.626   4.312   5.262
 3966SOL    HW212188   2.619   4.265   5.106
 3967SOL     OW12189   3.253   4.191   5.399
 3967SOL    HW112190   3.257   4.247   5.482
 3967SOL    HW212191   3.308   4.108   5.411
 3968SOL     OW12192   2.813   4.608   5.313
 3968SOL    HW112193   2.870   4.537   5.272
 3968SOL    HW212194   2.758   4.652   5.241
 3969SOL     OW12195   2.858   4.123   4.944
 3969SOL    HW112196   2.765   4.142   4.974
 3969SOL    HW212197   2.856   4.075   4.856
 3970SOL     OW12198   2.914   4.423   4.147
 3970SOL    HW112199   2.938   4.421   4.244
 3970SOL    HW212200   2.827   4.377   4.132
 3971SOL     OW12201   1.951   4.554   4.506
 3971SOL    HW112202   2.037   4.542   4.556
 3971SOL    HW212203   1.901   4.632   4.545
 3972SOL     OW12204   1.991   5.594   5.314
 3972SOL    HW112205   1.999   5.570   5.411
 3972SOL    HW212206   1.903   5.560   5.280
 3973SOL     OW12207   2.756   4.078   3.924
 3973SOL    HW112208   2.802   4.145   3.865
 3973SOL    HW212209   2.739   3.994   3.872
 3974SOL     OW12210   3.544   4.285   5.557
 3974SOL    HW112211   3.520   4.368   5.507
 3974SOL    HW212212   3.580   4.217   5.494
 3975SOL     OW12213   3.245   4.868   4.253
 3975SOL    HW112214   3.331   4.855   4.203
 3975SOL    HW212215   3.189   4.936   4.206
 3976SOL     OW12216   2.409   3.890   4.632
 3976SOL    HW112217   2.414   3.920   4.728
 3976SOL    HW212218   2.411   3.971   4.573
 3977SOL     OW12219   2.853   5.171   4.186
 3977SOL    HW112220   2.826   5.250   4.131
 3977SOL    HW212221   2.829   5.187   4.281
 3978SOL     OW12222   2.213   5.538   4.600
 3978SOL    HW112223   2.259   5.449   4.605
 3978SOL    HW212224   2.280   5.610   4.619
 3979SOL     OW12225   3.661   4.777   4.603
 3979SOL    HW112226   3.611   4.755   4.519
 3979SOL    HW212227   3.596   4.783   4.679
 3980SOL     OW12228   3.085   5.257   5.239
 3980SOL    HW112229   3.076   5.180   5.303
 3980SOL    HW212230   3.019   5.246   5.165
 3981SOL     OW12231   2.179   4.686   3.983
 3981SOL    HW112232   2.268   4.707   3.941
 3981SOL    HW212233   2.144   4.601   3.945
 3982SOL     OW12234   3.347   4.479   4.442
 3982SOL    HW112235   3.345   4.435   4.532
 3982SOL    HW212236   3.428   4.538   4.436
 3983SOL     OW12237   2.326   4.997   5.460
 3983SOL    HW112238   2.301   5.002   5.364
 3983SOL    HW212239   2.243   4.991   5.516
 3984SOL     OW12240   2.992   5.496   3.949
 3984SOL    HW112241   2.908   5.466   3.993
 3984SOL    HW212242   3.018   5.430   3.878
 3985SOL     OW12243   2.065   3.991   5.225
 3985SOL    HW112244   1.985   4.051   5.229
 3985SOL    HW212245   2.043   3.903   5.266
 3986SOL     OW12246   3.484   5.109   3.816
 3986SOL    HW112247   3.448   5.200   3.797
 3986SOL    HW212248   3.414   5.040   3.795
 3987SOL     OW12249   2.327   5.453   4.044
 3987SOL    HW112250   2.368   5.520   4.106
 3987SOL    HW212251   2.397   5.420   3.980
 3988SOL     OW12252   3.265   3.826   4.163
 3988SOL    HW112253   3.257   3.794   4.069
 3988SOL    HW212254   3.361   3.836   4.187
 3989SOL     OW12255   2.117   5.512   4.947
 3989SOL    HW112256   2.169   5.436   4.988
 3989SOL    HW212257   2.104   5.495   4.850
 3990SOL     OW12258   2.803   5.422   4.617
 3990SOL    HW112259   2.888   5.378   4.645
 3990SOL    HW212260   2.760   5.368   4.544
 3991SOL     OW12261   2.259   4.409   4.198
 3991SOL    HW112262   2.276   4.312   4.212
 3991SOL    HW212263   2.162   4.429   4.214
 3992SOL     OW12264   3.381   3.945   5.457
 3992SOL    HW112265   3.393   3.969   5.554
 3992SOL    HW212266   3.316   3.870   5.449
 3993SOL     OW12267   2.510   3.834   3.825
 3993SOL    HW112268   2.566   3.757   3.853
 3993SOL    HW212269   2.450   3.806   3.750
 3994SOL     OW12270   2.629   4.004   5.475
 3994SOL    HW112271   2.712   3.950   5.469
 3994SOL    HW212272   2.598   4.008   5.570
 3995SOL     OW12273   2.736   5.238   4.917
 3995SOL    HW112274   2.716   5.200   4.826
 3995SOL    HW212275   2.808   5.184   4.961
 3996SOL     OW12276   3.198   4.314   5.159
 3996SOL    HW112277   3.229   4.277   5.246
 3996SOL    HW212278   3.235   4.406   5.146
 3997SOL     OW12279   2.683   5.106   4.668
 3997SOL    HW112280   2.773   5.097   4.627
 3997SOL    HW212281   2.615   5.119   4.596
 3998SOL     OW12282   2.788   4.232   4.617
 3998SOL    HW112283   2.762   4.223   4.521
 3998SOL    HW212284   2.819   4.143   4.651
 3999SOL     OW12285   2.411   3.788   4.213
 3999SOL    HW112286   2.331   3.786   4.273
 3999SOL    HW212287   2.406   3.868   4.153
 4000SOL     OW12288   3.286   4.926   3.766
 4000SOL    HW112289   3.321   4.850   3.820
 4000SOL    HW212290   3.197   4.954   3.801
 4001SOL     OW12291   2.148   3.771   3.910
 4001SOL    HW112292   2.195   3.843   3.859
 4001SOL    HW212293   2.215   3.710   3.952
 4002SOL     OW12294   2.814   3.975   4.175
 4002SOL    HW112295   2.783   4.016   4.089
 4002SOL    HW212296   2.912   3.991   4.187
 4003SOL     OW12297   2.939   4.411   5.174
 4003SOL    HW112298   2.866   4.343   5.181
 4003SOL    HW212299   3.028   4.365   5.172
 4004SOL     OW12300   3.076   5.297   4.520
 4004SOL    HW112301   3.091   5.367   4.449
 4004SOL    HW212302   3.153   5.299   4.584
 4005SOL     OW12303   2.333   4.878   4.445
 4005SOL    HW112304   2.269   4.856   4.519
 4005SOL    HW212305   2.286   4.869   4.357
 4006SOL     OW12306   3.123   5.512   4.336
 4006SOL    HW112307   3.179   5.576   4.283
 4006SOL    HW212308   3.043   5.559   4.371
 4007SOL     OW12309   2.886   4.255   3.759
 4007SOL    HW112310   2.840   4.341   3.733
 4007SOL    HW212311   2.955   4.274   3.828
 4008SOL     OW12312   1.954   4.281   5.114
 4008SOL    HW112313   2.049   4.277   5.082
 4008SOL    HW212314   1.946   4.351   5.185
 4009SOL     OW12315   2.420   3.946   4.903
 4009SOL    HW112316   2.470   3.877   4.956
 4009SOL    HW212317   2.324   3.946   4.929
 4010SOL     OW12318   2.727   4.180   4.356
 4010SOL    HW112319   2.681   4.243   4.294
 4010SOL    HW212320   2.757   4.099   4.306
 4011SOL     OW12321   2.883   3.776   4.464
 4011SOL    HW112322   2.820   3.778   4.387
 4011SOL    HW212323   2.857   3.702   4.526
 4012SOL     OW12324   3.311   4.883   4.583
 4012SOL    HW112325   3.234   4.819   4.585
 4012SOL    HW212326   3.345   4.892   4.489
 4013SOL     OW12327   3.332   4.335   4.685
 4013SOL    HW112328   3.265   4.260   4.688
 4013SOL    HW212329   3.391   4.329   4.766
 4014SOL     OW12330   3.697   4.527   4.104
 4014SOL    HW112331   3.757   4.482   4.170
 4014SOL    HW212332   3.674   4.462   4.031
 4015SOL     OW12333   2.348   5.144   3.876
 4015SOL    HW112334   2.267   5.120   3.928
 4015SOL    HW212335   2.349   5.094   3.789
 4016SOL     OW12336   3.544   4.990   4.368
 4016SOL    HW112337   3.643   4.985   4.380
 4016SOL    HW212338   3.512   5.083   4.387
 4017SOL     OW12339   3.250   4.301   3.793
 4017SOL    HW112340   3.191   4.276   3.870
 4017SOL    HW212341   3.346   4.285   3.818
 4018SOL     OW12342   2.391   3.987   4.028
 4018SOL    HW112343   2.440   3.936   3.957
 4018SOL    HW212344   2.359   4.074   3.990
 4019SOL     OW12345   3.611   4.966   5.270
 4019SOL    HW112346   3.700   4.925   5.252
 4019SOL    HW212347   3.624   5.058   5.308
 4020SOL     OW12348   2.911   5.073   5.062
 4020SOL    HW112349   2.828   5.043   5.109
 4020SOL    HW212350   2.991   5.030   5.103
 4021SOL     OW12351   3.472   5.354   5.376
 4021SOL    HW112352   3.461   5.392   5.284
 4021SOL    HW212353   3.557   5.302   5.381
 4022SOL     OW12354   3.007   4.955   4.829
 4022SOL    HW112355   2.944   4.987   4.900
 4022SOL    HW212356   2.973   4.985   4.739
 4023SOL     OW12357   3.481   4.818   4.805
 4023SOL    HW112358   3.477   4.885   4.880
 4023SOL    HW212359   3.409   4.838   4.739
 4024SOL     OW12360   2.788   3.813   5.112
 4024SOL    HW112361   2.809   3.792   5.017
 4024SOL    HW212362   2.866   3.857   5.155
 4025SOL     OW12363   2.843   4.833   5.459
 4025SOL    HW112364   2.748   4.854   5.484
 4025SOL    HW212365   2.845   4.752   5.400
 4026SOL     OW12366   2.578   4.783   4.100
 4026SOL    HW112367   2.560   4.762   4.196
 4026SOL    HW212368   2.656   4.729   4.068
 4027SOL     OW12369   2.287   4.542   4.979
 4027SOL    HW112370   2.360   4.555   5.047
 4027SOL    HW212371   2.250   4.449   4.989
 4028SOL     OW12372   3.123   4.098   5.008
 4028SOL    HW112373   3.158   4.178   5.057
 4028SOL    HW212374   3.027   4.114   4.982
 4029SOL     OW12375   1.938   5.293   5.079
 4029SOL    HW112376   1.901   5.363   5.017
 4029SOL    HW212377   2.038   5.293   5.072
 4030SOL     OW12378   2.191   4.853   4.210
 4030SOL    HW112379   2.195   4.936   4.155
 4030SOL    HW212380   2.192   4.772   4.150
 4031SOL     OW12381   2.404   4.265   4.587
 4031SOL    HW112382   2.418   4.324   4.507
 4031SOL    HW212383   2.474   4.285   4.655
 4032SOL     OW12384   3.106   5.081   4.119
 4032SOL    HW112385   3.167   5.153   4.151
 4032SOL    HW212386   3.012   5.101   4.149
 4033SOL     OW12387   3.157   5.189   4.871
 4033SOL    HW112388   3.213   5.195   4.953
 4033SOL    HW212389   3.105   5.104   4.873
 4034SOL     OW12390   3.437   4.342   4.211
 4034SOL    HW112391   3.386   4.387   4.284
 4034SOL    HW212392   3.487   4.410   4.158
 4035SOL     OW12393   2.211   5.254   5.029
 4035SOL    HW112394   2.196   5.207   4.942
 4035SOL    HW212395   2.309   5.269   5.042
 4036SOL     OW12396   2.280   4.469   5.322
 4036SOL    HW112397   2.348   4.514   5.264
 4036SOL    HW212398   2.312   4.377   5.346
 4037SOL     OW12399   3.478   4.508   5.414
 4037SOL    HW112400   3.387   4.549   5.411
 4037SOL    HW212401   3.535   4.547   5.341
 4038SOL     OW12402   2.861   3.859   5.474
 4038SOL    HW112403   2.917   3.941   5.462
 4038SOL    HW212404   2.911   3.779   5.443
 4039SOL     OW12405   2.355   3.757   5.469
 4039SOL    HW112406   2.304   3.699   5.405
 4039SOL    HW212407   2.302   3.839   5.490
 4040SOL     OW12408   2.449   4.597   4.760
 4040SOL    HW112409   2.486   4.690   4.758
 4040SOL    HW212410   2.388   4.587   4.839
 4041SOL     OW12411   3.201   4.580   4.742
 4041SOL    HW112412   3.109   4.565   4.706
 4041SOL    HW212413   3.256   4.496   4.729
 4042SOL     OW12414   3.059   4.249   3.988
 4042SOL    HW112415   3.072   4.167   4.044
 4042SOL    HW212416   3.015   4.320   4.043
 4043SOL     OW12417   2.156   3.919   4.969
 4043SOL    HW112418   2.122   3.955   5.056
 4043SOL    HW212419   2.142   3.820   4.966
 4044SOL     OW12420   1.917   5.033   4.995
 4044SOL    HW112421   1.948   4.972   5.068
 4044SOL    HW212422   1.918   5.127   5.028
 4045SOL     OW12423   2.584   4.353   4.775
 4045SOL    HW112424   2.661   4.335   4.713
 4045SOL    HW212425   2.549   4.446   4.758
 4046SOL     OW12426   3.615   4.691   5.570
 4046SOL    HW112427   3.572   4.615   5.521
 4046SOL    HW212428   3.555   4.720   5.645
 4047SOL     OW12429   2.174   3.782   4.354
 4047SOL    HW112430   2.145   3.876   4.370
 4047SOL    HW212431   2.185   3.735   4.442
 4048SOL     OW12432   3.493   4.111   4.076
 4048SOL    HW112433   3.520   4.035   4.136
 4048SOL    HW212434   3.463   4.188   4.132
 4049SOL     OW12435   2.886   4.479   4.680
 4049SOL    HW112436   2.876   4.500   4.777
 4049SOL    HW212437   2.859   4.384   4.663
 4050SOL     OW12438   2.841   5.280   5.439
 4050SOL    HW112439   2.820   5.328   5.354
 4050SOL    HW212440   2.893   5.197   5.418
 4051SOL     OW12441   3.713   5.224   5.325
 4051SOL    HW112442   3.735   5.251   5.232
 4051SOL    HW212443   3.794   5.233   5.383
 4052SOL     OW12444   2.218   4.640   5.524
 4052SOL    HW112445   2.302   4.665   5.573
 4052SOL    HW212446   2.240   4.573   5.453
 4053SOL     OW12447   3.384   3.983   3.855
 4053SOL    HW112448   3.322   3.915   3.895
 4053SOL    HW212449   3.428   4.036   3.928
 4054SOL     OW12450   3.146   4.549   3.745
 4054SOL    HW112451   3.186   4.458   3.754
 4054SOL    HW212452   3.179   4.591   3.660
 4055SOL     OW12453   2.935   5.065   4.582
 4055SOL    HW112454   2.941   4.987   4.520
 4055SOL    HW212455   2.989   5.141   4.545
 4056SOL     OW12456   2.175   4.531   4.666
 4056SOL    HW112457   2.272   4.555   4.661
 4056SOL    HW212458   2.166   4.437   4.697
 4057SOL     OW12459   2.182   4.254   4.734
 4057SOL    HW112460   2.143   4.162   4.725
 4057SOL    HW212461   2.263   4.262   4.676
 4058SOL     OW12462   2.998   4.093   5.416
 4058SOL    HW112463   2.946   4.152   5.478
 4058SOL    HW212464   3.091   4.129   5.406
 4059SOL     OW12465   3.024   3.923   5.201
 4059SOL    HW112466   3.009   3.984   5.279
 4059SOL    HW212467   3.068   3.973   5.127
 4060SOL     OW12468   1.861   5.035   3.919
 4060SOL    HW112469   1.771   5.056   3.881
 4060SOL    HW212470   1.862   4.941   3.953
 4061SOL     OW12471   1.951   5.507   4.672
 4061SOL    HW112472   1.915   5.426   4.624
 4061SOL    HW212473   2.044   5.526   4.640
 4062SOL     OW12474   2.350   5.297   4.626
 4062SOL    HW112475   2.421   5.363   4.653
 4062SOL    HW212476   2.389   5.231   4.562
 4063SOL     OW12477   2.826   4.516   4.945
 4063SOL    HW112478   2.888   4.494   5.020
 4063SOL    HW212479   2.738   4.471   4.960
 4064SOL     OW12480   1.901   4.283   4.842
 4064SOL    HW112481   1.984   4.276   4.787
 4064SOL    HW212482   1.926   4.283   4.939
 4065SOL     OW12483   2.052   4.251   5.464
 4065SOL    HW112484   2.105   4.193   5.402
 4065SOL    HW212485   2.017   4.330   5.413
 4066SOL     OW12486   3.249   4.657   5.377
 4066SOL    HW112487   3.272   4.754   5.375
 4066SOL    HW212488   3.242   4.622   5.284
 4067SOL     OW12489   2.679   4.297   4.090
 4067SOL    HW112490   2.689   4.218   4.030
 4067SOL    HW212491   2.600   4.352   4.060
 4068SOL     OW12492   3.504   4.327   4.899
 4068SOL    HW112493   3.487   4.268   4.978
 4068SOL    HW212494   3.596   4.311   4.865
 4069SOL     OW12495   2.099   5.265   5.449
 4069SOL    HW112496   2.077   5.341   5.511
 4069SOL    HW212497   2.101   5.180   5.501
 4070SOL     OW12498   2.581   4.166   4.969
 4070SOL    HW112499   2.518   4.090   4.950
 4070SOL    HW212500   2.573   4.235   4.898
 4071SOL     OW12501   2.774   5.400   5.199
 4071SOL    HW112502   2.747   5.350   5.117
 4071SOL    HW212503   2.774   5.498   5.180
 4072SOL     OW12504   2.315   4.217   3.904
 4072SOL    HW112505   2.381   4.289   3.930
 4072SOL    HW212506   2.224   4.258   3.896
 4073SOL     OW12507   1.999   4.864   5.200
 4073SOL    HW112508   2.004   4.825   5.292
 4073SOL    HW212509   2.020   4.793   5.133
 4074SOL     OW12510   3.171   4.765   4.939
 4074SOL    HW112511   3.195   4.697   4.870
 4074SOL    HW212512   3.109   4.833   4.898
 4075SOL     OW12513   3.183   4.581   4.017
 4075SOL    HW112514   3.107   4.555   4.077
 4075SOL    HW212515   3.155   4.569   3.922
 4076SOL     OW12516   3.640   5.440   4.883
 4076SOL    HW112517   3.703   5.478   4.816
 4076SOL    HW212518   3.612   5.349   4.855
 4077SOL     OW12519   3.105   5.457   4.824
 4077SOL    HW112520   3.192   5.490   4.789
 4077SOL    HW212521   3.113   5.360   4.847
 4078SOL     OW12522   1.954   4.983   4.732
 4078SOL    HW112523   1.935   5.001   4.829
 4078SOL    HW212524   1.881   4.925   4.694
 4079SOL     OW12525   2.546   5.405   5.472
 4079SOL    HW112526   2.478   5.477   5.465
 4079SOL    HW212527   2.617   5.419   5.402
 4080SOL     OW12528   3.580   3.882   4.214
 4080SOL    HW112529   3.655   3.871   4.149
 4080SOL    HW212530   3.564   3.796   4.262
 4081SOL     OW12531   3.260   5.294   4.215
 4081SOL    HW112532   3.320   5.328   4.143
 4081SOL    HW212533   3.203   5.370   4.248
 4082SOL     OW12534   2.015   5.506   5.569
 4082SOL    HW112535   1.954   5.441   5.614
 4082SOL    HW212536   2.066   5.557   5.638
 4083SOL     OW12537   3.146   4.656   4.388
 4083SOL    HW112538   3.221   4.592   4.405
 4083SOL    HW212539   3.179   4.732   4.332
 4084SOL     OW12540   2.655   5.006   5.146
 4084SOL    HW112541   2.626   5.052   5.230
 4084SOL    HW212542   2.584   5.017   5.076
 4085SOL     OW12543   2.530   5.345   3.878
 4085SOL    HW112544   2.545   5.368   3.782
 4085SOL    HW212545   2.470   5.265   3.884
 4086SOL     OW12546   3.474   5.455   5.109
 4086SOL    HW112547   3.534   5.453   5.030
 4086SOL    HW212548   3.454   5.550   5.133
 4087SOL     OW12549   3.704   3.890   4.686
 4087SOL    HW112550   3.739   3.798   4.667
 4087SOL    HW212551   3.613   3.900   4.648
 4088SOL     OW12552   2.112   4.033   4.437
 4088SOL    HW112553   2.024   4.072   4.409
 4088SOL    HW212554   2.117   4.029   4.536
 4089SOL     OW12555   3.070   5.317   3.758
 4089SOL    HW112556   3.062   5.224   3.793
 4089SOL    HW212557   3.000   5.332   3.688
 4090SOL     OW12558   2.685   4.736   5.108
 4090SOL    HW112559   2.735   4.718   5.023
 4090SOL    HW212560   2.678   4.834   5.122
 4091SOL     OW12561   2.783   4.634   4.011
 4091SOL    HW112562   2.843   4.670   3.940
 4091SOL    HW212563   2.832   4.563   4.063
 4092SOL     OW12564   3.346   5.367   3.768
 4092SOL    HW112565   3.249   5.346   3.754
 4092SOL    HW212566   3.392   5.369   3.679
 4093SOL     OW12567   2.225   5.029   5.213
 4093SOL    HW112568   2.218   5.109   5.153
 4093SOL    HW212569   2.145   4.971   5.200
 4094SOL     OW12570   3.472   5.010   5.009
 4094SOL    HW112571   3.534   4.988   5.084
 4094SOL    HW212572   3.407   5.079   5.040
 4095SOL     OW12573   2.933   4.832   4.447
 4095SOL    HW112574   2.854   4.782   4.483
 4095SOL    HW212575   3.001   4.767   4.415
 4096SOL     OW12576   2.888   3.966   4.690
 4096SOL    HW112577   2.886   3.923   4.599
 4096SOL    HW212578   2.884   3.894   4.760
 4097SOL     OW12579   2.467   5.211   4.201
 4097SOL    HW112580   2.520   5.156   4.137
 4097SOL    HW212581   2.395   5.259   4.153
 4098SOL     OW12582   3.600   4.115   5.109
 4098SOL    HW112583   3.673   4.184   5.108
 4098SOL    HW212584   3.623   4.042   5.045
 4099SOL     OW12585   2.114   5.072   4.011
 4099SOL    HW112586   2.018   5.063   3.984
 4099SOL    HW212587   2.119   5.114   4.102
 4100SOL     OW12588   1.989   4.774   5.459
 4100SOL    HW112589   1.905   4.744   5.503
 4100SOL    HW212590   2.066   4.719   5.492
 4101SOL     OW12591   2.547   3.913   5.221
 4101SOL    HW112592   2.635   3.888   5.179
 4101SOL    HW212593   2.564   3.947   5.314
 4102SOL     OW12594   1.943   4.048   3.745
 4102SOL    HW112595   1.855   4.024   3.704
 4102SOL    HW212596   1.977   4.132   3.704
 4103SOL     OW12597   3.280   4.579   5.116
 4103SOL    HW112598   3.224   4.642   5.063
 4103SOL    HW212599   3.374   4.581   5.081
 4104SOL     OW12600   1.918   3.877   4.017
 4104SOL    HW112601   1.900   3.960   3.963
 4104SOL    HW212602   2.007   3.840   3.992
 4105SOL     OW12603   3.041   5.056   3.847
 4105SOL    HW112604   2.945   5.030   3.840
 4105SOL    HW212605   3.067   5.058   3.944
 4106SOL     OW12606   2.488   4.555   5.160
 4106SOL    HW112607   2.546   4.635   5.147
 4106SOL    HW212608   2.545   4.473   5.166
 4107SOL     OW12609   3.354   5.535   4.731
 4107SOL    HW112610   3.376   5.590   4.650
 4107SOL    HW212611   3.436   5.487   4.762
 4108SOL     OW12612   2.585   4.281   5.422
 4108SOL    HW112613   2.633   4.344   5.483
 4108SOL    HW212614   2.603   4.187   5.451
 4109SOL     OW12615   3.337   4.918   5.353
 4109SOL    HW112616   3.323   4.936   5.450
 4109SOL    HW212617   3.432   4.938   5.329
 4110SOL     OW12618   2.227   5.455   5.291
 4110SOL    HW112619   2.145   5.511   5.278
 4110SOL    HW212620   2.201   5.368   5.334
 4111SOL     OW12621   3.522   4.600   4.981
 4111SOL    HW112622   3.520   4.509   4.938
 4111SOL    HW212623   3.510   4.670   4.911
 4112SOL     OW12624   3.084   4.039   4.183
 4112SOL    HW112625   3.149   3.964   4.177
 4112SOL    HW212626   3.107   4.097   4.262
 4113SOL     OW12627   2.445   4.458   4.395
 4113SOL    HW112628   2.488   4.548   4.385
 4113SOL    HW212629   2.378   4.444   4.322
 4114SOL     OW12630   3.609   4.081   5.383
 4114SOL    HW112631   3.603   4.100   5.285
 4114SOL    HW212632   3.531   4.025   5.411
 4115SOL     OW12633   3.620   4.652   5.233
 4115SOL    HW112634   3.605   4.748   5.256
 4115SOL    HW212635   3.594   4.636   5.137
 4116SOL     OW12636   2.734   5.085   3.778
 4116SOL    HW112637   2.690   5.104   3.866
 4116SOL    HW212638   2.742   5.170   3.726
 4117SOL     OW12639   2.532   5.493   4.662
 4117SOL    HW112640   2.504   5.587   4.644
 4117SOL    HW212641   2.631   5.484   4.652
 4118SOL     OW12642   2.732   4.697   4.580
 4118SOL    HW112643   2.782   4.619   4.616
 4118SOL    HW212644   2.686   4.744   4.656
 4119SOL     OW12645   2.937   4.712   3.806
 4119SOL    HW112646   2.909   4.768   3.728
 4119SOL    HW212647   3.014   4.654   3.780
 4120SOL     OW12648   3.701   5.281   4.571
 4120SOL    HW112649   3.625   5.269   4.507
 4120SOL    HW212650   3.692   5.216   4.646
 4121SOL     OW12651   2.075   5.013   5.574
 4121SOL    HW112652   2.042   4.932   5.525
 4121SOL    HW212653   2.011   5.035   5.648
 4122SOL     OW12654   1.956   4.950   4.386
 4122SOL    HW112655   1.968   4.908   4.476
 4122SOL    HW212656   2.023   4.912   4.322
 4123SOL     OW12657   2.544   5.139   5.360
 4123SOL    HW112658   2.461   5.093   5.392
 4123SOL    HW212659   2.546   5.232   5.397
 4124SOL     OW12660   3.662   3.904   4.956
 4124SOL    HW112661   3.680   3.809   4.981
 4124SOL    HW212662   3.678   3.916   4.858
 4125SOL     OW12663   2.289   4.149   4.249
 4125SOL    HW112664   2.324   4.079   4.186
 4125SOL    HW212665   2.234   4.105   4.320
 4126SOL     OW12666   3.555   5.195   4.810
 4126SOL    HW112667   3.473   5.181   4.755
 4126SOL    HW212668   3.557   5.127   4.884
 4127SOL     OW12669   2.203   4.282   5.012
 4127SOL    HW112670   2.257   4.221   5.070
 4127SOL    HW212671   2.214   4.256   4.916
 4128SOL     OW12672   2.693   5.306   4.398
 4128SOL    HW112673   2.672   5.379   4.332
 4128SOL    HW212674   2.616   5.243   4.403
 4129SOL     OW12675   3.290   3.959   4.841
 4129SOL    HW112676   3.312   3.868   4.877
 4129SOL    HW212677   3.236   4.009   4.909
 4130SOL     OW12678   2.872   3.740   4.855
 4130SOL    HW112679   2.808   3.678   4.810
 4130SOL    HW212680   2.963   3.698   4.855
 4131SOL     OW12681   2.638   5.054   4.048
 4131SOL    HW112682   2.613   4.958   4.060
 4131SOL    HW212683   2.722   5.073   4.099
 4132SOL     OW12684   2.486   5.281   5.015
 4132SOL    HW112685   2.481   5.367   5.066
 4132SOL    HW212686   2.577   5.272   4.973
 4133SOL     OW12687   3.205   3.757   3.893
 4133SOL    HW112688   3.190   3.786   3.798
 4133SOL    HW212689   3.131   3.697   3.922
 4134SOL     OW12690   3.146   4.190   4.401
 4134SOL    HW112691   3.096   4.277   4.402
 4134SOL    HW212692   3.148   4.152   4.494
 4135SOL     OW12693   3.444   3.922   4.612
 4135SOL    HW112694   3.390   3.946   4.693
 4135SOL    HW212695   3.449   4.000   4.550
 4136SOL     OW12696   1.903   4.782   4.033
 4136SOL    HW112697   2.001   4.782   4.015
 4136SOL    HW212698   1.873   4.689   4.053
 4137SOL     OW12699   2.749   5.390   4.053
 4137SOL    HW112700   2.673   5.369   3.992
 4137SOL    HW212701   2.721   5.462   4.117
 4138SOL     OW12702   2.072   4.337   5.724
 4138SOL    HW112703   1.978   4.349   5.758
 4138SOL    HW212704   2.070   4.319   5.626
 4139SOL     OW12705   3.660   4.328   5.800
 4139SOL    HW112706   3.612   4.304   5.715
 4139SOL    HW212707   3.666   4.247   5.858
 4140SOL     OW12708   2.104   5.457   0.046
 4140SOL    HW112709   2.108   5.528   0.116
 4140SOL    HW212710   2.190   5.457  -0.006
 4141SOL     OW12711   2.471   4.700   5.721
 4141SOL    HW112712   2.494   4.768   5.651
 4141SOL    HW212713   2.552   4.679   5.775
 4142SOL     OW12714   3.674   5.479   5.901
 4142SOL    HW112715   3.691   5.418   5.979
 4142SOL    HW212716   3.743   5.552   5.901
 4143SOL     OW12717   1.888   5.316   5.703
 4143SOL    HW112718   1.877   5.219   5.728
 4143SOL    HW212719   1.850   5.373   5.775
 4144SOL     OW12720   3.590   4.592   0.146
 4144SOL    HW112721   3.630   4.611   0.236
 4144SOL    HW212722   3.555   4.676   0.107
 4145SOL     OW12723   3.548   4.822   5.990
 4145SOL    HW112724   3.642   4.824   5.955
 4145SOL    HW212725   3.519   4.914   6.012
 4146SOL     OW12726   3.415   4.739   5.760
 4146SOL    HW112727   3.356   4.657   5.766
 4146SOL    HW212728   3.450   4.760   5.851
 4147SOL     OW12729   2.446   4.448   5.857
 4147SOL    HW112730   2.452   4.523   5.791
 4147SOL    HW212731   2.420   4.483   5.947
 4148SOL     OW12732   2.733   4.085   5.746
 4148SOL    HW112733   2.784   4.147   5.685
 4148SOL    HW212734   2.792   4.010   5.775
 4149SOL     OW12735   2.206   4.688   5.827
 4149SOL    HW112736   2.296   4.694   5.785
 4149SOL    HW212737   2.158   4.607   5.792
 4150SOL     OW12738   2.981   5.474   5.825
 4150SOL    HW112739   2.889   5.445   5.851
 4150SOL    HW212740   3.007   5.426   5.741
 4151SOL     OW12741   3.495   5.116   5.681
 4151SOL    HW112742   3.461   5.209   5.668
 4151SOL    HW212743   3.423   5.050   5.658
 4152SOL     OW12744   2.346   5.496   5.906
 4152SOL    HW112745   2.394   5.548   5.977
 4152SOL    HW212746   2.411   5.442   5.854
 4153SOL     OW12747   2.501   3.830   5.687
 4153SOL    HW112748   2.595   3.795   5.678
 4153SOL    HW212749   2.447   3.801   5.608
 4154SOL     OW12750   3.290   4.938   5.623
 4154SOL    HW112751   3.333   4.863   5.672
 4154SOL    HW212752   3.202   4.961   5.664
 4155SOL     OW12753   2.173   3.768   5.758
 4155SOL    HW112754   2.224   3.843   5.715
 4155SOL    HW212755   2.234   3.716   5.818
 4156SOL     OW12756   2.888   4.256   5.605
 4156SOL    HW112757   2.842   4.344   5.590
 4156SOL    HW212758   2.956   4.266   5.678
 4157SOL     OW12759   3.758   4.533   5.937
 4157SOL    HW112760   3.702   4.548   6.019
 4157SOL    HW212761   3.715   4.462   5.881
 4158SOL     OW12762   2.349   5.145   5.749
 4158SOL    HW112763   2.272   5.124   5.809
 4158SOL    HW212764   2.339   5.095   5.663
 4159SOL     OW12765   3.576   4.989   0.281
 4159SOL    HW112766   3.665   4.949   0.259
 4159SOL    HW212767   3.538   5.033   0.200
 4160SOL     OW12768   3.261   4.312   5.644
 4160SOL    HW112769   3.200   4.274   5.714
 4160SOL    HW212770   3.355   4.282   5.662
 4161SOL     OW12771   2.403   3.977   5.894
 4161SOL    HW112772   2.441   3.931   5.814
 4161SOL    HW212773   2.366   4.066   5.867
 4162SOL     OW12774   2.249   4.846   0.046
 4162SOL    HW112775   2.199   4.931   0.031
 4162SOL    HW212776   2.232   4.784  -0.031
 4163SOL     OW12777   3.066   4.236   5.821
 4163SOL    HW112778   3.075   4.147   5.866
 4163SOL    HW212779   3.042   4.305   5.889
 4164SOL     OW12780   2.161   3.794   0.249
 4164SOL    HW112781   2.220   3.874   0.252
 4164SOL    HW212782   2.212   3.713   0.278
 4165SOL     OW12783   3.378   3.990   5.724
 4165SOL    HW112784   3.318   3.910   5.737
 4165SOL    HW212785   3.418   4.016   5.812
 4166SOL     OW12786   3.178   4.573   5.629
 4166SOL    HW112787   3.204   4.477   5.636
 4166SOL    HW212788   3.199   4.607   5.537
 4167SOL     OW12789   1.881   5.042   5.771
 4167SOL    HW112790   1.787   5.061   5.742
 4167SOL    HW212791   1.887   4.948   5.805
 4168SOL     OW12792   2.688   4.322   5.892
 4168SOL    HW112793   2.688   4.233   5.845
 4168SOL    HW212794   2.598   4.364   5.881
 4169SOL     OW12795   2.309   4.214   5.776
 4169SOL    HW112796   2.372   4.286   5.805
 4169SOL    HW212797   2.218   4.252   5.764
 4170SOL     OW12798   3.649   3.875   0.093
 4170SOL    HW112799   3.704   3.868   0.010
 4170SOL    HW212800   3.589   3.796   0.100
 4171SOL     OW12801   2.530   5.347   5.745
 4171SOL    HW112802   2.542   5.368   5.648
 4171SOL    HW212803   2.465   5.272   5.755
 4172SOL     OW12804   3.057   5.319   5.617
 4172SOL    HW112805   3.053   5.225   5.651
 4172SOL    HW212806   2.990   5.330   5.543
 4173SOL     OW12807   2.723   4.627   5.804
 4173SOL    HW112808   2.809   4.666   5.772
 4173SOL    HW212809   2.742   4.557   5.874
 4174SOL     OW12810   3.334   5.367   5.618
 4174SOL    HW112811   3.238   5.347   5.602
 4174SOL    HW212812   3.383   5.366   5.530
 4175SOL     OW12813   2.896   4.883   0.297
 4175SOL    HW112814   2.857   4.830   0.372
 4175SOL    HW212815   2.933   4.821   0.228
 4176SOL     OW12816   2.125   5.092   5.920
 4176SOL    HW112817   2.037   5.081   5.875
 4176SOL    HW212818   2.123   5.173   5.979
 4177SOL     OW12819   1.942   4.040   5.611
 4177SOL    HW112820   1.859   4.015   5.562
 4177SOL    HW212821   1.975   4.129   5.580
 4178SOL     OW12822   1.942   3.867   5.859
 4178SOL    HW112823   1.920   3.936   5.790
 4178SOL    HW212824   2.031   3.826   5.837
 4179SOL     OW12825   3.034   5.059   5.711
 4179SOL    HW112826   2.937   5.035   5.698
 4179SOL    HW212827   3.058   5.045   5.807
 4180SOL     OW12828   3.070   4.031   0.020
 4180SOL    HW112829   3.160   4.010   0.060
 4180SOL    HW212830   3.027   4.104   0.073
 4181SOL     OW12831   2.730   5.102   5.631
 4181SOL    HW112832   2.688   5.149   5.709
 4181SOL    HW212833   2.753   5.169   5.560
 4182SOL     OW12834   2.951   4.717   5.690
 4182SOL    HW112835   2.924   4.764   5.606
 4182SOL    HW212836   3.034   4.664   5.673
 4183SOL     OW12837   3.227   3.761   5.739
 4183SOL    HW112838   3.271   3.679   5.703
 4183SOL    HW212839   3.138   3.738   5.778
 4184SOL     OW12840   1.938   4.792   5.873
 4184SOL    HW112841   2.036   4.797   5.853
 4184SOL    HW212842   1.911   4.698   5.891
 4185SOL     OW12843   2.728   5.383   5.935
 4185SOL    HW112844   2.658   5.380   5.863
 4185SOL    HW212845   2.725   5.472   5.980
 4186SOL     OW12846   2.095   0.254   0.132
 4186SOL    HW112847   2.108   0.353   0.142
 4186SOL    HW212848   2.072   0.232   0.037
 4187SOL     OW12849   2.085   5.837   0.987
 4187SOL    HW112850   2.114   5.816   1.080
 4187SOL    HW212851   1.989   5.813   0.975
 4188SOL     OW12852   1.855   5.939   0.674
 4188SOL    HW112853   1.762   5.962   0.704
 4188SOL    HW212854   1.850   5.864   0.607
 4189SOL     OW12855   2.322   5.948   1.515
 4189SOL    HW112856   2.393   5.885   1.485
 4189SOL    HW212857   2.232   5.907   1.499
 4190SOL     OW12858   3.450   0.023   0.720
 4190SOL    HW112859   3.356   0.017   0.687
 4190SOL    HW212860   3.459   0.098   0.785
 4191SOL     OW12861   3.447   5.721   1.441
 4191SOL    HW112862   3.518   5.757   1.381
 4191SOL    HW212863   3.450   5.769   1.529
 4192SOL     OW12864   2.678   5.583   0.516
 4192SOL    HW112865   2.728   5.661   0.481
 4192SOL    HW212866   2.581   5.606   0.524
 4193SOL     OW12867   2.191   5.815   1.843
 4193SOL    HW112868   2.246   5.895   1.819
 4193SOL    HW212869   2.097   5.844   1.861
 4194SOL     OW12870   3.121   5.929   0.943
 4194SOL    HW112871   3.034   5.879   0.939
 4194SOL    HW212872   3.181   5.886   1.010
 4195SOL     OW12873   2.411   5.739   0.896
 4195SOL    HW112874   2.413   5.766   0.992
 4195SOL    HW212875   2.407   5.820   0.838
 4196SOL     OW12876   2.057   5.844   1.497
 4196SOL    HW112877   1.982   5.903   1.526
 4196SOL    HW212878   2.045   5.752   1.536
 4197SOL     OW12879   3.278   5.687   0.446
 4197SOL    HW112880   3.270   5.665   0.348
 4197SOL    HW212881   3.373   5.710   0.467
 4198SOL     OW12882   3.411   5.793   1.721
 4198SOL    HW112883   3.402   5.823   1.817
 4198SOL    HW212884   3.351   5.715   1.706
 4199SOL     OW12885   2.478   5.674   0.085
 4199SOL    HW112886   2.578   5.669   0.084
 4199SOL    HW212887   2.447   5.743   0.019
 4200SOL     OW12888   2.632   5.833   1.736
 4200SOL    HW112889   2.718   5.783   1.747
 4200SOL    HW212890   2.587   5.843   1.825
 4201SOL     OW12891   3.267   0.179   1.415
 4201SOL    HW112892   3.180   0.153   1.457
 4201SOL    HW212893   3.258   0.268   1.371
 4202SOL     OW12894   2.410   5.653   0.505
 4202SOL    HW112895   2.330   5.651   0.564
 4202SOL    HW212896   2.401   5.728   0.439
 4203SOL     OW12897   2.816   5.803   0.440
 4203SOL    HW112898   2.765   5.880   0.479
 4203SOL    HW212899   2.914   5.821   0.446
 4204SOL     OW12900   2.413   5.791   1.160
 4204SOL    HW112901   2.468   5.751   1.234
 4204SOL    HW212902   2.319   5.801   1.191
 4205SOL     OW12903   2.881   5.618   0.725
 4205SOL    HW112904   2.817   5.620   0.648
 4205SOL    HW212905   2.856   5.545   0.788
 4206SOL     OW12906   2.378   5.832   0.300
 4206SOL    HW112907   2.430   5.793   0.224
 4206SOL    HW212908   2.423   5.915   0.333
 4207SOL     OW12909   2.786   5.669   1.387
 4207SOL    HW112910   2.810   5.647   1.292
 4207SOL    HW212911   2.859   5.723   1.428
 4208SOL     OW12912   2.872   5.705   1.732
 4208SOL    HW112913   2.895   5.748   1.645
 4208SOL    HW212914   2.925   5.620   1.743
 4209SOL     OW12915   2.352   5.611   1.758
 4209SOL    HW112916   2.308   5.555   1.687
 4209SOL    HW212917   2.292   5.688   1.781
 4210SOL     OW12918   2.152   5.779   1.247
 4210SOL    HW112919   2.116   5.813   1.334
 4210SOL    HW212920   2.142   5.679   1.245
 4211SOL     OW12921   2.676   0.255   1.051
 4211SOL    HW112922   2.636   0.233   0.962
 4211SOL    HW212923   2.603   0.266   1.118
 4212SOL     OW12924   2.165   5.652   0.634
 4212SOL    HW112925   2.129   5.745   0.645
 4212SOL    HW212926   2.176   5.610   0.724
 4213SOL     OW12927   3.356   5.863   0.132
 4213SOL    HW112928   3.291   5.789   0.151
 4213SOL    HW212929   3.448   5.825   0.121
 4214SOL     OW12930   2.221   0.075   1.019
 4214SOL    HW112931   2.175  -0.010   0.991
 4214SOL    HW212932   2.284   0.104   0.947
 4215SOL     OW12933   2.998   5.814   1.483
 4215SOL    HW112934   3.053   5.869   1.547
 4215SOL    HW212935   3.007   5.851   1.391
 4216SOL     OW12936   2.751   5.630   0.077
 4216SOL    HW112937   2.820   5.689   0.035
 4216SOL    HW212938   2.784   5.597   0.166
 4217SOL     OW12939   3.565   5.730   0.504
 4217SOL    HW112940   3.639   5.734   0.437
 4217SOL    HW212941   3.559   5.638   0.543
 4218SOL     OW12942   3.689   5.748   0.982
 4218SOL    HW112943   3.728   5.660   0.958
 4218SOL    HW212944   3.602   5.760   0.933
 4219SOL     OW12945   2.883   5.793   0.936
 4219SOL    HW112946   2.886   5.738   0.853
 4219SOL    HW212947   2.876   5.734   1.016
 4220SOL     OW12948   2.544   5.767   1.484
 4220SOL    HW112949   2.630   5.742   1.440
 4220SOL    HW212950   2.562   5.800   1.576
 4221SOL     OW12951   1.925   5.923   0.087
 4221SOL    HW112952   1.936   5.861   0.009
 4221SOL    HW212953   2.015   5.946   0.124
 4222SOL     OW12954   1.914   5.749   0.320
 4222SOL    HW112955   1.888   5.817   0.252
 4222SOL    HW212956   2.008   5.719   0.303
 4223SOL     OW12957   3.079   5.876   0.470
 4223SOL    HW112958   3.150   5.808   0.455
 4223SOL    HW212959   3.109   5.942   0.539
 4224SOL     OW12960   3.656   5.913   1.652
 4224SOL    HW112961   3.619   5.981   1.588
 4224SOL    HW212962   3.582   5.855   1.685
 4225SOL     OW12963   3.644   5.770   1.255
 4225SOL    HW112964   3.708   5.699   1.283
 4225SOL    HW212965   3.651   5.784   1.156
 4226SOL     OW12966   3.292   5.803   1.118
 4226SOL    HW112967   3.308   5.704   1.114
 4226SOL    HW212968   3.318   5.837   1.208
 4227SOL     OW12969   2.872   5.595   1.134
 4227SOL    HW112970   2.807   5.532   1.092
 4227SOL    HW212971   2.963   5.554   1.132
 4228SOL     OW12972   3.215   5.632   0.179
 4228SOL    HW112973   3.265   5.564   0.125
 4228SOL    HW212974   3.124   5.598   0.199
 4229SOL     OW12975   3.174   0.036   0.693
 4229SOL    HW112976   3.123   0.120   0.677
 4229SOL    HW212977   3.152   0.000   0.784
 4230SOL     OW12978   3.440   5.782   0.880
 4230SOL    HW112979   3.380   5.812   0.955
 4230SOL    HW212980   3.438   5.851   0.807
 4231SOL     OW12981   2.085   5.838   2.850
 4231SOL    HW112982   2.113   5.816   2.943
 4231SOL    HW212983   1.989   5.814   2.838
 4232SOL     OW12984   1.850   5.933   2.532
 4232SOL    HW112985   1.760   5.968   2.559
 4232SOL    HW212986   1.838   5.855   2.471
 4233SOL     OW12987   3.618   0.169   2.021
 4233SOL    HW112988   3.641   0.080   1.982
 4233SOL    HW212989   3.581   0.157   2.113
 4234SOL     OW12990   2.322   5.949   3.377
 4234SOL    HW112991   2.393   5.885   3.347
 4234SOL    HW212992   2.232   5.907   3.361
 4235SOL     OW12993   3.452   0.034   2.567
 4235SOL    HW112994   3.356   0.026   2.539
 4235SOL    HW212995   3.460   0.105   2.637
 4236SOL     OW12996   3.448   5.721   3.304
 4236SOL    HW112997   3.518   5.758   3.244
 4236SOL    HW212998   3.450   5.769   3.392
 4237SOL     OW12999   2.676   5.588   2.370
 4237SOL    HW113000   2.726   5.667   2.333
 4237SOL    HW213001   2.579   5.609   2.374
 4238SOL     OW13002   2.191   5.815   3.703
 4238SOL    HW113003   2.246   5.895   3.680
 4238SOL    HW213004   2.097   5.844   3.723
 4239SOL     OW13005   3.121   5.928   2.806
 4239SOL    HW113006   3.034   5.879   2.802
 4239SOL    HW213007   3.181   5.885   2.873
 4240SOL     OW13008   2.718   5.955   2.023
 4240SOL    HW113009   2.790   5.982   1.959
 4240SOL    HW213010   2.757   5.897   2.095
 4241SOL     OW13011   2.411   5.739   2.759
 4241SOL    HW113012   2.413   5.766   2.855
 4241SOL    HW213013   2.406   5.820   2.701
 4242SOL     OW13014   2.057   5.844   3.359
 4242SOL    HW113015   1.981   5.902   3.388
 4242SOL    HW213016   2.046   5.753   3.399
 4243SOL     OW13017   3.276   5.682   2.307
 4243SOL    HW113018   3.269   5.649   2.212
 4243SOL    HW213019   3.372   5.696   2.331
 4244SOL     OW13020   3.411   5.793   3.584
 4244SOL    HW113021   3.403   5.823   3.679
 4244SOL    HW213022   3.351   5.715   3.569
 4245SOL     OW13023   2.498   5.710   1.970
 4245SOL    HW113024   2.580   5.655   1.985
 4245SOL    HW213025   2.448   5.674   1.891
 4246SOL     OW13026   2.632   5.833   3.598
 4246SOL    HW113027   2.718   5.783   3.609
 4246SOL    HW213028   2.587   5.843   3.687
 4247SOL     OW13029   3.267   0.178   3.276
 4247SOL    HW113030   3.180   0.153   3.319
 4247SOL    HW213031   3.257   0.268   3.233
 4248SOL     OW13032   2.404   5.654   2.348
 4248SOL    HW113033   2.328   5.649   2.413
 4248SOL    HW213034   2.388   5.729   2.284
 4249SOL     OW13035   2.149   5.627   2.051
 4249SOL    HW113036   2.195   5.699   2.000
 4249SOL    HW213037   2.217   5.566   2.092
 4250SOL     OW13038   2.811   5.814   2.288
 4250SOL    HW113039   2.762   5.890   2.331
 4250SOL    HW213040   2.909   5.828   2.298
 4251SOL     OW13041   2.413   5.791   3.022
 4251SOL    HW113042   2.468   5.752   3.096
 4251SOL    HW213043   2.319   5.802   3.054
 4252SOL     OW13044   2.879   5.618   2.584
 4252SOL    HW113045   2.815   5.620   2.507
 4252SOL    HW213046   2.853   5.545   2.647
 4253SOL     OW13047   2.358   5.852   2.161
 4253SOL    HW113048   2.420   5.819   2.091
 4253SOL    HW213049   2.403   5.924   2.214
 4254SOL     OW13050   2.786   5.668   3.249
 4254SOL    HW113051   2.810   5.647   3.154
 4254SOL    HW213052   2.859   5.723   3.290
 4255SOL     OW13053   2.872   5.705   3.594
 4255SOL    HW113054   2.895   5.747   3.506
 4255SOL    HW213055   2.924   5.620   3.605
 4256SOL     OW13056   2.352   5.611   3.619
 4256SOL    HW113057   2.308   5.555   3.549
 4256SOL    HW213058   2.292   5.688   3.642
 4257SOL     OW13059   2.152   5.779   3.110
 4257SOL    HW113060   2.116   5.813   3.196
 4257SOL    HW213061   2.142   5.679   3.107
 4258SOL     OW13062   2.676   0.256   2.912
 4258SOL    HW113063   2.635   0.234   2.823
 4258SOL    HW213064   2.604   0.266   2.980
 4259SOL     OW13065   2.167   5.650   2.494
 4259SOL    HW113066   2.133   5.743   2.505
 4259SOL    HW213067   2.178   5.607   2.584
 4260SOL     OW13068   3.372   5.842   1.992
 4260SOL    HW113069   3.316   5.761   2.008
 4260SOL    HW213070   3.449   5.842   2.056
 4261SOL     OW13071   2.221   0.076   2.880
 4261SOL    HW113072   2.175  -0.008   2.853
 4261SOL    HW213073   2.284   0.104   2.808
 4262SOL     OW13074   2.998   5.814   3.346
 4262SOL    HW113075   3.054   5.866   3.410
 4262SOL    HW213076   3.005   5.855   3.254
 4263SOL     OW13077   3.585   5.728   2.358
 4263SOL    HW113078   3.657   5.725   2.290
 4263SOL    HW213079   3.571   5.637   2.397
 4264SOL     OW13080   3.688   5.749   2.844
 4264SOL    HW113081   3.727   5.661   2.819
 4264SOL    HW213082   3.602   5.763   2.794
 4265SOL     OW13083   2.883   5.793   2.796
 4265SOL    HW113084   2.885   5.737   2.713
 4265SOL    HW213085   2.876   5.733   2.876
 4266SOL     OW13086   2.544   5.767   3.346
 4266SOL    HW113087   2.630   5.742   3.302
 4266SOL    HW213088   2.562   5.800   3.439
 4267SOL     OW13089   1.919   5.935   1.898
 4267SOL    HW113090   1.882   5.929   1.805
 4267SOL    HW213091   1.971   6.019   1.908
 4268SOL     OW13092   1.920   5.740   2.149
 4268SOL    HW113093   1.910   5.823   2.094
 4268SOL    HW213094   2.009   5.699   2.130
 4269SOL     OW13095   3.079   5.876   2.328
 4269SOL    HW113096   3.148   5.804   2.317
 4269SOL    HW213097   3.109   5.940   2.400
 4270SOL     OW13098   3.656   5.913   3.512
 4270SOL    HW113099   3.618   5.981   3.449
 4270SOL    HW213100   3.582   5.855   3.547
 4271SOL     OW13101   3.644   5.772   3.117
 4271SOL    HW113102   3.711   5.703   3.146
 4271SOL    HW213103   3.651   5.784   3.018
 4272SOL     OW13104   3.294   5.803   2.979
 4272SOL    HW113105   3.311   5.704   2.975
 4272SOL    HW213106   3.318   5.837   3.070
 4273SOL     OW13107   2.872   5.595   2.996
 4273SOL    HW113108   2.805   5.532   2.955
 4273SOL    HW213109   2.963   5.554   2.993
 4274SOL     OW13110   3.233   5.615   2.037
 4274SOL    HW113111   3.275   5.541   1.985
 4274SOL    HW213112   3.138   5.592   2.058
 4275SOL     OW13113   3.174   0.033   2.556
 4275SOL    HW113114   3.122   0.117   2.539
 4275SOL    HW213115   3.153  -0.001   2.647
 4276SOL     OW13116   3.441   5.789   2.738
 4276SOL    HW113117   3.381   5.816   2.814
 4276SOL    HW213118   3.436   5.858   2.665
 4277SOL     OW13119   2.085   5.837   4.710
 4277SOL    HW113120   2.114   5.816   4.804
 4277SOL    HW213121   1.989   5.813   4.698
 4278SOL     OW13122   1.849   5.933   4.393
 4278SOL    HW113123   1.760   5.968   4.420
 4278SOL    HW213124   1.837   5.854   4.333
 4279SOL     OW13125   3.618   0.170   3.883
 4279SOL    HW113126   3.639   0.080   3.846
 4279SOL    HW213127   3.581   0.160   3.975
 4280SOL     OW13128   2.320   5.951   5.211
 4280SOL    HW113129   2.393   5.884   5.192
 4280SOL    HW213130   2.232   5.905   5.209
 4281SOL     OW13131   3.451   0.034   4.429
 4281SOL    HW113132   3.355   0.026   4.401
 4281SOL    HW213133   3.459   0.104   4.499
 4282SOL     OW13134   3.448   5.720   5.170
 4282SOL    HW113135   3.518   5.759   5.110
 4282SOL    HW213136   3.449   5.768   5.258
 4283SOL     OW13137   2.677   5.589   4.231
 4283SOL    HW113138   2.726   5.668   4.194
 4283SOL    HW213139   2.579   5.610   4.236
 4284SOL     OW13140   2.193   5.813   5.550
 4284SOL    HW113141   2.242   5.895   5.520
 4284SOL    HW213142   2.100   5.837   5.575
 4285SOL     OW13143   3.122   5.927   4.666
 4285SOL    HW113144   3.035   5.878   4.663
 4285SOL    HW213145   3.182   5.884   4.734
 4286SOL     OW13146   2.717   5.954   3.887
 4286SOL    HW113147   2.790   5.980   3.824
 4286SOL    HW213148   2.755   5.897   3.960
 4287SOL     OW13149   2.411   5.738   4.620
 4287SOL    HW113150   2.413   5.765   4.717
 4287SOL    HW213151   2.407   5.821   4.563
 4288SOL     OW13152   2.058   5.842   5.221
 4288SOL    HW113153   1.984   5.902   5.250
 4288SOL    HW213154   2.045   5.751   5.261
 4289SOL     OW13155   3.276   5.683   4.168
 4289SOL    HW113156   3.270   5.649   4.074
 4289SOL    HW213157   3.372   5.697   4.193
 4290SOL     OW13158   3.410   5.794   5.457
 4290SOL    HW113159   3.403   5.826   5.551
 4290SOL    HW213160   3.356   5.710   5.446
 4291SOL     OW13161   2.498   5.710   3.832
 4291SOL    HW113162   2.580   5.655   3.848
 4291SOL    HW213163   2.448   5.674   3.753
 4292SOL     OW13164   2.628   5.834   5.455
 4292SOL    HW113165   2.712   5.780   5.466
 4292SOL    HW213166   2.573   5.826   5.538
 4293SOL     OW13167   3.267   0.178   5.135
 4293SOL    HW113168   3.182   0.151   5.182
 4293SOL    HW213169   3.254   0.268   5.093
 4294SOL     OW13170   2.403   5.654   4.210
 4294SOL    HW113171   2.328   5.649   4.275
 4294SOL    HW213172   2.387   5.729   4.146
 4295SOL     OW13173   2.149   5.627   3.914
 4295SOL    HW113174   2.197   5.699   3.864
 4295SOL    HW213175   2.216   5.565   3.955
 4296SOL     OW13176   2.810   5.816   4.148
 4296SOL    HW113177   2.762   5.891   4.192
 4296SOL    HW213178   2.909   5.828   4.158
 4297SOL     OW13179   2.413   5.789   4.884
 4297SOL    HW113180   2.469   5.755   4.959
 4297SOL    HW213181   2.319   5.802   4.915
 4298SOL     OW13182   2.879   5.618   4.446
 4298SOL    HW113183   2.814   5.619   4.369
 4298SOL    HW213184   2.853   5.546   4.510
 4299SOL     OW13185   2.357   5.853   4.023
 4299SOL    HW113186   2.420   5.819   3.953
 4299SOL    HW213187   2.401   5.924   4.077
 4300SOL     OW13188   2.787   5.669   5.113
 4300SOL    HW113189   2.813   5.649   5.018
 4300SOL    HW213190   2.859   5.722   5.157
 4301SOL     OW13191   2.864   5.699   5.463
 4301SOL    HW113192   2.894   5.757   5.386
 4301SOL    HW213193   2.917   5.614   5.463
 4302SOL     OW13194   2.352   5.609   5.475
 4302SOL    HW113195   2.308   5.550   5.407
 4302SOL    HW213196   2.292   5.687   5.495
 4303SOL     OW13197   2.150   5.778   4.970
 4303SOL    HW113198   2.114   5.813   5.057
 4303SOL    HW213199   2.141   5.678   4.968
 4304SOL     OW13200   2.676   0.257   4.775
 4304SOL    HW113201   2.636   0.235   4.685
 4304SOL    HW213202   2.602   0.264   4.842
 4305SOL     OW13203   2.167   5.650   4.356
 4305SOL    HW113204   2.132   5.743   4.367
 4305SOL    HW213205   2.178   5.607   4.446
 4306SOL     OW13206   3.373   5.842   3.855
 4306SOL    HW113207   3.317   5.761   3.870
 4306SOL    HW213208   3.450   5.842   3.919
 4307SOL     OW13209   2.221   0.075   4.741
 4307SOL    HW113210   2.175  -0.010   4.714
 4307SOL    HW213211   2.284   0.103   4.669
 4308SOL     OW13212   3.000   5.815   5.213
 4308SOL    HW113213   3.063   5.863   5.274
 4308SOL    HW213214   3.005   5.855   5.121
 4309SOL     OW13215   3.583   5.728   4.219
 4309SOL    HW113216   3.657   5.725   4.151
 4309SOL    HW213217   3.570   5.637   4.258
 4310SOL     OW13218   3.688   5.750   4.705
 4310SOL    HW113219   3.727   5.661   4.681
 4310SOL    HW213220   3.602   5.763   4.656
 4311SOL     OW13221   2.883   5.793   4.659
 4311SOL    HW113222   2.885   5.737   4.576
 4311SOL    HW213223   2.876   5.733   4.739
 4312SOL     OW13224   2.543   5.768   5.203
 4312SOL    HW113225   2.629   5.742   5.161
 4312SOL    HW213226   2.559   5.803   5.295
 4313SOL     OW13227   1.916   5.937   3.762
 4313SOL    HW113228   1.881   5.930   3.669
 4313SOL    HW213229   1.972   6.019   3.771
 4314SOL     OW13230   1.920   5.740   4.011
 4314SOL    HW113231   1.909   5.823   3.956
 4314SOL    HW213232   2.009   5.698   3.992
 4315SOL     OW13233   3.080   5.877   4.189
 4315SOL    HW113234   3.148   5.805   4.178
 4315SOL    HW213235   3.108   5.940   4.261
 4316SOL     OW13236   3.651   5.910   5.378
 4316SOL    HW113237   3.616   5.977   5.313
 4316SOL    HW213238   3.576   5.855   5.415
 4317SOL     OW13239   3.643   5.772   4.979
 4317SOL    HW113240   3.710   5.705   5.009
 4317SOL    HW213241   3.650   5.784   4.880
 4318SOL     OW13242   3.294   5.804   4.841
 4318SOL    HW113243   3.312   5.705   4.840
 4318SOL    HW213244   3.319   5.841   4.931
 4319SOL     OW13245   2.873   5.596   4.859
 4319SOL    HW113246   2.806   5.533   4.819
 4319SOL    HW213247   2.963   5.555   4.855
 4320SOL     OW13248   3.233   5.615   3.898
 4320SOL    HW113249   3.275   5.540   3.847
 4320SOL    HW213250   3.138   5.592   3.919
 4321SOL     OW13251   3.174   0.033   4.417
 4321SOL    HW113252   3.123   0.118   4.402
 4321SOL    HW213253   3.153  -0.003   4.508
 4322SOL     OW13254   3.440   5.789   4.600
 4322SOL    HW113255   3.381   5.816   4.676
 4322SOL    HW213256   3.435   5.858   4.528
 4323SOL     OW13257   3.583   0.190   5.786
 4323SOL    HW113258   3.597   0.101   5.743
 4323SOL    HW213259   3.591   0.180   5.886
 4324SOL     OW13260   2.915   0.166   0.025
 4324SOL    HW113261   2.979   0.242   0.021
 4324SOL    HW213262   2.832   0.189  -0.026
 4325SOL     OW13263   2.727   5.979   5.721
 4325SOL    HW113264   2.780   6.022   5.648
 4325SOL    HW213265   2.758   5.884   5.733
 4326SOL     OW13266   2.506   5.707   5.677
 4326SOL    HW113267   2.572   5.636   5.703
 4326SOL    HW213268   2.447   5.673   5.604
 4327SOL     OW13269   2.157   5.635   5.764
 4327SOL    HW113270   2.202   5.701   5.703
 4327SOL    HW213271   2.227   5.585   5.816
 4328SOL     OW13272   2.397   5.848   5.888
 4328SOL    HW113273   2.434   5.808   5.804
 4328SOL    HW213274   2.425   5.944   5.893
 4329SOL     OW13275   2.161   5.652   0.242
 4329SOL    HW113276   2.216   5.735   0.243
 4329SOL    HW213277   2.217   5.575   0.275
 4330SOL     OW13278   3.369   5.847   5.730
 4330SOL    HW113279   3.314   5.763   5.735
 4330SOL    HW213280   3.431   5.851   5.808
 4331SOL     OW13281   2.682   0.196   5.894
 4331SOL    HW113282   2.689   0.110   5.842
 4331SOL    HW213283   2.586   0.221   5.904
 4332SOL     OW13284   3.570   5.700   0.088
 4332SOL    HW113285   3.639   5.707   0.017
 4332SOL    HW213286   3.570   5.606   0.125
 4333SOL     OW13287   1.930   5.914   5.617
 4333SOL    HW113288   1.881   5.913   5.529
 4333SOL    HW213289   1.973   6.003   5.630
 4334SOL     OW13290   1.934   5.752   5.862
 4334SOL    HW113291   1.909   5.807   5.782
 4334SOL    HW213292   2.019   5.702   5.844
 4335SOL     OW13293   3.228   5.615   5.737
 4335SOL    HW113294   3.274   5.534   5.701
 4335SOL    HW213295   3.140   5.588   5.776
 4336SOL     OW13296   3.900   0.670   0.116
 4336SOL    HW113297   3.823   0.621   0.157
 4336SOL    HW213298   3.952   0.607   0.059
 4337SOL     OW13299   3.911   0.326   1.001
 4337SOL    HW113300   3.962   0.288   1.079
 4337SOL    HW213301   3.836   0.265   0.977
 4338SOL     OW13302   3.727   0.386   0.636
 4338SOL    HW113303   3.639   0.411   0.676
 4338SOL    HW213304   3.714   0.309   0.573
 4339SOL     OW13305   4.296   1.305   1.197
 4339SOL    HW113306   4.208   1.302   1.149
 4339SOL    HW213307   4.313   1.399   1.227
 4340SOL     OW13308   5.291   1.520   0.710
 4340SOL    HW113309   5.247   1.492   0.795
 4340SOL    HW213310   5.223   1.527   0.637
 4341SOL     OW13311   4.863   0.706   0.691
 4341SOL    HW113312   4.913   0.791   0.677
 4341SOL    HW213313   4.808   0.713   0.774
 4342SOL     OW13314   5.519   0.610   0.238
 4342SOL    HW113315   5.450   0.657   0.183
 4342SOL    HW213316   5.479   0.528   0.279
 4343SOL     OW13317   4.461   1.138   1.050
 4343SOL    HW113318   4.396   1.176   1.116
 4343SOL    HW213319   4.506   1.212   1.001
 4344SOL     OW13320   4.606   0.757   1.825
 4344SOL    HW113321   4.593   0.824   1.898
 4344SOL    HW213322   4.626   0.804   1.739
 4345SOL     OW13323   4.408   0.998   0.656
 4345SOL    HW113324   4.480   0.990   0.725
 4345SOL    HW213325   4.335   1.056   0.691
 4346SOL     OW13326   4.436   1.154   1.825
 4346SOL    HW113327   4.489   1.231   1.860
 4346SOL    HW213328   4.354   1.188   1.779
 4347SOL     OW13329   4.052   1.417   1.065
 4347SOL    HW113330   3.975   1.371   1.021
 4347SOL    HW213331   4.102   1.471   0.997
 4348SOL     OW13332   5.179   1.502   1.365
 4348SOL    HW113333   5.237   1.584   1.371
 4348SOL    HW213334   5.105   1.508   1.431
 4349SOL     OW13335   4.170   0.397   1.482
 4349SOL    HW113336   4.256   0.345   1.490
 4349SOL    HW213337   4.093   0.334   1.493
 4350SOL     OW13338   5.331   0.448   0.738
 4350SOL    HW113339   5.251   0.459   0.677
 4350SOL    HW213340   5.348   0.534   0.786
 4351SOL     OW13341   3.950   1.711   0.482
 4351SOL    HW113342   3.968   1.791   0.538
 4351SOL    HW213343   4.027   1.696   0.420
 4352SOL     OW13344   4.862   1.340   1.699
 4352SOL    HW113345   4.909   1.336   1.787
 4352SOL    HW213346   4.805   1.258   1.688
 4353SOL     OW13347   3.945   1.439   0.528
 4353SOL    HW113348   3.935   1.538   0.534
 4353SOL    HW213349   3.892   1.395   0.600
 4354SOL     OW13350   4.002   1.091   0.906
 4354SOL    HW113351   3.999   0.995   0.935
 4354SOL    HW213352   3.936   1.144   0.960
 4355SOL     OW13353   4.314   1.800   1.425
 4355SOL    HW113354   4.231   1.776   1.476
 4355SOL    HW213355   4.347   1.890   1.455
 4356SOL     OW13356   4.372   1.013   0.010
 4356SOL    HW113357   4.308   1.083   0.044
 4356SOL    HW213358   4.375   0.937   0.075
 4357SOL     OW13359   5.374   0.104   1.505
 4357SOL    HW113360   5.295   0.122   1.446
 4357SOL    HW213361   5.363   0.151   1.592
 4358SOL     OW13362   3.824   0.651   0.587
 4358SOL    HW113363   3.795   0.557   0.604
 4358SOL    HW213364   3.820   0.703   0.672
 4359SOL     OW13365   5.580   1.749   0.335
 4359SOL    HW113366   5.649   1.717   0.400
 4359SOL    HW213367   5.585   1.849   0.327
 4360SOL     OW13368   3.696   1.583   0.126
 4360SOL    HW113369   3.741   1.494   0.142
 4360SOL    HW213370   3.719   1.645   0.201
 4361SOL     OW13371   5.429   0.908   0.657
 4361SOL    HW113372   5.503   0.850   0.624
 4361SOL    HW213373   5.398   0.968   0.583
 4362SOL     OW13374   5.360   1.099   0.478
 4362SOL    HW113375   5.385   1.151   0.396
 4362SOL    HW213376   5.363   1.158   0.558
 4363SOL     OW13377   3.845   0.749   1.577
 4363SOL    HW113378   3.940   0.782   1.576
 4363SOL    HW213379   3.783   0.826   1.567
 4364SOL     OW13380   4.338   1.395   0.732
 4364SOL    HW113381   4.293   1.306   0.744
 4364SOL    HW213382   4.330   1.424   0.637
 4365SOL     OW13383   5.006   1.230   1.422
 4365SOL    HW113384   5.031   1.160   1.355
 4365SOL    HW213385   5.069   1.226   1.499
 4366SOL     OW13386   4.549   0.028   0.537
 4366SOL    HW113387   4.590   0.115   0.512
 4366SOL    HW213388   4.449   0.036   0.532
 4367SOL     OW13389   3.912   0.957   1.286
 4367SOL    HW113390   4.003   0.918   1.272
 4367SOL    HW213391   3.849   0.918   1.219
 4368SOL     OW13392   5.175   1.036   0.230
 4368SOL    HW113393   5.106   0.977   0.272
 4368SOL    HW213394   5.265   0.994   0.239
 4369SOL     OW13395   4.902   1.816   1.625
 4369SOL    HW113396   4.909   1.887   1.554
 4369SOL    HW213397   4.922   1.727   1.585
 4370SOL     OW13398   4.074   0.269   1.831
 4370SOL    HW113399   4.124   0.350   1.862
 4370SOL    HW213400   3.976   0.281   1.850
 4371SOL     OW13401   5.186   1.421   0.941
 4371SOL    HW113402   5.121   1.442   1.014
 4371SOL    HW213403   5.178   1.325   0.915
 4372SOL     OW13404   5.371   1.753   0.580
 4372SOL    HW113405   5.350   1.724   0.487
 4372SOL    HW213406   5.352   1.678   0.643
 4373SOL     OW13407   5.020   0.375   0.932
 4373SOL    HW113408   4.928   0.335   0.931
 4373SOL    HW213409   5.080   0.320   0.989
 4374SOL     OW13410   5.312   1.678   0.316
 4374SOL    HW113411   5.411   1.696   0.315
 4374SOL    HW213412   5.280   1.661   0.223
 4375SOL     OW13413   4.531   0.607   1.460
 4375SOL    HW113414   4.498   0.584   1.551
 4375SOL    HW213415   4.484   0.550   1.392
 4376SOL     OW13416   5.111   0.469   1.680
 4376SOL    HW113417   5.113   0.519   1.767
 4376SOL    HW213418   5.177   0.394   1.683
 4377SOL     OW13419   4.673   0.886   1.587
 4377SOL    HW113420   4.732   0.817   1.546
 4377SOL    HW213421   4.619   0.931   1.516
 4378SOL     OW13422   4.711   0.388   1.241
 4378SOL    HW113423   4.640   0.440   1.288
 4378SOL    HW213424   4.670   0.331   1.170
 4379SOL     OW13425   4.786   0.688   0.424
 4379SOL    HW113426   4.808   0.692   0.522
 4379SOL    HW213427   4.696   0.645   0.412
 4380SOL     OW13428   3.811   0.822   0.795
 4380SOL    HW113429   3.900   0.813   0.841
 4380SOL    HW213430   3.763   0.901   0.832
 4381SOL     OW13431   3.851   1.880   1.591
 4381SOL    HW113432   3.856   1.852   1.687
 4381SOL    HW213433   3.769   1.841   1.550
 4382SOL     OW13434   4.600   0.348   0.227
 4382SOL    HW113435   4.651   0.405   0.161
 4382SOL    HW213436   4.573   0.263   0.182
 4383SOL     OW13437   5.407   0.575   1.823
 4383SOL    HW113438   5.375   0.659   1.779
 4383SOL    HW213439   5.437   0.510   1.753
 4384SOL     OW13440   5.091   1.143   0.532
 4384SOL    HW113441   5.177   1.122   0.485
 4384SOL    HW213442   5.041   1.212   0.480
 4385SOL     OW13443   4.286   0.237   0.899
 4385SOL    HW113444   4.276   0.249   0.997
 4385SOL    HW213445   4.283   0.327   0.854
 4386SOL     OW13446   4.731   1.461   0.468
 4386SOL    HW113447   4.689   1.535   0.415
 4386SOL    HW213448   4.697   1.463   0.562
 4387SOL     OW13449   4.080   1.816   0.877
 4387SOL    HW113450   4.124   1.727   0.882
 4387SOL    HW213451   4.147   1.888   0.896
 4388SOL     OW13452   5.531   1.050   0.875
 4388SOL    HW113453   5.481   1.018   0.794
 4388SOL    HW213454   5.467   1.060   0.951
 4389SOL     OW13455   4.947   1.536   1.514
 4389SOL    HW113456   4.936   1.463   1.581
 4389SOL    HW213457   4.879   1.525   1.441
 4390SOL     OW13458   4.036   0.929   0.254
 4390SOL    HW113459   4.135   0.918   0.245
 4390SOL    HW213460   3.992   0.842   0.233
 4391SOL     OW13461   5.211   0.753   0.723
 4391SOL    HW113462   5.204   0.712   0.814
 4391SOL    HW213463   5.294   0.810   0.719
 4392SOL     OW13464   4.196   1.270   1.730
 4392SOL    HW113465   4.170   1.276   1.634
 4392SOL    HW213466   4.113   1.265   1.786
 4393SOL     OW13467   4.827   1.782   0.214
 4393SOL    HW113468   4.763   1.735   0.274
 4393SOL    HW213469   4.880   1.714   0.162
 4394SOL     OW13470   3.919   0.275   1.506
 4394SOL    HW113471   3.850   0.345   1.489
 4394SOL    HW213472   3.906   0.236   1.597
 4395SOL     OW13473   5.328   1.370   0.065
 4395SOL    HW113474   5.313   1.468   0.056
 4395SOL    HW213475   5.243   1.321   0.047
 4396SOL     OW13476   4.188   1.730   0.335
 4396SOL    HW113477   4.236   1.791   0.398
 4396SOL    HW213478   4.253   1.692   0.270
 4397SOL     OW13479   5.145   0.153   0.409
 4397SOL    HW113480   5.130   0.115   0.318
 4397SOL    HW213481   5.241   0.142   0.434
 4398SOL     OW13482   3.983   1.790   1.220
 4398SOL    HW113483   4.032   1.713   1.260
 4398SOL    HW213484   3.960   1.770   1.125
 4399SOL     OW13485   4.664   1.702   0.894
 4399SOL    HW113486   4.750   1.658   0.919
 4399SOL    HW213487   4.621   1.651   0.820
 4400SOL     OW13488   4.089   0.692   0.525
 4400SOL    HW113489   4.122   0.600   0.507
 4400SOL    HW213490   3.990   0.690   0.541
 4401SOL     OW13491   5.262   0.227   1.731
 4401SOL    HW113492   5.257   0.251   1.828
 4401SOL    HW213493   5.196   0.153   1.712
 4402SOL     OW13494   4.329   0.083   0.131
 4402SOL    HW113495   4.428   0.072   0.140
 4402SOL    HW213496   4.310   0.148   0.058
 4403SOL     OW13497   4.483   0.285   1.776
 4403SOL    HW113498   4.569   0.234   1.775
 4403SOL    HW213499   4.420   0.243   1.841
 4404SOL     OW13500   4.595   1.514   1.194
 4404SOL    HW113501   4.576   1.477   1.103
 4404SOL    HW213502   4.668   1.461   1.237
 4405SOL     OW13503   5.056   0.589   1.436
 4405SOL    HW113504   5.088   0.556   1.526
 4405SOL    HW213505   5.092   0.681   1.421
 4406SOL     OW13506   4.544   1.383   0.945
 4406SOL    HW113507   4.635   1.374   0.906
 4406SOL    HW213508   4.476   1.393   0.872
 4407SOL     OW13509   4.655   0.519   0.891
 4407SOL    HW113510   4.625   0.507   0.796
 4407SOL    HW213511   4.696   0.434   0.925
 4408SOL     OW13512   4.275   0.054   0.500
 4408SOL    HW113513   4.194   0.043   0.559
 4408SOL    HW213514   4.265   0.137   0.446
 4409SOL     OW13515   5.111   1.214   0.036
 4409SOL    HW113516   5.135   1.145   0.104
 4409SOL    HW213517   5.029   1.264   0.066
 4410SOL     OW13518   4.022  -0.008   0.201
 4410SOL    HW113519   4.025   0.090   0.179
 4410SOL    HW213520   4.112  -0.038   0.231
 4411SOL     OW13521   4.676   0.256   0.468
 4411SOL    HW113522   4.643   0.294   0.382
 4411SOL    HW213523   4.775   0.271   0.475
 4412SOL     OW13524   4.800   0.692   1.451
 4412SOL    HW113525   4.721   0.631   1.462
 4412SOL    HW213526   4.884   0.638   1.450
 4413SOL     OW13527   4.935   1.579   0.800
 4413SOL    HW113528   4.949   1.643   0.724
 4413SOL    HW213529   5.014   1.583   0.862
 4414SOL     OW13530   4.196   1.159   0.731
 4414SOL    HW113531   4.131   1.136   0.803
 4414SOL    HW213532   4.152   1.144   0.642
 4415SOL     OW13533   4.982   1.795   0.611
 4415SOL    HW113534   5.037   1.858   0.556
 4415SOL    HW213535   4.907   1.845   0.654
 4416SOL     OW13536   4.734   0.523   0.065
 4416SOL    HW113537   4.659   0.556   0.008
 4416SOL    HW213538   4.758   0.593   0.133
 4417SOL     OW13539   3.818   0.549   1.390
 4417SOL    HW113540   3.912   0.550   1.356
 4417SOL    HW213541   3.807   0.621   1.459
 4418SOL     OW13542   4.286   0.246   1.184
 4418SOL    HW113543   4.318   0.161   1.226
 4418SOL    HW213544   4.188   0.256   1.201
 4419SOL     OW13545   4.589   0.463   0.636
 4419SOL    HW113546   4.546   0.523   0.570
 4419SOL    HW213547   4.618   0.378   0.590
 4420SOL     OW13548   4.711   0.041   0.769
 4420SOL    HW113549   4.652   0.035   0.688
 4420SOL    HW213550   4.712  -0.047   0.816
 4421SOL     OW13551   5.175   1.158   0.864
 4421SOL    HW113552   5.094   1.102   0.846
 4421SOL    HW213553   5.223   1.175   0.778
 4422SOL     OW13554   5.189   0.615   0.966
 4422SOL    HW113555   5.129   0.536   0.961
 4422SOL    HW213556   5.252   0.604   1.044
 4423SOL     OW13557   5.615   0.810   0.399
 4423SOL    HW113558   5.665   0.759   0.469
 4423SOL    HW213559   5.574   0.747   0.334
 4424SOL     OW13560   4.196   1.407   0.171
 4424SOL    HW113561   4.107   1.400   0.216
 4424SOL    HW213562   4.215   1.323   0.120
 4425SOL     OW13563   5.387   1.264   0.685
 4425SOL    HW113564   5.487   1.264   0.678
 4425SOL    HW213565   5.354   1.359   0.680
 4426SOL     OW13566   5.140   0.590   0.110
 4426SOL    HW113567   5.078   0.575   0.187
 4426SOL    HW213568   5.196   0.509   0.095
 4427SOL     OW13569   4.248   0.259   0.322
 4427SOL    HW113570   4.278   0.190   0.256
 4427SOL    HW213571   4.223   0.343   0.274
 4428SOL     OW13572   5.476   1.234   1.545
 4428SOL    HW113573   5.566   1.195   1.530
 4428SOL    HW213574   5.485   1.328   1.579
 4429SOL     OW13575   4.772   1.352   1.339
 4429SOL    HW113576   4.690   1.320   1.386
 4429SOL    HW213577   4.852   1.308   1.380
 4430SOL     OW13578   5.333   1.634   1.661
 4430SOL    HW113579   5.316   1.671   1.570
 4430SOL    HW213580   5.415   1.577   1.659
 4431SOL     OW13581   4.870   1.233   1.107
 4431SOL    HW113582   4.805   1.264   1.177
 4431SOL    HW213583   4.837   1.261   1.016
 4432SOL     OW13584   5.349   1.095   1.078
 4432SOL    HW113585   5.342   1.162   1.152
 4432SOL    HW213586   5.275   1.111   1.012
 4433SOL     OW13587   4.621   0.102   1.397
 4433SOL    HW113588   4.646   0.060   1.310
 4433SOL    HW213589   4.702   0.143   1.439
 4434SOL     OW13590   4.701   1.116   1.723
 4434SOL    HW113591   4.608   1.136   1.751
 4434SOL    HW213592   4.703   1.033   1.667
 4435SOL     OW13593   4.441   1.079   0.390
 4435SOL    HW113594   4.421   1.050   0.484
 4435SOL    HW213595   4.491   1.008   0.342
 4436SOL     OW13596   4.151   0.822   1.259
 4436SOL    HW113597   4.225   0.833   1.324
 4436SOL    HW213598   4.112   0.730   1.266
 4437SOL     OW13599   4.985   0.383   1.275
 4437SOL    HW113600   5.013   0.465   1.324
 4437SOL    HW213601   4.890   0.393   1.244
 4438SOL     OW13602   3.801   1.569   1.355
 4438SOL    HW113603   3.763   1.636   1.291
 4438SOL    HW213604   3.901   1.568   1.346
 4439SOL     OW13605   4.061   1.113   0.496
 4439SOL    HW113606   4.089   1.180   0.427
 4439SOL    HW213607   4.059   1.022   0.456
 4440SOL     OW13608   4.285   0.521   0.853
 4440SOL    HW113609   4.288   0.586   0.777
 4440SOL    HW213610   4.348   0.550   0.925
 4441SOL     OW13611   4.979   1.362   0.397
 4441SOL    HW113612   5.034   1.436   0.434
 4441SOL    HW213613   4.883   1.375   0.423
 4442SOL     OW13614   5.019   1.466   1.147
 4442SOL    HW113615   5.074   1.470   1.230
 4442SOL    HW213616   4.966   1.381   1.146
 4443SOL     OW13617   5.289   0.628   0.485
 4443SOL    HW113618   5.244   0.670   0.564
 4443SOL    HW213619   5.301   0.697   0.413
 4444SOL     OW13620   4.072   1.533   1.304
 4444SOL    HW113621   4.057   1.485   1.218
 4444SOL    HW213622   4.170   1.547   1.318
 4445SOL     OW13623   4.144   0.748   1.601
 4445SOL    HW113624   4.211   0.792   1.542
 4445SOL    HW213625   4.172   0.654   1.620
 4446SOL     OW13626   5.330   0.793   1.685
 4446SOL    HW113627   5.239   0.834   1.680
 4446SOL    HW213628   5.388   0.829   1.611
 4447SOL     OW13629   4.713   0.136   1.784
 4447SOL    HW113630   4.777   0.209   1.761
 4447SOL    HW213631   4.704   0.074   1.706
 4448SOL     OW13632   4.201   0.041   1.772
 4448SOL    HW113633   4.210   0.019   1.675
 4448SOL    HW213634   4.153   0.128   1.782
 4449SOL     OW13635   4.319   0.873   1.041
 4449SOL    HW113636   4.352   0.967   1.036
 4449SOL    HW213637   4.252   0.864   1.114
 4450SOL     OW13638   5.062   0.854   1.024
 4450SOL    HW113639   4.973   0.848   0.978
 4450SOL    HW213640   5.113   0.769   1.008
 4451SOL     OW13641   4.949   0.510   0.288
 4451SOL    HW113642   4.951   0.430   0.347
 4451SOL    HW213643   4.898   0.583   0.333
 4452SOL     OW13644   4.018   0.234   1.241
 4452SOL    HW113645   3.979   0.228   1.333
 4452SOL    HW213646   4.024   0.142   1.202
 4453SOL     OW13647   3.776   1.308   1.272
 4453SOL    HW113648   3.808   1.247   1.344
 4453SOL    HW213649   3.778   1.403   1.305
 4454SOL     OW13650   4.447   0.629   1.045
 4454SOL    HW113651   4.525   0.612   0.985
 4454SOL    HW213652   4.412   0.721   1.030
 4455SOL     OW13653   5.457   0.964   1.856
 4455SOL    HW113654   5.411   0.894   1.801
 4455SOL    HW213655   5.400   0.987   1.935
 4456SOL     OW13656   4.030   0.047   0.651
 4456SOL    HW113657   4.028   0.144   0.676
 4456SOL    HW213658   3.937   0.009   0.657
 4457SOL     OW13659   5.375   0.400   0.365
 4457SOL    HW113660   5.382   0.317   0.420
 4457SOL    HW213661   5.339   0.474   0.421
 4458SOL     OW13662   4.753   0.762   0.956
 4458SOL    HW113663   4.742   0.781   1.054
 4458SOL    HW213664   4.722   0.668   0.937
 4459SOL     OW13665   4.705   1.562   1.722
 4459SOL    HW113666   4.686   1.609   1.636
 4459SOL    HW213667   4.753   1.476   1.703
 4460SOL     OW13668   5.564   1.494   1.594
 4460SOL    HW113669   5.584   1.526   1.502
 4460SOL    HW213670   5.644   1.505   1.652
 4461SOL     OW13671   4.076   0.919   1.806
 4461SOL    HW113672   4.156   0.940   1.862
 4461SOL    HW213673   4.102   0.853   1.734
 4462SOL     OW13674   5.274   0.352   0.122
 4462SOL    HW113675   5.220   0.268   0.122
 4462SOL    HW213676   5.310   0.368   0.214
 4463SOL     OW13677   5.006   0.808   0.026
 4463SOL    HW113678   5.060   0.726   0.049
 4463SOL    HW213679   5.056   0.862  -0.042
 4464SOL     OW13680   4.797   1.344   0.862
 4464SOL    HW113681   4.801   1.266   0.800
 4464SOL    HW213682   4.850   1.419   0.824
 4465SOL     OW13683   4.041   0.810   0.943
 4465SOL    HW113684   4.136   0.832   0.922
 4465SOL    HW213685   4.036   0.718   0.981
 4466SOL     OW13686   4.074   0.540   1.018
 4466SOL    HW113687   4.011   0.464   1.001
 4466SOL    HW213688   4.149   0.536   0.952
 4467SOL     OW13689   4.856   0.368   1.707
 4467SOL    HW113690   4.805   0.426   1.770
 4467SOL    HW213691   4.948   0.407   1.694
 4468SOL     OW13692   4.857   0.211   1.487
 4468SOL    HW113693   4.851   0.272   1.566
 4468SOL    HW213694   4.865   0.266   1.403
 4469SOL     OW13695   3.819   1.778   0.950
 4469SOL    HW113696   3.781   1.699   0.902
 4469SOL    HW213697   3.911   1.796   0.915
 4470SOL     OW13698   4.215   1.576   0.903
 4470SOL    HW113699   4.286   1.640   0.931
 4470SOL    HW213700   4.254   1.509   0.839
 4471SOL     OW13701   4.689   0.792   1.219
 4471SOL    HW113702   4.746   0.771   1.298
 4471SOL    HW213703   4.600   0.749   1.230
 4472SOL     OW13704   3.755   0.550   1.115
 4472SOL    HW113705   3.813   0.488   1.062
 4472SOL    HW213706   3.789   0.555   1.209
 4473SOL     OW13707   3.915   0.531   1.726
 4473SOL    HW113708   3.984   0.487   1.668
 4473SOL    HW213709   3.877   0.610   1.678
 4474SOL     OW13710   5.101   0.933   1.649
 4474SOL    HW113711   5.125   1.030   1.650
 4474SOL    HW213712   5.096   0.901   1.555
 4475SOL     OW13713   4.543   0.580   0.374
 4475SOL    HW113714   4.543   0.495   0.322
 4475SOL    HW213715   4.476   0.643   0.335
 4476SOL     OW13716   5.372   0.603   1.173
 4476SOL    HW113717   5.359   0.543   1.253
 4476SOL    HW213718   5.462   0.584   1.133
 4477SOL     OW13719   3.961   1.543   1.723
 4477SOL    HW113720   3.940   1.616   1.788
 4477SOL    HW213721   3.968   1.456   1.772
 4478SOL     OW13722   4.427   0.470   1.260
 4478SOL    HW113723   4.363   0.393   1.249
 4478SOL    HW213724   4.425   0.527   1.178
 4479SOL     OW13725   4.635   1.681   1.480
 4479SOL    HW113726   4.612   1.630   1.397
 4479SOL    HW213727   4.638   1.779   1.459
 4480SOL     OW13728   4.170   0.484   0.192
 4480SOL    HW113729   4.238   0.556   0.180
 4480SOL    HW213730   4.091   0.520   0.242
 4481SOL     OW13731   3.861   1.139   1.478
 4481SOL    HW113732   3.866   1.100   1.570
 4481SOL    HW213733   3.881   1.068   1.411
 4482SOL     OW13734   5.034   1.042   1.216
 4482SOL    HW113735   5.056   0.973   1.147
 4482SOL    HW213736   4.973   1.111   1.176
 4483SOL     OW13737   5.001   0.842   0.309
 4483SOL    HW113738   4.923   0.803   0.358
 4483SOL    HW213739   4.991   0.824   0.211
 4484SOL     OW13740   5.506   1.717   1.160
 4484SOL    HW113741   5.568   1.754   1.091
 4484SOL    HW213742   5.472   1.628   1.129
 4485SOL     OW13743   4.966   1.735   1.103
 4485SOL    HW113744   5.052   1.766   1.061
 4485SOL    HW213745   4.974   1.638   1.125
 4486SOL     OW13746   3.810   1.265   1.007
 4486SOL    HW113747   3.792   1.280   1.104
 4486SOL    HW213748   3.743   1.202   0.969
 4487SOL     OW13749   4.409   1.680   1.743
 4487SOL    HW113750   4.343   1.754   1.734
 4487SOL    HW213751   4.484   1.693   1.679
 4488SOL     OW13752   4.596   0.049   0.180
 4488SOL    HW113753   4.672   0.083   0.125
 4488SOL    HW213754   4.632   0.006   0.263
 4489SOL     OW13755   5.409   0.147   0.477
 4489SOL    HW113756   5.498   0.133   0.434
 4489SOL    HW213757   5.400   0.088   0.557
 4490SOL     OW13758   5.122   1.578   0.498
 4490SOL    HW113759   5.182   1.609   0.424
 4490SOL    HW213760   5.065   1.654   0.528
 4491SOL     OW13761   3.871   1.786   1.846
 4491SOL    HW113762   3.814   1.716   1.889
 4491SOL    HW213763   3.920   1.837   1.916
 4492SOL     OW13764   5.009   0.932   0.673
 4492SOL    HW113765   5.086   0.869   0.685
 4492SOL    HW213766   5.036   1.007   0.613
 4493SOL     OW13767   4.516   1.281   1.421
 4493SOL    HW113768   4.488   1.327   1.505
 4493SOL    HW213769   4.446   1.293   1.351
 4494SOL     OW13770   4.378   1.606   0.175
 4494SOL    HW113771   4.406   1.620   0.079
 4494SOL    HW213772   4.319   1.526   0.182
 4495SOL     OW13773   5.336   1.729   1.387
 4495SOL    HW113774   5.393   1.728   1.304
 4495SOL    HW213775   5.323   1.823   1.417
 4496SOL     OW13776   5.590   0.148   0.968
 4496SOL    HW113777   5.620   0.071   0.912
 4496SOL    HW213778   5.501   0.180   0.936
 4497SOL     OW13779   3.980   0.309   0.723
 4497SOL    HW113780   3.894   0.345   0.687
 4497SOL    HW213781   3.980   0.315   0.823
 4498SOL     OW13782   4.964   1.610   0.047
 4498SOL    HW113783   4.936   1.516   0.068
 4498SOL    HW213784   4.914   1.643  -0.033
 4499SOL     OW13785   4.547   1.012   1.382
 4499SOL    HW113786   4.592   0.996   1.294
 4499SOL    HW213787   4.538   1.110   1.397
 4500SOL     OW13788   4.648   0.911   0.311
 4500SOL    HW113789   4.689   0.925   0.221
 4500SOL    HW213790   4.683   0.827   0.352
 4501SOL     OW13791   5.231   1.648   0.054
 4501SOL    HW113792   5.134   1.628   0.044
 4501SOL    HW213793   5.269   1.672  -0.036
 4502SOL     OW13794   4.088   1.305   1.487
 4502SOL    HW113795   4.080   1.384   1.426
 4502SOL    HW213796   4.008   1.246   1.476
 4503SOL     OW13797   5.337   1.287   1.286
 4503SOL    HW113798   5.395   1.262   1.364
 4503SOL    HW213799   5.270   1.355   1.316
 4504SOL     OW13800   4.791   1.113   0.727
 4504SOL    HW113801   4.713   1.061   0.762
 4504SOL    HW213802   4.857   1.050   0.686
 4505SOL     OW13803   4.780   0.244   0.936
 4505SOL    HW113804   4.773   0.175   0.863
 4505SOL    HW213805   4.698   0.242   0.992
 4506SOL     OW13806   4.340   1.482   0.477
 4506SOL    HW113807   4.396   1.429   0.414
 4506SOL    HW213808   4.260   1.517   0.428
 4507SOL     OW13809   5.467   0.409   1.375
 4507SOL    HW113810   5.547   0.468   1.365
 4507SOL    HW213811   5.480   0.325   1.322
 4508SOL     OW13812   3.953   1.342   0.279
 4508SOL    HW113813   3.905   1.254   0.278
 4508SOL    HW213814   3.949   1.380   0.372
 4509SOL     OW13815   3.843   1.051   1.741
 4509SOL    HW113816   3.761   1.018   1.786
 4509SOL    HW213817   3.922   0.997   1.771
 4510SOL     OW13818   4.402   0.245   1.507
 4510SOL    HW113819   4.470   0.187   1.464
 4510SOL    HW213820   4.427   0.261   1.603
 4511SOL     OW13821   3.721   0.396   5.989
 4511SOL    HW113822   3.656   0.334   6.033
 4511SOL    HW213823   3.791   0.343   5.941
 4512SOL     OW13824   5.142   0.854   1.389
 4512SOL    HW113825   5.085   0.917   1.336
 4512SOL    HW213826   5.235   0.855   1.352
 4513SOL     OW13827   3.789   0.157   0.362
 4513SOL    HW113828   3.808   0.249   0.328
 4513SOL    HW213829   3.855   0.092   0.324
 4514SOL     OW13830   4.900   1.356   0.124
 4514SOL    HW113831   4.801   1.349   0.108
 4514SOL    HW213832   4.919   1.342   0.221
 4515SOL     OW13833   4.355   0.825   1.437
 4515SOL    HW113834   4.411   0.906   1.421
 4515SOL    HW213835   4.414   0.746   1.450
 4516SOL     OW13836   5.210   1.802   0.993
 4516SOL    HW113837   5.233   1.871   0.924
 4516SOL    HW213838   5.293   1.755   1.022
 4517SOL     OW13839   4.446   0.556   1.708
 4517SOL    HW113840   4.493   0.621   1.767
 4517SOL    HW213841   4.459   0.463   1.743
 4518SOL     OW13842   5.199   1.191   1.632
 4518SOL    HW113843   5.184   1.207   1.729
 4518SOL    HW213844   5.294   1.211   1.608
 4519SOL     OW13845   4.089   1.740   1.571
 4519SOL    HW113846   4.007   1.794   1.555
 4519SOL    HW213847   4.064   1.651   1.609
 4520SOL     OW13848   5.387   0.875   1.252
 4520SOL    HW113849   5.382   0.784   1.209
 4520SOL    HW213850   5.372   0.945   1.182
 4521SOL     OW13851   4.943   0.311   0.477
 4521SOL    HW113852   5.018   0.248   0.455
 4521SOL    HW213853   4.971   0.372   0.551
 4522SOL     OW13854   4.303   0.738   0.684
 4522SOL    HW113855   4.351   0.824   0.665
 4522SOL    HW213856   4.227   0.728   0.620
 4523SOL     OW13857   5.466   0.381   1.645
 4523SOL    HW113858   5.460   0.392   1.546
 4523SOL    HW213859   5.393   0.321   1.676
 4524SOL     OW13860   5.481   0.923   1.501
 4524SOL    HW113861   5.469   1.019   1.526
 4524SOL    HW213862   5.452   0.908   1.407
 4525SOL     OW13863   4.637   1.391   0.054
 4525SOL    HW113864   4.574   1.365   0.128
 4525SOL    HW213865   4.612   1.482   0.021
 4526SOL     OW13866   4.392   1.778   0.942
 4526SOL    HW113867   4.369   1.872   0.921
 4526SOL    HW213868   4.490   1.764   0.928
 4527SOL     OW13869   4.594   0.974   0.861
 4527SOL    HW113870   4.647   0.896   0.894
 4527SOL    HW213871   4.549   1.019   0.938
 4528SOL     OW13872   4.793   0.968   0.083
 4528SOL    HW113873   4.769   1.030   0.008
 4528SOL    HW213874   4.870   0.912   0.057
 4529SOL     OW13875   5.559   1.561   0.846
 4529SOL    HW113876   5.484   1.547   0.781
 4529SOL    HW213877   5.556   1.489   0.916
 4530SOL     OW13878   3.954   1.291   1.851
 4530SOL    HW113879   3.902   1.216   1.811
 4530SOL    HW213880   3.926   1.304   1.947
 4531SOL     OW13881   3.817   1.223   0.664
 4531SOL    HW113882   3.835   1.178   0.752
 4531SOL    HW213883   3.882   1.189   0.596
 4532SOL     OW13884   4.411   1.414   1.637
 4532SOL    HW113885   4.329   1.366   1.669
 4532SOL    HW213886   4.411   1.507   1.672
 4533SOL     OW13887   5.531   0.184   1.236
 4533SOL    HW113888   5.520   0.093   1.277
 4533SOL    HW213889   5.557   0.174   1.140
 4534SOL     OW13890   4.132   0.426   0.513
 4534SOL    HW113891   4.184   0.361   0.458
 4534SOL    HW213892   4.095   0.379   0.593
 4535SOL     OW13893   5.412   1.474   1.091
 4535SOL    HW113894   5.334   1.461   1.030
 4535SOL    HW213895   5.411   1.405   1.163
 4536SOL     OW13896   4.066   0.565   1.291
 4536SOL    HW113897   4.119   0.503   1.350
 4536SOL    HW213898   4.082   0.541   1.195
 4537SOL     OW13899   4.552   1.581   0.681
 4537SOL    HW113900   4.533   1.641   0.603
 4537SOL    HW213901   4.479   1.513   0.688
 4538SOL     OW13902   5.167   0.245   1.119
 4538SOL    HW113903   5.205   0.172   1.175
 4538SOL    HW213904   5.098   0.295   1.171
 4539SOL     OW13905   4.747   0.004   1.165
 4539SOL    HW113906   4.690  -0.048   1.101
 4539SOL    HW213907   4.821   0.048   1.114
 4540SOL     OW13908   4.509   1.333   0.314
 4540SOL    HW113909   4.472   1.241   0.330
 4540SOL    HW213910   4.604   1.336   0.344
 4541SOL     OW13911   4.347   1.563   1.292
 4541SOL    HW113912   4.343   1.651   1.340
 4541SOL    HW213913   4.437   1.551   1.252
 4542SOL     OW13914   5.078   0.101   0.144
 4542SOL    HW113915   5.133   0.019   0.131
 4542SOL    HW213916   4.983   0.076   0.158
 4543SOL     OW13917   5.019   0.473   0.679
 4543SOL    HW113918   4.965   0.557   0.677
 4543SOL    HW213919   5.020   0.436   0.772
 4544SOL     OW13920   5.338   0.228   0.897
 4544SOL    HW113921   5.277   0.237   0.976
 4544SOL    HW213922   5.333   0.310   0.841
 4545SOL     OW13923   3.814   1.092   0.294
 4545SOL    HW113924   3.897   1.042   0.266
 4545SOL    HW213925   3.759   1.034   0.354
 4546SOL     OW13926   4.605   1.672   0.341
 4546SOL    HW113927   4.524   1.640   0.292
 4546SOL    HW213928   4.579   1.747   0.402
 4547SOL     OW13929   3.935   0.613   1.991
 4547SOL    HW113930   3.843   0.612   2.030
 4547SOL    HW213931   3.929   0.592   1.893
 4548SOL     OW13932   3.911   0.326   2.863
 4548SOL    HW113933   3.962   0.288   2.940
 4548SOL    HW213934   3.836   0.264   2.839
 4549SOL     OW13935   3.740   0.405   2.487
 4549SOL    HW113936   3.648   0.417   2.526
 4549SOL    HW213937   3.735   0.340   2.411
 4550SOL     OW13938   4.296   1.305   3.058
 4550SOL    HW113939   4.207   1.303   3.011
 4550SOL    HW213940   4.314   1.399   3.090
 4551SOL     OW13941   5.294   1.520   2.568
 4551SOL    HW113942   5.249   1.493   2.654
 4551SOL    HW213943   5.225   1.528   2.496
 4552SOL     OW13944   4.860   0.708   2.551
 4552SOL    HW113945   4.911   0.792   2.537
 4552SOL    HW213946   4.808   0.714   2.636
 4553SOL     OW13947   5.475   0.609   2.084
 4553SOL    HW113948   5.458   0.603   1.986
 4553SOL    HW213949   5.450   0.522   2.128
 4554SOL     OW13950   4.458   1.137   2.908
 4554SOL    HW113951   4.394   1.175   2.975
 4554SOL    HW213952   4.504   1.212   2.861
 4555SOL     OW13953   4.606   0.757   3.688
 4555SOL    HW113954   4.594   0.824   3.762
 4555SOL    HW213955   4.626   0.805   3.603
 4556SOL     OW13956   4.406   0.993   2.510
 4556SOL    HW113957   4.478   0.987   2.580
 4556SOL    HW213958   4.333   1.052   2.544
 4557SOL     OW13959   4.436   1.153   3.686
 4557SOL    HW113960   4.489   1.230   3.721
 4557SOL    HW213961   4.353   1.187   3.640
 4558SOL     OW13962   4.053   1.416   2.927
 4558SOL    HW113963   3.975   1.371   2.884
 4558SOL    HW213964   4.102   1.470   2.859
 4559SOL     OW13965   5.179   1.503   3.226
 4559SOL    HW113966   5.237   1.584   3.233
 4559SOL    HW213967   5.105   1.509   3.293
 4560SOL     OW13968   4.172   0.396   3.341
 4560SOL    HW113969   4.257   0.345   3.350
 4560SOL    HW213970   4.094   0.335   3.354
 4561SOL     OW13971   5.334   0.443   2.597
 4561SOL    HW113972   5.259   0.460   2.534
 4561SOL    HW213973   5.359   0.528   2.643
 4562SOL     OW13974   3.948   1.716   2.331
 4562SOL    HW113975   3.967   1.793   2.392
 4562SOL    HW213976   4.022   1.706   2.265
 4563SOL     OW13977   4.862   1.340   3.561
 4563SOL    HW113978   4.909   1.337   3.649
 4563SOL    HW213979   4.805   1.258   3.551
 4564SOL     OW13980   3.961   1.447   2.399
 4564SOL    HW113981   3.943   1.545   2.397
 4564SOL    HW213982   3.902   1.403   2.466
 4565SOL     OW13983   4.003   1.091   2.763
 4565SOL    HW113984   3.999   0.996   2.793
 4565SOL    HW213985   3.939   1.146   2.817
 4566SOL     OW13986   4.314   1.800   3.286
 4566SOL    HW113987   4.231   1.776   3.338
 4566SOL    HW213988   4.347   1.889   3.317
 4567SOL     OW13989   4.301   0.990   2.010
 4567SOL    HW113990   4.349   1.035   1.935
 4567SOL    HW213991   4.343   1.018   2.097
 4568SOL     OW13992   5.374   0.104   3.367
 4568SOL    HW113993   5.296   0.123   3.308
 4568SOL    HW213994   5.363   0.151   3.454
 4569SOL     OW13995   3.842   0.669   2.428
 4569SOL    HW113996   3.815   0.574   2.447
 4569SOL    HW213997   3.837   0.722   2.513
 4570SOL     OW13998   5.569   1.755   2.194
 4570SOL    HW113999   5.640   1.729   2.260
 4570SOL    HW214000   5.581   1.851   2.168
 4571SOL     OW14001   3.757   1.586   1.982
 4571SOL    HW114002   3.740   1.489   2.000
 4571SOL    HW214003   3.736   1.639   2.064
 4572SOL     OW14004   5.423   0.922   2.510
 4572SOL    HW114005   5.499   0.863   2.482
 4572SOL    HW214006   5.394   0.978   2.433
 4573SOL     OW14007   5.371   1.104   2.300
 4573SOL    HW114008   5.460   1.100   2.253
 4573SOL    HW214009   5.374   1.173   2.372
 4574SOL     OW14010   3.846   0.749   3.438
 4574SOL    HW114011   3.941   0.781   3.439
 4574SOL    HW214012   3.785   0.827   3.432
 4575SOL     OW14013   4.338   1.394   2.594
 4575SOL    HW114014   4.293   1.305   2.605
 4575SOL    HW214015   4.325   1.426   2.500
 4576SOL     OW14016   5.007   1.231   3.283
 4576SOL    HW114017   5.033   1.160   3.217
 4576SOL    HW214018   5.069   1.227   3.361
 4577SOL     OW14019   4.549   0.037   2.402
 4577SOL    HW114020   4.591   0.121   2.369
 4577SOL    HW214021   4.449   0.043   2.392
 4578SOL     OW14022   3.914   0.957   3.147
 4578SOL    HW114023   4.005   0.918   3.134
 4578SOL    HW214024   3.849   0.913   3.085
 4579SOL     OW14025   5.256   1.006   2.067
 4579SOL    HW114026   5.183   0.944   2.095
 4579SOL    HW214027   5.302   1.043   2.148
 4580SOL     OW14028   4.903   1.817   3.487
 4580SOL    HW114029   4.909   1.887   3.416
 4580SOL    HW214030   4.923   1.728   3.448
 4581SOL     OW14031   4.074   0.272   3.688
 4581SOL    HW114032   4.124   0.351   3.724
 4581SOL    HW214033   3.977   0.282   3.710
 4582SOL     OW14034   5.188   1.422   2.802
 4582SOL    HW114035   5.123   1.441   2.876
 4582SOL    HW214036   5.180   1.325   2.775
 4583SOL     OW14037   5.368   1.762   2.434
 4583SOL    HW114038   5.350   1.730   2.342
 4583SOL    HW214039   5.353   1.688   2.500
 4584SOL     OW14040   4.315   0.717   2.138
 4584SOL    HW114041   4.318   0.804   2.089
 4584SOL    HW214042   4.246   0.721   2.210
 4585SOL     OW14043   5.021   0.376   2.793
 4585SOL    HW114044   4.929   0.336   2.792
 4585SOL    HW214045   5.081   0.321   2.850
 4586SOL     OW14046   5.306   1.674   2.172
 4586SOL    HW114047   5.403   1.697   2.168
 4586SOL    HW214048   5.271   1.658   2.079
 4587SOL     OW14049   4.531   0.608   3.321
 4587SOL    HW114050   4.499   0.585   3.413
 4587SOL    HW214051   4.484   0.551   3.254
 4588SOL     OW14052   5.112   0.469   3.542
 4588SOL    HW114053   5.113   0.518   3.629
 4588SOL    HW214054   5.176   0.393   3.546
 4589SOL     OW14055   4.673   0.886   3.450
 4589SOL    HW114056   4.733   0.817   3.409
 4589SOL    HW214057   4.619   0.931   3.379
 4590SOL     OW14058   4.711   0.390   3.101
 4590SOL    HW114059   4.641   0.441   3.151
 4590SOL    HW214060   4.668   0.332   3.032
 4591SOL     OW14061   4.777   0.701   2.284
 4591SOL    HW114062   4.800   0.697   2.381
 4591SOL    HW214063   4.689   0.655   2.270
 4592SOL     OW14064   3.814   0.831   2.646
 4592SOL    HW114065   3.899   0.817   2.697
 4592SOL    HW214066   3.764   0.909   2.685
 4593SOL     OW14067   3.851   1.881   3.454
 4593SOL    HW114068   3.857   1.853   3.550
 4593SOL    HW214069   3.768   1.844   3.413
 4594SOL     OW14070   4.608   0.359   2.066
 4594SOL    HW114071   4.658   0.417   2.002
 4594SOL    HW214072   4.566   0.283   2.016
 4595SOL     OW14073   5.408   0.574   3.684
 4595SOL    HW114074   5.376   0.658   3.641
 4595SOL    HW214075   5.437   0.509   3.614
 4596SOL     OW14076   5.102   1.143   2.390
 4596SOL    HW114077   5.188   1.129   2.341
 4596SOL    HW214078   5.048   1.212   2.343
 4597SOL     OW14079   4.287   0.237   2.760
 4597SOL    HW114080   4.276   0.248   2.859
 4597SOL    HW214081   4.283   0.326   2.716
 4598SOL     OW14082   4.716   1.447   2.324
 4598SOL    HW114083   4.687   1.528   2.272
 4598SOL    HW214084   4.694   1.460   2.421
 4599SOL     OW14085   4.079   1.815   2.737
 4599SOL    HW114086   4.125   1.726   2.744
 4599SOL    HW214087   4.145   1.887   2.758
 4600SOL     OW14088   5.527   1.054   2.734
 4600SOL    HW114089   5.478   1.024   2.652
 4600SOL    HW214090   5.463   1.061   2.811
 4601SOL     OW14091   4.947   1.537   3.376
 4601SOL    HW114092   4.936   1.463   3.444
 4601SOL    HW214093   4.877   1.528   3.306
 4602SOL     OW14094   4.040   0.961   2.120
 4602SOL    HW114095   4.129   0.983   2.079
 4602SOL    HW214096   4.005   0.876   2.081
 4603SOL     OW14097   5.211   0.759   2.584
 4603SOL    HW114098   5.205   0.714   2.673
 4603SOL    HW214099   5.293   0.816   2.581
 4604SOL     OW14100   4.197   1.269   3.591
 4604SOL    HW114101   4.171   1.275   3.495
 4604SOL    HW214102   4.114   1.265   3.648
 4605SOL     OW14103   4.848   1.774   2.088
 4605SOL    HW114104   4.766   1.739   2.133
 4605SOL    HW214105   4.877   1.710   2.017
 4606SOL     OW14106   3.920   0.274   3.369
 4606SOL    HW114107   3.847   0.341   3.357
 4606SOL    HW214108   3.914   0.235   3.461
 4607SOL     OW14109   5.347   1.385   1.952
 4607SOL    HW114110   5.309   1.476   1.936
 4607SOL    HW214111   5.278   1.316   1.931
 4608SOL     OW14112   4.187   1.736   2.177
 4608SOL    HW114113   4.231   1.797   2.244
 4608SOL    HW214114   4.256   1.697   2.117
 4609SOL     OW14115   5.143   0.150   2.281
 4609SOL    HW114116   5.118   0.105   2.195
 4609SOL    HW214117   5.240   0.138   2.298
 4610SOL     OW14118   3.983   1.789   3.082
 4610SOL    HW114119   4.031   1.712   3.122
 4610SOL    HW214120   3.960   1.768   2.986
 4611SOL     OW14121   4.663   1.703   2.755
 4611SOL    HW114122   4.748   1.659   2.784
 4611SOL    HW214123   4.622   1.650   2.680
 4612SOL     OW14124   4.120   0.685   2.336
 4612SOL    HW114125   4.137   0.588   2.350
 4612SOL    HW214126   4.023   0.704   2.353
 4613SOL     OW14127   5.261   0.227   3.593
 4613SOL    HW114128   5.257   0.251   3.690
 4613SOL    HW214129   5.198   0.152   3.575
 4614SOL     OW14130   4.369   0.122   1.971
 4614SOL    HW114131   4.442   0.059   1.995
 4614SOL    HW214132   4.311   0.080   1.901
 4615SOL     OW14133   4.482   0.285   3.637
 4615SOL    HW114134   4.569   0.235   3.637
 4615SOL    HW214135   4.420   0.243   3.703
 4616SOL     OW14136   4.596   1.514   3.055
 4616SOL    HW114137   4.576   1.476   2.965
 4616SOL    HW214138   4.667   1.460   3.099
 4617SOL     OW14139   5.056   0.589   3.299
 4617SOL    HW114140   5.088   0.556   3.388
 4617SOL    HW214141   5.093   0.681   3.284
 4618SOL     OW14142   4.545   1.382   2.807
 4618SOL    HW114143   4.636   1.374   2.766
 4618SOL    HW214144   4.477   1.394   2.734
 4619SOL     OW14145   4.654   0.520   2.751
 4619SOL    HW114146   4.626   0.507   2.656
 4619SOL    HW214147   4.693   0.436   2.787
 4620SOL     OW14148   4.274   0.059   2.350
 4620SOL    HW114149   4.196   0.050   2.412
 4620SOL    HW214150   4.263   0.141   2.293
 4621SOL     OW14151   5.148   1.202   1.903
 4621SOL    HW114152   5.182   1.125   1.958
 4621SOL    HW214153   5.059   1.231   1.938
 4622SOL     OW14154   4.022   0.045   2.077
 4622SOL    HW114155   4.076   0.118   2.035
 4622SOL    HW214156   4.083  -0.029   2.106
 4623SOL     OW14157   4.677   0.264   2.315
 4623SOL    HW114158   4.646   0.297   2.226
 4623SOL    HW214159   4.775   0.278   2.324
 4624SOL     OW14160   4.800   0.693   3.312
 4624SOL    HW114161   4.722   0.632   3.325
 4624SOL    HW214162   4.885   0.639   3.313
 4625SOL     OW14163   4.939   1.574   2.657
 4625SOL    HW114164   4.952   1.642   2.585
 4625SOL    HW214165   5.013   1.581   2.724
 4626SOL     OW14166   4.195   1.155   2.583
 4626SOL    HW114167   4.131   1.133   2.657
 4626SOL    HW214168   4.149   1.146   2.495
 4627SOL     OW14169   4.982   1.791   2.475
 4627SOL    HW114170   5.036   1.852   2.418
 4627SOL    HW214171   4.907   1.842   2.517
 4628SOL     OW14172   4.746   0.530   1.899
 4628SOL    HW114173   4.701   0.616   1.874
 4628SOL    HW214174   4.813   0.547   1.971
 4629SOL     OW14175   3.817   0.552   3.250
 4629SOL    HW114176   3.912   0.551   3.217
 4629SOL    HW214177   3.807   0.623   3.320
 4630SOL     OW14178   4.287   0.245   3.047
 4630SOL    HW114179   4.319   0.162   3.092
 4630SOL    HW214180   4.189   0.256   3.062
 4631SOL     OW14181   4.589   0.463   2.494
 4631SOL    HW114182   4.542   0.524   2.431
 4631SOL    HW214183   4.620   0.381   2.446
 4632SOL     OW14184   4.711   0.042   2.631
 4632SOL    HW114185   4.651   0.038   2.550
 4632SOL    HW214186   4.711  -0.047   2.677
 4633SOL     OW14187   5.176   1.159   2.720
 4633SOL    HW114188   5.097   1.098   2.718
 4633SOL    HW214189   5.212   1.171   2.628
 4634SOL     OW14190   5.189   0.617   2.827
 4634SOL    HW114191   5.130   0.537   2.820
 4634SOL    HW214192   5.252   0.605   2.904
 4635SOL     OW14193   5.576   0.809   2.236
 4635SOL    HW114194   5.625   0.758   2.307
 4635SOL    HW214195   5.538   0.745   2.169
 4636SOL     OW14196   4.210   1.422   2.015
 4636SOL    HW114197   4.128   1.395   2.067
 4636SOL    HW214198   4.213   1.372   1.929
 4637SOL     OW14199   5.390   1.269   2.510
 4637SOL    HW114200   5.489   1.265   2.520
 4637SOL    HW214201   5.359   1.363   2.524
 4638SOL     OW14202   5.111   0.578   1.930
 4638SOL    HW114203   5.050   0.554   2.006
 4638SOL    HW214204   5.205   0.561   1.957
 4639SOL     OW14205   4.247   0.267   2.170
 4639SOL    HW114206   4.300   0.215   2.103
 4639SOL    HW214207   4.218   0.353   2.129
 4640SOL     OW14208   5.475   1.235   3.406
 4640SOL    HW114209   5.566   1.195   3.392
 4640SOL    HW214210   5.485   1.328   3.441
 4641SOL     OW14211   4.772   1.350   3.199
 4641SOL    HW114212   4.690   1.319   3.247
 4641SOL    HW214213   4.852   1.308   3.241
 4642SOL     OW14214   5.333   1.634   3.522
 4642SOL    HW114215   5.316   1.671   3.431
 4642SOL    HW214216   5.415   1.577   3.521
 4643SOL     OW14217   4.869   1.231   2.967
 4643SOL    HW114218   4.807   1.264   3.039
 4643SOL    HW214219   4.835   1.261   2.878
 4644SOL     OW14220   5.348   1.096   2.940
 4644SOL    HW114221   5.343   1.162   3.015
 4644SOL    HW214222   5.275   1.113   2.875
 4645SOL     OW14223   4.621   0.103   3.257
 4645SOL    HW114224   4.647   0.062   3.170
 4645SOL    HW214225   4.702   0.143   3.300
 4646SOL     OW14226   4.701   1.117   3.584
 4646SOL    HW114227   4.608   1.137   3.613
 4646SOL    HW214228   4.702   1.033   3.529
 4647SOL     OW14229   4.440   1.059   2.238
 4647SOL    HW114230   4.422   1.038   2.334
 4647SOL    HW214231   4.518   1.006   2.206
 4648SOL     OW14232   4.152   0.821   3.119
 4648SOL    HW114233   4.226   0.832   3.186
 4648SOL    HW214234   4.113   0.730   3.127
 4649SOL     OW14235   4.984   0.383   3.138
 4649SOL    HW114236   5.012   0.465   3.187
 4649SOL    HW214237   4.890   0.393   3.107
 4650SOL     OW14238   3.801   1.569   3.217
 4650SOL    HW114239   3.763   1.638   3.154
 4650SOL    HW214240   3.900   1.569   3.210
 4651SOL     OW14241   4.053   1.129   2.347
 4651SOL    HW114242   4.056   1.210   2.290
 4651SOL    HW214243   4.054   1.047   2.290
 4652SOL     OW14244   4.284   0.520   2.714
 4652SOL    HW114245   4.289   0.583   2.636
 4652SOL    HW214246   4.347   0.551   2.785
 4653SOL     OW14247   4.968   1.357   2.256
 4653SOL    HW114248   5.030   1.429   2.288
 4653SOL    HW214249   4.875   1.378   2.286
 4654SOL     OW14250   5.020   1.465   3.008
 4654SOL    HW114251   5.075   1.471   3.091
 4654SOL    HW214252   4.966   1.381   3.010
 4655SOL     OW14253   5.291   0.622   2.350
 4655SOL    HW114254   5.244   0.673   2.422
 4655SOL    HW214255   5.335   0.686   2.287
 4656SOL     OW14256   4.072   1.532   3.167
 4656SOL    HW114257   4.057   1.484   3.080
 4656SOL    HW214258   4.170   1.547   3.181
 4657SOL     OW14259   4.144   0.748   3.463
 4657SOL    HW114260   4.212   0.792   3.404
 4657SOL    HW214261   4.172   0.655   3.483
 4658SOL     OW14262   5.330   0.792   3.547
 4658SOL    HW114263   5.239   0.833   3.542
 4658SOL    HW214264   5.388   0.828   3.474
 4659SOL     OW14265   4.713   0.138   3.646
 4659SOL    HW114266   4.777   0.211   3.623
 4659SOL    HW214267   4.706   0.075   3.569
 4660SOL     OW14268   4.201   0.043   3.633
 4660SOL    HW114269   4.210   0.020   3.536
 4660SOL    HW214270   4.153   0.130   3.642
 4661SOL     OW14271   4.312   0.874   2.898
 4661SOL    HW114272   4.349   0.967   2.897
 4661SOL    HW214273   4.251   0.863   2.976
 4662SOL     OW14274   5.060   0.856   2.881
 4662SOL    HW114275   4.969   0.844   2.843
 4662SOL    HW214276   5.113   0.772   2.868
 4663SOL     OW14277   4.919   0.527   2.124
 4663SOL    HW114278   4.932   0.445   2.181
 4663SOL    HW214279   4.876   0.598   2.179
 4664SOL     OW14280   4.018   0.234   3.103
 4664SOL    HW114281   3.980   0.230   3.195
 4664SOL    HW214282   4.023   0.141   3.065
 4665SOL     OW14283   3.777   1.309   3.134
 4665SOL    HW114284   3.809   1.247   3.206
 4665SOL    HW214285   3.779   1.403   3.168
 4666SOL     OW14286   4.445   0.630   2.906
 4666SOL    HW114287   4.524   0.612   2.846
 4666SOL    HW214288   4.411   0.722   2.889
 4667SOL     OW14289   5.456   0.965   3.717
 4667SOL    HW114290   5.411   0.894   3.663
 4667SOL    HW214291   5.400   0.988   3.797
 4668SOL     OW14292   4.037   0.051   2.511
 4668SOL    HW114293   4.032   0.148   2.537
 4668SOL    HW214294   3.945   0.011   2.515
 4669SOL     OW14295   5.341   0.393   2.215
 4669SOL    HW114296   5.367   0.318   2.276
 4669SOL    HW214297   5.313   0.473   2.270
 4670SOL     OW14298   4.752   0.763   2.818
 4670SOL    HW114299   4.740   0.782   2.915
 4670SOL    HW214300   4.722   0.669   2.798
 4671SOL     OW14301   4.705   1.563   3.584
 4671SOL    HW114302   4.686   1.610   3.498
 4671SOL    HW214303   4.752   1.476   3.565
 4672SOL     OW14304   5.564   1.494   3.456
 4672SOL    HW114305   5.585   1.526   3.364
 4672SOL    HW214306   5.645   1.506   3.514
 4673SOL     OW14307   4.076   0.920   3.667
 4673SOL    HW114308   4.155   0.940   3.725
 4673SOL    HW214309   4.102   0.854   3.596
 4674SOL     OW14310   5.236   0.279   1.990
 4674SOL    HW114311   5.161   0.217   2.015
 4674SOL    HW214312   5.269   0.327   2.071
 4675SOL     OW14313   5.009   0.828   1.884
 4675SOL    HW114314   5.048   0.736   1.892
 4675SOL    HW214315   5.040   0.869   1.798
 4676SOL     OW14316   4.797   1.342   2.721
 4676SOL    HW114317   4.803   1.264   2.659
 4676SOL    HW214318   4.852   1.417   2.684
 4677SOL     OW14319   4.039   0.810   2.805
 4677SOL    HW114320   4.135   0.835   2.796
 4677SOL    HW214321   4.031   0.717   2.841
 4678SOL     OW14322   4.073   0.540   2.879
 4678SOL    HW114323   4.010   0.464   2.863
 4678SOL    HW214324   4.148   0.535   2.814
 4679SOL     OW14325   4.857   0.369   3.568
 4679SOL    HW114326   4.805   0.427   3.632
 4679SOL    HW214327   4.948   0.407   3.555
 4680SOL     OW14328   4.857   0.211   3.348
 4680SOL    HW114329   4.851   0.272   3.427
 4680SOL    HW214330   4.866   0.265   3.265
 4681SOL     OW14331   3.726   1.310   2.057
 4681SOL    HW114332   3.636   1.332   2.019
 4681SOL    HW214333   3.726   1.216   2.091
 4682SOL     OW14334   3.819   1.776   2.811
 4682SOL    HW114335   3.781   1.697   2.762
 4682SOL    HW214336   3.911   1.795   2.776
 4683SOL     OW14337   4.215   1.575   2.766
 4683SOL    HW114338   4.285   1.640   2.793
 4683SOL    HW214339   4.253   1.508   2.702
 4684SOL     OW14340   4.689   0.793   3.081
 4684SOL    HW114341   4.747   0.771   3.159
 4684SOL    HW214342   4.599   0.750   3.094
 4685SOL     OW14343   3.755   0.550   2.976
 4685SOL    HW114344   3.812   0.485   2.925
 4685SOL    HW214345   3.788   0.556   3.070
 4686SOL     OW14346   3.913   0.531   3.589
 4686SOL    HW114347   3.982   0.486   3.533
 4686SOL    HW214348   3.876   0.610   3.541
 4687SOL     OW14349   5.102   0.933   3.511
 4687SOL    HW114350   5.126   1.030   3.512
 4687SOL    HW214351   5.097   0.901   3.417
 4688SOL     OW14352   4.540   0.579   2.228
 4688SOL    HW114353   4.551   0.498   2.171
 4688SOL    HW214354   4.461   0.631   2.197
 4689SOL     OW14355   5.372   0.603   3.034
 4689SOL    HW114356   5.359   0.544   3.114
 4689SOL    HW214357   5.462   0.585   2.994
 4690SOL     OW14358   3.960   1.543   3.585
 4690SOL    HW114359   3.940   1.617   3.649
 4690SOL    HW214360   3.969   1.457   3.635
 4691SOL     OW14361   4.426   0.471   3.122
 4691SOL    HW114362   4.363   0.394   3.111
 4691SOL    HW214363   4.423   0.528   3.039
 4692SOL     OW14364   4.638   1.680   3.339
 4692SOL    HW114365   4.612   1.630   3.257
 4692SOL    HW214366   4.640   1.778   3.320
 4693SOL     OW14367   4.178   0.495   2.039
 4693SOL    HW114368   4.242   0.567   2.066
 4693SOL    HW214369   4.086   0.535   2.029
 4694SOL     OW14370   3.861   1.139   3.340
 4694SOL    HW114371   3.865   1.100   3.432
 4694SOL    HW214372   3.882   1.068   3.272
 4695SOL     OW14373   5.034   1.042   3.077
 4695SOL    HW114374   5.056   0.973   3.007
 4695SOL    HW214375   4.972   1.110   3.037
 4696SOL     OW14376   5.044   0.855   2.156
 4696SOL    HW114377   4.968   0.829   2.216
 4696SOL    HW214378   5.017   0.845   2.061
 4697SOL     OW14379   5.506   1.718   3.021
 4697SOL    HW114380   5.569   1.754   2.953
 4697SOL    HW214381   5.472   1.629   2.991
 4698SOL     OW14382   4.965   1.733   2.961
 4698SOL    HW114383   5.051   1.765   2.922
 4698SOL    HW214384   4.974   1.637   2.986
 4699SOL     OW14385   3.814   1.261   2.870
 4699SOL    HW114386   3.795   1.277   2.967
 4699SOL    HW214387   3.744   1.201   2.832
 4700SOL     OW14388   4.408   1.679   3.606
 4700SOL    HW114389   4.342   1.754   3.597
 4700SOL    HW214390   4.485   1.694   3.543
 4701SOL     OW14391   5.415   0.142   2.337
 4701SOL    HW114392   5.514   0.134   2.328
 4701SOL    HW214393   5.385   0.094   2.420
 4702SOL     OW14394   5.121   1.571   2.354
 4702SOL    HW114395   5.182   1.603   2.281
 4702SOL    HW214396   5.064   1.647   2.385
 4703SOL     OW14397   3.872   1.785   3.708
 4703SOL    HW114398   3.814   1.716   3.752
 4703SOL    HW214399   3.921   1.837   3.778
 4704SOL     OW14400   5.008   0.934   2.529
 4704SOL    HW114401   5.083   0.870   2.546
 4704SOL    HW214402   5.040   1.009   2.471
 4705SOL     OW14403   4.516   1.281   3.282
 4705SOL    HW114404   4.489   1.327   3.367
 4705SOL    HW214405   4.445   1.293   3.214
 4706SOL     OW14406   4.390   1.625   2.017
 4706SOL    HW114407   4.408   1.645   1.920
 4706SOL    HW214408   4.332   1.544   2.024
 4707SOL     OW14409   5.336   1.729   3.248
 4707SOL    HW114410   5.393   1.729   3.167
 4707SOL    HW214411   5.323   1.824   3.279
 4708SOL     OW14412   5.590   0.148   2.831
 4708SOL    HW114413   5.622   0.069   2.777
 4708SOL    HW214414   5.501   0.177   2.797
 4709SOL     OW14415   3.982   0.311   2.585
 4709SOL    HW114416   3.899   0.352   2.547
 4709SOL    HW214417   3.979   0.316   2.685
 4710SOL     OW14418   4.932   1.596   1.897
 4710SOL    HW114419   4.923   1.502   1.929
 4710SOL    HW214420   4.865   1.614   1.825
 4711SOL     OW14421   4.547   1.012   3.244
 4711SOL    HW114422   4.595   0.995   3.158
 4711SOL    HW214423   4.539   1.110   3.260
 4712SOL     OW14424   4.646   0.912   2.150
 4712SOL    HW114425   4.706   0.948   2.079
 4712SOL    HW214426   4.694   0.841   2.201
 4713SOL     OW14427   5.209   1.637   1.908
 4713SOL    HW114428   5.111   1.621   1.896
 4713SOL    HW214429   5.253   1.642   1.819
 4714SOL     OW14430   4.088   1.304   3.348
 4714SOL    HW114431   4.079   1.384   3.288
 4714SOL    HW214432   4.008   1.246   3.338
 4715SOL     OW14433   5.337   1.287   3.149
 4715SOL    HW114434   5.395   1.262   3.226
 4715SOL    HW214435   5.270   1.355   3.178
 4716SOL     OW14436   4.794   1.109   2.586
 4716SOL    HW114437   4.715   1.060   2.621
 4716SOL    HW214438   4.862   1.044   2.553
 4717SOL     OW14439   4.781   0.244   2.798
 4717SOL    HW114440   4.772   0.176   2.725
 4717SOL    HW214441   4.699   0.242   2.855
 4718SOL     OW14442   4.330   1.487   2.340
 4718SOL    HW114443   4.384   1.432   2.277
 4718SOL    HW214444   4.251   1.526   2.292
 4719SOL     OW14445   5.465   0.410   3.235
 4719SOL    HW114446   5.546   0.468   3.226
 4719SOL    HW214447   5.478   0.326   3.183
 4720SOL     OW14448   3.978   1.348   2.154
 4720SOL    HW114449   3.883   1.339   2.124
 4720SOL    HW214450   3.982   1.390   2.244
 4721SOL     OW14451   3.842   1.049   3.601
 4721SOL    HW114452   3.760   1.017   3.647
 4721SOL    HW214453   3.921   0.997   3.632
 4722SOL     OW14454   4.402   0.245   3.368
 4722SOL    HW114455   4.471   0.187   3.325
 4722SOL    HW214456   4.427   0.261   3.464
 4723SOL     OW14457   3.813   0.308   1.874
 4723SOL    HW114458   3.725   0.290   1.918
 4723SOL    HW214459   3.808   0.394   1.823
 4724SOL     OW14460   5.142   0.854   3.251
 4724SOL    HW114461   5.086   0.917   3.198
 4724SOL    HW214462   5.236   0.855   3.215
 4725SOL     OW14463   3.818   0.167   2.225
 4725SOL    HW114464   3.787   0.221   2.147
 4725SOL    HW214465   3.900   0.115   2.200
 4726SOL     OW14466   4.903   1.333   1.984
 4726SOL    HW114467   4.808   1.306   1.976
 4726SOL    HW214468   4.930   1.335   2.081
 4727SOL     OW14469   4.355   0.826   3.299
 4727SOL    HW114470   4.411   0.907   3.284
 4727SOL    HW214471   4.414   0.746   3.312
 4728SOL     OW14472   5.210   1.802   2.854
 4728SOL    HW114473   5.233   1.870   2.785
 4728SOL    HW214474   5.294   1.756   2.885
 4729SOL     OW14475   4.447   0.556   3.569
 4729SOL    HW114476   4.493   0.621   3.629
 4729SOL    HW214477   4.459   0.463   3.604
 4730SOL     OW14478   5.198   1.191   3.494
 4730SOL    HW114479   5.183   1.207   3.591
 4730SOL    HW214480   5.293   1.211   3.471
 4731SOL     OW14481   4.089   1.740   3.432
 4731SOL    HW114482   4.007   1.795   3.417
 4731SOL    HW214483   4.064   1.652   3.471
 4732SOL     OW14484   5.387   0.875   3.114
 4732SOL    HW114485   5.383   0.784   3.072
 4732SOL    HW214486   5.373   0.945   3.044
 4733SOL     OW14487   4.944   0.326   2.323
 4733SOL    HW114488   5.017   0.258   2.307
 4733SOL    HW214489   4.969   0.383   2.401
 4734SOL     OW14490   4.305   0.732   2.535
 4734SOL    HW114491   4.348   0.821   2.525
 4734SOL    HW214492   4.238   0.718   2.462
 4735SOL     OW14493   5.466   0.381   3.506
 4735SOL    HW114494   5.459   0.392   3.406
 4735SOL    HW214495   5.393   0.321   3.538
 4736SOL     OW14496   5.480   0.923   3.364
 4736SOL    HW114497   5.468   1.019   3.389
 4736SOL    HW214498   5.451   0.909   3.269
 4737SOL     OW14499   4.596   1.362   1.915
 4737SOL    HW114500   4.552   1.385   2.002
 4737SOL    HW214501   4.607   1.444   1.860
 4738SOL     OW14502   4.392   1.776   2.803
 4738SOL    HW114503   4.368   1.871   2.784
 4738SOL    HW214504   4.490   1.764   2.790
 4739SOL     OW14505   4.593   0.975   2.718
 4739SOL    HW114506   4.646   0.897   2.753
 4739SOL    HW214507   4.547   1.021   2.794
 4740SOL     OW14508   4.800   0.991   1.946
 4740SOL    HW114509   4.772   1.045   1.867
 4740SOL    HW214510   4.877   0.932   1.920
 4741SOL     OW14511   5.558   1.560   2.707
 4741SOL    HW114512   5.482   1.547   2.644
 4741SOL    HW214513   5.554   1.490   2.779
 4742SOL     OW14514   3.957   1.292   3.715
 4742SOL    HW114515   3.900   1.219   3.678
 4742SOL    HW214516   3.937   1.304   3.812
 4743SOL     OW14517   3.818   1.227   2.523
 4743SOL    HW114518   3.830   1.184   2.613
 4743SOL    HW214519   3.884   1.188   2.459
 4744SOL     OW14520   4.410   1.415   3.497
 4744SOL    HW114521   4.330   1.366   3.530
 4744SOL    HW214522   4.410   1.508   3.534
 4745SOL     OW14523   5.527   0.184   3.097
 4745SOL    HW114524   5.521   0.094   3.140
 4745SOL    HW214525   5.555   0.175   3.002
 4746SOL     OW14526   4.151   0.425   2.388
 4746SOL    HW114527   4.188   0.357   2.324
 4746SOL    HW214528   4.103   0.378   2.462
 4747SOL     OW14529   5.413   1.475   2.952
 4747SOL    HW114530   5.334   1.461   2.892
 4747SOL    HW214531   5.412   1.406   3.025
 4748SOL     OW14532   4.066   0.565   3.153
 4748SOL    HW114533   4.118   0.503   3.211
 4748SOL    HW214534   4.081   0.540   3.057
 4749SOL     OW14535   4.555   1.580   2.539
 4749SOL    HW114536   4.536   1.645   2.466
 4749SOL    HW214537   4.478   1.515   2.546
 4750SOL     OW14538   5.167   0.246   2.980
 4750SOL    HW114539   5.208   0.175   3.038
 4750SOL    HW214540   5.097   0.295   3.032
 4751SOL     OW14541   4.747   0.005   3.025
 4751SOL    HW114542   4.690  -0.047   2.961
 4751SOL    HW214543   4.822   0.047   2.974
 4752SOL     OW14544   4.499   1.331   2.188
 4752SOL    HW114545   4.474   1.235   2.198
 4752SOL    HW214546   4.585   1.348   2.237
 4753SOL     OW14547   4.347   1.563   3.154
 4753SOL    HW114548   4.343   1.650   3.202
 4753SOL    HW214549   4.438   1.551   3.114
 4754SOL     OW14550   5.069   0.061   2.036
 4754SOL    HW114551   5.127  -0.016   2.010
 4754SOL    HW214552   4.975   0.029   2.052
 4755SOL     OW14553   5.014   0.474   2.538
 4755SOL    HW114554   4.960   0.558   2.539
 4755SOL    HW214555   5.019   0.437   2.631
 4756SOL     OW14556   5.337   0.225   2.759
 4756SOL    HW114557   5.277   0.236   2.838
 4756SOL    HW214558   5.333   0.308   2.703
 4757SOL     OW14559   3.765   1.057   2.172
 4757SOL    HW114560   3.863   1.055   2.152
 4757SOL    HW214561   3.734   0.964   2.191
 4758SOL     OW14562   4.609   1.669   2.199
 4758SOL    HW114563   4.532   1.648   2.138
 4758SOL    HW214564   4.584   1.746   2.259
 4759SOL     OW14565   3.934   0.613   3.853
 4759SOL    HW114566   3.842   0.611   3.894
 4759SOL    HW214567   3.928   0.592   3.756
 4760SOL     OW14568   3.911   0.326   4.726
 4760SOL    HW114569   3.961   0.288   4.804
 4760SOL    HW214570   3.836   0.264   4.701
 4761SOL     OW14571   3.740   0.406   4.350
 4761SOL    HW114572   3.649   0.419   4.389
 4761SOL    HW214573   3.735   0.339   4.275
 4762SOL     OW14574   4.296   1.305   4.920
 4762SOL    HW114575   4.207   1.302   4.874
 4762SOL    HW214576   4.314   1.398   4.952
 4763SOL     OW14577   5.293   1.520   4.431
 4763SOL    HW114578   5.249   1.493   4.517
 4763SOL    HW214579   5.224   1.528   4.359
 4764SOL     OW14580   4.859   0.707   4.413
 4764SOL    HW114581   4.911   0.792   4.399
 4764SOL    HW214582   4.807   0.713   4.498
 4765SOL     OW14583   5.476   0.609   3.945
 4765SOL    HW114584   5.459   0.602   3.847
 4765SOL    HW214585   5.450   0.523   3.990
 4766SOL     OW14586   4.457   1.137   4.769
 4766SOL    HW114587   4.393   1.174   4.836
 4766SOL    HW214588   4.504   1.212   4.723
 4767SOL     OW14589   4.601   0.754   5.550
 4767SOL    HW114590   4.590   0.806   5.634
 4767SOL    HW214591   4.620   0.816   5.474
 4768SOL     OW14592   4.406   0.993   4.372
 4768SOL    HW114593   4.478   0.987   4.442
 4768SOL    HW214594   4.333   1.052   4.406
 4769SOL     OW14595   4.443   1.158   5.550
 4769SOL    HW114596   4.490   1.239   5.583
 4769SOL    HW214597   4.355   1.185   5.510
 4770SOL     OW14598   4.053   1.416   4.789
 4770SOL    HW114599   3.975   1.371   4.746
 4770SOL    HW214600   4.102   1.470   4.721
 4771SOL     OW14601   5.180   1.504   5.087
 4771SOL    HW114602   5.238   1.585   5.094
 4771SOL    HW214603   5.106   1.509   5.154
 4772SOL     OW14604   4.173   0.395   5.199
 4772SOL    HW114605   4.257   0.342   5.208
 4772SOL    HW214606   4.094   0.335   5.214
 4773SOL     OW14607   5.334   0.443   4.460
 4773SOL    HW114608   5.258   0.460   4.397
 4773SOL    HW214609   5.356   0.527   4.509
 4774SOL     OW14610   3.947   1.717   4.193
 4774SOL    HW114611   3.967   1.793   4.254
 4774SOL    HW214612   4.023   1.706   4.128
 4775SOL     OW14613   4.861   1.337   5.421
 4775SOL    HW114614   4.912   1.337   5.508
 4775SOL    HW214615   4.806   1.254   5.415
 4776SOL     OW14616   3.960   1.446   4.258
 4776SOL    HW114617   3.943   1.544   4.259
 4776SOL    HW214618   3.903   1.402   4.327
 4777SOL     OW14619   4.001   1.091   4.624
 4777SOL    HW114620   3.999   0.996   4.655
 4777SOL    HW214621   3.939   1.146   4.679
 4778SOL     OW14622   4.312   1.799   5.147
 4778SOL    HW114623   4.230   1.774   5.199
 4778SOL    HW214624   4.345   1.888   5.179
 4779SOL     OW14625   4.301   0.991   3.872
 4779SOL    HW114626   4.349   1.035   3.797
 4779SOL    HW214627   4.343   1.018   3.959
 4780SOL     OW14628   5.370   0.103   5.229
 4780SOL    HW114629   5.292   0.124   5.170
 4780SOL    HW214630   5.357   0.148   5.318
 4781SOL     OW14631   3.841   0.670   4.290
 4781SOL    HW114632   3.815   0.575   4.309
 4781SOL    HW214633   3.836   0.723   4.374
 4782SOL     OW14634   5.569   1.754   4.056
 4782SOL    HW114635   5.639   1.728   4.123
 4782SOL    HW214636   5.580   1.850   4.031
 4783SOL     OW14637   3.755   1.586   3.844
 4783SOL    HW114638   3.739   1.489   3.863
 4783SOL    HW214639   3.735   1.639   3.927
 4784SOL     OW14640   5.422   0.922   4.372
 4784SOL    HW114641   5.500   0.864   4.346
 4784SOL    HW214642   5.394   0.978   4.294
 4785SOL     OW14643   5.372   1.104   4.161
 4785SOL    HW114644   5.460   1.100   4.114
 4785SOL    HW214645   5.375   1.173   4.233
 4786SOL     OW14646   3.850   0.746   5.305
 4786SOL    HW114647   3.945   0.777   5.307
 4786SOL    HW214648   3.789   0.826   5.303
 4787SOL     OW14649   4.338   1.394   4.455
 4787SOL    HW114650   4.293   1.305   4.467
 4787SOL    HW214651   4.325   1.426   4.361
 4788SOL     OW14652   5.007   1.231   5.143
 4788SOL    HW114653   5.033   1.160   5.078
 4788SOL    HW214654   5.069   1.228   5.222
 4789SOL     OW14655   4.548   0.036   4.264
 4789SOL    HW114656   4.591   0.121   4.231
 4789SOL    HW214657   4.449   0.043   4.254
 4790SOL     OW14658   3.915   0.957   5.006
 4790SOL    HW114659   4.006   0.918   4.993
 4790SOL    HW214660   3.849   0.908   4.949
 4791SOL     OW14661   5.256   1.007   3.929
 4791SOL    HW114662   5.183   0.945   3.957
 4791SOL    HW214663   5.302   1.044   4.009
 4792SOL     OW14664   4.897   1.815   5.346
 4792SOL    HW114665   4.909   1.886   5.276
 4792SOL    HW214666   4.923   1.726   5.308
 4793SOL     OW14667   4.062   0.273   5.539
 4793SOL    HW114668   4.120   0.340   5.585
 4793SOL    HW214669   3.968   0.282   5.573
 4794SOL     OW14670   5.189   1.421   4.665
 4794SOL    HW114671   5.124   1.441   4.738
 4794SOL    HW214672   5.180   1.325   4.638
 4795SOL     OW14673   5.369   1.762   4.296
 4795SOL    HW114674   5.350   1.729   4.204
 4795SOL    HW214675   5.353   1.688   4.362
 4796SOL     OW14676   4.314   0.716   3.999
 4796SOL    HW114677   4.319   0.804   3.952
 4796SOL    HW214678   4.245   0.720   4.071
 4797SOL     OW14679   5.021   0.376   4.654
 4797SOL    HW114680   4.929   0.335   4.653
 4797SOL    HW214681   5.081   0.321   4.711
 4798SOL     OW14682   5.305   1.674   4.034
 4798SOL    HW114683   5.403   1.697   4.030
 4798SOL    HW214684   5.271   1.658   3.941
 4799SOL     OW14685   4.534   0.609   5.181
 4799SOL    HW114686   4.501   0.589   5.273
 4799SOL    HW214687   4.485   0.551   5.115
 4800SOL     OW14688   5.113   0.468   5.398
 4800SOL    HW114689   5.116   0.523   5.481
 4800SOL    HW214690   5.174   0.389   5.407
 4801SOL     OW14691   4.675   0.891   5.314
 4801SOL    HW114692   4.733   0.820   5.273
 4801SOL    HW214693   4.620   0.934   5.242
 4802SOL     OW14694   4.711   0.390   4.962
 4802SOL    HW114695   4.644   0.443   5.014
 4802SOL    HW214696   4.664   0.333   4.894
 4803SOL     OW14697   4.777   0.701   4.146
 4803SOL    HW114698   4.800   0.698   4.243
 4803SOL    HW214699   4.689   0.655   4.132
 4804SOL     OW14700   3.814   0.834   4.507
 4804SOL    HW114701   3.899   0.818   4.557
 4804SOL    HW214702   3.765   0.911   4.547
 4805SOL     OW14703   3.850   1.879   5.316
 4805SOL    HW114704   3.859   1.853   5.412
 4805SOL    HW214705   3.767   1.837   5.279
 4806SOL     OW14706   4.608   0.358   3.927
 4806SOL    HW114707   4.658   0.417   3.863
 4806SOL    HW214708   4.568   0.281   3.878
 4807SOL     OW14709   5.415   0.574   5.549
 4807SOL    HW114710   5.378   0.657   5.505
 4807SOL    HW214711   5.440   0.508   5.478
 4808SOL     OW14712   5.103   1.143   4.253
 4808SOL    HW114713   5.189   1.130   4.204
 4808SOL    HW214714   5.048   1.212   4.206
 4809SOL     OW14715   4.287   0.237   4.623
 4809SOL    HW114716   4.277   0.246   4.722
 4809SOL    HW214717   4.283   0.327   4.580
 4810SOL     OW14718   4.715   1.447   4.186
 4810SOL    HW114719   4.688   1.528   4.134
 4810SOL    HW214720   4.695   1.460   4.283
 4811SOL     OW14721   4.079   1.816   4.601
 4811SOL    HW114722   4.124   1.727   4.606
 4811SOL    HW214723   4.145   1.888   4.620
 4812SOL     OW14724   5.527   1.055   4.595
 4812SOL    HW114725   5.477   1.025   4.514
 4812SOL    HW214726   5.464   1.062   4.672
 4813SOL     OW14727   4.948   1.536   5.238
 4813SOL    HW114728   4.938   1.461   5.303
 4813SOL    HW214729   4.876   1.528   5.168
 4814SOL     OW14730   4.040   0.962   3.982
 4814SOL    HW114731   4.129   0.982   3.941
 4814SOL    HW214732   4.005   0.876   3.946
 4815SOL     OW14733   5.211   0.758   4.446
 4815SOL    HW114734   5.205   0.713   4.535
 4815SOL    HW214735   5.292   0.816   4.443
 4816SOL     OW14736   4.193   1.270   5.460
 4816SOL    HW114737   4.167   1.276   5.363
 4816SOL    HW214738   4.110   1.263   5.516
 4817SOL     OW14739   4.848   1.776   3.948
 4817SOL    HW114740   4.767   1.741   3.994
 4817SOL    HW214741   4.877   1.710   3.878
 4818SOL     OW14742   3.922   0.273   5.230
 4818SOL    HW114743   3.851   0.342   5.219
 4818SOL    HW214744   3.921   0.239   5.324
 4819SOL     OW14745   5.347   1.384   3.811
 4819SOL    HW114746   5.309   1.476   3.798
 4819SOL    HW214747   5.277   1.316   3.792
 4820SOL     OW14748   4.187   1.735   4.040
 4820SOL    HW114749   4.230   1.796   4.107
 4820SOL    HW214750   4.256   1.697   3.980
 4821SOL     OW14751   5.143   0.152   4.142
 4821SOL    HW114752   5.118   0.106   4.057
 4821SOL    HW214753   5.241   0.138   4.160
 4822SOL     OW14754   3.982   1.791   4.945
 4822SOL    HW114755   4.031   1.716   4.990
 4822SOL    HW214756   3.966   1.767   4.850
 4823SOL     OW14757   4.662   1.704   4.618
 4823SOL    HW114758   4.745   1.659   4.650
 4823SOL    HW214759   4.622   1.650   4.543
 4824SOL     OW14760   4.119   0.685   4.197
 4824SOL    HW114761   4.136   0.588   4.211
 4824SOL    HW214762   4.023   0.705   4.215
 4825SOL     OW14763   5.256   0.223   5.458
 4825SOL    HW114764   5.252   0.259   5.551
 4825SOL    HW214765   5.195   0.144   5.450
 4826SOL     OW14766   4.369   0.122   3.832
 4826SOL    HW114767   4.442   0.058   3.857
 4826SOL    HW214768   4.311   0.080   3.762
 4827SOL     OW14769   4.480   0.266   5.482
 4827SOL    HW114770   4.556   0.201   5.478
 4827SOL    HW214771   4.481   0.314   5.570
 4828SOL     OW14772   4.597   1.515   4.917
 4828SOL    HW114773   4.576   1.476   4.827
 4828SOL    HW214774   4.667   1.460   4.962
 4829SOL     OW14775   5.057   0.590   5.158
 4829SOL    HW114776   5.088   0.554   5.246
 4829SOL    HW214777   5.093   0.682   5.144
 4830SOL     OW14778   4.545   1.382   4.669
 4830SOL    HW114779   4.636   1.373   4.628
 4830SOL    HW214780   4.477   1.394   4.596
 4831SOL     OW14781   4.654   0.521   4.614
 4831SOL    HW114782   4.626   0.506   4.519
 4831SOL    HW214783   4.692   0.437   4.651
 4832SOL     OW14784   4.274   0.059   4.211
 4832SOL    HW114785   4.197   0.050   4.274
 4832SOL    HW214786   4.262   0.141   4.155
 4833SOL     OW14787   5.148   1.202   3.765
 4833SOL    HW114788   5.182   1.125   3.820
 4833SOL    HW214789   5.059   1.232   3.801
 4834SOL     OW14790   4.022   0.044   3.937
 4834SOL    HW114791   4.078   0.119   3.901
 4834SOL    HW214792   4.082  -0.030   3.968
 4835SOL     OW14793   4.676   0.264   4.177
 4835SOL    HW114794   4.646   0.298   4.088
 4835SOL    HW214795   4.775   0.278   4.186
 4836SOL     OW14796   4.801   0.695   5.174
 4836SOL    HW114797   4.721   0.636   5.188
 4836SOL    HW214798   4.884   0.640   5.176
 4837SOL     OW14799   4.940   1.572   4.518
 4837SOL    HW114800   4.953   1.642   4.447
 4837SOL    HW214801   5.012   1.582   4.587
 4838SOL     OW14802   4.195   1.155   4.446
 4838SOL    HW114803   4.131   1.133   4.519
 4838SOL    HW214804   4.148   1.146   4.357
 4839SOL     OW14805   4.981   1.790   4.337
 4839SOL    HW114806   5.035   1.853   4.280
 4839SOL    HW214807   4.907   1.841   4.380
 4840SOL     OW14808   4.746   0.530   3.761
 4840SOL    HW114809   4.702   0.616   3.737
 4840SOL    HW214810   4.813   0.546   3.833
 4841SOL     OW14811   3.817   0.553   5.113
 4841SOL    HW114812   3.912   0.552   5.080
 4841SOL    HW214813   3.808   0.623   5.184
 4842SOL     OW14814   4.286   0.245   4.910
 4842SOL    HW114815   4.319   0.167   4.965
 4842SOL    HW214816   4.188   0.255   4.923
 4843SOL     OW14817   4.590   0.463   4.357
 4843SOL    HW114818   4.542   0.524   4.294
 4843SOL    HW214819   4.620   0.381   4.308
 4844SOL     OW14820   4.710   0.041   4.493
 4844SOL    HW114821   4.651   0.037   4.413
 4844SOL    HW214822   4.711  -0.047   4.539
 4845SOL     OW14823   5.175   1.158   4.584
 4845SOL    HW114824   5.097   1.096   4.585
 4845SOL    HW214825   5.207   1.170   4.490
 4846SOL     OW14826   5.189   0.617   4.689
 4846SOL    HW114827   5.129   0.537   4.683
 4846SOL    HW214828   5.252   0.606   4.766
 4847SOL     OW14829   5.576   0.809   4.097
 4847SOL    HW114830   5.624   0.759   4.169
 4847SOL    HW214831   5.539   0.745   4.030
 4848SOL     OW14832   4.211   1.422   3.877
 4848SOL    HW114833   4.129   1.396   3.929
 4848SOL    HW214834   4.214   1.371   3.791
 4849SOL     OW14835   5.392   1.270   4.369
 4849SOL    HW114836   5.491   1.266   4.381
 4849SOL    HW214837   5.360   1.363   4.386
 4850SOL     OW14838   5.111   0.578   3.793
 4850SOL    HW114839   5.049   0.554   3.868
 4850SOL    HW214840   5.205   0.562   3.821
 4851SOL     OW14841   4.246   0.266   4.030
 4851SOL    HW114842   4.300   0.215   3.964
 4851SOL    HW214843   4.217   0.353   3.990
 4852SOL     OW14844   5.474   1.235   5.266
 4852SOL    HW114845   5.565   1.194   5.254
 4852SOL    HW214846   5.484   1.327   5.303
 4853SOL     OW14847   4.771   1.349   5.060
 4853SOL    HW114848   4.689   1.319   5.109
 4853SOL    HW214849   4.852   1.308   5.103
 4854SOL     OW14850   5.330   1.631   5.377
 4854SOL    HW114851   5.320   1.669   5.285
 4854SOL    HW214852   5.413   1.575   5.382
 4855SOL     OW14853   4.868   1.231   4.829
 4855SOL    HW114854   4.807   1.263   4.901
 4855SOL    HW214855   4.834   1.261   4.740
 4856SOL     OW14856   5.350   1.097   4.803
 4856SOL    HW114857   5.344   1.163   4.878
 4856SOL    HW214858   5.275   1.115   4.738
 4857SOL     OW14859   4.621   0.100   5.117
 4857SOL    HW114860   4.647   0.060   5.030
 4857SOL    HW214861   4.700   0.142   5.160
 4858SOL     OW14862   4.708   1.111   5.463
 4858SOL    HW114863   4.614   1.129   5.493
 4858SOL    HW214864   4.708   1.030   5.404
 4859SOL     OW14865   4.440   1.059   4.100
 4859SOL    HW114866   4.422   1.038   4.197
 4859SOL    HW214867   4.518   1.005   4.068
 4860SOL     OW14868   4.153   0.820   4.980
 4860SOL    HW114869   4.226   0.832   5.047
 4860SOL    HW214870   4.113   0.729   4.989
 4861SOL     OW14871   4.984   0.383   4.998
 4861SOL    HW114872   5.012   0.466   5.047
 4861SOL    HW214873   4.889   0.393   4.968
 4862SOL     OW14874   3.801   1.570   5.079
 4862SOL    HW114875   3.766   1.640   5.017
 4862SOL    HW214876   3.901   1.567   5.073
 4863SOL     OW14877   4.052   1.129   4.210
 4863SOL    HW114878   4.056   1.211   4.153
 4863SOL    HW214879   4.054   1.047   4.152
 4864SOL     OW14880   4.284   0.519   4.575
 4864SOL    HW114881   4.289   0.582   4.497
 4864SOL    HW214882   4.346   0.550   4.647
 4865SOL     OW14883   4.968   1.358   4.118
 4865SOL    HW114884   5.030   1.429   4.151
 4865SOL    HW214885   4.875   1.378   4.148
 4866SOL     OW14886   5.020   1.465   4.870
 4866SOL    HW114887   5.075   1.472   4.953
 4866SOL    HW214888   4.966   1.381   4.873
 4867SOL     OW14889   5.290   0.623   4.211
 4867SOL    HW114890   5.244   0.672   4.285
 4867SOL    HW214891   5.336   0.689   4.151
 4868SOL     OW14892   4.072   1.532   5.030
 4868SOL    HW114893   4.057   1.484   4.943
 4868SOL    HW214894   4.170   1.546   5.044
 4869SOL     OW14895   4.148   0.742   5.325
 4869SOL    HW114896   4.213   0.789   5.265
 4869SOL    HW214897   4.185   0.652   5.350
 4870SOL     OW14898   5.330   0.787   5.407
 4870SOL    HW114899   5.239   0.830   5.404
 4870SOL    HW214900   5.387   0.824   5.333
 4871SOL     OW14901   4.715   0.119   5.502
 4871SOL    HW114902   4.775   0.199   5.494
 4871SOL    HW214903   4.714   0.070   5.415
 4872SOL     OW14904   4.185   0.046   5.466
 4872SOL    HW114905   4.200   0.029   5.369
 4872SOL    HW214906   4.142   0.135   5.478
 4873SOL     OW14907   4.311   0.875   4.759
 4873SOL    HW114908   4.349   0.967   4.760
 4873SOL    HW214909   4.251   0.863   4.838
 4874SOL     OW14910   5.060   0.856   4.741
 4874SOL    HW114911   4.967   0.842   4.707
 4874SOL    HW214912   5.113   0.772   4.729
 4875SOL     OW14913   4.918   0.527   3.986
 4875SOL    HW114914   4.932   0.446   4.043
 4875SOL    HW214915   4.875   0.599   4.041
 4876SOL     OW14916   4.017   0.233   4.964
 4876SOL    HW114917   3.981   0.229   5.057
 4876SOL    HW214918   4.025   0.140   4.927
 4877SOL     OW14919   3.779   1.310   4.994
 4877SOL    HW114920   3.809   1.247   5.066
 4877SOL    HW214921   3.780   1.404   5.029
 4878SOL     OW14922   4.443   0.629   4.766
 4878SOL    HW114923   4.523   0.613   4.709
 4878SOL    HW214924   4.409   0.722   4.751
 4879SOL     OW14925   5.465   0.966   5.561
 4879SOL    HW114926   5.417   0.892   5.515
 4879SOL    HW214927   5.411   0.998   5.639
 4880SOL     OW14928   4.038   0.052   4.372
 4880SOL    HW114929   4.033   0.148   4.399
 4880SOL    HW214930   3.947   0.011   4.378
 4881SOL     OW14931   5.341   0.395   4.077
 4881SOL    HW114932   5.367   0.320   4.138
 4881SOL    HW214933   5.313   0.474   4.131
 4882SOL     OW14934   4.753   0.763   4.681
 4882SOL    HW114935   4.741   0.782   4.778
 4882SOL    HW214936   4.722   0.670   4.661
 4883SOL     OW14937   4.702   1.557   5.438
 4883SOL    HW114938   4.683   1.606   5.353
 4883SOL    HW214939   4.754   1.474   5.418
 4884SOL     OW14940   5.568   1.492   5.320
 4884SOL    HW114941   5.592   1.526   5.229
 4884SOL    HW214942   5.647   1.501   5.381
 4885SOL     OW14943   4.076   0.919   5.522
 4885SOL    HW114944   4.148   0.938   5.588
 4885SOL    HW214945   4.108   0.851   5.456
 4886SOL     OW14946   5.238   0.277   3.852
 4886SOL    HW114947   5.162   0.216   3.877
 4886SOL    HW214948   5.269   0.326   3.933
 4887SOL     OW14949   5.008   0.827   3.745
 4887SOL    HW114950   5.047   0.735   3.754
 4887SOL    HW214951   5.039   0.868   3.660
 4888SOL     OW14952   4.797   1.342   4.582
 4888SOL    HW114953   4.803   1.263   4.520
 4888SOL    HW214954   4.853   1.417   4.546
 4889SOL     OW14955   4.039   0.810   4.666
 4889SOL    HW114956   4.136   0.836   4.661
 4889SOL    HW214957   4.032   0.717   4.702
 4890SOL     OW14958   4.072   0.540   4.739
 4890SOL    HW114959   4.011   0.463   4.725
 4890SOL    HW214960   4.148   0.535   4.674
 4891SOL     OW14961   4.860   0.365   5.428
 4891SOL    HW114962   4.809   0.426   5.488
 4891SOL    HW214963   4.951   0.401   5.413
 4892SOL     OW14964   4.855   0.209   5.209
 4892SOL    HW114965   4.850   0.268   5.290
 4892SOL    HW214966   4.865   0.265   5.127
 4893SOL     OW14967   3.725   1.310   3.919
 4893SOL    HW114968   3.635   1.332   3.881
 4893SOL    HW214969   3.725   1.216   3.953
 4894SOL     OW14970   3.817   1.779   4.670
 4894SOL    HW114971   3.780   1.699   4.623
 4894SOL    HW214972   3.910   1.796   4.638
 4895SOL     OW14973   4.214   1.575   4.626
 4895SOL    HW114974   4.285   1.640   4.653
 4895SOL    HW214975   4.253   1.508   4.563
 4896SOL     OW14976   4.689   0.793   4.943
 4896SOL    HW114977   4.748   0.772   5.021
 4896SOL    HW214978   4.598   0.753   4.959
 4897SOL     OW14979   3.755   0.550   4.839
 4897SOL    HW114980   3.813   0.486   4.788
 4897SOL    HW214981   3.788   0.557   4.933
 4898SOL     OW14982   3.911   0.526   5.454
 4898SOL    HW114983   3.989   0.489   5.404
 4898SOL    HW214984   3.876   0.607   5.407
 4899SOL     OW14985   5.104   0.934   5.375
 4899SOL    HW114986   5.127   1.032   5.374
 4899SOL    HW214987   5.096   0.901   5.281
 4900SOL     OW14988   4.540   0.579   4.090
 4900SOL    HW114989   4.551   0.497   4.032
 4900SOL    HW214990   4.461   0.631   4.059
 4901SOL     OW14991   5.372   0.604   4.896
 4901SOL    HW114992   5.358   0.545   4.976
 4901SOL    HW214993   5.462   0.585   4.857
 4902SOL     OW14994   3.959   1.543   5.449
 4902SOL    HW114995   3.939   1.616   5.514
 4902SOL    HW214996   3.966   1.456   5.498
 4903SOL     OW14997   4.425   0.471   4.984
 4903SOL    HW114998   4.361   0.395   4.974
 4903SOL    HW214999   4.422   0.528   4.901
 4904SOL     OW15000   4.639   1.679   5.197
 4904SOL    HW115001   4.611   1.631   5.114
 4904SOL    HW215002   4.641   1.777   5.180
 4905SOL     OW15003   4.177   0.495   3.898
 4905SOL    HW115004   4.242   0.566   3.926
 4905SOL    HW215005   4.086   0.534   3.890
 4906SOL     OW15006   3.861   1.140   5.197
 4906SOL    HW115007   3.866   1.101   5.290
 4906SOL    HW215008   3.883   1.069   5.130
 4907SOL     OW15009   5.035   1.042   4.937
 4907SOL    HW115010   5.057   0.973   4.868
 4907SOL    HW215011   4.972   1.110   4.899
 4908SOL     OW15012   5.045   0.856   4.018
 4908SOL    HW115013   4.970   0.830   4.078
 4908SOL    HW215014   5.016   0.845   3.923
 4909SOL     OW15015   5.505   1.718   4.883
 4909SOL    HW115016   5.569   1.754   4.814
 4909SOL    HW215017   5.473   1.628   4.853
 4910SOL     OW15018   4.964   1.732   4.820
 4910SOL    HW115019   5.051   1.765   4.782
 4910SOL    HW215020   4.973   1.636   4.847
 4911SOL     OW15021   3.814   1.263   4.731
 4911SOL    HW115022   3.796   1.279   4.828
 4911SOL    HW215023   3.744   1.202   4.694
 4912SOL     OW15024   4.407   1.682   5.472
 4912SOL    HW115025   4.340   1.756   5.461
 4912SOL    HW215026   4.482   1.696   5.407
 4913SOL     OW15027   5.415   0.141   4.198
 4913SOL    HW115028   5.515   0.134   4.191
 4913SOL    HW215029   5.385   0.094   4.281
 4914SOL     OW15030   5.121   1.572   4.216
 4914SOL    HW115031   5.182   1.604   4.143
 4914SOL    HW215032   5.064   1.647   4.248
 4915SOL     OW15033   3.878   1.788   5.569
 4915SOL    HW115034   3.817   1.724   5.616
 4915SOL    HW215035   3.935   1.835   5.637
 4916SOL     OW15036   5.007   0.933   4.390
 4916SOL    HW115037   5.083   0.870   4.407
 4916SOL    HW215038   5.040   1.008   4.333
 4917SOL     OW15039   4.516   1.282   5.145
 4917SOL    HW115040   4.488   1.327   5.230
 4917SOL    HW215041   4.444   1.292   5.077
 4918SOL     OW15042   4.390   1.626   3.879
 4918SOL    HW115043   4.408   1.645   3.782
 4918SOL    HW215044   4.333   1.544   3.886
 4919SOL     OW15045   5.337   1.731   5.109
 4919SOL    HW115046   5.394   1.731   5.027
 4919SOL    HW215047   5.324   1.824   5.141
 4920SOL     OW15048   5.590   0.147   4.694
 4920SOL    HW115049   5.622   0.069   4.640
 4920SOL    HW215050   5.501   0.177   4.661
 4921SOL     OW15051   3.982   0.312   4.447
 4921SOL    HW115052   3.899   0.353   4.410
 4921SOL    HW215053   3.980   0.316   4.547
 4922SOL     OW15054   4.932   1.596   3.758
 4922SOL    HW115055   4.923   1.502   3.792
 4922SOL    HW215056   4.863   1.613   3.688
 4923SOL     OW15057   4.547   1.013   5.106
 4923SOL    HW115058   4.597   0.998   5.020
 4923SOL    HW215059   4.539   1.111   5.123
 4924SOL     OW15060   4.645   0.911   4.010
 4924SOL    HW115061   4.705   0.948   3.940
 4924SOL    HW215062   4.693   0.841   4.062
 4925SOL     OW15063   5.209   1.637   3.770
 4925SOL    HW115064   5.111   1.621   3.758
 4925SOL    HW215065   5.253   1.642   3.680
 4926SOL     OW15066   4.088   1.304   5.213
 4926SOL    HW115067   4.079   1.385   5.154
 4926SOL    HW215068   4.008   1.246   5.201
 4927SOL     OW15069   5.339   1.289   5.012
 4927SOL    HW115070   5.394   1.262   5.090
 4927SOL    HW215071   5.271   1.356   5.040
 4928SOL     OW15072   4.794   1.109   4.446
 4928SOL    HW115073   4.715   1.059   4.483
 4928SOL    HW215074   4.863   1.043   4.415
 4929SOL     OW15075   4.781   0.243   4.660
 4929SOL    HW115076   4.772   0.175   4.588
 4929SOL    HW215077   4.700   0.242   4.718
 4930SOL     OW15078   4.330   1.486   4.201
 4930SOL    HW115079   4.384   1.431   4.137
 4930SOL    HW215080   4.252   1.527   4.153
 4931SOL     OW15081   5.465   0.411   5.098
 4931SOL    HW115082   5.546   0.469   5.090
 4931SOL    HW215083   5.479   0.327   5.046
 4932SOL     OW15084   3.977   1.348   4.012
 4932SOL    HW115085   3.881   1.339   3.984
 4932SOL    HW215086   3.981   1.390   4.103
 4933SOL     OW15087   3.848   1.051   5.455
 4933SOL    HW115088   3.765   1.021   5.501
 4933SOL    HW215089   3.926   0.998   5.489
 4934SOL     OW15090   4.398   0.237   5.222
 4934SOL    HW115091   4.469   0.182   5.181
 4934SOL    HW215092   4.418   0.250   5.319
 4935SOL     OW15093   3.813   0.306   3.736
 4935SOL    HW115094   3.726   0.287   3.781
 4935SOL    HW215095   3.807   0.392   3.686
 4936SOL     OW15096   5.142   0.855   5.113
 4936SOL    HW115097   5.086   0.918   5.060
 4936SOL    HW215098   5.236   0.855   5.077
 4937SOL     OW15099   3.818   0.165   4.088
 4937SOL    HW115100   3.787   0.220   4.009
 4937SOL    HW215101   3.900   0.114   4.062
 4938SOL     OW15102   4.904   1.333   3.847
 4938SOL    HW115103   4.808   1.304   3.839
 4938SOL    HW215104   4.931   1.336   3.943
 4939SOL     OW15105   4.356   0.826   5.158
 4939SOL    HW115106   4.412   0.907   5.146
 4939SOL    HW215107   4.415   0.746   5.173
 4940SOL     OW15108   5.211   1.801   4.716
 4940SOL    HW115109   5.234   1.870   4.648
 4940SOL    HW215110   5.294   1.757   4.749
 4941SOL     OW15111   4.442   0.566   5.427
 4941SOL    HW115112   4.489   0.632   5.485
 4941SOL    HW215113   4.451   0.474   5.467
 4942SOL     OW15114   5.198   1.193   5.352
 4942SOL    HW115115   5.181   1.212   5.449
 4942SOL    HW215116   5.293   1.212   5.330
 4943SOL     OW15117   4.086   1.736   5.291
 4943SOL    HW115118   4.003   1.791   5.279
 4943SOL    HW215119   4.062   1.649   5.334
 4944SOL     OW15120   5.387   0.875   4.976
 4944SOL    HW115121   5.383   0.785   4.934
 4944SOL    HW215122   5.373   0.945   4.906
 4945SOL     OW15123   4.944   0.326   4.184
 4945SOL    HW115124   5.017   0.259   4.168
 4945SOL    HW215125   4.968   0.384   4.262
 4946SOL     OW15126   4.307   0.730   4.395
 4946SOL    HW115127   4.349   0.820   4.386
 4946SOL    HW215128   4.239   0.718   4.323
 4947SOL     OW15129   5.459   0.378   5.368
 4947SOL    HW115130   5.454   0.390   5.269
 4947SOL    HW215131   5.386   0.318   5.398
 4948SOL     OW15132   5.482   0.922   5.226
 4948SOL    HW115133   5.466   1.017   5.253
 4948SOL    HW215134   5.452   0.909   5.132
 4949SOL     OW15135   4.594   1.361   3.777
 4949SOL    HW115136   4.553   1.382   3.865
 4949SOL    HW215137   4.605   1.445   3.725
 4950SOL     OW15138   4.391   1.777   4.662
 4950SOL    HW115139   4.367   1.872   4.645
 4950SOL    HW215140   4.490   1.764   4.652
 4951SOL     OW15141   4.593   0.974   4.580
 4951SOL    HW115142   4.646   0.897   4.615
 4951SOL    HW215143   4.547   1.021   4.655
 4952SOL     OW15144   4.800   0.991   3.807
 4952SOL    HW115145   4.772   1.046   3.728
 4952SOL    HW215146   4.877   0.933   3.781
 4953SOL     OW15147   5.557   1.559   4.569
 4953SOL    HW115148   5.481   1.546   4.506
 4953SOL    HW215149   5.550   1.493   4.644
 4954SOL     OW15150   3.941   1.289   5.573
 4954SOL    HW115151   3.905   1.208   5.527
 4954SOL    HW215152   3.883   1.311   5.652
 4955SOL     OW15153   3.819   1.226   4.386
 4955SOL    HW115154   3.831   1.185   4.476
 4955SOL    HW215155   3.886   1.187   4.322
 4956SOL     OW15156   4.407   1.416   5.360
 4956SOL    HW115157   4.329   1.365   5.395
 4956SOL    HW215158   4.406   1.508   5.398
 4957SOL     OW15159   5.527   0.185   4.960
 4957SOL    HW115160   5.521   0.094   5.003
 4957SOL    HW215161   5.556   0.174   4.865
 4958SOL     OW15162   4.150   0.425   4.249
 4958SOL    HW115163   4.187   0.357   4.186
 4958SOL    HW215164   4.103   0.379   4.324
 4959SOL     OW15165   5.415   1.473   4.813
 4959SOL    HW115166   5.335   1.460   4.755
 4959SOL    HW215167   5.415   1.406   4.887
 4960SOL     OW15168   4.065   0.564   5.014
 4960SOL    HW115169   4.118   0.503   5.073
 4960SOL    HW215170   4.082   0.540   4.918
 4961SOL     OW15171   4.555   1.579   4.401
 4961SOL    HW115172   4.535   1.645   4.329
 4961SOL    HW215173   4.479   1.515   4.410
 4962SOL     OW15174   5.167   0.246   4.842
 4962SOL    HW115175   5.208   0.176   4.901
 4962SOL    HW215176   5.097   0.296   4.893
 4963SOL     OW15177   4.747   0.004   4.885
 4963SOL    HW115178   4.690  -0.048   4.821
 4963SOL    HW215179   4.822   0.048   4.836
 4964SOL     OW15180   4.500   1.331   4.048
 4964SOL    HW115181   4.475   1.234   4.060
 4964SOL    HW215182   4.584   1.349   4.099
 4965SOL     OW15183   4.347   1.563   5.014
 4965SOL    HW115184   4.342   1.650   5.063
 4965SOL    HW215185   4.438   1.551   4.975
 4966SOL     OW15186   5.068   0.061   3.897
 4966SOL    HW115187   5.127  -0.017   3.872
 4966SOL    HW215188   4.976   0.027   3.918
 4967SOL     OW15189   5.014   0.474   4.400
 4967SOL    HW115190   4.960   0.558   4.401
 4967SOL    HW215191   5.019   0.436   4.493
 4968SOL     OW15192   5.337   0.225   4.622
 4968SOL    HW115193   5.277   0.235   4.701
 4968SOL    HW215194   5.333   0.307   4.565
 4969SOL     OW15195   3.765   1.056   4.033
 4969SOL    HW115196   3.863   1.055   4.014
 4969SOL    HW215197   3.733   0.963   4.052
 4970SOL     OW15198   4.610   1.670   4.061
 4970SOL    HW115199   4.533   1.649   4.000
 4970SOL    HW215200   4.585   1.746   4.121
 4971SOL     OW15201   3.931   0.602   5.722
 4971SOL    HW115202   3.839   0.621   5.757
 4971SOL    HW215203   3.926   0.589   5.623
 4972SOL     OW15204   5.505   0.595   5.806
 4972SOL    HW115205   5.480   0.593   5.709
 4972SOL    HW215206   5.439   0.541   5.858
 4973SOL     OW15207   3.957   1.750   0.045
 4973SOL    HW115208   3.965   1.820   0.116
 4973SOL    HW215209   4.046   1.738   0.001
 4974SOL     OW15210   4.309   0.986   5.740
 4974SOL    HW115211   4.369   1.030   5.672
 4974SOL    HW215212   4.346   1.002   5.831
 4975SOL     OW15213   5.514   1.752   5.916
 4975SOL    HW115214   5.545   1.688   5.987
 4975SOL    HW215215   5.583   1.822   5.901
 4976SOL     OW15216   3.748   1.598   5.705
 4976SOL    HW115217   3.740   1.501   5.726
 4976SOL    HW215218   3.707   1.652   5.779
 4977SOL     OW15219   5.414   0.889   0.181
 4977SOL    HW115220   5.502   0.909   0.225
 4977SOL    HW215221   5.401   0.951   0.103
 4978SOL     OW15222   5.400   1.092   5.988
 4978SOL    HW115223   5.494   1.097   5.952
 4978SOL    HW215224   5.369   1.184   6.012
 4979SOL     OW15225   5.274   1.014   5.755
 4979SOL    HW115226   5.209   0.938   5.758
 4979SOL    HW215227   5.306   1.033   5.848
 4980SOL     OW15228   4.301   0.721   5.862
 4980SOL    HW115229   4.313   0.809   5.815
 4980SOL    HW215230   4.297   0.737   5.960
 4981SOL     OW15231   4.551   0.392   5.705
 4981SOL    HW115232   4.637   0.436   5.677
 4981SOL    HW215233   4.569   0.328   5.779
 4982SOL     OW15234   4.053   0.976   5.837
 4982SOL    HW115235   4.146   0.987   5.802
 4982SOL    HW215236   4.022   0.883   5.819
 4983SOL     OW15237   4.843   1.745   5.828
 4983SOL    HW115238   4.750   1.717   5.852
 4983SOL    HW215239   4.871   1.701   5.743
 4984SOL     OW15240   5.351   1.393   5.673
 4984SOL    HW115241   5.314   1.486   5.664
 4984SOL    HW215242   5.279   1.327   5.653
 4985SOL     OW15243   4.209   1.767   5.917
 4985SOL    HW115244   4.260   1.824   5.982
 4985SOL    HW215245   4.272   1.720   5.857
 4986SOL     OW15246   4.327   0.076   5.694
 4986SOL    HW115247   4.423   0.046   5.694
 4986SOL    HW215248   4.291   0.071   5.600
 4987SOL     OW15249   5.147   1.213   5.621
 4987SOL    HW115250   5.191   1.139   5.671
 4987SOL    HW215251   5.058   1.233   5.662
 4988SOL     OW15252   4.050   0.026   5.771
 4988SOL    HW115253   4.125   0.066   5.718
 4988SOL    HW215254   4.085  -0.049   5.827
 4989SOL     OW15255   4.758   0.538   5.609
 4989SOL    HW115256   4.708   0.622   5.592
 4989SOL    HW215257   4.822   0.552   5.685
 4990SOL     OW15258   5.628   0.814   5.919
 4990SOL    HW115259   5.685   0.769   5.987
 4990SOL    HW215260   5.570   0.747   5.873
 4991SOL     OW15261   4.212   1.422   5.740
 4991SOL    HW115262   4.136   1.401   5.802
 4991SOL    HW215263   4.205   1.364   5.659
 4992SOL     OW15264   5.448   1.279   0.292
 4992SOL    HW115265   5.522   1.215   0.269
 4992SOL    HW215266   5.403   1.309   0.209
 4993SOL     OW15267   5.119   0.586   5.646
 4993SOL    HW115268   5.050   0.563   5.715
 4993SOL    HW215269   5.203   0.535   5.666
 4994SOL     OW15270   4.279   0.246   5.905
 4994SOL    HW115271   4.278   0.199   5.817
 4994SOL    HW215272   4.235   0.336   5.895
 4995SOL     OW15273   4.136   1.171   0.032
 4995SOL    HW115274   4.078   1.242  -0.008
 4995SOL    HW215275   4.103   1.081   0.004
 4996SOL     OW15276   4.926   0.529   5.830
 4996SOL    HW115277   4.962   0.450   5.880
 4996SOL    HW215278   4.868   0.583   5.891
 4997SOL     OW15279   5.228   0.310   5.709
 4997SOL    HW115280   5.156   0.242   5.725
 4997SOL    HW215281   5.308   0.289   5.765
 4998SOL     OW15282   5.051   0.852   5.632
 4998SOL    HW115283   5.073   0.755   5.637
 4998SOL    HW215284   5.064   0.885   5.538
 4999SOL     OW15285   3.742   1.322   5.770
 4999SOL    HW115286   3.648   1.339   5.741
 4999SOL    HW215287   3.750   1.228   5.805
 5000SOL     OW15288   4.542   0.593   5.888
 5000SOL    HW115289   4.530   0.525   5.816
 5000SOL    HW215290   4.460   0.649   5.896
 5001SOL     OW15291   4.171   0.487   5.784
 5001SOL    HW115292   4.232   0.562   5.811
 5001SOL    HW215293   4.080   0.523   5.767
 5002SOL     OW15294   5.441   0.105   0.084
 5002SOL    HW115295   5.510   0.034   0.091
 5002SOL    HW215296   5.380   0.101   0.163
 5003SOL     OW15297   4.390   1.622   5.744
 5003SOL    HW115298   4.403   1.645   5.648
 5003SOL    HW215299   4.325   1.547   5.752
 5004SOL     OW15300   4.920   1.597   5.615
 5004SOL    HW115301   4.913   1.503   5.650
 5004SOL    HW215302   4.852   1.611   5.543
 5005SOL     OW15303   4.608   0.888   5.783
 5005SOL    HW115304   4.692   0.941   5.767
 5005SOL    HW215305   4.599   0.869   5.881
 5006SOL     OW15306   5.196   1.641   5.620
 5006SOL    HW115307   5.099   1.622   5.606
 5006SOL    HW215308   5.243   1.642   5.532
 5007SOL     OW15309   4.758   1.167   0.304
 5007SOL    HW115310   4.697   1.105   0.353
 5007SOL    HW215311   4.809   1.115   0.234
 5008SOL     OW15312   3.987   1.374   5.905
 5008SOL    HW115313   3.895   1.362   5.868
 5008SOL    HW215314   3.984   1.445   5.976
 5009SOL     OW15315   3.799   0.317   5.602
 5009SOL    HW115316   3.701   0.320   5.621
 5009SOL    HW215317   3.825   0.399   5.550
 5010SOL     OW15318   3.874   0.204   5.861
 5010SOL    HW115319   3.816   0.230   5.784
 5010SOL    HW215320   3.940   0.135   5.831
 5011SOL     OW15321   4.892   1.338   5.709
 5011SOL    HW115322   4.796   1.312   5.695
 5011SOL    HW215323   4.917   1.322   5.805
 5012SOL     OW15324   4.985   0.338   0.029
 5012SOL    HW115325   5.029   0.257   0.068
 5012SOL    HW215326   4.972   0.407   0.100
 5013SOL     OW15327   4.594   1.379   5.632
 5013SOL    HW115328   4.547   1.423   5.708
 5013SOL    HW215329   4.614   1.446   5.561
 5014SOL     OW15330   4.834   1.013   5.695
 5014SOL    HW115331   4.796   1.050   5.609
 5014SOL    HW215332   4.911   0.953   5.674
 5015SOL     OW15333   5.076   0.082   5.721
 5015SOL    HW115334   5.130  -0.002   5.722
 5015SOL    HW215335   4.998   0.072   5.782
 5016SOL     OW15336   3.797   1.073   5.872
 5016SOL    HW115337   3.896   1.070   5.856
 5016SOL    HW215338   3.764   0.981   5.894
 5017SOL     OW15339   4.591   1.659   5.926
 5017SOL    HW115340   4.520   1.650   5.857
 5017SOL    HW215341   4.576   1.742   5.979
 5018SOL     OW15342   3.935   2.480   0.137
 5018SOL    HW115343   3.848   2.462   0.184
 5018SOL    HW215344   3.918   2.509   0.043
 5019SOL     OW15345   3.945   2.145   0.995
 5019SOL    HW115346   3.978   2.110   1.083
 5019SOL    HW215347   3.853   2.111   0.978
 5020SOL     OW15348   3.728   2.260   0.634
 5020SOL    HW115349   3.641   2.279   0.681
 5020SOL    HW215350   3.714   2.186   0.568
 5021SOL     OW15351   4.293   3.168   1.196
 5021SOL    HW115352   4.206   3.167   1.147
 5021SOL    HW215353   4.313   3.260   1.227
 5022SOL     OW15354   5.292   3.379   0.709
 5022SOL    HW115355   5.247   3.354   0.794
 5022SOL    HW215356   5.224   3.387   0.636
 5023SOL     OW15357   4.858   2.569   0.694
 5023SOL    HW115358   4.911   2.653   0.679
 5023SOL    HW215359   4.807   2.576   0.779
 5024SOL     OW15360   5.515   2.463   0.243
 5024SOL    HW115361   5.458   2.495   0.167
 5024SOL    HW215362   5.475   2.379   0.281
 5025SOL     OW15363   4.456   2.998   1.046
 5025SOL    HW115364   4.391   3.036   1.112
 5025SOL    HW215365   4.503   3.073   0.999
 5026SOL     OW15366   4.605   2.618   1.822
 5026SOL    HW115367   4.602   2.687   1.894
 5026SOL    HW215368   4.626   2.662   1.735
 5027SOL     OW15369   4.407   2.858   0.649
 5027SOL    HW115370   4.479   2.850   0.718
 5027SOL    HW215371   4.334   2.916   0.684
 5028SOL     OW15372   4.442   3.028   1.829
 5028SOL    HW115373   4.499   3.100   1.868
 5028SOL    HW215374   4.365   3.069   1.780
 5029SOL     OW15375   4.055   3.276   1.065
 5029SOL    HW115376   3.976   3.233   1.022
 5029SOL    HW215377   4.103   3.332   0.997
 5030SOL     OW15378   5.180   3.365   1.364
 5030SOL    HW115379   5.238   3.446   1.370
 5030SOL    HW215380   5.106   3.372   1.430
 5031SOL     OW15381   4.176   2.248   1.472
 5031SOL    HW115382   4.258   2.190   1.481
 5031SOL    HW215383   4.095   2.194   1.493
 5032SOL     OW15384   5.330   2.300   0.744
 5032SOL    HW115385   5.262   2.321   0.674
 5032SOL    HW215386   5.336   2.375   0.809
 5033SOL     OW15387   3.951   3.572   0.481
 5033SOL    HW115388   3.967   3.652   0.539
 5033SOL    HW215389   4.030   3.558   0.421
 5034SOL     OW15390   4.866   3.197   1.695
 5034SOL    HW115391   4.910   3.196   1.785
 5034SOL    HW215392   4.810   3.116   1.685
 5035SOL     OW15393   3.937   3.301   0.524
 5035SOL    HW115394   3.933   3.401   0.530
 5035SOL    HW215395   3.886   3.261   0.600
 5036SOL     OW15396   4.002   2.951   0.901
 5036SOL    HW115397   3.999   2.857   0.934
 5036SOL    HW215398   3.940   3.007   0.956
 5037SOL     OW15399   4.311   3.663   1.420
 5037SOL    HW115400   4.230   3.640   1.474
 5037SOL    HW215401   4.349   3.750   1.452
 5038SOL     OW15402   4.318   2.824   0.145
 5038SOL    HW115403   4.262   2.893   0.100
 5038SOL    HW215404   4.367   2.865   0.222
 5039SOL     OW15405   5.320   1.987   1.468
 5039SOL    HW115406   5.350   2.063   1.410
 5039SOL    HW215407   5.302   2.021   1.560
 5040SOL     OW15408   3.853   2.522   0.577
 5040SOL    HW115409   3.816   2.430   0.590
 5040SOL    HW215410   3.843   2.574   0.662
 5041SOL     OW15411   5.581   3.612   0.338
 5041SOL    HW115412   5.652   3.579   0.400
 5041SOL    HW215413   5.587   3.711   0.331
 5042SOL     OW15414   3.692   3.448   0.120
 5042SOL    HW115415   3.701   3.352   0.146
 5042SOL    HW215416   3.721   3.506   0.196
 5043SOL     OW15417   5.426   2.767   0.656
 5043SOL    HW115418   5.505   2.713   0.628
 5043SOL    HW215419   5.397   2.827   0.581
 5044SOL     OW15420   5.355   2.960   0.477
 5044SOL    HW115421   5.382   3.012   0.396
 5044SOL    HW215422   5.364   3.018   0.558
 5045SOL     OW15423   3.859   2.602   1.582
 5045SOL    HW115424   3.957   2.624   1.579
 5045SOL    HW215425   3.807   2.686   1.598
 5046SOL     OW15426   4.338   3.255   0.731
 5046SOL    HW115427   4.293   3.167   0.744
 5046SOL    HW215428   4.328   3.285   0.637
 5047SOL     OW15429   5.006   3.092   1.421
 5047SOL    HW115430   5.032   3.022   1.355
 5047SOL    HW215431   5.069   3.088   1.499
 5048SOL     OW15432   4.547   1.879   0.515
 5048SOL    HW115433   4.593   1.964   0.491
 5048SOL    HW215434   4.448   1.894   0.520
 5049SOL     OW15435   3.915   2.823   1.274
 5049SOL    HW115436   4.004   2.779   1.263
 5049SOL    HW215437   3.847   2.775   1.218
 5050SOL     OW15438   5.170   2.900   0.224
 5050SOL    HW115439   5.101   2.844   0.271
 5050SOL    HW215440   5.260   2.860   0.237
 5051SOL     OW15441   4.915   3.677   1.622
 5051SOL    HW115442   4.917   3.746   1.550
 5051SOL    HW215443   4.932   3.587   1.582
 5052SOL     OW15444   4.071   2.109   1.854
 5052SOL    HW115445   4.119   2.194   1.871
 5052SOL    HW215446   3.972   2.123   1.862
 5053SOL     OW15447   5.186   3.284   0.941
 5053SOL    HW115448   5.122   3.304   1.016
 5053SOL    HW215449   5.179   3.187   0.916
 5054SOL     OW15450   5.368   3.616   0.581
 5054SOL    HW115451   5.349   3.586   0.487
 5054SOL    HW215452   5.353   3.541   0.644
 5055SOL     OW15453   4.319   2.578   0.277
 5055SOL    HW115454   4.327   2.665   0.229
 5055SOL    HW215455   4.252   2.587   0.351
 5056SOL     OW15456   5.002   2.233   0.937
 5056SOL    HW115457   4.909   2.197   0.942
 5056SOL    HW215458   5.062   2.179   0.996
 5057SOL     OW15459   5.314   3.539   0.317
 5057SOL    HW115460   5.412   3.556   0.317
 5057SOL    HW215461   5.282   3.522   0.224
 5058SOL     OW15462   4.512   2.473   1.447
 5058SOL    HW115463   4.487   2.446   1.540
 5058SOL    HW215464   4.481   2.402   1.383
 5059SOL     OW15465   5.114   2.332   1.679
 5059SOL    HW115466   5.116   2.381   1.766
 5059SOL    HW215467   5.171   2.250   1.686
 5060SOL     OW15468   4.673   2.744   1.586
 5060SOL    HW115469   4.731   2.674   1.545
 5060SOL    HW215470   4.620   2.789   1.514
 5061SOL     OW15471   4.720   2.260   1.220
 5061SOL    HW115472   4.626   2.278   1.249
 5061SOL    HW215473   4.719   2.213   1.131
 5062SOL     OW15474   4.777   2.554   0.430
 5062SOL    HW115475   4.798   2.555   0.528
 5062SOL    HW215476   4.690   2.506   0.416
 5063SOL     OW15477   3.816   2.691   0.787
 5063SOL    HW115478   3.902   2.679   0.836
 5063SOL    HW215479   3.765   2.768   0.827
 5064SOL     OW15480   3.836   3.705   1.600
 5064SOL    HW115481   3.825   3.677   1.695
 5064SOL    HW215482   3.746   3.723   1.560
 5065SOL     OW15483   4.610   2.204   0.215
 5065SOL    HW115484   4.662   2.268   0.158
 5065SOL    HW215485   4.606   2.115   0.169
 5066SOL     OW15486   5.420   2.436   1.830
 5066SOL    HW115487   5.387   2.514   1.777
 5066SOL    HW215488   5.449   2.364   1.768
 5067SOL     OW15489   5.088   3.003   0.530
 5067SOL    HW115490   5.177   2.984   0.488
 5067SOL    HW215491   5.042   3.075   0.477
 5068SOL     OW15492   4.271   2.028   0.906
 5068SOL    HW115493   4.276   2.060   1.000
 5068SOL    HW215494   4.273   2.107   0.844
 5069SOL     OW15495   4.723   3.315   0.466
 5069SOL    HW115496   4.687   3.393   0.415
 5069SOL    HW215497   4.698   3.323   0.562
 5070SOL     OW15498   4.079   3.677   0.877
 5070SOL    HW115499   4.124   3.588   0.882
 5070SOL    HW215500   4.145   3.750   0.898
 5071SOL     OW15501   5.529   2.908   0.877
 5071SOL    HW115502   5.479   2.879   0.795
 5071SOL    HW215503   5.465   2.918   0.953
 5072SOL     OW15504   4.950   3.399   1.513
 5072SOL    HW115505   4.941   3.322   1.576
 5072SOL    HW215506   4.876   3.396   1.446
 5073SOL     OW15507   4.027   2.814   0.261
 5073SOL    HW115508   4.075   2.861   0.187
 5073SOL    HW215509   4.028   2.715   0.244
 5074SOL     OW15510   5.207   2.616   0.721
 5074SOL    HW115511   5.204   2.570   0.810
 5074SOL    HW215512   5.291   2.670   0.714
 5075SOL     OW15513   4.167   3.131   1.755
 5075SOL    HW115514   4.131   3.153   1.664
 5075SOL    HW215515   4.130   3.042   1.785
 5076SOL     OW15516   4.827   3.644   0.213
 5076SOL    HW115517   4.764   3.597   0.275
 5076SOL    HW215518   4.880   3.576   0.162
 5077SOL     OW15519   3.927   2.130   1.502
 5077SOL    HW115520   3.845   2.188   1.499
 5077SOL    HW215521   3.903   2.041   1.541
 5078SOL     OW15522   5.329   3.228   0.061
 5078SOL    HW115523   5.317   3.327   0.055
 5078SOL    HW215524   5.241   3.183   0.042
 5079SOL     OW15525   4.190   3.590   0.339
 5079SOL    HW115526   4.236   3.654   0.401
 5079SOL    HW215527   4.256   3.557   0.271
 5080SOL     OW15528   5.130   1.966   0.441
 5080SOL    HW115529   5.122   1.941   0.344
 5080SOL    HW215530   5.226   1.981   0.464
 5081SOL     OW15531   3.980   3.655   1.225
 5081SOL    HW115532   4.033   3.588   1.278
 5081SOL    HW215533   3.972   3.623   1.131
 5082SOL     OW15534   4.664   3.565   0.895
 5082SOL    HW115535   4.750   3.522   0.923
 5082SOL    HW215536   4.622   3.512   0.821
 5083SOL     OW15537   4.121   2.545   0.475
 5083SOL    HW115538   4.144   2.448   0.486
 5083SOL    HW215539   4.026   2.560   0.500
 5084SOL     OW15540   5.245   2.085   1.725
 5084SOL    HW115541   5.256   2.105   1.823
 5084SOL    HW215542   5.176   2.014   1.714
 5085SOL     OW15543   4.351   1.952   0.094
 5085SOL    HW115544   4.451   1.954   0.098
 5085SOL    HW215545   4.319   2.019   0.027
 5086SOL     OW15546   4.487   2.137   1.759
 5086SOL    HW115547   4.574   2.088   1.751
 5086SOL    HW215548   4.435   2.099   1.836
 5087SOL     OW15549   4.595   3.374   1.194
 5087SOL    HW115550   4.576   3.337   1.103
 5087SOL    HW215551   4.668   3.321   1.237
 5088SOL     OW15552   5.059   2.451   1.436
 5088SOL    HW115553   5.090   2.417   1.525
 5088SOL    HW215554   5.096   2.543   1.422
 5089SOL     OW15555   4.545   3.242   0.945
 5089SOL    HW115556   4.636   3.234   0.905
 5089SOL    HW215557   4.477   3.255   0.873
 5090SOL     OW15558   4.650   2.368   0.894
 5090SOL    HW115559   4.624   2.361   0.798
 5090SOL    HW215560   4.681   2.279   0.927
 5091SOL     OW15561   4.278   1.931   0.498
 5091SOL    HW115562   4.196   1.927   0.556
 5091SOL    HW215563   4.269   2.006   0.433
 5092SOL     OW15564   5.105   3.079   0.031
 5092SOL    HW115565   5.132   3.010   0.098
 5092SOL    HW215566   5.025   3.129   0.064
 5093SOL     OW15567   4.676   2.114   0.463
 5093SOL    HW115568   4.646   2.150   0.375
 5093SOL    HW215569   4.775   2.126   0.472
 5094SOL     OW15570   4.801   2.547   1.451
 5094SOL    HW115571   4.727   2.479   1.454
 5094SOL    HW215572   4.889   2.501   1.447
 5095SOL     OW15573   4.936   3.437   0.797
 5095SOL    HW115574   4.951   3.504   0.724
 5095SOL    HW215575   5.013   3.442   0.862
 5096SOL     OW15576   4.196   3.018   0.725
 5096SOL    HW115577   4.132   2.995   0.798
 5096SOL    HW215578   4.152   3.006   0.637
 5097SOL     OW15579   4.982   3.656   0.610
 5097SOL    HW115580   5.037   3.720   0.556
 5097SOL    HW215581   4.908   3.707   0.655
 5098SOL     OW15582   4.747   2.391   0.071
 5098SOL    HW115583   4.674   2.428   0.013
 5098SOL    HW215584   4.777   2.462   0.135
 5099SOL     OW15585   3.817   2.417   1.388
 5099SOL    HW115586   3.911   2.413   1.356
 5099SOL    HW215587   3.808   2.489   1.458
 5100SOL     OW15588   4.283   2.085   1.177
 5100SOL    HW115589   4.331   2.009   1.221
 5100SOL    HW215590   4.187   2.083   1.204
 5101SOL     OW15591   4.590   2.321   0.634
 5101SOL    HW115592   4.540   2.381   0.571
 5101SOL    HW215593   4.620   2.239   0.585
 5102SOL     OW15594   4.741   1.916   0.741
 5102SOL    HW115595   4.679   1.915   0.662
 5102SOL    HW215596   4.718   1.840   0.802
 5103SOL     OW15597   5.177   3.021   0.865
 5103SOL    HW115598   5.099   2.962   0.846
 5103SOL    HW215599   5.228   3.037   0.780
 5104SOL     OW15600   5.192   2.473   0.963
 5104SOL    HW115601   5.128   2.396   0.964
 5104SOL    HW215602   5.254   2.466   1.042
 5105SOL     OW15603   5.610   2.671   0.398
 5105SOL    HW115604   5.660   2.619   0.468
 5105SOL    HW215605   5.566   2.607   0.335
 5106SOL     OW15606   4.203   3.274   0.161
 5106SOL    HW115607   4.122   3.247   0.213
 5106SOL    HW215608   4.223   3.204   0.092
 5107SOL     OW15609   5.389   3.123   0.685
 5107SOL    HW115610   5.489   3.121   0.678
 5107SOL    HW215611   5.357   3.218   0.680
 5108SOL     OW15612   5.117   2.427   0.101
 5108SOL    HW115613   5.057   2.417   0.180
 5108SOL    HW215614   5.170   2.344   0.089
 5109SOL     OW15615   4.232   2.112   0.296
 5109SOL    HW115616   4.284   2.059   0.229
 5109SOL    HW215617   4.215   2.204   0.260
 5110SOL     OW15618   5.477   3.095   1.546
 5110SOL    HW115619   5.568   3.057   1.529
 5110SOL    HW215620   5.486   3.189   1.579
 5111SOL     OW15621   4.771   3.209   1.336
 5111SOL    HW115622   4.690   3.181   1.387
 5111SOL    HW215623   4.852   3.169   1.378
 5112SOL     OW15624   5.332   3.496   1.661
 5112SOL    HW115625   5.314   3.535   1.570
 5112SOL    HW215626   5.415   3.440   1.657
 5113SOL     OW15627   4.869   3.092   1.105
 5113SOL    HW115628   4.807   3.126   1.176
 5113SOL    HW215629   4.836   3.123   1.016
 5114SOL     OW15630   5.348   2.957   1.080
 5114SOL    HW115631   5.342   3.024   1.154
 5114SOL    HW215632   5.275   2.974   1.013
 5115SOL     OW15633   4.649   1.951   1.388
 5115SOL    HW115634   4.669   1.929   1.293
 5115SOL    HW215635   4.728   1.995   1.430
 5116SOL     OW15636   4.701   2.977   1.721
 5116SOL    HW115637   4.608   2.999   1.749
 5116SOL    HW215638   4.702   2.894   1.666
 5117SOL     OW15639   4.442   2.919   0.375
 5117SOL    HW115640   4.419   2.903   0.471
 5117SOL    HW215641   4.515   2.858   0.347
 5118SOL     OW15642   4.150   2.679   1.256
 5118SOL    HW115643   4.222   2.693   1.323
 5118SOL    HW215644   4.112   2.587   1.265
 5119SOL     OW15645   4.984   2.235   1.286
 5119SOL    HW115646   5.019   2.316   1.334
 5119SOL    HW215647   4.890   2.251   1.258
 5120SOL     OW15648   3.801   3.428   1.353
 5120SOL    HW115649   3.766   3.502   1.296
 5120SOL    HW215650   3.901   3.427   1.349
 5121SOL     OW15651   4.065   2.983   0.489
 5121SOL    HW115652   4.070   3.065   0.431
 5121SOL    HW215653   4.061   2.902   0.431
 5122SOL     OW15654   4.267   2.405   0.864
 5122SOL    HW115655   4.281   2.464   0.785
 5122SOL    HW215656   4.338   2.424   0.932
 5123SOL     OW15657   4.976   3.224   0.397
 5123SOL    HW115658   5.032   3.298   0.434
 5123SOL    HW215659   4.881   3.238   0.424
 5124SOL     OW15660   5.019   3.327   1.148
 5124SOL    HW115661   5.075   3.333   1.230
 5124SOL    HW215662   4.966   3.242   1.149
 5125SOL     OW15663   5.289   2.480   0.486
 5125SOL    HW115664   5.242   2.527   0.561
 5125SOL    HW215665   5.319   2.546   0.418
 5126SOL     OW15666   4.073   3.385   1.309
 5126SOL    HW115667   4.058   3.341   1.221
 5126SOL    HW215668   4.170   3.405   1.321
 5127SOL     OW15669   4.143   2.613   1.603
 5127SOL    HW115670   4.210   2.655   1.543
 5127SOL    HW215671   4.171   2.520   1.626
 5128SOL     OW15672   5.334   2.648   1.686
 5128SOL    HW115673   5.243   2.689   1.682
 5128SOL    HW215674   5.391   2.687   1.613
 5129SOL     OW15675   4.722   2.000   1.752
 5129SOL    HW115676   4.779   2.081   1.738
 5129SOL    HW215677   4.772   1.918   1.724
 5130SOL     OW15678   4.214   1.895   1.756
 5130SOL    HW115679   4.168   1.838   1.689
 5130SOL    HW215680   4.158   1.975   1.777
 5131SOL     OW15681   4.312   2.735   1.037
 5131SOL    HW115682   4.349   2.828   1.034
 5131SOL    HW215683   4.250   2.725   1.115
 5132SOL     OW15684   5.065   2.715   1.023
 5132SOL    HW115685   4.976   2.708   0.978
 5132SOL    HW215686   5.117   2.631   1.007
 5133SOL     OW15687   4.940   2.381   0.299
 5133SOL    HW115688   4.949   2.296   0.351
 5133SOL    HW215689   4.886   2.447   0.350
 5134SOL     OW15690   4.021   2.056   1.246
 5134SOL    HW115691   3.984   2.091   1.332
 5134SOL    HW215692   4.006   1.957   1.241
 5135SOL     OW15693   3.779   3.169   1.270
 5135SOL    HW115694   3.808   3.108   1.344
 5135SOL    HW215695   3.781   3.263   1.304
 5136SOL     OW15696   4.448   2.492   1.052
 5136SOL    HW115697   4.524   2.473   0.990
 5136SOL    HW215698   4.413   2.584   1.035
 5137SOL     OW15699   5.457   2.823   1.857
 5137SOL    HW115700   5.413   2.752   1.803
 5137SOL    HW215701   5.398   2.848   1.934
 5138SOL     OW15702   4.037   1.923   0.632
 5138SOL    HW115703   4.009   2.017   0.649
 5138SOL    HW215704   4.048   1.875   0.719
 5139SOL     OW15705   5.356   2.248   0.358
 5139SOL    HW115706   5.369   2.170   0.418
 5139SOL    HW215707   5.324   2.326   0.412
 5140SOL     OW15708   4.746   2.616   0.955
 5140SOL    HW115709   4.738   2.637   1.052
 5140SOL    HW215710   4.720   2.521   0.939
 5141SOL     OW15711   4.708   3.416   1.713
 5141SOL    HW115712   4.687   3.467   1.629
 5141SOL    HW215713   4.764   3.336   1.690
 5142SOL     OW15714   5.560   3.356   1.593
 5142SOL    HW115715   5.582   3.386   1.500
 5142SOL    HW215716   5.639   3.370   1.652
 5143SOL     OW15717   4.100   2.807   1.796
 5143SOL    HW115718   4.179   2.809   1.858
 5143SOL    HW215719   4.113   2.736   1.727
 5144SOL     OW15720   5.214   2.167   0.133
 5144SOL    HW115721   5.187   2.071   0.146
 5144SOL    HW215722   5.271   2.197   0.209
 5145SOL     OW15723   5.009   2.663   0.032
 5145SOL    HW115724   5.055   2.576   0.048
 5145SOL    HW215725   5.073   2.727  -0.010
 5146SOL     OW15726   4.797   3.203   0.858
 5146SOL    HW115727   4.802   3.125   0.795
 5146SOL    HW215728   4.851   3.278   0.822
 5147SOL     OW15729   4.040   2.668   0.943
 5147SOL    HW115730   4.137   2.692   0.938
 5147SOL    HW215731   4.031   2.574   0.974
 5148SOL     OW15732   4.045   2.392   1.011
 5148SOL    HW115733   4.006   2.300   1.002
 5148SOL    HW215734   4.126   2.399   0.954
 5149SOL     OW15735   4.858   2.234   1.696
 5149SOL    HW115736   4.807   2.290   1.761
 5149SOL    HW215737   4.950   2.272   1.685
 5150SOL     OW15738   4.884   2.062   1.479
 5150SOL    HW115739   4.869   2.124   1.556
 5150SOL    HW215740   4.928   2.111   1.404
 5151SOL     OW15741   3.816   3.641   0.943
 5151SOL    HW115742   3.780   3.561   0.896
 5151SOL    HW215743   3.909   3.658   0.913
 5152SOL     OW15744   4.214   3.437   0.902
 5152SOL    HW115745   4.285   3.503   0.928
 5152SOL    HW215746   4.253   3.370   0.839
 5153SOL     OW15747   4.689   2.653   1.220
 5153SOL    HW115748   4.750   2.632   1.296
 5153SOL    HW215749   4.601   2.607   1.234
 5154SOL     OW15750   3.762   2.421   1.117
 5154SOL    HW115751   3.845   2.413   1.061
 5154SOL    HW215752   3.787   2.421   1.214
 5155SOL     OW15753   3.921   2.385   1.735
 5155SOL    HW115754   3.967   2.325   1.670
 5155SOL    HW215755   3.884   2.464   1.686
 5156SOL     OW15756   5.106   2.793   1.651
 5156SOL    HW115757   5.130   2.890   1.652
 5156SOL    HW215758   5.100   2.761   1.557
 5157SOL     OW15759   4.542   2.435   0.365
 5157SOL    HW115760   4.547   2.351   0.310
 5157SOL    HW215761   4.465   2.490   0.335
 5158SOL     OW15762   5.371   2.465   1.174
 5158SOL    HW115763   5.353   2.407   1.253
 5158SOL    HW215764   5.462   2.444   1.138
 5159SOL     OW15765   3.946   3.422   1.746
 5159SOL    HW115766   3.921   3.482   1.821
 5159SOL    HW215767   4.009   3.351   1.779
 5160SOL     OW15768   4.443   2.304   1.246
 5160SOL    HW115769   4.381   2.228   1.225
 5160SOL    HW215770   4.436   2.373   1.175
 5161SOL     OW15771   4.646   3.539   1.471
 5161SOL    HW115772   4.614   3.494   1.388
 5161SOL    HW215773   4.645   3.638   1.457
 5162SOL     OW15774   4.177   2.357   0.200
 5162SOL    HW115775   4.240   2.431   0.222
 5162SOL    HW215776   4.087   2.395   0.179
 5163SOL     OW15777   3.862   2.995   1.473
 5163SOL    HW115778   3.859   2.946   1.560
 5163SOL    HW215779   3.883   2.931   1.399
 5164SOL     OW15780   5.033   2.903   1.216
 5164SOL    HW115781   5.057   2.834   1.147
 5164SOL    HW215782   4.972   2.971   1.175
 5165SOL     OW15783   4.994   2.711   0.312
 5165SOL    HW115784   4.925   2.660   0.364
 5165SOL    HW215785   4.996   2.678   0.218
 5166SOL     OW15786   5.505   3.580   1.158
 5166SOL    HW115787   5.569   3.616   1.090
 5166SOL    HW215788   5.472   3.491   1.128
 5167SOL     OW15789   4.966   3.595   1.098
 5167SOL    HW115790   5.052   3.627   1.059
 5167SOL    HW215791   4.974   3.499   1.123
 5168SOL     OW15792   3.815   3.123   1.008
 5168SOL    HW115793   3.798   3.140   1.105
 5168SOL    HW215794   3.744   3.064   0.971
 5169SOL     OW15795   4.406   3.533   1.734
 5169SOL    HW115796   4.344   3.611   1.743
 5169SOL    HW215797   4.483   3.558   1.677
 5170SOL     OW15798   4.637   1.946   0.092
 5170SOL    HW115799   4.698   1.986   0.023
 5170SOL    HW215800   4.690   1.890   0.155
 5171SOL     OW15801   5.407   2.009   0.497
 5171SOL    HW115802   5.493   2.011   0.447
 5171SOL    HW215803   5.398   1.923   0.546
 5172SOL     OW15804   5.121   3.439   0.496
 5172SOL    HW115805   5.183   3.470   0.425
 5172SOL    HW215806   5.066   3.516   0.528
 5173SOL     OW15807   5.006   2.795   0.674
 5173SOL    HW115808   5.082   2.732   0.687
 5173SOL    HW215809   5.034   2.869   0.613
 5174SOL     OW15810   4.516   3.144   1.426
 5174SOL    HW115811   4.485   3.187   1.510
 5174SOL    HW215812   4.449   3.160   1.354
 5175SOL     OW15813   4.385   3.472   0.178
 5175SOL    HW115814   4.408   3.492   0.083
 5175SOL    HW215815   4.324   3.393   0.181
 5176SOL     OW15816   5.336   3.591   1.385
 5176SOL    HW115817   5.393   3.591   1.304
 5176SOL    HW215818   5.323   3.686   1.416
 5177SOL     OW15819   5.572   2.035   0.968
 5177SOL    HW115820   5.605   1.943   0.949
 5177SOL    HW215821   5.481   2.047   0.929
 5178SOL     OW15822   3.977   2.174   0.715
 5178SOL    HW115823   3.889   2.214   0.688
 5178SOL    HW215824   3.981   2.168   0.815
 5179SOL     OW15825   4.964   3.472   0.047
 5179SOL    HW115826   4.934   3.379   0.068
 5179SOL    HW215827   4.915   3.505  -0.033
 5180SOL     OW15828   4.546   2.874   1.383
 5180SOL    HW115829   4.595   2.858   1.297
 5180SOL    HW215830   4.539   2.973   1.399
 5181SOL     OW15831   4.639   2.756   0.300
 5181SOL    HW115832   4.689   2.778   0.216
 5181SOL    HW215833   4.688   2.684   0.350
 5182SOL     OW15834   5.231   3.512   0.055
 5182SOL    HW115835   5.134   3.490   0.044
 5182SOL    HW215836   5.270   3.535  -0.034
 5183SOL     OW15837   4.066   3.183   1.513
 5183SOL    HW115838   4.071   3.252   1.441
 5183SOL    HW215839   3.996   3.115   1.490
 5184SOL     OW15840   5.336   3.149   1.285
 5184SOL    HW115841   5.398   3.125   1.360
 5184SOL    HW215842   5.270   3.217   1.316
 5185SOL     OW15843   4.789   2.971   0.720
 5185SOL    HW115844   4.713   2.919   0.760
 5185SOL    HW215845   4.861   2.907   0.692
 5186SOL     OW15846   4.749   2.102   0.966
 5186SOL    HW115847   4.746   2.061   0.875
 5186SOL    HW215848   4.746   2.031   1.036
 5187SOL     OW15849   4.336   3.343   0.477
 5187SOL    HW115850   4.391   3.290   0.412
 5187SOL    HW215851   4.263   3.391   0.427
 5188SOL     OW15852   5.472   2.260   1.384
 5188SOL    HW115853   5.545   2.327   1.376
 5188SOL    HW215854   5.489   2.184   1.322
 5189SOL     OW15855   3.981   3.179   0.292
 5189SOL    HW115856   3.912   3.107   0.286
 5189SOL    HW215857   3.964   3.234   0.374
 5190SOL     OW15858   3.838   2.860   1.706
 5190SOL    HW115859   3.759   2.841   1.764
 5190SOL    HW215860   3.922   2.843   1.758
 5191SOL     OW15861   4.410   2.053   1.500
 5191SOL    HW115862   4.495   2.028   1.456
 5191SOL    HW215863   4.429   2.089   1.592
 5192SOL     OW15864   3.721   2.268   5.977
 5192SOL    HW115865   3.676   2.199   6.033
 5192SOL    HW215866   3.818   2.243   5.965
 5193SOL     OW15867   5.143   2.716   1.390
 5193SOL    HW115868   5.086   2.779   1.338
 5193SOL    HW215869   5.236   2.718   1.354
 5194SOL     OW15870   3.773   2.021   0.335
 5194SOL    HW115871   3.728   2.043   0.249
 5194SOL    HW215872   3.870   1.999   0.318
 5195SOL     OW15873   4.896   3.220   0.126
 5195SOL    HW115874   4.799   3.204   0.114
 5195SOL    HW215875   4.921   3.206   0.222
 5196SOL     OW15876   4.350   2.692   1.437
 5196SOL    HW115877   4.408   2.772   1.422
 5196SOL    HW215878   4.407   2.610   1.443
 5197SOL     OW15879   5.211   3.663   0.993
 5197SOL    HW115880   5.235   3.733   0.925
 5197SOL    HW215881   5.295   3.618   1.025
 5198SOL     OW15882   4.447   2.414   1.701
 5198SOL    HW115883   4.495   2.479   1.760
 5198SOL    HW215884   4.464   2.321   1.734
 5199SOL     OW15885   5.199   3.052   1.631
 5199SOL    HW115886   5.184   3.070   1.728
 5199SOL    HW215887   5.294   3.073   1.608
 5200SOL     OW15888   4.083   3.604   1.559
 5200SOL    HW115889   3.995   3.653   1.555
 5200SOL    HW215890   4.070   3.518   1.608
 5201SOL     OW15891   5.387   2.737   1.253
 5201SOL    HW115892   5.383   2.647   1.210
 5201SOL    HW215893   5.373   2.808   1.184
 5202SOL     OW15894   4.946   2.167   0.471
 5202SOL    HW115895   5.012   2.094   0.461
 5202SOL    HW215896   4.971   2.225   0.549
 5203SOL     OW15897   4.308   2.597   0.672
 5203SOL    HW115898   4.349   2.687   0.661
 5203SOL    HW215899   4.241   2.582   0.599
 5204SOL     OW15900   5.470   2.230   1.657
 5204SOL    HW115901   5.467   2.246   1.559
 5204SOL    HW215902   5.395   2.170   1.684
 5205SOL     OW15903   5.480   2.786   1.504
 5205SOL    HW115904   5.468   2.882   1.528
 5205SOL    HW215905   5.452   2.771   1.409
 5206SOL     OW15906   4.627   3.250   0.053
 5206SOL    HW115907   4.569   3.230   0.132
 5206SOL    HW215908   4.610   3.343   0.022
 5207SOL     OW15909   4.391   3.638   0.936
 5207SOL    HW115910   4.367   3.734   0.922
 5207SOL    HW215911   4.490   3.627   0.928
 5208SOL     OW15912   4.593   2.834   0.857
 5208SOL    HW115913   4.644   2.755   0.892
 5208SOL    HW215914   4.548   2.881   0.933
 5209SOL     OW15915   4.791   2.824   0.084
 5209SOL    HW115916   4.768   2.882   0.005
 5209SOL    HW215917   4.871   2.768   0.062
 5210SOL     OW15918   5.559   3.422   0.845
 5210SOL    HW115919   5.483   3.407   0.782
 5210SOL    HW215920   5.559   3.352   0.916
 5211SOL     OW15921   3.814   3.082   0.666
 5211SOL    HW115922   3.830   3.043   0.757
 5211SOL    HW215923   3.883   3.048   0.602
 5212SOL     OW15924   4.395   3.269   1.641
 5212SOL    HW115925   4.307   3.233   1.673
 5212SOL    HW215926   4.406   3.364   1.672
 5213SOL     OW15927   5.526   2.043   1.237
 5213SOL    HW115928   5.541   1.947   1.260
 5213SOL    HW215929   5.543   2.057   1.139
 5214SOL     OW15930   4.157   2.283   0.526
 5214SOL    HW115931   4.179   2.215   0.456
 5214SOL    HW215932   4.100   2.242   0.597
 5215SOL     OW15933   5.413   3.337   1.090
 5215SOL    HW115934   5.334   3.323   1.030
 5215SOL    HW215935   5.412   3.268   1.162
 5216SOL     OW15936   4.066   2.420   1.289
 5216SOL    HW115937   4.121   2.359   1.346
 5216SOL    HW215938   4.077   2.394   1.193
 5217SOL     OW15939   4.554   3.441   0.680
 5217SOL    HW115940   4.535   3.505   0.606
 5217SOL    HW215941   4.479   3.376   0.688
 5218SOL     OW15942   5.151   2.096   1.117
 5218SOL    HW115943   5.165   2.001   1.146
 5218SOL    HW215944   5.098   2.144   1.186
 5219SOL     OW15945   4.733   1.876   1.131
 5219SOL    HW115946   4.670   1.815   1.083
 5219SOL    HW215947   4.824   1.835   1.134
 5220SOL     OW15948   4.504   3.188   0.315
 5220SOL    HW115949   4.474   3.094   0.327
 5220SOL    HW215950   4.597   3.198   0.350
 5221SOL     OW15951   4.346   3.424   1.292
 5221SOL    HW115952   4.341   3.512   1.338
 5221SOL    HW215953   4.437   3.413   1.252
 5222SOL     OW15954   5.088   1.913   0.171
 5222SOL    HW115955   5.129   1.840   0.116
 5222SOL    HW215956   4.991   1.892   0.186
 5223SOL     OW15957   5.009   2.328   0.680
 5223SOL    HW115958   4.960   2.415   0.680
 5223SOL    HW215959   5.010   2.291   0.773
 5224SOL     OW15960   5.312   2.063   0.891
 5224SOL    HW115961   5.255   2.086   0.970
 5224SOL    HW215962   5.313   2.139   0.827
 5225SOL     OW15963   3.801   2.955   0.301
 5225SOL    HW115964   3.883   2.904   0.277
 5225SOL    HW215965   3.747   2.902   0.366
 5226SOL     OW15966   4.607   3.533   0.343
 5226SOL    HW115967   4.527   3.504   0.291
 5226SOL    HW215968   4.583   3.609   0.404
 5227SOL     OW15969   3.939   2.495   1.992
 5227SOL    HW115970   3.849   2.482   2.033
 5227SOL    HW215971   3.937   2.466   1.896
 5228SOL     OW15972   3.949   2.123   2.852
 5228SOL    HW115973   3.978   2.094   2.943
 5228SOL    HW215974   3.854   2.097   2.837
 5229SOL     OW15975   3.724   2.246   2.495
 5229SOL    HW115976   3.640   2.272   2.543
 5229SOL    HW215977   3.704   2.167   2.436
 5230SOL     OW15978   4.302   3.167   3.065
 5230SOL    HW115979   4.207   3.161   3.035
 5230SOL    HW215980   4.322   3.260   3.095
 5231SOL     OW15981   5.296   3.381   2.568
 5231SOL    HW115982   5.250   3.356   2.653
 5231SOL    HW215983   5.230   3.387   2.494
 5232SOL     OW15984   4.858   2.570   2.555
 5232SOL    HW115985   4.910   2.653   2.538
 5232SOL    HW215986   4.809   2.577   2.641
 5233SOL     OW15987   5.474   2.466   2.092
 5233SOL    HW115988   5.461   2.462   1.993
 5233SOL    HW215989   5.450   2.378   2.133
 5234SOL     OW15990   4.448   3.004   2.899
 5234SOL    HW115991   4.391   3.043   2.971
 5234SOL    HW215992   4.501   3.077   2.856
 5235SOL     OW15993   4.604   2.617   3.687
 5235SOL    HW115994   4.591   2.684   3.760
 5235SOL    HW215995   4.626   2.664   3.602
 5236SOL     OW15996   4.418   2.871   2.517
 5236SOL    HW115997   4.483   2.847   2.589
 5236SOL    HW215998   4.444   2.960   2.478
 5237SOL     OW15999   4.438   3.016   3.686
 5237SOL    HW116000   4.491   3.093   3.722
 5237SOL    HW216001   4.354   3.050   3.643
 5238SOL     OW16002   4.069   3.282   2.945
 5238SOL    HW116003   3.985   3.245   2.907
 5238SOL    HW216004   4.113   3.342   2.878
 5239SOL     OW16005   5.180   3.366   3.227
 5239SOL    HW116006   5.238   3.447   3.234
 5239SOL    HW216007   5.106   3.371   3.293
 5240SOL     OW16008   4.180   2.242   3.334
 5240SOL    HW116009   4.261   2.184   3.345
 5240SOL    HW216010   4.098   2.191   3.357
 5241SOL     OW16011   5.330   2.302   2.610
 5241SOL    HW116012   5.267   2.324   2.534
 5241SOL    HW216013   5.329   2.377   2.676
 5242SOL     OW16014   4.861   3.201   3.560
 5242SOL    HW116015   4.907   3.198   3.649
 5242SOL    HW216016   4.804   3.120   3.550
 5243SOL     OW16017   4.320   3.659   3.292
 5243SOL    HW116018   4.235   3.636   3.340
 5243SOL    HW216019   4.354   3.748   3.325
 5244SOL     OW16020   4.304   2.850   1.995
 5244SOL    HW116021   4.354   2.901   1.924
 5244SOL    HW216022   4.338   2.877   2.085
 5245SOL     OW16023   5.320   1.987   3.329
 5245SOL    HW116024   5.349   2.064   3.273
 5245SOL    HW216025   5.302   2.020   3.422
 5246SOL     OW16026   3.840   2.524   2.426
 5246SOL    HW116027   3.812   2.431   2.449
 5246SOL    HW216028   3.846   2.578   2.510
 5247SOL     OW16029   5.569   3.618   2.195
 5247SOL    HW116030   5.641   3.593   2.260
 5247SOL    HW216031   5.581   3.713   2.167
 5248SOL     OW16032   5.422   2.782   2.509
 5248SOL    HW116033   5.498   2.724   2.480
 5248SOL    HW216034   5.393   2.839   2.432
 5249SOL     OW16035   5.370   2.966   2.301
 5249SOL    HW116036   5.459   2.962   2.254
 5249SOL    HW216037   5.374   3.034   2.373
 5250SOL     OW16038   3.846   2.605   3.446
 5250SOL    HW116039   3.936   2.649   3.443
 5250SOL    HW216040   3.775   2.675   3.439
 5251SOL     OW16041   4.361   3.280   2.591
 5251SOL    HW116042   4.318   3.192   2.609
 5251SOL    HW216043   4.339   3.310   2.498
 5252SOL     OW16044   5.007   3.093   3.282
 5252SOL    HW116045   5.033   3.022   3.217
 5252SOL    HW216046   5.068   3.090   3.361
 5253SOL     OW16047   4.546   1.877   2.373
 5253SOL    HW116048   4.592   1.962   2.347
 5253SOL    HW216049   4.447   1.893   2.377
 5254SOL     OW16050   3.935   2.834   3.157
 5254SOL    HW116051   3.998   2.770   3.113
 5254SOL    HW216052   3.849   2.837   3.107
 5255SOL     OW16053   5.255   2.870   2.067
 5255SOL    HW116054   5.183   2.807   2.095
 5255SOL    HW216055   5.301   2.906   2.147
 5256SOL     OW16056   4.904   3.680   3.487
 5256SOL    HW116057   4.911   3.749   3.415
 5256SOL    HW216058   4.924   3.590   3.449
 5257SOL     OW16059   4.072   2.110   3.715
 5257SOL    HW116060   4.120   2.195   3.738
 5257SOL    HW216061   3.973   2.125   3.722
 5258SOL     OW16062   5.184   3.285   2.800
 5258SOL    HW116063   5.121   3.303   2.876
 5258SOL    HW216064   5.178   3.189   2.774
 5259SOL     OW16065   5.367   3.625   2.434
 5259SOL    HW116066   5.351   3.592   2.341
 5259SOL    HW216067   5.353   3.550   2.499
 5260SOL     OW16068   4.318   2.579   2.141
 5260SOL    HW116069   4.323   2.663   2.087
 5260SOL    HW216070   4.244   2.586   2.207
 5261SOL     OW16071   5.001   2.234   2.798
 5261SOL    HW116072   4.908   2.197   2.803
 5261SOL    HW216073   5.061   2.181   2.857
 5262SOL     OW16074   5.307   3.534   2.170
 5262SOL    HW116075   5.404   3.558   2.166
 5262SOL    HW216076   5.272   3.520   2.078
 5263SOL     OW16077   4.514   2.475   3.306
 5263SOL    HW116078   4.491   2.449   3.399
 5263SOL    HW216079   4.482   2.404   3.243
 5264SOL     OW16080   5.115   2.331   3.542
 5264SOL    HW116081   5.116   2.380   3.630
 5264SOL    HW216082   5.171   2.249   3.549
 5265SOL     OW16083   4.675   2.743   3.450
 5265SOL    HW116084   4.733   2.674   3.408
 5265SOL    HW216085   4.620   2.788   3.379
 5266SOL     OW16086   4.721   2.262   3.079
 5266SOL    HW116087   4.627   2.280   3.110
 5266SOL    HW216088   4.719   2.210   2.994
 5267SOL     OW16089   4.778   2.558   2.287
 5267SOL    HW116090   4.801   2.554   2.384
 5267SOL    HW216091   4.690   2.511   2.272
 5268SOL     OW16092   3.855   2.696   2.645
 5268SOL    HW116093   3.915   2.664   2.718
 5268SOL    HW216094   3.776   2.742   2.684
 5269SOL     OW16095   3.850   3.735   3.452
 5269SOL    HW116096   3.857   3.711   3.549
 5269SOL    HW216097   3.784   3.675   3.407
 5270SOL     OW16098   4.619   2.218   2.064
 5270SOL    HW116099   4.663   2.283   2.003
 5270SOL    HW216100   4.611   2.129   2.018
 5271SOL     OW16101   5.423   2.436   3.690
 5271SOL    HW116102   5.388   2.513   3.638
 5271SOL    HW216103   5.451   2.363   3.628
 5272SOL     OW16104   5.101   3.004   2.389
 5272SOL    HW116105   5.187   2.989   2.341
 5272SOL    HW216106   5.047   3.072   2.340
 5273SOL     OW16107   4.272   2.027   2.768
 5273SOL    HW116108   4.276   2.059   2.863
 5273SOL    HW216109   4.272   2.106   2.707
 5274SOL     OW16110   4.724   3.305   2.329
 5274SOL    HW116111   4.691   3.379   2.270
 5274SOL    HW216112   4.702   3.327   2.424
 5275SOL     OW16113   4.080   3.664   2.725
 5275SOL    HW116114   4.122   3.575   2.741
 5275SOL    HW216115   4.133   3.735   2.771
 5276SOL     OW16116   5.527   2.913   2.734
 5276SOL    HW116117   5.477   2.885   2.652
 5276SOL    HW216118   5.463   2.920   2.811
 5277SOL     OW16119   4.948   3.400   3.377
 5277SOL    HW116120   4.937   3.325   3.443
 5277SOL    HW216121   4.875   3.396   3.309
 5278SOL     OW16122   4.050   2.769   2.101
 5278SOL    HW116123   4.128   2.807   2.051
 5278SOL    HW216124   4.017   2.687   2.054
 5279SOL     OW16125   5.208   2.622   2.583
 5279SOL    HW116126   5.207   2.574   2.671
 5279SOL    HW216127   5.292   2.677   2.576
 5280SOL     OW16128   4.195   3.132   3.599
 5280SOL    HW116129   4.174   3.141   3.501
 5280SOL    HW216130   4.109   3.123   3.650
 5281SOL     OW16131   4.857   3.627   2.096
 5281SOL    HW116132   4.770   3.595   2.135
 5281SOL    HW216133   4.883   3.567   2.020
 5282SOL     OW16134   3.929   2.131   3.363
 5282SOL    HW116135   3.849   2.190   3.358
 5282SOL    HW216136   3.902   2.043   3.403
 5283SOL     OW16137   5.346   3.247   1.954
 5283SOL    HW116138   5.309   3.338   1.936
 5283SOL    HW216139   5.277   3.178   1.932
 5284SOL     OW16140   5.124   1.964   2.306
 5284SOL    HW116141   5.114   1.938   2.210
 5284SOL    HW216142   5.221   1.974   2.327
 5285SOL     OW16143   3.974   3.671   3.072
 5285SOL    HW116144   4.018   3.583   3.090
 5285SOL    HW216145   3.903   3.659   3.003
 5286SOL     OW16146   4.667   3.581   2.754
 5286SOL    HW116147   4.757   3.541   2.771
 5286SOL    HW216148   4.626   3.538   2.672
 5287SOL     OW16149   4.121   2.545   2.340
 5287SOL    HW116150   4.140   2.448   2.353
 5287SOL    HW216151   4.023   2.561   2.345
 5288SOL     OW16152   5.246   2.084   3.588
 5288SOL    HW116153   5.258   2.105   3.685
 5288SOL    HW216154   5.176   2.013   3.577
 5289SOL     OW16155   4.373   1.974   1.963
 5289SOL    HW116156   4.436   1.901   1.987
 5289SOL    HW216157   4.313   1.943   1.889
 5290SOL     OW16158   4.485   2.136   3.620
 5290SOL    HW116159   4.573   2.087   3.613
 5290SOL    HW216160   4.434   2.102   3.699
 5291SOL     OW16161   4.601   3.380   3.056
 5291SOL    HW116162   4.581   3.342   2.965
 5291SOL    HW216163   4.670   3.323   3.101
 5292SOL     OW16164   5.061   2.451   3.300
 5292SOL    HW116165   5.091   2.416   3.388
 5292SOL    HW216166   5.098   2.543   3.286
 5293SOL     OW16167   4.553   3.243   2.807
 5293SOL    HW116168   4.646   3.235   2.771
 5293SOL    HW216169   4.492   3.276   2.735
 5294SOL     OW16170   4.647   2.367   2.754
 5294SOL    HW116171   4.623   2.360   2.657
 5294SOL    HW216172   4.680   2.279   2.787
 5295SOL     OW16173   4.275   1.928   2.351
 5295SOL    HW116174   4.194   1.924   2.410
 5295SOL    HW216175   4.269   2.006   2.290
 5296SOL     OW16176   5.147   3.065   1.903
 5296SOL    HW116177   5.181   2.989   1.958
 5296SOL    HW216178   5.058   3.094   1.937
 5297SOL     OW16179   4.011   1.910   2.048
 5297SOL    HW116180   4.059   1.980   1.996
 5297SOL    HW216181   4.077   1.848   2.090
 5298SOL     OW16182   4.676   2.115   2.316
 5298SOL    HW116183   4.645   2.154   2.229
 5298SOL    HW216184   4.775   2.127   2.325
 5299SOL     OW16185   4.803   2.548   3.312
 5299SOL    HW116186   4.729   2.481   3.319
 5299SOL    HW216187   4.891   2.501   3.311
 5300SOL     OW16188   4.939   3.435   2.657
 5300SOL    HW116189   4.961   3.493   2.578
 5300SOL    HW216190   5.016   3.436   2.721
 5301SOL     OW16191   5.007   3.643   2.468
 5301SOL    HW116192   5.055   3.703   2.404
 5301SOL    HW216193   4.947   3.698   2.526
 5302SOL     OW16194   4.747   2.393   1.896
 5302SOL    HW116195   4.703   2.479   1.870
 5302SOL    HW216196   4.818   2.410   1.964
 5303SOL     OW16197   3.821   2.413   3.255
 5303SOL    HW116198   3.916   2.411   3.224
 5303SOL    HW216199   3.810   2.486   3.322
 5304SOL     OW16200   4.283   2.086   3.039
 5304SOL    HW116201   4.332   2.012   3.085
 5304SOL    HW216202   4.187   2.084   3.066
 5305SOL     OW16203   4.590   2.322   2.491
 5305SOL    HW116204   4.550   2.380   2.420
 5305SOL    HW216205   4.622   2.236   2.450
 5306SOL     OW16206   4.739   1.918   2.603
 5306SOL    HW116207   4.679   1.916   2.523
 5306SOL    HW216208   4.715   1.842   2.664
 5307SOL     OW16209   5.179   3.023   2.720
 5307SOL    HW116210   5.102   2.959   2.712
 5307SOL    HW216211   5.221   3.035   2.630
 5308SOL     OW16212   5.194   2.474   2.825
 5308SOL    HW116213   5.130   2.398   2.824
 5308SOL    HW216214   5.255   2.466   2.904
 5309SOL     OW16215   5.580   2.668   2.241
 5309SOL    HW116216   5.628   2.615   2.311
 5309SOL    HW216217   5.539   2.606   2.174
 5310SOL     OW16218   4.210   3.297   2.031
 5310SOL    HW116219   4.136   3.323   2.093
 5310SOL    HW216220   4.174   3.239   1.958
 5311SOL     OW16221   5.389   3.128   2.514
 5311SOL    HW116222   5.488   3.123   2.522
 5311SOL    HW216223   5.360   3.223   2.526
 5312SOL     OW16224   5.115   2.438   1.931
 5312SOL    HW116225   5.054   2.412   2.006
 5312SOL    HW216226   5.209   2.417   1.956
 5313SOL     OW16227   4.253   2.126   2.166
 5313SOL    HW116228   4.302   2.075   2.096
 5313SOL    HW216229   4.221   2.212   2.127
 5314SOL     OW16230   5.474   3.097   3.406
 5314SOL    HW116231   5.565   3.056   3.392
 5314SOL    HW216232   5.485   3.190   3.441
 5315SOL     OW16233   4.771   3.209   3.197
 5315SOL    HW116234   4.689   3.181   3.246
 5315SOL    HW216235   4.851   3.170   3.241
 5316SOL     OW16236   5.333   3.496   3.522
 5316SOL    HW116237   5.317   3.534   3.431
 5316SOL    HW216238   5.415   3.439   3.521
 5317SOL     OW16239   4.866   3.088   2.968
 5317SOL    HW116240   4.806   3.125   3.039
 5317SOL    HW216241   4.836   3.122   2.879
 5318SOL     OW16242   5.348   2.958   2.940
 5318SOL    HW116243   5.343   3.024   3.015
 5318SOL    HW216244   5.276   2.976   2.874
 5319SOL     OW16245   4.649   1.951   3.250
 5319SOL    HW116246   4.670   1.929   3.155
 5319SOL    HW216247   4.728   1.995   3.293
 5320SOL     OW16248   4.701   2.977   3.582
 5320SOL    HW116249   4.608   2.996   3.612
 5320SOL    HW216250   4.703   2.893   3.529
 5321SOL     OW16251   4.436   2.909   2.227
 5321SOL    HW116252   4.400   2.873   2.313
 5321SOL    HW216253   4.519   2.859   2.202
 5322SOL     OW16254   4.159   2.663   3.108
 5322SOL    HW116255   4.222   2.685   3.183
 5322SOL    HW216256   4.117   2.574   3.125
 5323SOL     OW16257   4.985   2.236   3.148
 5323SOL    HW116258   5.020   2.316   3.197
 5323SOL    HW216259   4.890   2.253   3.120
 5324SOL     OW16260   3.801   3.465   3.203
 5324SOL    HW116261   3.780   3.517   3.121
 5324SOL    HW216262   3.900   3.448   3.208
 5325SOL     OW16263   4.114   2.937   2.312
 5325SOL    HW116264   4.063   3.019   2.283
 5325SOL    HW216265   4.090   2.860   2.253
 5326SOL     OW16266   4.265   2.403   2.724
 5326SOL    HW116267   4.270   2.467   2.648
 5326SOL    HW216268   4.337   2.424   2.790
 5327SOL     OW16269   4.970   3.214   2.254
 5327SOL    HW116270   5.033   3.286   2.283
 5327SOL    HW216271   4.877   3.238   2.284
 5328SOL     OW16272   5.021   3.325   3.010
 5328SOL    HW116273   5.076   3.333   3.093
 5328SOL    HW216274   4.966   3.241   3.016
 5329SOL     OW16275   5.293   2.472   2.353
 5329SOL    HW116276   5.245   2.529   2.420
 5329SOL    HW216277   5.337   2.531   2.285
 5330SOL     OW16278   4.071   3.410   3.177
 5330SOL    HW116279   4.058   3.354   3.095
 5330SOL    HW216280   4.168   3.427   3.191
 5331SOL     OW16281   4.145   2.612   3.467
 5331SOL    HW116282   4.211   2.657   3.407
 5331SOL    HW216283   4.176   2.519   3.487
 5332SOL     OW16284   5.334   2.647   3.547
 5332SOL    HW116285   5.243   2.687   3.544
 5332SOL    HW216286   5.391   2.686   3.474
 5333SOL     OW16287   4.721   2.001   3.613
 5333SOL    HW116288   4.779   2.082   3.599
 5333SOL    HW216289   4.772   1.919   3.586
 5334SOL     OW16290   4.215   1.895   3.617
 5334SOL    HW116291   4.167   1.839   3.550
 5334SOL    HW216292   4.159   1.976   3.639
 5335SOL     OW16293   4.279   2.773   2.892
 5335SOL    HW116294   4.342   2.850   2.904
 5335SOL    HW216295   4.246   2.742   2.981
 5336SOL     OW16296   5.067   2.717   2.882
 5336SOL    HW116297   4.977   2.707   2.840
 5336SOL    HW216298   5.120   2.633   2.869
 5337SOL     OW16299   4.921   2.386   2.124
 5337SOL    HW116300   4.934   2.303   2.178
 5337SOL    HW216301   4.878   2.456   2.181
 5338SOL     OW16302   4.021   2.055   3.108
 5338SOL    HW116303   3.984   2.091   3.194
 5338SOL    HW216304   4.006   1.956   3.105
 5339SOL     OW16305   3.829   3.189   3.151
 5339SOL    HW116306   3.838   3.121   3.223
 5339SOL    HW216307   3.799   3.276   3.191
 5340SOL     OW16308   4.449   2.492   2.904
 5340SOL    HW116309   4.527   2.458   2.851
 5340SOL    HW216310   4.433   2.588   2.882
 5341SOL     OW16311   5.455   2.826   3.717
 5341SOL    HW116312   5.412   2.752   3.665
 5341SOL    HW216313   5.398   2.849   3.795
 5342SOL     OW16314   4.037   1.921   2.491
 5342SOL    HW116315   4.009   2.015   2.508
 5342SOL    HW216316   4.048   1.873   2.578
 5343SOL     OW16317   5.352   2.241   2.220
 5343SOL    HW116318   5.382   2.167   2.280
 5343SOL    HW216319   5.322   2.319   2.276
 5344SOL     OW16320   4.745   2.615   2.819
 5344SOL    HW116321   4.738   2.634   2.917
 5344SOL    HW216322   4.720   2.520   2.802
 5345SOL     OW16323   4.707   3.426   3.583
 5345SOL    HW116324   4.688   3.472   3.497
 5345SOL    HW216325   4.752   3.338   3.566
 5346SOL     OW16326   5.565   3.356   3.457
 5346SOL    HW116327   5.587   3.387   3.364
 5346SOL    HW216328   5.646   3.366   3.515
 5347SOL     OW16329   4.075   2.774   3.676
 5347SOL    HW116330   4.157   2.798   3.728
 5347SOL    HW216331   4.100   2.713   3.601
 5348SOL     OW16332   5.247   2.128   1.990
 5348SOL    HW116333   5.182   2.058   2.018
 5348SOL    HW216334   5.286   2.172   2.072
 5349SOL     OW16335   5.011   2.687   1.885
 5349SOL    HW116336   5.051   2.596   1.893
 5349SOL    HW216337   5.042   2.730   1.800
 5350SOL     OW16338   4.803   3.201   2.721
 5350SOL    HW116339   4.807   3.124   2.658
 5350SOL    HW216340   4.856   3.278   2.685
 5351SOL     OW16341   4.038   2.632   2.829
 5351SOL    HW116342   4.121   2.667   2.872
 5351SOL    HW216343   4.029   2.534   2.846
 5352SOL     OW16344   4.052   2.364   2.878
 5352SOL    HW116345   4.014   2.272   2.865
 5352SOL    HW216346   4.132   2.376   2.818
 5353SOL     OW16347   4.858   2.235   3.557
 5353SOL    HW116348   4.807   2.290   3.622
 5353SOL    HW216349   4.951   2.272   3.548
 5354SOL     OW16350   4.885   2.063   3.341
 5354SOL    HW116351   4.870   2.125   3.418
 5354SOL    HW216352   4.929   2.112   3.266
 5355SOL     OW16353   4.233   3.439   2.779
 5355SOL    HW116354   4.293   3.516   2.801
 5355SOL    HW216355   4.275   3.384   2.706
 5356SOL     OW16356   4.687   2.653   3.084
 5356SOL    HW116357   4.753   2.633   3.156
 5356SOL    HW216358   4.600   2.608   3.106
 5357SOL     OW16359   3.788   2.399   2.977
 5357SOL    HW116360   3.875   2.389   2.930
 5357SOL    HW216361   3.804   2.409   3.075
 5358SOL     OW16362   3.917   2.390   3.595
 5358SOL    HW116363   3.967   2.332   3.530
 5358SOL    HW216364   3.883   2.471   3.548
 5359SOL     OW16365   5.106   2.792   3.513
 5359SOL    HW116366   5.129   2.890   3.514
 5359SOL    HW216367   5.101   2.761   3.419
 5360SOL     OW16368   4.539   2.434   2.232
 5360SOL    HW116369   4.553   2.356   2.171
 5360SOL    HW216370   4.462   2.488   2.199
 5361SOL     OW16371   5.372   2.466   3.036
 5361SOL    HW116372   5.353   2.407   3.114
 5361SOL    HW216373   5.463   2.444   2.999
 5362SOL     OW16374   3.976   3.406   3.589
 5362SOL    HW116375   3.952   3.475   3.657
 5362SOL    HW216376   3.973   3.315   3.631
 5363SOL     OW16377   4.444   2.306   3.105
 5363SOL    HW116378   4.381   2.230   3.088
 5363SOL    HW216379   4.433   2.375   3.033
 5364SOL     OW16380   4.643   3.540   3.337
 5364SOL    HW116381   4.613   3.492   3.255
 5364SOL    HW216382   4.643   3.639   3.320
 5365SOL     OW16383   4.175   2.358   2.046
 5365SOL    HW116384   4.243   2.427   2.071
 5365SOL    HW216385   4.086   2.401   2.034
 5366SOL     OW16386   3.903   3.013   3.353
 5366SOL    HW116387   3.864   2.974   3.436
 5366SOL    HW216388   3.909   2.943   3.282
 5367SOL     OW16389   5.033   2.902   3.078
 5367SOL    HW116390   5.058   2.835   3.008
 5367SOL    HW216391   4.970   2.969   3.038
 5368SOL     OW16392   5.044   2.717   2.156
 5368SOL    HW116393   4.967   2.689   2.214
 5368SOL    HW216394   5.020   2.706   2.060
 5369SOL     OW16395   5.506   3.579   3.021
 5369SOL    HW116396   5.569   3.616   2.953
 5369SOL    HW216397   5.472   3.490   2.991
 5370SOL     OW16398   4.971   3.593   2.962
 5370SOL    HW116399   5.057   3.625   2.922
 5370SOL    HW216400   4.979   3.497   2.985
 5371SOL     OW16401   3.826   3.106   2.900
 5371SOL    HW116402   3.818   3.128   2.998
 5371SOL    HW216403   3.754   3.154   2.850
 5372SOL     OW16404   4.409   3.542   3.607
 5372SOL    HW116405   4.342   3.616   3.597
 5372SOL    HW216406   4.484   3.557   3.543
 5373SOL     OW16407   5.446   2.018   2.357
 5373SOL    HW116408   5.517   2.008   2.287
 5373SOL    HW216409   5.427   1.930   2.400
 5374SOL     OW16410   5.128   3.424   2.350
 5374SOL    HW116411   5.189   3.454   2.277
 5374SOL    HW216412   5.073   3.501   2.382
 5375SOL     OW16413   3.872   3.649   3.709
 5375SOL    HW116414   3.814   3.579   3.750
 5375SOL    HW216415   3.921   3.698   3.781
 5376SOL     OW16416   5.007   2.797   2.531
 5376SOL    HW116417   5.082   2.733   2.547
 5376SOL    HW216418   5.038   2.871   2.472
 5377SOL     OW16419   4.516   3.143   3.284
 5377SOL    HW116420   4.491   3.189   3.369
 5377SOL    HW216421   4.440   3.151   3.219
 5378SOL     OW16422   4.440   3.435   1.998
 5378SOL    HW116423   4.428   3.482   1.911
 5378SOL    HW216424   4.355   3.389   2.024
 5379SOL     OW16425   5.337   3.592   3.248
 5379SOL    HW116426   5.394   3.591   3.166
 5379SOL    HW216427   5.323   3.686   3.279
 5380SOL     OW16428   5.573   2.035   2.829
 5380SOL    HW116429   5.606   1.942   2.810
 5380SOL    HW216430   5.482   2.047   2.790
 5381SOL     OW16431   3.977   2.172   2.575
 5381SOL    HW116432   3.887   2.207   2.547
 5381SOL    HW216433   3.978   2.158   2.674
 5382SOL     OW16434   4.934   3.460   1.894
 5382SOL    HW116435   4.922   3.366   1.926
 5382SOL    HW216436   4.866   3.479   1.823
 5383SOL     OW16437   4.549   2.874   3.246
 5383SOL    HW116438   4.605   2.857   3.165
 5383SOL    HW216439   4.541   2.972   3.261
 5384SOL     OW16440   4.652   2.771   2.158
 5384SOL    HW116441   4.707   2.805   2.082
 5384SOL    HW216442   4.702   2.697   2.204
 5385SOL     OW16443   5.210   3.499   1.908
 5385SOL    HW116444   5.112   3.484   1.895
 5385SOL    HW216445   5.254   3.504   1.818
 5386SOL     OW16446   4.115   3.178   3.347
 5386SOL    HW116447   4.092   3.258   3.292
 5386SOL    HW216448   4.039   3.113   3.344
 5387SOL     OW16449   5.336   3.149   3.148
 5387SOL    HW116450   5.395   3.123   3.225
 5387SOL    HW216451   5.270   3.217   3.179
 5388SOL     OW16452   4.788   2.968   2.584
 5388SOL    HW116453   4.715   2.913   2.626
 5388SOL    HW216454   4.861   2.907   2.552
 5389SOL     OW16455   4.749   2.102   2.827
 5389SOL    HW116456   4.745   2.060   2.737
 5389SOL    HW216457   4.746   2.031   2.897
 5390SOL     OW16458   4.309   3.352   2.344
 5390SOL    HW116459   4.367   3.299   2.282
 5390SOL    HW216460   4.235   3.395   2.292
 5391SOL     OW16461   5.470   2.261   3.244
 5391SOL    HW116462   5.544   2.328   3.237
 5391SOL    HW216463   5.488   2.184   3.182
 5392SOL     OW16464   3.844   2.911   3.610
 5392SOL    HW116465   3.760   2.876   3.651
 5392SOL    HW216466   3.921   2.854   3.639
 5393SOL     OW16467   4.410   2.053   3.362
 5393SOL    HW116468   4.496   2.027   3.318
 5393SOL    HW216469   4.428   2.088   3.454
 5394SOL     OW16470   3.806   2.185   1.886
 5394SOL    HW116471   3.719   2.159   1.845
 5394SOL    HW216472   3.839   2.270   1.844
 5395SOL     OW16473   5.144   2.716   3.252
 5395SOL    HW116474   5.087   2.779   3.200
 5395SOL    HW216475   5.237   2.718   3.216
 5396SOL     OW16476   3.781   2.016   2.154
 5396SOL    HW116477   3.763   2.097   2.097
 5396SOL    HW216478   3.871   1.978   2.130
 5397SOL     OW16479   4.898   3.198   1.981
 5397SOL    HW116480   4.799   3.187   1.973
 5397SOL    HW216481   4.924   3.197   2.078
 5398SOL     OW16482   4.350   2.693   3.298
 5398SOL    HW116483   4.407   2.774   3.287
 5398SOL    HW216484   4.408   2.612   3.306
 5399SOL     OW16485   5.214   3.664   2.852
 5399SOL    HW116486   5.240   3.734   2.786
 5399SOL    HW216487   5.296   3.617   2.884
 5400SOL     OW16488   4.452   2.414   3.559
 5400SOL    HW116489   4.496   2.478   3.622
 5400SOL    HW216490   4.465   2.321   3.594
 5401SOL     OW16491   5.197   3.053   3.494
 5401SOL    HW116492   5.182   3.069   3.591
 5401SOL    HW216493   5.293   3.073   3.471
 5402SOL     OW16494   4.095   3.605   3.436
 5402SOL    HW116495   4.011   3.655   3.414
 5402SOL    HW216496   4.072   3.516   3.476
 5403SOL     OW16497   5.387   2.737   3.115
 5403SOL    HW116498   5.384   2.647   3.073
 5403SOL    HW216499   5.374   2.807   3.044
 5404SOL     OW16500   4.945   2.179   2.321
 5404SOL    HW116501   5.008   2.101   2.313
 5404SOL    HW216502   4.971   2.235   2.399
 5405SOL     OW16503   4.284   2.621   2.543
 5405SOL    HW116504   4.352   2.687   2.512
 5405SOL    HW216505   4.228   2.591   2.466
 5406SOL     OW16506   5.471   2.230   3.516
 5406SOL    HW116507   5.464   2.246   3.418
 5406SOL    HW216508   5.396   2.169   3.545
 5407SOL     OW16509   5.479   2.786   3.366
 5407SOL    HW116510   5.465   2.882   3.390
 5407SOL    HW216511   5.451   2.771   3.271
 5408SOL     OW16512   4.611   3.238   1.911
 5408SOL    HW116513   4.548   3.287   1.971
 5408SOL    HW216514   4.636   3.296   1.834
 5409SOL     OW16515   4.397   3.651   2.794
 5409SOL    HW116516   4.371   3.745   2.811
 5409SOL    HW216517   4.497   3.643   2.792
 5410SOL     OW16518   4.593   2.828   2.722
 5410SOL    HW116519   4.647   2.752   2.758
 5410SOL    HW216520   4.551   2.878   2.798
 5411SOL     OW16521   4.794   2.842   1.943
 5411SOL    HW116522   4.770   2.904   1.867
 5411SOL    HW216523   4.875   2.789   1.918
 5412SOL     OW16524   5.559   3.422   2.707
 5412SOL    HW116525   5.482   3.409   2.644
 5412SOL    HW216526   5.558   3.351   2.777
 5413SOL     OW16527   3.940   3.151   3.705
 5413SOL    HW116528   3.904   3.073   3.654
 5413SOL    HW216529   3.884   3.166   3.787
 5414SOL     OW16530   4.414   3.276   3.503
 5414SOL    HW116531   4.331   3.228   3.530
 5414SOL    HW216532   4.412   3.370   3.538
 5415SOL     OW16533   5.526   2.044   3.098
 5415SOL    HW116534   5.541   1.948   3.122
 5415SOL    HW216535   5.544   2.057   3.000
 5416SOL     OW16536   4.158   2.286   2.391
 5416SOL    HW116537   4.191   2.218   2.326
 5416SOL    HW216538   4.100   2.241   2.459
 5417SOL     OW16539   5.410   3.337   2.952
 5417SOL    HW116540   5.332   3.323   2.892
 5417SOL    HW216541   5.410   3.268   3.024
 5418SOL     OW16542   4.069   2.410   3.152
 5418SOL    HW116543   4.122   2.351   3.214
 5418SOL    HW216544   4.079   2.377   3.058
 5419SOL     OW16545   4.559   3.470   2.528
 5419SOL    HW116546   4.539   3.516   2.441
 5419SOL    HW216547   4.486   3.404   2.548
 5420SOL     OW16548   5.151   2.096   2.978
 5420SOL    HW116549   5.166   2.002   3.008
 5420SOL    HW216550   5.098   2.145   3.048
 5421SOL     OW16551   4.734   1.877   2.994
 5421SOL    HW116552   4.669   1.816   2.948
 5421SOL    HW216553   4.825   1.835   2.995
 5422SOL     OW16554   4.485   3.184   2.222
 5422SOL    HW116555   4.469   3.087   2.207
 5422SOL    HW216556   4.582   3.199   2.242
 5423SOL     OW16557   4.352   3.426   3.156
 5423SOL    HW116558   4.347   3.514   3.204
 5423SOL    HW216559   4.442   3.415   3.115
 5424SOL     OW16560   5.085   1.906   2.040
 5424SOL    HW116561   5.131   1.836   1.985
 5424SOL    HW216562   4.990   1.878   2.057
 5425SOL     OW16563   5.009   2.329   2.540
 5425SOL    HW116564   4.958   2.416   2.541
 5425SOL    HW216565   5.011   2.291   2.632
 5426SOL     OW16566   5.312   2.062   2.753
 5426SOL    HW116567   5.255   2.086   2.832
 5426SOL    HW216568   5.314   2.139   2.689
 5427SOL     OW16569   3.823   2.875   2.218
 5427SOL    HW116570   3.901   2.841   2.166
 5427SOL    HW216571   3.754   2.802   2.226
 5428SOL     OW16572   4.616   3.512   2.190
 5428SOL    HW116573   4.554   3.479   2.118
 5428SOL    HW216574   4.574   3.590   2.236
 5429SOL     OW16575   3.937   2.476   3.858
 5429SOL    HW116576   3.844   2.476   3.896
 5429SOL    HW216577   3.933   2.462   3.759
 5430SOL     OW16578   3.945   2.145   4.719
 5430SOL    HW116579   3.978   2.111   4.807
 5430SOL    HW216580   3.852   2.111   4.702
 5431SOL     OW16581   3.722   2.250   4.358
 5431SOL    HW116582   3.640   2.279   4.408
 5431SOL    HW216583   3.700   2.169   4.303
 5432SOL     OW16584   4.295   3.167   4.920
 5432SOL    HW116585   4.207   3.166   4.872
 5432SOL    HW216586   4.314   3.260   4.952
 5433SOL     OW16587   5.293   3.382   4.431
 5433SOL    HW116588   5.249   3.355   4.517
 5433SOL    HW216589   5.224   3.390   4.359
 5434SOL     OW16590   4.859   2.568   4.415
 5434SOL    HW116591   4.910   2.652   4.399
 5434SOL    HW216592   4.807   2.576   4.500
 5435SOL     OW16593   5.478   2.466   3.952
 5435SOL    HW116594   5.464   2.460   3.853
 5435SOL    HW216595   5.451   2.380   3.995
 5436SOL     OW16596   4.457   2.999   4.769
 5436SOL    HW116597   4.393   3.036   4.836
 5436SOL    HW216598   4.503   3.074   4.722
 5437SOL     OW16599   4.600   2.618   5.551
 5437SOL    HW116600   4.583   2.680   5.627
 5437SOL    HW216601   4.623   2.671   5.469
 5438SOL     OW16602   4.407   2.858   4.372
 5438SOL    HW116603   4.479   2.850   4.442
 5438SOL    HW216604   4.333   2.916   4.406
 5439SOL     OW16605   4.435   3.026   5.545
 5439SOL    HW116606   4.488   3.104   5.579
 5439SOL    HW216607   4.352   3.059   5.501
 5440SOL     OW16608   4.053   3.278   4.789
 5440SOL    HW116609   3.976   3.233   4.745
 5440SOL    HW216610   4.103   3.332   4.721
 5441SOL     OW16611   5.180   3.366   5.086
 5441SOL    HW116612   5.238   3.447   5.093
 5441SOL    HW216613   5.107   3.371   5.155
 5442SOL     OW16614   4.176   2.247   5.192
 5442SOL    HW116615   4.258   2.192   5.205
 5442SOL    HW216616   4.096   2.194   5.218
 5443SOL     OW16617   5.327   2.302   4.473
 5443SOL    HW116618   5.261   2.321   4.400
 5443SOL    HW216619   5.324   2.375   4.541
 5444SOL     OW16620   3.949   3.580   4.195
 5444SOL    HW116621   3.970   3.657   4.255
 5444SOL    HW216622   4.024   3.568   4.130
 5445SOL     OW16623   4.862   3.198   5.421
 5445SOL    HW116624   4.914   3.196   5.506
 5445SOL    HW216625   4.807   3.115   5.414
 5446SOL     OW16626   3.958   3.313   4.270
 5446SOL    HW116627   3.940   3.411   4.267
 5446SOL    HW216628   3.898   3.270   4.337
 5447SOL     OW16629   4.000   2.951   4.622
 5447SOL    HW116630   3.999   2.857   4.654
 5447SOL    HW216631   3.939   3.007   4.678
 5448SOL     OW16632   4.311   3.662   5.146
 5448SOL    HW116633   4.229   3.637   5.198
 5448SOL    HW216634   4.345   3.750   5.179
 5449SOL     OW16635   4.303   2.852   3.872
 5449SOL    HW116636   4.351   2.897   3.796
 5449SOL    HW216637   4.344   2.880   3.958
 5450SOL     OW16638   5.320   1.988   5.194
 5450SOL    HW116639   5.346   2.068   5.139
 5450SOL    HW216640   5.300   2.017   5.287
 5451SOL     OW16641   3.838   2.526   4.290
 5451SOL    HW116642   3.811   2.431   4.308
 5451SOL    HW216643   3.834   2.578   4.375
 5452SOL     OW16644   5.569   3.616   4.055
 5452SOL    HW116645   5.639   3.590   4.122
 5452SOL    HW216646   5.581   3.712   4.031
 5453SOL     OW16647   3.753   3.452   3.848
 5453SOL    HW116648   3.747   3.354   3.867
 5453SOL    HW216649   3.736   3.504   3.931
 5454SOL     OW16650   5.422   2.783   4.371
 5454SOL    HW116651   5.498   2.724   4.343
 5454SOL    HW216652   5.393   2.840   4.294
 5455SOL     OW16653   5.371   2.966   4.161
 5455SOL    HW116654   5.460   2.962   4.115
 5455SOL    HW216655   5.375   3.035   4.233
 5456SOL     OW16656   3.849   2.605   5.308
 5456SOL    HW116657   3.945   2.634   5.306
 5456SOL    HW216658   3.790   2.686   5.303
 5457SOL     OW16659   4.337   3.256   4.455
 5457SOL    HW116660   4.293   3.167   4.466
 5457SOL    HW216661   4.325   3.288   4.361
 5458SOL     OW16662   5.007   3.093   5.144
 5458SOL    HW116663   5.032   3.022   5.078
 5458SOL    HW216664   5.069   3.089   5.222
 5459SOL     OW16665   4.545   1.877   4.233
 5459SOL    HW116666   4.591   1.963   4.209
 5459SOL    HW216667   4.447   1.893   4.238
 5460SOL     OW16668   3.914   2.819   5.008
 5460SOL    HW116669   4.004   2.778   4.994
 5460SOL    HW216670   3.848   2.774   4.947
 5461SOL     OW16671   5.256   2.869   3.928
 5461SOL    HW116672   5.183   2.807   3.957
 5461SOL    HW216673   5.302   2.906   4.009
 5462SOL     OW16674   4.895   3.676   5.345
 5462SOL    HW116675   4.908   3.747   5.277
 5462SOL    HW216676   4.922   3.587   5.307
 5463SOL     OW16677   4.075   2.117   5.560
 5463SOL    HW116678   4.120   2.198   5.598
 5463SOL    HW216679   3.976   2.123   5.578
 5464SOL     OW16680   5.189   3.283   4.665
 5464SOL    HW116681   5.124   3.303   4.738
 5464SOL    HW216682   5.180   3.187   4.638
 5465SOL     OW16683   5.369   3.624   4.296
 5465SOL    HW116684   5.350   3.591   4.204
 5465SOL    HW216685   5.353   3.550   4.362
 5466SOL     OW16686   4.316   2.578   4.000
 5466SOL    HW116687   4.320   2.665   3.951
 5466SOL    HW216688   4.247   2.583   4.071
 5467SOL     OW16689   5.002   2.233   4.659
 5467SOL    HW116690   4.909   2.198   4.665
 5467SOL    HW216691   5.062   2.180   4.719
 5468SOL     OW16692   5.306   3.536   4.034
 5468SOL    HW116693   5.403   3.559   4.030
 5468SOL    HW216694   5.272   3.519   3.941
 5469SOL     OW16695   4.513   2.474   5.169
 5469SOL    HW116696   4.489   2.449   5.263
 5469SOL    HW216697   4.482   2.403   5.107
 5470SOL     OW16698   5.117   2.329   5.399
 5470SOL    HW116699   5.120   2.384   5.483
 5470SOL    HW216700   5.170   2.245   5.412
 5471SOL     OW16701   4.675   2.746   5.313
 5471SOL    HW116702   4.732   2.675   5.273
 5471SOL    HW216703   4.620   2.790   5.242
 5472SOL     OW16704   4.721   2.261   4.943
 5472SOL    HW116705   4.627   2.279   4.974
 5472SOL    HW216706   4.718   2.212   4.856
 5473SOL     OW16707   4.776   2.561   4.147
 5473SOL    HW116708   4.799   2.558   4.244
 5473SOL    HW216709   4.689   2.514   4.132
 5474SOL     OW16710   3.812   2.693   4.507
 5474SOL    HW116711   3.899   2.679   4.555
 5474SOL    HW216712   3.764   2.771   4.547
 5475SOL     OW16713   3.850   3.741   5.316
 5475SOL    HW116714   3.859   3.715   5.412
 5475SOL    HW216715   3.765   3.703   5.279
 5476SOL     OW16716   4.619   2.214   3.923
 5476SOL    HW116717   4.663   2.281   3.862
 5476SOL    HW216718   4.618   2.125   3.879
 5477SOL     OW16719   5.414   2.427   5.557
 5477SOL    HW116720   5.383   2.507   5.506
 5477SOL    HW216721   5.445   2.357   5.494
 5478SOL     OW16722   5.103   3.006   4.253
 5478SOL    HW116723   5.188   2.991   4.204
 5478SOL    HW216724   5.048   3.074   4.206
 5479SOL     OW16725   4.271   2.028   4.632
 5479SOL    HW116726   4.276   2.058   4.727
 5479SOL    HW216727   4.273   2.108   4.572
 5480SOL     OW16728   4.716   3.309   4.186
 5480SOL    HW116729   4.687   3.390   4.134
 5480SOL    HW216730   4.695   3.322   4.283
 5481SOL     OW16731   4.079   3.678   4.601
 5481SOL    HW116732   4.124   3.589   4.606
 5481SOL    HW216733   4.146   3.750   4.620
 5482SOL     OW16734   5.527   2.916   4.593
 5482SOL    HW116735   5.476   2.885   4.513
 5482SOL    HW216736   5.465   2.923   4.671
 5483SOL     OW16737   4.947   3.398   5.238
 5483SOL    HW116738   4.938   3.323   5.303
 5483SOL    HW216739   4.878   3.388   5.166
 5484SOL     OW16740   4.041   2.823   3.982
 5484SOL    HW116741   4.129   2.847   3.941
 5484SOL    HW216742   4.005   2.741   3.937
 5485SOL     OW16743   5.210   2.620   4.443
 5485SOL    HW116744   5.206   2.573   4.532
 5485SOL    HW216745   5.292   2.676   4.439
 5486SOL     OW16746   4.187   3.134   5.460
 5486SOL    HW116747   4.163   3.140   5.364
 5486SOL    HW216748   4.104   3.129   5.516
 5487SOL     OW16749   4.848   3.637   3.948
 5487SOL    HW116750   4.767   3.603   3.994
 5487SOL    HW216751   4.877   3.572   3.877
 5488SOL     OW16752   3.927   2.128   5.225
 5488SOL    HW116753   3.846   2.187   5.230
 5488SOL    HW216754   3.905   2.039   5.265
 5489SOL     OW16755   5.347   3.246   3.811
 5489SOL    HW116756   5.309   3.338   3.798
 5489SOL    HW216757   5.277   3.178   3.792
 5490SOL     OW16758   4.186   3.598   4.040
 5490SOL    HW116759   4.231   3.658   4.106
 5490SOL    HW216760   4.255   3.558   3.980
 5491SOL     OW16761   5.124   1.965   4.168
 5491SOL    HW116762   5.114   1.939   4.072
 5491SOL    HW216763   5.221   1.975   4.190
 5492SOL     OW16764   3.982   3.652   4.945
 5492SOL    HW116765   4.032   3.578   4.990
 5492SOL    HW216766   3.966   3.629   4.849
 5493SOL     OW16767   4.662   3.565   4.618
 5493SOL    HW116768   4.746   3.521   4.649
 5493SOL    HW216769   4.622   3.512   4.543
 5494SOL     OW16770   4.121   2.547   4.198
 5494SOL    HW116771   4.138   2.450   4.212
 5494SOL    HW216772   4.024   2.567   4.213
 5495SOL     OW16773   5.245   2.083   5.457
 5495SOL    HW116774   5.256   2.106   5.554
 5495SOL    HW216775   5.180   2.008   5.448
 5496SOL     OW16776   4.372   1.974   3.825
 5496SOL    HW116777   4.435   1.900   3.851
 5496SOL    HW216778   4.313   1.943   3.751
 5497SOL     OW16779   4.490   2.142   5.474
 5497SOL    HW116780   4.575   2.089   5.470
 5497SOL    HW216781   4.446   2.127   5.563
 5498SOL     OW16782   4.596   3.376   4.917
 5498SOL    HW116783   4.576   3.337   4.827
 5498SOL    HW216784   4.668   3.322   4.961
 5499SOL     OW16785   5.060   2.451   5.159
 5499SOL    HW116786   5.091   2.415   5.247
 5499SOL    HW216787   5.097   2.544   5.147
 5500SOL     OW16788   4.545   3.244   4.669
 5500SOL    HW116789   4.636   3.235   4.628
 5500SOL    HW216790   4.477   3.256   4.596
 5501SOL     OW16791   4.650   2.370   4.617
 5501SOL    HW116792   4.624   2.362   4.521
 5501SOL    HW216793   4.681   2.282   4.651
 5502SOL     OW16794   4.274   1.927   4.213
 5502SOL    HW116795   4.193   1.925   4.273
 5502SOL    HW216796   4.268   2.006   4.153
 5503SOL     OW16797   5.147   3.064   3.765
 5503SOL    HW116798   5.181   2.988   3.820
 5503SOL    HW216799   5.058   3.093   3.800
 5504SOL     OW16800   4.011   1.910   3.910
 5504SOL    HW116801   4.061   1.981   3.861
 5504SOL    HW216802   4.077   1.847   3.953
 5505SOL     OW16803   4.675   2.116   4.177
 5505SOL    HW116804   4.644   2.155   4.090
 5505SOL    HW216805   4.773   2.129   4.187
 5506SOL     OW16806   4.801   2.549   5.174
 5506SOL    HW116807   4.727   2.482   5.181
 5506SOL    HW216808   4.889   2.501   5.172
 5507SOL     OW16809   4.939   3.435   4.519
 5507SOL    HW116810   4.952   3.504   4.447
 5507SOL    HW216811   5.012   3.444   4.587
 5508SOL     OW16812   4.194   3.018   4.445
 5508SOL    HW116813   4.130   2.994   4.517
 5508SOL    HW216814   4.149   3.009   4.356
 5509SOL     OW16815   4.982   3.653   4.337
 5509SOL    HW116816   5.035   3.715   4.280
 5509SOL    HW216817   4.907   3.703   4.380
 5510SOL     OW16818   4.748   2.392   3.757
 5510SOL    HW116819   4.703   2.478   3.734
 5510SOL    HW216820   4.816   2.408   3.829
 5511SOL     OW16821   3.816   2.420   5.113
 5511SOL    HW116822   3.910   2.414   5.081
 5511SOL    HW216823   3.808   2.489   5.185
 5512SOL     OW16824   4.283   2.085   4.902
 5512SOL    HW116825   4.332   2.014   4.953
 5512SOL    HW216826   4.186   2.084   4.929
 5513SOL     OW16827   4.589   2.320   4.356
 5513SOL    HW116828   4.543   2.382   4.293
 5513SOL    HW216829   4.620   2.239   4.307
 5514SOL     OW16830   4.743   1.915   4.464
 5514SOL    HW116831   4.681   1.916   4.385
 5514SOL    HW216832   4.717   1.841   4.526
 5515SOL     OW16833   5.175   3.021   4.583
 5515SOL    HW116834   5.097   2.958   4.584
 5515SOL    HW216835   5.208   3.032   4.490
 5516SOL     OW16836   5.194   2.474   4.685
 5516SOL    HW116837   5.128   2.398   4.687
 5516SOL    HW216838   5.254   2.467   4.765
 5517SOL     OW16839   5.581   2.669   4.101
 5517SOL    HW116840   5.628   2.616   4.172
 5517SOL    HW216841   5.541   2.606   4.034
 5518SOL     OW16842   4.212   3.283   3.873
 5518SOL    HW116843   4.136   3.252   3.930
 5518SOL    HW216844   4.209   3.234   3.786
 5519SOL     OW16845   5.391   3.132   4.369
 5519SOL    HW116846   5.491   3.128   4.381
 5519SOL    HW216847   5.360   3.225   4.386
 5520SOL     OW16848   5.113   2.437   3.794
 5520SOL    HW116849   5.050   2.413   3.868
 5520SOL    HW216850   5.207   2.416   3.822
 5521SOL     OW16851   4.253   2.125   4.028
 5521SOL    HW116852   4.303   2.074   3.958
 5521SOL    HW216853   4.222   2.212   3.990
 5522SOL     OW16854   5.474   3.097   5.267
 5522SOL    HW116855   5.564   3.056   5.254
 5522SOL    HW216856   5.484   3.190   5.303
 5523SOL     OW16857   4.772   3.212   5.061
 5523SOL    HW116858   4.690   3.181   5.109
 5523SOL    HW216859   4.853   3.170   5.103
 5524SOL     OW16860   5.329   3.492   5.377
 5524SOL    HW116861   5.320   3.531   5.285
 5524SOL    HW216862   5.413   3.437   5.382
 5525SOL     OW16863   4.869   3.093   4.829
 5525SOL    HW116864   4.807   3.125   4.900
 5525SOL    HW216865   4.835   3.123   4.740
 5526SOL     OW16866   5.350   2.959   4.802
 5526SOL    HW116867   5.345   3.025   4.877
 5526SOL    HW216868   5.276   2.977   4.737
 5527SOL     OW16869   4.649   1.951   5.112
 5527SOL    HW116870   4.670   1.930   5.017
 5527SOL    HW216871   4.728   1.995   5.155
 5528SOL     OW16872   4.705   2.972   5.458
 5528SOL    HW116873   4.611   2.993   5.484
 5528SOL    HW216874   4.707   2.890   5.400
 5529SOL     OW16875   4.441   2.922   4.100
 5529SOL    HW116876   4.423   2.901   4.196
 5529SOL    HW216877   4.519   2.868   4.068
 5530SOL     OW16878   4.149   2.680   4.980
 5530SOL    HW116879   4.222   2.693   5.047
 5530SOL    HW216880   4.112   2.587   4.989
 5531SOL     OW16881   4.985   2.236   5.009
 5531SOL    HW116882   5.019   2.316   5.057
 5531SOL    HW216883   4.890   2.252   4.982
 5532SOL     OW16884   3.802   3.432   5.078
 5532SOL    HW116885   3.766   3.502   5.017
 5532SOL    HW216886   3.901   3.429   5.072
 5533SOL     OW16887   4.055   2.991   4.208
 5533SOL    HW116888   4.054   3.071   4.149
 5533SOL    HW216889   4.057   2.908   4.153
 5534SOL     OW16890   4.266   2.404   4.587
 5534SOL    HW116891   4.280   2.464   4.508
 5534SOL    HW216892   4.336   2.423   4.656
 5535SOL     OW16893   4.968   3.219   4.118
 5535SOL    HW116894   5.030   3.291   4.150
 5535SOL    HW216895   4.875   3.239   4.147
 5536SOL     OW16896   5.020   3.327   4.870
 5536SOL    HW116897   5.075   3.334   4.953
 5536SOL    HW216898   4.966   3.242   4.872
 5537SOL     OW16899   5.292   2.474   4.213
 5537SOL    HW116900   5.245   2.527   4.284
 5537SOL    HW216901   5.334   2.537   4.148
 5538SOL     OW16902   4.072   3.393   5.030
 5538SOL    HW116903   4.058   3.345   4.943
 5538SOL    HW216904   4.170   3.408   5.043
 5539SOL     OW16905   4.141   2.607   5.322
 5539SOL    HW116906   4.210   2.651   5.264
 5539SOL    HW216907   4.173   2.515   5.346
 5540SOL     OW16908   5.334   2.641   5.408
 5540SOL    HW116909   5.243   2.683   5.407
 5540SOL    HW216910   5.390   2.681   5.335
 5541SOL     OW16911   4.723   1.998   5.474
 5541SOL    HW116912   4.780   2.080   5.461
 5541SOL    HW216913   4.773   1.917   5.444
 5542SOL     OW16914   4.216   1.896   5.469
 5542SOL    HW116915   4.165   1.837   5.406
 5542SOL    HW216916   4.162   1.978   5.489
 5543SOL     OW16917   4.311   2.735   4.760
 5543SOL    HW116918   4.348   2.828   4.759
 5543SOL    HW216919   4.250   2.725   4.839
 5544SOL     OW16920   5.063   2.717   4.742
 5544SOL    HW116921   4.971   2.703   4.706
 5544SOL    HW216922   5.117   2.633   4.729
 5545SOL     OW16923   4.918   2.387   3.986
 5545SOL    HW116924   4.932   2.305   4.040
 5545SOL    HW216925   4.875   2.458   4.042
 5546SOL     OW16926   4.019   2.057   4.969
 5546SOL    HW116927   3.985   2.092   5.057
 5546SOL    HW216928   4.005   1.958   4.965
 5547SOL     OW16929   3.778   3.171   4.994
 5547SOL    HW116930   3.809   3.109   5.066
 5547SOL    HW216931   3.780   3.265   5.028
 5548SOL     OW16932   4.447   2.491   4.775
 5548SOL    HW116933   4.523   2.473   4.713
 5548SOL    HW216934   4.412   2.584   4.758
 5549SOL     OW16935   5.463   2.829   5.560
 5549SOL    HW116936   5.418   2.750   5.517
 5549SOL    HW216937   5.409   2.860   5.638
 5550SOL     OW16938   4.036   1.921   4.354
 5550SOL    HW116939   4.008   2.015   4.371
 5550SOL    HW216940   4.047   1.873   4.441
 5551SOL     OW16941   5.353   2.243   4.081
 5551SOL    HW116942   5.382   2.169   4.141
 5551SOL    HW216943   5.322   2.321   4.137
 5552SOL     OW16944   4.748   2.617   4.680
 5552SOL    HW116945   4.738   2.638   4.777
 5552SOL    HW216946   4.721   2.523   4.663
 5553SOL     OW16947   4.701   3.417   5.438
 5553SOL    HW116948   4.682   3.467   5.353
 5553SOL    HW216949   4.754   3.335   5.417
 5554SOL     OW16950   5.568   3.354   5.321
 5554SOL    HW116951   5.592   3.388   5.230
 5554SOL    HW216952   5.648   3.363   5.381
 5555SOL     OW16953   4.080   2.779   5.523
 5555SOL    HW116954   4.163   2.803   5.573
 5555SOL    HW216955   4.102   2.712   5.452
 5556SOL     OW16956   5.249   2.129   3.852
 5556SOL    HW116957   5.183   2.059   3.880
 5556SOL    HW216958   5.287   2.173   3.934
 5557SOL     OW16959   5.009   2.686   3.746
 5557SOL    HW116960   5.049   2.595   3.756
 5557SOL    HW216961   5.041   2.728   3.661
 5558SOL     OW16962   4.797   3.204   4.582
 5558SOL    HW116963   4.803   3.125   4.521
 5558SOL    HW216964   4.852   3.279   4.546
 5559SOL     OW16965   4.038   2.670   4.666
 5559SOL    HW116966   4.135   2.693   4.661
 5559SOL    HW216967   4.027   2.575   4.697
 5560SOL     OW16968   4.043   2.393   4.733
 5560SOL    HW116969   4.005   2.300   4.725
 5560SOL    HW216970   4.125   2.400   4.676
 5561SOL     OW16971   4.861   2.232   5.415
 5561SOL    HW116972   4.809   2.290   5.477
 5561SOL    HW216973   4.953   2.268   5.405
 5562SOL     OW16974   4.886   2.061   5.200
 5562SOL    HW116975   4.871   2.122   5.278
 5562SOL    HW216976   4.930   2.112   5.126
 5563SOL     OW16977   3.750   3.169   3.918
 5563SOL    HW116978   3.657   3.192   3.889
 5563SOL    HW216979   3.750   3.077   3.957
 5564SOL     OW16980   3.817   3.641   4.670
 5564SOL    HW116981   3.780   3.561   4.622
 5564SOL    HW216982   3.910   3.659   4.638
 5565SOL     OW16983   4.214   3.437   4.627
 5565SOL    HW116984   4.285   3.502   4.654
 5565SOL    HW216985   4.253   3.370   4.563
 5566SOL     OW16986   4.688   2.654   4.945
 5566SOL    HW116987   4.749   2.631   5.021
 5566SOL    HW216988   4.600   2.608   4.958
 5567SOL     OW16989   3.764   2.424   4.841
 5567SOL    HW116990   3.847   2.414   4.786
 5567SOL    HW216991   3.788   2.422   4.938
 5568SOL     OW16992   3.913   2.388   5.464
 5568SOL    HW116993   3.967   2.329   5.404
 5568SOL    HW216994   3.879   2.466   5.413
 5569SOL     OW16995   5.109   2.794   5.377
 5569SOL    HW116996   5.132   2.891   5.376
 5569SOL    HW216997   5.101   2.761   5.283
 5570SOL     OW16998   4.541   2.436   4.088
 5570SOL    HW116999   4.551   2.356   4.029
 5570SOL    HW217000   4.462   2.490   4.059
 5571SOL     OW17001   5.371   2.467   4.898
 5571SOL    HW117002   5.352   2.408   4.976
 5571SOL    HW217003   5.462   2.445   4.862
 5572SOL     OW17004   3.959   3.405   5.449
 5572SOL    HW117005   3.939   3.480   5.512
 5572SOL    HW217006   3.964   3.319   5.500
 5573SOL     OW17007   4.444   2.304   4.970
 5573SOL    HW117008   4.381   2.228   4.951
 5573SOL    HW217009   4.435   2.373   4.898
 5574SOL     OW17010   4.636   3.541   5.199
 5574SOL    HW117011   4.611   3.494   5.115
 5574SOL    HW217012   4.640   3.639   5.182
 5575SOL     OW17013   4.178   2.355   3.903
 5575SOL    HW117014   4.244   2.427   3.930
 5575SOL    HW217015   4.087   2.395   3.895
 5576SOL     OW17016   3.861   3.002   5.199
 5576SOL    HW117017   3.866   2.963   5.291
 5576SOL    HW217018   3.882   2.931   5.132
 5577SOL     OW17019   5.035   2.904   4.938
 5577SOL    HW117020   5.058   2.835   4.869
 5577SOL    HW217021   4.973   2.971   4.898
 5578SOL     OW17022   5.045   2.719   4.018
 5578SOL    HW117023   4.970   2.691   4.078
 5578SOL    HW217024   5.017   2.706   3.923
 5579SOL     OW17025   5.505   3.580   4.882
 5579SOL    HW117026   5.569   3.616   4.814
 5579SOL    HW217027   5.473   3.490   4.853
 5580SOL     OW17028   4.964   3.594   4.821
 5580SOL    HW117029   5.051   3.627   4.782
 5580SOL    HW217030   4.974   3.498   4.847
 5581SOL     OW17031   3.814   3.124   4.731
 5581SOL    HW117032   3.796   3.140   4.828
 5581SOL    HW217033   3.744   3.063   4.694
 5582SOL     OW17034   4.406   3.542   5.470
 5582SOL    HW117035   4.340   3.617   5.462
 5582SOL    HW217036   4.482   3.558   5.407
 5583SOL     OW17037   5.444   2.018   4.218
 5583SOL    HW117038   5.516   2.008   4.150
 5583SOL    HW217039   5.426   1.930   4.262
 5584SOL     OW17040   5.121   3.434   4.216
 5584SOL    HW117041   5.182   3.466   4.143
 5584SOL    HW217042   5.063   3.509   4.248
 5585SOL     OW17043   3.879   3.649   5.569
 5585SOL    HW117044   3.818   3.585   5.616
 5585SOL    HW217045   3.935   3.697   5.636
 5586SOL     OW17046   5.007   2.794   4.389
 5586SOL    HW117047   5.082   2.731   4.406
 5586SOL    HW217048   5.039   2.870   4.332
 5587SOL     OW17049   4.517   3.144   5.145
 5587SOL    HW117050   4.488   3.189   5.230
 5587SOL    HW217051   4.446   3.154   5.076
 5588SOL     OW17052   4.389   3.487   3.879
 5588SOL    HW117053   4.407   3.508   3.783
 5588SOL    HW217054   4.332   3.405   3.885
 5589SOL     OW17055   5.337   3.593   5.109
 5589SOL    HW117056   5.394   3.593   5.027
 5589SOL    HW217057   5.324   3.687   5.141
 5590SOL     OW17058   5.573   2.035   4.690
 5590SOL    HW117059   5.605   1.942   4.671
 5590SOL    HW217060   5.481   2.047   4.652
 5591SOL     OW17061   3.975   2.172   4.438
 5591SOL    HW117062   3.887   2.210   4.410
 5591SOL    HW217063   3.979   2.167   4.538
 5592SOL     OW17064   4.932   3.458   3.758
 5592SOL    HW117065   4.923   3.364   3.792
 5592SOL    HW217066   4.863   3.474   3.688
 5593SOL     OW17067   4.547   2.873   5.108
 5593SOL    HW117068   4.597   2.855   5.023
 5593SOL    HW217069   4.541   2.972   5.122
 5594SOL     OW17070   4.646   2.773   4.011
 5594SOL    HW117071   4.706   2.809   3.940
 5594SOL    HW217072   4.694   2.702   4.062
 5595SOL     OW17073   5.208   3.499   3.770
 5595SOL    HW117074   5.110   3.483   3.758
 5595SOL    HW217075   5.253   3.504   3.680
 5596SOL     OW17076   4.087   3.167   5.213
 5596SOL    HW117077   4.080   3.246   5.153
 5596SOL    HW217078   4.007   3.108   5.200
 5597SOL     OW17079   5.339   3.151   5.011
 5597SOL    HW117080   5.395   3.124   5.090
 5597SOL    HW217081   5.271   3.219   5.040
 5598SOL     OW17082   4.794   2.971   4.448
 5598SOL    HW117083   4.715   2.921   4.483
 5598SOL    HW217084   4.863   2.905   4.415
 5599SOL     OW17085   4.750   2.103   4.690
 5599SOL    HW117086   4.747   2.061   4.599
 5599SOL    HW217087   4.746   2.032   4.759
 5600SOL     OW17088   4.330   3.349   4.201
 5600SOL    HW117089   4.384   3.293   4.138
 5600SOL    HW217090   4.251   3.386   4.153
 5601SOL     OW17091   5.470   2.260   5.108
 5601SOL    HW117092   5.543   2.327   5.101
 5601SOL    HW217093   5.488   2.184   5.045
 5602SOL     OW17094   3.999   3.206   4.032
 5602SOL    HW117095   3.909   3.197   3.990
 5602SOL    HW217096   3.990   3.251   4.120
 5603SOL     OW17097   3.851   2.912   5.458
 5603SOL    HW117098   3.767   2.882   5.502
 5603SOL    HW217099   3.928   2.858   5.491
 5604SOL     OW17100   4.409   2.052   5.221
 5604SOL    HW117101   4.496   2.026   5.178
 5604SOL    HW217102   4.426   2.087   5.313
 5605SOL     OW17103   3.806   2.186   3.745
 5605SOL    HW117104   3.723   2.162   3.695
 5605SOL    HW217105   3.842   2.272   3.709
 5606SOL     OW17106   5.144   2.717   5.115
 5606SOL    HW117107   5.086   2.780   5.062
 5606SOL    HW217108   5.237   2.719   5.078
 5607SOL     OW17109   3.780   2.016   4.014
 5607SOL    HW117110   3.763   2.096   3.957
 5607SOL    HW217111   3.870   1.978   3.992
 5608SOL     OW17112   4.902   3.196   3.846
 5608SOL    HW117113   4.806   3.171   3.838
 5608SOL    HW217114   4.928   3.197   3.942
 5609SOL     OW17115   4.350   2.692   5.160
 5609SOL    HW117116   4.408   2.772   5.147
 5609SOL    HW217117   4.407   2.610   5.167
 5610SOL     OW17118   5.211   3.663   4.716
 5610SOL    HW117119   5.233   3.732   4.648
 5610SOL    HW217120   5.295   3.620   4.749
 5611SOL     OW17121   4.448   2.417   5.423
 5611SOL    HW117122   4.495   2.481   5.484
 5611SOL    HW217123   4.465   2.323   5.452
 5612SOL     OW17124   5.198   3.054   5.352
 5612SOL    HW117125   5.182   3.073   5.449
 5612SOL    HW217126   5.293   3.074   5.330
 5613SOL     OW17127   4.086   3.599   5.290
 5613SOL    HW117128   4.003   3.654   5.278
 5613SOL    HW217129   4.061   3.512   5.333
 5614SOL     OW17130   5.387   2.738   4.977
 5614SOL    HW117131   5.384   2.647   4.935
 5614SOL    HW217132   5.374   2.808   4.907
 5615SOL     OW17133   4.945   2.180   4.182
 5615SOL    HW117134   5.008   2.102   4.175
 5615SOL    HW217135   4.971   2.236   4.261
 5616SOL     OW17136   4.307   2.597   4.396
 5616SOL    HW117137   4.350   2.687   4.384
 5616SOL    HW217138   4.240   2.583   4.323
 5617SOL     OW17139   5.470   2.225   5.381
 5617SOL    HW117140   5.464   2.243   5.283
 5617SOL    HW217141   5.394   2.166   5.409
 5618SOL     OW17142   5.481   2.783   5.229
 5618SOL    HW117143   5.464   2.878   5.256
 5618SOL    HW217144   5.452   2.770   5.134
 5619SOL     OW17145   4.600   3.222   3.780
 5619SOL    HW117146   4.554   3.241   3.867
 5619SOL    HW217147   4.605   3.306   3.726
 5620SOL     OW17148   4.391   3.639   4.663
 5620SOL    HW117149   4.368   3.734   4.645
 5620SOL    HW217150   4.490   3.626   4.652
 5621SOL     OW17151   4.593   2.835   4.580
 5621SOL    HW117152   4.644   2.756   4.615
 5621SOL    HW217153   4.547   2.881   4.656
 5622SOL     OW17154   4.801   2.851   3.807
 5622SOL    HW117155   4.773   2.907   3.728
 5622SOL    HW217156   4.877   2.793   3.781
 5623SOL     OW17157   5.558   3.421   4.570
 5623SOL    HW117158   5.481   3.408   4.506
 5623SOL    HW217159   5.549   3.356   4.645
 5624SOL     OW17160   3.937   3.151   5.573
 5624SOL    HW117161   3.904   3.070   5.525
 5624SOL    HW217162   3.873   3.173   5.648
 5625SOL     OW17163   3.816   3.087   4.386
 5625SOL    HW117164   3.833   3.045   4.475
 5625SOL    HW217165   3.882   3.053   4.320
 5626SOL     OW17166   4.404   3.278   5.359
 5626SOL    HW117167   4.322   3.231   5.392
 5626SOL    HW217168   4.407   3.370   5.396
 5627SOL     OW17169   5.527   2.045   4.959
 5627SOL    HW117170   5.542   1.949   4.984
 5627SOL    HW217171   5.545   2.058   4.862
 5628SOL     OW17172   4.151   2.287   4.248
 5628SOL    HW117173   4.187   2.217   4.186
 5628SOL    HW217174   4.097   2.242   4.320
 5629SOL     OW17175   5.416   3.335   4.812
 5629SOL    HW117176   5.335   3.321   4.754
 5629SOL    HW217177   5.415   3.267   4.886
 5630SOL     OW17178   4.065   2.420   5.012
 5630SOL    HW117179   4.118   2.359   5.070
 5630SOL    HW217180   4.076   2.393   4.916
 5631SOL     OW17181   4.555   3.442   4.401
 5631SOL    HW117182   4.536   3.508   4.328
 5631SOL    HW217183   4.479   3.377   4.408
 5632SOL     OW17184   5.151   2.096   4.841
 5632SOL    HW117185   5.166   2.002   4.873
 5632SOL    HW217186   5.098   2.146   4.909
 5633SOL     OW17187   4.734   1.878   4.855
 5633SOL    HW117188   4.669   1.816   4.811
 5633SOL    HW217189   4.825   1.835   4.856
 5634SOL     OW17190   4.500   3.193   4.049
 5634SOL    HW117191   4.474   3.096   4.060
 5634SOL    HW217192   4.585   3.210   4.099
 5635SOL     OW17193   4.347   3.424   5.015
 5635SOL    HW117194   4.342   3.512   5.063
 5635SOL    HW217195   4.438   3.413   4.975
 5636SOL     OW17196   5.086   1.906   3.901
 5636SOL    HW117197   5.132   1.835   3.848
 5636SOL    HW217198   4.991   1.879   3.918
 5637SOL     OW17199   5.011   2.330   4.402
 5637SOL    HW117200   4.959   2.415   4.402
 5637SOL    HW217201   5.011   2.290   4.494
 5638SOL     OW17202   5.312   2.062   4.616
 5638SOL    HW117203   5.255   2.085   4.695
 5638SOL    HW217204   5.313   2.139   4.552
 5639SOL     OW17205   3.772   2.918   4.037
 5639SOL    HW117206   3.870   2.913   4.015
 5639SOL    HW217207   3.738   2.827   4.057
 5640SOL     OW17208   4.610   3.531   4.061
 5640SOL    HW117209   4.532   3.510   4.001
 5640SOL    HW217210   4.585   3.607   4.121
 5641SOL     OW17211   3.933   2.478   5.724
 5641SOL    HW117212   3.840   2.491   5.758
 5641SOL    HW217213   3.931   2.457   5.626
 5642SOL     OW17214   5.503   2.473   5.812
 5642SOL    HW117215   5.471   2.448   5.720
 5642SOL    HW217216   5.517   2.391   5.866
 5643SOL     OW17217   3.966   3.602   0.047
 5643SOL    HW117218   3.969   3.675   0.115
 5643SOL    HW217219   4.055   3.597   0.001
 5644SOL     OW17220   4.333   2.838   5.721
 5644SOL    HW117221   4.356   2.906   5.651
 5644SOL    HW217222   4.415   2.817   5.775
 5645SOL     OW17223   5.512   3.615   5.914
 5645SOL    HW117224   5.541   3.552   5.986
 5645SOL    HW217225   5.582   3.685   5.900
 5646SOL     OW17226   3.751   3.458   5.705
 5646SOL    HW117227   3.741   3.362   5.728
 5646SOL    HW217228   3.710   3.514   5.777
 5647SOL     OW17229   5.411   2.757   0.181
 5647SOL    HW117230   5.498   2.775   0.228
 5647SOL    HW217231   5.403   2.818   0.102
 5648SOL     OW17232   5.401   2.958   5.985
 5648SOL    HW117233   5.495   2.960   5.951
 5648SOL    HW217234   5.373   3.050   6.012
 5649SOL     OW17235   5.272   2.876   5.757
 5649SOL    HW117236   5.213   2.795   5.764
 5649SOL    HW217237   5.309   2.898   5.847
 5650SOL     OW17238   4.308   2.586   5.857
 5650SOL    HW117239   4.314   2.661   5.792
 5650SOL    HW217240   4.283   2.622   5.947
 5651SOL     OW17241   4.598   2.229   5.754
 5651SOL    HW117242   4.647   2.286   5.689
 5651SOL    HW217243   4.650   2.144   5.770
 5652SOL     OW17244   4.068   2.826   5.827
 5652SOL    HW117245   4.159   2.832   5.785
 5652SOL    HW217246   4.021   2.745   5.792
 5653SOL     OW17247   4.843   3.606   5.828
 5653SOL    HW117248   4.750   3.577   5.851
 5653SOL    HW217249   4.871   3.563   5.742
 5654SOL     OW17250   5.352   3.255   5.672
 5654SOL    HW117251   5.315   3.347   5.663
 5654SOL    HW217252   5.280   3.188   5.653
 5655SOL     OW17253   4.213   3.630   5.917
 5655SOL    HW117254   4.263   3.690   5.979
 5655SOL    HW217255   4.277   3.587   5.853
 5656SOL     OW17256   4.367   1.976   5.680
 5656SOL    HW117257   4.450   1.920   5.685
 5656SOL    HW217258   4.311   1.944   5.604
 5657SOL     OW17259   5.148   3.075   5.621
 5657SOL    HW117260   5.190   3.000   5.671
 5657SOL    HW217261   5.060   3.098   5.664
 5658SOL     OW17262   4.034   1.907   5.758
 5658SOL    HW117263   4.087   1.981   5.718
 5658SOL    HW217264   4.093   1.853   5.819
 5659SOL     OW17265   4.751   2.394   5.604
 5659SOL    HW117266   4.705   2.482   5.589
 5659SOL    HW217267   4.817   2.404   5.678
 5660SOL     OW17268   5.637   2.679   5.922
 5660SOL    HW117269   5.687   2.632   5.995
 5660SOL    HW217270   5.574   2.615   5.878
 5661SOL     OW17271   4.210   3.280   5.747
 5661SOL    HW117272   4.133   3.259   5.808
 5661SOL    HW217273   4.200   3.229   5.662
 5662SOL     OW17274   5.444   3.136   0.291
 5662SOL    HW117275   5.519   3.075   0.268
 5662SOL    HW217276   5.401   3.169   0.206
 5663SOL     OW17277   5.124   2.448   5.645
 5663SOL    HW117278   5.060   2.413   5.713
 5663SOL    HW217279   5.217   2.420   5.668
 5664SOL     OW17280   4.265   2.114   5.892
 5664SOL    HW117281   4.306   2.072   5.811
 5664SOL    HW217282   4.228   2.204   5.867
 5665SOL     OW17283   4.111   2.985   0.045
 5665SOL    HW117284   4.061   3.070   0.029
 5665SOL    HW217285   4.095   2.922  -0.031
 5666SOL     OW17286   4.928   2.375   5.821
 5666SOL    HW117287   4.935   2.285   5.864
 5666SOL    HW217288   4.901   2.442   5.889
 5667SOL     OW17289   4.022   1.934   0.250
 5667SOL    HW117290   4.083   2.014   0.253
 5667SOL    HW217291   4.073   1.853   0.278
 5668SOL     OW17292   5.242   2.127   5.724
 5668SOL    HW117293   5.181   2.047   5.736
 5668SOL    HW217294   5.278   2.154   5.813
 5669SOL     OW17295   5.040   2.710   5.630
 5669SOL    HW117296   5.066   2.614   5.636
 5669SOL    HW217297   5.060   2.744   5.537
 5670SOL     OW17298   3.744   3.181   5.770
 5670SOL    HW117299   3.650   3.201   5.742
 5670SOL    HW217300   3.750   3.088   5.804
 5671SOL     OW17301   4.551   2.463   5.894
 5671SOL    HW117302   4.554   2.374   5.848
 5671SOL    HW217303   4.460   2.503   5.882
 5672SOL     OW17304   4.170   2.352   5.776
 5672SOL    HW117305   4.234   2.424   5.805
 5672SOL    HW217306   4.079   2.392   5.764
 5673SOL     OW17307   5.508   2.009   0.096
 5673SOL    HW117308   5.558   2.007   0.010
 5673SOL    HW217309   5.445   1.931   0.100
 5674SOL     OW17310   4.392   3.481   5.743
 5674SOL    HW117311   4.402   3.504   5.647
 5674SOL    HW217312   4.325   3.406   5.752
 5675SOL     OW17313   4.920   3.459   5.614
 5675SOL    HW117314   4.914   3.365   5.648
 5675SOL    HW217315   4.853   3.473   5.542
 5676SOL     OW17316   4.585   2.764   5.804
 5676SOL    HW117317   4.671   2.804   5.773
 5676SOL    HW217318   4.603   2.694   5.873
 5677SOL     OW17319   5.196   3.502   5.620
 5677SOL    HW117320   5.099   3.485   5.605
 5677SOL    HW217321   5.243   3.503   5.532
 5678SOL     OW17322   4.757   3.023   0.296
 5678SOL    HW117323   4.720   2.969   0.372
 5678SOL    HW217324   4.797   2.961   0.228
 5679SOL     OW17325   3.987   3.229   5.920
 5679SOL    HW117326   3.899   3.219   5.875
 5679SOL    HW217327   3.986   3.309   5.979
 5680SOL     OW17328   3.803   2.178   5.613
 5680SOL    HW117329   3.722   2.152   5.562
 5680SOL    HW217330   3.836   2.267   5.580
 5681SOL     OW17331   3.803   2.008   5.859
 5681SOL    HW117332   3.782   2.074   5.787
 5681SOL    HW217333   3.891   1.964   5.839
 5682SOL     OW17334   4.894   3.198   5.710
 5682SOL    HW117335   4.798   3.175   5.697
 5682SOL    HW217336   4.919   3.186   5.806
 5683SOL     OW17337   4.931   2.168   0.019
 5683SOL    HW117338   5.020   2.144   0.059
 5683SOL    HW217339   4.889   2.242   0.071
 5684SOL     OW17340   4.591   3.241   5.630
 5684SOL    HW117341   4.548   3.289   5.707
 5684SOL    HW217342   4.615   3.307   5.559
 5685SOL     OW17343   4.813   2.855   5.690
 5685SOL    HW117344   4.786   2.902   5.606
 5685SOL    HW217345   4.896   2.802   5.674
 5686SOL     OW17346   5.090   1.899   5.738
 5686SOL    HW117347   5.133   1.816   5.702
 5686SOL    HW217348   5.001   1.876   5.776
 5687SOL     OW17349   3.799   2.931   5.872
 5687SOL    HW117350   3.898   2.936   5.853
 5687SOL    HW217351   3.773   2.836   5.889
 5688SOL     OW17352   4.591   3.521   5.927
 5688SOL    HW117353   4.520   3.511   5.857
 5688SOL    HW217354   4.578   3.607   5.976
 5689SOL     OW17355   3.935   4.340   0.135
 5689SOL    HW117356   3.848   4.324   0.183
 5689SOL    HW217357   3.916   4.376   0.044
 5690SOL     OW17358   3.946   4.006   0.997
 5690SOL    HW117359   3.977   3.974   1.086
 5690SOL    HW217360   3.853   3.972   0.979
 5691SOL     OW17361   3.728   4.123   0.634
 5691SOL    HW117362   3.641   4.141   0.681
 5691SOL    HW217363   3.715   4.048   0.569
 5692SOL     OW17364   4.295   5.028   1.195
 5692SOL    HW117365   4.207   5.027   1.148
 5692SOL    HW217366   4.314   5.120   1.227
 5693SOL     OW17367   5.290   5.242   0.708
 5693SOL    HW117368   5.245   5.215   0.794
 5693SOL    HW217369   5.221   5.250   0.636
 5694SOL     OW17370   4.858   4.431   0.693
 5694SOL    HW117371   4.911   4.515   0.680
 5694SOL    HW217372   4.807   4.438   0.779
 5695SOL     OW17373   5.515   4.322   0.241
 5695SOL    HW117374   5.463   4.343   0.158
 5695SOL    HW217375   5.476   4.241   0.285
 5696SOL     OW17376   4.457   4.861   1.045
 5696SOL    HW117377   4.393   4.898   1.112
 5696SOL    HW217378   4.504   4.936   0.998
 5697SOL     OW17379   4.607   4.478   1.824
 5697SOL    HW117380   4.596   4.546   1.896
 5697SOL    HW217381   4.628   4.523   1.737
 5698SOL     OW17382   4.407   4.720   0.649
 5698SOL    HW117383   4.479   4.711   0.718
 5698SOL    HW217384   4.334   4.778   0.684
 5699SOL     OW17385   4.437   4.880   1.823
 5699SOL    HW117386   4.491   4.957   1.858
 5699SOL    HW217387   4.356   4.914   1.777
 5700SOL     OW17388   4.053   5.139   1.065
 5700SOL    HW117389   3.975   5.095   1.021
 5700SOL    HW217390   4.102   5.194   0.998
 5701SOL     OW17391   5.180   5.226   1.364
 5701SOL    HW117392   5.237   5.308   1.370
 5701SOL    HW217393   5.107   5.230   1.432
 5702SOL     OW17394   4.185   4.111   1.457
 5702SOL    HW117395   4.264   4.052   1.474
 5702SOL    HW217396   4.102   4.067   1.491
 5703SOL     OW17397   5.330   4.161   0.744
 5703SOL    HW117398   5.261   4.183   0.675
 5703SOL    HW217399   5.336   4.236   0.810
 5704SOL     OW17400   3.950   5.437   0.479
 5704SOL    HW117401   3.965   5.516   0.538
 5704SOL    HW217402   4.029   5.425   0.419
 5705SOL     OW17403   4.861   5.062   1.700
 5705SOL    HW117404   4.909   5.057   1.787
 5705SOL    HW217405   4.804   4.980   1.688
 5706SOL     OW17406   3.937   5.165   0.523
 5706SOL    HW117407   3.932   5.265   0.527
 5706SOL    HW217408   3.886   5.126   0.600
 5707SOL     OW17409   4.000   4.813   0.900
 5707SOL    HW117410   4.000   4.719   0.932
 5707SOL    HW217411   3.939   4.868   0.957
 5708SOL     OW17412   4.317   5.513   1.429
 5708SOL    HW117413   4.233   5.491   1.479
 5708SOL    HW217414   4.348   5.605   1.452
 5709SOL     OW17415   4.318   4.686   0.145
 5709SOL    HW117416   4.261   4.755   0.100
 5709SOL    HW217417   4.367   4.727   0.222
 5710SOL     OW17418   5.319   3.849   1.467
 5710SOL    HW117419   5.350   3.925   1.410
 5710SOL    HW217420   5.301   3.882   1.560
 5711SOL     OW17421   3.852   4.384   0.577
 5711SOL    HW117422   3.816   4.292   0.590
 5711SOL    HW217423   3.843   4.437   0.662
 5712SOL     OW17424   5.580   5.483   0.330
 5712SOL    HW117425   5.647   5.451   0.397
 5712SOL    HW217426   5.588   5.582   0.320
 5713SOL     OW17427   3.691   5.312   0.120
 5713SOL    HW117428   3.708   5.217   0.145
 5713SOL    HW217429   3.721   5.372   0.195
 5714SOL     OW17430   5.426   4.630   0.658
 5714SOL    HW117431   5.504   4.574   0.630
 5714SOL    HW217432   5.398   4.689   0.582
 5715SOL     OW17433   5.357   4.822   0.478
 5715SOL    HW117434   5.383   4.873   0.396
 5715SOL    HW217435   5.364   4.881   0.558
 5716SOL     OW17436   3.853   4.472   1.571
 5716SOL    HW117437   3.948   4.502   1.574
 5716SOL    HW217438   3.793   4.552   1.566
 5717SOL     OW17439   4.337   5.117   0.732
 5717SOL    HW117440   4.292   5.028   0.744
 5717SOL    HW217441   4.327   5.147   0.637
 5718SOL     OW17442   5.007   4.954   1.422
 5718SOL    HW117443   5.032   4.884   1.355
 5718SOL    HW217444   5.070   4.950   1.499
 5719SOL     OW17445   4.546   3.740   0.514
 5719SOL    HW117446   4.593   3.825   0.491
 5719SOL    HW217447   4.448   3.756   0.521
 5720SOL     OW17448   3.914   4.682   1.285
 5720SOL    HW117449   4.004   4.641   1.272
 5720SOL    HW217450   3.848   4.637   1.225
 5721SOL     OW17451   5.169   4.761   0.224
 5721SOL    HW117452   5.101   4.707   0.273
 5721SOL    HW217453   5.258   4.717   0.230
 5722SOL     OW17454   4.925   5.522   1.620
 5722SOL    HW117455   4.925   5.581   1.539
 5722SOL    HW217456   4.936   5.427   1.591
 5723SOL     OW17457   4.009   3.982   1.800
 5723SOL    HW117458   4.103   3.968   1.833
 5723SOL    HW217459   3.945   3.954   1.871
 5724SOL     OW17460   5.181   5.147   0.939
 5724SOL    HW117461   5.119   5.166   1.016
 5724SOL    HW217462   5.176   5.050   0.915
 5725SOL     OW17463   5.380   5.470   0.578
 5725SOL    HW117464   5.352   5.445   0.485
 5725SOL    HW217465   5.358   5.395   0.641
 5726SOL     OW17466   4.319   4.440   0.277
 5726SOL    HW117467   4.327   4.527   0.229
 5726SOL    HW217468   4.252   4.448   0.351
 5727SOL     OW17469   5.002   4.095   0.936
 5727SOL    HW117470   4.909   4.059   0.942
 5727SOL    HW217471   5.062   4.041   0.996
 5728SOL     OW17472   5.314   5.400   0.316
 5728SOL    HW117473   5.412   5.419   0.316
 5728SOL    HW217474   5.283   5.382   0.223
 5729SOL     OW17475   4.514   4.335   1.446
 5729SOL    HW117476   4.489   4.308   1.539
 5729SOL    HW217477   4.483   4.264   1.382
 5730SOL     OW17478   5.118   4.197   1.678
 5730SOL    HW117479   5.118   4.245   1.766
 5730SOL    HW217480   5.173   4.114   1.685
 5731SOL     OW17481   4.675   4.606   1.587
 5731SOL    HW117482   4.733   4.535   1.545
 5731SOL    HW217483   4.620   4.649   1.516
 5732SOL     OW17484   4.722   4.123   1.218
 5732SOL    HW117485   4.628   4.140   1.249
 5732SOL    HW217486   4.720   4.074   1.132
 5733SOL     OW17487   4.777   4.416   0.431
 5733SOL    HW117488   4.798   4.417   0.528
 5733SOL    HW217489   4.690   4.368   0.416
 5734SOL     OW17490   3.816   4.554   0.787
 5734SOL    HW117491   3.902   4.541   0.835
 5734SOL    HW217492   3.766   4.630   0.828
 5735SOL     OW17493   3.853   5.595   1.591
 5735SOL    HW117494   3.860   5.571   1.687
 5735SOL    HW217495   3.769   5.558   1.553
 5736SOL     OW17496   4.609   4.065   0.215
 5736SOL    HW117497   4.661   4.129   0.159
 5736SOL    HW217498   4.606   3.976   0.169
 5737SOL     OW17499   5.423   4.300   1.831
 5737SOL    HW117500   5.389   4.377   1.777
 5737SOL    HW217501   5.451   4.226   1.769
 5738SOL     OW17502   5.089   4.865   0.530
 5738SOL    HW117503   5.177   4.845   0.487
 5738SOL    HW217504   5.042   4.937   0.478
 5739SOL     OW17505   4.270   3.890   0.910
 5739SOL    HW117506   4.275   3.918   1.006
 5739SOL    HW217507   4.273   3.971   0.851
 5740SOL     OW17508   4.722   5.178   0.466
 5740SOL    HW117509   4.689   5.255   0.411
 5740SOL    HW217510   4.693   5.190   0.561
 5741SOL     OW17511   4.076   5.539   0.877
 5741SOL    HW117512   4.121   5.450   0.880
 5741SOL    HW217513   4.143   5.611   0.894
 5742SOL     OW17514   5.530   4.773   0.875
 5742SOL    HW117515   5.480   4.741   0.795
 5742SOL    HW217516   5.467   4.783   0.952
 5743SOL     OW17517   4.947   5.256   1.516
 5743SOL    HW117518   4.936   5.182   1.582
 5743SOL    HW217519   4.881   5.245   1.442
 5744SOL     OW17520   4.027   4.676   0.261
 5744SOL    HW117521   4.075   4.723   0.187
 5744SOL    HW217522   4.030   4.578   0.246
 5745SOL     OW17523   5.207   4.478   0.721
 5745SOL    HW117524   5.203   4.432   0.810
 5745SOL    HW217525   5.291   4.532   0.715
 5746SOL     OW17526   4.196   4.995   1.730
 5746SOL    HW117527   4.171   5.000   1.633
 5746SOL    HW217528   4.114   4.989   1.786
 5747SOL     OW17529   4.841   5.497   0.219
 5747SOL    HW117530   4.770   5.453   0.274
 5747SOL    HW217531   4.887   5.428   0.163
 5748SOL     OW17532   3.935   4.007   1.521
 5748SOL    HW117533   3.841   4.042   1.521
 5748SOL    HW217534   3.954   3.962   1.607
 5749SOL     OW17535   5.328   5.087   0.061
 5749SOL    HW117536   5.318   5.186   0.055
 5749SOL    HW217537   5.240   5.043   0.043
 5750SOL     OW17538   4.192   5.453   0.340
 5750SOL    HW117539   4.235   5.518   0.403
 5750SOL    HW217540   4.260   5.422   0.273
 5751SOL     OW17541   5.129   3.828   0.441
 5751SOL    HW117542   5.123   3.803   0.344
 5751SOL    HW217543   5.225   3.843   0.465
 5752SOL     OW17544   3.979   5.513   1.223
 5752SOL    HW117545   4.031   5.437   1.262
 5752SOL    HW217546   3.963   5.496   1.126
 5753SOL     OW17547   4.666   5.421   0.895
 5753SOL    HW117548   4.754   5.378   0.918
 5753SOL    HW217549   4.622   5.369   0.822
 5754SOL     OW17550   4.121   4.407   0.475
 5754SOL    HW117551   4.143   4.310   0.486
 5754SOL    HW217552   4.025   4.423   0.500
 5755SOL     OW17553   5.244   3.948   1.724
 5755SOL    HW117554   5.255   3.967   1.822
 5755SOL    HW217555   5.173   3.878   1.712
 5756SOL     OW17556   4.353   3.813   0.094
 5756SOL    HW117557   4.453   3.816   0.098
 5756SOL    HW217558   4.320   3.881   0.028
 5757SOL     OW17559   4.497   4.000   1.742
 5757SOL    HW117560   4.584   3.952   1.730
 5757SOL    HW217561   4.449   3.962   1.821
 5758SOL     OW17562   4.598   5.238   1.193
 5758SOL    HW117563   4.578   5.201   1.103
 5758SOL    HW217564   4.669   5.184   1.237
 5759SOL     OW17565   5.060   4.313   1.436
 5759SOL    HW117566   5.092   4.279   1.525
 5759SOL    HW217567   5.096   4.406   1.422
 5760SOL     OW17568   4.544   5.107   0.945
 5760SOL    HW117569   4.635   5.097   0.904
 5760SOL    HW217570   4.477   5.119   0.872
 5761SOL     OW17571   4.651   4.232   0.894
 5761SOL    HW117572   4.625   4.223   0.797
 5761SOL    HW217573   4.681   4.143   0.928
 5762SOL     OW17574   4.277   3.793   0.498
 5762SOL    HW117575   4.196   3.790   0.557
 5762SOL    HW217576   4.268   3.869   0.434
 5763SOL     OW17577   5.103   4.940   0.031
 5763SOL    HW117578   5.131   4.871   0.098
 5763SOL    HW217579   5.023   4.990   0.065
 5764SOL     OW17580   4.676   3.975   0.463
 5764SOL    HW117581   4.646   4.012   0.375
 5764SOL    HW217582   4.775   3.988   0.472
 5765SOL     OW17583   4.801   4.409   1.450
 5765SOL    HW117584   4.727   4.342   1.456
 5765SOL    HW217585   4.889   4.361   1.447
 5766SOL     OW17586   4.935   5.301   0.799
 5766SOL    HW117587   4.951   5.368   0.726
 5766SOL    HW217588   5.015   5.296   0.858
 5767SOL     OW17589   4.196   4.879   0.725
 5767SOL    HW117590   4.131   4.857   0.798
 5767SOL    HW217591   4.152   4.867   0.636
 5768SOL     OW17592   4.986   5.517   0.610
 5768SOL    HW117593   5.043   5.581   0.559
 5768SOL    HW217594   4.907   5.565   0.648
 5769SOL     OW17595   4.745   4.251   0.071
 5769SOL    HW117596   4.674   4.288   0.013
 5769SOL    HW217597   4.777   4.321   0.135
 5770SOL     OW17598   3.811   4.282   1.382
 5770SOL    HW117599   3.906   4.271   1.354
 5770SOL    HW217600   3.805   4.352   1.454
 5771SOL     OW17601   4.279   3.947   1.181
 5771SOL    HW117602   4.330   3.881   1.237
 5771SOL    HW217603   4.183   3.948   1.209
 5772SOL     OW17604   4.590   4.183   0.634
 5772SOL    HW117605   4.541   4.242   0.571
 5772SOL    HW217606   4.620   4.100   0.585
 5773SOL     OW17607   4.743   3.777   0.741
 5773SOL    HW117608   4.680   3.777   0.663
 5773SOL    HW217609   4.719   3.703   0.803
 5774SOL     OW17610   5.176   4.884   0.865
 5774SOL    HW117611   5.099   4.822   0.847
 5774SOL    HW217612   5.227   4.899   0.780
 5775SOL     OW17613   5.193   4.336   0.964
 5775SOL    HW117614   5.128   4.259   0.965
 5775SOL    HW217615   5.254   4.328   1.042
 5776SOL     OW17616   5.608   4.533   0.392
 5776SOL    HW117617   5.658   4.485   0.464
 5776SOL    HW217618   5.565   4.466   0.331
 5777SOL     OW17619   4.203   5.138   0.158
 5777SOL    HW117620   4.123   5.111   0.212
 5777SOL    HW217621   4.222   5.067   0.089
 5778SOL     OW17622   5.387   4.988   0.684
 5778SOL    HW117623   5.487   4.986   0.678
 5778SOL    HW217624   5.355   5.082   0.680
 5779SOL     OW17625   5.116   4.290   0.100
 5779SOL    HW117626   5.056   4.279   0.180
 5779SOL    HW217627   5.170   4.206   0.088
 5780SOL     OW17628   4.232   3.974   0.295
 5780SOL    HW117629   4.284   3.921   0.229
 5780SOL    HW217630   4.214   4.065   0.260
 5781SOL     OW17631   5.476   4.959   1.545
 5781SOL    HW117632   5.566   4.919   1.531
 5781SOL    HW217633   5.486   5.052   1.579
 5782SOL     OW17634   4.773   5.075   1.339
 5782SOL    HW117635   4.690   5.043   1.386
 5782SOL    HW217636   4.853   5.031   1.379
 5783SOL     OW17637   5.331   5.360   1.660
 5783SOL    HW117638   5.315   5.398   1.569
 5783SOL    HW217639   5.414   5.304   1.659
 5784SOL     OW17640   4.869   4.957   1.105
 5784SOL    HW117641   4.805   4.988   1.175
 5784SOL    HW217642   4.836   4.985   1.015
 5785SOL     OW17643   5.349   4.819   1.079
 5785SOL    HW117644   5.343   4.885   1.153
 5785SOL    HW217645   5.276   4.836   1.013
 5786SOL     OW17646   4.652   3.812   1.388
 5786SOL    HW117647   4.674   3.792   1.292
 5786SOL    HW217648   4.730   3.856   1.432
 5787SOL     OW17649   4.701   4.838   1.721
 5787SOL    HW117650   4.607   4.857   1.749
 5787SOL    HW217651   4.703   4.754   1.666
 5788SOL     OW17652   4.442   4.782   0.375
 5788SOL    HW117653   4.420   4.766   0.471
 5788SOL    HW217654   4.515   4.719   0.347
 5789SOL     OW17655   4.149   4.542   1.257
 5789SOL    HW117656   4.222   4.554   1.325
 5789SOL    HW217657   4.112   4.450   1.265
 5790SOL     OW17658   4.986   4.099   1.284
 5790SOL    HW117659   5.020   4.179   1.333
 5790SOL    HW217660   4.890   4.115   1.257
 5791SOL     OW17661   3.800   5.293   1.355
 5791SOL    HW117662   3.762   5.360   1.291
 5791SOL    HW217663   3.900   5.293   1.347
 5792SOL     OW17664   4.064   4.846   0.489
 5792SOL    HW117665   4.070   4.927   0.431
 5792SOL    HW217666   4.061   4.764   0.431
 5793SOL     OW17667   4.266   4.266   0.862
 5793SOL    HW117668   4.281   4.325   0.783
 5793SOL    HW217669   4.336   4.284   0.931
 5794SOL     OW17670   4.975   5.086   0.398
 5794SOL    HW117671   5.032   5.160   0.434
 5794SOL    HW217672   4.880   5.101   0.426
 5795SOL     OW17673   5.018   5.190   1.148
 5795SOL    HW117674   5.074   5.195   1.230
 5795SOL    HW217675   4.965   5.105   1.148
 5796SOL     OW17676   5.288   4.343   0.485
 5796SOL    HW117677   5.242   4.390   0.561
 5796SOL    HW217678   5.316   4.409   0.417
 5797SOL     OW17679   4.073   5.255   1.305
 5797SOL    HW117680   4.058   5.208   1.218
 5797SOL    HW217681   4.171   5.270   1.318
 5798SOL     OW17682   4.140   4.476   1.602
 5798SOL    HW117683   4.211   4.516   1.543
 5798SOL    HW217684   4.165   4.382   1.625
 5799SOL     OW17685   5.334   4.511   1.686
 5799SOL    HW117686   5.243   4.550   1.682
 5799SOL    HW217687   5.390   4.549   1.613
 5800SOL     OW17688   4.730   3.859   1.733
 5800SOL    HW117689   4.787   3.941   1.729
 5800SOL    HW217690   4.785   3.779   1.710
 5801SOL     OW17691   4.241   3.746   1.753
 5801SOL    HW117692   4.163   3.722   1.694
 5801SOL    HW217693   4.208   3.780   1.841
 5802SOL     OW17694   4.309   4.598   1.036
 5802SOL    HW117695   4.348   4.690   1.035
 5802SOL    HW217696   4.250   4.587   1.116
 5803SOL     OW17697   5.064   4.578   1.023
 5803SOL    HW117698   4.974   4.568   0.980
 5803SOL    HW217699   5.117   4.494   1.008
 5804SOL     OW17700   4.939   4.243   0.298
 5804SOL    HW117701   4.949   4.158   0.351
 5804SOL    HW217702   4.886   4.309   0.350
 5805SOL     OW17703   4.014   3.922   1.252
 5805SOL    HW117704   3.983   3.956   1.341
 5805SOL    HW217705   4.000   3.823   1.248
 5806SOL     OW17706   3.774   5.032   1.273
 5806SOL    HW117707   3.808   4.971   1.344
 5806SOL    HW217708   3.779   5.127   1.305
 5807SOL     OW17709   4.446   4.354   1.049
 5807SOL    HW117710   4.523   4.335   0.988
 5807SOL    HW217711   4.412   4.446   1.032
 5808SOL     OW17712   5.456   4.687   1.857
 5808SOL    HW117713   5.413   4.615   1.803
 5808SOL    HW217714   5.398   4.710   1.934
 5809SOL     OW17715   4.037   3.785   0.632
 5809SOL    HW117716   4.008   3.879   0.650
 5809SOL    HW217717   4.047   3.737   0.719
 5810SOL     OW17718   5.355   4.111   0.358
 5810SOL    HW117719   5.369   4.032   0.418
 5810SOL    HW217720   5.324   4.189   0.412
 5811SOL     OW17721   4.746   4.479   0.956
 5811SOL    HW117722   4.738   4.500   1.054
 5811SOL    HW217723   4.720   4.384   0.940
 5812SOL     OW17724   4.708   5.287   1.722
 5812SOL    HW117725   4.685   5.333   1.636
 5812SOL    HW217726   4.753   5.200   1.703
 5813SOL     OW17727   5.560   5.219   1.594
 5813SOL    HW117728   5.583   5.249   1.502
 5813SOL    HW217729   5.640   5.230   1.653
 5814SOL     OW17730   4.078   4.650   1.804
 5814SOL    HW117731   4.158   4.669   1.861
 5814SOL    HW217732   4.102   4.583   1.734
 5815SOL     OW17733   5.212   4.029   0.133
 5815SOL    HW117734   5.188   3.933   0.146
 5815SOL    HW217735   5.270   4.059   0.209
 5816SOL     OW17736   5.009   4.526   0.031
 5816SOL    HW117737   5.055   4.438   0.048
 5816SOL    HW217738   5.073   4.590  -0.009
 5817SOL     OW17739   4.796   5.065   0.858
 5817SOL    HW117740   4.801   4.987   0.795
 5817SOL    HW217741   4.850   5.140   0.821
 5818SOL     OW17742   4.040   4.531   0.943
 5818SOL    HW117743   4.137   4.555   0.941
 5818SOL    HW217744   4.029   4.437   0.974
 5819SOL     OW17745   4.042   4.254   1.007
 5819SOL    HW117746   4.005   4.162   1.001
 5819SOL    HW217747   4.124   4.261   0.951
 5820SOL     OW17748   4.863   4.096   1.691
 5820SOL    HW117749   4.809   4.149   1.757
 5820SOL    HW217750   4.954   4.137   1.682
 5821SOL     OW17751   4.890   3.923   1.475
 5821SOL    HW117752   4.873   3.984   1.552
 5821SOL    HW217753   4.932   3.974   1.400
 5822SOL     OW17754   3.815   5.506   0.950
 5822SOL    HW117755   3.778   5.426   0.902
 5822SOL    HW217756   3.907   5.526   0.917
 5823SOL     OW17757   4.212   5.298   0.902
 5823SOL    HW117758   4.283   5.363   0.930
 5823SOL    HW217759   4.251   5.231   0.839
 5824SOL     OW17760   4.687   4.516   1.221
 5824SOL    HW117761   4.749   4.493   1.297
 5824SOL    HW217762   4.600   4.468   1.235
 5825SOL     OW17763   3.765   4.290   1.111
 5825SOL    HW117764   3.849   4.278   1.059
 5825SOL    HW217765   3.786   4.286   1.209
 5826SOL     OW17766   3.920   4.264   1.746
 5826SOL    HW117767   3.967   4.185   1.708
 5826SOL    HW217768   3.897   4.327   1.672
 5827SOL     OW17769   5.106   4.656   1.651
 5827SOL    HW117770   5.130   4.753   1.651
 5827SOL    HW217771   5.101   4.623   1.557
 5828SOL     OW17772   4.542   4.297   0.365
 5828SOL    HW117773   4.546   4.212   0.311
 5828SOL    HW217774   4.465   4.352   0.335
 5829SOL     OW17775   5.373   4.327   1.174
 5829SOL    HW117776   5.354   4.269   1.252
 5829SOL    HW217777   5.464   4.306   1.137
 5830SOL     OW17778   3.959   5.265   1.723
 5830SOL    HW117779   3.941   5.340   1.787
 5830SOL    HW217780   3.968   5.179   1.773
 5831SOL     OW17781   4.446   4.166   1.244
 5831SOL    HW117782   4.380   4.092   1.229
 5831SOL    HW217783   4.436   4.235   1.172
 5832SOL     OW17784   4.637   5.401   1.478
 5832SOL    HW117785   4.611   5.348   1.397
 5832SOL    HW217786   4.635   5.499   1.455
 5833SOL     OW17787   4.177   4.218   0.199
 5833SOL    HW117788   4.240   4.293   0.222
 5833SOL    HW217789   4.087   4.256   0.177
 5834SOL     OW17790   3.862   4.864   1.478
 5834SOL    HW117791   3.867   4.824   1.569
 5834SOL    HW217792   3.883   4.793   1.410
 5835SOL     OW17793   5.034   4.766   1.215
 5835SOL    HW117794   5.057   4.697   1.147
 5835SOL    HW217795   4.973   4.834   1.174
 5836SOL     OW17796   4.992   4.574   0.313
 5836SOL    HW117797   4.924   4.522   0.364
 5836SOL    HW217798   4.995   4.540   0.218
 5837SOL     OW17799   5.500   5.436   1.159
 5837SOL    HW117800   5.563   5.478   1.094
 5837SOL    HW217801   5.471   5.347   1.125
 5838SOL     OW17802   4.968   5.459   1.104
 5838SOL    HW117803   5.054   5.491   1.066
 5838SOL    HW217804   4.975   5.361   1.125
 5839SOL     OW17805   3.813   4.985   1.009
 5839SOL    HW117806   3.794   5.002   1.106
 5839SOL    HW217807   3.744   4.924   0.971
 5840SOL     OW17808   4.408   5.404   1.743
 5840SOL    HW117809   4.341   5.479   1.741
 5840SOL    HW217810   4.479   5.421   1.674
 5841SOL     OW17811   4.638   3.808   0.091
 5841SOL    HW117812   4.700   3.849   0.023
 5841SOL    HW217813   4.691   3.751   0.154
 5842SOL     OW17814   5.406   3.872   0.496
 5842SOL    HW117815   5.493   3.873   0.447
 5842SOL    HW217816   5.398   3.785   0.546
 5843SOL     OW17817   5.121   5.301   0.496
 5843SOL    HW117818   5.183   5.332   0.424
 5843SOL    HW217819   5.066   5.379   0.528
 5844SOL     OW17820   3.872   5.506   1.846
 5844SOL    HW117821   3.814   5.437   1.890
 5844SOL    HW217822   3.922   5.557   1.916
 5845SOL     OW17823   5.006   4.657   0.675
 5845SOL    HW117824   5.082   4.594   0.687
 5845SOL    HW217825   5.034   4.731   0.613
 5846SOL     OW17826   4.517   5.005   1.420
 5846SOL    HW117827   4.490   5.051   1.505
 5846SOL    HW217828   4.445   5.016   1.352
 5847SOL     OW17829   4.385   5.335   0.177
 5847SOL    HW117830   4.422   5.349   0.085
 5847SOL    HW217831   4.322   5.258   0.176
 5848SOL     OW17832   5.332   5.456   1.385
 5848SOL    HW117833   5.392   5.452   1.305
 5848SOL    HW217834   5.311   5.551   1.407
 5849SOL     OW17835   5.572   3.896   0.966
 5849SOL    HW117836   5.606   3.804   0.947
 5849SOL    HW217837   5.480   3.906   0.928
 5850SOL     OW17838   3.977   4.036   0.715
 5850SOL    HW117839   3.890   4.077   0.689
 5850SOL    HW217840   3.982   4.029   0.815
 5851SOL     OW17841   4.965   5.328   0.042
 5851SOL    HW117842   4.934   5.236   0.066
 5851SOL    HW217843   4.912   5.361  -0.037
 5852SOL     OW17844   4.547   4.734   1.384
 5852SOL    HW117845   4.596   4.715   1.299
 5852SOL    HW217846   4.541   4.833   1.397
 5853SOL     OW17847   4.638   4.617   0.299
 5853SOL    HW117848   4.688   4.639   0.216
 5853SOL    HW217849   4.688   4.546   0.350
 5854SOL     OW17850   5.232   5.370   0.055
 5854SOL    HW117851   5.134   5.349   0.044
 5854SOL    HW217852   5.270   5.397  -0.033
 5855SOL     OW17853   4.089   5.029   1.486
 5855SOL    HW117854   4.080   5.108   1.426
 5855SOL    HW217855   4.009   4.970   1.475
 5856SOL     OW17856   5.337   5.010   1.285
 5856SOL    HW117857   5.397   4.986   1.361
 5856SOL    HW217858   5.270   5.078   1.316
 5857SOL     OW17859   4.789   4.832   0.721
 5857SOL    HW117860   4.713   4.781   0.760
 5857SOL    HW217861   4.861   4.769   0.693
 5858SOL     OW17862   4.750   3.965   0.966
 5858SOL    HW117863   4.747   3.923   0.875
 5858SOL    HW217864   4.747   3.894   1.035
 5859SOL     OW17865   4.336   5.206   0.477
 5859SOL    HW117866   4.390   5.153   0.412
 5859SOL    HW217867   4.265   5.257   0.428
 5860SOL     OW17868   5.472   4.122   1.384
 5860SOL    HW117869   5.546   4.189   1.376
 5860SOL    HW217870   5.489   4.046   1.321
 5861SOL     OW17871   3.981   5.041   0.292
 5861SOL    HW117872   3.912   4.969   0.286
 5861SOL    HW217873   3.965   5.097   0.374
 5862SOL     OW17874   3.843   4.775   1.740
 5862SOL    HW117875   3.761   4.740   1.786
 5862SOL    HW217876   3.923   4.723   1.770
 5863SOL     OW17877   4.411   3.916   1.489
 5863SOL    HW117878   4.499   3.888   1.450
 5863SOL    HW217879   4.425   3.945   1.584
 5864SOL     OW17880   3.720   4.129  -0.017
 5864SOL    HW117881   3.677   4.059   0.040
 5864SOL    HW217882   3.819   4.112  -0.022
 5865SOL     OW17883   5.143   4.579   1.390
 5865SOL    HW117884   5.086   4.642   1.338
 5865SOL    HW217885   5.236   4.580   1.354
 5866SOL     OW17886   3.773   3.881   0.335
 5866SOL    HW117887   3.729   3.904   0.249
 5866SOL    HW217888   3.869   3.859   0.318
 5867SOL     OW17889   4.895   5.081   0.128
 5867SOL    HW117890   4.798   5.062   0.118
 5867SOL    HW217891   4.921   5.068   0.224
 5868SOL     OW17892   4.350   4.553   1.437
 5868SOL    HW117893   4.408   4.633   1.423
 5868SOL    HW217894   4.406   4.471   1.444
 5869SOL     OW17895   5.215   5.537   1.006
 5869SOL    HW117896   5.239   5.592   0.926
 5869SOL    HW217897   5.295   5.484   1.035
 5870SOL     OW17898   4.450   4.275   1.699
 5870SOL    HW117899   4.498   4.335   1.762
 5870SOL    HW217900   4.466   4.179   1.725
 5871SOL     OW17901   5.199   4.916   1.631
 5871SOL    HW117902   5.185   4.931   1.729
 5871SOL    HW217903   5.294   4.935   1.608
 5872SOL     OW17904   4.091   5.459   1.569
 5872SOL    HW117905   4.008   5.513   1.555
 5872SOL    HW217906   4.065   5.370   1.609
 5873SOL     OW17907   5.387   4.599   1.253
 5873SOL    HW117908   5.384   4.508   1.211
 5873SOL    HW217909   5.373   4.669   1.183
 5874SOL     OW17910   4.946   4.029   0.471
 5874SOL    HW117911   5.012   3.955   0.461
 5874SOL    HW217912   4.971   4.087   0.549
 5875SOL     OW17913   4.309   4.458   0.670
 5875SOL    HW117914   4.350   4.549   0.660
 5875SOL    HW217915   4.241   4.444   0.599
 5876SOL     OW17916   5.469   4.093   1.657
 5876SOL    HW117917   5.466   4.109   1.559
 5876SOL    HW217918   5.395   4.032   1.684
 5877SOL     OW17919   5.479   4.648   1.504
 5877SOL    HW117920   5.467   4.744   1.527
 5877SOL    HW217921   5.451   4.633   1.409
 5878SOL     OW17922   4.625   5.112   0.051
 5878SOL    HW117923   4.568   5.093   0.131
 5878SOL    HW217924   4.612   5.208   0.024
 5879SOL     OW17925   4.394   5.493   0.939
 5879SOL    HW117926   4.367   5.588   0.920
 5879SOL    HW217927   4.493   5.484   0.929
 5880SOL     OW17928   4.593   4.695   0.857
 5880SOL    HW117929   4.644   4.617   0.892
 5880SOL    HW217930   4.548   4.742   0.933
 5881SOL     OW17931   4.791   4.685   0.082
 5881SOL    HW117932   4.770   4.745   0.005
 5881SOL    HW217933   4.871   4.629   0.061
 5882SOL     OW17934   5.564   5.288   0.848
 5882SOL    HW117935   5.492   5.273   0.781
 5882SOL    HW217936   5.560   5.217   0.918
 5883SOL     OW17937   3.955   5.014   1.852
 5883SOL    HW117938   3.902   4.940   1.812
 5883SOL    HW217939   3.930   5.025   1.948
 5884SOL     OW17940   3.814   4.944   0.666
 5884SOL    HW117941   3.832   4.904   0.756
 5884SOL    HW217942   3.882   4.912   0.601
 5885SOL     OW17943   4.411   5.139   1.636
 5885SOL    HW117944   4.330   5.091   1.668
 5885SOL    HW217945   4.411   5.232   1.672
 5886SOL     OW17946   5.525   3.906   1.236
 5886SOL    HW117947   5.543   3.811   1.261
 5886SOL    HW217948   5.543   3.919   1.138
 5887SOL     OW17949   4.156   4.146   0.525
 5887SOL    HW117950   4.178   4.077   0.457
 5887SOL    HW217951   4.100   4.105   0.597
 5888SOL     OW17952   5.413   5.193   1.086
 5888SOL    HW117953   5.333   5.180   1.027
 5888SOL    HW217954   5.412   5.125   1.159
 5889SOL     OW17955   4.064   4.283   1.285
 5889SOL    HW117956   4.119   4.222   1.342
 5889SOL    HW217957   4.074   4.256   1.189
 5890SOL     OW17958   4.554   5.308   0.676
 5890SOL    HW117959   4.532   5.382   0.613
 5890SOL    HW217960   4.478   5.243   0.678
 5891SOL     OW17961   5.152   3.958   1.117
 5891SOL    HW117962   5.168   3.864   1.148
 5891SOL    HW217963   5.099   4.008   1.185
 5892SOL     OW17964   4.736   3.740   1.131
 5892SOL    HW117965   4.671   3.678   1.085
 5892SOL    HW217966   4.826   3.698   1.132
 5893SOL     OW17967   4.504   5.051   0.314
 5893SOL    HW117968   4.474   4.957   0.326
 5893SOL    HW217969   4.597   5.061   0.350
 5894SOL     OW17970   4.348   5.282   1.291
 5894SOL    HW117971   4.343   5.369   1.341
 5894SOL    HW217972   4.439   5.272   1.250
 5895SOL     OW17973   5.090   3.773   0.171
 5895SOL    HW117974   5.132   3.699   0.119
 5895SOL    HW217975   4.993   3.754   0.185
 5896SOL     OW17976   5.009   4.191   0.680
 5896SOL    HW117977   4.959   4.277   0.680
 5896SOL    HW217978   5.010   4.152   0.772
 5897SOL     OW17979   5.311   3.923   0.890
 5897SOL    HW117980   5.255   3.947   0.970
 5897SOL    HW217981   5.312   4.000   0.826
 5898SOL     OW17982   3.800   4.817   0.301
 5898SOL    HW117983   3.883   4.766   0.277
 5898SOL    HW217984   3.746   4.763   0.365
 5899SOL     OW17985   4.611   5.393   0.333
 5899SOL    HW117986   4.530   5.362   0.283
 5899SOL    HW217987   4.584   5.461   0.401
 5900SOL     OW17988   3.944   4.375   1.994
 5900SOL    HW117989   3.849   4.376   2.025
 5900SOL    HW217990   3.948   4.342   1.900
 5901SOL     OW17991   3.906   3.976   2.847
 5901SOL    HW117992   3.937   3.950   2.939
 5901SOL    HW217993   3.843   3.906   2.813
 5902SOL     OW17994   3.714   4.083   2.502
 5902SOL    HW117995   3.646   4.104   2.572
 5902SOL    HW217996   3.738   3.986   2.507
 5903SOL     OW17997   4.293   5.027   3.055
 5903SOL    HW117998   4.205   5.028   3.008
 5903SOL    HW217999   4.314   5.119   3.089
 5904SOL     OW18000   5.291   5.240   2.568
 5904SOL    HW118001   5.247   5.215   2.654
 5904SOL    HW218002   5.222   5.248   2.496
 5905SOL     OW18003   4.846   4.430   2.566
 5905SOL    HW118004   4.901   4.511   2.545
 5905SOL    HW218005   4.784   4.450   2.642
 5906SOL     OW18006   5.467   4.328   2.095
 5906SOL    HW118007   5.458   4.326   1.996
 5906SOL    HW218008   5.448   4.237   2.133
 5907SOL     OW18009   4.457   4.862   2.905
 5907SOL    HW118010   4.393   4.898   2.972
 5907SOL    HW218011   4.503   4.938   2.859
 5908SOL     OW18012   4.604   4.479   3.686
 5908SOL    HW118013   4.595   4.546   3.760
 5908SOL    HW218014   4.626   4.527   3.601
 5909SOL     OW18015   4.403   4.713   2.511
 5909SOL    HW118016   4.475   4.709   2.580
 5909SOL    HW218017   4.330   4.774   2.543
 5910SOL     OW18018   4.436   4.877   3.685
 5910SOL    HW118019   4.489   4.954   3.721
 5910SOL    HW218020   4.354   4.912   3.640
 5911SOL     OW18021   4.054   5.138   2.927
 5911SOL    HW118022   3.975   5.094   2.883
 5911SOL    HW218023   4.103   5.194   2.860
 5912SOL     OW18024   5.180   5.227   3.225
 5912SOL    HW118025   5.237   5.308   3.232
 5912SOL    HW218026   5.108   5.231   3.294
 5913SOL     OW18027   4.166   4.116   3.342
 5913SOL    HW118028   4.249   4.061   3.350
 5913SOL    HW218029   4.086   4.058   3.359
 5914SOL     OW18030   5.336   4.166   2.607
 5914SOL    HW118031   5.293   4.200   2.523
 5914SOL    HW218032   5.341   4.241   2.674
 5915SOL     OW18033   3.949   5.440   2.333
 5915SOL    HW118034   3.968   5.517   2.394
 5915SOL    HW218035   4.025   5.429   2.268
 5916SOL     OW18036   4.861   5.062   3.561
 5916SOL    HW118037   4.909   5.059   3.649
 5916SOL    HW218038   4.804   4.981   3.551
 5917SOL     OW18039   3.958   5.170   2.398
 5917SOL    HW118040   3.944   5.269   2.396
 5917SOL    HW218041   3.900   5.130   2.468
 5918SOL     OW18042   4.000   4.812   2.760
 5918SOL    HW118043   3.994   4.718   2.792
 5918SOL    HW218044   3.939   4.869   2.815
 5919SOL     OW18045   4.317   5.511   3.291
 5919SOL    HW118046   4.233   5.490   3.341
 5919SOL    HW218047   4.348   5.604   3.314
 5920SOL     OW18048   4.302   4.721   2.008
 5920SOL    HW118049   4.350   4.765   1.932
 5920SOL    HW218050   4.342   4.749   2.095
 5921SOL     OW18051   5.319   3.850   3.329
 5921SOL    HW118052   5.353   3.926   3.273
 5921SOL    HW218053   5.301   3.883   3.422
 5922SOL     OW18054   3.840   4.380   2.433
 5922SOL    HW118055   3.826   4.284   2.459
 5922SOL    HW218056   3.836   4.437   2.514
 5923SOL     OW18057   5.569   5.477   2.196
 5923SOL    HW118058   5.641   5.453   2.262
 5923SOL    HW218059   5.579   5.573   2.169
 5924SOL     OW18060   3.753   5.309   1.983
 5924SOL    HW118061   3.739   5.212   2.002
 5924SOL    HW218062   3.735   5.363   2.065
 5925SOL     OW18063   5.418   4.641   2.508
 5925SOL    HW118064   5.497   4.585   2.482
 5925SOL    HW218065   5.392   4.699   2.431
 5926SOL     OW18066   5.370   4.827   2.302
 5926SOL    HW118067   5.458   4.824   2.255
 5926SOL    HW218068   5.374   4.895   2.375
 5927SOL     OW18069   3.850   4.468   3.443
 5927SOL    HW118070   3.945   4.498   3.445
 5927SOL    HW218071   3.790   4.548   3.438
 5928SOL     OW18072   4.335   5.116   2.593
 5928SOL    HW118073   4.291   5.027   2.604
 5928SOL    HW218074   4.323   5.149   2.500
 5929SOL     OW18075   5.008   4.955   3.284
 5929SOL    HW118076   5.033   4.884   3.218
 5929SOL    HW218077   5.070   4.951   3.362
 5930SOL     OW18078   4.495   3.719   2.309
 5930SOL    HW118079   4.550   3.802   2.294
 5930SOL    HW218080   4.413   3.723   2.252
 5931SOL     OW18081   3.911   4.681   3.148
 5931SOL    HW118082   4.000   4.638   3.135
 5931SOL    HW218083   3.844   4.639   3.086
 5932SOL     OW18084   5.255   4.731   2.067
 5932SOL    HW118085   5.182   4.668   2.095
 5932SOL    HW218086   5.301   4.767   2.148
 5933SOL     OW18087   4.926   5.523   3.482
 5933SOL    HW118088   4.926   5.581   3.401
 5933SOL    HW218089   4.938   5.427   3.454
 5934SOL     OW18090   4.072   3.974   3.719
 5934SOL    HW118091   4.120   4.058   3.745
 5934SOL    HW218092   3.973   3.988   3.726
 5935SOL     OW18093   5.184   5.148   2.802
 5935SOL    HW118094   5.121   5.166   2.877
 5935SOL    HW218095   5.178   5.052   2.776
 5936SOL     OW18096   5.373   5.474   2.436
 5936SOL    HW118097   5.352   5.445   2.343
 5936SOL    HW218098   5.354   5.398   2.499
 5937SOL     OW18099   4.334   4.462   2.135
 5937SOL    HW118100   4.334   4.544   2.078
 5937SOL    HW218101   4.268   4.474   2.210
 5938SOL     OW18102   4.987   4.089   2.803
 5938SOL    HW118103   4.896   4.049   2.818
 5938SOL    HW218104   5.054   4.040   2.858
 5939SOL     OW18105   5.306   5.397   2.172
 5939SOL    HW118106   5.404   5.420   2.169
 5939SOL    HW218107   5.273   5.381   2.079
 5940SOL     OW18108   4.517   4.343   3.310
 5940SOL    HW118109   4.493   4.314   3.402
 5940SOL    HW218110   4.490   4.272   3.244
 5941SOL     OW18111   5.115   4.193   3.543
 5941SOL    HW118112   5.117   4.242   3.630
 5941SOL    HW218113   5.172   4.111   3.550
 5942SOL     OW18114   4.674   4.607   3.449
 5942SOL    HW118115   4.733   4.538   3.408
 5942SOL    HW218116   4.620   4.651   3.377
 5943SOL     OW18117   4.727   4.136   3.069
 5943SOL    HW118118   4.632   4.151   3.098
 5943SOL    HW218119   4.728   4.071   2.993
 5944SOL     OW18120   4.780   4.424   2.285
 5944SOL    HW118121   4.796   4.420   2.383
 5944SOL    HW218122   4.694   4.378   2.263
 5945SOL     OW18123   3.811   4.555   2.641
 5945SOL    HW118124   3.896   4.540   2.692
 5945SOL    HW218125   3.761   4.631   2.683
 5946SOL     OW18126   3.854   5.595   3.453
 5946SOL    HW118127   3.861   5.570   3.550
 5946SOL    HW218128   3.767   5.561   3.417
 5947SOL     OW18129   4.592   4.076   2.066
 5947SOL    HW118130   4.644   4.117   1.991
 5947SOL    HW218131   4.532   4.005   2.031
 5948SOL     OW18132   5.421   4.297   3.691
 5948SOL    HW118133   5.387   4.375   3.638
 5948SOL    HW218134   5.450   4.225   3.628
 5949SOL     OW18135   5.098   4.862   2.391
 5949SOL    HW118136   5.184   4.848   2.343
 5949SOL    HW218137   5.045   4.933   2.343
 5950SOL     OW18138   4.301   3.901   2.837
 5950SOL    HW118139   4.293   3.924   2.934
 5950SOL    HW218140   4.259   3.973   2.782
 5951SOL     OW18141   4.715   5.172   2.324
 5951SOL    HW118142   4.688   5.250   2.268
 5951SOL    HW218143   4.691   5.189   2.420
 5952SOL     OW18144   4.075   5.539   2.739
 5952SOL    HW118145   4.121   5.450   2.743
 5952SOL    HW218146   4.142   5.611   2.756
 5953SOL     OW18147   5.526   4.772   2.735
 5953SOL    HW118148   5.475   4.747   2.652
 5953SOL    HW218149   5.462   4.781   2.812
 5954SOL     OW18150   4.948   5.257   3.378
 5954SOL    HW118151   4.936   5.183   3.444
 5954SOL    HW218152   4.879   5.251   3.307
 5955SOL     OW18153   4.040   4.677   2.118
 5955SOL    HW118154   4.126   4.703   2.075
 5955SOL    HW218155   4.007   4.591   2.078
 5956SOL     OW18156   5.207   4.482   2.588
 5956SOL    HW118157   5.210   4.435   2.676
 5956SOL    HW218158   5.290   4.537   2.577
 5957SOL     OW18159   4.197   4.993   3.591
 5957SOL    HW118160   4.171   4.998   3.494
 5957SOL    HW218161   4.114   4.989   3.647
 5958SOL     OW18162   4.855   5.496   2.087
 5958SOL    HW118163   4.770   5.466   2.131
 5958SOL    HW218164   4.881   5.430   2.016
 5959SOL     OW18165   3.921   3.988   3.368
 5959SOL    HW118166   3.840   4.046   3.376
 5959SOL    HW218167   3.900   3.897   3.404
 5960SOL     OW18168   5.346   5.110   1.954
 5960SOL    HW118169   5.309   5.201   1.934
 5960SOL    HW218170   5.277   5.041   1.932
 5961SOL     OW18171   4.190   5.453   2.182
 5961SOL    HW118172   4.230   5.520   2.243
 5961SOL    HW218173   4.259   5.419   2.118
 5962SOL     OW18174   5.130   3.828   2.301
 5962SOL    HW118175   5.117   3.802   2.205
 5962SOL    HW218176   5.228   3.837   2.320
 5963SOL     OW18177   3.979   5.513   3.085
 5963SOL    HW118178   4.031   5.437   3.126
 5963SOL    HW218179   3.965   5.496   2.988
 5964SOL     OW18180   4.665   5.421   2.755
 5964SOL    HW118181   4.752   5.379   2.780
 5964SOL    HW218182   4.622   5.368   2.682
 5965SOL     OW18183   4.119   4.397   2.339
 5965SOL    HW118184   4.131   4.328   2.267
 5965SOL    HW218185   4.023   4.400   2.366
 5966SOL     OW18186   5.246   3.946   3.588
 5966SOL    HW118187   5.258   3.967   3.685
 5966SOL    HW218188   5.177   3.874   3.577
 5967SOL     OW18189   4.433   3.877   1.974
 5967SOL    HW118190   4.469   3.784   1.975
 5967SOL    HW218191   4.334   3.874   1.988
 5968SOL     OW18192   4.485   3.998   3.621
 5968SOL    HW118193   4.573   3.950   3.613
 5968SOL    HW218194   4.435   3.963   3.699
 5969SOL     OW18195   4.598   5.237   3.055
 5969SOL    HW118196   4.578   5.200   2.964
 5969SOL    HW218197   4.669   5.183   3.098
 5970SOL     OW18198   5.062   4.313   3.300
 5970SOL    HW118199   5.093   4.278   3.389
 5970SOL    HW218200   5.099   4.405   3.286
 5971SOL     OW18201   4.544   5.106   2.805
 5971SOL    HW118202   4.636   5.099   2.765
 5971SOL    HW218203   4.477   5.120   2.733
 5972SOL     OW18204   5.148   4.927   1.903
 5972SOL    HW118205   5.183   4.850   1.957
 5972SOL    HW218206   5.059   4.955   1.938
 5973SOL     OW18207   4.679   3.949   2.295
 5973SOL    HW118208   4.640   3.993   2.214
 5973SOL    HW218209   4.777   3.970   2.301
 5974SOL     OW18210   4.806   4.412   3.314
 5974SOL    HW118211   4.732   4.345   3.321
 5974SOL    HW218212   4.894   4.365   3.312
 5975SOL     OW18213   4.937   5.300   2.659
 5975SOL    HW118214   4.952   5.368   2.587
 5975SOL    HW218215   5.015   5.301   2.722
 5976SOL     OW18216   4.193   4.877   2.582
 5976SOL    HW118217   4.129   4.855   2.655
 5976SOL    HW218218   4.148   4.868   2.493
 5977SOL     OW18219   4.985   5.512   2.474
 5977SOL    HW118220   5.042   5.575   2.421
 5977SOL    HW218221   4.905   5.561   2.509
 5978SOL     OW18222   4.746   4.246   1.891
 5978SOL    HW118223   4.702   4.333   1.870
 5978SOL    HW218224   4.810   4.260   1.967
 5979SOL     OW18225   3.818   4.281   3.247
 5979SOL    HW118226   3.912   4.275   3.215
 5979SOL    HW218227   3.811   4.350   3.319
 5980SOL     OW18228   4.280   3.963   3.097
 5980SOL    HW118229   4.321   3.906   3.167
 5980SOL    HW218230   4.180   3.956   3.101
 5981SOL     OW18231   5.179   4.887   2.718
 5981SOL    HW118232   5.096   4.834   2.703
 5981SOL    HW218233   5.227   4.900   2.631
 5982SOL     OW18234   5.193   4.337   2.830
 5982SOL    HW118235   5.133   4.257   2.830
 5982SOL    HW218236   5.257   4.331   2.907
 5983SOL     OW18237   5.580   4.531   2.239
 5983SOL    HW118238   5.627   4.477   2.309
 5983SOL    HW218239   5.537   4.469   2.173
 5984SOL     OW18240   4.210   5.144   2.013
 5984SOL    HW118241   4.129   5.118   2.065
 5984SOL    HW218242   4.211   5.094   1.926
 5985SOL     OW18243   5.388   4.988   2.516
 5985SOL    HW118244   5.488   4.983   2.524
 5985SOL    HW218245   5.359   5.083   2.527
 5986SOL     OW18246   5.114   4.301   1.931
 5986SOL    HW118247   5.051   4.274   2.004
 5986SOL    HW218248   5.207   4.276   1.958
 5987SOL     OW18249   5.475   4.958   3.408
 5987SOL    HW118250   5.566   4.919   3.392
 5987SOL    HW218251   5.485   5.052   3.442
 5988SOL     OW18252   4.773   5.071   3.198
 5988SOL    HW118253   4.690   5.043   3.247
 5988SOL    HW218254   4.853   5.031   3.241
 5989SOL     OW18255   5.331   5.360   3.521
 5989SOL    HW118256   5.316   5.397   3.430
 5989SOL    HW218257   5.414   5.303   3.521
 5990SOL     OW18258   4.867   4.952   2.967
 5990SOL    HW118259   4.807   4.986   3.039
 5990SOL    HW218260   4.835   4.985   2.878
 5991SOL     OW18261   5.347   4.819   2.940
 5991SOL    HW118262   5.342   4.885   3.015
 5991SOL    HW218263   5.274   4.838   2.873
 5992SOL     OW18264   4.650   3.812   3.253
 5992SOL    HW118265   4.671   3.785   3.159
 5992SOL    HW218266   4.730   3.857   3.293
 5993SOL     OW18267   4.701   4.840   3.583
 5993SOL    HW118268   4.607   4.859   3.612
 5993SOL    HW218269   4.702   4.756   3.529
 5994SOL     OW18270   4.439   4.784   2.238
 5994SOL    HW118271   4.420   4.761   2.334
 5994SOL    HW218272   4.518   4.732   2.207
 5995SOL     OW18273   4.144   4.539   3.121
 5995SOL    HW118274   4.216   4.552   3.189
 5995SOL    HW218275   4.110   4.445   3.127
 5996SOL     OW18276   4.986   4.100   3.147
 5996SOL    HW118277   5.022   4.179   3.197
 5996SOL    HW218278   4.893   4.119   3.117
 5997SOL     OW18279   3.800   5.293   3.216
 5997SOL    HW118280   3.763   5.362   3.154
 5997SOL    HW218281   3.900   5.293   3.209
 5998SOL     OW18282   4.053   4.849   2.344
 5998SOL    HW118283   4.057   4.931   2.287
 5998SOL    HW218284   4.054   4.768   2.287
 5999SOL     OW18285   4.309   4.241   2.705
 5999SOL    HW118286   4.296   4.313   2.636
 5999SOL    HW218287   4.359   4.278   2.783
 6000SOL     OW18288   4.967   5.080   2.259
 6000SOL    HW118289   5.029   5.152   2.289
 6000SOL    HW218290   4.874   5.102   2.287
 6001SOL     OW18291   5.018   5.189   3.010
 6001SOL    HW118292   5.075   5.196   3.092
 6001SOL    HW218293   4.965   5.105   3.014
 6002SOL     OW18294   5.297   4.329   2.361
 6002SOL    HW118295   5.245   4.392   2.419
 6002SOL    HW218296   5.341   4.380   2.287
 6003SOL     OW18297   4.072   5.255   3.167
 6003SOL    HW118298   4.058   5.207   3.080
 6003SOL    HW218299   4.170   5.269   3.181
 6004SOL     OW18300   4.141   4.472   3.464
 6004SOL    HW118301   4.209   4.516   3.406
 6004SOL    HW218302   4.171   4.380   3.486
 6005SOL     OW18303   5.333   4.508   3.547
 6005SOL    HW118304   5.242   4.550   3.545
 6005SOL    HW218305   5.390   4.549   3.475
 6006SOL     OW18306   4.721   3.864   3.612
 6006SOL    HW118307   4.779   3.944   3.599
 6006SOL    HW218308   4.772   3.781   3.586
 6007SOL     OW18309   4.216   3.761   3.619
 6007SOL    HW118310   4.169   3.704   3.552
 6007SOL    HW218311   4.160   3.841   3.641
 6008SOL     OW18312   4.299   4.599   2.902
 6008SOL    HW118313   4.337   4.691   2.898
 6008SOL    HW218314   4.239   4.591   2.982
 6009SOL     OW18315   5.073   4.581   2.886
 6009SOL    HW118316   5.001   4.588   2.817
 6009SOL    HW218317   5.122   4.495   2.875
 6010SOL     OW18318   4.920   4.247   2.122
 6010SOL    HW118319   4.929   4.163   2.176
 6010SOL    HW218320   4.876   4.317   2.178
 6011SOL     OW18321   4.011   3.930   3.110
 6011SOL    HW118322   3.971   3.956   3.198
 6011SOL    HW218323   4.001   3.831   3.097
 6012SOL     OW18324   3.778   5.033   3.134
 6012SOL    HW118325   3.809   4.972   3.207
 6012SOL    HW218326   3.780   5.127   3.167
 6013SOL     OW18327   4.449   4.370   2.902
 6013SOL    HW118328   4.541   4.394   2.873
 6013SOL    HW218329   4.391   4.452   2.902
 6014SOL     OW18330   5.455   4.687   3.717
 6014SOL    HW118331   5.412   4.613   3.665
 6014SOL    HW218332   5.398   4.710   3.796
 6015SOL     OW18333   5.351   4.100   2.221
 6015SOL    HW118334   5.383   4.025   2.278
 6015SOL    HW218335   5.322   4.176   2.278
 6016SOL     OW18336   4.720   4.454   2.833
 6016SOL    HW118337   4.716   4.494   2.925
 6016SOL    HW218338   4.773   4.369   2.836
 6017SOL     OW18339   4.708   5.288   3.583
 6017SOL    HW118340   4.687   5.333   3.497
 6017SOL    HW218341   4.753   5.200   3.565
 6018SOL     OW18342   5.562   5.218   3.456
 6018SOL    HW118343   5.584   5.249   3.364
 6018SOL    HW218344   5.642   5.229   3.515
 6019SOL     OW18345   4.076   4.644   3.668
 6019SOL    HW118346   4.155   4.665   3.726
 6019SOL    HW218347   4.102   4.579   3.597
 6020SOL     OW18348   5.246   3.991   1.989
 6020SOL    HW118349   5.180   3.920   2.016
 6020SOL    HW218350   5.285   4.032   2.072
 6021SOL     OW18351   5.013   4.551   1.886
 6021SOL    HW118352   5.050   4.458   1.894
 6021SOL    HW218353   5.043   4.592   1.800
 6022SOL     OW18354   4.798   5.067   2.722
 6022SOL    HW118355   4.803   4.989   2.660
 6022SOL    HW218356   4.852   5.143   2.685
 6023SOL     OW18357   4.033   4.524   2.803
 6023SOL    HW118358   4.130   4.550   2.801
 6023SOL    HW218359   4.025   4.430   2.836
 6024SOL     OW18360   4.066   4.220   2.867
 6024SOL    HW118361   4.012   4.138   2.848
 6024SOL    HW218362   4.138   4.228   2.799
 6025SOL     OW18363   4.859   4.097   3.557
 6025SOL    HW118364   4.807   4.152   3.622
 6025SOL    HW218365   4.951   4.134   3.548
 6026SOL     OW18366   4.885   3.926   3.339
 6026SOL    HW118367   4.870   3.988   3.417
 6026SOL    HW218368   4.930   3.977   3.265
 6027SOL     OW18369   3.725   5.035   2.058
 6027SOL    HW118370   3.635   5.056   2.020
 6027SOL    HW218371   3.725   4.940   2.091
 6028SOL     OW18372   3.813   5.506   2.811
 6028SOL    HW118373   3.778   5.426   2.763
 6028SOL    HW218374   3.906   5.526   2.778
 6029SOL     OW18375   4.212   5.297   2.765
 6029SOL    HW118376   4.283   5.363   2.791
 6029SOL    HW218377   4.251   5.231   2.701
 6030SOL     OW18378   4.683   4.520   3.091
 6030SOL    HW118379   4.753   4.499   3.159
 6030SOL    HW218380   4.595   4.485   3.123
 6031SOL     OW18381   3.756   4.281   2.976
 6031SOL    HW118382   3.822   4.231   2.920
 6031SOL    HW218383   3.788   4.284   3.071
 6032SOL     OW18384   3.915   4.249   3.596
 6032SOL    HW118385   3.969   4.193   3.533
 6032SOL    HW218386   3.880   4.329   3.546
 6033SOL     OW18387   5.106   4.655   3.513
 6033SOL    HW118388   5.130   4.752   3.515
 6033SOL    HW218389   5.102   4.623   3.419
 6034SOL     OW18390   4.550   4.304   2.217
 6034SOL    HW118391   4.555   4.219   2.164
 6034SOL    HW218392   4.473   4.358   2.186
 6035SOL     OW18393   5.374   4.328   3.036
 6035SOL    HW118394   5.355   4.270   3.116
 6035SOL    HW218395   5.464   4.306   3.000
 6036SOL     OW18396   3.960   5.265   3.585
 6036SOL    HW118397   3.941   5.341   3.648
 6036SOL    HW218398   3.968   5.180   3.637
 6037SOL     OW18399   4.453   4.178   3.105
 6037SOL    HW118400   4.386   4.103   3.102
 6037SOL    HW218401   4.435   4.241   3.030
 6038SOL     OW18402   4.641   5.400   3.336
 6038SOL    HW118403   4.611   5.348   3.256
 6038SOL    HW218404   4.638   5.498   3.316
 6039SOL     OW18405   4.156   4.247   2.118
 6039SOL    HW118406   4.239   4.296   2.091
 6039SOL    HW218407   4.079   4.279   2.062
 6040SOL     OW18408   3.861   4.864   3.340
 6040SOL    HW118409   3.865   4.824   3.432
 6040SOL    HW218410   3.881   4.793   3.272
 6041SOL     OW18411   5.032   4.765   3.080
 6041SOL    HW118412   5.059   4.697   3.012
 6041SOL    HW218413   4.970   4.832   3.039
 6042SOL     OW18414   5.042   4.578   2.158
 6042SOL    HW118415   4.964   4.550   2.213
 6042SOL    HW218416   5.021   4.567   2.061
 6043SOL     OW18417   5.498   5.437   3.019
 6043SOL    HW118418   5.563   5.479   2.955
 6043SOL    HW218419   5.472   5.346   2.985
 6044SOL     OW18420   4.967   5.457   2.963
 6044SOL    HW118421   5.055   5.491   2.927
 6044SOL    HW218422   4.976   5.360   2.986
 6045SOL     OW18423   3.816   4.982   2.871
 6045SOL    HW118424   3.797   5.000   2.968
 6045SOL    HW218425   3.742   4.925   2.833
 6046SOL     OW18426   4.406   5.403   3.605
 6046SOL    HW118427   4.340   5.478   3.604
 6046SOL    HW218428   4.479   5.421   3.538
 6047SOL     OW18429   5.445   3.880   2.356
 6047SOL    HW118430   5.517   3.870   2.287
 6047SOL    HW218431   5.427   3.791   2.399
 6048SOL     OW18432   5.120   5.295   2.353
 6048SOL    HW118433   5.182   5.327   2.281
 6048SOL    HW218434   5.064   5.371   2.385
 6049SOL     OW18435   3.873   5.505   3.708
 6049SOL    HW118436   3.815   5.437   3.753
 6049SOL    HW218437   3.923   5.557   3.778
 6050SOL     OW18438   5.004   4.651   2.530
 6050SOL    HW118439   5.080   4.588   2.546
 6050SOL    HW218440   5.034   4.726   2.471
 6051SOL     OW18441   4.517   5.007   3.285
 6051SOL    HW118442   4.490   5.052   3.369
 6051SOL    HW218443   4.446   5.020   3.215
 6052SOL     OW18444   4.391   5.345   2.016
 6052SOL    HW118445   4.407   5.368   1.920
 6052SOL    HW218446   4.332   5.265   2.021
 6053SOL     OW18447   5.332   5.456   3.246
 6053SOL    HW118448   5.392   5.453   3.166
 6053SOL    HW218449   5.312   5.551   3.269
 6054SOL     OW18450   5.571   3.896   2.829
 6054SOL    HW118451   5.605   3.804   2.809
 6054SOL    HW218452   5.480   3.908   2.788
 6055SOL     OW18453   3.999   4.072   2.610
 6055SOL    HW118454   3.926   4.080   2.543
 6055SOL    HW218455   3.966   4.021   2.690
 6056SOL     OW18456   4.931   5.317   1.896
 6056SOL    HW118457   4.924   5.223   1.931
 6056SOL    HW218458   4.862   5.332   1.825
 6057SOL     OW18459   4.546   4.738   3.246
 6057SOL    HW118460   4.597   4.722   3.161
 6057SOL    HW218461   4.538   4.836   3.263
 6058SOL     OW18462   4.650   4.642   2.154
 6058SOL    HW118463   4.708   4.676   2.080
 6058SOL    HW218464   4.695   4.566   2.200
 6059SOL     OW18465   5.205   5.369   1.907
 6059SOL    HW118466   5.109   5.347   1.893
 6059SOL    HW218467   5.252   5.371   1.818
 6060SOL     OW18468   4.089   5.027   3.347
 6060SOL    HW118469   4.080   5.107   3.288
 6060SOL    HW218470   4.008   4.970   3.338
 6061SOL     OW18471   5.336   5.010   3.146
 6061SOL    HW118472   5.398   4.987   3.220
 6061SOL    HW218473   5.270   5.079   3.177
 6062SOL     OW18474   4.792   4.833   2.589
 6062SOL    HW118475   4.713   4.783   2.624
 6062SOL    HW218476   4.857   4.769   2.548
 6063SOL     OW18477   4.741   3.958   2.857
 6063SOL    HW118478   4.655   3.954   2.807
 6063SOL    HW218479   4.752   3.875   2.912
 6064SOL     OW18480   4.329   5.212   2.341
 6064SOL    HW118481   4.383   5.157   2.277
 6064SOL    HW218482   4.257   5.261   2.291
 6065SOL     OW18483   5.470   4.123   3.244
 6065SOL    HW118484   5.545   4.189   3.238
 6065SOL    HW218485   5.488   4.047   3.181
 6066SOL     OW18486   3.978   5.069   2.153
 6066SOL    HW118487   3.882   5.062   2.124
 6066SOL    HW218488   3.982   5.112   2.243
 6067SOL     OW18489   3.842   4.770   3.599
 6067SOL    HW118490   3.760   4.739   3.647
 6067SOL    HW218491   3.921   4.720   3.633
 6068SOL     OW18492   4.413   3.913   3.361
 6068SOL    HW118493   4.501   3.886   3.321
 6068SOL    HW218494   4.428   3.948   3.453
 6069SOL     OW18495   3.734   4.133   1.900
 6069SOL    HW118496   3.773   4.049   1.937
 6069SOL    HW218497   3.799   4.175   1.836
 6070SOL     OW18498   5.144   4.578   3.253
 6070SOL    HW118499   5.087   4.642   3.201
 6070SOL    HW218500   5.237   4.580   3.217
 6071SOL     OW18501   4.904   5.056   1.986
 6071SOL    HW118502   4.808   5.029   1.977
 6071SOL    HW218503   4.929   5.057   2.082
 6072SOL     OW18504   4.347   4.556   3.298
 6072SOL    HW118505   4.404   4.637   3.286
 6072SOL    HW218506   4.406   4.475   3.308
 6073SOL     OW18507   5.217   5.537   2.868
 6073SOL    HW118508   5.239   5.590   2.787
 6073SOL    HW218509   5.298   5.488   2.900
 6074SOL     OW18510   4.451   4.275   3.561
 6074SOL    HW118511   4.495   4.340   3.623
 6074SOL    HW218512   4.464   4.182   3.595
 6075SOL     OW18513   5.199   4.915   3.494
 6075SOL    HW118514   5.184   4.931   3.592
 6075SOL    HW218515   5.294   4.935   3.471
 6076SOL     OW18516   4.090   5.458   3.430
 6076SOL    HW118517   4.008   5.513   3.417
 6076SOL    HW218518   4.065   5.370   3.471
 6077SOL     OW18519   5.386   4.600   3.115
 6077SOL    HW118520   5.385   4.510   3.072
 6077SOL    HW218521   5.373   4.670   3.045
 6078SOL     OW18522   4.943   4.034   2.320
 6078SOL    HW118523   5.011   3.962   2.311
 6078SOL    HW218524   4.966   4.091   2.399
 6079SOL     OW18525   4.300   4.451   2.534
 6079SOL    HW118526   4.340   4.542   2.521
 6079SOL    HW218527   4.234   4.432   2.462
 6080SOL     OW18528   5.471   4.092   3.517
 6080SOL    HW118529   5.465   4.109   3.418
 6080SOL    HW218530   5.396   4.031   3.545
 6081SOL     OW18531   5.478   4.648   3.367
 6081SOL    HW118532   5.467   4.744   3.391
 6081SOL    HW218533   5.451   4.635   3.271
 6082SOL     OW18534   4.596   5.087   1.915
 6082SOL    HW118535   4.551   5.110   2.002
 6082SOL    HW218536   4.607   5.170   1.861
 6083SOL     OW18537   4.394   5.493   2.800
 6083SOL    HW118538   4.366   5.587   2.783
 6083SOL    HW218539   4.493   5.484   2.790
 6084SOL     OW18540   4.591   4.694   2.721
 6084SOL    HW118541   4.630   4.611   2.760
 6084SOL    HW218542   4.545   4.747   2.792
 6085SOL     OW18543   4.802   4.714   1.945
 6085SOL    HW118544   4.773   4.767   1.865
 6085SOL    HW218545   4.879   4.655   1.920
 6086SOL     OW18546   5.563   5.287   2.709
 6086SOL    HW118547   5.489   5.273   2.643
 6086SOL    HW218548   5.554   5.221   2.784
 6087SOL     OW18549   3.959   5.017   3.718
 6087SOL    HW118550   3.899   4.946   3.682
 6087SOL    HW218551   3.943   5.028   3.816
 6088SOL     OW18552   3.818   4.947   2.524
 6088SOL    HW118553   3.837   4.907   2.613
 6088SOL    HW218554   3.883   4.913   2.457
 6089SOL     OW18555   4.410   5.139   3.499
 6089SOL    HW118556   4.330   5.090   3.531
 6089SOL    HW218557   4.410   5.233   3.535
 6090SOL     OW18558   5.523   3.906   3.097
 6090SOL    HW118559   5.545   3.811   3.123
 6090SOL    HW218560   5.541   3.919   3.000
 6091SOL     OW18561   5.416   5.192   2.945
 6091SOL    HW118562   5.334   5.180   2.889
 6091SOL    HW218563   5.416   5.125   3.019
 6092SOL     OW18564   4.066   4.277   3.141
 6092SOL    HW118565   4.116   4.218   3.205
 6092SOL    HW218566   4.077   4.243   3.048
 6093SOL     OW18567   4.555   5.308   2.535
 6093SOL    HW118568   4.537   5.382   2.470
 6093SOL    HW218569   4.477   5.245   2.536
 6094SOL     OW18570   5.153   3.962   2.977
 6094SOL    HW118571   5.174   3.870   3.010
 6094SOL    HW218572   5.100   4.011   3.047
 6095SOL     OW18573   4.737   3.724   3.001
 6095SOL    HW118574   4.675   3.664   2.950
 6095SOL    HW218575   4.828   3.685   3.002
 6096SOL     OW18576   4.498   5.055   2.188
 6096SOL    HW118577   4.474   4.959   2.198
 6096SOL    HW218578   4.584   5.073   2.237
 6097SOL     OW18579   4.348   5.281   3.153
 6097SOL    HW118580   4.343   5.367   3.203
 6097SOL    HW218581   4.439   5.272   3.111
 6098SOL     OW18582   5.084   3.768   2.038
 6098SOL    HW118583   5.129   3.701   1.979
 6098SOL    HW218584   4.991   3.738   2.059
 6099SOL     OW18585   4.982   4.182   2.545
 6099SOL    HW118586   4.946   4.276   2.549
 6099SOL    HW218587   4.997   4.149   2.638
 6100SOL     OW18588   5.310   3.925   2.750
 6100SOL    HW118589   5.255   3.950   2.830
 6100SOL    HW218590   5.313   4.002   2.687
 6101SOL     OW18591   3.764   4.780   2.172
 6101SOL    HW118592   3.862   4.779   2.149
 6101SOL    HW218593   3.734   4.688   2.196
 6102SOL     OW18594   4.611   5.390   2.191
 6102SOL    HW118595   4.535   5.368   2.129
 6102SOL    HW218596   4.582   5.462   2.254
 6103SOL     OW18597   3.936   4.342   3.858
 6103SOL    HW118598   3.843   4.338   3.896
 6103SOL    HW218599   3.932   4.323   3.760
 6104SOL     OW18600   3.945   4.007   4.719
 6104SOL    HW118601   3.978   3.973   4.807
 6104SOL    HW218602   3.852   3.973   4.702
 6105SOL     OW18603   3.722   4.114   4.358
 6105SOL    HW118604   3.639   4.143   4.407
 6105SOL    HW218605   3.701   4.034   4.302
 6106SOL     OW18606   4.294   5.028   4.919
 6106SOL    HW118607   4.206   5.028   4.871
 6106SOL    HW218608   4.314   5.120   4.952
 6107SOL     OW18609   5.291   5.240   4.431
 6107SOL    HW118610   5.248   5.214   4.517
 6107SOL    HW218611   5.222   5.248   4.359
 6108SOL     OW18612   4.858   4.431   4.415
 6108SOL    HW118613   4.911   4.515   4.400
 6108SOL    HW218614   4.807   4.438   4.500
 6109SOL     OW18615   5.477   4.328   3.952
 6109SOL    HW118616   5.463   4.322   3.853
 6109SOL    HW218617   5.451   4.242   3.995
 6110SOL     OW18618   4.457   4.861   4.768
 6110SOL    HW118619   4.392   4.898   4.835
 6110SOL    HW218620   4.503   4.936   4.722
 6111SOL     OW18621   4.600   4.480   5.551
 6111SOL    HW118622   4.583   4.542   5.627
 6111SOL    HW218623   4.623   4.533   5.469
 6112SOL     OW18624   4.407   4.719   4.372
 6112SOL    HW118625   4.479   4.712   4.441
 6112SOL    HW218626   4.334   4.778   4.406
 6113SOL     OW18627   4.435   4.888   5.545
 6113SOL    HW118628   4.488   4.966   5.579
 6113SOL    HW218629   4.352   4.921   5.501
 6114SOL     OW18630   4.054   5.138   4.789
 6114SOL    HW118631   3.975   5.094   4.746
 6114SOL    HW218632   4.102   5.194   4.722
 6115SOL     OW18633   5.180   5.227   5.086
 6115SOL    HW118634   5.238   5.309   5.093
 6115SOL    HW218635   5.109   5.231   5.156
 6116SOL     OW18636   4.177   4.109   5.193
 6116SOL    HW118637   4.259   4.053   5.205
 6116SOL    HW218638   4.096   4.056   5.218
 6117SOL     OW18639   5.328   4.164   4.473
 6117SOL    HW118640   5.262   4.184   4.400
 6117SOL    HW218641   5.326   4.237   4.540
 6118SOL     OW18642   3.949   5.440   4.195
 6118SOL    HW118643   3.967   5.517   4.257
 6118SOL    HW218644   4.025   5.429   4.131
 6119SOL     OW18645   4.862   5.059   5.422
 6119SOL    HW118646   4.915   5.057   5.507
 6119SOL    HW218647   4.806   4.976   5.415
 6120SOL     OW18648   3.959   5.169   4.257
 6120SOL    HW118649   3.944   5.268   4.258
 6120SOL    HW218650   3.902   5.126   4.327
 6121SOL     OW18651   4.001   4.813   4.623
 6121SOL    HW118652   3.998   4.719   4.655
 6121SOL    HW218653   3.939   4.869   4.678
 6122SOL     OW18654   4.317   5.510   5.154
 6122SOL    HW118655   4.232   5.490   5.203
 6122SOL    HW218656   4.346   5.603   5.176
 6123SOL     OW18657   4.301   4.715   3.872
 6123SOL    HW118658   4.350   4.759   3.796
 6123SOL    HW218659   4.343   4.742   3.958
 6124SOL     OW18660   5.320   3.850   5.194
 6124SOL    HW118661   5.348   3.929   5.139
 6124SOL    HW218662   5.300   3.880   5.287
 6125SOL     OW18663   3.838   4.389   4.290
 6125SOL    HW118664   3.810   4.294   4.308
 6125SOL    HW218665   3.834   4.442   4.375
 6126SOL     OW18666   5.569   5.477   4.058
 6126SOL    HW118667   5.641   5.453   4.124
 6126SOL    HW218668   5.579   5.573   4.031
 6127SOL     OW18669   3.753   5.309   3.844
 6127SOL    HW118670   3.738   5.212   3.864
 6127SOL    HW218671   3.735   5.362   3.927
 6128SOL     OW18672   5.421   4.644   4.371
 6128SOL    HW118673   5.499   4.587   4.344
 6128SOL    HW218674   5.394   4.701   4.293
 6129SOL     OW18675   5.371   4.828   4.161
 6129SOL    HW118676   5.460   4.824   4.114
 6129SOL    HW218677   5.375   4.896   4.234
 6130SOL     OW18678   3.849   4.468   5.308
 6130SOL    HW118679   3.944   4.497   5.306
 6130SOL    HW218680   3.789   4.548   5.302
 6131SOL     OW18681   4.337   5.117   4.455
 6131SOL    HW118682   4.292   5.028   4.466
 6131SOL    HW218683   4.324   5.149   4.361
 6132SOL     OW18684   5.007   4.954   5.145
 6132SOL    HW118685   5.032   4.884   5.078
 6132SOL    HW218686   5.070   4.950   5.222
 6133SOL     OW18687   4.546   3.739   4.234
 6133SOL    HW118688   4.592   3.825   4.209
 6133SOL    HW218689   4.447   3.755   4.238
 6134SOL     OW18690   3.914   4.680   5.009
 6134SOL    HW118691   4.004   4.640   4.995
 6134SOL    HW218692   3.848   4.639   4.946
 6135SOL     OW18693   5.255   4.732   3.928
 6135SOL    HW118694   5.183   4.669   3.957
 6135SOL    HW218695   5.302   4.768   4.009
 6136SOL     OW18696   4.911   5.520   5.345
 6136SOL    HW118697   4.923   5.584   5.269
 6136SOL    HW218698   4.929   5.427   5.314
 6137SOL     OW18699   4.074   3.977   5.562
 6137SOL    HW118700   4.120   4.059   5.598
 6137SOL    HW218701   3.976   3.984   5.578
 6138SOL     OW18702   5.185   5.145   4.664
 6138SOL    HW118703   5.121   5.164   4.739
 6138SOL    HW218704   5.177   5.049   4.638
 6139SOL     OW18705   5.373   5.473   4.299
 6139SOL    HW118706   5.352   5.444   4.205
 6139SOL    HW218707   5.354   5.399   4.362
 6140SOL     OW18708   4.316   4.438   3.999
 6140SOL    HW118709   4.322   4.526   3.952
 6140SOL    HW218710   4.247   4.444   4.072
 6141SOL     OW18711   5.002   4.095   4.660
 6141SOL    HW118712   4.909   4.060   4.665
 6141SOL    HW218713   5.062   4.042   4.719
 6142SOL     OW18714   5.306   5.397   4.033
 6142SOL    HW118715   5.404   5.420   4.031
 6142SOL    HW218716   5.274   5.381   3.940
 6143SOL     OW18717   4.513   4.336   5.169
 6143SOL    HW118718   4.488   4.312   5.262
 6143SOL    HW218719   4.481   4.265   5.106
 6144SOL     OW18720   5.116   4.191   5.399
 6144SOL    HW118721   5.120   4.246   5.483
 6144SOL    HW218722   5.170   4.107   5.412
 6145SOL     OW18723   4.675   4.608   5.313
 6145SOL    HW118724   4.732   4.537   5.273
 6145SOL    HW218725   4.620   4.652   5.242
 6146SOL     OW18726   4.720   4.123   4.943
 6146SOL    HW118727   4.627   4.141   4.974
 6146SOL    HW218728   4.718   4.075   4.856
 6147SOL     OW18729   4.776   4.423   4.147
 6147SOL    HW118730   4.800   4.420   4.244
 6147SOL    HW218731   4.689   4.376   4.132
 6148SOL     OW18732   3.813   4.555   4.506
 6148SOL    HW118733   3.899   4.542   4.556
 6148SOL    HW218734   3.764   4.633   4.546
 6149SOL     OW18735   3.853   5.594   5.315
 6149SOL    HW118736   3.862   5.570   5.412
 6149SOL    HW218737   3.764   5.563   5.281
 6150SOL     OW18738   4.619   4.077   3.923
 6150SOL    HW118739   4.663   4.143   3.863
 6150SOL    HW218740   4.615   3.987   3.879
 6151SOL     OW18741   5.413   4.289   5.558
 6151SOL    HW118742   5.383   4.369   5.506
 6151SOL    HW218743   5.445   4.219   5.495
 6152SOL     OW18744   5.102   4.867   4.252
 6152SOL    HW118745   5.188   4.853   4.204
 6152SOL    HW218746   5.048   4.936   4.205
 6153SOL     OW18747   4.270   3.890   4.632
 6153SOL    HW118748   4.276   3.920   4.727
 6153SOL    HW218749   4.274   3.970   4.571
 6154SOL     OW18750   4.714   5.171   4.186
 6154SOL    HW118751   4.688   5.251   4.131
 6154SOL    HW218752   4.691   5.187   4.282
 6155SOL     OW18753   4.075   5.538   4.600
 6155SOL    HW118754   4.121   5.449   4.605
 6155SOL    HW218755   4.142   5.610   4.619
 6156SOL     OW18756   5.526   4.776   4.595
 6156SOL    HW118757   5.476   4.747   4.514
 6156SOL    HW218758   5.463   4.783   4.673
 6157SOL     OW18759   4.947   5.257   5.239
 6157SOL    HW118760   4.938   5.180   5.303
 6157SOL    HW218761   4.880   5.246   5.166
 6158SOL     OW18762   4.041   4.686   3.983
 6158SOL    HW118763   4.129   4.707   3.941
 6158SOL    HW218764   4.006   4.600   3.947
 6159SOL     OW18765   5.210   4.482   4.443
 6159SOL    HW118766   5.207   4.435   4.532
 6159SOL    HW218767   5.292   4.538   4.438
 6160SOL     OW18768   4.188   4.997   5.460
 6160SOL    HW118769   4.163   5.002   5.364
 6160SOL    HW218770   4.105   4.991   5.516
 6161SOL     OW18771   4.855   5.497   3.948
 6161SOL    HW118772   4.770   5.467   3.993
 6161SOL    HW218773   4.881   5.431   3.878
 6162SOL     OW18774   3.927   3.991   5.225
 6162SOL    HW118775   3.847   4.050   5.229
 6162SOL    HW218776   3.905   3.902   5.265
 6163SOL     OW18777   5.347   5.109   3.813
 6163SOL    HW118778   5.309   5.200   3.796
 6163SOL    HW218779   5.276   5.041   3.793
 6164SOL     OW18780   4.189   5.453   4.044
 6164SOL    HW118781   4.230   5.520   4.106
 6164SOL    HW218782   4.259   5.420   3.980
 6165SOL     OW18783   5.124   3.827   4.168
 6165SOL    HW118784   5.114   3.800   4.072
 6165SOL    HW218785   5.221   3.837   4.190
 6166SOL     OW18786   3.979   5.512   4.948
 6166SOL    HW118787   4.031   5.437   4.989
 6166SOL    HW218788   3.967   5.495   4.850
 6167SOL     OW18789   4.665   5.422   4.617
 6167SOL    HW118790   4.750   5.378   4.645
 6167SOL    HW218791   4.622   5.368   4.544
 6168SOL     OW18792   4.120   4.410   4.197
 6168SOL    HW118793   4.137   4.312   4.211
 6168SOL    HW218794   4.023   4.429   4.214
 6169SOL     OW18795   5.245   3.946   5.457
 6169SOL    HW118796   5.257   3.969   5.554
 6169SOL    HW218797   5.181   3.869   5.448
 6170SOL     OW18798   4.374   3.836   3.827
 6170SOL    HW118799   4.435   3.762   3.853
 6170SOL    HW218800   4.314   3.806   3.752
 6171SOL     OW18801   4.491   4.004   5.475
 6171SOL    HW118802   4.575   3.950   5.469
 6171SOL    HW218803   4.460   4.008   5.570
 6172SOL     OW18804   4.598   5.238   4.917
 6172SOL    HW118805   4.578   5.200   4.826
 6172SOL    HW218806   4.669   5.184   4.961
 6173SOL     OW18807   5.060   4.314   5.159
 6173SOL    HW118808   5.091   4.277   5.247
 6173SOL    HW218809   5.097   4.406   5.147
 6174SOL     OW18810   4.545   5.106   4.668
 6174SOL    HW118811   4.636   5.097   4.628
 6174SOL    HW218812   4.477   5.119   4.596
 6175SOL     OW18813   4.650   4.232   4.617
 6175SOL    HW118814   4.624   4.223   4.521
 6175SOL    HW218815   4.681   4.143   4.651
 6176SOL     OW18816   4.274   3.789   4.214
 6176SOL    HW118817   4.194   3.787   4.273
 6176SOL    HW218818   4.268   3.868   4.152
 6177SOL     OW18819   5.147   4.926   3.765
 6177SOL    HW118820   5.182   4.850   3.820
 6177SOL    HW218821   5.059   4.955   3.801
 6178SOL     OW18822   4.011   3.772   3.912
 6178SOL    HW118823   4.060   3.842   3.861
 6178SOL    HW218824   4.077   3.709   3.954
 6179SOL     OW18825   4.675   3.978   4.177
 6179SOL    HW118826   4.645   4.017   4.090
 6179SOL    HW218827   4.773   3.991   4.187
 6180SOL     OW18828   4.801   4.411   5.174
 6180SOL    HW118829   4.727   4.343   5.181
 6180SOL    HW218830   4.889   4.364   5.172
 6181SOL     OW18831   4.938   5.298   4.520
 6181SOL    HW118832   4.953   5.367   4.449
 6181SOL    HW218833   5.014   5.300   4.584
 6182SOL     OW18834   4.195   4.878   4.446
 6182SOL    HW118835   4.131   4.856   4.519
 6182SOL    HW218836   4.148   4.869   4.357
 6183SOL     OW18837   4.985   5.512   4.336
 6183SOL    HW118838   5.042   5.576   4.284
 6183SOL    HW218839   4.905   5.560   4.371
 6184SOL     OW18840   4.748   4.254   3.757
 6184SOL    HW118841   4.704   4.340   3.733
 6184SOL    HW218842   4.816   4.270   3.829
 6185SOL     OW18843   3.816   4.281   5.114
 6185SOL    HW118844   3.911   4.276   5.082
 6185SOL    HW218845   3.808   4.351   5.185
 6186SOL     OW18846   4.282   3.946   4.902
 6186SOL    HW118847   4.332   3.876   4.953
 6186SOL    HW218848   4.186   3.946   4.929
 6187SOL     OW18849   4.589   4.182   4.356
 6187SOL    HW118850   4.544   4.244   4.293
 6187SOL    HW218851   4.620   4.100   4.307
 6188SOL     OW18852   4.742   3.778   4.465
 6188SOL    HW118853   4.681   3.778   4.385
 6188SOL    HW218854   4.717   3.703   4.526
 6189SOL     OW18855   5.175   4.883   4.583
 6189SOL    HW118856   5.098   4.820   4.581
 6189SOL    HW218857   5.212   4.895   4.491
 6190SOL     OW18858   5.194   4.336   4.686
 6190SOL    HW118859   5.129   4.260   4.687
 6190SOL    HW218860   5.254   4.329   4.765
 6191SOL     OW18861   5.581   4.531   4.100
 6191SOL    HW118862   5.627   4.478   4.172
 6191SOL    HW218863   5.540   4.468   4.034
 6192SOL     OW18864   4.211   5.145   3.876
 6192SOL    HW118865   4.129   5.120   3.928
 6192SOL    HW218866   4.212   5.094   3.789
 6193SOL     OW18867   5.391   4.991   4.372
 6193SOL    HW118868   5.490   4.987   4.383
 6193SOL    HW218869   5.360   5.085   4.387
 6194SOL     OW18870   5.113   4.300   3.794
 6194SOL    HW118871   5.051   4.275   3.868
 6194SOL    HW218872   5.207   4.279   3.821
 6195SOL     OW18873   4.253   3.988   4.028
 6195SOL    HW118874   4.303   3.937   3.959
 6195SOL    HW218875   4.221   4.074   3.989
 6196SOL     OW18876   5.474   4.959   5.267
 6196SOL    HW118877   5.564   4.918   5.253
 6196SOL    HW218878   5.484   5.052   5.303
 6197SOL     OW18879   4.773   5.074   5.062
 6197SOL    HW118880   4.690   5.043   5.109
 6197SOL    HW218881   4.853   5.031   5.103
 6198SOL     OW18882   5.329   5.356   5.376
 6198SOL    HW118883   5.320   5.394   5.284
 6198SOL    HW218884   5.412   5.301   5.381
 6199SOL     OW18885   4.869   4.955   4.829
 6199SOL    HW118886   4.806   4.987   4.900
 6199SOL    HW218887   4.835   4.985   4.739
 6200SOL     OW18888   5.349   4.820   4.802
 6200SOL    HW118889   5.343   4.886   4.877
 6200SOL    HW218890   5.275   4.838   4.737
 6201SOL     OW18891   4.649   3.813   5.112
 6201SOL    HW118892   4.670   3.792   5.017
 6201SOL    HW218893   4.728   3.857   5.155
 6202SOL     OW18894   4.705   4.834   5.458
 6202SOL    HW118895   4.610   4.854   5.484
 6202SOL    HW218896   4.707   4.752   5.400
 6203SOL     OW18897   4.440   4.782   4.100
 6203SOL    HW118898   4.423   4.762   4.196
 6203SOL    HW218899   4.518   4.729   4.068
 6204SOL     OW18900   4.149   4.541   4.980
 6204SOL    HW118901   4.222   4.555   5.047
 6204SOL    HW218902   4.112   4.449   4.989
 6205SOL     OW18903   4.984   4.098   5.009
 6205SOL    HW118904   5.019   4.178   5.058
 6205SOL    HW218905   4.890   4.114   4.982
 6206SOL     OW18906   3.801   5.293   5.078
 6206SOL    HW118907   3.764   5.363   5.017
 6206SOL    HW218908   3.900   5.292   5.072
 6207SOL     OW18909   4.052   4.852   4.210
 6207SOL    HW118910   4.058   4.935   4.155
 6207SOL    HW218911   4.054   4.772   4.151
 6208SOL     OW18912   4.266   4.266   4.587
 6208SOL    HW118913   4.280   4.326   4.508
 6208SOL    HW218914   4.336   4.285   4.655
 6209SOL     OW18915   4.967   5.081   4.118
 6209SOL    HW118916   5.029   5.153   4.150
 6209SOL    HW218917   4.874   5.102   4.149
 6210SOL     OW18918   5.019   5.189   4.871
 6210SOL    HW118919   5.075   5.196   4.954
 6210SOL    HW218920   4.966   5.105   4.873
 6211SOL     OW18921   5.292   4.336   4.214
 6211SOL    HW118922   5.245   4.389   4.284
 6211SOL    HW218923   5.336   4.398   4.149
 6212SOL     OW18924   4.073   5.254   5.029
 6212SOL    HW118925   4.058   5.206   4.943
 6212SOL    HW218926   4.171   5.269   5.043
 6213SOL     OW18927   4.142   4.469   5.322
 6213SOL    HW118928   4.210   4.513   5.264
 6213SOL    HW218929   4.174   4.377   5.346
 6214SOL     OW18930   5.334   4.503   5.409
 6214SOL    HW118931   5.243   4.545   5.408
 6214SOL    HW218932   5.390   4.543   5.336
 6215SOL     OW18933   4.723   3.859   5.474
 6215SOL    HW118934   4.780   3.941   5.462
 6215SOL    HW218935   4.773   3.779   5.443
 6216SOL     OW18936   4.217   3.757   5.470
 6216SOL    HW118937   4.166   3.699   5.406
 6216SOL    HW218938   4.164   3.839   5.490
 6217SOL     OW18939   4.310   4.597   4.760
 6217SOL    HW118940   4.348   4.690   4.759
 6217SOL    HW218941   4.250   4.587   4.839
 6218SOL     OW18942   5.063   4.579   4.743
 6218SOL    HW118943   4.971   4.566   4.706
 6218SOL    HW218944   5.117   4.496   4.729
 6219SOL     OW18945   4.918   4.249   3.985
 6219SOL    HW118946   4.933   4.167   4.040
 6219SOL    HW218947   4.875   4.320   4.042
 6220SOL     OW18948   4.019   3.919   4.969
 6220SOL    HW118949   3.985   3.954   5.057
 6220SOL    HW218950   4.005   3.820   4.965
 6221SOL     OW18951   3.777   5.033   4.995
 6221SOL    HW118952   3.809   4.972   5.067
 6221SOL    HW218953   3.780   5.127   5.028
 6222SOL     OW18954   4.447   4.353   4.775
 6222SOL    HW118955   4.523   4.335   4.713
 6222SOL    HW218956   4.412   4.446   4.758
 6223SOL     OW18957   5.464   4.690   5.561
 6223SOL    HW118958   5.419   4.612   5.518
 6223SOL    HW218959   5.409   4.722   5.639
 6224SOL     OW18960   4.037   3.784   4.355
 6224SOL    HW118961   4.009   3.878   4.372
 6224SOL    HW218962   4.048   3.736   4.442
 6225SOL     OW18963   5.352   4.105   4.081
 6225SOL    HW118964   5.381   4.031   4.141
 6225SOL    HW218965   5.322   4.183   4.137
 6226SOL     OW18966   4.748   4.479   4.680
 6226SOL    HW118967   4.738   4.500   4.777
 6226SOL    HW218968   4.721   4.384   4.663
 6227SOL     OW18969   4.703   5.279   5.439
 6227SOL    HW118970   4.682   5.328   5.354
 6227SOL    HW218971   4.754   5.196   5.418
 6228SOL     OW18972   5.567   5.217   5.320
 6228SOL    HW118973   5.591   5.250   5.229
 6228SOL    HW218974   5.647   5.224   5.380
 6229SOL     OW18975   4.080   4.640   5.524
 6229SOL    HW118976   4.163   4.665   5.573
 6229SOL    HW218977   4.102   4.573   5.453
 6230SOL     OW18978   5.249   3.990   3.852
 6230SOL    HW118979   5.183   3.920   3.880
 6230SOL    HW218980   5.287   4.034   3.934
 6231SOL     OW18981   5.009   4.548   3.746
 6231SOL    HW118982   5.049   4.457   3.756
 6231SOL    HW218983   5.041   4.590   3.661
 6232SOL     OW18984   4.797   5.065   4.582
 6232SOL    HW118985   4.803   4.987   4.521
 6232SOL    HW218986   4.852   5.141   4.545
 6233SOL     OW18987   4.037   4.531   4.666
 6233SOL    HW118988   4.134   4.555   4.661
 6233SOL    HW218989   4.028   4.437   4.697
 6234SOL     OW18990   4.043   4.254   4.734
 6234SOL    HW118991   4.005   4.162   4.725
 6234SOL    HW218992   4.125   4.262   4.677
 6235SOL     OW18993   4.860   4.093   5.416
 6235SOL    HW118994   4.808   4.152   5.478
 6235SOL    HW218995   4.953   4.130   5.406
 6236SOL     OW18996   4.886   3.923   5.201
 6236SOL    HW118997   4.871   3.984   5.279
 6236SOL    HW218998   4.930   3.973   5.127
 6237SOL     OW18999   3.723   5.035   3.919
 6237SOL    HW119000   3.633   5.056   3.881
 6237SOL    HW219001   3.723   4.941   3.953
 6238SOL     OW19002   3.813   5.507   4.672
 6238SOL    HW119003   3.778   5.426   4.624
 6238SOL    HW219004   3.906   5.526   4.640
 6239SOL     OW19005   4.212   5.297   4.626
 6239SOL    HW119006   4.283   5.363   4.653
 6239SOL    HW219007   4.251   5.230   4.563
 6240SOL     OW19008   4.688   4.516   4.945
 6240SOL    HW119009   4.749   4.494   5.021
 6240SOL    HW219010   4.600   4.470   4.959
 6241SOL     OW19011   3.763   4.284   4.842
 6241SOL    HW119012   3.846   4.276   4.787
 6241SOL    HW219013   3.788   4.283   4.939
 6242SOL     OW19014   3.914   4.250   5.464
 6242SOL    HW119015   3.968   4.192   5.403
 6242SOL    HW219016   3.880   4.329   5.413
 6243SOL     OW19017   5.109   4.656   5.377
 6243SOL    HW119018   5.132   4.754   5.376
 6243SOL    HW219019   5.102   4.623   5.283
 6244SOL     OW19020   4.541   4.297   4.089
 6244SOL    HW119021   4.552   4.217   4.029
 6244SOL    HW219022   4.462   4.351   4.059
 6245SOL     OW19023   5.371   4.328   4.898
 6245SOL    HW119024   5.352   4.270   4.977
 6245SOL    HW219025   5.462   4.306   4.862
 6246SOL     OW19026   3.960   5.265   5.449
 6246SOL    HW119027   3.939   5.341   5.511
 6246SOL    HW219028   3.964   5.180   5.501
 6247SOL     OW19029   4.443   4.166   4.970
 6247SOL    HW119030   4.381   4.090   4.950
 6247SOL    HW219031   4.435   4.235   4.898
 6248SOL     OW19032   4.636   5.400   5.199
 6248SOL    HW119033   4.609   5.349   5.117
 6248SOL    HW219034   4.636   5.498   5.179
 6249SOL     OW19035   4.176   4.217   3.902
 6249SOL    HW119036   4.243   4.287   3.928
 6249SOL    HW219037   4.086   4.259   3.894
 6250SOL     OW19038   3.861   4.864   5.199
 6250SOL    HW119039   3.866   4.825   5.292
 6250SOL    HW219040   3.882   4.793   5.132
 6251SOL     OW19041   5.034   4.766   4.938
 6251SOL    HW119042   5.057   4.697   4.870
 6251SOL    HW219043   4.972   4.833   4.898
 6252SOL     OW19044   5.044   4.581   4.018
 6252SOL    HW119045   4.969   4.553   4.078
 6252SOL    HW219046   5.017   4.568   3.922
 6253SOL     OW19047   5.498   5.436   4.881
 6253SOL    HW119048   5.563   5.479   4.817
 6253SOL    HW219049   5.472   5.346   4.847
 6254SOL     OW19050   4.967   5.457   4.823
 6254SOL    HW119051   5.054   5.491   4.788
 6254SOL    HW219052   4.975   5.360   4.847
 6255SOL     OW19053   3.815   4.983   4.732
 6255SOL    HW119054   3.796   5.001   4.829
 6255SOL    HW219055   3.743   4.925   4.694
 6256SOL     OW19056   4.408   5.405   5.472
 6256SOL    HW119057   4.340   5.477   5.466
 6256SOL    HW219058   4.479   5.419   5.402
 6257SOL     OW19059   5.443   3.880   4.218
 6257SOL    HW119060   5.516   3.870   4.150
 6257SOL    HW219061   5.426   3.792   4.261
 6258SOL     OW19062   5.120   5.295   4.215
 6258SOL    HW119063   5.182   5.327   4.143
 6258SOL    HW219064   5.064   5.371   4.248
 6259SOL     OW19065   3.877   5.506   5.569
 6259SOL    HW119066   3.817   5.441   5.614
 6259SOL    HW219067   3.928   5.557   5.638
 6260SOL     OW19068   5.007   4.657   4.390
 6260SOL    HW119069   5.083   4.593   4.406
 6260SOL    HW219070   5.039   4.732   4.332
 6261SOL     OW19071   4.517   5.006   5.146
 6261SOL    HW119072   4.488   5.052   5.230
 6261SOL    HW219073   4.446   5.017   5.076
 6262SOL     OW19074   4.392   5.346   3.879
 6262SOL    HW119075   4.407   5.369   3.782
 6262SOL    HW219076   4.333   5.265   3.884
 6263SOL     OW19077   5.334   5.456   5.107
 6263SOL    HW119078   5.393   5.454   5.027
 6263SOL    HW219079   5.313   5.551   5.131
 6264SOL     OW19080   5.572   3.897   4.691
 6264SOL    HW119081   5.605   3.804   4.671
 6264SOL    HW219082   5.481   3.909   4.652
 6265SOL     OW19083   3.975   4.035   4.438
 6265SOL    HW119084   3.887   4.073   4.411
 6265SOL    HW219085   3.980   4.029   4.538
 6266SOL     OW19086   4.931   5.317   3.758
 6266SOL    HW119087   4.923   5.223   3.793
 6266SOL    HW219088   4.861   5.332   3.688
 6267SOL     OW19089   4.547   4.736   5.108
 6267SOL    HW119090   4.597   4.717   5.023
 6267SOL    HW219091   4.541   4.834   5.122
 6268SOL     OW19092   4.645   4.634   4.011
 6268SOL    HW119093   4.705   4.670   3.940
 6268SOL    HW219094   4.694   4.564   4.063
 6269SOL     OW19095   5.206   5.367   3.769
 6269SOL    HW119096   5.109   5.347   3.755
 6269SOL    HW219097   5.252   5.370   3.680
 6270SOL     OW19098   4.087   5.029   5.214
 6270SOL    HW119099   4.081   5.108   5.153
 6270SOL    HW219100   4.007   4.970   5.200
 6271SOL     OW19101   5.337   5.011   5.009
 6271SOL    HW119102   5.396   4.986   5.086
 6271SOL    HW219103   5.271   5.080   5.039
 6272SOL     OW19104   4.794   4.832   4.447
 6272SOL    HW119105   4.715   4.782   4.483
 6272SOL    HW219106   4.863   4.767   4.415
 6273SOL     OW19107   4.749   3.965   4.690
 6273SOL    HW119108   4.746   3.924   4.599
 6273SOL    HW219109   4.746   3.894   4.760
 6274SOL     OW19110   4.329   5.211   4.201
 6274SOL    HW119111   4.382   5.156   4.137
 6274SOL    HW219112   4.257   5.260   4.152
 6275SOL     OW19113   5.470   4.121   5.108
 6275SOL    HW119114   5.543   4.189   5.101
 6275SOL    HW219115   5.488   4.046   5.045
 6276SOL     OW19116   3.975   5.072   4.010
 6276SOL    HW119117   3.879   5.063   3.983
 6276SOL    HW219118   3.981   5.114   4.101
 6277SOL     OW19119   3.851   4.774   5.458
 6277SOL    HW119120   3.767   4.744   5.503
 6277SOL    HW219121   3.928   4.719   5.491
 6278SOL     OW19122   4.409   3.914   5.222
 6278SOL    HW119123   4.496   3.888   5.179
 6278SOL    HW219124   4.426   3.948   5.314
 6279SOL     OW19125   3.805   4.048   3.749
 6279SOL    HW119126   3.721   4.019   3.703
 6279SOL    HW219127   3.838   4.133   3.707
 6280SOL     OW19128   5.144   4.579   5.115
 6280SOL    HW119129   5.086   4.642   5.062
 6280SOL    HW219130   5.237   4.581   5.078
 6281SOL     OW19131   3.781   3.880   4.016
 6281SOL    HW119132   3.765   3.961   3.959
 6281SOL    HW219133   3.870   3.841   3.994
 6282SOL     OW19134   4.903   5.056   3.848
 6282SOL    HW119135   4.807   5.029   3.840
 6282SOL    HW219136   4.930   5.059   3.944
 6283SOL     OW19137   4.350   4.554   5.160
 6283SOL    HW119138   4.408   4.635   5.147
 6283SOL    HW219139   4.407   4.473   5.167
 6284SOL     OW19140   5.217   5.536   4.731
 6284SOL    HW119141   5.239   5.590   4.649
 6284SOL    HW219142   5.299   5.488   4.762
 6285SOL     OW19143   4.447   4.281   5.422
 6285SOL    HW119144   4.495   4.344   5.483
 6285SOL    HW219145   4.465   4.187   5.451
 6286SOL     OW19146   5.198   4.917   5.353
 6286SOL    HW119147   5.183   4.935   5.450
 6286SOL    HW219148   5.294   4.936   5.330
 6287SOL     OW19149   4.088   5.455   5.291
 6287SOL    HW119150   4.007   5.511   5.278
 6287SOL    HW219151   4.063   5.368   5.334
 6288SOL     OW19152   5.387   4.600   4.977
 6288SOL    HW119153   5.384   4.509   4.935
 6288SOL    HW219154   5.374   4.670   4.907
 6289SOL     OW19155   4.945   4.042   4.182
 6289SOL    HW119156   5.008   3.964   4.175
 6289SOL    HW219157   4.970   4.098   4.261
 6290SOL     OW19158   4.306   4.459   4.395
 6290SOL    HW119159   4.349   4.549   4.384
 6290SOL    HW219160   4.239   4.445   4.322
 6291SOL     OW19161   5.470   4.088   5.381
 6291SOL    HW119162   5.465   4.105   5.283
 6291SOL    HW219163   5.394   4.029   5.409
 6292SOL     OW19164   5.481   4.645   5.229
 6292SOL    HW119165   5.465   4.740   5.256
 6292SOL    HW219166   5.452   4.632   5.134
 6293SOL     OW19167   4.594   5.085   3.778
 6293SOL    HW119168   4.552   5.104   3.866
 6293SOL    HW219169   4.604   5.170   3.726
 6294SOL     OW19170   4.393   5.493   4.661
 6294SOL    HW119171   4.366   5.587   4.644
 6294SOL    HW219172   4.493   5.484   4.652
 6295SOL     OW19173   4.593   4.697   4.580
 6295SOL    HW119174   4.644   4.618   4.615
 6295SOL    HW219175   4.548   4.744   4.656
 6296SOL     OW19176   4.799   4.712   3.806
 6296SOL    HW119177   4.772   4.768   3.727
 6296SOL    HW219178   4.877   4.654   3.781
 6297SOL     OW19179   5.563   5.286   4.572
 6297SOL    HW119180   5.489   5.273   4.506
 6297SOL    HW219181   5.552   5.221   4.647
 6298SOL     OW19182   3.937   5.013   5.575
 6298SOL    HW119183   3.904   4.932   5.525
 6298SOL    HW219184   3.873   5.035   5.649
 6299SOL     OW19185   3.818   4.949   4.386
 6299SOL    HW119186   3.832   4.908   4.476
 6299SOL    HW219187   3.885   4.911   4.322
 6300SOL     OW19188   4.405   5.140   5.360
 6300SOL    HW119189   4.323   5.093   5.392
 6300SOL    HW219190   4.408   5.232   5.397
 6301SOL     OW19191   5.526   3.907   4.959
 6301SOL    HW119192   5.544   3.811   4.984
 6301SOL    HW219193   5.544   3.920   4.862
 6302SOL     OW19194   4.150   4.149   4.247
 6302SOL    HW119195   4.187   4.080   4.186
 6302SOL    HW219196   4.097   4.105   4.320
 6303SOL     OW19197   5.417   5.191   4.806
 6303SOL    HW119198   5.335   5.178   4.751
 6303SOL    HW219199   5.417   5.125   4.882
 6304SOL     OW19200   4.065   4.282   5.012
 6304SOL    HW119201   4.119   4.221   5.070
 6304SOL    HW219202   4.076   4.256   4.916
 6305SOL     OW19203   4.555   5.306   4.398
 6305SOL    HW119204   4.534   5.378   4.332
 6305SOL    HW219205   4.478   5.243   4.403
 6306SOL     OW19206   5.151   3.958   4.841
 6306SOL    HW119207   5.168   3.865   4.873
 6306SOL    HW219208   5.098   4.008   4.909
 6307SOL     OW19209   4.734   3.739   4.855
 6307SOL    HW119210   4.669   3.678   4.809
 6307SOL    HW219211   4.825   3.697   4.856
 6308SOL     OW19212   4.500   5.054   4.048
 6308SOL    HW119213   4.475   4.958   4.060
 6308SOL    HW219214   4.584   5.073   4.099
 6309SOL     OW19215   4.348   5.281   5.015
 6309SOL    HW119216   4.343   5.367   5.066
 6309SOL    HW219217   4.439   5.272   4.973
 6310SOL     OW19218   5.085   3.768   3.901
 6310SOL    HW119219   5.132   3.697   3.848
 6310SOL    HW219220   4.991   3.741   3.918
 6311SOL     OW19221   5.010   4.191   4.401
 6311SOL    HW119222   4.959   4.277   4.402
 6311SOL    HW219223   5.011   4.152   4.494
 6312SOL     OW19224   5.311   3.924   4.615
 6312SOL    HW119225   5.255   3.947   4.695
 6312SOL    HW219226   5.313   4.001   4.552
 6313SOL     OW19227   3.765   4.782   4.033
 6313SOL    HW119228   3.863   4.781   4.015
 6313SOL    HW219229   3.734   4.688   4.053
 6314SOL     OW19230   4.611   5.390   4.053
 6314SOL    HW119231   4.535   5.369   3.992
 6314SOL    HW219232   4.583   5.462   4.117
 6315SOL     OW19233   3.934   4.338   5.724
 6315SOL    HW119234   3.840   4.352   5.757
 6315SOL    HW219235   3.931   4.319   5.626
 6316SOL     OW19236   5.501   4.336   5.813
 6316SOL    HW119237   5.471   4.310   5.721
 6316SOL    HW219238   5.517   4.253   5.867
 6317SOL     OW19239   3.966   5.455   0.047
 6317SOL    HW119240   3.969   5.526   0.117
 6317SOL    HW219241   4.051   5.455  -0.005
 6318SOL     OW19242   4.333   4.700   5.721
 6318SOL    HW119243   4.356   4.768   5.651
 6318SOL    HW219244   4.415   4.679   5.775
 6319SOL     OW19245   5.521   5.476   5.911
 6319SOL    HW119246   5.544   5.412   5.984
 6319SOL    HW219247   5.595   5.542   5.900
 6320SOL     OW19248   3.750   5.315   5.702
 6320SOL    HW119249   3.740   5.219   5.728
 6320SOL    HW219250   3.712   5.373   5.774
 6321SOL     OW19251   5.406   4.623   0.182
 6321SOL    HW119252   5.494   4.628   0.228
 6321SOL    HW219253   5.405   4.686   0.105
 6322SOL     OW19254   5.403   4.822   5.985
 6322SOL    HW119255   5.497   4.823   5.950
 6322SOL    HW219256   5.375   4.914   6.009
 6323SOL     OW19257   5.272   4.738   5.757
 6323SOL    HW119258   5.214   4.657   5.765
 6323SOL    HW219259   5.309   4.761   5.848
 6324SOL     OW19260   4.308   4.448   5.857
 6324SOL    HW119261   4.314   4.523   5.792
 6324SOL    HW219262   4.284   4.484   5.947
 6325SOL     OW19263   4.595   4.085   5.746
 6325SOL    HW119264   4.646   4.146   5.685
 6325SOL    HW219265   4.654   4.010   5.775
 6326SOL     OW19266   4.068   4.688   5.826
 6326SOL    HW119267   4.159   4.694   5.785
 6326SOL    HW219268   4.021   4.608   5.791
 6327SOL     OW19269   4.844   5.475   5.824
 6327SOL    HW119270   4.752   5.447   5.852
 6327SOL    HW219271   4.869   5.426   5.741
 6328SOL     OW19272   5.351   5.117   5.674
 6328SOL    HW119273   5.316   5.210   5.664
 6328SOL    HW219274   5.279   5.051   5.653
 6329SOL     OW19275   4.207   5.495   5.907
 6329SOL    HW119276   4.255   5.548   5.977
 6329SOL    HW219277   4.273   5.442   5.853
 6330SOL     OW19278   4.363   3.830   5.687
 6330SOL    HW119279   4.456   3.795   5.679
 6330SOL    HW219280   4.309   3.802   5.608
 6331SOL     OW19281   5.148   4.937   5.621
 6331SOL    HW119282   5.191   4.862   5.671
 6331SOL    HW219283   5.060   4.960   5.665
 6332SOL     OW19284   4.034   3.768   5.758
 6332SOL    HW119285   4.086   3.842   5.715
 6332SOL    HW219286   4.095   3.716   5.818
 6333SOL     OW19287   4.750   4.256   5.605
 6333SOL    HW119288   4.704   4.344   5.590
 6333SOL    HW219289   4.817   4.266   5.679
 6334SOL     OW19290   5.633   4.541   5.925
 6334SOL    HW119291   5.686   4.493   5.995
 6334SOL    HW219292   5.571   4.477   5.880
 6335SOL     OW19293   4.211   5.145   5.749
 6335SOL    HW119294   4.134   5.123   5.809
 6335SOL    HW219295   4.201   5.095   5.663
 6336SOL     OW19296   5.447   5.002   0.292
 6336SOL    HW119297   5.521   4.938   0.271
 6336SOL    HW219298   5.403   5.030   0.207
 6337SOL     OW19299   5.124   4.310   5.645
 6337SOL    HW119300   5.061   4.274   5.713
 6337SOL    HW219301   5.218   4.283   5.667
 6338SOL     OW19302   4.265   3.977   5.894
 6338SOL    HW119303   4.303   3.930   5.814
 6338SOL    HW219304   4.228   4.066   5.867
 6339SOL     OW19305   4.111   4.847   0.045
 6339SOL    HW119306   4.061   4.932   0.031
 6339SOL    HW219307   4.095   4.784  -0.031
 6340SOL     OW19308   4.928   4.236   5.821
 6340SOL    HW119309   4.935   4.147   5.866
 6340SOL    HW219310   4.905   4.306   5.889
 6341SOL     OW19311   4.022   3.794   0.249
 6341SOL    HW119312   4.082   3.874   0.252
 6341SOL    HW219313   4.074   3.713   0.278
 6342SOL     OW19314   5.242   3.989   5.724
 6342SOL    HW119315   5.181   3.910   5.736
 6342SOL    HW219316   5.280   4.016   5.812
 6343SOL     OW19317   5.039   4.572   5.629
 6343SOL    HW119318   5.066   4.476   5.636
 6343SOL    HW219319   5.059   4.606   5.537
 6344SOL     OW19320   3.743   5.042   5.771
 6344SOL    HW119321   3.649   5.061   5.742
 6344SOL    HW219322   3.749   4.948   5.805
 6345SOL     OW19323   4.549   4.321   5.892
 6345SOL    HW119324   4.550   4.232   5.846
 6345SOL    HW219325   4.460   4.364   5.881
 6346SOL     OW19326   4.171   4.214   5.776
 6346SOL    HW119327   4.234   4.286   5.805
 6346SOL    HW219328   4.080   4.253   5.765
 6347SOL     OW19329   5.507   3.873   0.096
 6347SOL    HW119330   5.558   3.870   0.010
 6347SOL    HW219331   5.447   3.793   0.101
 6348SOL     OW19332   4.391   5.348   5.745
 6348SOL    HW119333   4.404   5.368   5.648
 6348SOL    HW219334   4.327   5.272   5.755
 6349SOL     OW19335   4.917   5.318   5.617
 6349SOL    HW119336   4.914   5.225   5.651
 6349SOL    HW219337   4.850   5.329   5.543
 6350SOL     OW19338   4.585   4.626   5.803
 6350SOL    HW119339   4.671   4.667   5.772
 6350SOL    HW219340   4.604   4.560   5.876
 6351SOL     OW19341   5.193   5.371   5.618
 6351SOL    HW119342   5.097   5.349   5.603
 6351SOL    HW219343   5.242   5.369   5.531
 6352SOL     OW19344   4.756   4.884   0.296
 6352SOL    HW119345   4.719   4.831   0.373
 6352SOL    HW219346   4.797   4.821   0.229
 6353SOL     OW19347   3.988   5.092   5.919
 6353SOL    HW119348   3.899   5.081   5.875
 6353SOL    HW219349   3.986   5.173   5.978
 6354SOL     OW19350   3.804   4.040   5.612
 6354SOL    HW119351   3.722   4.015   5.561
 6354SOL    HW219352   3.837   4.129   5.580
 6355SOL     OW19353   3.803   3.867   5.859
 6355SOL    HW119354   3.781   3.936   5.790
 6355SOL    HW219355   3.892   3.826   5.837
 6356SOL     OW19356   4.895   5.059   5.712
 6356SOL    HW119357   4.799   5.034   5.699
 6356SOL    HW219358   4.920   5.045   5.808
 6357SOL     OW19359   4.932   4.031   0.019
 6357SOL    HW119360   5.021   4.009   0.059
 6357SOL    HW219361   4.889   4.104   0.072
 6358SOL     OW19362   4.592   5.102   5.631
 6358SOL    HW119363   4.551   5.149   5.709
 6358SOL    HW219364   4.614   5.169   5.560
 6359SOL     OW19365   4.813   4.718   5.690
 6359SOL    HW119366   4.786   4.764   5.606
 6359SOL    HW219367   4.896   4.665   5.674
 6360SOL     OW19368   5.090   3.761   5.738
 6360SOL    HW119369   5.134   3.679   5.703
 6360SOL    HW219370   5.001   3.738   5.777
 6361SOL     OW19371   3.800   4.792   5.872
 6361SOL    HW119372   3.898   4.797   5.853
 6361SOL    HW219373   3.774   4.697   5.890
 6362SOL     OW19374   4.592   5.384   5.933
 6362SOL    HW119375   4.521   5.381   5.862
 6362SOL    HW219376   4.588   5.473   5.979
 6363SOL     OW19377   3.951   0.244   0.127
 6363SOL    HW119378   3.921   0.338   0.142
 6363SOL    HW219379   3.936   0.220   0.031
 6364SOL     OW19380   3.947   5.838   0.987
 6364SOL    HW119381   3.975   5.816   1.080
 6364SOL    HW219382   3.850   5.814   0.975
 6365SOL     OW19383   3.716   5.939   0.674
 6365SOL    HW119384   3.624   5.962   0.704
 6365SOL    HW219385   3.712   5.864   0.608
 6366SOL     OW19386   4.184   5.948   1.516
 6366SOL    HW119387   4.255   5.885   1.485
 6366SOL    HW219388   4.094   5.907   1.499
 6367SOL     OW19389   5.309   0.024   0.721
 6367SOL    HW119390   5.214   0.022   0.690
 6367SOL    HW219391   5.321   0.099   0.786
 6368SOL     OW19392   5.304   5.724   1.436
 6368SOL    HW119393   5.379   5.756   1.378
 6368SOL    HW219394   5.311   5.768   1.526
 6369SOL     OW19395   4.540   5.582   0.516
 6369SOL    HW119396   4.590   5.661   0.481
 6369SOL    HW219397   4.443   5.606   0.525
 6370SOL     OW19398   4.053   5.815   1.843
 6370SOL    HW119399   4.109   5.894   1.820
 6370SOL    HW219400   3.959   5.844   1.861
 6371SOL     OW19401   4.983   5.930   0.945
 6371SOL    HW119402   4.897   5.880   0.940
 6371SOL    HW219403   5.044   5.885   1.011
 6372SOL     OW19404   4.273   5.739   0.896
 6372SOL    HW119405   4.275   5.767   0.992
 6372SOL    HW219406   4.269   5.820   0.838
 6373SOL     OW19407   3.919   5.844   1.497
 6373SOL    HW119408   3.843   5.903   1.525
 6373SOL    HW219409   3.907   5.753   1.536
 6374SOL     OW19410   5.139   5.687   0.446
 6374SOL    HW119411   5.132   5.664   0.349
 6374SOL    HW219412   5.234   5.710   0.467
 6375SOL     OW19413   5.271   5.795   1.718
 6375SOL    HW119414   5.265   5.825   1.814
 6375SOL    HW219415   5.215   5.714   1.705
 6376SOL     OW19416   4.339   5.672   0.084
 6376SOL    HW119417   4.439   5.668   0.084
 6376SOL    HW219418   4.308   5.741   0.019
 6377SOL     OW19419   4.495   5.835   1.736
 6377SOL    HW119420   4.580   5.784   1.747
 6377SOL    HW219421   4.449   5.843   1.825
 6378SOL     OW19422   5.126   0.180   1.414
 6378SOL    HW119423   5.039   0.153   1.455
 6378SOL    HW219424   5.116   0.268   1.368
 6379SOL     OW19425   4.273   5.653   0.506
 6379SOL    HW119426   4.192   5.651   0.565
 6379SOL    HW219427   4.264   5.727   0.440
 6380SOL     OW19428   4.678   5.802   0.441
 6380SOL    HW119429   4.627   5.880   0.479
 6380SOL    HW219430   4.776   5.821   0.446
 6381SOL     OW19431   4.276   5.791   1.160
 6381SOL    HW119432   4.330   5.749   1.233
 6381SOL    HW219433   4.181   5.802   1.191
 6382SOL     OW19434   4.743   5.618   0.725
 6382SOL    HW119435   4.679   5.619   0.648
 6382SOL    HW219436   4.718   5.545   0.788
 6383SOL     OW19437   4.242   5.831   0.302
 6383SOL    HW119438   4.295   5.795   0.225
 6383SOL    HW219439   4.286   5.914   0.337
 6384SOL     OW19440   4.647   5.668   1.386
 6384SOL    HW119441   4.671   5.646   1.292
 6384SOL    HW219442   4.720   5.722   1.428
 6385SOL     OW19443   4.734   5.705   1.732
 6385SOL    HW119444   4.757   5.747   1.644
 6385SOL    HW219445   4.786   5.621   1.743
 6386SOL     OW19446   4.214   5.611   1.758
 6386SOL    HW119447   4.170   5.555   1.687
 6386SOL    HW219448   4.154   5.688   1.780
 6387SOL     OW19449   4.014   5.779   1.247
 6387SOL    HW119450   3.978   5.813   1.333
 6387SOL    HW219451   4.004   5.679   1.244
 6388SOL     OW19452   4.538   0.254   1.050
 6388SOL    HW119453   4.495   0.233   0.962
 6388SOL    HW219454   4.467   0.268   1.119
 6389SOL     OW19455   4.027   5.652   0.634
 6389SOL    HW119456   3.992   5.746   0.645
 6389SOL    HW219457   4.037   5.610   0.724
 6390SOL     OW19458   5.217   5.864   0.135
 6390SOL    HW119459   5.152   5.791   0.153
 6390SOL    HW219460   5.308   5.825   0.121
 6391SOL     OW19461   4.085   0.073   1.021
 6391SOL    HW119462   4.038  -0.010   0.991
 6391SOL    HW219463   4.147   0.104   0.948
 6392SOL     OW19464   4.858   5.815   1.483
 6392SOL    HW119465   4.916   5.866   1.546
 6392SOL    HW219466   4.866   5.854   1.391
 6393SOL     OW19467   4.613   5.629   0.078
 6393SOL    HW119468   4.680   5.691   0.037
 6393SOL    HW219469   4.647   5.596   0.166
 6394SOL     OW19470   5.418   5.728   0.501
 6394SOL    HW119471   5.495   5.734   0.436
 6394SOL    HW219472   5.416   5.637   0.542
 6395SOL     OW19473   5.560   5.763   0.985
 6395SOL    HW119474   5.599   5.673   0.965
 6395SOL    HW219475   5.473   5.773   0.937
 6396SOL     OW19476   4.746   5.794   0.935
 6396SOL    HW119477   4.748   5.738   0.852
 6396SOL    HW219478   4.738   5.734   1.015
 6397SOL     OW19479   4.406   5.767   1.484
 6397SOL    HW119480   4.492   5.742   1.440
 6397SOL    HW219481   4.425   5.801   1.577
 6398SOL     OW19482   3.788   5.922   0.087
 6398SOL    HW119483   3.797   5.861   0.009
 6398SOL    HW219484   3.878   5.944   0.123
 6399SOL     OW19485   3.776   5.749   0.320
 6399SOL    HW119486   3.750   5.818   0.251
 6399SOL    HW219487   3.870   5.719   0.303
 6400SOL     OW19488   4.942   5.877   0.469
 6400SOL    HW119489   5.012   5.808   0.455
 6400SOL    HW219490   4.972   5.943   0.538
 6401SOL     OW19491   5.514   5.910   1.640
 6401SOL    HW119492   5.475   5.978   1.578
 6401SOL    HW219493   5.441   5.853   1.678
 6402SOL     OW19494   5.507   5.774   1.257
 6402SOL    HW119495   5.579   5.713   1.291
 6402SOL    HW219496   5.518   5.788   1.159
 6403SOL     OW19497   5.154   5.799   1.119
 6403SOL    HW119498   5.170   5.701   1.106
 6403SOL    HW219499   5.177   5.826   1.212
 6404SOL     OW19500   4.734   5.595   1.134
 6404SOL    HW119501   4.669   5.532   1.091
 6404SOL    HW219502   4.825   5.555   1.132
 6405SOL     OW19503   5.078   5.632   0.179
 6405SOL    HW119504   5.126   5.565   0.123
 6405SOL    HW219505   4.986   5.598   0.199
 6406SOL     OW19506   5.035   0.038   0.695
 6406SOL    HW119507   4.979   0.119   0.677
 6406SOL    HW219508   5.013   0.002   0.785
 6407SOL     OW19509   5.308   5.787   0.883
 6407SOL    HW119510   5.248   5.814   0.958
 6407SOL    HW219511   5.304   5.855   0.810
 6408SOL     OW19512   3.947   5.838   2.849
 6408SOL    HW119513   3.975   5.816   2.943
 6408SOL    HW219514   3.850   5.814   2.838
 6409SOL     OW19515   3.712   5.934   2.533
 6409SOL    HW119516   3.622   5.968   2.559
 6409SOL    HW219517   3.701   5.855   2.472
 6410SOL     OW19518   5.499   0.151   2.067
 6410SOL    HW119519   5.445   0.155   1.983
 6410SOL    HW219520   5.438   0.151   2.146
 6411SOL     OW19521   4.184   5.949   3.376
 6411SOL    HW119522   4.256   5.885   3.347
 6411SOL    HW219523   4.095   5.907   3.361
 6412SOL     OW19524   5.307   0.032   2.574
 6412SOL    HW119525   5.210   0.027   2.550
 6412SOL    HW219526   5.320   0.102   2.644
 6413SOL     OW19527   5.304   5.723   3.299
 6413SOL    HW119528   5.379   5.755   3.241
 6413SOL    HW219529   5.311   5.767   3.389
 6414SOL     OW19530   4.538   5.588   2.371
 6414SOL    HW119531   4.588   5.666   2.333
 6414SOL    HW219532   4.441   5.609   2.375
 6415SOL     OW19533   4.053   5.815   3.702
 6415SOL    HW119534   4.108   5.896   3.679
 6415SOL    HW219535   3.959   5.844   3.722
 6416SOL     OW19536   4.982   5.930   2.810
 6416SOL    HW119537   4.896   5.879   2.804
 6416SOL    HW219538   5.043   5.885   2.875
 6417SOL     OW19539   4.580   5.955   2.024
 6417SOL    HW119540   4.652   5.981   1.959
 6417SOL    HW219541   4.619   5.897   2.095
 6418SOL     OW19542   4.272   5.738   2.759
 6418SOL    HW119543   4.275   5.766   2.855
 6418SOL    HW219544   4.269   5.820   2.701
 6419SOL     OW19545   3.919   5.844   3.360
 6419SOL    HW119546   3.844   5.903   3.389
 6419SOL    HW219547   3.908   5.753   3.399
 6420SOL     OW19548   5.138   5.682   2.308
 6420SOL    HW119549   5.133   5.650   2.213
 6420SOL    HW219550   5.234   5.699   2.331
 6421SOL     OW19551   5.272   5.795   3.581
 6421SOL    HW119552   5.266   5.826   3.676
 6421SOL    HW219553   5.215   5.714   3.568
 6422SOL     OW19554   4.361   5.710   1.969
 6422SOL    HW119555   4.443   5.655   1.985
 6422SOL    HW219556   4.310   5.674   1.891
 6423SOL     OW19557   4.494   5.834   3.598
 6423SOL    HW119558   4.579   5.783   3.609
 6423SOL    HW219559   4.450   5.844   3.687
 6424SOL     OW19560   5.126   0.180   3.275
 6424SOL    HW119561   5.040   0.153   3.318
 6424SOL    HW219562   5.115   0.268   3.230
 6425SOL     OW19563   4.266   5.654   2.348
 6425SOL    HW119564   4.190   5.649   2.412
 6425SOL    HW219565   4.250   5.729   2.283
 6426SOL     OW19566   4.011   5.627   2.051
 6426SOL    HW119567   4.057   5.699   1.999
 6426SOL    HW219568   4.079   5.566   2.092
 6427SOL     OW19569   4.673   5.814   2.289
 6427SOL    HW119570   4.625   5.890   2.332
 6427SOL    HW219571   4.771   5.827   2.298
 6428SOL     OW19572   4.275   5.791   3.023
 6428SOL    HW119573   4.330   5.752   3.096
 6428SOL    HW219574   4.181   5.802   3.054
 6429SOL     OW19575   4.741   5.619   2.584
 6429SOL    HW119576   4.676   5.621   2.507
 6429SOL    HW219577   4.715   5.546   2.647
 6430SOL     OW19578   4.220   5.853   2.161
 6430SOL    HW119579   4.283   5.819   2.091
 6430SOL    HW219580   4.265   5.924   2.214
 6431SOL     OW19581   4.648   5.668   3.248
 6431SOL    HW119582   4.672   5.647   3.154
 6431SOL    HW219583   4.720   5.722   3.290
 6432SOL     OW19584   4.733   5.705   3.593
 6432SOL    HW119585   4.757   5.747   3.506
 6432SOL    HW219586   4.786   5.621   3.606
 6433SOL     OW19587   4.214   5.611   3.619
 6433SOL    HW119588   4.170   5.555   3.549
 6433SOL    HW219589   4.155   5.688   3.642
 6434SOL     OW19590   4.013   5.779   3.110
 6434SOL    HW119591   3.978   5.814   3.196
 6434SOL    HW219592   4.003   5.679   3.107
 6435SOL     OW19593   4.538   0.255   2.912
 6435SOL    HW119594   4.497   0.233   2.824
 6435SOL    HW219595   4.466   0.267   2.981
 6436SOL     OW19596   4.029   5.650   2.494
 6436SOL    HW119597   3.995   5.743   2.505
 6436SOL    HW219598   4.040   5.607   2.584
 6437SOL     OW19599   5.236   5.844   1.989
 6437SOL    HW119600   5.183   5.762   2.010
 6437SOL    HW219601   5.323   5.842   2.038
 6438SOL     OW19602   4.084   0.074   2.880
 6438SOL    HW119603   4.038  -0.010   2.853
 6438SOL    HW219604   4.147   0.103   2.808
 6439SOL     OW19605   4.859   5.814   3.346
 6439SOL    HW119606   4.918   5.863   3.410
 6439SOL    HW219607   4.867   5.855   3.255
 6440SOL     OW19608   5.438   5.729   2.359
 6440SOL    HW119609   5.508   5.729   2.288
 6440SOL    HW219610   5.429   5.637   2.398
 6441SOL     OW19611   5.558   5.762   2.848
 6441SOL    HW119612   5.598   5.673   2.826
 6441SOL    HW219613   5.473   5.773   2.797
 6442SOL     OW19614   4.745   5.793   2.796
 6442SOL    HW119615   4.747   5.738   2.713
 6442SOL    HW219616   4.738   5.733   2.876
 6443SOL     OW19617   4.406   5.767   3.346
 6443SOL    HW119618   4.492   5.742   3.302
 6443SOL    HW219619   4.424   5.800   3.439
 6444SOL     OW19620   3.775   5.940   1.901
 6444SOL    HW119621   3.741   5.932   1.808
 6444SOL    HW219622   3.835   6.021   1.908
 6445SOL     OW19623   3.781   5.740   2.150
 6445SOL    HW119624   3.771   5.824   2.095
 6445SOL    HW219625   3.870   5.699   2.130
 6446SOL     OW19626   4.941   5.876   2.328
 6446SOL    HW119627   5.010   5.804   2.317
 6446SOL    HW219628   4.971   5.940   2.399
 6447SOL     OW19629   5.515   5.910   3.501
 6447SOL    HW119630   5.476   5.978   3.440
 6447SOL    HW219631   5.442   5.853   3.539
 6448SOL     OW19632   5.507   5.773   3.120
 6448SOL    HW119633   5.582   5.718   3.154
 6448SOL    HW219634   5.516   5.786   3.021
 6449SOL     OW19635   5.156   5.801   2.980
 6449SOL    HW119636   5.174   5.703   2.970
 6449SOL    HW219637   5.180   5.829   3.073
 6450SOL     OW19638   4.734   5.595   2.995
 6450SOL    HW119639   4.668   5.532   2.954
 6450SOL    HW219640   4.825   5.554   2.993
 6451SOL     OW19641   5.097   5.616   2.038
 6451SOL    HW119642   5.139   5.541   1.987
 6451SOL    HW219643   5.002   5.592   2.058
 6452SOL     OW19644   5.033   0.035   2.559
 6452SOL    HW119645   4.979   0.117   2.540
 6452SOL    HW219646   5.012   0.000   2.650
 6453SOL     OW19647   5.308   5.791   2.742
 6453SOL    HW119648   5.247   5.818   2.817
 6453SOL    HW219649   5.302   5.858   2.668
 6454SOL     OW19650   3.947   5.837   4.709
 6454SOL    HW119651   3.975   5.816   4.803
 6454SOL    HW219652   3.850   5.813   4.698
 6455SOL     OW19653   3.712   5.933   4.393
 6455SOL    HW119654   3.622   5.968   4.420
 6455SOL    HW219655   3.700   5.854   4.333
 6456SOL     OW19656   5.496   0.149   3.929
 6456SOL    HW119657   5.437   0.164   3.850
 6456SOL    HW219658   5.441   0.148   4.012
 6457SOL     OW19659   4.183   5.951   5.210
 6457SOL    HW119660   4.255   5.885   5.192
 6457SOL    HW219661   4.094   5.905   5.208
 6458SOL     OW19662   5.307   0.032   4.435
 6458SOL    HW119663   5.210   0.027   4.411
 6458SOL    HW219664   5.320   0.102   4.506
 6459SOL     OW19665   5.306   5.722   5.164
 6459SOL    HW119666   5.378   5.755   5.104
 6459SOL    HW219667   5.313   5.768   5.253
 6460SOL     OW19668   4.539   5.590   4.231
 6460SOL    HW119669   4.588   5.668   4.193
 6460SOL    HW219670   4.441   5.611   4.236
 6461SOL     OW19671   4.055   5.813   5.549
 6461SOL    HW119672   4.104   5.896   5.520
 6461SOL    HW219673   3.962   5.837   5.575
 6462SOL     OW19674   4.984   5.928   4.668
 6462SOL    HW119675   4.897   5.878   4.664
 6462SOL    HW219676   5.044   5.884   4.735
 6463SOL     OW19677   4.579   5.953   3.887
 6463SOL    HW119678   4.653   5.980   3.825
 6463SOL    HW219679   4.616   5.897   3.961
 6464SOL     OW19680   4.272   5.739   4.620
 6464SOL    HW119681   4.275   5.764   4.717
 6464SOL    HW219682   4.269   5.821   4.564
 6465SOL     OW19683   3.920   5.843   5.221
 6465SOL    HW119684   3.847   5.903   5.251
 6465SOL    HW219685   3.908   5.752   5.261
 6466SOL     OW19686   5.138   5.683   4.170
 6466SOL    HW119687   5.133   5.650   4.075
 6466SOL    HW219688   5.234   5.700   4.194
 6467SOL     OW19689   5.277   5.795   5.456
 6467SOL    HW119690   5.269   5.827   5.550
 6467SOL    HW219691   5.225   5.711   5.444
 6468SOL     OW19692   4.359   5.710   3.832
 6468SOL    HW119693   4.442   5.656   3.848
 6468SOL    HW219694   4.310   5.673   3.753
 6469SOL     OW19695   4.491   5.835   5.455
 6469SOL    HW119696   4.573   5.780   5.467
 6469SOL    HW219697   4.435   5.830   5.538
 6470SOL     OW19698   5.125   0.180   5.134
 6470SOL    HW119699   5.040   0.152   5.180
 6470SOL    HW219700   5.111   0.268   5.090
 6471SOL     OW19701   4.265   5.654   4.210
 6471SOL    HW119702   4.190   5.649   4.275
 6471SOL    HW219703   4.249   5.730   4.146
 6472SOL     OW19704   4.012   5.627   3.914
 6472SOL    HW119705   4.060   5.699   3.865
 6472SOL    HW219706   4.078   5.565   3.955
 6473SOL     OW19707   4.672   5.816   4.147
 6473SOL    HW119708   4.624   5.891   4.192
 6473SOL    HW219709   4.771   5.828   4.157
 6474SOL     OW19710   4.275   5.788   4.884
 6474SOL    HW119711   4.330   5.755   4.960
 6474SOL    HW219712   4.181   5.802   4.915
 6475SOL     OW19713   4.741   5.618   4.445
 6475SOL    HW119714   4.676   5.619   4.369
 6475SOL    HW219715   4.715   5.545   4.510
 6476SOL     OW19716   4.218   5.853   4.023
 6476SOL    HW119717   4.282   5.819   3.953
 6476SOL    HW219718   4.263   5.924   4.077
 6477SOL     OW19719   4.649   5.668   5.113
 6477SOL    HW119720   4.674   5.649   5.018
 6477SOL    HW219721   4.721   5.721   5.157
 6478SOL     OW19722   4.726   5.699   5.465
 6478SOL    HW119723   4.753   5.756   5.387
 6478SOL    HW219724   4.779   5.614   5.463
 6479SOL     OW19725   4.214   5.609   5.475
 6479SOL    HW119726   4.170   5.550   5.407
 6479SOL    HW219727   4.154   5.687   5.495
 6480SOL     OW19728   4.011   5.778   4.970
 6480SOL    HW119729   3.976   5.813   5.057
 6480SOL    HW219730   4.002   5.679   4.968
 6481SOL     OW19731   4.538   0.256   4.775
 6481SOL    HW119732   4.497   0.235   4.686
 6481SOL    HW219733   4.466   0.266   4.844
 6482SOL     OW19734   4.029   5.650   4.356
 6482SOL    HW119735   3.995   5.743   4.368
 6482SOL    HW219736   4.040   5.607   4.446
 6483SOL     OW19737   5.236   5.845   3.851
 6483SOL    HW119738   5.184   5.762   3.873
 6483SOL    HW219739   5.323   5.844   3.901
 6484SOL     OW19740   4.085   0.073   4.742
 6484SOL    HW119741   4.039  -0.011   4.713
 6484SOL    HW219742   4.148   0.102   4.670
 6485SOL     OW19743   4.861   5.815   5.212
 6485SOL    HW119744   4.924   5.862   5.273
 6485SOL    HW219745   4.865   5.857   5.121
 6486SOL     OW19746   5.436   5.729   4.220
 6486SOL    HW119747   5.508   5.729   4.150
 6486SOL    HW219748   5.428   5.637   4.259
 6487SOL     OW19749   5.558   5.762   4.709
 6487SOL    HW119750   5.598   5.673   4.688
 6487SOL    HW219751   5.473   5.773   4.659
 6488SOL     OW19752   4.745   5.793   4.658
 6488SOL    HW119753   4.747   5.737   4.575
 6488SOL    HW219754   4.738   5.733   4.738
 6489SOL     OW19755   4.405   5.767   5.203
 6489SOL    HW119756   4.491   5.741   5.161
 6489SOL    HW219757   4.422   5.803   5.295
 6490SOL     OW19758   3.775   5.940   3.763
 6490SOL    HW119759   3.742   5.932   3.669
 6490SOL    HW219760   3.835   6.020   3.770
 6491SOL     OW19761   3.782   5.740   4.012
 6491SOL    HW119762   3.771   5.823   3.958
 6491SOL    HW219763   3.871   5.699   3.993
 6492SOL     OW19764   4.942   5.877   4.188
 6492SOL    HW119765   5.010   5.805   4.178
 6492SOL    HW219766   4.970   5.940   4.260
 6493SOL     OW19767   5.511   5.908   5.362
 6493SOL    HW119768   5.474   5.977   5.300
 6493SOL    HW219769   5.436   5.853   5.400
 6494SOL     OW19770   5.505   5.774   4.981
 6494SOL    HW119771   5.583   5.722   5.016
 6494SOL    HW219772   5.515   5.786   4.882
 6495SOL     OW19773   5.156   5.802   4.842
 6495SOL    HW119774   5.174   5.704   4.834
 6495SOL    HW219775   5.178   5.832   4.935
 6496SOL     OW19776   4.735   5.596   4.858
 6496SOL    HW119777   4.668   5.533   4.818
 6496SOL    HW219778   4.826   5.555   4.855
 6497SOL     OW19779   5.097   5.616   3.900
 6497SOL    HW119780   5.140   5.540   3.850
 6497SOL    HW219781   5.002   5.593   3.920
 6498SOL     OW19782   5.033   0.034   4.419
 6498SOL    HW119783   4.980   0.117   4.403
 6498SOL    HW219784   5.012  -0.002   4.510
 6499SOL     OW19785   5.307   5.790   4.604
 6499SOL    HW119786   5.248   5.817   4.679
 6499SOL    HW219787   5.301   5.858   4.531
 6500SOL     OW19788   5.448   0.197   5.824
 6500SOL    HW119789   5.462   0.117   5.765
 6500SOL    HW219790   5.437   0.166   5.918
 6501SOL     OW19791   4.779   0.168   0.022
 6501SOL    HW119792   4.843   0.244   0.018
 6501SOL    HW219793   4.695   0.191  -0.028
 6502SOL     OW19794   4.589   5.979   5.721
 6502SOL    HW119795   4.642   6.022   5.648
 6502SOL    HW219796   4.619   5.885   5.734
 6503SOL     OW19797   4.368   5.708   5.678
 6503SOL    HW119798   4.434   5.637   5.703
 6503SOL    HW219799   4.309   5.674   5.605
 6504SOL     OW19800   4.019   5.635   5.764
 6504SOL    HW119801   4.065   5.701   5.704
 6504SOL    HW219802   4.088   5.585   5.817
 6505SOL     OW19803   4.258   5.848   5.889
 6505SOL    HW119804   4.296   5.810   5.804
 6505SOL    HW219805   4.287   5.943   5.899
 6506SOL     OW19806   4.022   5.652   0.241
 6506SOL    HW119807   4.075   5.736   0.240
 6506SOL    HW219808   4.080   5.577   0.274
 6507SOL     OW19809   5.231   5.846   5.728
 6507SOL    HW119810   5.176   5.762   5.734
 6507SOL    HW219811   5.297   5.848   5.803
 6508SOL     OW19812   4.545   0.197   5.893
 6508SOL    HW119813   4.551   0.112   5.842
 6508SOL    HW219814   4.449   0.223   5.905
 6509SOL     OW19815   5.425   5.695   0.089
 6509SOL    HW119816   5.481   5.678   0.008
 6509SOL    HW219817   5.421   5.612   0.145
 6510SOL     OW19818   3.791   5.914   5.617
 6510SOL    HW119819   3.743   5.913   5.530
 6510SOL    HW219820   3.837   6.002   5.630
 6511SOL     OW19821   3.794   5.751   5.863
 6511SOL    HW119822   3.770   5.806   5.783
 6511SOL    HW219823   3.880   5.702   5.845
 6512SOL     OW19824   5.091   5.614   5.738
 6512SOL    HW119825   5.137   5.533   5.701
 6512SOL    HW219826   5.002   5.588   5.776
 6513SOL     OW19827   5.772   0.656   0.094
 6513SOL    HW119828   5.700   0.616   0.150
 6513SOL    HW219829   5.842   0.587   0.075
 6514SOL     OW19830   5.790   0.332   1.026
 6514SOL    HW119831   5.835   0.295   1.107
 6514SOL    HW219832   5.724   0.266   0.992
 6515SOL     OW19833   5.588   0.402   0.629
 6515SOL    HW119834   5.497   0.414   0.668
 6515SOL    HW219835   5.592   0.315   0.579
 6516SOL     OW19836   0.219   1.000   0.655
 6516SOL    HW119837   0.298   0.967   0.603
 6516SOL    HW219838   0.250   1.034   0.744
 6517SOL     OW19839   5.865   1.533   1.067
 6517SOL    HW119840   5.811   1.450   1.050
 6517SOL    HW219841   5.950   1.528   1.016
 6518SOL     OW19842   5.812   1.709   0.482
 6518SOL    HW119843   5.829   1.776   0.554
 6518SOL    HW219844   5.890   1.707   0.419
 6519SOL     OW19845   5.801   1.433   0.512
 6519SOL    HW119846   5.798   1.533   0.509
 6519SOL    HW219847   5.739   1.400   0.583
 6520SOL     OW19848   5.884   1.111   0.916
 6520SOL    HW119849   5.869   1.014   0.938
 6520SOL    HW219850   5.808   1.165   0.950
 6521SOL     OW19851   5.715   0.646   0.591
 6521SOL    HW119852   5.672   0.557   0.604
 6521SOL    HW219853   5.705   0.700   0.675
 6522SOL     OW19854   5.582   1.581   0.122
 6522SOL    HW119855   5.545   1.492   0.147
 6522SOL    HW219856   5.589   1.638   0.204
 6523SOL     OW19857   5.701   0.747   1.572
 6523SOL    HW119858   5.772   0.799   1.618
 6523SOL    HW219859   5.621   0.805   1.556
 6524SOL     OW19860   5.775   0.949   1.269
 6524SOL    HW119861   5.837   0.928   1.193
 6524SOL    HW219862   5.683   0.916   1.247
 6525SOL     OW19863   5.684   0.818   0.804
 6525SOL    HW119864   5.749   0.801   0.878
 6525SOL    HW219865   5.628   0.898   0.827
 6526SOL     OW19866   5.722   1.893   1.588
 6526SOL    HW119867   5.733   1.858   1.681
 6526SOL    HW219868   5.650   1.842   1.541
 6527SOL     OW19869   5.780   0.303   1.514
 6527SOL    HW119870   5.718   0.367   1.469
 6527SOL    HW219871   5.728   0.229   1.556
 6528SOL     OW19872   0.052   1.724   0.301
 6528SOL    HW119873   0.106   1.719   0.385
 6528SOL    HW219874   0.114   1.730   0.223
 6529SOL     OW19875   5.853   1.780   1.233
 6529SOL    HW119876   5.903   1.726   1.300
 6529SOL    HW219877   5.839   1.725   1.150
 6530SOL     OW19878   5.876   0.023   0.249
 6530SOL    HW119879   5.898   0.118   0.227
 6530SOL    HW219880   5.952  -0.017   0.300
 6531SOL     OW19881   5.707   0.550   1.379
 6531SOL    HW119882   5.804   0.544   1.353
 6531SOL    HW219883   5.695   0.626   1.443
 6532SOL     OW19884   5.651   1.568   1.344
 6532SOL    HW119885   5.595   1.628   1.286
 6532SOL    HW219886   5.747   1.578   1.319
 6533SOL     OW19887   0.119   0.558   0.862
 6533SOL    HW119888   0.137   0.588   0.768
 6533SOL    HW219889   0.206   0.553   0.912
 6534SOL     OW19890   5.893   0.220   1.263
 6534SOL    HW119891   5.863   0.248   1.354
 6534SOL    HW219892   5.865   0.126   1.246
 6535SOL     OW19893   5.648   1.302   1.275
 6535SOL    HW119894   5.681   1.244   1.349
 6535SOL    HW219895   5.640   1.396   1.307
 6536SOL     OW19896   5.884   0.825   1.005
 6536SOL    HW119897   5.945   0.829   0.926
 6536SOL    HW219898   5.902   0.742   1.057
 6537SOL     OW19899   5.673   1.785   0.941
 6537SOL    HW119900   5.635   1.703   0.898
 6537SOL    HW219901   5.766   1.800   0.907
 6538SOL     OW19902   0.111   1.545   0.891
 6538SOL    HW119903   0.206   1.570   0.873
 6538SOL    HW219904   0.093   1.454   0.855
 6539SOL     OW19905   5.627   0.540   1.110
 6539SOL    HW119906   5.684   0.475   1.059
 6539SOL    HW219907   5.664   0.552   1.202
 6540SOL     OW19908   5.788   0.520   1.710
 6540SOL    HW119909   5.809   0.449   1.643
 6540SOL    HW219910   5.750   0.600   1.663
 6541SOL     OW19911   5.807   1.544   1.707
 6541SOL    HW119912   5.800   1.625   1.766
 6541SOL    HW219913   5.876   1.482   1.745
 6542SOL     OW19914   5.730   1.127   1.478
 6542SOL    HW119915   5.725   1.079   1.566
 6542SOL    HW219916   5.755   1.063   1.406
 6543SOL     OW19917   5.681   1.262   1.011
 6543SOL    HW119918   5.665   1.276   1.109
 6543SOL    HW219919   5.605   1.209   0.973
 6544SOL     OW19920   5.742   1.788   1.840
 6544SOL    HW119921   5.688   1.718   1.886
 6544SOL    HW219922   5.786   1.847   1.908
 6545SOL     OW19923   5.932   1.310   1.557
 6545SOL    HW119924   5.913   1.403   1.523
 6545SOL    HW219925   5.860   1.248   1.525
 6546SOL     OW19926   5.698   1.009   1.726
 6546SOL    HW119927   5.607   0.994   1.765
 6546SOL    HW219928   5.761   1.038   1.797
 6547SOL     OW19929   5.606   0.383   0.044
 6547SOL    HW119930   5.516   0.338   0.050
 6547SOL    HW219931   5.612   0.433  -0.042
 6548SOL     OW19932   5.642   0.150   0.342
 6548SOL    HW119933   5.632   0.221   0.272
 6548SOL    HW219934   5.715   0.087   0.314
 6549SOL     OW19935   0.210   0.817   1.464
 6549SOL    HW119936   0.221   0.875   1.383
 6549SOL    HW219937   0.300   0.786   1.495
 6550SOL     OW19938   5.659   1.240   0.674
 6550SOL    HW119939   5.660   1.179   0.753
 6550SOL    HW219940   5.719   1.204   0.602
 6551SOL     OW19941   5.642   1.067   0.298
 6551SOL    HW119942   5.738   1.069   0.272
 6551SOL    HW219943   5.623   0.986   0.353
 6552SOL     OW19944   5.853   0.623   1.966
 6552SOL    HW119945   5.767   0.620   2.018
 6552SOL    HW219946   5.836   0.591   1.872
 6553SOL     OW19947   5.789   0.333   2.888
 6553SOL    HW119948   5.834   0.297   2.970
 6553SOL    HW219949   5.723   0.266   2.854
 6554SOL     OW19950   5.600   0.407   2.484
 6554SOL    HW119951   5.507   0.403   2.521
 6554SOL    HW219952   5.616   0.327   2.426
 6555SOL     OW19953   0.222   0.997   2.518
 6555SOL    HW119954   0.300   0.959   2.469
 6555SOL    HW219955   0.252   1.033   2.607
 6556SOL     OW19956   5.865   1.534   2.929
 6556SOL    HW119957   5.812   1.451   2.913
 6556SOL    HW219958   5.951   1.529   2.877
 6557SOL     OW19959   5.805   1.718   2.340
 6557SOL    HW119960   5.822   1.779   2.417
 6557SOL    HW219961   5.880   1.723   2.275
 6558SOL     OW19962   5.808   1.443   2.395
 6558SOL    HW119963   5.802   1.541   2.377
 6558SOL    HW219964   5.735   1.416   2.457
 6559SOL     OW19965   5.883   1.112   2.777
 6559SOL    HW119966   5.870   1.015   2.800
 6559SOL    HW219967   5.807   1.165   2.813
 6560SOL     OW19968   5.681   0.666   2.439
 6560SOL    HW119969   5.657   0.571   2.456
 6560SOL    HW219970   5.689   0.714   2.526
 6561SOL     OW19971   5.632   1.592   1.986
 6561SOL    HW119972   5.623   1.494   2.003
 6561SOL    HW219973   5.602   1.642   2.067
 6562SOL     OW19974   5.702   0.746   3.434
 6562SOL    HW119975   5.775   0.798   3.480
 6562SOL    HW219976   5.623   0.805   3.421
 6563SOL     OW19977   5.775   0.950   3.130
 6563SOL    HW119978   5.838   0.928   3.055
 6563SOL    HW219979   5.685   0.913   3.110
 6564SOL     OW19980   5.680   0.825   2.664
 6564SOL    HW119981   5.746   0.804   2.736
 6564SOL    HW219982   5.627   0.906   2.690
 6565SOL     OW19983   5.722   1.892   3.450
 6565SOL    HW119984   5.734   1.858   3.543
 6565SOL    HW219985   5.650   1.842   3.404
 6566SOL     OW19986   5.780   0.302   3.377
 6566SOL    HW119987   5.716   0.365   3.333
 6566SOL    HW219988   5.730   0.228   3.421
 6567SOL     OW19989   0.049   1.751   2.177
 6567SOL    HW119990   0.096   1.724   2.261
 6567SOL    HW219991   0.112   1.799   2.117
 6568SOL     OW19992   5.853   1.780   3.094
 6568SOL    HW119993   5.902   1.727   3.163
 6568SOL    HW219994   5.840   1.725   3.012
 6569SOL     OW19995   5.884   5.951   2.035
 6569SOL    HW119996   5.870   6.050   2.028
 6569SOL    HW219997   5.948   5.932   2.108
 6570SOL     OW19998   5.706   0.550   3.241
 6570SOL    HW119999   5.803   0.542   3.216
 6570SOL    HW220000   5.695   0.626   3.305
 6571SOL     OW20001   5.652   1.568   3.206
 6571SOL    HW120002   5.597   1.629   3.148
 6571SOL    HW220003   5.748   1.577   3.181
 6572SOL     OW20004   0.122   0.568   2.733
 6572SOL    HW120005   0.136   0.583   2.636
 6572SOL    HW220006   0.210   0.554   2.778
 6573SOL     OW20007   5.892   0.224   3.124
 6573SOL    HW120008   5.861   0.248   3.216
 6573SOL    HW220009   5.871   0.128   3.106
 6574SOL     OW20010   5.648   1.302   3.136
 6574SOL    HW120011   5.681   1.244   3.210
 6574SOL    HW220012   5.640   1.396   3.169
 6575SOL     OW20013   5.881   0.827   2.867
 6575SOL    HW120014   5.942   0.831   2.787
 6575SOL    HW220015   5.900   0.744   2.919
 6576SOL     OW20016   5.594   1.323   2.045
 6576SOL    HW120017   5.504   1.343   2.006
 6576SOL    HW220018   5.589   1.236   2.095
 6577SOL     OW20019   5.673   1.784   2.802
 6577SOL    HW120020   5.635   1.702   2.759
 6577SOL    HW220021   5.765   1.800   2.766
 6578SOL     OW20022   0.110   1.546   2.753
 6578SOL    HW120023   0.206   1.569   2.734
 6578SOL    HW220024   0.091   1.456   2.714
 6579SOL     OW20025   5.627   0.541   2.971
 6579SOL    HW120026   5.684   0.476   2.920
 6579SOL    HW220027   5.664   0.553   3.063
 6580SOL     OW20028   5.787   0.519   3.572
 6580SOL    HW120029   5.809   0.448   3.505
 6580SOL    HW220030   5.750   0.599   3.525
 6581SOL     OW20031   5.808   1.544   3.569
 6581SOL    HW120032   5.798   1.626   3.625
 6581SOL    HW220033   5.874   1.482   3.611
 6582SOL     OW20034   5.729   1.127   3.340
 6582SOL    HW120035   5.725   1.079   3.427
 6582SOL    HW220036   5.756   1.063   3.268
 6583SOL     OW20037   5.679   1.261   2.873
 6583SOL    HW120038   5.664   1.275   2.971
 6583SOL    HW220039   5.604   1.206   2.835
 6584SOL     OW20040   5.743   1.788   3.702
 6584SOL    HW120041   5.689   1.718   3.748
 6584SOL    HW220042   5.787   1.847   3.769
 6585SOL     OW20043   5.933   1.310   3.416
 6585SOL    HW120044   5.909   1.404   3.391
 6585SOL    HW220045   5.861   1.248   3.386
 6586SOL     OW20046   5.697   1.010   3.587
 6586SOL    HW120047   5.606   0.995   3.627
 6586SOL    HW220048   5.761   1.036   3.660
 6587SOL     OW20049   5.641   0.384   1.892
 6587SOL    HW120050   5.543   0.384   1.870
 6587SOL    HW220051   5.690   0.440   1.826
 6588SOL     OW20052   5.684   0.186   2.261
 6588SOL    HW120053   5.631   0.183   2.177
 6588SOL    HW220054   5.778   0.157   2.242
 6589SOL     OW20055   0.211   0.817   3.326
 6589SOL    HW120056   0.223   0.876   3.245
 6589SOL    HW220057   0.301   0.786   3.357
 6590SOL     OW20058   5.658   1.239   2.534
 6590SOL    HW120059   5.660   1.179   2.614
 6590SOL    HW220060   5.739   1.223   2.477
 6591SOL     OW20061   5.615   1.070   2.180
 6591SOL    HW120062   5.711   1.083   2.156
 6591SOL    HW220063   5.597   0.973   2.195
 6592SOL     OW20064   5.852   0.624   3.827
 6592SOL    HW120065   5.768   0.621   3.880
 6592SOL    HW220066   5.834   0.591   3.734
 6593SOL     OW20067   5.789   0.332   4.751
 6593SOL    HW120068   5.836   0.296   4.832
 6593SOL    HW220069   5.723   0.265   4.718
 6594SOL     OW20070   5.598   0.408   4.346
 6594SOL    HW120071   5.506   0.405   4.384
 6594SOL    HW220072   5.614   0.327   4.290
 6595SOL     OW20073   0.224   1.001   4.381
 6595SOL    HW120074   0.298   0.949   4.340
 6595SOL    HW220075   0.251   1.032   4.472
 6596SOL     OW20076   5.866   1.531   4.790
 6596SOL    HW120077   5.811   1.450   4.771
 6596SOL    HW220078   5.950   1.528   4.736
 6597SOL     OW20079   5.804   1.718   4.203
 6597SOL    HW120080   5.822   1.781   4.279
 6597SOL    HW220081   5.880   1.721   4.138
 6598SOL     OW20082   5.807   1.442   4.253
 6598SOL    HW120083   5.800   1.541   4.239
 6598SOL    HW220084   5.735   1.413   4.317
 6599SOL     OW20085   5.886   1.111   4.639
 6599SOL    HW120086   5.874   1.015   4.663
 6599SOL    HW220087   5.809   1.164   4.675
 6600SOL     OW20088   5.679   0.668   4.301
 6600SOL    HW120089   5.656   0.572   4.317
 6600SOL    HW220090   5.688   0.715   4.388
 6601SOL     OW20091   5.632   1.592   3.847
 6601SOL    HW120092   5.623   1.493   3.864
 6601SOL    HW220093   5.602   1.642   3.928
 6602SOL     OW20094   5.699   0.747   5.297
 6602SOL    HW120095   5.769   0.798   5.347
 6602SOL    HW220096   5.620   0.805   5.281
 6603SOL     OW20097   5.777   0.952   4.993
 6603SOL    HW120098   5.840   0.930   4.918
 6603SOL    HW220099   5.687   0.913   4.973
 6604SOL     OW20100   5.680   0.826   4.525
 6604SOL    HW120101   5.747   0.805   4.596
 6604SOL    HW220102   5.628   0.907   4.552
 6605SOL     OW20103   5.720   1.893   5.309
 6605SOL    HW120104   5.731   1.858   5.402
 6605SOL    HW220105   5.643   1.847   5.265
 6606SOL     OW20106   5.782   0.304   5.236
 6606SOL    HW120107   5.714   0.366   5.197
 6606SOL    HW220108   5.736   0.234   5.291
 6607SOL     OW20109   0.047   1.749   4.040
 6607SOL    HW120110   0.094   1.723   4.124
 6607SOL    HW220111   0.110   1.797   3.979
 6608SOL     OW20112   5.852   1.777   4.956
 6608SOL    HW120113   5.909   1.728   5.021
 6608SOL    HW220114   5.839   1.722   4.874
 6609SOL     OW20115   5.883   5.951   3.896
 6609SOL    HW120116   5.871   6.050   3.891
 6609SOL    HW220117   5.948   5.929   3.969
 6610SOL     OW20118   5.705   0.552   5.103
 6610SOL    HW120119   5.802   0.541   5.080
 6610SOL    HW220120   5.695   0.627   5.169
 6611SOL     OW20121   5.653   1.569   5.069
 6611SOL    HW120122   5.598   1.629   5.012
 6611SOL    HW220123   5.750   1.581   5.048
 6612SOL     OW20124   0.121   0.560   4.594
 6612SOL    HW120125   0.137   0.584   4.498
 6612SOL    HW220126   0.208   0.556   4.642
 6613SOL     OW20127   5.893   0.220   4.987
 6613SOL    HW120128   5.862   0.249   5.078
 6613SOL    HW220129   5.864   0.125   4.972
 6614SOL     OW20130   5.652   1.303   4.998
 6614SOL    HW120131   5.682   1.244   5.074
 6614SOL    HW220132   5.643   1.397   5.031
 6615SOL     OW20133   5.881   0.825   4.724
 6615SOL    HW120134   5.944   0.828   4.647
 6615SOL    HW220135   5.899   0.743   4.779
 6616SOL     OW20136   5.594   1.323   3.905
 6616SOL    HW120137   5.504   1.343   3.866
 6616SOL    HW220138   5.590   1.236   3.955
 6617SOL     OW20139   5.672   1.784   4.664
 6617SOL    HW120140   5.634   1.702   4.620
 6617SOL    HW220141   5.767   1.797   4.633
 6618SOL     OW20142   0.110   1.546   4.615
 6618SOL    HW120143   0.206   1.570   4.598
 6618SOL    HW220144   0.092   1.454   4.582
 6619SOL     OW20145   5.627   0.541   4.834
 6619SOL    HW120146   5.684   0.476   4.784
 6619SOL    HW220147   5.663   0.553   4.926
 6620SOL     OW20148   5.776   0.521   5.444
 6620SOL    HW120149   5.807   0.451   5.380
 6620SOL    HW220150   5.740   0.600   5.393
 6621SOL     OW20151   5.818   1.541   5.442
 6621SOL    HW120152   5.787   1.633   5.468
 6621SOL    HW220153   5.879   1.505   5.511
 6622SOL     OW20154   5.730   1.126   5.204
 6622SOL    HW120155   5.726   1.078   5.291
 6622SOL    HW220156   5.753   1.062   5.131
 6623SOL     OW20157   5.681   1.260   4.735
 6623SOL    HW120158   5.667   1.275   4.833
 6623SOL    HW220159   5.605   1.207   4.698
 6624SOL     OW20160   5.742   1.784   5.555
 6624SOL    HW120161   5.685   1.719   5.607
 6624SOL    HW220162   5.796   1.839   5.619
 6625SOL     OW20163   5.947   1.298   5.239
 6625SOL    HW120164   5.923   1.384   5.284
 6625SOL    HW220165   5.866   1.239   5.235
 6626SOL     OW20166   5.708   1.011   5.450
 6626SOL    HW120167   5.615   0.994   5.483
 6626SOL    HW220168   5.766   1.038   5.526
 6627SOL     OW20169   5.640   0.383   3.755
 6627SOL    HW120170   5.542   0.385   3.735
 6627SOL    HW220171   5.689   0.439   3.688
 6628SOL     OW20172   5.684   0.184   4.121
 6628SOL    HW120173   5.632   0.181   4.037
 6628SOL    HW220174   5.779   0.157   4.103
 6629SOL     OW20175   0.211   0.823   5.177
 6629SOL    HW120176   0.223   0.922   5.165
 6629SOL    HW220177   0.297   0.782   5.206
 6630SOL     OW20178   5.659   1.239   4.397
 6630SOL    HW120179   5.657   1.179   4.477
 6630SOL    HW220180   5.741   1.219   4.343
 6631SOL     OW20181   5.615   1.071   4.041
 6631SOL    HW120182   5.712   1.084   4.022
 6631SOL    HW220183   5.597   0.973   4.055
 6632SOL     OW20184   5.848   0.629   5.693
 6632SOL    HW120185   5.764   0.643   5.745
 6632SOL    HW220186   5.826   0.589   5.604
 6633SOL     OW20187   5.814   1.790   0.009
 6633SOL    HW120188   5.821   1.846   0.092
 6633SOL    HW220189   5.842   1.696   0.029
 6634SOL     OW20190   5.616   1.603   5.707
 6634SOL    HW120191   5.618   1.504   5.724
 6634SOL    HW220192   5.564   1.648   5.779
 6635SOL     OW20193   0.093   1.722   5.860
 6635SOL    HW120194   0.092   1.698   5.957
 6635SOL    HW220195   0.164   1.790   5.842
 6636SOL     OW20196   5.892   5.972   5.736
 6636SOL    HW120197   5.940   6.052   5.771
 6636SOL    HW220198   5.934   5.889   5.773
 6637SOL     OW20199   5.604   1.327   5.754
 6637SOL    HW120200   5.511   1.346   5.723
 6637SOL    HW220201   5.607   1.238   5.798
 6638SOL     OW20202   5.631   0.362   5.612
 6638SOL    HW120203   5.534   0.361   5.588
 6638SOL    HW220204   5.677   0.432   5.556
 6639SOL     OW20205   5.720   0.118   5.900
 6639SOL    HW120206   5.644   0.173   5.865
 6639SOL    HW220207   5.758   0.063   5.826
 6640SOL     OW20208   5.652   1.079   5.882
 6640SOL    HW120209   5.750   1.096   5.887
 6640SOL    HW220210   5.634   0.981   5.889
 6641SOL     OW20211   5.765   2.518   0.111
 6641SOL    HW120212   5.686   2.492   0.168
 6641SOL    HW220213   5.813   2.435   0.082
 6642SOL     OW20214   5.810   2.171   1.008
 6642SOL    HW120215   5.842   2.134   1.095
 6642SOL    HW220216   5.724   2.126   0.982
 6643SOL     OW20217   5.586   2.260   0.631
 6643SOL    HW120218   5.498   2.272   0.677
 6643SOL    HW220219   5.582   2.179   0.573
 6644SOL     OW20220   0.222   2.853   0.651
 6644SOL    HW120221   0.304   2.829   0.600
 6644SOL    HW220222   0.247   2.890   0.740
 6645SOL     OW20223   5.873   3.403   1.060
 6645SOL    HW120224   5.822   3.318   1.048
 6645SOL    HW220225   5.959   3.398   1.010
 6646SOL     OW20226   5.816   3.570   0.481
 6646SOL    HW120227   5.832   3.637   0.553
 6646SOL    HW220228   5.896   3.566   0.421
 6647SOL     OW20229   5.787   3.295   0.497
 6647SOL    HW120230   5.794   3.394   0.500
 6647SOL    HW220231   5.729   3.264   0.572
 6648SOL     OW20232   5.875   2.964   0.919
 6648SOL    HW120233   5.861   2.868   0.944
 6648SOL    HW220234   5.800   3.020   0.954
 6649SOL     OW20235   5.709   2.506   0.591
 6649SOL    HW120236   5.666   2.417   0.605
 6649SOL    HW220237   5.702   2.560   0.675
 6650SOL     OW20238   5.577   3.448   0.122
 6650SOL    HW120239   5.558   3.354   0.150
 6650SOL    HW220240   5.588   3.505   0.204
 6651SOL     OW20241   5.701   2.598   1.583
 6651SOL    HW120242   5.776   2.646   1.628
 6651SOL    HW220243   5.625   2.661   1.569
 6652SOL     OW20244   5.775   2.812   1.269
 6652SOL    HW120245   5.838   2.791   1.195
 6652SOL    HW220246   5.685   2.773   1.248
 6653SOL     OW20247   5.682   2.680   0.802
 6653SOL    HW120248   5.750   2.664   0.874
 6653SOL    HW220249   5.627   2.760   0.827
 6654SOL     OW20250   5.722   3.756   1.588
 6654SOL    HW120251   5.730   3.724   1.683
 6654SOL    HW220252   5.655   3.699   1.540
 6655SOL     OW20253   5.787   2.147   1.516
 6655SOL    HW120254   5.700   2.187   1.486
 6655SOL    HW220255   5.771   2.054   1.550
 6656SOL     OW20256   0.053   3.585   0.301
 6656SOL    HW120257   0.107   3.579   0.385
 6656SOL    HW220258   0.114   3.592   0.222
 6657SOL     OW20259   5.852   3.637   1.234
 6657SOL    HW120260   5.916   3.590   1.296
 6657SOL    HW220261   5.841   3.583   1.151
 6658SOL     OW20262   5.700   2.414   1.380
 6658SOL    HW120263   5.796   2.388   1.369
 6658SOL    HW220264   5.693   2.487   1.449
 6659SOL     OW20265   5.650   3.432   1.344
 6659SOL    HW120266   5.596   3.490   1.283
 6659SOL    HW220267   5.747   3.453   1.333
 6660SOL     OW20268   0.120   2.410   0.888
 6660SOL    HW120269   0.131   2.439   0.794
 6660SOL    HW220270   0.210   2.399   0.931
 6661SOL     OW20271   5.880   2.061   1.251
 6661SOL    HW120272   5.855   2.090   1.343
 6661SOL    HW220273   5.868   1.962   1.243
 6662SOL     OW20274   5.644   3.165   1.276
 6662SOL    HW120275   5.682   3.109   1.348
 6662SOL    HW220276   5.643   3.261   1.305
 6663SOL     OW20277   5.885   1.896   0.670
 6663SOL    HW120278   5.852   1.989   0.687
 6663SOL    HW220279   5.953   1.872   0.739
 6664SOL     OW20280   5.883   2.687   1.001
 6664SOL    HW120281   5.946   2.688   0.924
 6664SOL    HW220282   5.898   2.605   1.056
 6665SOL     OW20283   5.675   3.647   0.939
 6665SOL    HW120284   5.636   3.566   0.896
 6665SOL    HW220285   5.771   3.656   0.913
 6666SOL     OW20286   0.118   3.407   0.896
 6666SOL    HW120287   0.216   3.426   0.898
 6666SOL    HW220288   0.101   3.322   0.847
 6667SOL     OW20289   5.626   2.398   1.112
 6667SOL    HW120290   5.691   2.346   1.055
 6667SOL    HW220291   5.665   2.411   1.203
 6668SOL     OW20292   5.782   2.359   1.723
 6668SOL    HW120293   5.798   2.287   1.656
 6668SOL    HW220294   5.740   2.437   1.678
 6669SOL     OW20295   5.796   3.403   1.712
 6669SOL    HW120296   5.822   3.456   1.793
 6669SOL    HW220297   5.861   3.329   1.698
 6670SOL     OW20298   5.732   2.988   1.479
 6670SOL    HW120299   5.725   2.938   1.565
 6670SOL    HW220300   5.756   2.925   1.406
 6671SOL     OW20301   5.676   3.121   1.012
 6671SOL    HW120302   5.662   3.138   1.109
 6671SOL    HW220303   5.600   3.068   0.976
 6672SOL     OW20304   5.732   3.667   1.844
 6672SOL    HW120305   5.686   3.587   1.882
 6672SOL    HW220306   5.780   3.716   1.917
 6673SOL     OW20307   5.914   3.187   1.571
 6673SOL    HW120308   5.947   3.239   1.493
 6673SOL    HW220309   5.854   3.113   1.539
 6674SOL     OW20310   5.697   2.869   1.725
 6674SOL    HW120311   5.606   2.854   1.765
 6674SOL    HW220312   5.760   2.901   1.796
 6675SOL     OW20313   5.589   2.268   5.990
 6675SOL    HW120314   5.544   2.199   6.046
 6675SOL    HW220315   5.664   2.225   5.939
 6676SOL     OW20316   5.629   2.022   0.341
 6676SOL    HW120317   5.581   2.046   0.256
 6676SOL    HW220318   5.724   1.998   0.320
 6677SOL     OW20319   0.206   2.677   1.463
 6677SOL    HW120320   0.214   2.734   1.382
 6677SOL    HW220321   0.298   2.650   1.495
 6678SOL     OW20322   5.662   3.101   0.675
 6678SOL    HW120323   5.668   3.046   0.758
 6678SOL    HW220324   5.735   3.074   0.612
 6679SOL     OW20325   5.640   2.926   0.296
 6679SOL    HW120326   5.738   2.938   0.280
 6679SOL    HW220327   5.624   2.844   0.351
 6680SOL     OW20328   5.847   2.485   1.966
 6680SOL    HW120329   5.761   2.489   2.018
 6680SOL    HW220330   5.828   2.447   1.876
 6681SOL     OW20331   5.805   2.177   2.874
 6681SOL    HW120332   5.839   2.137   2.959
 6681SOL    HW220333   5.721   2.129   2.846
 6682SOL     OW20334   5.578   2.255   2.490
 6682SOL    HW120335   5.495   2.277   2.541
 6682SOL    HW220336   5.565   2.168   2.441
 6683SOL     OW20337   0.218   2.859   2.518
 6683SOL    HW120338   0.297   2.825   2.467
 6683SOL    HW220339   0.249   2.894   2.607
 6684SOL     OW20340   5.867   3.394   2.927
 6684SOL    HW120341   5.813   3.311   2.910
 6684SOL    HW220342   5.952   3.390   2.876
 6685SOL     OW20343   5.805   3.580   2.340
 6685SOL    HW120344   5.822   3.641   2.417
 6685SOL    HW220345   5.881   3.585   2.275
 6686SOL     OW20346   5.808   3.306   2.399
 6686SOL    HW120347   5.803   3.404   2.377
 6686SOL    HW220348   5.733   3.282   2.460
 6687SOL     OW20349   5.883   2.971   2.779
 6687SOL    HW120350   5.869   2.875   2.803
 6687SOL    HW220351   5.806   3.025   2.814
 6688SOL     OW20352   5.678   2.515   2.441
 6688SOL    HW120353   5.648   2.421   2.458
 6688SOL    HW220354   5.685   2.564   2.527
 6689SOL     OW20355   5.639   3.455   1.988
 6689SOL    HW120356   5.626   3.357   2.003
 6689SOL    HW220357   5.605   3.505   2.068
 6690SOL     OW20358   5.701   2.598   3.445
 6690SOL    HW120359   5.777   2.644   3.491
 6690SOL    HW220360   5.626   2.663   3.432
 6691SOL     OW20361   5.776   2.814   3.131
 6691SOL    HW120362   5.838   2.793   3.056
 6691SOL    HW220363   5.687   2.772   3.113
 6692SOL     OW20364   5.679   2.682   2.662
 6692SOL    HW120365   5.747   2.664   2.733
 6692SOL    HW220366   5.626   2.763   2.687
 6693SOL     OW20367   5.722   3.755   3.450
 6693SOL    HW120368   5.733   3.720   3.543
 6693SOL    HW220369   5.649   3.704   3.404
 6694SOL     OW20370   5.785   2.147   3.377
 6694SOL    HW120371   5.697   2.186   3.351
 6694SOL    HW220372   5.771   2.054   3.411
 6695SOL     OW20373   0.049   3.614   2.178
 6695SOL    HW120374   0.098   3.586   2.262
 6695SOL    HW220375   0.113   3.661   2.117
 6696SOL     OW20376   5.851   3.639   3.096
 6696SOL    HW120377   5.910   3.586   3.157
 6696SOL    HW220378   5.837   3.588   3.011
 6697SOL     OW20379   5.869   1.923   2.048
 6697SOL    HW120380   5.925   2.006   2.044
 6697SOL    HW220381   5.916   1.854   2.102
 6698SOL     OW20382   5.699   2.415   3.242
 6698SOL    HW120383   5.794   2.385   3.234
 6698SOL    HW220384   5.692   2.487   3.310
 6699SOL     OW20385   5.652   3.431   3.207
 6699SOL    HW120386   5.596   3.490   3.148
 6699SOL    HW220387   5.749   3.446   3.187
 6700SOL     OW20388   0.122   2.411   2.746
 6700SOL    HW120389   0.137   2.437   2.651
 6700SOL    HW220390   0.211   2.399   2.791
 6701SOL     OW20391   5.880   2.061   3.112
 6701SOL    HW120392   5.854   2.090   3.204
 6701SOL    HW220393   5.869   1.962   3.104
 6702SOL     OW20394   5.647   3.165   3.136
 6702SOL    HW120395   5.680   3.107   3.210
 6702SOL    HW220396   5.642   3.260   3.167
 6703SOL     OW20397   5.880   1.893   2.538
 6703SOL    HW120398   5.852   1.988   2.550
 6703SOL    HW220399   5.951   1.870   2.605
 6704SOL     OW20400   5.881   2.689   2.863
 6704SOL    HW120401   5.944   2.691   2.785
 6704SOL    HW220402   5.897   2.607   2.917
 6705SOL     OW20403   5.593   3.186   2.048
 6705SOL    HW120404   5.503   3.207   2.008
 6705SOL    HW220405   5.587   3.099   2.097
 6706SOL     OW20406   5.674   3.647   2.802
 6706SOL    HW120407   5.635   3.565   2.759
 6706SOL    HW220408   5.765   3.664   2.764
 6707SOL     OW20409   0.111   3.407   2.752
 6707SOL    HW120410   0.206   3.432   2.733
 6707SOL    HW220411   0.092   3.317   2.713
 6708SOL     OW20412   5.627   2.398   2.973
 6708SOL    HW120413   5.690   2.343   2.918
 6708SOL    HW220414   5.665   2.411   3.065
 6709SOL     OW20415   5.781   2.358   3.584
 6709SOL    HW120416   5.797   2.286   3.517
 6709SOL    HW220417   5.738   2.436   3.539
 6710SOL     OW20418   5.813   3.404   3.571
 6710SOL    HW120419   5.796   3.491   3.616
 6710SOL    HW220420   5.876   3.349   3.626
 6711SOL     OW20421   5.729   2.990   3.341
 6711SOL    HW120422   5.723   2.940   3.428
 6711SOL    HW220423   5.754   2.926   3.268
 6712SOL     OW20424   5.678   3.123   2.872
 6712SOL    HW120425   5.663   3.137   2.970
 6712SOL    HW220426   5.604   3.067   2.835
 6713SOL     OW20427   5.744   3.647   3.700
 6713SOL    HW120428   5.690   3.577   3.748
 6713SOL    HW220429   5.787   3.707   3.766
 6714SOL     OW20430   5.940   3.170   3.397
 6714SOL    HW120431   5.907   3.264   3.406
 6714SOL    HW220432   5.862   3.109   3.381
 6715SOL     OW20433   5.695   2.871   3.587
 6715SOL    HW120434   5.604   2.857   3.626
 6715SOL    HW220435   5.759   2.893   3.661
 6716SOL     OW20436   5.658   2.196   1.915
 6716SOL    HW120437   5.577   2.161   1.868
 6716SOL    HW220438   5.704   2.263   1.857
 6717SOL     OW20439   5.636   2.020   2.152
 6717SOL    HW120440   5.616   2.102   2.097
 6717SOL    HW220441   5.723   1.981   2.124
 6718SOL     OW20442   0.211   2.682   3.323
 6718SOL    HW120443   0.228   2.758   3.261
 6718SOL    HW220444   0.298   2.647   3.358
 6719SOL     OW20445   5.657   3.100   2.533
 6719SOL    HW120446   5.665   3.040   2.612
 6719SOL    HW220447   5.737   3.090   2.474
 6720SOL     OW20448   5.614   2.931   2.182
 6720SOL    HW120449   5.709   2.945   2.153
 6720SOL    HW220450   5.598   2.834   2.198
 6721SOL     OW20451   5.846   2.489   3.825
 6721SOL    HW120452   5.762   2.490   3.880
 6721SOL    HW220453   5.826   2.447   3.736
 6722SOL     OW20454   5.808   2.173   4.732
 6722SOL    HW120455   5.841   2.135   4.818
 6722SOL    HW220456   5.722   2.128   4.706
 6723SOL     OW20457   5.576   2.256   4.352
 6723SOL    HW120458   5.493   2.279   4.403
 6723SOL    HW220459   5.563   2.169   4.305
 6724SOL     OW20460   0.220   2.864   4.383
 6724SOL    HW120461   0.294   2.812   4.341
 6724SOL    HW220462   0.247   2.893   4.475
 6725SOL     OW20463   5.868   3.390   4.790
 6725SOL    HW120464   5.812   3.310   4.769
 6725SOL    HW220465   5.951   3.388   4.734
 6726SOL     OW20466   5.805   3.580   4.203
 6726SOL    HW120467   5.822   3.642   4.279
 6726SOL    HW220468   5.881   3.584   4.138
 6727SOL     OW20469   5.807   3.304   4.253
 6727SOL    HW120470   5.800   3.403   4.238
 6727SOL    HW220471   5.735   3.275   4.317
 6728SOL     OW20472   5.886   2.970   4.640
 6728SOL    HW120473   5.874   2.874   4.664
 6728SOL    HW220474   5.809   3.023   4.675
 6729SOL     OW20475   5.677   2.516   4.302
 6729SOL    HW120476   5.647   2.422   4.319
 6729SOL    HW220477   5.684   2.565   4.389
 6730SOL     OW20478   5.631   3.453   3.847
 6730SOL    HW120479   5.622   3.355   3.864
 6730SOL    HW220480   5.601   3.504   3.928
 6731SOL     OW20481   5.698   2.599   5.308
 6731SOL    HW120482   5.770   2.648   5.357
 6731SOL    HW220483   5.621   2.661   5.291
 6732SOL     OW20484   5.778   2.815   4.994
 6732SOL    HW120485   5.841   2.793   4.919
 6732SOL    HW220486   5.689   2.772   4.976
 6733SOL     OW20487   5.680   2.684   4.523
 6733SOL    HW120488   5.748   2.666   4.593
 6733SOL    HW220489   5.626   2.765   4.548
 6734SOL     OW20490   5.720   3.755   5.309
 6734SOL    HW120491   5.731   3.721   5.402
 6734SOL    HW220492   5.643   3.708   5.265
 6735SOL     OW20493   5.785   2.148   5.241
 6735SOL    HW120494   5.697   2.187   5.214
 6735SOL    HW220495   5.771   2.054   5.273
 6736SOL     OW20496   0.048   3.611   4.038
 6736SOL    HW120497   0.096   3.584   4.122
 6736SOL    HW220498   0.111   3.662   3.980
 6737SOL     OW20499   5.851   3.638   4.957
 6737SOL    HW120500   5.913   3.587   5.017
 6737SOL    HW220501   5.837   3.586   4.873
 6738SOL     OW20502   5.869   1.923   3.911
 6738SOL    HW120503   5.925   2.006   3.914
 6738SOL    HW220504   5.914   1.851   3.964
 6739SOL     OW20505   5.699   2.415   5.105
 6739SOL    HW120506   5.794   2.384   5.097
 6739SOL    HW220507   5.692   2.487   5.174
 6740SOL     OW20508   5.653   3.431   5.070
 6740SOL    HW120509   5.597   3.491   5.012
 6740SOL    HW220510   5.750   3.447   5.052
 6741SOL     OW20511   0.119   2.404   4.613
 6741SOL    HW120512   0.130   2.443   4.521
 6741SOL    HW220513   0.209   2.399   4.658
 6742SOL     OW20514   5.879   2.060   4.973
 6742SOL    HW120515   5.854   2.090   5.065
 6742SOL    HW220516   5.868   1.961   4.966
 6743SOL     OW20517   5.652   3.166   4.998
 6743SOL    HW120518   5.681   3.107   5.074
 6743SOL    HW220519   5.644   3.260   5.030
 6744SOL     OW20520   5.881   1.896   4.397
 6744SOL    HW120521   5.845   1.987   4.418
 6744SOL    HW220522   5.951   1.872   4.464
 6745SOL     OW20523   5.881   2.686   4.719
 6745SOL    HW120524   5.948   2.686   4.644
 6745SOL    HW220525   5.896   2.605   4.776
 6746SOL     OW20526   5.594   3.184   3.905
 6746SOL    HW120527   5.504   3.204   3.866
 6746SOL    HW220528   5.589   3.098   3.955
 6747SOL     OW20529   5.673   3.646   4.664
 6747SOL    HW120530   5.635   3.564   4.620
 6747SOL    HW220531   5.766   3.661   4.631
 6748SOL     OW20532   0.112   3.409   4.615
 6748SOL    HW120533   0.206   3.434   4.595
 6748SOL    HW220534   0.094   3.316   4.580
 6749SOL     OW20535   5.626   2.398   4.836
 6749SOL    HW120536   5.691   2.346   4.780
 6749SOL    HW220537   5.665   2.411   4.928
 6750SOL     OW20538   5.779   2.358   5.454
 6750SOL    HW120539   5.794   2.285   5.387
 6750SOL    HW220540   5.735   2.436   5.409
 6751SOL     OW20541   5.818   3.403   5.443
 6751SOL    HW120542   5.787   3.495   5.467
 6751SOL    HW220543   5.880   3.369   5.513
 6752SOL     OW20544   5.730   2.988   5.205
 6752SOL    HW120545   5.725   2.939   5.292
 6752SOL    HW220546   5.753   2.924   5.131
 6753SOL     OW20547   5.682   3.121   4.735
 6753SOL    HW120548   5.668   3.137   4.833
 6753SOL    HW220549   5.606   3.069   4.698
 6754SOL     OW20550   5.742   3.646   5.555
 6754SOL    HW120551   5.685   3.581   5.606
 6754SOL    HW220552   5.796   3.701   5.619
 6755SOL     OW20553   5.946   3.160   5.239
 6755SOL    HW120554   5.922   3.245   5.287
 6755SOL    HW220555   5.865   3.101   5.235
 6756SOL     OW20556   5.707   2.872   5.451
 6756SOL    HW120557   5.613   2.855   5.482
 6756SOL    HW220558   5.763   2.902   5.528
 6757SOL     OW20559   5.662   2.195   3.778
 6757SOL    HW120560   5.579   2.160   3.735
 6757SOL    HW220561   5.705   2.262   3.717
 6758SOL     OW20562   5.636   2.020   4.015
 6758SOL    HW120563   5.618   2.102   3.962
 6758SOL    HW220564   5.723   1.980   3.986
 6759SOL     OW20565   0.208   2.688   5.171
 6759SOL    HW120566   0.218   2.787   5.165
 6759SOL    HW220567   0.294   2.648   5.202
 6760SOL     OW20568   5.659   3.101   4.397
 6760SOL    HW120569   5.656   3.040   4.477
 6760SOL    HW220570   5.741   3.081   4.344
 6761SOL     OW20571   5.615   2.931   4.042
 6761SOL    HW120572   5.712   2.946   4.021
 6761SOL    HW220573   5.598   2.834   4.057
 6762SOL     OW20574   5.855   2.481   5.697
 6762SOL    HW120575   5.773   2.510   5.747
 6762SOL    HW220576   5.829   2.441   5.610
 6763SOL     OW20577   5.814   3.651   0.010
 6763SOL    HW120578   5.821   3.707   0.093
 6763SOL    HW220579   5.844   3.558   0.030
 6764SOL     OW20580   5.616   3.465   5.706
 6764SOL    HW120581   5.617   3.367   5.724
 6764SOL    HW220582   5.564   3.511   5.778
 6765SOL     OW20583   0.092   3.584   5.859
 6765SOL    HW120584   0.092   3.562   5.956
 6765SOL    HW220585   0.164   3.651   5.840
 6766SOL     OW20586   5.883   1.908   5.757
 6766SOL    HW120587   5.951   1.976   5.784
 6766SOL    HW220588   5.880   1.834   5.824
 6767SOL     OW20589   5.874   1.934   0.249
 6767SOL    HW120590   5.931   2.014   0.272
 6767SOL    HW220591   5.924   1.850   0.271
 6768SOL     OW20592   5.605   3.190   5.754
 6768SOL    HW120593   5.511   3.208   5.723
 6768SOL    HW220594   5.608   3.100   5.797
 6769SOL     OW20595   5.648   2.187   5.638
 6769SOL    HW120596   5.570   2.158   5.583
 6769SOL    HW220597   5.698   2.258   5.589
 6770SOL     OW20598   5.651   2.016   5.856
 6770SOL    HW120599   5.636   2.078   5.779
 6770SOL    HW220600   5.735   1.964   5.842
 6771SOL     OW20601   5.653   2.943   5.880
 6771SOL    HW120602   5.750   2.962   5.894
 6771SOL    HW220603   5.637   2.844   5.889
 6772SOL     OW20604   5.766   4.380   0.109
 6772SOL    HW120605   5.690   4.352   0.167
 6772SOL    HW220606   5.822   4.300   0.086
 6773SOL     OW20607   5.798   4.044   1.015
 6773SOL    HW120608   5.835   4.002   1.098
 6773SOL    HW220609   5.717   3.994   0.985
 6774SOL     OW20610   5.586   4.124   0.629
 6774SOL    HW120611   5.498   4.135   0.676
 6774SOL    HW220612   5.584   4.040   0.575
 6775SOL     OW20613   0.219   4.725   0.656
 6775SOL    HW120614   0.296   4.685   0.607
 6775SOL    HW220615   0.249   4.758   0.745
 6776SOL     OW20616   5.866   5.256   1.065
 6776SOL    HW120617   5.813   5.172   1.049
 6776SOL    HW220618   5.951   5.252   1.014
 6777SOL     OW20619   5.812   5.437   0.480
 6777SOL    HW120620   5.830   5.504   0.552
 6777SOL    HW220621   5.890   5.435   0.416
 6778SOL     OW20622   5.796   5.160   0.505
 6778SOL    HW120623   5.796   5.260   0.506
 6778SOL    HW220624   5.737   5.126   0.579
 6779SOL     OW20625   5.883   4.833   0.915
 6779SOL    HW120626   5.870   4.737   0.939
 6779SOL    HW220627   5.808   4.887   0.951
 6780SOL     OW20628   5.705   4.372   0.588
 6780SOL    HW120629   5.664   4.281   0.603
 6780SOL    HW220630   5.701   4.424   0.674
 6781SOL     OW20631   5.572   5.309   0.123
 6781SOL    HW120632   5.558   5.215   0.155
 6781SOL    HW220633   5.587   5.369   0.202
 6782SOL     OW20634   5.702   4.459   1.583
 6782SOL    HW120635   5.779   4.505   1.627
 6782SOL    HW220636   5.627   4.524   1.571
 6783SOL     OW20637   5.775   4.675   1.268
 6783SOL    HW120638   5.838   4.653   1.194
 6783SOL    HW220639   5.686   4.633   1.250
 6784SOL     OW20640   5.683   4.544   0.802
 6784SOL    HW120641   5.750   4.526   0.874
 6784SOL    HW220642   5.628   4.624   0.828
 6785SOL     OW20643   5.733   5.596   1.586
 6785SOL    HW120644   5.741   5.570   1.683
 6785SOL    HW220645   5.660   5.543   1.543
 6786SOL     OW20646   5.785   4.010   1.517
 6786SOL    HW120647   5.698   4.048   1.487
 6786SOL    HW220648   5.771   3.917   1.551
 6787SOL     OW20649   0.058   5.454   0.304
 6787SOL    HW120650   0.111   5.448   0.388
 6787SOL    HW220651   0.119   5.454   0.225
 6788SOL     OW20652   5.848   5.504   1.234
 6788SOL    HW120653   5.908   5.451   1.295
 6788SOL    HW220654   5.835   5.453   1.149
 6789SOL     OW20655   5.700   4.276   1.379
 6789SOL    HW120656   5.795   4.247   1.370
 6789SOL    HW220657   5.694   4.349   1.448
 6790SOL     OW20658   5.649   5.294   1.345
 6790SOL    HW120659   5.593   5.351   1.285
 6790SOL    HW220660   5.745   5.314   1.330
 6791SOL     OW20661   0.121   4.278   0.884
 6791SOL    HW120662   0.138   4.297   0.787
 6791SOL    HW220663   0.208   4.258   0.930
 6792SOL     OW20664   5.875   3.921   1.249
 6792SOL    HW120665   5.854   3.950   1.343
 6792SOL    HW220666   5.865   3.822   1.242
 6793SOL     OW20667   5.646   5.028   1.275
 6793SOL    HW120668   5.680   4.970   1.348
 6793SOL    HW220669   5.642   5.123   1.306
 6794SOL     OW20670   5.886   3.758   0.669
 6794SOL    HW120671   5.850   3.848   0.694
 6794SOL    HW220672   5.953   3.729   0.736
 6795SOL     OW20673   5.884   4.551   1.001
 6795SOL    HW120674   5.945   4.552   0.922
 6795SOL    HW220675   5.900   4.469   1.055
 6796SOL     OW20676   5.672   5.517   0.946
 6796SOL    HW120677   5.638   5.434   0.901
 6796SOL    HW220678   5.765   5.536   0.915
 6797SOL     OW20679   0.116   5.270   0.893
 6797SOL    HW120680   0.209   5.300   0.872
 6797SOL    HW220681   0.101   5.179   0.856
 6798SOL     OW20682   5.628   4.259   1.111
 6798SOL    HW120683   5.690   4.202   1.057
 6798SOL    HW220684   5.665   4.273   1.202
 6799SOL     OW20685   5.782   4.219   1.724
 6799SOL    HW120686   5.797   4.146   1.657
 6799SOL    HW220687   5.739   4.297   1.678
 6800SOL     OW20688   5.799   5.264   1.711
 6800SOL    HW120689   5.808   5.337   1.780
 6800SOL    HW220690   5.871   5.196   1.725
 6801SOL     OW20691   5.731   4.852   1.478
 6801SOL    HW120692   5.725   4.802   1.564
 6801SOL    HW220693   5.756   4.788   1.405
 6802SOL     OW20694   5.680   4.985   1.011
 6802SOL    HW120695   5.665   5.000   1.109
 6802SOL    HW220696   5.605   4.931   0.974
 6803SOL     OW20697   5.742   5.517   1.846
 6803SOL    HW120698   5.688   5.444   1.889
 6803SOL    HW220699   5.784   5.574   1.917
 6804SOL     OW20700   5.925   5.041   1.564
 6804SOL    HW120701   5.924   5.121   1.505
 6804SOL    HW220702   5.860   4.973   1.530
 6805SOL     OW20703   5.696   4.733   1.724
 6805SOL    HW120704   5.605   4.719   1.764
 6805SOL    HW220705   5.760   4.758   1.796
 6806SOL     OW20706   5.582   4.131   5.988
 6806SOL    HW120707   5.538   4.061   6.044
 6806SOL    HW220708   5.661   4.091   5.940
 6807SOL     OW20709   5.628   3.884   0.340
 6807SOL    HW120710   5.582   3.908   0.255
 6807SOL    HW220711   5.724   3.860   0.321
 6808SOL     OW20712   0.210   4.542   1.463
 6808SOL    HW120713   0.222   4.600   1.383
 6808SOL    HW220714   0.299   4.511   1.496
 6809SOL     OW20715   5.659   4.965   0.674
 6809SOL    HW120716   5.663   4.906   0.755
 6809SOL    HW220717   5.722   4.930   0.604
 6810SOL     OW20718   5.643   4.794   0.300
 6810SOL    HW120719   5.740   4.795   0.275
 6810SOL    HW220720   5.622   4.711   0.351
 6811SOL     OW20721   5.846   4.349   1.964
 6811SOL    HW120722   5.761   4.352   2.017
 6811SOL    HW220723   5.829   4.309   1.875
 6812SOL     OW20724   5.804   4.038   2.872
 6812SOL    HW120725   5.838   3.999   2.958
 6812SOL    HW220726   5.720   3.990   2.845
 6813SOL     OW20727   5.583   4.115   2.490
 6813SOL    HW120728   5.501   4.134   2.543
 6813SOL    HW220729   5.571   4.029   2.439
 6814SOL     OW20730   0.219   4.721   2.518
 6814SOL    HW120731   0.298   4.685   2.468
 6814SOL    HW220732   0.249   4.756   2.607
 6815SOL     OW20733   5.867   5.254   2.925
 6815SOL    HW120734   5.816   5.170   2.908
 6815SOL    HW220735   5.954   5.251   2.874
 6816SOL     OW20736   5.807   5.444   2.340
 6816SOL    HW120737   5.825   5.506   2.416
 6816SOL    HW220738   5.881   5.451   2.273
 6817SOL     OW20739   5.803   5.169   2.394
 6817SOL    HW120740   5.803   5.267   2.375
 6817SOL    HW220741   5.731   5.148   2.461
 6818SOL     OW20742   5.881   4.831   2.778
 6818SOL    HW120743   5.868   4.735   2.802
 6818SOL    HW220744   5.806   4.885   2.815
 6819SOL     OW20745   5.676   4.378   2.440
 6819SOL    HW120746   5.650   4.283   2.458
 6819SOL    HW220747   5.683   4.426   2.527
 6820SOL     OW20748   5.629   5.317   1.986
 6820SOL    HW120749   5.622   5.219   2.002
 6820SOL    HW220750   5.601   5.366   2.068
 6821SOL     OW20751   5.702   4.460   3.445
 6821SOL    HW120752   5.779   4.505   3.490
 6821SOL    HW220753   5.627   4.525   3.434
 6822SOL     OW20754   5.776   4.676   3.131
 6822SOL    HW120755   5.841   4.657   3.057
 6822SOL    HW220756   5.688   4.634   3.111
 6823SOL     OW20757   5.677   4.543   2.663
 6823SOL    HW120758   5.746   4.526   2.732
 6823SOL    HW220759   5.625   4.625   2.687
 6824SOL     OW20760   5.733   5.596   3.449
 6824SOL    HW120761   5.741   5.570   3.545
 6824SOL    HW220762   5.658   5.546   3.406
 6825SOL     OW20763   5.786   4.009   3.377
 6825SOL    HW120764   5.698   4.049   3.352
 6825SOL    HW220765   5.772   3.916   3.411
 6826SOL     OW20766   0.053   5.482   2.177
 6826SOL    HW120767   0.098   5.455   2.262
 6826SOL    HW220768   0.120   5.519   2.113
 6827SOL     OW20769   5.847   5.501   3.099
 6827SOL    HW120770   5.912   5.448   3.153
 6827SOL    HW220771   5.833   5.455   3.010
 6828SOL     OW20772   5.868   3.786   2.053
 6828SOL    HW120773   5.925   3.867   2.042
 6828SOL    HW220774   5.918   3.717   2.105
 6829SOL     OW20775   5.699   4.276   3.242
 6829SOL    HW120776   5.794   4.248   3.232
 6829SOL    HW220777   5.693   4.349   3.311
 6830SOL     OW20778   5.649   5.295   3.207
 6830SOL    HW120779   5.592   5.351   3.147
 6830SOL    HW220780   5.745   5.322   3.196
 6831SOL     OW20781   0.122   4.273   2.747
 6831SOL    HW120782   0.137   4.299   2.652
 6831SOL    HW220783   0.210   4.261   2.792
 6832SOL     OW20784   5.877   3.922   3.112
 6832SOL    HW120785   5.854   3.952   3.204
 6832SOL    HW220786   5.866   3.823   3.105
 6833SOL     OW20787   5.643   5.029   3.137
 6833SOL    HW120788   5.679   4.971   3.210
 6833SOL    HW220789   5.643   5.124   3.166
 6834SOL     OW20790   5.879   3.753   2.540
 6834SOL    HW120791   5.855   3.850   2.548
 6834SOL    HW220792   5.950   3.731   2.606
 6835SOL     OW20793   5.880   4.550   2.861
 6835SOL    HW120794   5.944   4.551   2.784
 6835SOL    HW220795   5.896   4.468   2.916
 6836SOL     OW20796   5.592   5.047   2.047
 6836SOL    HW120797   5.503   5.068   2.008
 6836SOL    HW220798   5.588   4.960   2.096
 6837SOL     OW20799   5.672   5.517   2.807
 6837SOL    HW120800   5.640   5.434   2.761
 6837SOL    HW220801   5.763   5.540   2.772
 6838SOL     OW20802   0.117   5.270   2.754
 6838SOL    HW120803   0.210   5.301   2.732
 6838SOL    HW220804   0.101   5.181   2.712
 6839SOL     OW20805   5.627   4.259   2.973
 6839SOL    HW120806   5.692   4.206   2.918
 6839SOL    HW220807   5.665   4.273   3.064
 6840SOL     OW20808   5.781   4.220   3.585
 6840SOL    HW120809   5.799   4.149   3.518
 6840SOL    HW220810   5.739   4.299   3.540
 6841SOL     OW20811   5.804   5.265   3.572
 6841SOL    HW120812   5.800   5.346   3.631
 6841SOL    HW220813   5.875   5.203   3.606
 6842SOL     OW20814   5.729   4.852   3.340
 6842SOL    HW120815   5.724   4.803   3.427
 6842SOL    HW220816   5.755   4.789   3.267
 6843SOL     OW20817   5.679   4.981   2.874
 6843SOL    HW120818   5.663   4.999   2.971
 6843SOL    HW220819   5.603   4.929   2.836
 6844SOL     OW20820   5.744   5.511   3.706
 6844SOL    HW120821   5.688   5.441   3.752
 6844SOL    HW220822   5.785   5.571   3.775
 6845SOL     OW20823   5.933   5.034   3.417
 6845SOL    HW120824   5.915   5.126   3.382
 6845SOL    HW220825   5.861   4.972   3.387
 6846SOL     OW20826   5.695   4.733   3.586
 6846SOL    HW120827   5.604   4.719   3.626
 6846SOL    HW220828   5.759   4.761   3.658
 6847SOL     OW20829   5.655   4.059   1.917
 6847SOL    HW120830   5.578   4.019   1.868
 6847SOL    HW220831   5.701   4.125   1.859
 6848SOL     OW20832   5.636   3.884   2.152
 6848SOL    HW120833   5.616   3.963   2.095
 6848SOL    HW220834   5.723   3.844   2.126
 6849SOL     OW20835   0.213   4.546   3.325
 6849SOL    HW120836   0.231   4.614   3.254
 6849SOL    HW220837   0.300   4.511   3.360
 6850SOL     OW20838   5.657   4.961   2.532
 6850SOL    HW120839   5.672   4.904   2.613
 6850SOL    HW220840   5.737   4.957   2.472
 6851SOL     OW20841   5.613   4.794   2.181
 6851SOL    HW120842   5.709   4.808   2.156
 6851SOL    HW220843   5.598   4.696   2.196
 6852SOL     OW20844   5.846   4.349   3.826
 6852SOL    HW120845   5.763   4.353   3.881
 6852SOL    HW220846   5.826   4.309   3.737
 6853SOL     OW20847   5.809   4.033   4.731
 6853SOL    HW120848   5.841   3.996   4.818
 6853SOL    HW220849   5.723   3.989   4.706
 6854SOL     OW20850   5.576   4.118   4.352
 6854SOL    HW120851   5.494   4.140   4.403
 6854SOL    HW220852   5.563   4.030   4.305
 6855SOL     OW20853   0.219   4.724   4.382
 6855SOL    HW120854   0.296   4.680   4.336
 6855SOL    HW220855   0.247   4.754   4.473
 6856SOL     OW20856   5.871   5.246   4.791
 6856SOL    HW120857   5.815   5.167   4.765
 6856SOL    HW220858   5.953   5.249   4.733
 6857SOL     OW20859   5.806   5.443   4.202
 6857SOL    HW120860   5.824   5.506   4.278
 6857SOL    HW220861   5.880   5.450   4.135
 6858SOL     OW20862   5.803   5.168   4.252
 6858SOL    HW120863   5.802   5.267   4.237
 6858SOL    HW220864   5.732   5.143   4.318
 6859SOL     OW20865   5.884   4.831   4.640
 6859SOL    HW120866   5.872   4.735   4.665
 6859SOL    HW220867   5.807   4.884   4.676
 6860SOL     OW20868   5.676   4.378   4.302
 6860SOL    HW120869   5.647   4.284   4.320
 6860SOL    HW220870   5.684   4.427   4.389
 6861SOL     OW20871   5.625   5.316   3.847
 6861SOL    HW120872   5.620   5.218   3.864
 6861SOL    HW220873   5.600   5.366   3.930
 6862SOL     OW20874   5.699   4.460   5.308
 6862SOL    HW120875   5.772   4.509   5.355
 6862SOL    HW220876   5.622   4.523   5.292
 6863SOL     OW20877   5.777   4.677   4.994
 6863SOL    HW120878   5.842   4.658   4.920
 6863SOL    HW220879   5.689   4.635   4.974
 6864SOL     OW20880   5.678   4.546   4.523
 6864SOL    HW120881   5.748   4.528   4.593
 6864SOL    HW220882   5.626   4.627   4.549
 6865SOL     OW20883   5.730   5.595   5.303
 6865SOL    HW120884   5.735   5.568   5.399
 6865SOL    HW220885   5.651   5.552   5.260
 6866SOL     OW20886   5.785   4.010   5.241
 6866SOL    HW120887   5.698   4.050   5.214
 6866SOL    HW220888   5.771   3.916   5.273
 6867SOL     OW20889   0.053   5.481   4.038
 6867SOL    HW120890   0.098   5.454   4.123
 6867SOL    HW220891   0.121   5.520   3.976
 6868SOL     OW20892   5.848   5.500   4.962
 6868SOL    HW120893   5.916   5.446   5.012
 6868SOL    HW220894   5.832   5.457   4.873
 6869SOL     OW20895   5.869   3.784   3.909
 6869SOL    HW120896   5.925   3.867   3.913
 6869SOL    HW220897   5.914   3.712   3.962
 6870SOL     OW20898   5.699   4.276   5.105
 6870SOL    HW120899   5.794   4.247   5.096
 6870SOL    HW220900   5.692   4.348   5.174
 6871SOL     OW20901   5.651   5.296   5.070
 6871SOL    HW120902   5.593   5.352   5.010
 6871SOL    HW220903   5.746   5.322   5.058
 6872SOL     OW20904   0.120   4.267   4.612
 6872SOL    HW120905   0.131   4.304   4.520
 6872SOL    HW220906   0.209   4.261   4.657
 6873SOL     OW20907   5.878   3.921   4.974
 6873SOL    HW120908   5.854   3.952   5.066
 6873SOL    HW220909   5.867   3.822   4.967
 6874SOL     OW20910   5.647   5.029   4.999
 6874SOL    HW120911   5.680   4.972   5.073
 6874SOL    HW220912   5.646   5.125   5.028
 6875SOL     OW20913   5.880   3.757   4.398
 6875SOL    HW120914   5.847   3.849   4.416
 6875SOL    HW220915   5.950   3.733   4.465
 6876SOL     OW20916   5.880   4.548   4.719
 6876SOL    HW120917   5.947   4.549   4.645
 6876SOL    HW220918   5.896   4.467   4.776
 6877SOL     OW20919   5.593   5.046   3.906
 6877SOL    HW120920   5.503   5.067   3.867
 6877SOL    HW220921   5.589   4.959   3.955
 6878SOL     OW20922   5.672   5.516   4.669
 6878SOL    HW120923   5.640   5.433   4.623
 6878SOL    HW220924   5.763   5.540   4.634
 6879SOL     OW20925   0.117   5.271   4.616
 6879SOL    HW120926   0.209   5.303   4.594
 6879SOL    HW220927   0.103   5.180   4.577
 6880SOL     OW20928   5.626   4.260   4.836
 6880SOL    HW120929   5.691   4.209   4.780
 6880SOL    HW220930   5.664   4.273   4.928
 6881SOL     OW20931   5.779   4.220   5.454
 6881SOL    HW120932   5.795   4.148   5.387
 6881SOL    HW220933   5.736   4.299   5.409
 6882SOL     OW20934   5.817   5.262   5.443
 6882SOL    HW120935   5.785   5.353   5.468
 6882SOL    HW220936   5.880   5.228   5.513
 6883SOL     OW20937   5.730   4.852   5.204
 6883SOL    HW120938   5.725   4.802   5.291
 6883SOL    HW220939   5.752   4.788   5.131
 6884SOL     OW20940   5.681   4.982   4.736
 6884SOL    HW120941   5.665   4.999   4.833
 6884SOL    HW220942   5.604   4.930   4.698
 6885SOL     OW20943   5.735   5.503   5.554
 6885SOL    HW120944   5.678   5.437   5.604
 6885SOL    HW220945   5.788   5.557   5.620
 6886SOL     OW20946   5.947   5.022   5.239
 6886SOL    HW120947   5.924   5.108   5.283
 6886SOL    HW220948   5.866   4.963   5.235
 6887SOL     OW20949   5.707   4.734   5.450
 6887SOL    HW120950   5.614   4.718   5.482
 6887SOL    HW220951   5.764   4.764   5.526
 6888SOL     OW20952   5.660   4.057   3.777
 6888SOL    HW120953   5.577   4.023   3.734
 6888SOL    HW220954   5.705   4.124   3.718
 6889SOL     OW20955   5.636   3.881   4.015
 6889SOL    HW120956   5.618   3.964   3.962
 6889SOL    HW220957   5.723   3.842   3.986
 6890SOL     OW20958   0.208   4.548   5.174
 6890SOL    HW120959   0.218   4.648   5.166
 6890SOL    HW220960   0.294   4.509   5.204
 6891SOL     OW20961   5.659   4.962   4.396
 6891SOL    HW120962   5.664   4.903   4.477
 6891SOL    HW220963   5.742   4.952   4.342
 6892SOL     OW20964   5.614   4.793   4.041
 6892SOL    HW120965   5.712   4.809   4.024
 6892SOL    HW220966   5.598   4.696   4.056
 6893SOL     OW20967   5.855   4.343   5.698
 6893SOL    HW120968   5.773   4.371   5.747
 6893SOL    HW220969   5.829   4.303   5.609
 6894SOL     OW20970   5.812   5.509   0.011
 6894SOL    HW120971   5.823   5.568   0.091
 6894SOL    HW220972   5.847   5.418   0.032
 6895SOL     OW20973   5.611   5.322   5.704
 6895SOL    HW120974   5.615   5.224   5.724
 6895SOL    HW220975   5.564   5.370   5.778
 6896SOL     OW20976   0.091   5.447   5.860
 6896SOL    HW120977   0.092   5.420   5.957
 6896SOL    HW220978   0.164   5.512   5.843
 6897SOL     OW20979   5.882   3.770   5.758
 6897SOL    HW120980   5.951   3.837   5.785
 6897SOL    HW220981   5.881   3.695   5.824
 6898SOL     OW20982   5.874   3.796   0.249
 6898SOL    HW120983   5.932   3.874   0.273
 6898SOL    HW220984   5.922   3.711   0.273
 6899SOL     OW20985   5.604   5.050   5.756
 6899SOL    HW120986   5.511   5.068   5.725
 6899SOL    HW220987   5.608   4.960   5.799
 6900SOL     OW20988   5.648   4.050   5.638
 6900SOL    HW120989   5.570   4.020   5.583
 6900SOL    HW220990   5.699   4.120   5.589
 6901SOL     OW20991   5.652   3.879   5.857
 6901SOL    HW120992   5.637   3.941   5.780
 6901SOL    HW220993   5.735   3.826   5.842
 6902SOL     OW20994   5.654   4.804   5.880
 6902SOL    HW120995   5.752   4.821   5.887
 6902SOL    HW220996   5.637   4.706   5.891
 6903SOL     OW20997   5.841   0.263   0.100
 6903SOL    HW120998   5.765   0.326   0.113
 6903SOL    HW220999   5.819   0.198   0.028
 6904SOL     OW21000   5.825   5.850   0.973
 6904SOL    HW121001   5.857   5.846   1.067
 6904SOL    HW221002   5.727   5.830   0.970
 6905SOL     OW21003   5.568   5.940   0.668
 6905SOL    HW121004   5.475   5.960   0.699
 6905SOL    HW221005   5.566   5.864   0.603
 6906SOL     OW21006   5.767   5.850   1.501
 6906SOL    HW121007   5.684   5.893   1.536
 6906SOL    HW221008   5.773   5.756   1.534
 6907SOL     OW21009   5.863   5.788   1.246
 6907SOL    HW121010   5.834   5.817   1.337
 6907SOL    HW221011   5.861   5.689   1.239
 6908SOL     OW21012   5.892   5.626   0.662
 6908SOL    HW121013   5.858   5.717   0.687
 6908SOL    HW221014   5.950   5.592   0.736
 6909SOL     OW21015   5.636   5.915   0.085
 6909SOL    HW121016   5.634   5.837   0.022
 6909SOL    HW221017   5.689   5.989   0.044
 6910SOL     OW21018   5.632   5.751   0.320
 6910SOL    HW121019   5.609   5.821   0.253
 6910SOL    HW221020   5.726   5.721   0.306
 6911SOL     OW21021   5.837   0.214   1.947
 6911SOL    HW121022   5.761   0.278   1.955
 6911SOL    HW221023   5.833   0.169   1.857
 6912SOL     OW21024   5.821   5.859   2.840
 6912SOL    HW121025   5.854   5.849   2.934
 6912SOL    HW221026   5.724   5.833   2.835
 6913SOL     OW21027   5.563   5.933   2.527
 6913SOL    HW121028   5.473   5.965   2.557
 6913SOL    HW221029   5.552   5.853   2.468
 6914SOL     OW21030   5.767   5.850   3.363
 6914SOL    HW121031   5.684   5.893   3.400
 6914SOL    HW221032   5.773   5.756   3.397
 6915SOL     OW21033   5.863   5.653   2.056
 6915SOL    HW121034   5.906   5.742   2.045
 6915SOL    HW221035   5.926   5.592   2.105
 6916SOL     OW21036   5.860   5.786   3.108
 6916SOL    HW121037   5.833   5.816   3.200
 6916SOL    HW221038   5.859   5.687   3.104
 6917SOL     OW21039   5.891   5.622   2.529
 6917SOL    HW121040   5.886   5.721   2.533
 6917SOL    HW221041   5.947   5.588   2.604
 6918SOL     OW21042   5.599   5.891   1.913
 6918SOL    HW121043   5.583   5.895   1.814
 6918SOL    HW221044   5.689   5.931   1.933
 6919SOL     OW21045   5.622   5.741   2.146
 6919SOL    HW121046   5.595   5.807   2.076
 6919SOL    HW221047   5.714   5.708   2.128
 6920SOL     OW21048   5.838   0.214   3.810
 6920SOL    HW121049   5.761   0.278   3.818
 6920SOL    HW221050   5.833   0.168   3.721
 6921SOL     OW21051   5.822   5.855   4.700
 6921SOL    HW121052   5.855   5.848   4.794
 6921SOL    HW221053   5.725   5.831   4.696
 6922SOL     OW21054   5.562   5.932   4.387
 6922SOL    HW121055   5.473   5.965   4.418
 6922SOL    HW221056   5.550   5.853   4.328
 6923SOL     OW21057   5.764   5.850   5.225
 6923SOL    HW121058   5.682   5.893   5.264
 6923SOL    HW221059   5.770   5.756   5.256
 6924SOL     OW21060   5.864   5.652   3.916
 6924SOL    HW121061   5.906   5.742   3.906
 6924SOL    HW221062   5.926   5.591   3.966
 6925SOL     OW21063   5.859   5.787   4.970
 6925SOL    HW121064   5.833   5.817   5.062
 6925SOL    HW221065   5.860   5.687   4.967
 6926SOL     OW21066   5.889   5.622   4.390
 6926SOL    HW121067   5.879   5.721   4.398
 6926SOL    HW221068   5.947   5.588   4.465
 6927SOL     OW21069   5.600   5.888   3.774
 6927SOL    HW121070   5.584   5.895   3.675
 6927SOL    HW221071   5.688   5.931   3.796
 6928SOL     OW21072   5.622   5.740   4.008
 6928SOL    HW121073   5.595   5.806   3.938
 6928SOL    HW221074   5.715   5.707   3.990
 6929SOL     OW21075   5.859   0.234   5.620
 6929SOL    HW121076   5.774   0.284   5.630
 6929SOL    HW221077   5.840   0.137   5.607
 6930SOL     OW21078   5.863   5.626   5.760
 6930SOL    HW121079   5.947   5.680   5.767
 6930SOL    HW221080   5.858   5.560   5.835
 6931SOL     OW21081   5.881   5.662   0.239
 6931SOL    HW121082   5.932   5.747   0.246
 6931SOL    HW221083   5.937   5.585   0.270
 6932SOL     OW21084   5.601   5.927   5.649
 6932SOL    HW121085   5.561   5.908   5.560
 6932SOL    HW221086   5.700   5.933   5.641
 6933SOL     OW21087   5.638   5.745   5.861
 6933SOL    HW121088   5.609   5.808   5.789
 6933SOL    HW221089   5.722   5.699   5.834
 6934CL      CL21090   0.436   3.442   0.899
 6935CL      CL21091   4.335   0.751   0.183
   5.99195   5.99195   5.99195
