Protein in water
21091
    1MET      N    1   2.789   3.793   3.450  0.1977 -0.0549  0.1136
    1MET     H1    2   2.733   3.791   3.534  0.9361  0.4614  0.6295
    1MET     H2    3   2.778   3.882   3.405  0.5317 -0.3388 -0.5435
    1MET     H3    4   2.757   3.716   3.393  0.0980 -2.1690  2.8154
    1MET     CA    5   2.920   3.779   3.490 -0.5305  1.2593 -0.1223
    1MET     HA    6   2.952   3.850   3.566 -1.3368  3.2896 -1.6043
    1MET     CB    7   2.928   3.637   3.554  0.2110 -0.0927 -0.5963
    1MET    HB1    8   2.900   3.561   3.481 -1.2157  0.9742 -1.2036
    1MET    HB2    9   2.847   3.621   3.625 -0.4019  1.5905 -0.8666
    1MET     CG   10   3.058   3.600   3.626 -0.0742 -0.2090 -0.5730
    1MET    HG1   11   3.079   3.660   3.714  0.2724  0.0062 -0.7997
    1MET    HG2   12   3.133   3.610   3.547 -0.1398  1.1332 -0.4906
    1MET     SD   13   3.080   3.432   3.661 -0.1626 -0.5426 -0.0496
    1MET     CE   14   2.981   3.402   3.809  0.6046 -0.0932 -0.1603
    1MET    HE1   15   2.890   3.460   3.800  1.6987  2.4762  3.1609
    1MET    HE2   16   2.966   3.294   3.822  3.3976 -0.6146 -0.4097
    1MET    HE3   17   3.037   3.428   3.899  1.5675 -1.1950 -0.4105
    1MET      C   18   3.024   3.780   3.374  0.3024  0.7513 -0.3895
    1MET      O   19   2.998   3.710   3.279 -0.0312  0.1110  0.4303
    2LYS      N   20   3.125   3.861   3.390  0.4312  0.5780  0.2651
    2LYS      H   21   3.123   3.923   3.470 -0.8493  1.3558 -0.3343
    2LYS     CA   22   3.222   3.896   3.279  0.4401  0.0441  0.3294
    2LYS     HA   23   3.169   3.891   3.184 -0.1014  1.3225  0.5438
    2LYS     CB   24   3.272   4.042   3.292 -0.1157  0.8122  1.0903
    2LYS    HB1   25   3.192   4.113   3.313 -0.4177  0.5363  0.8890
    2LYS    HB2   26   3.317   4.066   3.196 -1.1600 -1.6271 -0.0737
    2LYS     CG   27   3.375   4.054   3.411  0.6787  0.5158 -0.0255
    2LYS    HG1   28   3.466   3.995   3.396  1.0888  1.2118 -0.3252
    2LYS    HG2   29   3.324   4.015   3.499  2.1337  0.1429  0.6809
    2LYS     CD   30   3.417   4.201   3.445 -0.3251 -0.3897 -0.3554
    2LYS    HD1   31   3.450   4.259   3.358  1.7972  0.5599  1.0004
    2LYS    HD2   32   3.507   4.201   3.506  0.1052 -1.0305 -0.9806
    2LYS     CE   33   3.294   4.284   3.494 -0.6763  0.2634  0.0221
    2LYS    HE1   34   3.243   4.220   3.566 -1.1826 -0.8433 -1.2764
    2LYS    HE2   35   3.230   4.287   3.406 -1.3664  0.4506  0.5279
    2LYS     NZ   36   3.319   4.418   3.557 -0.0239  0.2622  0.7537
    2LYS    HZ1   37   3.234   4.457   3.593  0.2173  1.0753  0.4679
    2LYS    HZ2   38   3.382   4.402   3.635 -1.1879 -3.2681  1.1618
    2LYS    HZ3   39   3.367   4.481   3.494  1.1920 -1.4600 -0.1431
    2LYS      C   40   3.336   3.790   3.262  0.4262 -0.3109 -0.3786
    2LYS      O   41   3.352   3.704   3.352  0.1466 -0.6354 -0.8674
    3LEU      N   42   3.397   3.775   3.148  0.1038 -0.2281  0.2954
    3LEU      H   43   3.379   3.843   3.076  0.3921 -1.8338 -1.3906
    3LEU     CA   44   3.481   3.658   3.109 -0.3017 -0.9483 -0.3490
    3LEU     HA   45   3.417   3.571   3.093  0.5566 -1.4296 -1.2737
    3LEU     CB   46   3.555   3.692   2.977  0.4409  0.0859 -0.3627
    3LEU    HB1   47   3.610   3.785   2.993 -0.4393  0.4405  0.7196
    3LEU    HB2   48   3.471   3.714   2.912 -1.4051 -1.0284  1.5405
    3LEU     CG   49   3.639   3.588   2.906  0.3326 -0.0693  0.4103
    3LEU     HG   50   3.720   3.563   2.974  0.1167 -0.9743  0.3498
    3LEU    CD1   51   3.567   3.459   2.885  0.2214  0.4916  0.0112
    3LEU   HD11   52   3.543   3.415   2.982 -1.6332 -0.5727 -0.8739
    3LEU   HD12   53   3.484   3.485   2.819 -0.2235  0.3466  0.5056
    3LEU   HD13   54   3.622   3.382   2.832 -0.2348  0.7236 -0.8220
    3LEU    CD2   55   3.697   3.644   2.780 -0.2129  0.1153 -0.9377
    3LEU   HD21   56   3.764   3.570   2.736  0.9814  1.5374 -1.6035
    3LEU   HD22   57   3.608   3.657   2.719 -1.1810 -3.3072 -0.4453
    3LEU   HD23   58   3.751   3.737   2.800  0.5634 -0.6264  0.6037
    3LEU      C   59   3.586   3.613   3.211 -0.4561  0.5072  0.2865
    3LEU      O   60   3.606   3.490   3.234 -0.5931 -0.1365 -0.0015
    4ALA      N   61   3.660   3.706   3.270  0.2850  0.1457  0.3825
    4ALA      H   62   3.649   3.802   3.243  0.9265 -0.5506 -2.6945
    4ALA     CA   63   3.766   3.683   3.368  0.1587  0.6326 -0.1097
    4ALA     HA   64   3.831   3.600   3.339  0.2708  0.8849 -0.5998
    4ALA     CB   65   3.842   3.816   3.381 -0.4538  0.0296  0.5672
    4ALA    HB1   66   3.891   3.838   3.286  0.0224 -1.3769  0.4642
    4ALA    HB2   67   3.777   3.896   3.415 -2.2497 -0.8141 -0.7465
    4ALA    HB3   68   3.918   3.794   3.456 -1.4326 -0.4272  1.4498
    4ALA      C   69   3.707   3.636   3.504 -0.2056  0.0268 -0.1806
    4ALA      O   70   3.779   3.569   3.578  0.2605  0.3931 -0.0717
    5VAL      N   71   3.577   3.660   3.529  0.0540 -0.1518  0.0525
    5VAL      H   72   3.523   3.723   3.472 -1.4481  0.5336  2.1185
    5VAL     CA   73   3.508   3.605   3.648 -0.0314 -0.4300 -0.8829
    5VAL     HA   74   3.590   3.591   3.717  0.5791  2.0645 -0.9916
    5VAL     CB   75   3.405   3.709   3.707  0.2185  0.1290  0.1567
    5VAL     HB   76   3.332   3.702   3.625  0.4592 -2.0619  0.0715
    5VAL    CG1   77   3.355   3.655   3.844 -0.4023 -0.6897 -0.9288
    5VAL   HG11   78   3.301   3.562   3.830  2.1572 -2.8095  1.9921
    5VAL   HG12   79   3.445   3.627   3.899 -0.3135 -0.8389 -1.1509
    5VAL   HG13   80   3.308   3.736   3.900 -0.6651 -1.5919  0.2006
    5VAL    CG2   81   3.462   3.849   3.717  0.2171 -0.1487 -0.2637
    5VAL   HG21   82   3.526   3.852   3.805  0.6950 -0.9897 -0.5626
    5VAL   HG22   83   3.518   3.879   3.628 -1.2251  0.0117 -1.1480
    5VAL   HG23   84   3.372   3.909   3.731 -0.8374 -0.8251 -3.2947
    5VAL      C   85   3.445   3.465   3.627  0.2617  0.0343 -0.3475
    5VAL      O   86   3.437   3.377   3.715  0.5910 -0.7719 -0.5697
    6ASP      N   87   3.402   3.442   3.503 -0.0460  0.3860  0.0081
    6ASP      H   88   3.397   3.522   3.441  1.3523  0.2194 -0.3595
    6ASP     CA   89   3.370   3.306   3.460 -0.8240 -0.3352 -0.1421
    6ASP     HA   90   3.307   3.256   3.534  1.6700 -0.5033  1.9935
    6ASP     CB   91   3.289   3.323   3.333 -0.1407 -0.0391  0.6258
    6ASP    HB1   92   3.352   3.365   3.255 -2.0547  2.2756  0.2340
    6ASP    HB2   93   3.200   3.383   3.354  0.5900  0.5163  2.2635
    6ASP     CG   94   3.242   3.186   3.290  0.0389 -0.2625 -0.2516
    6ASP    OD1   95   3.293   3.143   3.186 -0.0090  0.0409 -0.0310
    6ASP    OD2   96   3.154   3.120   3.349  0.6009 -0.2084 -0.0361
    6ASP      C   97   3.497   3.220   3.465  1.0356 -0.3459  0.0922
    6ASP      O   98   3.497   3.111   3.516  0.1804  0.2632  1.5646
    7ALA      N   99   3.614   3.278   3.425 -0.6159  0.1334  0.2727
    7ALA      H  100   3.610   3.367   3.379  0.0889 -1.3598 -2.9456
    7ALA     CA  101   3.744   3.210   3.434  0.0758  0.5592  0.2004
    7ALA     HA  102   3.738   3.115   3.381  0.3303  0.6944 -0.0746
    7ALA     CB  103   3.852   3.302   3.371 -0.0897  0.0563  0.0069
    7ALA    HB1  104   3.948   3.251   3.371 -0.0385 -0.2170 -4.4235
    7ALA    HB2  105   3.823   3.328   3.269 -0.3307  0.4182  0.1624
    7ALA    HB3  106   3.867   3.390   3.435  1.4671 -0.4376  0.3536
    7ALA      C  107   3.765   3.173   3.583  0.2805  0.6517 -0.1150
    7ALA      O  108   3.794   3.057   3.606 -0.2710 -0.1475  0.3465
    8LEU      N  109   3.738   3.270   3.677 -0.1702 -0.1351  0.8266
    8LEU      H  110   3.723   3.364   3.644  2.5284  0.2390  0.4013
    8LEU     CA  111   3.733   3.233   3.820 -0.1721 -0.3634 -0.0694
    8LEU     HA  112   3.828   3.186   3.845 -0.4858  0.7899  3.9529
    8LEU     CB  113   3.741   3.361   3.909  0.0244  0.4137 -0.1030
    8LEU    HB1  114   3.754   3.315   4.007 -1.3516  0.7924  0.2756
    8LEU    HB2  115   3.643   3.407   3.900 -0.6363 -0.8713  0.1715
    8LEU     CG  116   3.861   3.457   3.903  0.0904 -0.2647  1.3849
    8LEU     HG  117   3.895   3.463   3.800  0.3132 -0.6826  1.4325
    8LEU    CD1  118   3.833   3.597   3.962  0.5811 -0.1568 -0.6012
    8LEU   HD11  119   3.921   3.657   3.942 -0.1339  0.5877 -1.6545
    8LEU   HD12  120   3.740   3.636   3.920 -0.8208 -3.9608 -1.4888
    8LEU   HD13  121   3.819   3.588   4.069  0.9004  3.2462 -0.1852
    8LEU    CD2  122   3.979   3.400   3.984 -0.1030 -0.0642  1.0114
    8LEU   HD21  123   3.960   3.411   4.091 -0.4789 -1.1203  1.0664
    8LEU   HD22  124   3.990   3.296   3.953  2.6725  0.9563 -1.9986
    8LEU   HD23  125   4.070   3.458   3.967  0.3920 -1.2338 -0.5837
    8LEU      C  126   3.638   3.126   3.858 -0.4441  0.3092 -0.4831
    8LEU      O  127   3.681   3.040   3.936  0.1679 -0.3483  0.7468
    9LEU      N  128   3.510   3.126   3.822  0.5975  0.1352 -0.0533
    9LEU      H  129   3.493   3.194   3.749  2.5765  0.1359 -0.5686
    9LEU     CA  130   3.410   3.022   3.855 -0.6575  0.1874  0.3255
    9LEU     HA  131   3.398   3.014   3.963  1.6028 -1.7016  0.5273
    9LEU     CB  132   3.283   3.066   3.797 -0.0427  0.1044 -0.0587
    9LEU    HB1  133   3.296   3.096   3.694  1.6441 -1.7014 -0.4266
    9LEU    HB2  134   3.249   3.150   3.858  0.8171  0.9514 -0.7300
    9LEU     CG  135   3.167   2.960   3.793 -0.3871 -0.2582  0.4852
    9LEU     HG  136   3.188   2.877   3.725 -0.3260  0.8836 -0.9317
    9LEU    CD1  137   3.126   2.913   3.934 -0.3569 -0.6371  0.0571
    9LEU   HD11  138   3.031   2.861   3.943 -1.0739  0.9766  3.1487
    9LEU   HD12  139   3.207   2.844   3.961  0.1578  0.3633  1.2006
    9LEU   HD13  140   3.118   2.996   4.005  0.6190  0.2792 -0.8680
    9LEU    CD2  141   3.034   3.025   3.741  0.1812 -0.1606  0.5498
    9LEU   HD21  142   3.045   3.060   3.638 -1.4276 -2.6183 -0.5730
    9LEU   HD22  143   2.952   2.952   3.742  1.1700 -1.3717  3.3123
    9LEU   HD23  144   2.996   3.104   3.805  1.6725  1.4452 -0.4556
    9LEU      C  145   3.447   2.887   3.789  0.1174 -0.7826 -0.6432
    9LEU      O  146   3.411   2.788   3.848 -0.3651 -0.1206  0.0871
   10ARG      N  147   3.522   2.886   3.677  0.0031  0.5244  0.6281
   10ARG      H  148   3.531   2.977   3.635 -1.1380  0.7571  0.8639
   10ARG     CA  149   3.573   2.769   3.614  0.0856  0.1377 -0.0021
   10ARG     HA  150   3.500   2.688   3.608  1.9254 -1.5455 -0.8227
   10ARG     CB  151   3.619   2.809   3.471  0.0329 -0.2423 -0.6186
   10ARG    HB1  152   3.688   2.729   3.443 -0.2658 -0.8951  0.4184
   10ARG    HB2  153   3.665   2.908   3.472  0.2285 -0.3011  1.5327
   10ARG     CG  154   3.500   2.798   3.371  0.1896 -0.5936  0.8167
   10ARG    HG1  155   3.424   2.869   3.403 -0.2303 -0.8494  0.3969
   10ARG    HG2  156   3.448   2.703   3.373 -0.1055 -0.4675 -0.1717
   10ARG     CD  157   3.551   2.835   3.233  0.5913 -0.5015 -0.0316
   10ARG    HD1  158   3.502   2.768   3.162  2.0581 -2.6006  0.8362
   10ARG    HD2  159   3.657   2.812   3.230  0.7049 -0.4445  1.8863
   10ARG     NE  160   3.524   2.972   3.184 -0.0831 -0.5709  0.5243
   10ARG     HE  161   3.432   3.011   3.196  0.1078  0.9123 -2.1432
   10ARG     CZ  162   3.608   3.059   3.135 -0.1259  0.9200  0.3068
   10ARG    NH1  163   3.739   3.034   3.128  0.7106  0.4756 -0.5790
   10ARG   HH11  164   3.779   2.945   3.152 -0.8290 -0.5204 -1.5722
   10ARG   HH12  165   3.784   3.116   3.090 -1.1360  2.4517  1.2167
   10ARG    NH2  166   3.560   3.167   3.083  0.6497 -0.4358 -0.2847
   10ARG   HH21  167   3.461   3.188   3.089  0.6340 -0.3274 -0.9307
   10ARG   HH22  168   3.621   3.242   3.054 -0.0896  0.0265 -0.6664
   10ARG      C  169   3.690   2.704   3.692 -1.1245 -0.1211  0.5479
   10ARG      O  170   3.693   2.582   3.720 -0.5205  0.2846  0.3654
   11THR      N  171   3.788   2.785   3.735  0.1849 -1.0671  0.1607
   11THR      H  172   3.781   2.882   3.708  0.1365 -1.4574 -1.3422
   11THR     CA  173   3.885   2.750   3.842 -0.6371 -0.3041 -0.3973
   11THR     HA  174   3.951   2.669   3.811 -0.4298 -0.0969 -0.5029
   11THR     CB  175   3.971   2.880   3.879 -0.6557  0.2561  0.4118
   11THR     HB  176   3.907   2.964   3.908  0.3819  1.9394 -1.9006
   11THR    CG2  177   4.078   2.860   3.981 -0.7028  0.0607  0.1562
   11THR   HG21  178   4.121   2.764   3.952  3.5080  2.3478 -2.0763
   11THR   HG22  179   4.155   2.937   3.980 -1.7291  1.1296 -1.2788
   11THR   HG23  180   4.027   2.856   4.077 -1.8665 -3.0557 -0.4557
   11THR    OG1  181   4.055   2.908   3.770 -0.3611  0.1651  0.0810
   11THR    HG1  182   4.035   2.844   3.702  2.2203 -1.2260  0.4945
   11THR      C  183   3.818   2.700   3.968  0.4070  0.6746 -0.9628
   11THR      O  184   3.858   2.600   4.023 -0.5336 -0.1773  0.2485
   12PHE      N  185   3.717   2.770   4.017  0.0107 -0.2503 -1.3844
   12PHE      H  186   3.688   2.853   3.968  1.5879  1.1788  0.0050
   12PHE     CA  187   3.650   2.743   4.145 -0.3763 -0.1717 -0.2435
   12PHE     HA  188   3.722   2.737   4.227 -0.8679 -0.9873  0.1420
   12PHE     CB  189   3.546   2.851   4.185 -0.8835 -0.4594 -0.1529
   12PHE    HB1  190   3.459   2.831   4.122 -1.2745 -2.1188  0.8555
   12PHE    HB2  191   3.586   2.951   4.167  0.1352 -0.9685 -0.8595
   12PHE     CG  192   3.491   2.850   4.317  0.1737 -0.4253  0.1183
   12PHE    CD1  193   3.561   2.912   4.422 -0.5285 -0.0733 -0.9713
   12PHE    HD1  194   3.655   2.963   4.408 -1.3919  1.9575  0.1352
   12PHE    CE1  195   3.522   2.888   4.556  0.0883 -0.1657 -0.2377
   12PHE    HE1  196   3.574   2.937   4.637  0.9642 -0.2543 -0.7398
   12PHE     CZ  197   3.417   2.800   4.587  0.4441 -0.1953 -0.0710
   12PHE     HZ  198   3.385   2.782   4.688  0.2525 -3.2908 -0.5921
   12PHE    CE2  199   3.352   2.735   4.481  0.2723  0.2408  0.4497
   12PHE    HE2  200   3.270   2.667   4.500 -0.1686  1.2778  2.6312
   12PHE    CD2  201   3.383   2.769   4.347  0.2517  0.0051 -0.0338
   12PHE    HD2  202   3.327   2.717   4.271 -3.3550  1.1072  1.5917
   12PHE      C  203   3.576   2.610   4.144  0.3291 -0.0546  0.2029
   12PHE      O  204   3.589   2.532   4.243 -0.2157  0.0139  0.4848
   13ALA      N  205   3.495   2.585   4.040 -0.3709 -0.3366  0.0531
   13ALA      H  206   3.485   2.661   3.974  1.2791  0.4602  0.6511
   13ALA     CA  207   3.443   2.451   4.019 -0.5195  0.6213 -0.0824
   13ALA     HA  208   3.385   2.425   4.108  1.2916  2.0307  1.5851
   13ALA     CB  209   3.348   2.448   3.891  0.7717  0.0128  0.4158
   13ALA    HB1  210   3.300   2.351   3.886 -0.1940  0.4574  0.9063
   13ALA    HB2  211   3.274   2.523   3.920  0.3985 -0.4728  0.7272
   13ALA    HB3  212   3.390   2.479   3.795  0.5688 -0.5951  0.1309
   13ALA      C  213   3.552   2.340   4.014  0.2389 -1.1057 -0.0111
   13ALA      O  214   3.531   2.235   4.074 -0.2025 -0.3392  0.3479
   14GLU      N  215   3.666   2.370   3.950  0.6356  0.0782 -0.0636
   14GLU      H  216   3.672   2.455   3.897  0.8695 -0.3978 -0.8141
   14GLU     CA  217   3.779   2.274   3.935  0.4346  0.6483  0.2659
   14GLU     HA  218   3.739   2.179   3.899  1.8954 -0.1126  0.5659
   14GLU     CB  219   3.880   2.312   3.824 -0.5247 -0.0831  0.1985
   14GLU    HB1  220   3.919   2.411   3.850 -0.5893 -0.3784  1.5153
   14GLU    HB2  221   3.831   2.315   3.727  1.0517 -0.2635 -0.6353
   14GLU     CG  222   3.998   2.214   3.818 -0.1281 -0.3351 -0.7367
   14GLU    HG1  223   3.956   2.114   3.813 -0.6058 -0.5101  3.2874
   14GLU    HG2  224   4.061   2.215   3.908 -0.5235 -1.9557 -0.4016
   14GLU     CD  225   4.080   2.244   3.694  0.5177 -0.5535  1.5865
   14GLU    OE1  226   4.191   2.302   3.688 -0.0988  0.8267  0.1795
   14GLU    OE2  227   4.027   2.209   3.580  0.4639 -0.6385 -0.1874
   14GLU      C  228   3.837   2.247   4.078 -0.0468  0.4151  0.5613
   14GLU      O  229   3.859   2.128   4.109  0.1570  0.1498  0.0567
   15SER      N  230   3.857   2.351   4.157 -0.5909 -0.0811  0.1285
   15SER      H  231   3.843   2.446   4.127  0.2974 -0.9013 -3.2821
   15SER     CA  232   3.906   2.330   4.294  0.2147 -0.0327 -0.2832
   15SER     HA  233   3.996   2.267   4.296 -0.4102 -0.9401  1.2513
   15SER     CB  234   3.929   2.469   4.356  0.3071  0.1615 -0.3823
   15SER    HB1  235   3.969   2.469   4.457 -3.3065 -1.7485  1.2534
   15SER    HB2  236   3.829   2.511   4.367 -1.0133 -2.7386 -0.3438
   15SER     OG  237   4.021   2.551   4.278  0.3106 -0.2214 -0.3051
   15SER     HG  238   4.013   2.515   4.190  2.6296 -0.3048 -0.5253
   15SER      C  239   3.807   2.262   4.393  0.1707 -1.1812  0.2164
   15SER      O  240   3.850   2.212   4.497 -0.0292 -0.6017 -0.2232
   16SER      N  241   3.679   2.255   4.354  0.3499  0.2516  0.0772
   16SER      H  242   3.652   2.319   4.280  1.3040  2.2244  1.3302
   16SER     CA  243   3.583   2.159   4.409 -0.2555 -0.1485 -0.4566
   16SER     HA  244   3.602   2.169   4.516 -0.1372  2.5753 -0.6479
   16SER     CB  245   3.437   2.190   4.390  0.2982  0.0320 -0.3681
   16SER    HB1  246   3.389   2.143   4.476 -1.9025  0.2627 -1.4096
   16SER    HB2  247   3.398   2.150   4.296 -2.1848  3.7770 -1.1476
   16SER     OG  248   3.414   2.326   4.394 -0.0068 -0.3834  0.0812
   16SER     HG  249   3.475   2.370   4.454 -1.8650  2.0158  0.3247
   16SER      C  250   3.609   2.015   4.366 -0.0874  0.6081 -0.0007
   16SER      O  251   3.574   1.922   4.437  0.1852  0.4176  0.2557
   17ASP      N  252   3.665   1.982   4.249  0.3496 -0.1478 -0.8581
   17ASP      H  253   3.684   2.055   4.182  1.4805 -0.1299 -0.5456
   17ASP     CA  254   3.708   1.847   4.217 -0.0745 -0.3563  0.8626
   17ASP     HA  255   3.631   1.776   4.244  2.2986 -3.0791  0.9769
   17ASP     CB  256   3.728   1.839   4.058  0.5258  0.0007  0.1554
   17ASP    HB1  257   3.794   1.915   4.015 -2.9097  1.6248 -2.8166
   17ASP    HB2  258   3.632   1.866   4.016 -0.0857 -3.1451 -0.7287
   17ASP     CG  259   3.777   1.710   4.002  0.1586 -0.2801  0.2172
   17ASP    OD1  260   3.893   1.697   3.958 -0.0427  0.4481  0.6805
   17ASP    OD2  261   3.702   1.612   4.005  0.0834  0.4905 -0.2812
   17ASP      C  262   3.839   1.814   4.291  0.0220  0.6105 -0.0159
   17ASP      O  263   3.858   1.701   4.340  0.4473  0.3362 -0.1819
   18LYS      N  264   3.935   1.911   4.300  0.6402 -0.4748  0.0182
   18LYS      H  265   3.906   1.994   4.250  1.1741 -0.4376 -0.2377
   18LYS     CA  266   4.059   1.895   4.384  0.7043  0.4977 -0.2565
   18LYS     HA  267   4.118   1.810   4.350  0.1661  0.7423 -1.8755
   18LYS     CB  268   4.138   2.032   4.386 -0.5070  0.5571 -0.3029
   18LYS    HB1  269   4.226   2.017   4.448 -0.2897 -0.4488 -0.8362
   18LYS    HB2  270   4.081   2.114   4.430  0.6517  0.5550  1.2637
   18LYS     CG  271   4.190   2.057   4.243  0.0457  0.6120  0.8614
   18LYS    HG1  272   4.102   2.084   4.184  0.5481 -1.9406 -1.2401
   18LYS    HG2  273   4.221   1.962   4.199 -2.2207 -1.2428  2.9505
   18LYS     CD  274   4.295   2.165   4.222 -0.3317 -0.0970  0.5268
   18LYS    HD1  275   4.390   2.148   4.275  1.3187 -0.1247 -2.2567
   18LYS    HD2  276   4.264   2.266   4.247  3.2316  1.3448 -0.1985
   18LYS     CE  277   4.322   2.168   4.074 -0.0937  0.0694 -0.2282
   18LYS    HE1  278   4.233   2.154   4.013  1.0466  0.4013 -2.0411
   18LYS    HE2  279   4.387   2.084   4.049  1.5328  0.6317  1.7741
   18LYS     NZ  280   4.389   2.287   4.027  0.5345 -0.5361  0.5847
   18LYS    HZ1  281   4.403   2.279   3.927  1.1413  0.2748  0.5936
   18LYS    HZ2  282   4.329   2.368   4.031  1.7018  0.6653 -2.9321
   18LYS    HZ3  283   4.477   2.314   4.068  0.5018 -0.0346  0.3281
   18LYS      C  284   4.023   1.869   4.534 -0.1051  0.3420  0.8614
   18LYS      O  285   4.095   1.799   4.606  0.9356 -0.3606 -0.2461
   19LEU      N  286   3.909   1.921   4.581  0.4110  0.2304 -0.5986
   19LEU      H  287   3.855   1.979   4.519  2.1562  1.7247 -0.8038
   19LEU     CA  288   3.862   1.911   4.717  0.1127  0.7835  0.0945
   19LEU     HA  289   3.935   1.941   4.791 -1.8713 -0.1405  2.5959
   19LEU     CB  290   3.751   2.013   4.739  0.3262 -0.7235 -0.6522
   19LEU    HB1  291   3.679   1.995   4.660  0.7886 -2.0148 -0.8158
   19LEU    HB2  292   3.789   2.115   4.740 -2.1269  0.3709  3.3877
   19LEU     CG  293   3.663   2.011   4.870 -0.4305 -0.8936  0.3138
   19LEU     HG  294   3.626   1.909   4.879 -1.1276 -0.6384  0.4018
   19LEU    CD1  295   3.749   2.038   4.999  0.3899  0.6182  0.3472
   19LEU   HD11  296   3.778   2.143   5.009 -0.7286  0.8504  1.4480
   19LEU   HD12  297   3.687   2.013   5.086  2.1611 -0.3326  1.3847
   19LEU   HD13  298   3.831   1.967   5.000  0.0839  0.2489 -0.2009
   19LEU    CD2  299   3.536   2.098   4.854 -0.1620 -0.2978 -0.0788
   19LEU   HD21  300   3.483   2.106   4.949  0.1169 -0.5167  0.0966
   19LEU   HD22  301   3.557   2.196   4.812  0.7340  0.1251  1.3133
   19LEU   HD23  302   3.464   2.050   4.788 -1.1093 -1.3302  1.6389
   19LEU      C  303   3.807   1.768   4.753 -0.7067 -0.0620  0.0039
   19LEU      O  304   3.833   1.716   4.856 -0.7681 -0.4809  0.7215
   20ARG      N  305   3.729   1.714   4.659 -0.8008 -0.2857 -0.1633
   20ARG      H  306   3.704   1.772   4.580 -0.3965 -0.5598 -0.4950
   20ARG     CA  307   3.694   1.575   4.648 -0.4161 -0.5307  0.0067
   20ARG     HA  308   3.674   1.534   4.748  0.1289  0.0156  0.3452
   20ARG     CB  309   3.565   1.552   4.569 -0.1719  0.0521 -0.0728
   20ARG    HB1  310   3.532   1.448   4.575 -0.9627  0.2720 -0.5102
   20ARG    HB2  311   3.581   1.587   4.467 -2.5365  0.9685 -0.1838
   20ARG     CG  312   3.439   1.638   4.613  0.0328  0.2082  0.4458
   20ARG    HG1  313   3.473   1.741   4.602  1.8399 -0.4401 -0.2860
   20ARG    HG2  314   3.415   1.615   4.717 -2.8615  1.4718  0.1629
   20ARG     CD  315   3.318   1.616   4.525 -0.5624  0.0272  0.2086
   20ARG    HD1  316   3.232   1.661   4.574 -0.8020  0.5236 -0.6501
   20ARG    HD2  317   3.298   1.509   4.519 -0.3697  0.0411 -0.9094
   20ARG     NE  318   3.333   1.656   4.382  0.5763  0.5222  0.1622
   20ARG     HE  319   3.371   1.590   4.316 -0.9247 -0.0010 -0.2161
   20ARG     CZ  320   3.275   1.763   4.327 -0.3803 -0.0821 -0.2864
   20ARG    NH1  321   3.227   1.862   4.401 -0.0930  0.5058  0.1639
   20ARG   HH11  322   3.242   1.856   4.500  3.4568  2.0631 -0.1119
   20ARG   HH12  323   3.177   1.933   4.350 -1.1469 -1.8689 -2.3771
   20ARG    NH2  324   3.274   1.769   4.201  0.0989  0.0939  0.5841
   20ARG   HH21  325   3.309   1.691   4.146 -0.8352  0.1456 -0.1113
   20ARG   HH22  326   3.263   1.854   4.148  1.7260 -1.1907 -2.0302
   20ARG      C  327   3.801   1.477   4.603 -0.1280  0.0757  0.3178
   20ARG      O  328   3.781   1.356   4.615  0.2027 -0.4700  0.3732
   21ARG      N  329   3.922   1.525   4.557  0.3632  0.1337  0.4783
   21ARG      H  330   3.931   1.623   4.536  2.2221  0.2244  1.5087
   21ARG     CA  331   4.033   1.436   4.508 -0.0102 -0.1163 -0.2843
   21ARG     HA  332   4.002   1.362   4.433  2.9393 -2.6492  0.8010
   21ARG     CB  333   4.138   1.522   4.436  0.5098  0.0930  0.5590
   21ARG    HB1  334   4.182   1.591   4.509 -0.3843  3.9123 -2.2161
   21ARG    HB2  335   4.075   1.576   4.366 -0.1888  0.6257  1.5651
   21ARG     CG  336   4.249   1.453   4.364  0.5129 -0.3705  0.3859
   21ARG    HG1  337   4.204   1.389   4.288  2.0599 -0.3411 -0.5935
   21ARG    HG2  338   4.309   1.398   4.436  0.3889  0.8493  1.4596
   21ARG     CD  339   4.348   1.558   4.300 -0.5728  0.6239 -0.1211
   21ARG    HD1  340   4.449   1.516   4.300 -0.3649  1.0228  1.7824
   21ARG    HD2  341   4.353   1.654   4.353 -2.8822  1.4549 -1.2667
   21ARG     NE  342   4.304   1.579   4.166 -0.6334  0.2380  0.0225
   21ARG     HE  343   4.206   1.571   4.144 -0.5934 -0.2561  0.0108
   21ARG     CZ  344   4.382   1.562   4.059 -0.0002  0.2042 -0.4826
   21ARG    NH1  345   4.509   1.551   4.072  0.1400 -0.2593  0.2018
   21ARG   HH11  346   4.537   1.571   4.167 -2.4069 -0.7912  1.1581
   21ARG   HH12  347   4.567   1.517   3.997 -0.4877  0.3899 -0.6055
   21ARG    NH2  348   4.338   1.557   3.941 -0.4982 -0.1293 -0.1323
   21ARG   HH21  349   4.238   1.561   3.929 -0.6716 -3.4127 -0.6648
   21ARG   HH22  350   4.397   1.566   3.860  0.2209 -0.9376  0.2860
   21ARG      C  351   4.093   1.353   4.612 -0.0921  0.0945 -0.3787
   21ARG    OC1  352   4.097   1.401   4.726 -0.2804 -0.2407 -0.0109
   21ARG    OC2  353   4.140   1.244   4.582  0.9645 -0.5048 -0.6491
   22SOL     OW  354   1.172   0.464   3.314 -0.1958  0.2357 -0.1007
   22SOL    HW1  355   1.208   0.527   3.245 -1.7882  1.5579  0.1956
   22SOL    HW2  356   1.247   0.432   3.372  0.7737  1.3263 -0.6889
   23SOL     OW  357   3.141   0.117   2.401 -0.3030  0.1408 -0.6008
   23SOL    HW1  358   3.148   0.073   2.311  0.4069 -1.0669  0.0278
   23SOL    HW2  359   3.084   0.062   2.461 -0.7688  0.9430 -0.2855
   24SOL     OW  360   1.889   1.085   3.989  0.0279  0.5607 -0.0914
   24SOL    HW1  361   1.812   1.104   4.049 -0.4998  1.7383 -1.0836
   24SOL    HW2  362   1.960   1.154   4.004  0.5933 -0.1056  0.3259
   25SOL     OW  363   5.793   1.001   2.930  0.5230  0.2232  0.1528
   25SOL    HW1  364   5.825   0.943   3.005 -1.2612  1.2568  1.8123
   25SOL    HW2  365   5.719   0.955   2.881  1.4024 -0.2735 -0.7400
   26SOL     OW  366   4.740   4.017   1.413 -0.5950  0.2922  0.1997
   26SOL    HW1  367   4.810   4.060   1.356 -0.1399 -0.0305  0.5090
   26SOL    HW2  368   4.682   4.088   1.454  0.1499  0.6217  0.7071
   27SOL     OW  369   3.059   1.276   3.284 -0.4598 -0.9431 -0.1082
   27SOL    HW1  370   3.158   1.263   3.292 -0.6379 -1.0641  3.9327
   27SOL    HW2  371   3.023   1.213   3.215  1.9093 -3.0682  0.4178
   28SOL     OW  372   5.295   2.878   3.503  0.0164  0.5447 -0.5425
   28SOL    HW1  373   5.263   2.966   3.469  0.1627 -0.1868 -2.7651
   28SOL    HW2  374   5.239   2.805   3.464 -1.0472 -0.3593  2.3770
   29SOL     OW  375   3.863   4.427   3.337 -0.1324  0.5981  0.0376
   29SOL    HW1  376   3.952   4.428   3.290 -0.1425  1.9617 -0.0017
   29SOL    HW2  377   3.875   4.453   3.432 -0.3478 -0.4317  0.3618
   30SOL     OW  378   0.332   2.075   2.096  0.1561  0.0669 -0.8173
   30SOL    HW1  379   0.425   2.108   2.077 -0.4777  1.4363 -1.7151
   30SOL    HW2  380   0.336   1.979   2.122  1.7453 -0.1567 -1.7104
   31SOL     OW  381   1.305   3.060   5.855 -0.3749 -0.0889  0.0125
   31SOL    HW1  382   1.337   2.987   5.915  0.0700 -1.3300 -1.6825
   31SOL    HW2  383   1.255   3.021   5.778  1.2597  1.2291 -1.8277
   32SOL     OW  384   1.749   1.429   5.857  0.1037  0.0469  0.0188
   32SOL    HW1  385   1.705   1.438   5.947 -0.5529 -0.2867 -0.2581
   32SOL    HW2  386   1.687   1.379   5.795  0.9647 -0.6182 -0.3244
   33SOL     OW  387   0.887   3.511   5.162  0.8856 -0.1860  0.4140
   33SOL    HW1  388   0.813   3.469   5.215  0.5126 -0.6347 -0.4411
   33SOL    HW2  389   0.962   3.535   5.224 -0.3381  1.1643  1.4608
   34SOL     OW  390   1.589   2.334   0.508  0.2486 -0.1429  0.2241
   34SOL    HW1  391   1.635   2.423   0.501 -1.8220  1.1536  2.1114
   34SOL    HW2  392   1.537   2.329   0.593 -1.4944 -2.3066 -0.8607
   35SOL     OW  393   4.583   0.953   0.982 -0.2535 -0.0343 -0.0083
   35SOL    HW1  394   4.525   0.887   1.029 -1.1822  0.5832 -0.2742
   35SOL    HW2  395   4.623   0.911   0.901  0.3704 -0.7245  0.6427
   36SOL     OW  396   0.882   5.632   4.726  0.3361 -0.2251  0.2904
   36SOL    HW1  397   0.966   5.667   4.686 -0.2079 -0.3290 -1.0150
   36SOL    HW2  398   0.815   5.616   4.653 -0.6923 -0.4697  1.2592
   37SOL     OW  399   1.658   4.603   1.129 -0.1397  0.1436  0.7125
   37SOL    HW1  400   1.619   4.686   1.169 -0.7527  0.3131 -0.1977
   37SOL    HW2  401   1.698   4.625   1.040 -1.2057 -0.7108 -0.0004
   38SOL     OW  402   1.797   2.744   4.597  0.0358 -0.6638  0.5572
   38SOL    HW1  403   1.826   2.697   4.680 -1.8414 -2.6418  0.1814
   38SOL    HW2  404   1.705   2.714   4.572 -0.4798  1.7997 -0.8441
   39SOL     OW  405   4.126   4.820   4.942  0.5618 -0.5781  0.6289
   39SOL    HW1  406   4.215   4.774   4.934  0.8388 -0.2564  1.6709
   39SOL    HW2  407   4.123   4.870   5.028 -1.1693 -1.7196  1.2832
   40SOL     OW  408   5.777   0.279   4.331  0.4958 -0.6151 -0.0076
   40SOL    HW1  409   5.817   0.195   4.370  1.0524 -0.5491 -0.4195
   40SOL    HW2  410   5.835   0.311   4.257  0.8879  0.7491  0.8544
   41SOL     OW  411   3.082   2.737   5.903 -0.2731 -0.1887 -0.6569
   41SOL    HW1  412   3.022   2.771   5.830 -1.5772  0.8003  0.8020
   41SOL    HW2  413   3.152   2.805   5.922 -0.3827 -0.1153 -0.5090
   42SOL     OW  414   1.452   1.084   4.035  0.1135  0.4359 -0.1455
   42SOL    HW1  415   1.404   1.014   4.089 -3.0739  1.1789 -1.7505
   42SOL    HW2  416   1.450   1.059   3.939  2.7071  0.7854 -0.3577
   43SOL     OW  417   1.752   1.810   1.828  0.1252 -0.7989  0.0158
   43SOL    HW1  418   1.784   1.903   1.844 -0.5823 -0.4682 -0.4441
   43SOL    HW2  419   1.662   1.797   1.869  0.3597 -1.3860  0.3643
   44SOL     OW  420   3.082   5.662   4.766  0.1677 -0.4782 -0.5390
   44SOL    HW1  421   3.125   5.600   4.701 -0.9906 -0.9198 -0.9110
   44SOL    HW2  422   3.153   5.710   4.819  1.1345 -0.3128 -1.9186
   45SOL     OW  423   0.412   4.861   1.177 -0.4223  0.5401 -0.3664
   45SOL    HW1  424   0.440   4.799   1.103  0.5935  0.4035  0.1182
   45SOL    HW2  425   0.467   4.944   1.174  0.1875  0.1917  0.7156
   46SOL     OW  426   3.785   1.287   0.053 -0.2338 -0.4494 -0.3691
   46SOL    HW1  427   3.780   1.195   0.015  1.8050 -0.8236  0.1794
   46SOL    HW2  428   3.833   1.347  -0.011 -1.3470  0.2208 -0.6203
   47SOL     OW  429   1.149   0.469   5.088 -0.3464 -0.0744  0.1438
   47SOL    HW1  430   1.206   0.439   5.165 -0.3867  1.2736  0.7325
   47SOL    HW2  431   1.189   0.436   5.003 -0.1511 -1.3724  0.7101
   48SOL     OW  432   0.771   5.259   1.235  0.5101 -0.0301 -0.1904
   48SOL    HW1  433   0.866   5.235   1.217  0.6693  1.0893 -0.9575
   48SOL    HW2  434   0.766   5.354   1.267 -0.4588  0.3913 -1.5082
   49SOL     OW  435   1.542   0.104   5.812 -0.0290 -0.2208  0.3950
   49SOL    HW1  436   1.513   0.193   5.775 -0.0236 -0.3286  0.1304
   49SOL    HW2  437   1.461   0.053   5.841 -0.0059  0.0314  0.9219
   50SOL     OW  438   4.915   4.139   1.240 -0.3616  0.0829 -0.6881
   50SOL    HW1  439   4.888   4.208   1.173  0.9089  1.2716  0.0020
   50SOL    HW2  440   4.925   4.051   1.193  0.8082  0.9419 -2.1454
   51SOL     OW  441   1.127   0.124   0.256  0.1248 -0.6021  0.2494
   51SOL    HW1  442   1.149   0.046   0.315  0.5966 -0.3294  0.4341
   51SOL    HW2  443   1.035   0.112   0.219  0.7016 -1.9557 -0.8409
   52SOL     OW  444   4.922   2.139   0.837 -0.1347 -0.2727 -0.1076
   52SOL    HW1  445   4.966   2.205   0.776 -0.0539  0.3218  0.5854
   52SOL    HW2  446   4.824   2.156   0.840  0.0049  0.4873  0.8484
   53SOL     OW  447   1.563  -0.003   2.094  0.3983  0.2813  0.4592
   53SOL    HW1  448   1.619  -0.017   2.013 -0.0127  0.6265  0.1081
   53SOL    HW2  449   1.486   0.058   2.071  0.5743  0.8095  1.2287
   54SOL     OW  450   1.770   1.367   0.209  0.2859 -0.9011 -0.4086
   54SOL    HW1  451   1.723   1.456   0.209  0.4329 -0.8227 -0.3014
   54SOL    HW2  452   1.853   1.373   0.154  0.5484 -0.8339 -0.0120
   55SOL     OW  453   3.844   3.898   1.137  0.1712  0.5787  0.6492
   55SOL    HW1  454   3.909   3.909   1.061  1.5384  1.0669  1.8399
   55SOL    HW2  455   3.843   3.982   1.192  0.5512 -0.3861  2.1760
   56SOL     OW  456   1.157   2.895   1.600 -0.1034  0.1956  0.8101
   56SOL    HW1  457   1.131   2.868   1.693  0.0455  0.2454  0.8660
   56SOL    HW2  458   1.137   2.992   1.588  0.0034  0.2208  0.8345
   57SOL     OW  459   2.045   3.641   4.921 -0.1320 -0.1243 -0.1184
   57SOL    HW1  460   2.030   3.593   5.008 -1.4685  0.0106 -0.2576
   57SOL    HW2  461   1.984   3.605   4.851  1.0782 -0.3762 -1.0898
   58SOL     OW  462   0.765   3.812   3.968  0.5689 -0.0779 -0.0858
   58SOL    HW1  463   0.740   3.748   3.896  1.0883 -0.3443 -0.0297
   58SOL    HW2  464   0.714   3.897   3.956  0.7317 -0.0824 -0.8302
   59SOL     OW  465   5.025   5.417   4.332  0.4603  0.5784 -0.0794
   59SOL    HW1  466   4.940   5.375   4.299  0.2093  0.8752  0.1783
   59SOL    HW2  467   5.003   5.484   4.403  1.1119 -1.1948  1.8601
   60SOL     OW  468   0.879   5.749   2.353  0.1684  0.1768 -0.0442
   60SOL    HW1  469   0.895   5.703   2.266 -2.0769  0.7500 -0.8307
   60SOL    HW2  470   0.948   5.820   2.367  1.0596 -0.4971 -0.9185
   61SOL     OW  471   4.492   0.191   2.779 -0.1529  0.2424  0.2490
   61SOL    HW1  472   4.528   0.223   2.867  1.0886 -3.2357  1.1660
   61SOL    HW2  473   4.566   0.188   2.712 -0.1220 -1.0499  0.3227
   62SOL     OW  474   1.136   1.316   5.217 -0.0979 -0.1914  0.3035
   62SOL    HW1  475   1.064   1.249   5.199 -0.9782  1.0301 -0.9920
   62SOL    HW2  476   1.096   1.407   5.223  1.3713  0.6103 -1.1113
   63SOL     OW  477   4.593   2.203   2.719  0.2452  0.1927 -0.3765
   63SOL    HW1  478   4.496   2.204   2.694  0.1533  2.3833 -0.1026
   63SOL    HW2  479   4.616   2.113   2.758 -1.4720 -0.6172 -1.1132
   64SOL     OW  480   0.430   2.553   5.637  0.4051 -0.2250  0.3091
   64SOL    HW1  481   0.511   2.543   5.694 -0.7125 -0.5400  1.8966
   64SOL    HW2  482   0.348   2.546   5.693 -0.7882 -1.5336 -1.4775
   65SOL     OW  483   5.208   1.968   0.217  0.6362  0.3871 -0.7125
   65SOL    HW1  484   5.212   1.963   0.316 -0.6719  0.4404 -0.6343
   65SOL    HW2  485   5.289   2.016   0.182  1.4162 -0.1950  0.2669
   66SOL     OW  486  -0.037   1.523   5.923  0.2716 -0.4797 -0.1124
   66SOL    HW1  487   0.037   1.590   5.919 -1.1820  1.1674 -0.9947
   66SOL    HW2  488   0.002   1.430   5.927  2.3398  0.3721  1.0008
   67SOL     OW  489   3.774   0.866   4.895  0.4547  0.1411  0.1408
   67SOL    HW1  490   3.812   0.887   4.806  0.6436  2.0802  0.6267
   67SOL    HW2  491   3.676   0.888   4.896  0.1067 -1.2827  0.0033
   68SOL     OW  492   1.750   1.281   3.319 -0.1091  0.0951  0.1555
   68SOL    HW1  493   1.782   1.300   3.227 -1.1737  2.5949  0.1961
   68SOL    HW2  494   1.733   1.368   3.366 -1.1605 -1.1147  2.1369
   69SOL     OW  495   0.862   0.847   4.685  0.2194  0.0336  0.1768
   69SOL    HW1  496   0.781   0.905   4.674 -1.2517 -1.7650  0.9080
   69SOL    HW2  497   0.885   0.804   4.597  0.5642  0.7536 -0.0914
   70SOL     OW  498   3.097   2.527   4.651 -0.4221 -0.3029 -0.0833
   70SOL    HW1  499   3.086   2.618   4.611  3.7040  0.6895  0.5538
   70SOL    HW2  500   3.106   2.535   4.750  1.9287 -1.0578 -0.1759
   71SOL     OW  501   1.638   0.764   3.796 -0.4484 -0.1509  0.1987
   71SOL    HW1  502   1.586   0.808   3.869  1.7775  0.2684  1.6601
   71SOL    HW2  503   1.735   0.788   3.805 -0.0214 -0.3967 -2.7171
   72SOL     OW  504   1.851   2.005   0.091 -0.2590 -0.6378 -0.0942
   72SOL    HW1  505   1.924   2.002   0.023  0.2302  0.8123  0.3481
   72SOL    HW2  506   1.887   1.976   0.180 -0.3220 -0.2990  0.0415
   73SOL     OW  507   0.593   4.567   4.555  0.7021 -0.3275 -0.3482
   73SOL    HW1  508   0.535   4.645   4.535  1.3039 -0.2581 -1.9848
   73SOL    HW2  509   0.549   4.483   4.522  1.0327 -0.4058 -0.5968
   74SOL     OW  510   1.978   1.700   0.370  0.6775  0.2546 -0.2969
   74SOL    HW1  511   1.887   1.668   0.396  1.3190 -1.1956  0.2604
   74SOL    HW2  512   1.988   1.796   0.395 -0.6486  0.3949 -0.2463
   75SOL     OW  513   4.647   3.640   5.348 -0.1738 -0.2387 -0.3189
   75SOL    HW1  514   4.688   3.718   5.394  0.5072  0.5422 -2.1365
   75SOL    HW2  515   4.547   3.644   5.358 -0.2336  1.4131 -1.1153
   76SOL     OW  516   0.066   0.324   4.488 -0.0380 -0.2006 -0.6488
   76SOL    HW1  517   0.050   0.329   4.389  1.6801  1.9083 -0.8924
   76SOL    HW2  518   0.140   0.259   4.506  0.0822 -0.1089 -0.8102
   77SOL     OW  519   5.837   1.587   2.074  0.0419 -0.6402 -0.2581
   77SOL    HW1  520   5.916   1.539   2.036 -0.2899 -1.3415 -0.0762
   77SOL    HW2  521   5.837   1.682   2.042  1.1707 -0.5176  0.0426
   78SOL     OW  522   3.142   3.834   0.231 -0.1653  0.2109  0.0105
   78SOL    HW1  523   3.093   3.910   0.187  0.3100 -0.1312 -1.1652
   78SOL    HW2  524   3.237   3.834   0.200 -0.1522 -0.8307  0.0309
   79SOL     OW  525   4.841   0.556   5.978  0.0984  0.0964  0.1304
   79SOL    HW1  526   4.765   0.503   5.940  0.1315 -0.1700  0.4364
   79SOL    HW2  527   4.913   0.564   5.909  0.5691 -1.2008  0.4431
   80SOL     OW  528   0.846   1.504   5.099 -0.0066  0.1667  0.3101
   80SOL    HW1  529   0.904   1.584   5.080 -0.8637  0.6349 -0.4282
   80SOL    HW2  530   0.850   1.441   5.021 -0.9194  0.4811 -0.0041
   81SOL     OW  531   2.661   3.579   0.294  0.0805  0.0698  0.7633
   81SOL    HW1  532   2.725   3.656   0.284 -0.5707  0.3591 -2.8035
   81SOL    HW2  533   2.569   3.614   0.312 -0.3632  0.3404 -1.6136
   82SOL     OW  534   0.958   5.279   2.020  0.2510  0.4915  0.2705
   82SOL    HW1  535   1.002   5.343   1.957 -0.8091  1.5019  0.5116
   82SOL    HW2  536   1.000   5.286   2.111 -0.1442  1.1831  0.4066
   83SOL     OW  537   2.681   2.456   1.878  0.1245  0.6496 -0.2370
   83SOL    HW1  538   2.695   2.553   1.856 -0.8729  1.0306  0.6866
   83SOL    HW2  539   2.766   2.417   1.913  0.1354  1.6373  0.9050
   84SOL     OW  540   0.670   4.216   0.790 -0.7648  0.4666  0.4062
   84SOL    HW1  541   0.607   4.140   0.780  1.9915 -1.8146 -0.9131
   84SOL    HW2  542   0.681   4.237   0.887 -0.7619 -1.6180  0.9058
   85SOL     OW  543   2.157   0.329   3.260  0.3005  0.0990  0.1829
   85SOL    HW1  544   2.101   0.290   3.187 -0.6047 -1.5040  1.6658
   85SOL    HW2  545   2.146   0.429   3.260 -1.2260 -0.0334 -0.6414
   86SOL     OW  546   2.155   0.913   4.206  0.1631 -0.2561 -0.5609
   86SOL    HW1  547   2.107   0.826   4.195 -1.9908  0.8800 -0.7599
   86SOL    HW2  548   2.161   0.959   4.117  1.5276 -0.2813 -0.5083
   87SOL     OW  549   2.304   1.347   4.069  0.0801  0.3379 -0.3368
   87SOL    HW1  550   2.325   1.411   3.994 -0.0265 -0.1067 -0.7501
   87SOL    HW2  551   2.354   1.375   4.151  1.2560  0.0751 -0.9391
   88SOL     OW  552   2.339   0.858   2.400 -0.4095 -0.1852  0.2519
   88SOL    HW1  553   2.285   0.863   2.484 -1.1792 -0.0090 -0.2401
   88SOL    HW2  554   2.340   0.948   2.356 -1.6017 -0.6837 -0.8796
   89SOL     OW  555   2.973   3.254   2.358 -0.3023 -0.3774 -0.2808
   89SOL    HW1  556   3.009   3.328   2.301 -0.5575  0.1301  0.2025
   89SOL    HW2  557   2.886   3.282   2.397  0.6229 -0.0545  1.6535
   90SOL     OW  558   3.985   5.443   2.916 -0.8975 -0.2349 -0.0942
   90SOL    HW1  559   3.922   5.514   2.885 -0.9980 -1.2667 -2.4632
   90SOL    HW2  560   4.055   5.427   2.847 -0.7796 -2.3154  0.4397
   91SOL     OW  561   5.623   2.463   3.740  0.0362  0.2419  0.4246
   91SOL    HW1  562   5.595   2.382   3.687 -1.0233 -1.1063  2.8605
   91SOL    HW2  563   5.704   2.504   3.698 -0.7970 -0.6246 -2.2508
   92SOL     OW  564   0.765   0.066   0.625  0.1393  0.0434 -0.3539
   92SOL    HW1  565   0.838   0.123   0.588  1.7344  1.4285  4.2727
   92SOL    HW2  566   0.688   0.124   0.652 -0.8239 -0.8663 -1.0375
   93SOL     OW  567   4.204   4.191   2.321  0.0698  0.2696 -0.0899
   93SOL    HW1  568   4.117   4.174   2.367 -0.4911 -0.2123 -1.2879
   93SOL    HW2  569   4.264   4.111   2.332  0.2826  0.5126  0.5458
   94SOL     OW  570   0.586   2.827   3.396 -0.0671 -0.1337 -0.0230
   94SOL    HW1  571   0.534   2.908   3.370 -0.0030 -0.2200 -0.4236
   94SOL    HW2  572   0.554   2.748   3.344 -1.2853 -0.7388  1.5581
   95SOL     OW  573   5.863   4.881   4.755 -0.2405  0.2409 -0.3655
   95SOL    HW1  574   5.871   4.905   4.658  0.7346  1.2116 -0.0621
   95SOL    HW2  575   5.851   4.964   4.809 -1.9978 -0.3744  0.2648
   96SOL     OW  576   1.836   3.567   2.894  0.2754 -0.0324  0.2018
   96SOL    HW1  577   1.863   3.537   2.986 -0.1912  0.5979  0.5534
   96SOL    HW2  578   1.737   3.556   2.883  0.6002 -2.2939 -1.0654
   97SOL     OW  579   3.876   0.065   0.440 -0.0374  0.4550 -0.3943
   97SOL    HW1  580   3.908   0.034   0.351  1.2456  0.7123 -0.0457
   97SOL    HW2  581   3.909   0.158   0.458  0.7295 -0.0252  0.8305
   98SOL     OW  582   4.488   3.229   2.096  0.7074  0.4289 -0.1497
   98SOL    HW1  583   4.418   3.228   2.024  1.4944 -0.5130 -0.9366
   98SOL    HW2  584   4.533   3.318   2.097 -1.0208  1.3478  0.9224
   99SOL     OW  585   3.191   1.059   4.907 -0.0732  0.5314  0.5063
   99SOL    HW1  586   3.164   1.137   4.849 -0.2527  1.4559  1.8008
   99SOL    HW2  587   3.229   0.987   4.849 -0.6839  1.2305 -0.8183
  100SOL     OW  588   3.083   2.158   2.406 -0.3973  0.2409 -0.5405
  100SOL    HW1  589   3.054   2.221   2.478  1.1597 -0.3925  0.6845
  100SOL    HW2  590   3.179   2.173   2.386 -0.3057 -0.9653 -1.0652
  101SOL     OW  591   3.972   2.645   4.927  0.0324 -0.5183  0.4382
  101SOL    HW1  592   3.912   2.677   4.854  1.5678  0.8574 -0.2830
  101SOL    HW2  593   3.990   2.547   4.914 -1.1139 -0.6908  0.0123
  102SOL     OW  594   4.831   3.834   3.055  0.3173  0.4627 -0.6553
  102SOL    HW1  595   4.882   3.839   3.141 -2.9069 -1.6628  1.5896
  102SOL    HW2  596   4.834   3.741   3.020 -2.7592 -0.0363  0.1713
  103SOL     OW  597   3.435   5.931   3.975  0.1091 -0.2125  0.1905
  103SOL    HW1  598   3.393   6.021   3.986 -0.2558 -0.1998 -1.1507
  103SOL    HW2  599   3.367   5.867   3.939  1.3628  0.0072 -2.8455
  104SOL     OW  600   0.808   0.137   0.156 -0.1372 -0.1468  0.0308
  104SOL    HW1  601   0.824   0.109   0.061 -1.0857 -0.5914 -0.0182
  104SOL    HW2  602   0.764   0.062   0.205  0.2602  0.1165  0.8000
  105SOL     OW  603   5.683   2.250   5.742 -0.2091  0.1895 -0.7341
  105SOL    HW1  604   5.627   2.321   5.698 -0.5514  0.9692  0.8834
  105SOL    HW2  605   5.748   2.293   5.804 -0.6899 -0.9182  0.5843
  106SOL     OW  606   3.840   2.132   1.872  0.2512  0.3845  0.0001
  106SOL    HW1  607   3.932   2.114   1.837  0.0796  0.5347 -0.5436
  106SOL    HW2  608   3.772   2.111   1.801 -0.1225  0.4821  0.3205
  107SOL     OW  609   0.804   1.256   5.398  0.6149 -0.4392  0.3894
  107SOL    HW1  610   0.859   1.233   5.317 -0.2953  1.2116 -0.7726
  107SOL    HW2  611   0.775   1.352   5.392 -2.2427 -1.1586  1.0172
  108SOL     OW  612   3.988   3.274   4.557  0.3954 -0.2197  0.0260
  108SOL    HW1  613   3.918   3.334   4.595  0.2977 -0.1220 -0.2978
  108SOL    HW2  614   4.042   3.324   4.489 -0.1871 -0.6993 -0.8183
  109SOL     OW  615   2.907   1.149   5.966  0.7251 -0.0653 -0.1183
  109SOL    HW1  616   2.843   1.142   5.889  0.1234  1.0269  0.2593
  109SOL    HW2  617   2.954   1.238   5.962 -0.4970  0.7183  1.6421
  110SOL     OW  618   1.225   2.013   3.711 -0.2397 -0.0202  0.1109
  110SOL    HW1  619   1.167   1.931   3.708  1.4795 -1.4787  2.6323
  110SOL    HW2  620   1.259   2.032   3.619  0.2535 -2.9255 -0.4249
  111SOL     OW  621   5.298   3.784   0.158  0.1832  0.7241 -0.1341
  111SOL    HW1  622   5.360   3.722   0.110  0.0219 -0.6964  1.4398
  111SOL    HW2  623   5.223   3.809   0.097  1.5297  1.4075 -1.6184
  112SOL     OW  624   1.128   3.870   0.134  0.1281  0.3336  0.3826
  112SOL    HW1  625   1.085   3.912   0.214  1.4436  1.3167  0.6090
  112SOL    HW2  626   1.224   3.849   0.155  0.1739 -0.4983 -0.5650
  113SOL     OW  627   4.237   2.983   2.379 -0.2365 -0.3278 -0.0233
  113SOL    HW1  628   4.256   2.919   2.305 -1.7935 -0.8590  0.0011
  113SOL    HW2  629   4.171   2.943   2.442  2.5518 -0.7610  2.8627
  114SOL     OW  630   0.281   0.550   1.352  0.3311  0.0661  0.6868
  114SOL    HW1  631   0.272   0.628   1.414  0.9257  0.4096  0.3553
  114SOL    HW2  632   0.378   0.524   1.345  0.6660  1.6717 -2.0645
  115SOL     OW  633   3.455   5.823   3.626 -0.4654 -0.7193 -0.7037
  115SOL    HW1  634   3.515   5.749   3.658 -1.0546 -0.6489  0.6561
  115SOL    HW2  635   3.507   5.907   3.616 -0.2270 -0.7838 -0.0370
  116SOL     OW  636   4.823   5.485   0.743 -0.2234  0.4255  0.3415
  116SOL    HW1  637   4.832   5.574   0.699  0.2173 -0.4194 -1.3826
  116SOL    HW2  638   4.889   5.478   0.818  0.2166  1.2768  0.0468
  117SOL     OW  639   2.790   2.568   3.080  0.6196 -0.3266 -0.4082
  117SOL    HW1  640   2.817   2.663   3.093  1.4967 -0.3656 -1.6519
  117SOL    HW2  641   2.789   2.520   3.168 -2.3234  1.4000  0.6234
  118SOL     OW  642   2.274   1.636   2.215  0.0456 -0.4599 -0.2476
  118SOL    HW1  643   2.310   1.598   2.130  0.6189 -1.0100  0.2313
  118SOL    HW2  644   2.175   1.647   2.207  0.3305  1.5507 -1.7717
  119SOL     OW  645   2.998   0.857   2.579 -0.2316  0.3831  0.0187
  119SOL    HW1  646   3.006   0.892   2.486  1.5567 -0.0038 -0.0175
  119SOL    HW2  647   3.041   0.767   2.585 -1.7120 -0.3105  0.8842
  120SOL     OW  648   2.588   1.419   3.823 -0.1016 -0.1152 -0.0707
  120SOL    HW1  649   2.492   1.441   3.843 -0.2726 -0.4583 -0.5003
  120SOL    HW2  650   2.642   1.429   3.906 -1.0612 -3.1277  1.0292
  121SOL     OW  651   0.855   3.496   2.806  0.6649  0.0979  0.6153
  121SOL    HW1  652   0.947   3.498   2.768  0.1892  0.5089 -0.5553
  121SOL    HW2  653   0.855   3.442   2.890  2.1253  0.7758  1.0797
  122SOL     OW  654   0.555   0.667   3.090 -0.3686  0.2551 -0.3055
  122SOL    HW1  655   0.643   0.633   3.124  0.6626  1.3054 -1.8149
  122SOL    HW2  656   0.481   0.629   3.145  0.9131 -1.9677 -0.0021
  123SOL     OW  657   1.163   5.656   4.070  0.7450 -0.0001  0.1619
  123SOL    HW1  658   1.245   5.647   4.127  0.5089 -1.5961  0.2804
  123SOL    HW2  659   1.150   5.573   4.016  1.2167  1.6207 -2.6308
  124SOL     OW  660   5.166   1.987   2.093 -0.0377  0.5975 -0.1322
  124SOL    HW1  661   5.179   1.956   1.999 -1.5167  1.1984 -0.5588
  124SOL    HW2  662   5.078   2.034   2.101 -0.1219  0.2029  1.6460
  125SOL     OW  663   1.440   4.773   2.762  0.0838  0.6493  0.7770
  125SOL    HW1  664   1.367   4.741   2.822  0.6456 -0.6456  0.8057
  125SOL    HW2  665   1.440   4.720   2.678 -0.7238  2.4715 -0.4486
  126SOL     OW  666   4.165   3.222  -0.027 -0.3197  0.0979  0.1826
  126SOL    HW1  667   4.251   3.264   0.004 -1.1445  0.9485  1.4331
  126SOL    HW2  668   4.100   3.222   0.049 -1.4875 -0.3810 -0.7995
  127SOL     OW  669   0.847   0.179   5.048  0.1140  0.1582 -0.2295
  127SOL    HW1  670   0.888   0.100   5.093  0.7845  0.4665 -0.2918
  127SOL    HW2  671   0.787   0.147   4.974 -0.2694 -0.3135  0.2828
  128SOL     OW  672   1.611   3.549   1.236  0.1899 -0.2747  0.0223
  128SOL    HW1  673   1.539   3.619   1.234  0.2406 -0.2122  0.3250
  128SOL    HW2  674   1.667   3.556   1.153 -2.2216 -2.5239 -1.9580
  129SOL     OW  675   3.831   3.278   2.992  0.1477  0.2255  0.5880
  129SOL    HW1  676   3.914   3.322   3.028  0.2510  0.1580  0.4334
  129SOL    HW2  677   3.828   3.288   2.893 -1.9686  3.5939  0.8503
  130SOL     OW  678   4.250   1.612   5.189 -0.3341  0.2868  0.1441
  130SOL    HW1  679   4.279   1.608   5.094  0.0028  0.3119  0.2413
  130SOL    HW2  680   4.204   1.527   5.214  0.3793 -0.0886  0.2080
  131SOL     OW  681   4.267   4.077   4.641 -0.1409  0.3829 -0.4440
  131SOL    HW1  682   4.338   4.148   4.642 -0.3056  0.5423 -0.0549
  131SOL    HW2  683   4.232   4.063   4.733 -0.1893 -0.1281 -0.5373
  132SOL     OW  684   3.489   5.799   1.037 -0.0349 -0.2743 -0.0327
  132SOL    HW1  685   3.452   5.731   0.974  0.0862  0.5141 -0.9899
  132SOL    HW2  686   3.413   5.849   1.079 -0.1285 -1.0831  0.7899
  133SOL     OW  687   0.501   0.309   2.487 -0.4830  0.2307 -0.3423
  133SOL    HW1  688   0.464   0.219   2.508  0.8682 -0.2830 -0.0322
  133SOL    HW2  689   0.515   0.318   2.388  0.2478 -0.2593 -0.2857
  134SOL     OW  690   1.046   0.120   5.409  0.1718  0.0247  0.0362
  134SOL    HW1  691   1.023   0.215   5.384 -0.2862 -0.0034  0.3485
  134SOL    HW2  692   0.993   0.057   5.352  1.0692 -0.0618 -0.7422
  135SOL     OW  693   0.190   3.991   4.034 -0.1169 -0.2853  0.2534
  135SOL    HW1  694   0.199   3.900   4.073 -0.2086 -0.5277 -0.2710
  135SOL    HW2  695   0.103   3.997   3.983  0.3899 -0.2672 -0.6355
  136SOL     OW  696   4.737   0.925   0.328  0.5639  0.0413 -0.2164
  136SOL    HW1  697   4.804   0.919   0.401  0.0029 -1.6384  0.2112
  136SOL    HW2  698   4.661   0.984   0.356  0.9390  0.4027  0.0484
  137SOL     OW  699   1.722   1.665   2.484  0.1927  0.2781  0.3379
  137SOL    HW1  700   1.809   1.621   2.464 -0.7803 -1.5754 -0.0176
  137SOL    HW2  701   1.687   1.633   2.572 -1.7527 -1.7580 -1.0776
  138SOL     OW  702   1.880   1.830   2.991  0.5350  0.1112 -0.3319
  138SOL    HW1  703   1.975   1.822   3.021  0.4976  0.0509 -0.2298
  138SOL    HW2  704   1.858   1.927   2.975  0.0953  0.3263  1.3529
  139SOL     OW  705   1.965   1.304   2.682  0.3656  0.0338 -0.6280
  139SOL    HW1  706   2.024   1.284   2.760  0.0969 -1.0334 -0.6853
  139SOL    HW2  707   1.967   1.227   2.617 -2.6483 -1.0176  0.3320
  140SOL     OW  708   4.973   1.573   3.643  0.1507  0.4750  0.1551
  140SOL    HW1  709   5.040   1.578   3.569 -0.0878 -1.2527 -0.2304
  140SOL    HW2  710   4.946   1.477   3.657 -0.1906  0.8286  2.1518
  141SOL     OW  711   0.210   3.961   4.380  0.6882 -0.1125 -0.7372
  141SOL    HW1  712   0.239   3.915   4.297  1.2453  0.7811 -1.0512
  141SOL    HW2  713   0.289   3.978   4.439  0.7349  1.6556 -1.2537
  142SOL     OW  714   2.863   0.789   5.057 -0.0519  0.2988 -0.2070
  142SOL    HW1  715   2.894   0.824   4.969  2.7411  0.8878  0.8963
  142SOL    HW2  716   2.904   0.699   5.074  0.8248  0.9160  1.1486
  143SOL     OW  717   1.547   0.362   5.732  0.4639 -0.2259  0.4185
  143SOL    HW1  718   1.623   0.413   5.692  1.1946 -0.2613  1.7058
  143SOL    HW2  719   1.551   0.369   5.832 -0.5573 -1.1951  0.5499
  144SOL     OW  720   0.115   5.520   3.932  0.0788 -0.1861  0.2844
  144SOL    HW1  721   0.052   5.463   3.878  0.8904 -0.5894 -0.2493
  144SOL    HW2  722   0.193   5.547   3.875 -0.8446  2.4793  0.1098
  145SOL     OW  723   0.614   2.021   3.589  0.0330  1.2920 -0.3635
  145SOL    HW1  724   0.632   2.026   3.688 -2.0269 -0.1576  0.1473
  145SOL    HW2  725   0.553   2.095   3.562 -0.8405  0.6572 -0.1679
  146SOL     OW  726   4.577   3.650   3.575 -0.1643  0.4784 -0.3128
  146SOL    HW1  727   4.536   3.585   3.511 -0.1462 -0.8721  1.0057
  146SOL    HW2  728   4.674   3.662   3.552  0.3156 -1.4123  0.4919
  147SOL     OW  729   4.730   3.946   2.831  0.0841 -0.4622  0.2259
  147SOL    HW1  730   4.703   3.877   2.764 -0.2173 -0.1988  0.0748
  147SOL    HW2  731   4.783   3.902   2.904 -0.3446 -0.8968  0.2781
  148SOL     OW  732   4.758   1.383   4.762  0.1233 -0.1931 -0.3024
  148SOL    HW1  733   4.703   1.366   4.843 -0.6881 -2.8580 -1.3104
  148SOL    HW2  734   4.736   1.473   4.725  0.2093  0.9171  2.1198
  149SOL     OW  735   3.395   0.183   4.495 -0.1248  0.2912 -0.4145
  149SOL    HW1  736   3.391   0.145   4.587  0.2610  1.2161 -0.0084
  149SOL    HW2  737   3.465   0.135   4.442 -2.3369 -2.3019 -1.2230
  150SOL     OW  738   2.237   5.783   2.982 -0.0827  0.4385  0.1636
  150SOL    HW1  739   2.276   5.870   2.950  0.8161  0.1831  0.5427
  150SOL    HW2  740   2.296   5.744   3.051 -0.8156 -0.1775  0.4475
  151SOL     OW  741   2.589   4.800   2.907  0.0677  0.0161  0.3973
  151SOL    HW1  742   2.592   4.756   2.818 -0.4446  0.3886  0.1954
  151SOL    HW2  743   2.630   4.891   2.901 -1.1390  0.5610  0.2374
  152SOL     OW  744   2.239   4.176   5.313 -0.2816 -0.6376 -0.1400
  152SOL    HW1  745   2.322   4.176   5.257  1.5896  0.2301  2.4596
  152SOL    HW2  746   2.221   4.268   5.346 -1.7712 -0.9882  0.0895
  153SOL     OW  747   3.953   3.038   5.559 -0.2206 -0.3114 -0.8339
  153SOL    HW1  748   3.885   2.982   5.512 -0.9300 -0.2374  0.0782
  153SOL    HW2  749   4.039   3.036   5.507 -1.3313  0.8253 -2.8403
  154SOL     OW  750   2.554   4.380   3.491  0.6454  0.1066  0.0487
  154SOL    HW1  751   2.498   4.342   3.564 -1.3323  0.0914 -1.3982
  154SOL    HW2  752   2.561   4.314   3.417  1.3062  0.7046 -0.4373
  155SOL     OW  753   2.527   1.986   5.570 -0.5452 -0.0312 -0.2365
  155SOL    HW1  754   2.575   2.031   5.645  0.7610  0.9560 -1.6014
  155SOL    HW2  755   2.496   1.896   5.599 -0.2323  0.3894  1.5186
  156SOL     OW  756   0.931   1.933   1.407 -0.2159  0.0931 -0.2596
  156SOL    HW1  757   1.016   1.940   1.458 -1.1007  2.1081  1.0681
  156SOL    HW2  758   0.854   1.920   1.470 -1.1824  1.1149 -1.1801
  157SOL     OW  759   0.337   4.353   5.534  0.1569 -0.3162 -0.5499
  157SOL    HW1  760   0.379   4.444   5.542  1.9397 -1.1648  0.2802
  157SOL    HW2  761   0.285   4.333   5.617 -1.0708  0.3040 -1.1387
  158SOL     OW  762   2.153   0.370   5.659 -0.6367 -0.1054 -0.4828
  158SOL    HW1  763   2.135   0.373   5.561 -1.6687 -0.6227 -0.3220
  158SOL    HW2  764   2.114   0.286   5.698 -0.4152  0.1853  0.4036
  159SOL     OW  765   2.771   4.778   0.301 -0.5492  0.6949  0.1072
  159SOL    HW1  766   2.688   4.740   0.342  0.8153  0.2943  2.7195
  159SOL    HW2  767   2.784   4.737   0.210 -1.2978 -2.0655  1.1222
  160SOL     OW  768   3.470   5.657   0.547 -0.5701 -0.4435  0.2998
  160SOL    HW1  769   3.526   5.662   0.630 -1.3454  1.6134  0.7537
  160SOL    HW2  770   3.379   5.621   0.571 -0.8872  0.4122  0.4316
  161SOL     OW  771   2.617   3.606   3.038  0.3636 -0.4324  0.2909
  161SOL    HW1  772   2.639   3.635   2.944 -1.4401 -0.0056 -0.0356
  161SOL    HW2  773   2.694   3.554   3.075  0.9652 -0.9937 -1.5906
  162SOL     OW  774   2.365   2.585   0.396  0.4950 -0.2365  0.1985
  162SOL    HW1  775   2.408   2.517   0.337  0.4704  0.3531 -0.5271
  162SOL    HW2  776   2.435   2.649   0.428  0.2789  0.3407 -0.4525
  163SOL     OW  777   2.831   5.157   3.319  0.2283  0.0620  0.3085
  163SOL    HW1  778   2.923   5.189   3.342  1.2023 -3.2205  1.5303
  163SOL    HW2  779   2.793   5.105   3.395 -0.4784 -3.0117 -1.9367
  164SOL     OW  780   5.326   2.448   1.413 -1.6319  0.2768 -0.1366
  164SOL    HW1  781   5.313   2.542   1.444  0.1339 -0.0064  1.6809
  164SOL    HW2  782   5.422   2.432   1.391 -2.0560 -0.8740 -1.2866
  165SOL     OW  783   0.500   3.813   2.665  0.0456  0.2393 -0.1735
  165SOL    HW1  784   0.463   3.851   2.750 -0.0534 -1.5108  0.6075
  165SOL    HW2  785   0.559   3.735   2.687 -0.6350 -0.7655 -1.7575
  166SOL     OW  786   0.394   0.772   5.907 -0.2949 -0.0378 -0.0105
  166SOL    HW1  787   0.303   0.806   5.885 -0.3601  0.8836  1.5572
  166SOL    HW2  788   0.456   0.849   5.920 -0.1084 -0.5207  2.2529
  167SOL     OW  789   1.600   4.092   4.388  0.2412  0.3075  0.1787
  167SOL    HW1  790   1.669   4.155   4.351  0.0131 -0.1544 -1.0477
  167SOL    HW2  791   1.566   4.128   4.475 -0.6003  2.4278 -0.9543
  168SOL     OW  792   2.826   2.795   1.116 -0.5445 -0.0432 -0.3683
  168SOL    HW1  793   2.881   2.804   1.033 -0.5903 -3.0163 -0.8271
  168SOL    HW2  794   2.729   2.789   1.091 -0.3862 -4.4466 -0.6362
  169SOL     OW  795   5.839   4.215   0.783  0.0384  0.5710  0.2014
  169SOL    HW1  796   5.835   4.274   0.702 -1.5393  0.2113 -0.0101
  169SOL    HW2  797   5.809   4.123   0.759  1.8413 -0.1842  0.6895
  170SOL     OW  798   1.172   1.945   1.536  0.6969  0.0732  0.7255
  170SOL    HW1  799   1.149   2.030   1.584  0.0708 -0.5911  1.6442
  170SOL    HW2  800   1.244   1.897   1.587  1.7443  0.5068 -0.3107
  171SOL     OW  801   2.760   0.133   5.230 -0.2533 -0.2914  0.1178
  171SOL    HW1  802   2.708   0.139   5.315 -1.9660 -0.9932 -0.8147
  171SOL    HW2  803   2.811   0.047   5.229 -0.4587 -0.4198  0.3340
  172SOL     OW  804   3.311   2.379   0.401 -0.5911 -0.2158 -0.0265
  172SOL    HW1  805   3.357   2.290   0.403 -0.2866 -0.0611 -0.1897
  172SOL    HW2  806   3.348   2.434   0.327 -1.9773 -0.5876 -1.0296
  173SOL     OW  807   1.243   2.814   0.757  0.3116 -0.4021 -0.0772
  173SOL    HW1  808   1.272   2.860   0.840  1.5164 -1.2667  0.0046
  173SOL    HW2  809   1.177   2.742   0.780  2.1587 -2.0140  0.4398
  174SOL     OW  810   4.815   5.224   3.930  0.1066 -0.1026 -0.6380
  174SOL    HW1  811   4.748   5.234   3.856 -0.6001 -0.5647 -0.0749
  174SOL    HW2  812   4.906   5.208   3.891 -0.1253  0.3954 -1.4110
  175SOL     OW  813   5.113   5.643   5.529 -0.4654  0.6402 -0.7282
  175SOL    HW1  814   5.088   5.551   5.559  0.7483  1.0655  1.8824
  175SOL    HW2  815   5.038   5.706   5.550 -1.0513  0.3874 -1.9642
  176SOL     OW  816   1.256   0.000   4.577  0.6556 -0.3394  0.4241
  176SOL    HW1  817   1.318   0.051   4.517 -0.0887 -0.2945 -0.3178
  176SOL    HW2  818   1.205   0.064   4.634 -0.3344 -0.2348 -0.5617
  177SOL     OW  819   5.696   0.831   2.544 -0.3144 -0.5136 -0.1451
  177SOL    HW1  820   5.647   0.880   2.616 -1.1579 -1.1758 -0.2547
  177SOL    HW2  821   5.770   0.888   2.510  0.0567 -0.1509  1.1913
  178SOL     OW  822   2.719   1.762   4.494  0.4328  0.4705 -0.3935
  178SOL    HW1  823   2.803   1.815   4.498 -0.0453  1.2004  0.3013
  178SOL    HW2  824   2.646   1.811   4.541  0.2348 -1.3093  1.3222
  179SOL     OW  825   4.724   1.158   1.085  0.6079 -0.1389  0.0260
  179SOL    HW1  826   4.660   1.090   1.048  0.3384 -0.4162  0.9937
  179SOL    HW2  827   4.789   1.184   1.013  0.1983 -0.7928 -0.5982
  180SOL     OW  828   0.945   4.339   0.648 -0.0373 -0.0306 -0.4383
  180SOL    HW1  829   0.873   4.409   0.653 -0.0853  0.2391 -3.2740
  180SOL    HW2  830   0.909   4.257   0.604  1.3055  0.0533 -1.7714
  181SOL     OW  831   1.392   4.018   4.677  0.5050 -0.1379 -0.1081
  181SOL    HW1  832   1.418   3.944   4.615  1.5421  0.6877 -0.7046
  181SOL    HW2  833   1.294   4.035   4.669  0.7318  0.5104 -2.2119
  182SOL     OW  834   1.580   5.173   3.012  0.3764 -0.7107 -0.0718
  182SOL    HW1  835   1.680   5.170   3.001  0.4189 -0.5464  0.2463
  182SOL    HW2  836   1.536   5.154   2.925  0.6861 -1.0704 -0.1551
  183SOL     OW  837   0.272   4.096   1.357 -0.2855  0.0108  0.3995
  183SOL    HW1  838   0.355   4.133   1.397 -1.1252  0.4717  1.8028
  183SOL    HW2  839   0.219   4.169   1.315  0.2600 -0.3671 -0.9936
  184SOL     OW  840   2.134   2.808   4.606  0.3265 -0.0012  0.0399
  184SOL    HW1  841   2.167   2.719   4.575 -1.0561 -0.0534 -1.3698
  184SOL    HW2  842   2.036   2.803   4.626  0.4061  1.0021  0.7749
  185SOL     OW  843   2.712   3.858   0.545  0.7172 -0.0784  0.4525
  185SOL    HW1  844   2.764   3.773   0.547 -0.1752 -0.6562 -0.4377
  185SOL    HW2  845   2.623   3.845   0.589  1.0964  0.7730  1.5292
  186SOL     OW  846   5.828   1.024   4.021 -0.1860  0.0772 -0.0791
  186SOL    HW1  847   5.892   0.952   3.997  1.5945  1.0815  1.4292
  186SOL    HW2  848   5.767   0.993   4.094  0.5513  0.0673  0.5414
  187SOL     OW  849   4.963   2.313   5.659  0.8957 -0.5169  0.8068
  187SOL    HW1  850   5.060   2.336   5.664  0.3857  1.9759  0.5069
  187SOL    HW2  851   4.941   2.280   5.567  1.4963 -1.4609  0.9868
  188SOL     OW  852   5.489   5.612   1.760  0.0810  0.7365  0.1377
  188SOL    HW1  853   5.566   5.667   1.728 -0.1145  0.1016 -1.4961
  188SOL    HW2  854   5.505   5.585   1.855  2.3781 -0.2267 -0.4540
  189SOL     OW  855   3.569   3.507   4.167 -0.4731 -0.2845  0.2345
  189SOL    HW1  856   3.641   3.519   4.235 -0.6929 -0.4602  0.5038
  189SOL    HW2  857   3.480   3.502   4.214 -0.4529 -2.5652  0.1433
  190SOL     OW  858   0.532   5.148   1.583 -0.1726 -0.4060 -0.3216
  190SOL    HW1  859   0.483   5.180   1.664  0.5329 -2.6120  1.0678
  190SOL    HW2  860   0.553   5.225   1.524  0.0697  1.4324  2.0332
  191SOL     OW  861   0.357   2.198   5.066  0.2522  0.6144  0.1647
  191SOL    HW1  862   0.439   2.195   5.008  0.5031  1.1716  0.4765
  191SOL    HW2  863   0.310   2.285   5.052 -0.3128  0.2808 -0.0384
  192SOL     OW  864   5.633   3.809   2.217  0.4044  0.1460 -0.1850
  192SOL    HW1  865   5.591   3.795   2.128  0.1157 -0.1520 -0.0022
  192SOL    HW2  866   5.688   3.893   2.215  0.6377 -0.0168 -0.7275
  193SOL     OW  867   5.953   5.476   5.621  0.4697 -0.2615 -0.2021
  193SOL    HW1  868   5.861   5.449   5.647  1.3597 -0.1657  3.5364
  193SOL    HW2  869   5.957   5.576   5.610  0.4772 -0.0620  1.4504
  194SOL     OW  870   0.580   5.256   2.845 -0.0756  0.5156  0.5981
  194SOL    HW1  871   0.565   5.184   2.913 -3.5137  0.3991 -0.1012
  194SOL    HW2  872   0.602   5.214   2.757 -0.9369  0.3283  0.4588
  195SOL     OW  873   5.001   5.814   3.187 -0.3815  0.4728 -0.2101
  195SOL    HW1  874   5.007   5.795   3.089 -1.4004  2.7166 -0.7771
  195SOL    HW2  875   4.920   5.768   3.225  1.1334 -2.1383  0.1294
  196SOL     OW  876   5.057   2.796   5.204 -0.1193  0.1295  0.0086
  196SOL    HW1  877   5.121   2.773   5.131  0.6155  0.6990  0.4652
  196SOL    HW2  878   5.090   2.759   5.290 -1.4122 -1.2895 -0.0431
  197SOL     OW  879   4.999   2.247   1.615  0.1205 -0.6009  0.4818
  197SOL    HW1  880   4.957   2.319   1.559  2.3632 -0.0503 -0.6126
  197SOL    HW2  881   4.991   2.271   1.712 -3.5856 -1.4314  0.5188
  198SOL     OW  882   5.514   1.850   5.000 -0.1793  0.1832 -0.3926
  198SOL    HW1  883   5.603   1.894   4.996 -0.3674  0.5495 -0.6329
  198SOL    HW2  884   5.446   1.916   5.033 -0.1551 -0.4217  0.9553
  199SOL     OW  885   2.258   4.633   1.073  0.4382  0.3099  0.0202
  199SOL    HW1  886   2.271   4.721   1.028 -0.7202 -0.1190 -1.2184
  199SOL    HW2  887   2.345   4.583   1.074  0.9374  1.1600  0.0933
  200SOL     OW  888   2.764   2.679   1.497 -0.4046 -0.0455 -0.0677
  200SOL    HW1  889   2.787   2.586   1.469  0.1534  0.0110  0.1971
  200SOL    HW2  890   2.815   2.745   1.442 -1.7508  0.1472 -1.1290
  201SOL     OW  891   0.115   1.537   0.331 -0.1705 -0.2789 -1.1182
  201SOL    HW1  892   0.196   1.544   0.272 -0.4350  1.3813 -1.3192
  201SOL    HW2  893   0.121   1.606   0.403 -1.0761 -0.6097 -0.7187
  202SOL     OW  894   1.914   4.105   2.496 -0.0849 -0.0806 -0.1586
  202SOL    HW1  895   1.945   4.181   2.553 -0.9432  0.8713 -0.9177
  202SOL    HW2  896   1.963   4.022   2.521  2.3602  1.1353 -0.6571
  203SOL     OW  897   0.368   3.214   1.815 -0.1823  0.3588  0.2700
  203SOL    HW1  898   0.273   3.240   1.833  0.1866  0.6949  1.9098
  203SOL    HW2  899   0.426   3.249   1.888  1.0766 -0.6455 -0.2164
  204SOL     OW  900   0.698   4.164   2.732  0.0496  0.2273 -0.0995
  204SOL    HW1  901   0.776   4.118   2.691  0.0365 -0.3336  0.4926
  204SOL    HW2  902   0.616   4.146   2.678  0.4053  1.2443 -1.0220
  205SOL     OW  903   5.509   0.800   3.024  0.0004 -0.1056 -0.3830
  205SOL    HW1  904   5.472   0.892   3.012 -1.9898 -0.8439 -0.3739
  205SOL    HW2  905   5.505   0.751   2.936  2.0616  0.1160 -0.6546
  206SOL     OW  906   1.639   5.248   4.137 -0.3549 -0.4293 -0.1593
  206SOL    HW1  907   1.575   5.264   4.213 -0.6347  0.0227 -0.4832
  206SOL    HW2  908   1.715   5.192   4.169 -1.8047 -2.5316 -0.2053
  207SOL     OW  909   2.280   5.869   5.644 -0.0279 -0.7966 -0.3824
  207SOL    HW1  910   2.325   5.931   5.709  0.0041 -1.1281 -0.0856
  207SOL    HW2  911   2.256   5.920   5.561  0.5684 -0.5321 -0.4005
  208SOL     OW  912   3.654   5.304   3.709  0.5797  0.0143  0.0060
  208SOL    HW1  913   3.754   5.308   3.709  0.5945 -0.3636 -0.0470
  208SOL    HW2  914   3.617   5.396   3.724  0.9274  0.5157 -2.0040
  209SOL     OW  915   4.758   2.951   3.013  0.9077 -0.2403 -0.4807
  209SOL    HW1  916   4.694   2.908   2.950  0.0293  0.3349 -0.0100
  209SOL    HW2  917   4.839   2.894   3.023  0.2019 -1.2891 -0.6262
  210SOL     OW  918   2.733   4.727   5.215 -0.3142  0.0031 -0.7067
  210SOL    HW1  919   2.815   4.761   5.167  0.6918 -0.1916  0.8129
  210SOL    HW2  920   2.734   4.627   5.215 -0.6094  0.0000 -0.7666
  211SOL     OW  921   4.459   0.102   0.828  0.4895 -0.2908  0.0409
  211SOL    HW1  922   4.390   0.164   0.866  0.4096 -1.3808  1.7607
  211SOL    HW2  923   4.450   0.012   0.870  2.9524 -0.4888  0.2881
  212SOL     OW  924   5.745   1.188   5.944 -0.2049  0.8854 -0.2076
  212SOL    HW1  925   5.779   1.098   5.971  0.7200  1.1823 -0.3659
  212SOL    HW2  926   5.686   1.178   5.864  0.0430  0.4425 -0.3392
  213SOL     OW  927   4.210   3.526   2.268  0.1996  0.0726  0.1235
  213SOL    HW1  928   4.160   3.555   2.349 -0.3224  1.2107 -0.5656
  213SOL    HW2  929   4.288   3.470   2.294 -1.9747 -2.6855  1.1852
  214SOL     OW  930   2.952   3.875   5.061  0.3524 -0.6200 -0.1531
  214SOL    HW1  931   2.911   3.966   5.053 -0.7654 -1.0896 -0.0152
  214SOL    HW2  932   3.017   3.875   5.137  0.4418  0.0922 -0.2222
  215SOL     OW  933   2.172   1.539   5.180 -0.0573 -0.0200 -0.0763
  215SOL    HW1  934   2.160   1.591   5.095 -1.4444  1.2592  0.8543
  215SOL    HW2  935   2.226   1.457   5.161  1.6505  1.3944 -1.7180
  216SOL     OW  936   5.710   5.555   0.806 -0.2398 -0.6028  0.1646
  216SOL    HW1  937   5.790   5.518   0.853  0.8583  0.6650 -0.6401
  216SOL    HW2  938   5.634   5.490   0.813  1.2963 -2.5447 -0.3836
  217SOL     OW  939   5.421   1.049   4.821  0.1227  0.2416  0.0680
  217SOL    HW1  940   5.333   1.002   4.825 -0.3018  0.9821 -0.3556
  217SOL    HW2  941   5.453   1.066   4.914 -0.9166  1.2764  0.2733
  218SOL     OW  942   2.031   1.377   1.166  0.4459  0.0240 -0.5169
  218SOL    HW1  943   2.047   1.280   1.183  0.1959 -0.1432 -1.2115
  218SOL    HW2  944   2.044   1.397   1.069  2.1962  1.0222 -0.1300
  219SOL     OW  945   1.905   5.746   5.536  0.4083  0.0733 -0.0757
  219SOL    HW1  946   1.953   5.659   5.534  2.5458  1.1905 -1.3742
  219SOL    HW2  947   1.935   5.803   5.459 -0.7661  2.0263  0.8161
  220SOL     OW  948   4.793   2.160   5.832 -0.1206  0.0242  0.1069
  220SOL    HW1  949   4.884   2.199   5.813 -0.4073 -0.0985 -1.6347
  220SOL    HW2  950   4.740   2.156   5.748 -2.2046  1.1976  1.2768
  221SOL     OW  951   0.505   3.035   0.782 -0.2412  0.2260  0.0712
  221SOL    HW1  952   0.461   2.958   0.737  0.5477 -0.2006  0.0166
  221SOL    HW2  953   0.470   3.044   0.875 -0.0240 -0.4718  0.2267
  222SOL     OW  954   5.132   5.315   5.761  0.6476  0.1878 -0.0479
  222SOL    HW1  955   5.124   5.358   5.851  1.0778 -0.1125  0.1372
  222SOL    HW2  956   5.220   5.267   5.755 -0.7795 -2.7016  0.6325
  223SOL     OW  957   0.023   2.622   0.305 -0.0239 -0.3283 -0.3476
  223SOL    HW1  958   0.080   2.564   0.247 -0.4989 -1.4682  0.2825
  223SOL    HW2  959   0.015   2.581   0.395 -0.7346  0.5139 -0.0121
  224SOL     OW  960   1.164   4.622   4.204 -0.6384  0.0384  0.2812
  224SOL    HW1  961   1.254   4.663   4.185 -0.0311 -1.8492 -1.2180
  224SOL    HW2  962   1.131   4.654   4.292  1.6641  0.5343  1.0350
  225SOL     OW  963   4.692   0.491   2.346  0.4475  0.2227  0.0886
  225SOL    HW1  964   4.756   0.476   2.271  1.0985 -2.9672  1.1243
  225SOL    HW2  965   4.598   0.489   2.310  0.7956  1.0683 -0.9130
  226SOL     OW  966   2.722   5.055   4.612 -0.1666  0.2796 -0.0514
  226SOL    HW1  967   2.767   4.979   4.565 -1.0438 -0.4048  0.1833
  226SOL    HW2  968   2.787   5.100   4.672  0.1819 -0.8268  0.4413
  227SOL     OW  969   3.895   0.989   4.284  0.0005  0.1450 -0.3874
  227SOL    HW1  970   3.947   0.931   4.222  0.8977 -0.3032  0.7351
  227SOL    HW2  971   3.814   0.940   4.317  1.0227 -0.7125  0.9483
  228SOL     OW  972   1.908   2.772   5.251  0.0333  0.2255  0.3263
  228SOL    HW1  973   1.870   2.820   5.173 -0.4050  1.6106  1.3614
  228SOL    HW2  974   1.894   2.674   5.240 -1.7032  0.5327 -0.4373
  229SOL     OW  975   5.494   3.292   1.759 -0.0168 -0.1525  0.0849
  229SOL    HW1  976   5.574   3.232   1.766  0.1689 -0.0351 -0.8705
  229SOL    HW2  977   5.451   3.279   1.670  0.7331  1.9708 -0.6533
  230SOL     OW  978   4.935   4.913   1.920  0.2814  0.8348  0.1856
  230SOL    HW1  979   4.920   4.818   1.893 -0.3608  1.1385 -0.5460
  230SOL    HW2  980   4.943   4.918   2.020 -1.1870  0.1937  0.3664
  231SOL     OW  981   5.675   4.312   0.361 -0.4481  0.3262  0.1334
  231SOL    HW1  982   5.619   4.293   0.441 -2.8935 -0.4055 -1.6651
  231SOL    HW2  983   5.656   4.246   0.289  1.1882  1.3437 -1.3300
  232SOL     OW  984   1.781   2.359   1.523 -0.6773  0.3709 -0.1053
  232SOL    HW1  985   1.778   2.427   1.596 -1.0751 -0.1602  0.3768
  232SOL    HW2  986   1.761   2.404   1.436  1.4165  1.3474 -0.1625
  233SOL     OW  987   2.587   4.604   0.632  0.0463  0.8354  0.3480
  233SOL    HW1  988   2.589   4.663   0.713 -1.2604  1.5319 -0.0980
  233SOL    HW2  989   2.592   4.509   0.661 -1.6084  1.0146  1.3723
  234SOL     OW  990   2.363   3.567   0.578  0.0225 -0.7759  0.0210
  234SOL    HW1  991   2.336   3.480   0.537  0.6120 -0.8014 -0.3207
  234SOL    HW2  992   2.459   3.562   0.605 -0.0762 -0.3959  0.4476
  235SOL     OW  993   4.044   5.385   0.193  0.4568 -0.0013  0.0606
  235SOL    HW1  994   4.120   5.324   0.220 -0.3623 -1.1954 -0.2515
  235SOL    HW2  995   3.960   5.332   0.187  0.0488  0.7935 -2.0287
  236SOL     OW  996   5.468   4.440   0.791 -0.4039 -0.5012  0.1003
  236SOL    HW1  997   5.549   4.479   0.834 -1.5221  0.7285  1.1837
  236SOL    HW2  998   5.418   4.512   0.743 -1.3601 -1.0396  0.2702
  237SOL     OW  999   3.645   3.222   2.600 -0.5444  0.4531 -0.1121
  237SOL    HW1 1000   3.596   3.293   2.550  0.1635 -0.2528 -1.8611
  237SOL    HW2 1001   3.579   3.170   2.656 -1.1950  1.8505  0.4661
  238SOL     OW 1002   3.038   3.470   2.236 -0.5970  0.0303  0.1837
  238SOL    HW1 1003   2.973   3.538   2.203  0.4310  0.2316 -1.5483
  238SOL    HW2 1004   3.131   3.500   2.217  0.0358 -0.4464  2.2451
  239SOL     OW 1005   0.509   1.590   5.740  0.4954 -0.1482  0.1253
  239SOL    HW1 1006   0.526   1.599   5.839  1.6390  2.7240 -0.2218
  239SOL    HW2 1007   0.412   1.608   5.722  0.2952 -0.6031  0.6971
  240SOL     OW 1008   2.049   5.839   1.270  0.5658  0.2400  0.2161
  240SOL    HW1 1009   2.147   5.820   1.265  0.5721  0.2046  0.5056
  240SOL    HW2 1010   2.003   5.767   1.321  0.0577 -0.9468 -1.8091
  241SOL     OW 1011   2.806   0.758   0.540 -0.0351 -0.6475  0.2679
  241SOL    HW1 1012   2.789   0.787   0.446 -0.0158 -2.8170 -0.4711
  241SOL    HW2 1013   2.884   0.809   0.577 -0.3862  0.6312 -0.6772
  242SOL     OW 1014   4.731   2.035   0.407 -0.1801 -0.0858 -0.3090
  242SOL    HW1 1015   4.776   1.953   0.442 -0.2588 -0.3413 -0.7972
  242SOL    HW2 1016   4.745   2.041   0.308  0.2705  0.7732 -0.1948
  243SOL     OW 1017   0.789   4.094   3.559 -0.0515  0.1356  0.2043
  243SOL    HW1 1018   0.866   4.033   3.580 -0.1965 -1.4501 -3.1023
  243SOL    HW2 1019   0.705   4.054   3.595  0.4066  1.2700  2.7794
  244SOL     OW 1020   4.551   1.120   2.435 -0.1971 -0.0964 -0.2471
  244SOL    HW1 1021   4.517   1.103   2.528 -0.1283 -1.2002 -0.4120
  244SOL    HW2 1022   4.502   1.061   2.371 -2.5445  2.8237 -1.4067
  245SOL     OW 1023   1.314   3.001   3.901  0.5301 -0.2832 -0.4777
  245SOL    HW1 1024   1.262   3.030   3.981  1.3050  0.1542 -0.1152
  245SOL    HW2 1025   1.391   2.944   3.930  0.2818 -0.8926 -0.9998
  246SOL     OW 1026   2.521   3.106   1.684 -0.1515  0.4885  0.4650
  246SOL    HW1 1027   2.466   3.188   1.705 -0.4693  0.6672 -0.9594
  246SOL    HW2 1028   2.609   3.112   1.731 -0.0393  1.8178  0.1227
  247SOL     OW 1029   5.189   3.372   3.175  0.4917  0.0227  0.3679
  247SOL    HW1 1030   5.235   3.284   3.188 -0.1099 -0.5537 -1.2111
  247SOL    HW2 1031   5.103   3.373   3.225  0.7970 -0.0206  0.9073
  248SOL     OW 1032   0.992   0.301   5.725  0.1841 -0.1742 -0.1597
  248SOL    HW1 1033   1.057   0.340   5.660  0.5173 -1.3995 -0.5883
  248SOL    HW2 1034   1.041   0.265   5.805 -0.0996  0.1317  0.1555
  249SOL     OW 1035   4.543   0.247   2.088 -0.4465  0.5379 -0.5055
  249SOL    HW1 1036   4.629   0.238   2.139 -1.1638 -1.8402  0.4514
  249SOL    HW2 1037   4.541   0.334   2.040  1.7140  1.4303  0.8896
  250SOL     OW 1038   1.962   4.418   4.083 -0.7372  0.1091 -1.0185
  250SOL    HW1 1039   1.905   4.356   4.029  0.2212 -1.1252 -0.6346
  250SOL    HW2 1040   2.020   4.472   4.021 -0.9209 -0.0221 -1.3078
  251SOL     OW 1041   0.293   1.912   2.912  0.5010 -0.7066  0.7164
  251SOL    HW1 1042   0.281   1.994   2.970 -0.4658 -0.2490 -0.1019
  251SOL    HW2 1043   0.265   1.933   2.819  1.1814 -1.7068  0.2733
  252SOL     OW 1044   1.673   3.759   2.587  0.2049  0.2700 -0.4232
  252SOL    HW1 1045   1.622   3.722   2.665  0.4393  2.0636  0.6401
  252SOL    HW2 1046   1.645   3.711   2.504 -2.8335  0.7301  0.1860
  253SOL     OW 1047   5.567   2.412   0.994 -0.0799  0.2507 -0.7340
  253SOL    HW1 1048   5.636   2.455   1.053  0.0075 -0.4692 -0.2938
  253SOL    HW2 1049   5.504   2.482   0.960  0.3129  0.7866 -0.3857
  254SOL     OW 1050   3.495   1.479   0.586  0.3232  0.1213 -0.2493
  254SOL    HW1 1051   3.516   1.574   0.567 -1.0569  0.7433  1.0961
  254SOL    HW2 1052   3.462   1.470   0.680 -0.1485 -1.5804 -0.5370
  255SOL     OW 1053   4.135   2.945   3.269  0.5175  0.0456 -0.0941
  255SOL    HW1 1054   4.194   3.008   3.320  0.8770  0.0144 -0.4653
  255SOL    HW2 1055   4.156   2.952   3.172 -0.7434  0.7311 -0.3436
  256SOL     OW 1056   0.449   5.895   5.278 -0.6270 -0.1931  0.0453
  256SOL    HW1 1057   0.437   5.883   5.376 -1.3217  3.5778  0.5684
  256SOL    HW2 1058   0.373   5.851   5.230 -0.0541 -2.4618  1.0578
  257SOL     OW 1059   0.813   1.952   3.387  0.8765 -0.0134 -0.2098
  257SOL    HW1 1060   0.739   1.980   3.448 -1.8888 -1.3014 -2.7554
  257SOL    HW2 1061   0.887   2.019   3.391 -0.4100  1.3911  2.3546
  258SOL     OW 1062   0.433   3.373   4.511 -0.3555 -0.2066 -0.1683
  258SOL    HW1 1063   0.523   3.332   4.497 -0.1741  0.2839 -0.5113
  258SOL    HW2 1064   0.437   3.436   4.588 -0.2828  0.1379 -0.4465
  259SOL     OW 1065   3.999   0.222   2.324 -0.1147 -0.0204  0.1383
  259SOL    HW1 1066   4.058   0.148   2.294  1.0332  0.5521  0.8998
  259SOL    HW2 1067   3.948   0.194   2.406 -1.3447 -0.7018 -0.8268
  260SOL     OW 1068   2.606   3.667   4.918  0.4125 -0.6484 -0.4163
  260SOL    HW1 1069   2.693   3.632   4.952 -0.0368 -0.8990  0.4994
  260SOL    HW2 1070   2.541   3.674   4.993 -0.4050 -0.5831 -1.1144
  261SOL     OW 1071   2.567   4.033   1.374 -0.2133 -0.1839 -0.0211
  261SOL    HW1 1072   2.606   3.958   1.427 -0.7676 -2.5109 -2.6462
  261SOL    HW2 1073   2.529   3.997   1.288 -1.1124  3.0457 -1.1279
  262SOL     OW 1074   5.478   5.721   0.971  0.1693 -0.1723  0.1732
  262SOL    HW1 1075   5.406   5.769   1.023 -0.0782  0.1469 -0.4482
  262SOL    HW2 1076   5.566   5.766   0.987 -0.0887  0.6287 -0.5408
  263SOL     OW 1077   2.536   0.451   1.617 -0.0188 -0.7838 -0.1438
  263SOL    HW1 1078   2.551   0.361   1.575 -1.0981 -0.7784 -0.5746
  263SOL    HW2 1079   2.554   0.445   1.715 -0.6863 -1.6469 -0.0601
  264SOL     OW 1080   2.206   1.576   3.225 -0.5758 -0.4782  0.1088
  264SOL    HW1 1081   2.251   1.538   3.144  0.5424  0.3977  0.2896
  264SOL    HW2 1082   2.205   1.506   3.297  3.7211  0.3933  1.3070
  265SOL     OW 1083   4.085   2.514   2.829 -0.6768 -0.0625 -0.2549
  265SOL    HW1 1084   4.121   2.555   2.745 -2.6709  3.5040  0.4601
  265SOL    HW2 1085   3.991   2.484   2.813  0.8955 -5.8482 -1.0353
  266SOL     OW 1086   4.601   3.179   1.020  0.3097 -0.0673  0.1826
  266SOL    HW1 1087   4.528   3.225   0.970  2.2869  1.3787 -1.5605
  266SOL    HW2 1088   4.587   3.080   1.017  0.8958 -0.2513 -4.5317
  267SOL     OW 1089   3.911   2.089   5.843 -0.0728  0.0447  0.2165
  267SOL    HW1 1090   3.933   2.175   5.798 -0.8715  0.0627 -0.1439
  267SOL    HW2 1091   3.898   2.017   5.775 -1.2165  0.0554  0.4038
  268SOL     OW 1092   3.342   5.519   5.880 -0.3603 -0.2625  0.3410
  268SOL    HW1 1093   3.294   5.476   5.803  0.8737 -1.4186  0.1803
  268SOL    HW2 1094   3.339   5.618   5.870  0.8673 -0.3785 -1.9308
  269SOL     OW 1095   4.937   0.427   5.322  0.2867  0.3744  0.2415
  269SOL    HW1 1096   5.008   0.494   5.301  0.4411 -0.2775 -1.4584
  269SOL    HW2 1097   4.847   0.472   5.321  0.3294  0.4890 -1.4491
  270SOL     OW 1098   1.896   2.550   5.802 -0.2055  0.1045  0.1299
  270SOL    HW1 1099   1.882   2.558   5.703 -2.0542 -0.6935  0.2835
  270SOL    HW2 1100   1.819   2.592   5.849 -0.6758 -1.8205  1.1703
  271SOL     OW 1101   3.274   1.336   0.433  0.2229  0.5513 -0.0174
  271SOL    HW1 1102   3.351   1.397   0.452 -0.5329  1.5154  0.0735
  271SOL    HW2 1103   3.218   1.327   0.515 -0.0205  0.2522 -0.2165
  272SOL     OW 1104   0.968   1.973   3.937  0.6109 -0.4576 -0.4174
  272SOL    HW1 1105   0.927   1.904   3.996  0.3898  0.0931  0.0817
  272SOL    HW2 1106   0.903   2.048   3.923  0.7915 -0.4169 -1.0776
  273SOL     OW 1107   3.433   1.152   5.130  0.1347 -0.0030  0.3843
  273SOL    HW1 1108   3.481   1.223   5.079  0.5060  0.0629  0.8282
  273SOL    HW2 1109   3.433   1.067   5.076  0.6177  0.0365  0.3209
  274SOL     OW 1110   0.815   0.070   1.286  0.0338 -0.2118 -0.2500
  274SOL    HW1 1111   0.864   0.156   1.300 -0.6823  0.3401 -0.9711
  274SOL    HW2 1112   0.862   0.016   1.217  0.0580 -0.0334 -0.3759
  275SOL     OW 1113   1.232   1.794   4.848 -0.7503  0.5208 -0.0871
  275SOL    HW1 1114   1.221   1.811   4.946  0.2780 -0.9578  0.3153
  275SOL    HW2 1115   1.302   1.724   4.834 -0.1338  1.4505 -1.9399
  276SOL     OW 1116   5.097   2.185   3.311  0.1091  0.8459 -0.7346
  276SOL    HW1 1117   5.005   2.223   3.301  0.3855  2.0316  0.8126
  276SOL    HW2 1118   5.091   2.093   3.349 -0.4255  0.9269 -0.6115
  277SOL     OW 1119   4.085   1.019   4.485  0.3682  1.1311 -0.0034
  277SOL    HW1 1120   4.096   1.111   4.522  0.6893  0.0709  2.7791
  277SOL    HW2 1121   4.010   1.019   4.418 -0.9301  3.0425  1.3244
  278SOL     OW 1122   2.354   5.464   1.518 -0.4440 -0.4980 -0.2451
  278SOL    HW1 1123   2.426   5.517   1.473  1.4982 -0.7148  2.3939
  278SOL    HW2 1124   2.326   5.389   1.459  2.9624 -1.6151 -0.6496
  279SOL     OW 1125   0.847   4.990   0.830  0.2535  0.2845 -0.3795
  279SOL    HW1 1126   0.924   5.024   0.884 -0.0253 -1.5695  1.2884
  279SOL    HW2 1127   0.854   4.891   0.821 -1.2554  0.2356 -1.3202
  280SOL     OW 1128   4.189   4.937   3.658  0.3931  0.3944 -0.7206
  280SOL    HW1 1129   4.142   4.935   3.746  0.7498  0.5279 -0.5252
  280SOL    HW2 1130   4.183   4.846   3.615  1.0830  0.0479 -0.0984
  281SOL     OW 1131   0.055   2.492   4.168  0.4524 -0.5979  0.1149
  281SOL    HW1 1132   0.018   2.406   4.202  3.1466 -1.9681 -0.1330
  281SOL    HW2 1133   0.086   2.548   4.245  0.3538 -0.6466  0.1896
  282SOL     OW 1134   3.169   5.155   2.976  0.3000  0.8761 -0.1219
  282SOL    HW1 1135   3.084   5.162   2.922 -0.4949 -0.8790  0.8340
  282SOL    HW2 1136   3.247   5.164   2.915 -0.5535  1.5490 -1.1736
  283SOL     OW 1137   1.050   5.642   1.003 -0.1061 -0.6514 -0.1837
  283SOL    HW1 1138   0.988   5.646   0.925 -0.6853  0.4081  0.3113
  283SOL    HW2 1139   1.140   5.613   0.972 -0.6348 -1.4635 -1.0396
  284SOL     OW 1140   0.923   4.251   3.803  0.4527 -0.1546 -0.1132
  284SOL    HW1 1141   0.915   4.172   3.743 -0.7427 -1.4062  1.5673
  284SOL    HW2 1142   0.925   4.335   3.749 -3.1694 -1.0093 -1.9138
  285SOL     OW 1143   2.329   4.397   4.819  0.4801 -0.4137  0.6590
  285SOL    HW1 1144   2.236   4.365   4.803  0.6979 -0.6478 -0.1886
  285SOL    HW2 1145   2.327   4.480   4.875 -0.2662 -0.1660  0.2796
  286SOL     OW 1146   4.043   1.097   4.821  0.2775 -0.1887  0.3649
  286SOL    HW1 1147   4.072   1.167   4.755  0.2595 -0.6638 -0.1539
  286SOL    HW2 1148   4.068   1.126   4.913  2.4254 -0.5331 -0.0365
  287SOL     OW 1149   0.233   5.535   1.642  0.2577 -0.2826  0.2093
  287SOL    HW1 1150   0.172   5.479   1.698 -1.7691  0.1379 -1.4456
  287SOL    HW2 1151   0.271   5.609   1.698 -1.1794 -0.2493  1.1943
  288SOL     OW 1152   5.258   1.406   2.173 -0.2127  0.6531 -0.0816
  288SOL    HW1 1153   5.325   1.440   2.108 -1.5160  1.5701 -0.9946
  288SOL    HW2 1154   5.192   1.348   2.125 -0.0370 -0.3222  0.8158
  289SOL     OW 1155   1.235   1.082   4.757  0.1256 -0.4800  0.6703
  289SOL    HW1 1156   1.265   1.115   4.847  0.4175  0.5261  0.2084
  289SOL    HW2 1157   1.207   1.159   4.701 -0.0145 -1.1036 -0.1297
  290SOL     OW 1158   1.042   4.561   2.707 -0.5669 -0.0934 -0.8003
  290SOL    HW1 1159   1.013   4.653   2.681 -1.4413 -0.5345 -1.4544
  290SOL    HW2 1160   0.965   4.513   2.750  0.0102 -0.3714 -0.0725
  291SOL     OW 1161   2.795   2.432   1.394  0.3731 -0.1023 -0.6732
  291SOL    HW1 1162   2.853   2.371   1.340 -1.4652 -0.5701 -2.2419
  291SOL    HW2 1163   2.761   2.383   1.475  1.7202  0.0250 -0.0090
  292SOL     OW 1164   0.802   1.746   5.655 -0.1181  0.2750  0.4146
  292SOL    HW1 1165   0.848   1.834   5.646  1.4239 -0.2706  2.4607
  292SOL    HW2 1166   0.722   1.755   5.715 -0.2214  0.3519  0.2668
  293SOL     OW 1167   3.385   1.008   1.755  0.9600  0.2515  0.2138
  293SOL    HW1 1168   3.350   0.977   1.666 -0.6096  0.7214  0.6271
  293SOL    HW2 1169   3.396   0.929   1.816 -0.7872  0.1792  0.5104
  294SOL     OW 1170   3.108   4.000   3.679  0.5656  0.2166 -0.4011
  294SOL    HW1 1171   3.009   4.004   3.689  0.4842 -1.0073 -0.5745
  294SOL    HW2 1172   3.150   3.998   3.770  0.4060  0.1928 -0.3279
  295SOL     OW 1173   3.236   1.147   5.325 -0.2866 -0.7445  0.0174
  295SOL    HW1 1174   3.317   1.158   5.268 -0.3675  1.3883  0.2190
  295SOL    HW2 1175   3.229   1.052   5.356  1.8521 -1.0703 -0.3693
  296SOL     OW 1176   4.775   1.178   4.166 -0.2240  0.3009  0.3496
  296SOL    HW1 1177   4.833   1.231   4.228  0.1248 -0.2082  0.4675
  296SOL    HW2 1178   4.809   1.084   4.162 -0.5490  0.2055 -0.2215
  297SOL     OW 1179   2.730   0.041   5.727  0.0545  0.0967  0.3069
  297SOL    HW1 1180   2.697   0.069   5.818  2.3873  0.2852  1.1721
  297SOL    HW2 1181   2.793  -0.036   5.737 -0.3757 -0.4890 -1.2769
  298SOL     OW 1182   2.059   0.120   5.718  0.1442  0.7829 -0.2369
  298SOL    HW1 1183   2.036   0.125   5.816 -2.9517 -1.1598 -0.7137
  298SOL    HW2 1184   2.108   0.035   5.700  1.4074  1.5082 -0.2982
  299SOL     OW 1185   3.386   2.831   1.035  0.4984 -0.2911 -0.1480
  299SOL    HW1 1186   3.308   2.873   1.080  0.1834 -0.5447 -0.4473
  299SOL    HW2 1187   3.453   2.901   1.010  0.8960 -0.1951  1.1168
  300SOL     OW 1188   4.896   2.444   1.484 -0.0776 -0.0620  0.4730
  300SOL    HW1 1189   4.938   2.527   1.521  0.6989 -1.5575  3.1757
  300SOL    HW2 1190   4.867   2.461   1.390  2.0304  2.5945  0.1758
  301SOL     OW 1191   0.521   4.282   2.913  0.2206 -0.1242 -0.5934
  301SOL    HW1 1192   0.590   4.211   2.901 -0.3871 -0.9267  0.5115
  301SOL    HW2 1193   0.540   4.333   2.997 -0.9241 -0.8432  0.1294
  302SOL     OW 1194   3.861   1.976   3.650  0.2661 -0.0498  0.0779
  302SOL    HW1 1195   3.921   1.919   3.706 -0.0051 -0.1163  0.3024
  302SOL    HW2 1196   3.915   2.048   3.606  0.5414 -0.2276  0.1229
  303SOL     OW 1197   4.166   5.726   0.016  0.6411  0.0784  0.2057
  303SOL    HW1 1198   4.120   5.741  -0.071  2.3139 -1.0471 -0.9471
  303SOL    HW2 1199   4.109   5.669   0.075 -0.7413  1.2953  0.1066
  304SOL     OW 1200   0.554   4.887   3.995 -0.5019  0.3802 -0.2411
  304SOL    HW1 1201   0.459   4.919   3.994 -1.2518 -1.6683 -0.1153
  304SOL    HW2 1202   0.610   4.949   4.050 -2.2658  0.3683  1.6838
  305SOL     OW 1203   2.028   1.087   5.574 -0.5505  0.3369 -0.0555
  305SOL    HW1 1204   1.939   1.066   5.533 -1.1847  0.6655  1.0960
  305SOL    HW2 1205   2.088   1.129   5.506 -1.5988  0.9690 -0.6083
  306SOL     OW 1206   5.280   3.451   4.382  0.5738 -0.2640 -0.2507
  306SOL    HW1 1207   5.266   3.469   4.285  0.1992  0.9639  0.0167
  306SOL    HW2 1208   5.211   3.498   4.435  1.4995  0.0800  0.6865
  307SOL     OW 1209   4.724   4.868   5.260  0.6005  0.3717 -0.0559
  307SOL    HW1 1210   4.731   4.889   5.162 -0.3611  0.5390 -0.1003
  307SOL    HW2 1211   4.774   4.938   5.312  2.8784 -0.8398 -0.4932
  308SOL     OW 1212   4.828   0.658   3.908  0.0987  0.0837  0.3528
  308SOL    HW1 1213   4.855   0.636   4.002 -0.2566 -0.9581  0.2238
  308SOL    HW2 1214   4.816   0.574   3.856  0.0839  0.6432 -0.5790
  309SOL     OW 1215   0.434   1.042   0.890  0.3632 -0.7873  0.0839
  309SOL    HW1 1216   0.507   1.107   0.910 -0.4549 -0.1222  0.9770
  309SOL    HW2 1217   0.399   1.004   0.976 -0.7694 -0.6188 -0.2882
  310SOL     OW 1218   5.044   5.190   2.225  0.4465 -0.1934  0.0477
  310SOL    HW1 1219   4.966   5.223   2.172  1.4850  0.0368 -1.3785
  310SOL    HW2 1220   5.127   5.238   2.197  1.1930 -0.7142  1.2621
  311SOL     OW 1221   1.525   2.114   4.452 -0.3850 -0.0138 -0.0404
  311SOL    HW1 1222   1.618   2.078   4.437 -0.0004  0.4380  1.1607
  311SOL    HW2 1223   1.514   2.139   4.548 -1.7015  0.1284 -0.2110
  312SOL     OW 1224   5.360   0.659   1.559  0.4000 -0.2632  0.0707
  312SOL    HW1 1225   5.449   0.705   1.556  0.7650 -1.0064 -1.6117
  312SOL    HW2 1226   5.357   0.598   1.639  1.0259  0.4715  0.6702
  313SOL     OW 1227   0.411   3.364   3.799 -0.7756 -0.1609  0.0332
  313SOL    HW1 1228   0.464   3.375   3.883 -0.1070 -1.5215 -0.1834
  313SOL    HW2 1229   0.368   3.273   3.799 -1.9749  0.3863 -0.4360
  314SOL     OW 1230   0.087   3.155   3.587 -0.1283  0.1138  0.0124
  314SOL    HW1 1231   0.148   3.225   3.548  1.6897 -1.0696  0.5948
  314SOL    HW2 1232   0.046   3.102   3.513  0.5463  0.1234 -0.3777
  315SOL     OW 1233   0.787   0.884   0.567  0.1448 -0.2152  0.6084
  315SOL    HW1 1234   0.783   0.983   0.550  2.0277 -0.1826  0.0384
  315SOL    HW2 1235   0.834   0.840   0.490  0.2194 -1.4190  1.3248
  316SOL     OW 1236   5.752   4.666   3.897 -0.1304  0.5584  0.5113
  316SOL    HW1 1237   5.792   4.716   3.974  0.1806  2.8907 -1.0624
  316SOL    HW2 1238   5.670   4.713   3.865  0.4335  0.3701 -1.3348
  317SOL     OW 1239   4.734   4.544   2.410 -0.5966 -0.3136 -0.1241
  317SOL    HW1 1240   4.753   4.449   2.432  0.2125 -0.2653 -0.5798
  317SOL    HW2 1241   4.777   4.568   2.323 -0.8069  0.4601 -0.0277
  318SOL     OW 1242   1.329   5.770   0.125  0.4332  0.2194 -0.1146
  318SOL    HW1 1243   1.406   5.720   0.085  1.0705  1.3213 -0.3361
  318SOL    HW2 1244   1.351   5.794   0.220 -1.2785 -2.8215  1.1940
  319SOL     OW 1245   5.944   4.224   0.346  0.4474 -0.0114  0.8705
  319SOL    HW1 1246   5.856   4.271   0.347  1.1878  1.4567  0.2369
  319SOL    HW2 1247   5.930   4.126   0.365 -1.4973 -0.1095 -0.7085
  320SOL     OW 1248   1.146   3.091   4.105 -0.2383  0.8993 -0.3938
  320SOL    HW1 1249   1.126   3.189   4.109  0.6442  1.0840 -0.4187
  320SOL    HW2 1250   1.062   3.040   4.125  0.0478  1.6444  3.5324
  321SOL     OW 1251   3.426   5.836   4.224  0.0977 -0.3457  0.2743
  321SOL    HW1 1252   3.425   5.736   4.227  2.2951 -0.4128  0.8646
  321SOL    HW2 1253   3.461   5.866   4.135 -1.3561 -0.0590 -0.2172
  322SOL     OW 1254   5.787   0.112   3.839 -0.0170 -0.1704  0.5774
  322SOL    HW1 1255   5.858   0.177   3.813 -0.4029  0.3646  0.8495
  322SOL    HW2 1256   5.809   0.022   3.802  0.4459  0.1466  0.0747
  323SOL     OW 1257   1.824   1.755   1.474 -0.0114 -0.4896 -0.7217
  323SOL    HW1 1258   1.897   1.816   1.504 -0.5370  0.4256 -1.2684
  323SOL    HW2 1259   1.864   1.668   1.445  0.8679  0.0213 -1.0781
  324SOL     OW 1260   0.576   5.730   3.520  0.1014  0.0423 -0.7374
  324SOL    HW1 1261   0.484   5.700   3.546 -0.4032  0.3272 -2.1124
  324SOL    HW2 1262   0.604   5.806   3.579  0.7017 -1.9013  1.6381
  325SOL     OW 1263   1.476   5.705   2.140  0.3397  0.2243  0.3463
  325SOL    HW1 1264   1.506   5.801   2.141  0.4352  0.1875  1.0220
  325SOL    HW2 1265   1.524   5.654   2.211  0.8537 -0.5075 -0.4909
  326SOL     OW 1266   2.190   1.881   3.661  0.0243 -0.2867  0.3016
  326SOL    HW1 1267   2.172   1.786   3.687  0.9142 -0.1874  1.3476
  326SOL    HW2 1268   2.106   1.921   3.625 -0.5449 -1.2729  0.4722
  327SOL     OW 1269   5.437   5.969   4.842  0.1981 -0.1324 -0.0345
  327SOL    HW1 1270   5.518   5.997   4.894  0.6649  0.8984 -1.2695
  327SOL    HW2 1271   5.456   5.885   4.791  0.3288 -0.1497  0.0455
  328SOL     OW 1272   1.169   0.390   0.307  0.2993 -0.1751  0.6964
  328SOL    HW1 1273   1.077   0.429   0.308  0.4614  0.2163  1.8823
  328SOL    HW2 1274   1.162   0.291   0.291 -0.1244  0.1999 -1.9937
  329SOL     OW 1275   4.470   0.737   2.410  0.1909  0.5235  0.0142
  329SOL    HW1 1276   4.471   0.827   2.367 -0.2526  0.0915 -0.9306
  329SOL    HW2 1277   4.548   0.729   2.473  0.7538  1.2397 -0.5769
  330SOL     OW 1278   0.269   3.975   0.112  0.3055 -0.1512  0.9946
  330SOL    HW1 1279   0.355   3.938   0.077  1.5557  3.7896 -0.6109
  330SOL    HW2 1280   0.287   4.037   0.188 -0.9882  1.1766  0.2781
  331SOL     OW 1281   0.199   2.660   3.494  0.1580 -0.3772  0.0079
  331SOL    HW1 1282   0.127   2.672   3.562  1.3477 -0.9090  1.3896
  331SOL    HW2 1283   0.221   2.563   3.485  1.4295 -0.1395  0.3981
  332SOL     OW 1284   4.138   3.897   0.128 -0.1903 -0.2586 -0.0710
  332SOL    HW1 1285   4.150   3.995   0.143  1.1557 -0.4333  0.1167
  332SOL    HW2 1286   4.184   3.846   0.202  1.7253 -1.0641 -1.7277
  333SOL     OW 1287   4.912   3.631   2.105  0.4972  0.3510 -0.5175
  333SOL    HW1 1288   4.911   3.539   2.066  0.9276  0.2240 -0.2388
  333SOL    HW2 1289   4.825   3.648   2.151  0.9236 -0.4531  0.6300
  334SOL     OW 1290   0.180   3.392   0.304  0.7798  0.4172  0.6447
  334SOL    HW1 1291   0.194   3.293   0.306  1.0291  0.2918 -2.2833
  334SOL    HW2 1292   0.244   3.436   0.367  2.0586 -1.1829  0.5417
  335SOL     OW 1293   2.421   1.556   4.969 -0.3946 -0.4398 -0.0817
  335SOL    HW1 1294   2.501   1.583   4.915 -1.5083 -0.4042 -1.7583
  335SOL    HW2 1295   2.447   1.483   5.032  1.2270  0.3892  0.2801
  336SOL     OW 1296   2.182   1.649   5.414 -0.7158  0.4472 -0.0279
  336SOL    HW1 1297   2.217   1.614   5.326  0.3523  0.4822  0.3713
  336SOL    HW2 1298   2.143   1.573   5.466  0.5221  0.0183  0.3276
  337SOL     OW 1299   0.245   3.787   1.906 -0.0152  0.0512  0.2702
  337SOL    HW1 1300   0.198   3.753   1.824  0.5205  1.5631 -0.7007
  337SOL    HW2 1301   0.177   3.812   1.975 -0.5400 -0.0440 -0.2021
  338SOL     OW 1302   2.518   5.574   3.961  0.2010 -0.3541  0.2301
  338SOL    HW1 1303   2.526   5.560   3.863 -1.1985  2.0852 -0.2869
  338SOL    HW2 1304   2.552   5.664   3.986 -0.8749 -0.3190  1.7565
  339SOL     OW 1305   2.585   5.507   2.994  0.1961 -0.3048  0.6886
  339SOL    HW1 1306   2.538   5.511   2.906 -2.2027  0.3023  1.9089
  339SOL    HW2 1307   2.542   5.436   3.051  1.1334 -0.1025  1.6773
  340SOL     OW 1308   4.933   5.302   1.831  0.1759  0.2343 -0.0609
  340SOL    HW1 1309   4.928   5.383   1.772  1.3397  0.1742 -0.2654
  340SOL    HW2 1310   5.023   5.260   1.822  0.9610  1.0209  2.7788
  341SOL     OW 1311   5.007   3.639   4.221  0.5530 -0.4720  0.1117
  341SOL    HW1 1312   4.960   3.638   4.133  3.9192 -1.3522 -1.8587
  341SOL    HW2 1313   5.036   3.733   4.242 -0.0375 -0.3022  0.1962
  342SOL     OW 1314   1.516   3.525   3.098  0.2863 -0.3680  0.6370
  342SOL    HW1 1315   1.525   3.440   3.046 -0.8572 -0.3954  0.4555
  342SOL    HW2 1316   1.512   3.505   3.196  0.3920 -0.4934  0.6155
  343SOL     OW 1317   2.645   1.625   4.811  0.0605 -0.4014 -0.8771
  343SOL    HW1 1318   2.734   1.581   4.818  0.2012 -0.3870 -2.2897
  343SOL    HW2 1319   2.658   1.721   4.785 -0.3702 -0.3458 -0.8885
  344SOL     OW 1320   0.613   1.457   4.327  0.2207  0.4728  0.0141
  344SOL    HW1 1321   0.517   1.459   4.298 -0.6824 -4.2057  1.7631
  344SOL    HW2 1322   0.621   1.487   4.422 -0.3161 -2.4240  1.0837
  345SOL     OW 1323   0.148   2.763   2.239  0.5155  0.1190 -0.5704
  345SOL    HW1 1324   0.244   2.759   2.208  0.6664  0.2586 -0.1258
  345SOL    HW2 1325   0.111   2.670   2.243  0.6834  0.0514 -0.5765
  346SOL     OW 1326   2.118   4.267   3.311 -0.7568  0.4181 -0.3522
  346SOL    HW1 1327   2.135   4.357   3.352 -0.4987  0.9356 -1.5479
  346SOL    HW2 1328   2.072   4.208   3.377  0.3845  0.9435  0.9474
  347SOL     OW 1329   5.416   0.736   5.709  0.5721  0.2459 -0.3568
  347SOL    HW1 1330   5.441   0.730   5.806 -1.7141 -0.1557  0.2734
  347SOL    HW2 1331   5.353   0.662   5.687  0.8715  0.4806 -2.1116
  348SOL     OW 1332   3.453   5.820   2.589  0.1846  0.2613  0.1968
  348SOL    HW1 1333   3.447   5.891   2.519 -0.8914  0.6481  0.6587
  348SOL    HW2 1334   3.543   5.776   2.585  0.1046  0.1961 -1.4967
  349SOL     OW 1335   3.273   2.465   2.206 -0.5514 -0.1043  0.0892
  349SOL    HW1 1336   3.348   2.528   2.226 -2.0738  1.1778  2.1711
  349SOL    HW2 1337   3.191   2.517   2.181 -1.4365 -1.3122  0.3568
  350SOL     OW 1338   1.985   4.812   5.186  0.7756 -0.0768 -0.0056
  350SOL    HW1 1339   1.942   4.886   5.237 -0.0550 -2.3953  2.9394
  350SOL    HW2 1340   2.050   4.850   5.120  1.3540  3.1872  2.2204
  351SOL     OW 1341   1.458   2.324   4.025 -0.3841  0.4864  0.4708
  351SOL    HW1 1342   1.519   2.383   3.973  2.9717 -3.6493 -0.8345
  351SOL    HW2 1343   1.473   2.339   4.123  0.2969  1.8024  0.1890
  352SOL     OW 1344   2.248   0.928   0.961 -0.0924 -0.0143 -0.7258
  352SOL    HW1 1345   2.197   0.883   1.035  1.0692  0.0056  0.1175
  352SOL    HW2 1346   2.338   0.955   0.995  0.3190  0.3449 -2.0549
  353SOL     OW 1347   4.287   3.217   0.447  0.2739  0.2805 -0.5661
  353SOL    HW1 1348   4.308   3.298   0.392  0.4266 -0.6693 -1.9471
  353SOL    HW2 1349   4.192   3.190   0.432  0.3352 -0.0260 -0.4134
  354SOL     OW 1350   0.863   3.065   2.899 -0.4212  0.6627  0.3990
  354SOL    HW1 1351   0.805   3.066   2.981 -2.0650 -0.3253 -0.6709
  354SOL    HW2 1352   0.831   3.134   2.835  0.5858  1.1462  0.4051
  355SOL     OW 1353   3.962   3.276   5.750 -0.1649  0.2875  1.1169
  355SOL    HW1 1354   3.979   3.227   5.664  3.9530  3.4872 -0.1589
  355SOL    HW2 1355   4.031   3.250   5.818  0.2388  2.0357  1.4170
  356SOL     OW 1356   2.041   1.834   4.776 -0.1766 -0.0501 -0.3198
  356SOL    HW1 1357   2.054   1.934   4.778 -1.7935  0.1832  0.1704
  356SOL    HW2 1358   2.103   1.791   4.841 -0.1396  0.7415  0.1877
  357SOL     OW 1359   2.839   4.454   1.490  0.6875 -0.0982  0.4578
  357SOL    HW1 1360   2.886   4.493   1.411 -1.0683  1.2471  0.0087
  357SOL    HW2 1361   2.774   4.383   1.459 -0.6491  1.0463  0.5384
  358SOL     OW 1362   3.502   0.942   4.906 -0.0170  0.0739 -0.3436
  358SOL    HW1 1363   3.519   1.023   4.849  1.9862 -0.4593 -0.5647
  358SOL    HW2 1364   3.439   0.880   4.858 -0.9627  1.1171 -0.4987
  359SOL     OW 1365   4.519   5.905   0.013  0.1026  0.2634 -1.1019
  359SOL    HW1 1366   4.510   5.823   0.070 -0.9560 -0.2788 -2.0076
  359SOL    HW2 1367   4.552   5.879  -0.078  1.5148  1.0877 -0.8685
  360SOL     OW 1368   2.819   1.785   1.750 -0.2912  0.1507 -0.0987
  360SOL    HW1 1369   2.895   1.819   1.806 -0.0182 -0.3730 -0.1552
  360SOL    HW2 1370   2.854   1.730   1.675 -0.6210  1.2613 -1.1034
  361SOL     OW 1371   0.195   2.675   1.120  0.5759  0.3321  0.5337
  361SOL    HW1 1372   0.210   2.746   1.051 -1.0571  1.1189  0.9327
  361SOL    HW2 1373   0.189   2.586   1.075  1.5083  0.5672 -0.0976
  362SOL     OW 1374   3.547   3.832   4.399  0.3025 -0.1659  0.1346
  362SOL    HW1 1375   3.566   3.816   4.302 -1.2125 -0.5579 -0.1188
  362SOL    HW2 1376   3.633   3.833   4.450  0.9676 -3.7026 -0.6482
  363SOL     OW 1377   4.468   0.749   5.644  0.1268  0.1048  0.4246
  363SOL    HW1 1378   4.554   0.727   5.598 -0.4267  1.1495 -1.1859
  363SOL    HW2 1379   4.472   0.719   5.739  1.9944 -0.5026  0.1806
  364SOL     OW 1380   1.826   3.210   1.033  0.4982  0.0812 -0.0365
  364SOL    HW1 1381   1.741   3.159   1.021 -0.8562  2.3512 -0.8156
  364SOL    HW2 1382   1.847   3.219   1.130  0.4961 -1.4632  0.1277
  365SOL     OW 1383   4.077   2.430   2.461 -0.2357 -0.4853 -0.4040
  365SOL    HW1 1384   4.103   2.507   2.518 -1.9212 -1.7197  2.2158
  365SOL    HW2 1385   4.151   2.362   2.462 -0.1471 -0.3844  0.0921
  366SOL     OW 1386   1.524   3.144   5.730  0.2717 -0.3016  0.1052
  366SOL    HW1 1387   1.435   3.128   5.775  0.7662 -0.0766  1.2042
  366SOL    HW2 1388   1.519   3.229   5.678 -0.8352 -1.4182 -1.7108
  367SOL     OW 1389   4.828   3.080   3.463 -0.0734 -0.2201  0.1342
  367SOL    HW1 1390   4.777   3.003   3.423 -1.3944  0.0910  1.1649
  367SOL    HW2 1391   4.796   3.097   3.556 -0.1899  1.9203 -0.2529
  368SOL     OW 1392   5.726   5.072   2.339 -0.5453  0.4453  0.2654
  368SOL    HW1 1393   5.801   5.006   2.345  0.5241  1.7285  1.8279
  368SOL    HW2 1394   5.727   5.115   2.249  1.5947  1.5327  0.7501
  369SOL     OW 1395   3.814   4.604   1.486 -0.2652  0.3169 -0.0255
  369SOL    HW1 1396   3.730   4.629   1.438  0.5784  1.3986 -0.9938
  369SOL    HW2 1397   3.802   4.621   1.584 -1.5028 -0.5256 -0.0074
  370SOL     OW 1398   0.204   3.318   5.638 -0.2767 -0.6449  0.4327
  370SOL    HW1 1399   0.280   3.262   5.671 -0.7421 -1.5559 -0.0110
  370SOL    HW2 1400   0.240   3.387   5.575  0.4726  0.4584  2.0262
  371SOL     OW 1401   2.230   5.165   0.922 -0.2831  0.6287 -0.2042
  371SOL    HW1 1402   2.278   5.149   0.836  1.3747  1.2050  0.5622
  371SOL    HW2 1403   2.192   5.079   0.956 -1.3715  0.4780 -1.7060
  372SOL     OW 1404   3.270   1.888   3.647 -0.2159 -0.0817 -0.0864
  372SOL    HW1 1405   3.274   1.987   3.642 -0.5847 -0.0162  0.7813
  372SOL    HW2 1406   3.211   1.853   3.574  0.2063  0.2993 -0.6215
  373SOL     OW 1407   3.461   4.458   5.948 -0.4692  0.1656 -0.1244
  373SOL    HW1 1408   3.430   4.491   5.858 -1.3346  0.0953  0.1384
  373SOL    HW2 1409   3.557   4.482   5.961 -0.7829  1.6307 -0.3812
  374SOL     OW 1410   4.159   4.838   2.469  0.2598  0.3702 -0.1518
  374SOL    HW1 1411   4.228   4.910   2.479  1.0783 -0.4756  0.4987
  374SOL    HW2 1412   4.074   4.878   2.435  1.3201  1.3101 -1.8758
  375SOL     OW 1413   1.772   4.190   0.436 -0.0985 -0.0742 -0.3062
  375SOL    HW1 1414   1.732   4.165   0.524 -0.8056 -0.3194 -0.6918
  375SOL    HW2 1415   1.790   4.108   0.383  1.8431 -0.0560  0.2280
  376SOL     OW 1416   3.438   4.973   1.143  0.2368 -0.0429  0.0015
  376SOL    HW1 1417   3.528   4.953   1.182  0.9799  0.4738 -1.3869
  376SOL    HW2 1418   3.373   4.903   1.173  1.4655 -1.3662 -0.2817
  377SOL     OW 1419   2.078   5.014   3.911 -0.2224  0.1058 -0.5942
  377SOL    HW1 1420   1.991   5.057   3.887 -1.2977 -1.7399 -0.1213
  377SOL    HW2 1421   2.090   5.014   4.010  1.3194  2.1477 -0.7011
  378SOL     OW 1422   5.092   4.562   0.874 -0.3499 -0.3336  0.0053
  378SOL    HW1 1423   5.105   4.468   0.906 -0.2637 -0.1714  0.4462
  378SOL    HW2 1424   5.086   4.562   0.774  3.9948 -0.4044 -0.4479
  379SOL     OW 1425   2.919   4.355   4.889 -0.6937  0.4034  0.2062
  379SOL    HW1 1426   3.010   4.374   4.927 -0.3750  0.1157 -0.4095
  379SOL    HW2 1427   2.882   4.438   4.846  0.1583  0.0042 -1.3585
  380SOL     OW 1428   4.069   0.594   1.726 -0.1587 -0.0856  0.7070
  380SOL    HW1 1429   4.048   0.687   1.694 -0.8996 -0.1975  0.8551
  380SOL    HW2 1430   4.105   0.540   1.650 -1.4108 -0.1941  0.1643
  381SOL     OW 1431   4.578   2.547   5.831  0.0435 -0.0292  0.2892
  381SOL    HW1 1432   4.587   2.521   5.735  1.3948 -0.0876  0.4188
  381SOL    HW2 1433   4.598   2.468   5.890 -1.0523 -0.0743  0.6405
  382SOL     OW 1434   1.802   4.088   1.095 -0.5600 -0.0072  0.1367
  382SOL    HW1 1435   1.734   4.092   1.021 -1.0233 -2.7993  0.2708
  382SOL    HW2 1436   1.882   4.037   1.063  1.7108  3.4260 -0.0898
  383SOL     OW 1437   2.731   3.756   2.245 -0.3035 -0.0448 -0.3484
  383SOL    HW1 1438   2.711   3.853   2.230  0.6383  0.3401  0.6940
  383SOL    HW2 1439   2.756   3.713   2.159 -1.2566  0.4900 -0.9201
  384SOL     OW 1440   3.101   2.835   4.585  0.3092  0.0434  0.6057
  384SOL    HW1 1441   3.166   2.844   4.509 -0.2798 -1.1950 -0.0776
  384SOL    HW2 1442   3.150   2.838   4.672  1.2625 -0.6119  0.1059
  385SOL     OW 1443   5.166   5.848   1.481  0.9057 -0.2337  0.5265
  385SOL    HW1 1444   5.252   5.898   1.473 -0.2310  1.5605 -1.6715
  385SOL    HW2 1445   5.165   5.797   1.566  4.3073 -0.6937  0.4147
  386SOL     OW 1446   1.587   2.535   0.159 -0.2939  0.0808  0.1729
  386SOL    HW1 1447   1.538   2.616   0.127 -1.7599 -0.8953 -0.1543
  386SOL    HW2 1448   1.627   2.487   0.081 -0.2664 -0.0270  0.2534
  387SOL     OW 1449   0.176   0.177   0.236 -0.3067  0.1634  0.1576
  387SOL    HW1 1450   0.127   0.090   0.245  0.2838 -0.2075 -0.1135
  387SOL    HW2 1451   0.236   0.189   0.314 -1.6167  1.1447  1.0457
  388SOL     OW 1452   5.258   5.057   4.502 -0.1297 -0.3179  0.4892
  388SOL    HW1 1453   5.261   5.157   4.501 -3.0798 -0.1728 -0.4682
  388SOL    HW2 1454   5.318   5.021   4.430 -1.0462  0.8829 -0.9187
  389SOL     OW 1455   3.115   3.378   1.591  0.7055  0.1059  0.5157
  389SOL    HW1 1456   3.190   3.319   1.620  0.6588 -0.1807  0.0598
  389SOL    HW2 1457   3.106   3.454   1.655 -0.3236 -1.2764  2.1117
  390SOL     OW 1458   0.357   3.141   2.221  0.0207 -0.5099 -0.6382
  390SOL    HW1 1459   0.368   3.238   2.243 -0.2167 -0.4163 -0.9194
  390SOL    HW2 1460   0.275   3.129   2.165 -0.7602 -1.0608  0.6001
  391SOL     OW 1461   3.998   0.970   3.275  0.3206  0.0984  0.0559
  391SOL    HW1 1462   4.035   0.892   3.225 -0.8048  0.5170 -1.5218
  391SOL    HW2 1463   3.995   1.050   3.215 -1.8062  0.4319  0.5215
  392SOL     OW 1464   5.239   1.385   5.616  0.6588 -0.0966  0.1879
  392SOL    HW1 1465   5.289   1.441   5.682  0.7527  1.2875 -1.0003
  392SOL    HW2 1466   5.256   1.420   5.524 -2.4282  0.4001 -0.2774
  393SOL     OW 1467   5.092   1.501   3.403  0.2565 -0.4343  0.4158
  393SOL    HW1 1468   5.176   1.471   3.449  1.2800  0.5545 -0.7491
  393SOL    HW2 1469   5.036   1.421   3.381 -0.0131 -0.9883  2.8291
  394SOL     OW 1470   5.878   0.360   1.017  0.1369  0.3050  0.2859
  394SOL    HW1 1471   5.874   0.430   1.089  0.1660  0.7490 -0.1363
  394SOL    HW2 1472   5.786   0.343   0.982  0.2686  0.9484 -0.3809
  395SOL     OW 1473   2.548   4.527   1.316 -0.3477  0.2704  0.1117
  395SOL    HW1 1474   2.525   4.541   1.219 -1.7209  0.3104  0.4151
  395SOL    HW2 1475   2.496   4.449   1.351  2.0331 -1.3837  0.1977
  396SOL     OW 1476   4.546   0.450   4.928  0.3624 -0.0176 -0.3288
  396SOL    HW1 1477   4.474   0.482   4.866 -0.3634 -0.7737  0.1134
  396SOL    HW2 1478   4.593   0.530   4.967  0.8058  0.4718 -1.7968
  397SOL     OW 1479   1.577   3.732   3.972 -0.6070 -0.5364 -0.4366
  397SOL    HW1 1480   1.537   3.804   3.915 -0.7826 -0.2893 -0.0025
  397SOL    HW2 1481   1.537   3.735   4.063 -0.0230 -0.6626 -0.1691
  398SOL     OW 1482   3.879   4.943   4.636  0.3253  0.5389  0.3486
  398SOL    HW1 1483   3.860   4.868   4.699 -1.9910 -0.2202 -1.1185
  398SOL    HW2 1484   3.978   4.953   4.624  0.7456 -3.0845 -0.2827
  399SOL     OW 1485   4.487   4.954   0.097 -0.3130  0.3234 -0.4963
  399SOL    HW1 1486   4.415   4.899   0.139  0.7578  0.3554  1.4520
  399SOL    HW2 1487   4.551   4.894   0.049  0.5584 -0.1162  1.1709
  400SOL     OW 1488   1.692   0.057   1.841  0.0496 -0.6311 -0.2476
  400SOL    HW1 1489   1.692   0.044   1.742 -2.2215 -1.0468 -0.2558
  400SOL    HW2 1490   1.620   0.121   1.866  1.7071  0.8061  1.0342
  401SOL     OW 1491   2.423   4.259   1.112 -0.9243  0.3968  0.1990
  401SOL    HW1 1492   2.439   4.174   1.061  1.1945  1.5732 -1.2480
  401SOL    HW2 1493   2.395   4.236   1.205  2.0772 -2.0189  0.6899
  402SOL     OW 1494   0.475   0.634   0.468  0.0995 -0.1991  0.2841
  402SOL    HW1 1495   0.500   0.636   0.371 -0.0428 -0.7624  0.2369
  402SOL    HW2 1496   0.522   0.709   0.516  0.1879  0.0652 -0.2124
  403SOL     OW 1497   1.585   3.840   1.632  0.0702 -0.1101  0.1451
  403SOL    HW1 1498   1.642   3.806   1.706 -0.7461 -0.0384  0.8162
  403SOL    HW2 1499   1.488   3.826   1.654 -0.1858 -0.2434 -0.9796
  404SOL     OW 1500   0.997   4.237   0.929  0.2686 -0.2330  0.5085
  404SOL    HW1 1501   0.994   4.260   0.831  2.5355 -1.6436  0.0406
  404SOL    HW2 1502   0.906   4.212   0.960 -0.4640  0.0478 -1.2945
  405SOL     OW 1503   0.996   2.157   2.780 -0.3380 -0.4698 -0.2453
  405SOL    HW1 1504   1.025   2.109   2.697  0.3229 -1.0562  0.3037
  405SOL    HW2 1505   0.900   2.137   2.798 -1.0504  1.1773 -1.8767
  406SOL     OW 1506   0.199   5.681   0.481 -0.9230 -0.3521  0.1190
  406SOL    HW1 1507   0.171   5.589   0.507 -1.8266 -0.1524 -0.1378
  406SOL    HW2 1508   0.186   5.743   0.559  2.1940 -0.8955  1.2282
  407SOL     OW 1509   4.634   5.125   2.319  0.1779 -0.5365  0.2314
  407SOL    HW1 1510   4.622   5.121   2.220  1.5330 -0.1260  0.0233
  407SOL    HW2 1511   4.598   5.212   2.354 -0.3108 -0.6872  0.1066
  408SOL     OW 1512   5.314   0.147   2.833  0.0830 -0.0650  0.2744
  408SOL    HW1 1513   5.254   0.111   2.761 -0.7592  1.4037  0.1956
  408SOL    HW2 1514   5.383   0.208   2.792 -1.7959  2.6207  0.7954
  409SOL     OW 1515   3.121   3.759   4.583 -0.1481  0.1472 -0.7926
  409SOL    HW1 1516   3.071   3.703   4.648  0.1256  0.7894 -0.0158
  409SOL    HW2 1517   3.206   3.714   4.557 -0.1977 -0.0498 -0.6092
  410SOL     OW 1518   1.873   3.604   1.699 -1.1344  0.0777 -0.2569
  410SOL    HW1 1519   1.826   3.567   1.619  0.7266 -0.7598 -1.0208
  410SOL    HW2 1520   1.962   3.561   1.708 -0.2197  2.0494  0.7668
  411SOL     OW 1521   4.127   0.358   4.370  0.3817 -0.0095 -0.6446
  411SOL    HW1 1522   4.083   0.382   4.284  0.6984 -3.8463 -2.0581
  411SOL    HW2 1523   4.222   0.333   4.353  0.3983 -1.0142  0.7899
  412SOL     OW 1524   0.467   1.216   5.824 -0.2598 -0.6358  0.2124
  412SOL    HW1 1525   0.385   1.180   5.779 -1.1654 -0.5028  1.7110
  412SOL    HW2 1526   0.528   1.256   5.755 -1.4152 -0.7762 -0.9239
  413SOL     OW 1527   3.000   1.602   3.053  0.0772 -0.0906  0.0415
  413SOL    HW1 1528   3.083   1.617   3.106 -1.0415  2.1665  1.2986
  413SOL    HW2 1529   3.024   1.578   2.959  2.0967 -1.5793  0.8610
  414SOL     OW 1530   4.665   3.227   0.181  0.4735 -0.0839  0.0687
  414SOL    HW1 1531   4.601   3.150   0.179  2.6727 -2.1551  1.9928
  414SOL    HW2 1532   4.717   3.230   0.096  0.3614 -0.7410 -0.0265
  415SOL     OW 1533   1.516   0.326   1.295  0.2185 -0.1661  0.8724
  415SOL    HW1 1534   1.442   0.286   1.241  1.2350 -2.9309  1.3622
  415SOL    HW2 1535   1.597   0.337   1.237  0.2987  0.0645  1.0298
  416SOL     OW 1536   0.567   0.983   5.947  0.1264  0.0507  0.1290
  416SOL    HW1 1537   0.531   1.067   5.906  0.2865  0.9793  1.8021
  416SOL    HW2 1538   0.650   0.955   5.898 -0.3398  0.4233 -0.9129
  417SOL     OW 1539   5.170   2.312   3.058  0.4461 -0.2817  0.6168
  417SOL    HW1 1540   5.143   2.408   3.055  1.4195 -0.0048  0.3470
  417SOL    HW2 1541   5.165   2.279   3.152  1.7756  0.5433  1.0073
  418SOL     OW 1542   2.863   0.828   4.278  0.2321  0.1540  0.0223
  418SOL    HW1 1543   2.779   0.879   4.258  0.5601  0.6130 -0.2016
  418SOL    HW2 1544   2.840   0.731   4.292 -0.0343 -0.2623 -2.7667
  419SOL     OW 1545   5.810   2.475   1.926 -0.2140 -0.2062  0.3985
  419SOL    HW1 1546   5.805   2.575   1.926 -0.0746 -0.0262 -3.7311
  419SOL    HW2 1547   5.730   2.438   1.879  2.5053 -1.5210 -3.6825
  420SOL     OW 1548   1.088   3.230   3.428 -0.3147  0.1994 -0.3176
  420SOL    HW1 1549   0.997   3.226   3.470  0.1830  0.6735  0.8618
  420SOL    HW2 1550   1.081   3.272   3.337 -1.2541  0.3929 -0.1664
  421SOL     OW 1551   1.581   0.776   0.679 -0.1733 -0.5628 -0.4486
  421SOL    HW1 1552   1.570   0.756   0.582  0.2063  0.9746 -0.8401
  421SOL    HW2 1553   1.504   0.737   0.730 -1.2746  0.0440 -1.5869
  422SOL     OW 1554   5.040   4.094   0.326 -0.1372 -0.0973 -0.3565
  422SOL    HW1 1555   5.093   4.111   0.243  0.8107 -3.5214 -0.6106
  422SOL    HW2 1556   5.008   3.999   0.326  0.4012 -0.4369  3.4336
  423SOL     OW 1557   1.909   0.593   2.985  0.1170  0.2858 -0.8162
  423SOL    HW1 1558   1.831   0.612   2.925 -3.0105  1.5425  3.1894
  423SOL    HW2 1559   1.892   0.509   3.037 -1.6539  3.1839  4.0254
  424SOL     OW 1560   1.112   1.982   2.599  0.0258  0.0752 -0.0429
  424SOL    HW1 1561   1.076   1.893   2.626  0.0597  0.3866  1.0704
  424SOL    HW2 1562   1.197   2.000   2.648  0.0898  0.6602 -0.3595
  425SOL     OW 1563   5.331   4.077   5.793  0.7286  0.4438 -0.0225
  425SOL    HW1 1564   5.430   4.069   5.780  0.8284  0.2775  0.8092
  425SOL    HW2 1565   5.293   4.137   5.722  1.1184 -1.0771 -1.5885
  426SOL     OW 1566   5.774   4.796   1.670  0.1226 -0.4176 -0.4466
  426SOL    HW1 1567   5.724   4.851   1.736  0.8275  0.9379 -0.9983
  426SOL    HW2 1568   5.850   4.850   1.632 -0.1849 -1.1918 -2.2682
  427SOL     OW 1569   0.282   1.501   2.237 -0.2364 -0.4514 -0.3466
  427SOL    HW1 1570   0.380   1.481   2.249  0.2054  1.6811  0.0880
  427SOL    HW2 1571   0.232   1.472   2.318 -0.1161 -2.2311 -0.8688
  428SOL     OW 1572   4.932   1.637   4.535 -0.1855 -0.2038 -0.0262
  428SOL    HW1 1573   4.962   1.725   4.497 -2.7365  0.0406 -1.7078
  428SOL    HW2 1574   5.010   1.590   4.576  1.2883  2.7758  0.8736
  429SOL     OW 1575   4.794   5.540   1.883  0.3299  0.3407  0.1618
  429SOL    HW1 1576   4.805   5.612   1.952  2.6290 -1.1014  1.4652
  429SOL    HW2 1577   4.831   5.454   1.919  0.7054 -0.7254 -2.5259
  430SOL     OW 1578   2.996   3.951   1.227 -0.7675 -0.4696  0.4686
  430SOL    HW1 1579   2.954   4.037   1.197  0.7770  0.2010  0.1351
  430SOL    HW2 1580   2.967   3.931   1.321 -2.2115 -0.3165  0.0834
  431SOL     OW 1581   0.376   0.125   1.160 -0.3074  0.3607  0.5846
  431SOL    HW1 1582   0.279   0.118   1.138 -0.4205 -0.2649  1.2378
  431SOL    HW2 1583   0.427   0.055   1.109  0.0623  1.7829 -1.0919
  432SOL     OW 1584   1.697   1.493   2.005  0.4932 -0.7771 -0.7627
  432SOL    HW1 1585   1.699   1.566   2.073 -1.6968 -0.2287 -1.2042
  432SOL    HW2 1586   1.719   1.531   1.915  0.0829 -0.7852 -0.8715
  433SOL     OW 1587   5.779   1.490   3.351 -0.0358  0.6253  0.2094
  433SOL    HW1 1588   5.854   1.504   3.286 -0.6878  0.6950 -0.5269
  433SOL    HW2 1589   5.815   1.499   3.444  0.6027  2.0582 -0.1499
  434SOL     OW 1590   1.542   0.366   2.438  0.4318 -0.4095 -0.2572
  434SOL    HW1 1591   1.493   0.379   2.352  2.7227  1.3251 -1.4156
  434SOL    HW2 1592   1.603   0.286   2.430  0.3217 -0.5136 -0.0694
  435SOL     OW 1593   4.413   1.412   1.064 -0.4990 -0.9380  0.6185
  435SOL    HW1 1594   4.428   1.495   1.117 -1.5793 -0.8858  0.8671
  435SOL    HW2 1595   4.333   1.364   1.100  0.4294 -2.3833  0.8413
  436SOL     OW 1596   0.649   1.040   3.356  0.4220  0.4602  0.2997
  436SOL    HW1 1597   0.593   0.976   3.304  1.1573  0.6035 -0.7041
  436SOL    HW2 1598   0.603   1.063   3.441 -0.5163 -0.2855  0.0109
  437SOL     OW 1599   5.062   5.241   5.092 -0.6968 -0.4462 -0.1059
  437SOL    HW1 1600   5.105   5.295   5.164  1.1623 -0.5071 -1.1023
  437SOL    HW2 1601   5.110   5.153   5.085 -3.1462 -1.9802  0.9525
  438SOL     OW 1602   2.408   5.393   2.026  0.3462  0.3582  0.3505
  438SOL    HW1 1603   2.433   5.400   1.929 -0.2815  1.2592  0.2410
  438SOL    HW2 1604   2.369   5.480   2.056 -0.7811 -0.3625  1.0367
  439SOL     OW 1605   2.683   3.578   5.871  0.1494 -0.2211  0.3318
  439SOL    HW1 1606   2.779   3.550   5.869 -0.1061 -1.2337  1.2733
  439SOL    HW2 1607   2.640   3.544   5.954 -0.2853  2.7791  1.4369
  440SOL     OW 1608   0.640   5.376   5.729 -0.2767 -0.3624  0.6327
  440SOL    HW1 1609   0.544   5.350   5.724 -0.1948 -1.4207  3.1549
  440SOL    HW2 1610   0.697   5.300   5.698 -0.2071  0.2497 -0.8235
  441SOL     OW 1611   1.340   0.194   2.054  0.3740  0.5119 -0.5366
  441SOL    HW1 1612   1.333   0.164   1.959 -0.7660  0.3258 -0.4091
  441SOL    HW2 1613   1.320   0.292   2.060  0.0960  0.4495 -0.4434
  442SOL     OW 1614   4.650   2.165   0.830  0.0871  0.0080 -0.0728
  442SOL    HW1 1615   4.569   2.222   0.824  1.0554  2.1033  3.7949
  442SOL    HW2 1616   4.623   2.068   0.826 -2.5293  0.6418  0.7000
  443SOL     OW 1617   0.668   2.525   2.703 -0.4987  0.6218  0.0310
  443SOL    HW1 1618   0.671   2.564   2.611  0.3313  1.8515  0.5623
  443SOL    HW2 1619   0.752   2.472   2.719 -0.5731  0.5387  0.1455
  444SOL     OW 1620   0.996   5.285   2.558 -0.1377 -0.0142 -0.8208
  444SOL    HW1 1621   0.932   5.361   2.568  0.1976  0.2142 -0.4183
  444SOL    HW2 1622   0.951   5.200   2.585 -0.1653  0.1920 -0.2136
  445SOL     OW 1623   2.528   1.878   1.912 -0.2045 -0.1118 -0.2061
  445SOL    HW1 1624   2.624   1.906   1.922  0.0441 -1.2102  0.6518
  445SOL    HW2 1625   2.519   1.815   1.836  0.0198 -1.1334  0.5996
  446SOL     OW 1626   5.314   4.632   0.670 -0.7506  0.2836 -0.1439
  446SOL    HW1 1627   5.226   4.586   0.663 -1.1438  0.9899  0.1492
  446SOL    HW2 1628   5.329   4.689   0.589 -1.1751  1.2273  0.4363
  447SOL     OW 1629   5.009   4.934   2.832 -0.3352  0.5664  0.1451
  447SOL    HW1 1630   5.000   4.884   2.918  1.2697 -0.5315 -0.2703
  447SOL    HW2 1631   4.944   4.897   2.765 -1.6872  1.5180  0.8887
  448SOL     OW 1632   4.128   1.034   5.525 -0.2616  0.4365 -0.6692
  448SOL    HW1 1633   4.066   0.978   5.579 -1.1455  1.7945 -0.2313
  448SOL    HW2 1634   4.110   1.018   5.428 -1.6831  1.1951 -0.5538
  449SOL     OW 1635   2.969   0.527   5.134  0.1211 -0.1813  0.0033
  449SOL    HW1 1636   3.041   0.564   5.193 -0.7249  0.5286  0.6341
  449SOL    HW2 1637   2.903   0.476   5.190 -0.1218 -0.4070 -0.4829
  450SOL     OW 1638   1.384   3.338   5.007  0.6744  0.3171  0.7685
  450SOL    HW1 1639   1.442   3.271   4.962  0.1544  0.1617  0.3178
  450SOL    HW2 1640   1.437   3.387   5.076  1.7368  1.1523 -0.5769
  451SOL     OW 1641   3.453   1.565   4.123 -0.0265 -0.0118  0.0716
  451SOL    HW1 1642   3.548   1.571   4.092  0.3945 -1.0906  1.0763
  451SOL    HW2 1643   3.424   1.469   4.124 -1.2592  0.3319 -0.5717
  452SOL     OW 1644   1.220   3.479   4.769  0.0830 -0.2492  0.0176
  452SOL    HW1 1645   1.285   3.444   4.836 -1.3194  0.0914  1.6315
  452SOL    HW2 1646   1.181   3.565   4.802  0.8718  1.0419 -2.2460
  453SOL     OW 1647   0.416   3.728   4.633 -0.1416  0.3576 -0.3491
  453SOL    HW1 1648   0.394   3.742   4.730  0.4626  0.7331 -0.2649
  453SOL    HW2 1649   0.515   3.725   4.621 -0.2146  0.0961 -0.9310
  454SOL     OW 1650   5.154   4.139   5.445 -0.3493  0.2594  0.4751
  454SOL    HW1 1651   5.175   4.189   5.361 -2.3392 -0.3284 -0.4245
  454SOL    HW2 1652   5.139   4.205   5.520 -0.6142  0.8984 -0.1299
  455SOL     OW 1653   5.876   5.127   4.932 -0.0707  0.2059 -0.8611
  455SOL    HW1 1654   5.868   5.224   4.956  1.4497  0.1044  0.2159
  455SOL    HW2 1655   5.968   5.110   4.896  0.4151 -1.2075  0.9410
  456SOL     OW 1656   3.702   3.384   1.842  0.3519  0.3291  0.6511
  456SOL    HW1 1657   3.768   3.358   1.912  0.8008 -0.2126  0.0471
  456SOL    HW2 1658   3.743   3.369   1.751 -0.8080 -0.6411  0.2552
  457SOL     OW 1659   5.122   3.626   3.723  0.4940  0.2818 -0.3368
  457SOL    HW1 1660   5.167   3.653   3.638  1.1892 -2.1133 -0.8206
  457SOL    HW2 1661   5.182   3.646   3.800 -0.3871  3.0243 -0.2671
  458SOL     OW 1662   2.005   4.075   3.500 -0.1923  0.1707 -0.4610
  458SOL    HW1 1663   2.017   4.001   3.433  2.2588  1.4090 -1.5089
  458SOL    HW2 1664   2.087   4.083   3.555 -0.3632  2.1617 -0.4324
  459SOL     OW 1665   5.486   0.553   2.205  0.1763  0.5055  0.0947
  459SOL    HW1 1666   5.473   0.641   2.250  0.6466 -0.3388  2.0043
  459SOL    HW2 1667   5.532   0.567   2.117 -0.3808  2.2024  0.0429
  460SOL     OW 1668   1.128   2.259   3.772  0.1780 -0.1329 -0.0118
  460SOL    HW1 1669   1.177   2.173   3.764  0.6072  0.1341 -0.2970
  460SOL    HW2 1670   1.186   2.326   3.820  0.1486  0.2256 -0.4736
  461SOL     OW 1671   3.082   0.180   5.945  0.3469 -0.3308  0.0895
  461SOL    HW1 1672   3.034   0.210   5.862  0.9785 -2.6528 -1.2081
  461SOL    HW2 1673   3.147   0.251   5.974 -0.9768  1.1686 -0.4512
  462SOL     OW 1674   2.204   0.223   1.665  0.3309  0.8038 -0.0172
  462SOL    HW1 1675   2.264   0.151   1.630 -0.7535 -0.7274  1.1518
  462SOL    HW2 1676   2.189   0.209   1.763 -0.7590  2.0041  0.0096
  463SOL     OW 1677   0.725   0.368   3.816  0.1144 -0.0935 -0.5650
  463SOL    HW1 1678   0.707   0.462   3.843  0.3801  0.1997 -1.3868
  463SOL    HW2 1679   0.810   0.363   3.764  0.1118 -0.7834 -0.5164
  464SOL     OW 1680   3.276   0.859   1.561 -0.5701 -0.2094 -0.6796
  464SOL    HW1 1681   3.208   0.896   1.498  0.0474  1.0685 -0.6212
  464SOL    HW2 1682   3.344   0.807   1.510 -1.5234 -1.4424 -0.7472
  465SOL     OW 1683   3.314   0.624   3.565 -0.2301 -0.5467 -0.7273
  465SOL    HW1 1684   3.275   0.590   3.479 -1.7063 -0.7677 -0.0142
  465SOL    HW2 1685   3.244   0.675   3.615  1.0041  0.7539 -0.2661
  466SOL     OW 1686   3.396   3.639   5.038  0.0048 -0.3946 -0.5759
  466SOL    HW1 1687   3.484   3.592   5.039  0.4779  0.4643  0.2953
  466SOL    HW2 1688   3.322   3.572   5.031  0.6806 -1.2133 -0.1122
  467SOL     OW 1689   4.921   0.410   0.387  0.6472  0.5508 -0.0734
  467SOL    HW1 1690   4.853   0.352   0.343  0.1836 -0.2831  1.6505
  467SOL    HW2 1691   4.906   0.505   0.360  0.0234  0.1477 -1.2095
  468SOL     OW 1692   2.639   0.211   4.680  0.2908  0.9037  0.0714
  468SOL    HW1 1693   2.665   0.159   4.762 -1.5239  0.6628  0.5355
  468SOL    HW2 1694   2.600   0.148   4.612 -0.7347  1.4611  0.1257
  469SOL     OW 1695   1.229   0.334   0.676 -0.1721  0.1151  0.1776
  469SOL    HW1 1696   1.303   0.401   0.685  0.3016 -0.4982  1.0562
  469SOL    HW2 1697   1.266   0.242   0.681 -0.8944 -0.2202 -0.3586
  470SOL     OW 1698   0.351   1.013   5.649  0.1146  0.0193  0.3460
  470SOL    HW1 1699   0.440   0.983   5.614  0.0035  0.8357 -0.7080
  470SOL    HW2 1700   0.286   1.017   5.573  0.5592  4.4897 -0.0864
  471SOL     OW 1701   2.401   2.879   0.313 -0.7315  0.2632 -0.4251
  471SOL    HW1 1702   2.305   2.877   0.342 -1.2481  0.2269 -2.0603
  471SOL    HW2 1703   2.409   2.928   0.226  0.9886  1.7236  0.4936
  472SOL     OW 1704   1.608   0.090   3.241  0.2170  0.2292  0.1907
  472SOL    HW1 1705   1.558   0.121   3.322 -0.8071 -1.6755  0.3381
  472SOL    HW2 1706   1.705   0.112   3.251 -0.2896  2.5391  0.6316
  473SOL     OW 1707   5.921   4.484   3.784 -0.3278  0.6620  0.1761
  473SOL    HW1 1708   5.841   4.538   3.811 -1.2836 -1.1996  1.3255
  473SOL    HW2 1709   6.004   4.534   3.804 -1.1707  1.8878  0.7195
  474SOL     OW 1710   0.561   4.808   0.668  0.5776 -0.4482  0.1756
  474SOL    HW1 1711   0.637   4.842   0.613  1.0674 -0.1124  1.0400
  474SOL    HW2 1712   0.519   4.730   0.622  0.0587  0.6936 -1.3580
  475SOL     OW 1713   2.221   4.028   3.673  0.3315 -0.4607  0.2802
  475SOL    HW1 1714   2.185   3.944   3.633  0.0374 -0.7685  1.1706
  475SOL    HW2 1715   2.278   4.006   3.752  3.1211 -0.0418 -1.4601
  476SOL     OW 1716   2.147   0.489   4.102  0.0881 -0.0149 -0.0365
  476SOL    HW1 1717   2.103   0.444   4.024  2.2357 -2.6398  0.1067
  476SOL    HW2 1718   2.233   0.529   4.073  0.5699 -0.3943  0.8319
  477SOL     OW 1719   4.177   5.793   4.982  0.0732  0.6654 -0.4419
  477SOL    HW1 1720   4.195   5.733   5.060  0.8432  0.5834 -0.6765
  477SOL    HW2 1721   4.221   5.756   4.900  0.0697  1.2500 -0.7144
  478SOL     OW 1722   3.563   2.631   1.070  0.2707  0.4429 -0.2872
  478SOL    HW1 1723   3.563   2.609   1.168 -1.1634 -1.4674 -0.6533
  478SOL    HW2 1724   3.509   2.714   1.055  0.1359  0.5106  0.5060
  479SOL     OW 1725   3.340   4.348   4.791 -0.0237  0.1329  0.2731
  479SOL    HW1 1726   3.334   4.268   4.730  0.2983 -1.7646  2.5766
  479SOL    HW2 1727   3.433   4.384   4.789  0.2600 -0.5795  0.4367
  480SOL     OW 1728   5.669   1.617   3.676 -0.0441 -0.8418 -0.2172
  480SOL    HW1 1729   5.761   1.578   3.680  1.1361  1.6390 -1.5749
  480SOL    HW2 1730   5.652   1.670   3.759 -0.1541 -1.0757 -0.0890
  481SOL     OW 1731   2.433   0.590   3.332 -0.1466  0.8498  0.0141
  481SOL    HW1 1732   2.484   0.537   3.264 -1.2410  1.4272 -1.3210
  481SOL    HW2 1733   2.335   0.582   3.312 -0.4607  1.4652  1.2299
  482SOL     OW 1734   1.002   0.286   1.571 -0.1269  0.1485  0.0265
  482SOL    HW1 1735   1.012   0.365   1.632 -1.9337  0.2411  0.2772
  482SOL    HW2 1736   0.905   0.264   1.561  0.2631 -1.2539 -1.0769
  483SOL     OW 1737   1.391   4.177   3.820  0.0895 -0.2274  0.0395
  483SOL    HW1 1738   1.325   4.211   3.886 -0.4271 -1.0942 -0.0165
  483SOL    HW2 1739   1.343   4.141   3.740  0.5588 -1.6701  0.3728
  484SOL     OW 1740   2.094   5.381   5.969  0.0937 -0.0366  0.5231
  484SOL    HW1 1741   2.014   5.379   5.910 -0.5797  0.0874  1.4147
  484SOL    HW2 1742   2.177   5.379   5.913 -0.5238  0.9729 -0.4516
  485SOL     OW 1743   5.680   1.134   3.567 -0.0721 -0.4644  0.1667
  485SOL    HW1 1744   5.675   1.091   3.657  0.1494 -0.9212 -0.0316
  485SOL    HW2 1745   5.620   1.084   3.504  0.3722 -0.6352 -0.1252
  486SOL     OW 1746   4.036   1.800   3.772  0.2856 -0.0045 -0.2261
  486SOL    HW1 1747   4.044   1.736   3.695  2.0438 -2.3886  1.7774
  486SOL    HW2 1748   3.971   1.764   3.839  1.2740  0.3168  0.9338
  487SOL     OW 1749   0.409   3.050   3.343  0.1885  0.1619  0.8098
  487SOL    HW1 1750   0.391   3.142   3.377  0.8072  0.5273  0.1833
  487SOL    HW2 1751   0.412   3.052   3.243 -1.0958 -0.7906  0.7348
  488SOL     OW 1752   2.916   1.339   1.565 -0.4078 -0.0716 -0.2793
  488SOL    HW1 1753   3.015   1.342   1.550  0.0875  2.5506  2.5778
  488SOL    HW2 1754   2.887   1.244   1.574  1.6466 -0.9533 -1.9839
  489SOL     OW 1755   2.670   5.678   4.734  0.2668  0.4032  0.3665
  489SOL    HW1 1756   2.652   5.703   4.829 -1.5287 -0.0900  0.1784
  489SOL    HW2 1757   2.743   5.610   4.731  0.7536  0.8683  1.3335
  490SOL     OW 1758   0.796   2.304   4.353  0.3102 -0.5185  0.0126
  490SOL    HW1 1759   0.863   2.245   4.308 -0.0707  0.4941 -1.9796
  490SOL    HW2 1760   0.775   2.381   4.294 -1.3231  0.1193  1.3620
  491SOL     OW 1761   3.841   0.237   4.578  0.0272 -0.5138  0.3761
  491SOL    HW1 1762   3.829   0.336   4.583  0.5379 -0.2037 -2.5462
  491SOL    HW2 1763   3.886   0.213   4.492 -2.2698 -3.4646 -0.1943
  492SOL     OW 1764   1.800   5.898   1.523 -0.5233  0.2880  0.2484
  492SOL    HW1 1765   1.887   5.946   1.512 -0.4101  0.0079 -0.1001
  492SOL    HW2 1766   1.725   5.962   1.508 -0.3853  0.0093 -1.9632
  493SOL     OW 1767   2.780   3.340   0.341 -0.4735 -0.4120  0.2212
  493SOL    HW1 1768   2.841   3.346   0.420 -0.9410 -0.6528  0.6057
  493SOL    HW2 1769   2.752   3.433   0.314 -1.0359 -0.3636  0.9208
  494SOL     OW 1770   2.111   0.608   3.282 -0.1819 -0.4993  0.1687
  494SOL    HW1 1771   2.111   0.673   3.206  0.7771 -0.6717  0.0003
  494SOL    HW2 1772   2.017   0.591   3.312 -0.4823  0.5217 -0.1510
  495SOL     OW 1773   2.821   5.702   0.468  0.3070  0.3532 -0.4946
  495SOL    HW1 1774   2.806   5.676   0.564 -0.2814 -0.2603 -0.7422
  495SOL    HW2 1775   2.771   5.786   0.447  0.4997  0.5314 -0.2505
  496SOL     OW 1776   3.651   3.560   1.396  0.0757 -0.5303 -0.3198
  496SOL    HW1 1777   3.688   3.646   1.431 -1.4614 -0.2953  0.8635
  496SOL    HW2 1778   3.679   3.547   1.301 -2.4992  3.1249 -1.8410
  497SOL     OW 1779   0.561   4.758   4.244 -0.1821 -0.2550 -0.3758
  497SOL    HW1 1780   0.555   4.720   4.151 -0.6786 -0.9584 -0.0656
  497SOL    HW2 1781   0.641   4.719   4.290 -1.3171 -1.8329  0.3273
  498SOL     OW 1782   5.977   3.033   0.937 -0.1716  0.3069  0.4469
  498SOL    HW1 1783   5.970   3.053   0.839 -0.7800 -2.7664 -0.2237
  498SOL    HW2 1784   5.907   3.085   0.987 -2.0762 -0.5128 -1.2181
  499SOL     OW 1785   1.096   0.618   2.471 -0.0706 -0.2357 -0.4845
  499SOL    HW1 1786   1.049   0.690   2.421 -1.7368 -0.4460  0.6682
  499SOL    HW2 1787   1.081   0.631   2.569 -0.3374 -2.0665 -0.2405
  500SOL     OW 1788   5.944   2.809   4.901  0.5451  0.5824  0.0503
  500SOL    HW1 1789   5.891   2.725   4.896 -0.1413  1.0003  0.1551
  500SOL    HW2 1790   5.924   2.866   4.822 -0.4101  1.4563  0.8957
  501SOL     OW 1791   3.818   1.265   2.497 -0.7003  0.0761  0.0006
  501SOL    HW1 1792   3.792   1.188   2.439  1.2037 -1.1602  0.7117
  501SOL    HW2 1793   3.749   1.278   2.568 -1.8939  0.1496 -1.1259
  502SOL     OW 1794   3.620   3.470   5.010 -0.7723 -0.1940 -0.0148
  502SOL    HW1 1795   3.623   3.434   5.103 -1.9020 -0.7679 -0.1804
  502SOL    HW2 1796   3.701   3.526   4.993  0.0805 -1.1069  0.8917
  503SOL     OW 1797   3.222   4.642   1.037 -0.0923  0.5740  0.1883
  503SOL    HW1 1798   3.174   4.681   0.958  1.3244  0.2035 -0.8821
  503SOL    HW2 1799   3.318   4.628   1.015 -0.0530 -1.3309  1.3328
  504SOL     OW 1800   4.543   0.766   1.574  0.3634 -0.6502 -0.2044
  504SOL    HW1 1801   4.621   0.829   1.571 -0.6363  0.5988 -0.7982
  504SOL    HW2 1802   4.577   0.672   1.576  1.9096 -0.2256 -2.3753
  505SOL     OW 1803   3.811   2.480   1.534  0.1126 -0.1272 -0.1807
  505SOL    HW1 1804   3.887   2.523   1.486  1.4410 -1.1474  0.8942
  505SOL    HW2 1805   3.776   2.542   1.604  1.2407 -0.2993  0.5772
  506SOL     OW 1806   2.920   3.141   2.817 -0.5524  0.6914  0.5364
  506SOL    HW1 1807   2.878   3.132   2.727 -0.2323 -0.8400  0.5124
  506SOL    HW2 1808   2.878   3.076   2.881  2.4643 -1.8834  0.1937
  507SOL     OW 1809   2.909   0.490   0.879 -0.3683 -0.2260  0.2919
  507SOL    HW1 1810   2.849   0.562   0.914  2.0201  1.0018  2.1698
  507SOL    HW2 1811   2.891   0.405   0.927 -2.1459 -0.5532 -0.8477
  508SOL     OW 1812   1.276   4.899   1.318 -0.0390  0.1641 -0.3183
  508SOL    HW1 1813   1.208   4.908   1.245  1.6844  1.3894 -1.8794
  508SOL    HW2 1814   1.283   4.986   1.366 -0.4888 -0.3613  0.7161
  509SOL     OW 1815   1.181   4.730   0.397 -0.3004 -0.3709  0.3752
  509SOL    HW1 1816   1.099   4.707   0.450 -0.5010  0.2994  0.3674
  509SOL    HW2 1817   1.221   4.647   0.358 -0.3432 -0.8296  1.3010
  510SOL     OW 1818   0.732   5.281   3.395 -0.0773 -0.1171 -0.1443
  510SOL    HW1 1819   0.636   5.256   3.394 -0.2487  0.0308  3.1389
  510SOL    HW2 1820   0.743   5.371   3.353 -1.2755 -0.3497 -0.9990
  511SOL     OW 1821   5.627   0.951   4.185  0.2384  0.2626  0.3705
  511SOL    HW1 1822   5.570   1.024   4.149  0.4634  2.2460  3.5929
  511SOL    HW2 1823   5.580   0.906   4.260  1.2086 -1.0838  0.2057
  512SOL     OW 1824   2.664   1.632   2.721  0.2029 -0.2297 -0.0692
  512SOL    HW1 1825   2.609   1.695   2.775 -0.6301 -1.1747  0.2092
  512SOL    HW2 1826   2.622   1.619   2.631  0.6800  0.0510 -0.3340
  513SOL     OW 1827   5.048   1.018   1.795  0.3963 -0.3890 -0.9541
  513SOL    HW1 1828   4.958   1.006   1.754  1.6858 -0.9240 -3.9195
  513SOL    HW2 1829   5.066   1.116   1.808 -0.4009 -0.2490 -0.8813
  514SOL     OW 1830   0.167   0.676   2.970  0.1946  0.1454  0.2915
  514SOL    HW1 1831   0.100   0.712   3.036  0.5824  1.2047  0.1237
  514SOL    HW2 1832   0.236   0.745   2.952  0.3033 -0.2688 -0.9581
  515SOL     OW 1833   2.413   0.065   2.388  0.4374 -0.1221  0.0032
  515SOL    HW1 1834   2.410   0.150   2.440 -1.0482  0.0503 -0.3425
  515SOL    HW2 1835   2.507   0.049   2.355  0.5656  1.8095 -0.6536
  516SOL     OW 1836   0.314   0.549   2.089 -0.2973 -0.4564 -0.1379
  516SOL    HW1 1837   0.410   0.574   2.074 -0.1817  0.0706  1.3145
  516SOL    HW2 1838   0.270   0.534   2.001  0.4630  1.8351 -0.9895
  517SOL     OW 1839   5.146   4.064   4.630 -0.1181 -0.0778  0.0206
  517SOL    HW1 1840   5.207   4.102   4.560 -0.4339  0.2338 -0.0912
  517SOL    HW2 1841   5.179   3.975   4.658  0.0504 -0.1803 -0.4874
  518SOL     OW 1842   0.382   4.027   1.806 -0.3740 -0.3522  0.0757
  518SOL    HW1 1843   0.291   4.041   1.769 -0.0640 -1.7673 -1.3567
  518SOL    HW2 1844   0.378   3.957   1.877 -0.5076  0.1014  0.5159
  519SOL     OW 1845   0.441   0.803   5.174 -0.1223  0.0217 -0.1573
  519SOL    HW1 1846   0.415   0.708   5.157 -1.2803  0.1536  0.7562
  519SOL    HW2 1847   0.379   0.843   5.242 -0.0358  1.6171 -0.9719
  520SOL     OW 1848   1.801   4.422   0.604 -0.3111  0.1678  0.0493
  520SOL    HW1 1849   1.788   4.331   0.565  2.8931 -0.3567 -0.0081
  520SOL    HW2 1850   1.797   4.417   0.703  0.3034 -0.1190  0.0595
  521SOL     OW 1851   3.311   0.102   5.645 -0.2494  0.0566 -0.3270
  521SOL    HW1 1852   3.257   0.043   5.705 -0.1980  0.2059 -0.1320
  521SOL    HW2 1853   3.265   0.112   5.557 -1.2398  1.2940  0.3057
  522SOL     OW 1854   4.771   4.906   4.682  0.4590  0.3410 -0.8812
  522SOL    HW1 1855   4.822   4.942   4.604  0.4928  1.0953 -0.5192
  522SOL    HW2 1856   4.835   4.879   4.754  0.4132 -0.0910 -0.9989
  523SOL     OW 1857   2.397   4.460   2.640 -0.3351 -0.6072  0.1341
  523SOL    HW1 1858   2.489   4.495   2.661 -0.7868  0.9429 -0.3502
  523SOL    HW2 1859   2.328   4.525   2.670 -1.1823 -0.6130 -1.6403
  524SOL     OW 1860   1.114   2.169   1.673 -0.4935  0.1715 -0.1824
  524SOL    HW1 1861   1.159   2.235   1.733  0.0750 -0.5209  0.1628
  524SOL    HW2 1862   1.062   2.218   1.603 -1.0520  1.0003  0.7693
  525SOL     OW 1863   5.853   2.725   4.576 -0.6254  0.4341 -0.1510
  525SOL    HW1 1864   5.875   2.817   4.608 -1.0671  0.1879  0.9173
  525SOL    HW2 1865   5.850   2.724   4.476  1.6251  1.0478 -0.2807
  526SOL     OW 1866   5.401   2.653   5.522 -0.1197 -0.4298  0.6693
  526SOL    HW1 1867   5.450   2.735   5.493  0.4234 -1.4841 -1.6105
  526SOL    HW2 1868   5.463   2.575   5.524 -1.2293 -1.3857 -0.2432
  527SOL     OW 1869   3.676   1.406   2.277 -0.1760 -0.5087  0.0884
  527SOL    HW1 1870   3.653   1.365   2.189 -0.4860  1.3891 -0.7748
  527SOL    HW2 1871   3.600   1.392   2.341 -0.7970 -0.2254 -0.5694
  528SOL     OW 1872   0.972   3.681   1.803 -0.0711 -0.1267 -0.3061
  528SOL    HW1 1873   1.045   3.746   1.824 -1.7275  1.9972 -0.7250
  528SOL    HW2 1874   0.909   3.677   1.880 -0.1711 -0.9839 -0.4293
  529SOL     OW 1875   1.570   4.223   4.705  0.0282  0.1614  0.3652
  529SOL    HW1 1876   1.493   4.164   4.680  1.5439 -1.3215 -1.1444
  529SOL    HW2 1877   1.595   4.206   4.800 -1.1930  0.3081  0.7235
  530SOL     OW 1878   0.562   3.273   0.652 -0.3333  0.3268 -0.1307
  530SOL    HW1 1879   0.558   3.200   0.720  2.4697  0.2445  0.0947
  530SOL    HW2 1880   0.474   3.283   0.607 -0.7881 -3.3290 -0.3187
  531SOL     OW 1881   4.630   3.442   1.882 -0.0419  0.1405  0.6750
  531SOL    HW1 1882   4.545   3.473   1.923  0.3810  0.4907  1.3030
  531SOL    HW2 1883   4.610   3.379   1.807 -0.8524  0.3773  0.6843
  532SOL     OW 1884   3.526   4.703   3.561  0.0215  0.0323  0.1088
  532SOL    HW1 1885   3.599   4.759   3.599 -0.5325  0.0614  1.1810
  532SOL    HW2 1886   3.439   4.754   3.565 -0.1209 -0.1220 -0.8422
  533SOL     OW 1887   1.331   1.462   0.934  0.3108 -0.1010 -0.0063
  533SOL    HW1 1888   1.279   1.521   0.872  0.5378  0.4413  0.3118
  533SOL    HW2 1889   1.381   1.518   0.999  0.1257 -0.6646  0.6308
  534SOL     OW 1890   5.619   3.281   3.684  0.0115 -0.2173 -0.1779
  534SOL    HW1 1891   5.706   3.246   3.720 -0.7363 -0.8581  1.0726
  534SOL    HW2 1892   5.570   3.208   3.637  0.3577  0.2794 -1.3743
  535SOL     OW 1893   2.590   0.398   0.957  0.3889 -0.2948  0.1962
  535SOL    HW1 1894   2.654   0.451   0.902  0.5347 -0.8863 -0.2205
  535SOL    HW2 1895   2.566   0.314   0.908 -1.4564  0.3534 -0.0918
  536SOL     OW 1896   4.678   2.185   4.374 -0.3477  0.2676  0.3941
  536SOL    HW1 1897   4.632   2.106   4.333  0.1119 -0.1108  0.5924
  536SOL    HW2 1898   4.636   2.206   4.462  0.1718 -0.4089  0.8231
  537SOL     OW 1899   2.221   3.955   3.020 -0.1266  0.3446 -0.4091
  537SOL    HW1 1900   2.299   3.911   2.976  0.8249  0.9519  0.6137
  537SOL    HW2 1901   2.252   4.036   3.070 -1.3384  0.3250  0.4225
  538SOL     OW 1902   4.423   5.709   0.147 -0.0259 -0.1596 -0.2392
  538SOL    HW1 1903   4.427   5.612   0.171  1.1302  0.2773  1.4612
  538SOL    HW2 1904   4.341   5.726   0.091 -0.5628 -1.9881 -0.0671
  539SOL     OW 1905   5.558   4.506   2.150  0.7742  0.1687  0.3491
  539SOL    HW1 1906   5.585   4.596   2.115  1.5145  0.2858  1.1828
  539SOL    HW2 1907   5.471   4.515   2.200  0.1719  0.1616 -0.6653
  540SOL     OW 1908   0.723   4.778   1.922 -0.0057  0.2256 -0.3073
  540SOL    HW1 1909   0.725   4.793   1.823  0.1095 -3.4586 -1.0300
  540SOL    HW2 1910   0.642   4.724   1.946  1.9399 -2.4367  0.8442
  541SOL     OW 1911   5.736   2.728   1.911 -0.3284  0.6014 -0.0986
  541SOL    HW1 1912   5.752   2.766   1.820  0.7474 -0.3861 -0.3429
  541SOL    HW2 1913   5.639   2.735   1.934 -0.9605 -0.8725 -2.1183
  542SOL     OW 1914   4.525   4.634   0.637  0.1314 -0.6698  0.5610
  542SOL    HW1 1915   4.604   4.572   0.640 -0.3619 -1.3406  0.0573
  542SOL    HW2 1916   4.541   4.705   0.568  1.2510  0.5718  2.0143
  543SOL     OW 1917   2.572   2.166   4.675  0.7276  0.0101  0.2571
  543SOL    HW1 1918   2.509   2.134   4.604 -0.1477  1.7354  0.1983
  543SOL    HW2 1919   2.548   2.260   4.701  0.8676 -0.6308  3.0189
  544SOL     OW 1920   0.530   5.118   1.295  0.2524  0.4107  0.0767
  544SOL    HW1 1921   0.614   5.171   1.280  0.1354  0.1830 -1.6420
  544SOL    HW2 1922   0.542   5.060   1.376  1.2471  1.3467  0.6331
  545SOL     OW 1923   3.000   5.212   1.524  0.3128 -0.6022 -0.8242
  545SOL    HW1 1924   3.087   5.248   1.490 -0.5063  1.4054 -0.9332
  545SOL    HW2 1925   2.969   5.268   1.601 -0.7083 -1.5355 -0.5317
  546SOL     OW 1926   4.900   1.274   4.397  0.3917 -0.4788  0.1733
  546SOL    HW1 1927   4.851   1.358   4.420  0.5055  0.0610 -1.4035
  546SOL    HW2 1928   4.997   1.294   4.387  0.3377 -0.6552 -0.7910
  547SOL     OW 1929   2.480   1.925   3.400 -0.2222 -0.0930  0.3988
  547SOL    HW1 1930   2.408   1.896   3.336 -0.8229  0.9000  0.6013
  547SOL    HW2 1931   2.476   1.869   3.482 -0.4919 -0.3180  0.2351
  548SOL     OW 1932   2.684   5.349   3.210  0.3301  0.9053 -0.1021
  548SOL    HW1 1933   2.728   5.269   3.251 -0.4762  0.3510 -0.2854
  548SOL    HW2 1934   2.730   5.373   3.124  0.5125  0.5790 -0.0953
  549SOL     OW 1935   1.259   4.802   3.285  0.3356 -0.4565 -0.4419
  549SOL    HW1 1936   1.248   4.874   3.217  0.9110  0.0207 -0.0442
  549SOL    HW2 1937   1.313   4.727   3.246  1.3267  0.1525 -0.2979
  550SOL     OW 1938   4.707   0.159   3.457  0.3148 -0.5277 -0.2685
  550SOL    HW1 1939   4.747   0.089   3.517 -0.0897 -0.6464 -0.1289
  550SOL    HW2 1940   4.773   0.187   3.388  0.8217 -0.3154  0.3026
  551SOL     OW 1941   4.751   2.118   5.213 -0.1503  0.1368  0.1580
  551SOL    HW1 1942   4.766   2.019   5.217 -0.9583  0.0045  3.7350
  551SOL    HW2 1943   4.779   2.153   5.124  2.8009 -2.8507 -0.2780
  552SOL     OW 1944   1.220   4.535   1.245 -0.4737 -0.2459  0.1677
  552SOL    HW1 1945   1.209   4.477   1.164  1.5312 -0.4888  0.0002
  552SOL    HW2 1946   1.237   4.629   1.216  0.1727 -0.3205  0.2908
  553SOL     OW 1947   3.868   0.718   3.859  0.0036  0.4231  0.3244
  553SOL    HW1 1948   3.959   0.719   3.819  0.4993  1.2294  1.4301
  553SOL    HW2 1949   3.827   0.809   3.850 -0.9060 -0.0606 -0.6121
  554SOL     OW 1950   5.634   5.404   4.218  0.2257  0.5319 -0.0693
  554SOL    HW1 1951   5.572   5.363   4.152 -1.0873  0.6289  1.0470
  554SOL    HW2 1952   5.604   5.379   4.311  2.0512  0.3295  0.4959
  555SOL     OW 1953   2.165   2.081   0.936 -0.0591  0.2093  0.4528
  555SOL    HW1 1954   2.234   2.087   1.009  0.0822 -0.8435  0.4134
  555SOL    HW2 1955   2.144   1.985   0.917 -3.0519  0.4620  1.9007
  556SOL     OW 1956   1.896   3.677   3.199 -0.0829  0.4806 -0.3103
  556SOL    HW1 1957   1.872   3.582   3.183  0.3556  0.2853  0.1646
  556SOL    HW2 1958   1.843   3.736   3.138 -0.6893 -0.0365 -0.2875
  557SOL     OW 1959   4.951   0.631   4.158 -0.5655  0.6013  0.2597
  557SOL    HW1 1960   4.927   0.616   4.254 -0.3231  0.0958  0.2443
  557SOL    HW2 1961   5.044   0.599   4.142 -1.3852 -1.4462 -0.6688
  558SOL     OW 1962   1.653   0.541   5.430  0.3318 -0.0787  0.3107
  558SOL    HW1 1963   1.562   0.499   5.422  0.7762 -0.8303 -1.4099
  558SOL    HW2 1964   1.691   0.523   5.520 -0.4497 -1.4401  0.3935
  559SOL     OW 1965   4.068   1.464   3.273  0.6459 -0.0008 -0.1206
  559SOL    HW1 1966   4.010   1.543   3.255  0.5422 -0.1951 -0.6427
  559SOL    HW2 1967   4.161   1.495   3.296  0.2256  0.3389  1.2567
  560SOL     OW 1968   1.854   5.099   4.212 -0.4292 -0.3282 -0.1233
  560SOL    HW1 1969   1.814   5.007   4.214 -0.6334 -0.2522  2.6513
  560SOL    HW2 1970   1.931   5.103   4.275  0.4054  1.0937 -1.1794
  561SOL     OW 1971   2.194   5.030   3.478 -0.5466 -0.4256  0.6330
  561SOL    HW1 1972   2.167   5.028   3.381  2.4364 -0.1095 -0.3135
  561SOL    HW2 1973   2.222   4.938   3.506 -0.5620 -0.3321  0.9565
  562SOL     OW 1974   1.998   5.457   1.853  0.2204 -0.0587 -0.0856
  562SOL    HW1 1975   2.090   5.491   1.836  0.2164 -0.1255 -0.2469
  562SOL    HW2 1976   1.976   5.465   1.950  0.7277 -0.8728  0.1052
  563SOL     OW 1977   4.865   4.510   1.510 -0.2063 -0.0823 -0.3994
  563SOL    HW1 1978   4.806   4.465   1.578  0.9537  0.5391  1.0689
  563SOL    HW2 1979   4.954   4.464   1.508  0.1742  0.6616 -0.6365
  564SOL     OW 1980   5.742   3.960   1.842 -0.4251  0.2717  0.4193
  564SOL    HW1 1981   5.663   3.931   1.897  0.1484 -2.5967 -0.1129
  564SOL    HW2 1982   5.720   4.045   1.795 -3.7422 -1.0465 -0.7316
  565SOL     OW 1983   2.047   3.268   4.760 -0.3671  0.3329  0.5308
  565SOL    HW1 1984   2.105   3.193   4.729 -0.9845  0.1496 -0.2044
  565SOL    HW2 1985   2.046   3.270   4.860 -2.1042 -2.0861  0.6520
  566SOL     OW 1986   2.369   4.378   3.901  0.2300 -0.0763  0.2201
  566SOL    HW1 1987   2.312   4.453   3.865 -0.2996 -0.9736 -0.8774
  566SOL    HW2 1988   2.364   4.378   4.000 -1.5852 -0.0266  0.1604
  567SOL     OW 1989   2.302   3.211   2.143  0.1843 -0.2356 -0.0002
  567SOL    HW1 1990   2.250   3.132   2.175 -0.5308  0.2881  0.1620
  567SOL    HW2 1991   2.277   3.232   2.049 -0.2170  0.2597  0.2062
  568SOL     OW 1992   5.743   1.236   3.056 -0.4228  0.0176  0.2043
  568SOL    HW1 1993   5.761   1.316   2.999 -0.3794 -0.4822 -0.5009
  568SOL    HW2 1994   5.769   1.153   3.006 -1.7282 -0.5313  0.3932
  569SOL     OW 1995   1.431   4.974   5.585  0.1547  0.1710 -0.8841
  569SOL    HW1 1996   1.365   5.039   5.621  1.0704  0.3626  0.5220
  569SOL    HW2 1997   1.419   4.886   5.631  1.4546  0.4667  0.0696
  570SOL     OW 1998   5.612   0.610   1.973 -0.3649 -0.4243  0.3087
  570SOL    HW1 1999   5.628   0.553   1.892  1.6964  1.6651 -0.8853
  570SOL    HW2 2000   5.560   0.691   1.947  0.2180  0.2085  1.0565
  571SOL     OW 2001   2.718   5.075   5.902  0.3469 -0.0801  0.0802
  571SOL    HW1 2002   2.619   5.063   5.907  0.0752  1.7639 -0.0945
  571SOL    HW2 2003   2.739   5.156   5.848  1.9779 -0.5635 -0.0761
  572SOL     OW 2004   5.008   2.836   1.784 -0.0942  1.0459  0.0512
  572SOL    HW1 2005   5.040   2.801   1.872  1.5860  0.4081 -0.7547
  572SOL    HW2 2006   5.080   2.894   1.744 -0.4381  0.5637 -1.3081
  573SOL     OW 2007   0.964   4.319   5.575 -0.0262 -0.2162 -0.4945
  573SOL    HW1 2008   0.887   4.359   5.525  0.5694  2.0157  0.2193
  573SOL    HW2 2009   1.046   4.322   5.518  0.3454  1.0501  0.0559
  574SOL     OW 2010   1.638   3.472   5.934  0.3570  0.7403  0.0587
  574SOL    HW1 2011   1.651   3.446   5.838  0.7072  0.1451  0.2608
  574SOL    HW2 2012   1.556   3.527   5.942  0.2414  0.6735 -0.5673
  575SOL     OW 2013   5.786   0.686   3.897  0.3696  0.0131 -0.0510
  575SOL    HW1 2014   5.769   0.727   3.807 -0.2059 -1.8614 -0.8402
  575SOL    HW2 2015   5.700   0.678   3.946  0.2024 -1.6212 -0.5498
  576SOL     OW 2016   2.046   5.824   3.734  0.3027  0.1156 -0.2015
  576SOL    HW1 2017   1.999   5.743   3.700  1.7893 -1.5366  1.4288
  576SOL    HW2 2018   2.117   5.797   3.799  1.2376  2.7122  0.0103
  577SOL     OW 2019   4.148   4.357   0.489 -0.4054 -0.1077 -0.2416
  577SOL    HW1 2020   4.149   4.454   0.514  3.7591 -0.4804  1.9725
  577SOL    HW2 2021   4.229   4.336   0.433 -0.6452 -2.4486  0.1902
  578SOL     OW 2022   3.167   4.844   5.202  0.2256 -0.1487 -0.2262
  578SOL    HW1 2023   3.214   4.784   5.268  1.4066 -1.0751 -1.8301
  578SOL    HW2 2024   3.177   4.806   5.110 -1.9086  0.7835 -0.9041
  579SOL     OW 2025   3.792   4.831   3.179  0.2569  0.0074  0.2976
  579SOL    HW1 2026   3.820   4.838   3.274  0.0491  0.2695  0.3420
  579SOL    HW2 2027   3.778   4.923   3.141  1.2968 -0.0521 -0.2796
  580SOL     OW 2028   2.494   3.931   0.146  0.3628 -0.0106 -0.1985
  580SOL    HW1 2029   2.471   3.956   0.052  0.3844 -2.3400 -0.8957
  580SOL    HW2 2030   2.593   3.939   0.158  0.2573  1.2417 -0.0401
  581SOL     OW 2031   3.156   2.580   2.900 -0.0319 -0.1006 -0.2520
  581SOL    HW1 2032   3.221   2.577   2.825  1.8067  3.7988  0.8959
  581SOL    HW2 2033   3.197   2.538   2.981  0.2548  0.5485 -0.0546
  582SOL     OW 2034   4.170   3.679   2.864  0.9596 -0.2468 -0.1744
  582SOL    HW1 2035   4.161   3.641   2.956  1.6830 -1.8764 -0.7300
  582SOL    HW2 2036   4.103   3.635   2.803 -1.8098  3.1092  0.1464
  583SOL     OW 2037   3.773   2.273   3.214 -0.0070 -0.1731 -0.4916
  583SOL    HW1 2038   3.773   2.361   3.168  1.9650 -0.0817 -0.3945
  583SOL    HW2 2039   3.685   2.228   3.200 -0.6147  1.2710 -1.5416
  584SOL     OW 2040  -0.023   3.173   5.590  0.3633 -0.3529 -0.5978
  584SOL    HW1 2041   0.061   3.221   5.616 -0.3958 -0.6865  3.1265
  584SOL    HW2 2042  -0.001   3.080   5.562  1.3264 -0.1354 -0.6104
  585SOL     OW 2043   2.347   2.227   3.492 -0.3669  0.2678 -0.3923
  585SOL    HW1 2044   2.341   2.131   3.462 -0.0711  0.3635 -0.7744
  585SOL    HW2 2045   2.297   2.285   3.428 -2.2771  0.1673  0.9322
  586SOL     OW 2046   5.014   0.587   4.787 -0.4876 -0.1519  0.9314
  586SOL    HW1 2047   5.067   0.511   4.747  0.1092  1.1906 -0.9565
  586SOL    HW2 2048   4.930   0.601   4.734  0.7575  2.2540 -0.5737
  587SOL     OW 2049   2.269   5.592   4.448  0.3011  0.1782 -0.3161
  587SOL    HW1 2050   2.321   5.586   4.533  1.3143  0.1510 -0.9150
  587SOL    HW2 2051   2.286   5.511   4.392 -2.5086 -1.1656  0.5731
  588SOL     OW 2052   0.949   4.097   5.749  0.0912 -0.0556  0.6543
  588SOL    HW1 2053   0.945   4.178   5.691 -0.7155 -0.7569 -0.3092
  588SOL    HW2 2054   0.857   4.074   5.781  0.2339 -0.8867  0.4835
  589SOL     OW 2055   0.641   4.974   3.096 -0.1749  0.0083  0.0784
  589SOL    HW1 2056   0.727   5.025   3.100 -0.5707  1.0108 -2.3366
  589SOL    HW2 2057   0.617   4.940   3.187  2.1187  0.7770  1.0193
  590SOL     OW 2058   4.699   2.657   4.462  0.2149 -0.2310 -0.4427
  590SOL    HW1 2059   4.606   2.630   4.437  0.6086 -1.6371 -0.4650
  590SOL    HW2 2060   4.765   2.601   4.412  1.0680  0.0521  0.3380
  591SOL     OW 2061   5.926   5.236   3.786 -0.4304  0.1649 -0.0424
  591SOL    HW1 2062   5.984   5.168   3.831 -0.6571  0.7921  1.2595
  591SOL    HW2 2063   5.834   5.233   3.826 -0.4158  1.2916  0.1183
  592SOL     OW 2064   1.668   2.463   3.925 -0.0275  0.4366  0.2423
  592SOL    HW1 2065   1.734   2.514   3.981 -0.0026  0.0610  0.5660
  592SOL    HW2 2066   1.648   2.514   3.842  0.5223  0.6469  0.2353
  593SOL     OW 2067   4.377   3.594   5.842 -0.2925  0.2339 -0.0704
  593SOL    HW1 2068   4.464   3.588   5.794 -0.0494 -1.9590  0.5235
  593SOL    HW2 2069   4.310   3.534   5.798 -0.7599  0.0317  0.8905
  594SOL     OW 2070   2.599   0.933   1.997  0.4351  0.2723 -0.2426
  594SOL    HW1 2071   2.671   0.914   1.931  1.9547  0.5533  1.2500
  594SOL    HW2 2072   2.579   1.031   1.998  1.6573  0.5506  0.8483
  595SOL     OW 2073   1.860   4.534   3.207  0.4363  0.0032  0.4158
  595SOL    HW1 2074   1.941   4.545   3.265  0.1344 -0.5217  0.9411
  595SOL    HW2 2075   1.785   4.590   3.243 -0.3678 -1.8414  1.7100
  596SOL     OW 2076   4.910   1.175   0.608 -0.1251  0.2569  0.0109
  596SOL    HW1 2077   5.003   1.200   0.583 -0.0326  0.8806  0.9345
  596SOL    HW2 2078   4.891   1.082   0.576  0.7640  0.1654 -0.2853
  597SOL     OW 2079   3.959   1.534   0.817  0.4947  0.2216 -0.0277
  597SOL    HW1 2080   3.944   1.600   0.890  1.1970 -0.1087  0.4292
  597SOL    HW2 2081   3.871   1.498   0.785  0.1298  1.0912 -0.0246
  598SOL     OW 2082   2.783   3.736   0.819 -0.2041  0.4945 -0.2081
  598SOL    HW1 2083   2.687   3.744   0.793 -0.5221  0.2848  0.8474
  598SOL    HW2 2084   2.834   3.691   0.745 -1.4130 -1.7157  0.2141
  599SOL     OW 2085   0.010   4.858   5.109  0.3811  0.9960 -0.7574
  599SOL    HW1 2086  -0.045   4.818   5.035 -0.9674  1.9429 -0.3207
  599SOL    HW2 2087   0.102   4.877   5.075  0.2524 -0.0046 -1.7335
  600SOL     OW 2088   2.600   5.840   1.642 -0.6497  0.2441 -0.3740
  600SOL    HW1 2089   2.613   5.753   1.691 -2.2510 -0.4734 -1.1435
  600SOL    HW2 2090   2.665   5.908   1.677 -0.8273 -0.6168  1.7860
  601SOL     OW 2091   4.779   2.574   1.799 -0.2073 -0.6031  0.2392
  601SOL    HW1 2092   4.827   2.607   1.717 -0.3659 -0.7268  0.0978
  601SOL    HW2 2093   4.683   2.600   1.795 -0.1897 -0.4960  0.4495
  602SOL     OW 2094   4.840   2.587   3.143 -0.2031 -0.5099 -0.1016
  602SOL    HW1 2095   4.846   2.620   3.237 -0.5033 -1.3376  0.2080
  602SOL    HW2 2096   4.838   2.487   3.142  0.5348 -0.5294 -1.0268
  603SOL     OW 2097   0.893   4.305   4.584  0.6007  0.1957 -0.0721
  603SOL    HW1 2098   0.825   4.282   4.515 -0.0363 -0.5890  0.8006
  603SOL    HW2 2099   0.985   4.287   4.547  0.2780 -0.1080 -0.7460
  604SOL     OW 2100   3.999   0.949   5.957 -0.0684 -0.1247  0.2011
  604SOL    HW1 2101   4.031   1.042   5.975 -0.4987  0.0881 -0.1167
  604SOL    HW2 2102   3.900   0.950   5.941 -0.4248 -0.8891  2.0356
  605SOL     OW 2103   5.165   3.661   1.606  0.5661 -0.2924  0.0289
  605SOL    HW1 2104   5.149   3.756   1.630 -0.8146 -0.6232  0.4753
  605SOL    HW2 2105   5.158   3.604   1.687  1.1448 -0.8206 -0.2764
  606SOL     OW 2106   2.354   1.549   0.880 -0.0321  0.7184  0.0488
  606SOL    HW1 2107   2.429   1.606   0.912 -0.0858  1.5744 -1.2695
  606SOL    HW2 2108   2.390   1.474   0.824 -0.1578  1.2230 -0.7177
  607SOL     OW 2109   2.945   2.002   4.943 -0.2578  0.2276 -0.6904
  607SOL    HW1 2110   2.904   1.921   4.985 -1.3613  1.2468  0.2886
  607SOL    HW2 2111   2.953   2.075   5.012 -0.7208  1.4605 -1.8908
  608SOL     OW 2112   1.975   1.313   5.697 -0.2692  0.3630  0.1202
  608SOL    HW1 2113   1.934   1.309   5.788  0.8088  0.8874  0.6586
  608SOL    HW2 2114   1.986   1.221   5.662  0.7598  0.0269  1.2325
  609SOL     OW 2115   2.737   0.889   5.281 -0.4197  0.6161  0.5067
  609SOL    HW1 2116   2.795   0.862   5.204 -0.8906 -1.8523  0.9384
  609SOL    HW2 2117   2.646   0.912   5.248 -0.6256 -0.4486  0.2872
  610SOL     OW 2118   1.630   2.166   1.684 -0.2088  0.0341  0.2465
  610SOL    HW1 2119   1.687   2.145   1.764 -0.3614  0.1587  0.3896
  610SOL    HW2 2120   1.684   2.217   1.617 -0.3665  0.8746  0.7338
  611SOL     OW 2121   0.542   4.576   2.305 -0.1401 -0.5575  0.3356
  611SOL    HW1 2122   0.541   4.496   2.365  0.4696 -0.3634  0.6143
  611SOL    HW2 2123   0.562   4.547   2.211  0.3193 -0.7094  0.4781
  612SOL     OW 2124   2.070   4.208   4.893 -0.5407 -0.1483  0.1651
  612SOL    HW1 2125   2.005   4.276   4.926 -1.9372 -1.1281 -0.4266
  612SOL    HW2 2126   2.099   4.150   4.969 -0.4658  0.2025  0.4064
  613SOL     OW 2127   0.310   2.392   3.430  0.0782 -0.0812 -0.4896
  613SOL    HW1 2128   0.349   2.377   3.339 -1.8642 -3.5990 -0.8989
  613SOL    HW2 2129   0.211   2.401   3.424 -0.0526  0.1445  1.2588
  614SOL     OW 2130   1.253   2.760   2.727 -0.2454  0.1324  0.2130
  614SOL    HW1 2131   1.224   2.821   2.653 -0.6729 -0.9389 -0.5143
  614SOL    HW2 2132   1.173   2.729   2.778  0.0534  1.0221  1.2969
  615SOL     OW 2133   3.112   1.608   2.340  0.1475  0.1289  0.2771
  615SOL    HW1 2134   3.019   1.643   2.347  0.2664  0.2120  2.1074
  615SOL    HW2 2135   3.110   1.511   2.320 -0.2891  0.3612 -0.8584
  616SOL     OW 2136   2.466   0.155   0.186  0.1544  0.0146  0.5312
  616SOL    HW1 2137   2.416   0.091   0.245 -0.0484 -0.8594 -0.5775
  616SOL    HW2 2138   2.404   0.228   0.157 -0.4029 -0.8388 -0.4982
  617SOL     OW 2139   2.929   3.063   5.727  0.0287  0.2891  0.3522
  617SOL    HW1 2140   2.905   2.967   5.721  1.2354 -0.0621  0.8096
  617SOL    HW2 2141   2.870   3.117   5.666 -1.8909 -0.4792  1.4436
  618SOL     OW 2142   0.880   4.871   2.903 -0.3947 -1.0427  0.7619
  618SOL    HW1 2143   0.782   4.866   2.882 -0.8827 -0.1466  2.5566
  618SOL    HW2 2144   0.913   4.780   2.928 -0.0816 -1.8796 -2.3010
  619SOL     OW 2145   5.948   3.822   1.277  0.3625  0.3822 -0.2721
  619SOL    HW1 2146   5.923   3.892   1.344 -0.7354 -0.3765  0.1393
  619SOL    HW2 2147   5.927   3.855   1.185  0.1635  0.7209 -0.1064
  620SOL     OW 2148   1.938   1.497   3.138 -0.2958  0.0637 -0.5555
  620SOL    HW1 2149   1.941   1.411   3.088 -2.3501 -0.2602 -0.1783
  620SOL    HW2 2150   2.032   1.531   3.150  0.5268 -1.8705 -1.0745
  621SOL     OW 2151   0.985   3.084   5.546 -0.4369  0.0559  0.1457
  621SOL    HW1 2152   0.905   3.026   5.559 -1.3333  1.2772  0.2085
  621SOL    HW2 2153   1.045   3.078   5.626  0.4576 -2.1905 -0.5969
  622SOL     OW 2154   2.866   1.430   0.479  0.3937 -0.0599 -0.3514
  622SOL    HW1 2155   2.770   1.456   0.475  0.2836 -0.5379 -3.4980
  622SOL    HW2 2156   2.922   1.511   0.498 -0.3382  1.5481 -4.1290
  623SOL     OW 2157   0.714   1.561   4.813 -0.2360  0.3069  0.0931
  623SOL    HW1 2158   0.634   1.594   4.863  0.5404  0.2131  1.4689
  623SOL    HW2 2159   0.796   1.608   4.848  0.6849 -1.7380  0.8671
  624SOL     OW 2160   4.514   1.311   4.573  0.0616  0.8705  0.2016
  624SOL    HW1 2161   4.533   1.305   4.475  2.4305  1.2805  0.5654
  624SOL    HW2 2162   4.455   1.235   4.600 -0.2504  0.4790 -1.4490
  625SOL     OW 2163   4.598   4.844   0.470  0.0139 -0.1830 -0.3202
  625SOL    HW1 2164   4.598   4.914   0.399 -2.7788  1.4821  1.1589
  625SOL    HW2 2165   4.645   4.878   0.552 -0.6967 -0.3031  0.1484
  626SOL     OW 2166   3.547   4.165   3.779  0.8737 -0.3192  0.2703
  626SOL    HW1 2167   3.491   4.247   3.789  2.5134  0.8653  0.0956
  626SOL    HW2 2168   3.515   4.095   3.842  0.5475  1.1027  1.7467
  627SOL     OW 2169   4.758   3.466   4.637 -0.1825 -0.2124 -0.4872
  627SOL    HW1 2170   4.769   3.516   4.723  1.4046 -1.0831 -0.1333
  627SOL    HW2 2171   4.787   3.371   4.650 -1.7924 -0.8760 -1.5043
  628SOL     OW 2172   0.284   0.932   5.328  0.5167  0.5656 -0.0746
  628SOL    HW1 2173   0.304   1.030   5.330 -2.3518  1.2129  0.6086
  628SOL    HW2 2174   0.190   0.917   5.298  0.6499 -1.9661  0.5415
  629SOL     OW 2175   5.167   4.885   4.163 -0.3154 -0.4593 -0.0693
  629SOL    HW1 2176   5.171   4.919   4.068  0.8797 -1.3433 -0.3554
  629SOL    HW2 2177   5.072   4.882   4.193 -0.5694  2.6457 -0.1887
  630SOL     OW 2178   1.936   2.278   5.241  0.3832 -0.2557 -0.0919
  630SOL    HW1 2179   1.977   2.187   5.227  1.4337  0.1096  0.5572
  630SOL    HW2 2180   1.964   2.314   5.330 -3.1578 -0.9363  1.4694
  631SOL     OW 2181   4.176   4.442   4.180 -0.0894 -0.3149 -0.1451
  631SOL    HW1 2182   4.247   4.431   4.110 -0.3384  0.7168 -0.5801
  631SOL    HW2 2183   4.095   4.483   4.138 -1.1065 -1.8385  0.2505
  632SOL     OW 2184   3.791   5.466   5.889 -0.3113 -0.0403 -0.6133
  632SOL    HW1 2185   3.723   5.530   5.923  0.5987  0.1907  0.8721
  632SOL    HW2 2186   3.762   5.430   5.800 -1.2557  1.7532 -1.0787
  633SOL     OW 2187   0.228   1.837   4.175  0.3220 -0.5695  0.3280
  633SOL    HW1 2188   0.182   1.925   4.166  0.2879 -0.4986  1.1176
  633SOL    HW2 2189   0.324   1.851   4.198  0.6700 -0.7217 -1.0049
  634SOL     OW 2190   4.513   0.397   5.315  0.9915 -0.0772 -0.0585
  634SOL    HW1 2191   4.496   0.353   5.403  1.8281 -1.8980 -0.7562
  634SOL    HW2 2192   4.511   0.328   5.242  0.5741  1.3438 -1.4533
  635SOL     OW 2193   4.939   5.203   2.864 -0.5573 -0.3476 -0.4736
  635SOL    HW1 2194   4.970   5.110   2.844 -1.2597 -0.0598 -3.3895
  635SOL    HW2 2195   5.016   5.266   2.856 -0.2258 -0.5628  0.8141
  636SOL     OW 2196   2.422   2.216   5.141  0.0598  0.0436 -0.3997
  636SOL    HW1 2197   2.475   2.138   5.109  0.4588  0.5281 -0.9506
  636SOL    HW2 2198   2.422   2.217   5.241  1.8757  0.5236 -0.3604
  637SOL     OW 2199   2.691   3.550   3.350 -0.5629 -0.0331  0.0098
  637SOL    HW1 2200   2.593   3.530   3.352 -0.1476 -2.3052  1.5097
  637SOL    HW2 2201   2.743   3.465   3.345  1.3614  0.9831  1.1742
  638SOL     OW 2202   0.744   5.262   1.848 -0.5667  0.6681  0.0183
  638SOL    HW1 2203   0.811   5.280   1.920 -1.2822 -0.0238  0.8821
  638SOL    HW2 2204   0.791   5.261   1.759  0.0773  3.1861  0.2387
  639SOL     OW 2205   0.189   5.152   3.050 -0.4489 -0.7207 -0.7404
  639SOL    HW1 2206   0.287   5.149   3.072 -0.7331  1.0064  1.0639
  639SOL    HW2 2207   0.136   5.119   3.128 -1.3357 -1.4262 -1.6157
  640SOL     OW 2208   5.028   1.984   1.540  0.3570  0.1213 -0.0219
  640SOL    HW1 2209   4.997   2.063   1.592  0.2960  0.4936 -0.6160
  640SOL    HW2 2210   5.082   2.014   1.462 -1.1037 -0.3221 -1.2570
  641SOL     OW 2211   0.864   1.119   0.128 -0.4625 -0.2949 -0.3353
  641SOL    HW1 2212   0.767   1.119   0.152 -0.5300 -0.7159 -0.5933
  641SOL    HW2 2213   0.874   1.092   0.032 -0.1499  0.6241 -0.5716
  642SOL     OW 2214   0.630   2.518   3.946  0.0098  0.2581 -0.4770
  642SOL    HW1 2215   0.578   2.458   4.007  0.9541 -0.7947 -0.6689
  642SOL    HW2 2216   0.608   2.496   3.851  0.7478 -0.1723 -0.5590
  643SOL     OW 2217   1.340   4.854   5.360  0.3762  0.1624  0.5026
  643SOL    HW1 2218   1.356   4.940   5.409  2.6060 -0.7113  1.4182
  643SOL    HW2 2219   1.415   4.839   5.296 -1.3829  0.1871 -1.6771
  644SOL     OW 2220   2.295   4.074   1.837 -0.1365 -0.0854 -0.0212
  644SOL    HW1 2221   2.197   4.095   1.845 -0.4500 -0.9770 -1.1933
  644SOL    HW2 2222   2.328   4.034   1.923  0.0476  3.2618  1.6154
  645SOL     OW 2223   0.323   4.941   3.541  0.0904  0.3248 -0.0974
  645SOL    HW1 2224   0.248   4.875   3.545  1.9886 -2.0990 -1.8131
  645SOL    HW2 2225   0.378   4.934   3.624 -0.9509  1.4044  0.7172
  646SOL     OW 2226   5.572   0.788   5.297  0.7510 -0.2244  1.2020
  646SOL    HW1 2227   5.658   0.767   5.251  1.2223 -1.4531  2.5639
  646SOL    HW2 2228   5.589   0.811   5.393 -0.3725  0.3829  1.2862
  647SOL     OW 2229   2.470   5.764   3.746  0.6174 -0.4605 -0.6741
  647SOL    HW1 2230   2.444   5.731   3.656 -0.6962  1.5331 -1.1024
  647SOL    HW2 2231   2.400   5.739   3.813  0.4805 -0.0391 -0.6578
  648SOL     OW 2232   2.810   4.486   2.386 -0.6953  0.5616  0.1628
  648SOL    HW1 2233   2.759   4.472   2.302  2.7138 -0.8876 -1.8634
  648SOL    HW2 2234   2.882   4.555   2.372  0.9716 -0.8394  1.2849
  649SOL     OW 2235   0.284   4.775   5.007  0.4907 -0.1525 -0.2619
  649SOL    HW1 2236   0.247   4.718   5.081  0.1347  0.4159 -0.0010
  649SOL    HW2 2237   0.378   4.746   4.987  1.9029  1.8894  2.7861
  650SOL     OW 2238   2.207   1.850   3.247  0.1048 -0.1341  0.0959
  650SOL    HW1 2239   2.127   1.866   3.305 -1.5363  0.1897 -2.0925
  650SOL    HW2 2240   2.224   1.751   3.240 -0.7645 -0.2746 -0.1919
  651SOL     OW 2241   0.158   5.750   4.820  0.0787 -0.3551  0.4338
  651SOL    HW1 2242   0.158   5.683   4.894 -0.3364 -0.1128  0.6558
  651SOL    HW2 2243   0.218   5.719   4.747  0.0003 -0.9010  0.5974
  652SOL     OW 2244   5.197   3.468   4.123  0.2859  0.0319 -0.2895
  652SOL    HW1 2245   5.134   3.541   4.151  0.2244  0.0718 -0.5309
  652SOL    HW2 2246   5.242   3.494   4.038  0.1983 -0.2525 -0.4230
  653SOL     OW 2247   1.197   3.508   3.050  0.1121 -0.0934 -0.4614
  653SOL    HW1 2248   1.125   3.440   3.065  0.2268 -0.9701 -3.4255
  653SOL    HW2 2249   1.286   3.464   3.058  0.2601  0.2716 -0.0439
  654SOL     OW 2250   2.750   5.559   3.338  0.5115 -0.0674 -0.0984
  654SOL    HW1 2251   2.807   5.538   3.417  0.9686 -0.6781 -0.5705
  654SOL    HW2 2252   2.718   5.473   3.297 -0.8292  0.2679  0.2064
  655SOL     OW 2253   2.309   5.719   5.250  0.1739  0.6569  0.0996
  655SOL    HW1 2254   2.375   5.792   5.270  0.5415  0.5187 -0.5767
  655SOL    HW2 2255   2.336   5.672   5.166  0.6469 -1.0922  1.1840
  656SOL     OW 2256   5.204   0.864   4.070  0.4296  0.2389 -0.5756
  656SOL    HW1 2257   5.125   0.900   4.020  1.2188  0.2867 -1.8215
  656SOL    HW2 2258   5.288   0.905   4.035  1.3092 -2.2559 -1.6261
  657SOL     OW 2259   3.766   0.468   3.888 -0.0259 -0.1124 -0.3825
  657SOL    HW1 2260   3.678   0.467   3.935 -0.3261  0.3548 -0.9360
  657SOL    HW2 2261   3.803   0.561   3.888  0.4708 -0.3041 -0.1517
  658SOL     OW 2262   1.958   5.809   2.125  0.1098  0.3680 -0.5018
  658SOL    HW1 2263   1.972   5.869   2.045 -0.0219  0.2782 -0.5919
  658SOL    HW2 2264   1.892   5.738   2.102 -0.1893  0.5477 -0.2047
  659SOL     OW 2265   2.006   4.787   4.173 -0.4305  0.4809 -0.1340
  659SOL    HW1 2266   2.064   4.868   4.178  1.6685 -0.9339 -0.3775
  659SOL    HW2 2267   2.021   4.730   4.254  0.2203 -0.9544 -1.2076
  660SOL     OW 2268   4.172   4.916   1.231 -0.1871  0.5359  0.1322
  660SOL    HW1 2269   4.143   4.853   1.303  0.4309  2.2726  2.0147
  660SOL    HW2 2270   4.187   4.866   1.146  1.4263 -2.0662  1.8081
  661SOL     OW 2271   1.225   1.862   5.118  0.2686 -0.0958 -0.2693
  661SOL    HW1 2272   1.317   1.882   5.151  0.2735  2.2867 -1.5313
  661SOL    HW2 2273   1.162   1.933   5.149 -1.5543 -2.4915  1.8858
  662SOL     OW 2274   5.361   3.987   1.003 -0.2174 -0.1763 -0.1907
  662SOL    HW1 2275   5.373   4.086   0.994  2.0030 -0.2739  1.0957
  662SOL    HW2 2276   5.341   3.964   1.098 -0.2643 -1.0133 -0.3943
  663SOL     OW 2277   5.854   0.069   4.513  0.1692 -0.0323  0.0613
  663SOL    HW1 2278   5.906  -0.003   4.468  0.6757 -0.7470  1.7012
  663SOL    HW2 2279   5.883   0.077   4.609 -2.2502 -0.0013  0.8766
  664SOL     OW 2280   3.852   5.148   3.879  0.3375 -0.0397 -0.5690
  664SOL    HW1 2281   3.810   5.079   3.820  2.1207 -1.0977 -0.6731
  664SOL    HW2 2282   3.907   5.210   3.823 -1.3699  1.6309 -0.4993
  665SOL     OW 2283   4.474   4.827   5.343 -0.0095  0.4777  0.5235
  665SOL    HW1 2284   4.447   4.737   5.307 -3.1222  1.3972  0.2652
  665SOL    HW2 2285   4.562   4.853   5.303 -0.6892 -0.9305 -2.2028
  666SOL     OW 2286   5.088   1.244   3.179  0.5457  0.0838 -0.0630
  666SOL    HW1 2287   5.146   1.326   3.175 -0.6239  0.8765 -2.0827
  666SOL    HW2 2288   4.995   1.268   3.153  0.0778 -1.8235 -0.2883
  667SOL     OW 2289   3.405   2.191   2.680  0.5172 -0.7091  0.2201
  667SOL    HW1 2290   3.322   2.144   2.649 -0.7102  2.4518 -1.8335
  667SOL    HW2 2291   3.379   2.267   2.740  2.0323 -0.3718  0.4765
  668SOL     OW 2292   4.130   2.559   1.112  0.0167  0.0854 -0.2806
  668SOL    HW1 2293   4.155   2.653   1.088  1.9053 -0.6821 -1.5110
  668SOL    HW2 2294   4.077   2.519   1.038 -0.3721  0.0158  0.0323
  669SOL     OW 2295   0.884   3.111   4.443  0.2294  0.2136  0.2527
  669SOL    HW1 2296   0.920   3.200   4.415 -0.4180  0.1764 -0.7107
  669SOL    HW2 2297   0.885   3.049   4.365  1.5362 -0.9287  1.1281
  670SOL     OW 2298   4.743   1.373   2.801  0.2494  0.0609  0.6255
  670SOL    HW1 2299   4.648   1.341   2.796 -0.0637  0.9589  0.6257
  670SOL    HW2 2300   4.779   1.384   2.708  0.8058 -1.5242  0.6216
  671SOL     OW 2301   5.340   3.050   5.257  0.1686  0.0276  0.2342
  671SOL    HW1 2302   5.306   3.097   5.339  0.8932  0.7347  0.1336
  671SOL    HW2 2303   5.263   3.032   5.196 -0.2566  0.2267  0.6989
  672SOL     OW 2304   4.490   1.349   2.741  0.2206  0.0945  0.1459
  672SOL    HW1 2305   4.459   1.386   2.654  2.4065  0.8111 -0.3920
  672SOL    HW2 2306   4.480   1.250   2.740 -0.5464  0.1671 -0.5923
  673SOL     OW 2307   4.284   1.357   4.922  0.8732  0.9720  0.0961
  673SOL    HW1 2308   4.252   1.279   4.976 -0.9960  2.0423  0.6086
  673SOL    HW2 2309   4.232   1.362   4.837  1.5686  1.2035 -0.3257
  674SOL     OW 2310   1.552   5.535   3.105  0.0942  0.6045  0.7652
  674SOL    HW1 2311   1.509   5.454   3.145  0.6466  0.5098  1.1752
  674SOL    HW2 2312   1.628   5.506   3.046 -0.8244  0.7281 -0.5207
  675SOL     OW 2313   4.333   0.501   2.556  0.0463 -0.5736 -0.3546
  675SOL    HW1 2314   4.347   0.494   2.457 -0.2027  0.8580 -0.5107
  675SOL    HW2 2315   4.286   0.419   2.588  0.3462 -1.1688 -1.3765
  676SOL     OW 2316   0.103   1.765   2.459  0.1386  0.0154  0.1358
  676SOL    HW1 2317   0.046   1.834   2.416 -0.1891 -0.1716  0.2650
  676SOL    HW2 2318   0.199   1.793   2.455  0.0139  0.4387  0.1220
  677SOL     OW 2319   2.628   0.570   1.208 -0.3234 -0.2851  0.2728
  677SOL    HW1 2320   2.670   0.500   1.150 -0.9541 -0.5128  0.0816
  677SOL    HW2 2321   2.699   0.627   1.248  0.1044  0.1148 -1.0188
  678SOL     OW 2322   4.053   2.853   2.539 -0.2560  0.0944 -0.0905
  678SOL    HW1 2323   3.966   2.815   2.509  0.0856 -1.0872  0.3576
  678SOL    HW2 2324   4.040   2.904   2.624 -0.6608  0.7160 -0.5191
  679SOL     OW 2325   5.032   2.126   4.347  0.2664  0.0664 -0.4055
  679SOL    HW1 2326   4.989   2.057   4.404  2.3250 -0.4926  0.5571
  679SOL    HW2 2327   4.981   2.134   4.261 -2.4334  0.3450  1.0870
  680SOL     OW 2328   0.155   1.902   5.293  0.3424 -0.6982 -0.1342
  680SOL    HW1 2329   0.138   1.805   5.308  0.3122 -0.7004 -0.1816
  680SOL    HW2 2330   0.141   1.952   5.379 -3.9828 -0.1206 -0.9145
  681SOL     OW 2331   1.377   2.971   0.537 -0.3538  0.0168 -0.2176
  681SOL    HW1 2332   1.335   2.926   0.616  1.0057  0.5803  0.8645
  681SOL    HW2 2333   1.443   2.909   0.494 -0.6883 -0.0943 -0.5713
  682SOL     OW 2334   0.699   5.629   4.520 -0.1342  0.1818 -0.4890
  682SOL    HW1 2335   0.629   5.698   4.501 -0.3844 -0.5410 -2.3467
  682SOL    HW2 2336   0.656   5.546   4.555 -0.1604 -0.0833 -1.1432
  683SOL     OW 2337   2.360   0.026   5.081  0.4964 -0.0382  0.7037
  683SOL    HW1 2338   2.368   0.042   4.983  2.0321 -1.4760  0.5543
  683SOL    HW2 2339   2.298   0.094   5.121 -0.9090 -0.0000 -1.3940
  684SOL     OW 2340   5.328   4.677   4.162 -0.0607 -0.2998 -0.3382
  684SOL    HW1 2341   5.273   4.760   4.156  1.3847  0.6457 -0.8867
  684SOL    HW2 2342   5.305   4.617   4.085 -0.2884  0.1034 -0.5863
  685SOL     OW 2343   5.720   1.500   5.548  0.1381  0.3011  0.2439
  685SOL    HW1 2344   5.666   1.577   5.515  2.1427  1.7710  0.2021
  685SOL    HW2 2345   5.730   1.506   5.647 -0.4861 -0.4601  0.3610
  686SOL     OW 2346   5.609   3.161   4.404 -0.3533  0.0251  0.5512
  686SOL    HW1 2347   5.610   3.217   4.321 -1.6381 -1.7616 -0.7355
  686SOL    HW2 2348   5.536   3.193   4.464  0.7144  1.4595  1.1379
  687SOL     OW 2349   2.851   2.849   5.263  0.1987 -0.3391  0.1318
  687SOL    HW1 2350   2.765   2.879   5.305  0.2296  0.0361 -0.0731
  687SOL    HW2 2351   2.928   2.889   5.313  0.2659  3.5745 -2.6534
  688SOL     OW 2352   0.717   4.481   0.699  0.3339 -0.1527 -0.4296
  688SOL    HW1 2353   0.649   4.482   0.625 -1.7510  1.6730  1.3644
  688SOL    HW2 2354   0.695   4.407   0.763  0.0575  0.3746  0.0962
  689SOL     OW 2355   5.235   5.864   1.049  0.2009 -0.2459  0.2102
  689SOL    HW1 2356   5.177   5.849   0.970  1.8450 -1.0932 -0.9117
  689SOL    HW2 2357   5.244   5.962   1.067 -2.1175 -0.1213  0.8903
  690SOL     OW 2358   0.227   0.078   4.944  0.4675 -0.0801 -0.1504
  690SOL    HW1 2359   0.297   0.138   4.982  1.8505 -1.2968 -0.6959
  690SOL    HW2 2360   0.244  -0.016   4.974 -2.9690 -0.0449  2.6780
  691SOL     OW 2361   2.934   1.741   3.544 -0.3035  0.1110  0.3542
  691SOL    HW1 2362   2.912   1.713   3.637  0.2988 -1.2583  0.1192
  691SOL    HW2 2363   2.989   1.670   3.500 -2.3176 -0.2856 -1.7469
  692SOL     OW 2364   1.826   3.113   4.243  0.1207 -0.5113  0.3776
  692SOL    HW1 2365   1.812   3.015   4.254 -0.1208 -0.9493 -2.8776
  692SOL    HW2 2366   1.897   3.129   4.174  0.8208  1.6484  1.5075
  693SOL     OW 2367   0.113   5.440   0.528 -0.1873  0.5357 -0.1032
  693SOL    HW1 2368   0.127   5.425   0.626 -0.2865  1.7643  0.1111
  693SOL    HW2 2369   0.018   5.419   0.504 -0.3656  0.9764  0.2141
  694SOL     OW 2370   0.720   5.274   4.212 -0.2901  1.4312 -0.2802
  694SOL    HW1 2371   0.640   5.214   4.209 -1.0249  2.3971 -0.6408
  694SOL    HW2 2372   0.765   5.273   4.122  0.8889 -0.0961  0.2748
  695SOL     OW 2373   4.504   0.654   4.184 -0.0545 -0.2253  0.3009
  695SOL    HW1 2374   4.555   0.718   4.241  2.6395 -2.2672  0.3915
  695SOL    HW2 2375   4.439   0.603   4.240  1.5768 -1.2247  1.3612
  696SOL     OW 2376   0.808   3.209   4.918  0.2008 -0.4190 -0.3837
  696SOL    HW1 2377   0.839   3.134   4.859  1.3708 -0.5747  0.3926
  696SOL    HW2 2378   0.825   3.296   4.873  1.6551 -0.5096 -0.0489
  697SOL     OW 2379   5.199   1.497   1.797 -0.4365 -0.7240  0.5344
  697SOL    HW1 2380   5.138   1.561   1.750  1.0234  0.4557  0.1692
  697SOL    HW2 2381   5.281   1.483   1.742  0.2101 -1.2603  1.6098
  698SOL     OW 2382   0.541   3.313   5.105 -0.0488  0.5742 -0.4495
  698SOL    HW1 2383   0.564   3.327   5.009  1.4113 -1.2054 -0.4271
  698SOL    HW2 2384   0.476   3.238   5.114  0.1059  0.4802 -0.0507
  699SOL     OW 2385   0.705   4.100   2.035 -0.1109 -0.2378  0.2829
  699SOL    HW1 2386   0.772   4.170   2.009 -0.5899 -0.2145 -0.9267
  699SOL    HW2 2387   0.646   4.079   1.957 -0.1776 -1.7762  0.7132
  700SOL     OW 2388   4.784   3.221   3.012 -0.4158  0.1279 -0.4433
  700SOL    HW1 2389   4.770   3.122   3.012 -2.3143  0.3634 -0.1167
  700SOL    HW2 2390   4.735   3.262   3.090  1.2801  1.2273  0.1097
  701SOL     OW 2391   4.441   4.100   0.924 -0.6437  0.7781  0.4066
  701SOL    HW1 2392   4.430   4.139   1.016 -1.0521 -0.6901  1.0112
  701SOL    HW2 2393   4.384   4.152   0.859  0.8405  2.8225  0.6339
  702SOL     OW 2394   0.087   5.576   4.443 -0.2974 -0.0954 -0.4841
  702SOL    HW1 2395   0.111   5.513   4.368  2.7539  2.1868 -1.6480
  702SOL    HW2 2396   0.170   5.605   4.490 -1.9571  0.2351  2.4901
  703SOL     OW 2397   4.287   4.978   0.547 -0.4994  0.2767 -0.2589
  703SOL    HW1 2398   4.368   4.950   0.496 -0.4116 -0.0976  0.0776
  703SOL    HW2 2399   4.208   4.924   0.516 -0.3462 -0.3051  0.3344
  704SOL     OW 2400   4.019   5.460   0.501 -0.2245 -0.1521  0.3264
  704SOL    HW1 2401   4.089   5.531   0.495  0.0154 -0.2946  1.2863
  704SOL    HW2 2402   4.061   5.371   0.485  0.0372 -0.3373  1.8678
  705SOL     OW 2403   2.922   5.239   4.748  0.2168  0.2458 -0.0218
  705SOL    HW1 2404   3.008   5.196   4.775 -0.3132 -1.1747 -0.5201
  705SOL    HW2 2405   2.859   5.238   4.826 -0.0789 -0.6504 -0.2608
  706SOL     OW 2406   3.118   5.245   2.599 -0.8759 -0.5365  0.3313
  706SOL    HW1 2407   3.084   5.153   2.582 -2.0070 -0.0143 -0.3293
  706SOL    HW2 2408   3.045   5.311   2.582  0.5606  0.6705 -1.6216
  707SOL     OW 2409   3.061   4.073   0.088 -0.2797 -0.1872  0.3853
  707SOL    HW1 2410   3.141   4.061   0.029 -0.6355  0.2378 -0.1940
  707SOL    HW2 2411   3.030   4.168   0.085 -1.6010 -0.6081 -0.4562
  708SOL     OW 2412   0.214   4.943   0.238 -0.0439 -0.3007 -0.2325
  708SOL    HW1 2413   0.217   4.864   0.177 -0.1306  1.0119 -1.9892
  708SOL    HW2 2414   0.172   5.020   0.191 -0.5846  0.6278  1.6781
  709SOL     OW 2415   1.668   0.453   0.579 -0.6697  0.3252  0.0926
  709SOL    HW1 2416   1.747   0.502   0.542 -1.0760  1.0030  0.1152
  709SOL    HW2 2417   1.699   0.376   0.635  0.0017  1.4036  1.2365
  710SOL     OW 2418   3.197   1.224   2.807  0.9057  0.3121  0.2991
  710SOL    HW1 2419   3.115   1.167   2.798  1.2799 -0.2793  0.6064
  710SOL    HW2 2420   3.170   1.319   2.823  0.2627  0.4432 -1.3916
  711SOL     OW 2421   2.764   5.022   2.413  0.3149 -0.4682  0.1211
  711SOL    HW1 2422   2.699   5.084   2.457 -0.0268 -0.3220 -0.5720
  711SOL    HW2 2423   2.716   4.941   2.380  0.6511 -0.8064  0.4551
  712SOL     OW 2424   2.170   4.530   4.517  0.0377  0.2507  0.0754
  712SOL    HW1 2425   2.174   4.589   4.598  1.1296 -0.0271  0.2515
  712SOL    HW2 2426   2.086   4.476   4.519  0.9006 -1.1469  2.0725
  713SOL     OW 2427   2.504   2.578   3.248 -0.5079 -0.1370  0.2379
  713SOL    HW1 2428   2.527   2.592   3.345 -2.6658  0.2639  0.7366
  713SOL    HW2 2429   2.520   2.662   3.197 -0.4545  0.0048  0.4855
  714SOL     OW 2430   2.479   3.386   4.949  0.2637  0.0303 -0.0912
  714SOL    HW1 2431   2.445   3.318   4.884 -0.9642 -0.5243  1.0673
  714SOL    HW2 2432   2.511   3.467   4.900 -0.2350 -0.5357 -1.3989
  715SOL     OW 2433   1.481   0.239   3.928 -0.0031  0.1280  0.6102
  715SOL    HW1 2434   1.481   0.300   4.007  0.5300 -0.2295  0.8926
  715SOL    HW2 2435   1.536   0.279   3.855 -1.3142  0.9288  0.0396
  716SOL     OW 2436   2.065   0.837   4.991  0.2453  0.0688 -0.1247
  716SOL    HW1 2437   1.977   0.822   4.944  0.1511  2.7985 -0.9602
  716SOL    HW2 2438   2.048   0.856   5.087  0.1477 -1.5924  0.2256
  717SOL     OW 2439   0.481   5.181   1.898 -0.0665 -0.7004  0.7688
  717SOL    HW1 2440   0.569   5.209   1.859  0.2113 -1.6556  0.6981
  717SOL    HW2 2441   0.473   5.216   1.991 -1.1407  2.4437 -0.3681
  718SOL     OW 2442   2.759   0.856   0.287  0.3489  0.3336 -0.3643
  718SOL    HW1 2443   2.671   0.882   0.249 -0.1663 -0.3628  0.3104
  718SOL    HW2 2444   2.825   0.929   0.272 -0.2402  0.7029 -1.2157
  719SOL     OW 2445   5.611   2.474   0.426  0.3837  0.2468 -0.0561
  719SOL    HW1 2446   5.642   2.443   0.516  0.7646 -1.2140 -0.6684
  719SOL    HW2 2447   5.544   2.548   0.438  0.4148  0.0647  1.4198
  720SOL     OW 2448   0.339   1.515   0.185  0.3678  0.3519 -0.2578
  720SOL    HW1 2449   0.325   1.416   0.180 -1.2811  0.4514  1.2484
  720SOL    HW2 2450   0.429   1.534   0.224  0.3209 -0.5896  0.3457
  721SOL     OW 2451   4.998   5.292   5.547 -0.1955  0.0896 -0.3364
  721SOL    HW1 2452   4.908   5.335   5.557 -0.0948  0.1589  0.2995
  721SOL    HW2 2453   5.038   5.278   5.637  0.9404  1.1425 -0.6496
  722SOL     OW 2454   4.841   3.569   2.999  0.0895  0.6488 -0.4472
  722SOL    HW1 2455   4.902   3.499   2.963  0.5689  1.6327 -1.6376
  722SOL    HW2 2456   4.828   3.555   3.097  0.4108 -0.9017 -0.6028
  723SOL     OW 2457   2.505   0.688   1.484  0.5396  0.0220  0.1901
  723SOL    HW1 2458   2.529   0.609   1.539 -1.9899 -0.5246  0.6319
  723SOL    HW2 2459   2.459   0.658   1.400  0.1844  0.9922  0.0204
  724SOL     OW 2460   4.723   1.616   3.553  0.4133  0.5529 -0.8085
  724SOL    HW1 2461   4.700   1.533   3.503  0.1802 -1.4449  2.3783
  724SOL    HW2 2462   4.819   1.612   3.583  0.4365  1.5191 -0.7089
  725SOL     OW 2463   3.027   0.651   5.959  0.4412 -0.4167  0.4476
  725SOL    HW1 2464   2.938   0.621   5.925  0.3156 -0.7600  1.0608
  725SOL    HW2 2465   3.042   0.746   5.933  0.0651 -0.4750  0.0065
  726SOL     OW 2466   4.357   1.108   4.653  0.9055  0.2982 -0.0418
  726SOL    HW1 2467   4.271   1.148   4.623 -0.1331  0.4931  2.9198
  726SOL    HW2 2468   4.354   1.008   4.641  0.6522  0.3835 -0.7479
  727SOL     OW 2469   2.720   5.510   1.383  0.5230  0.1178  0.2618
  727SOL    HW1 2470   2.673   5.596   1.365  0.5403 -0.0115 -0.4470
  727SOL    HW2 2471   2.714   5.452   1.302  0.8926 -0.3702  0.5802
  728SOL     OW 2472   4.938   3.321   0.597 -0.0791  0.6757 -0.4063
  728SOL    HW1 2473   4.855   3.266   0.608  0.2735  0.2606  0.1941
  728SOL    HW2 2474   5.015   3.261   0.576  0.3431  0.9172  0.4270
  729SOL     OW 2475   4.277   1.653   2.016 -0.8586  0.3977 -0.3644
  729SOL    HW1 2476   4.207   1.619   2.078 -2.2185 -0.5878 -2.3455
  729SOL    HW2 2477   4.287   1.591   1.939  1.1401  1.3104 -0.9241
  730SOL     OW 2478   4.863   3.012   1.392 -0.4280  0.5581 -0.2063
  730SOL    HW1 2479   4.905   3.101   1.410 -0.1042  0.5206 -0.7703
  730SOL    HW2 2480   4.880   2.985   1.298  1.2434 -1.0343  0.4843
  731SOL     OW 2481   2.719   4.849   1.283 -0.5631  0.0647 -0.1700
  731SOL    HW1 2482   2.692   4.801   1.367 -0.8020  1.0169  0.3145
  731SOL    HW2 2483   2.777   4.927   1.307 -1.4960  0.9686 -0.7914
  732SOL     OW 2484   3.352   0.201   5.186  0.2632  0.1106 -0.0098
  732SOL    HW1 2485   3.434   0.183   5.239 -0.3572  0.6495  1.1722
  732SOL    HW2 2486   3.272   0.165   5.235 -0.3189  0.5346 -0.6299
  733SOL     OW 2487   5.260   2.584   4.115  0.0541 -0.2332 -0.3006
  733SOL    HW1 2488   5.311   2.551   4.195  2.6580  0.2892 -1.6450
  733SOL    HW2 2489   5.301   2.548   4.032 -1.2238  1.0041 -1.5175
  734SOL     OW 2490   4.125   3.465   2.023 -0.1084  0.1276 -0.2679
  734SOL    HW1 2491   4.095   3.550   1.980 -0.0535  0.7048  0.7860
  734SOL    HW2 2492   4.147   3.483   2.119 -1.5832 -1.3921  0.4038
  735SOL     OW 2493   5.877   1.851   4.039  0.4230 -0.0142  0.0385
  735SOL    HW1 2494   5.842   1.918   4.105 -0.1148 -1.9647  1.8658
  735SOL    HW2 2495   5.949   1.893   3.983  0.8655  1.7805  1.8274
  736SOL     OW 2496   4.495   4.071   2.759 -0.2916 -0.1246 -0.1268
  736SOL    HW1 2497   4.576   4.020   2.788 -1.4672 -1.1061  1.6006
  736SOL    HW2 2498   4.417   4.009   2.751 -0.4905  0.3209 -4.0927
  737SOL     OW 2499   4.447   2.001   4.729 -0.2199 -0.1442  0.0554
  737SOL    HW1 2500   4.375   2.029   4.793 -0.0890  0.5419 -0.0803
  737SOL    HW2 2501   4.517   1.949   4.778 -1.7396 -2.5498 -0.1661
  738SOL     OW 2502   0.583   5.150   0.164  0.5074  0.6071  0.0120
  738SOL    HW1 2503   0.663   5.151   0.104 -0.5995  0.8392 -1.5032
  738SOL    HW2 2504   0.521   5.223   0.138 -2.1495 -1.9921 -1.6264
  739SOL     OW 2505   4.082   0.672   3.459  0.2596 -0.5294 -0.3067
  739SOL    HW1 2506   3.994   0.675   3.507 -0.8501  0.8875 -2.2987
  739SOL    HW2 2507   4.148   0.730   3.508 -0.2719 -0.6071  0.5214
  740SOL     OW 2508   5.588   4.017   4.762  0.2160 -0.2025 -0.4150
  740SOL    HW1 2509   5.647   3.990   4.686  0.7561 -0.7175  0.1744
  740SOL    HW2 2510   5.581   3.941   4.827 -2.4679 -0.7979 -1.2770
  741SOL     OW 2511   1.872   4.454   1.700  0.1961 -0.2770 -0.2229
  741SOL    HW1 2512   1.860   4.521   1.627  0.5848 -0.1727 -0.1925
  741SOL    HW2 2513   1.962   4.465   1.741  0.8844 -1.8027 -1.2165
  742SOL     OW 2514   4.176   3.498   0.803 -0.6133 -0.5143 -0.1614
  742SOL    HW1 2515   4.172   3.532   0.897  0.9209 -1.1491  0.1647
  742SOL    HW2 2516   4.194   3.574   0.740  0.0382 -0.3196  0.2535
  743SOL     OW 2517   3.657   4.997   5.837 -0.3763 -0.2129  0.1628
  743SOL    HW1 2518   3.609   5.080   5.863  0.5694  0.3554  0.1321
  743SOL    HW2 2519   3.686   5.003   5.741  1.4495  0.3122  0.7074
  744SOL     OW 2520   1.066   5.152   0.527  0.0832 -0.2109  0.5139
  744SOL    HW1 2521   0.969   5.156   0.551 -0.2512  0.6627 -0.8797
  744SOL    HW2 2522   1.086   5.065   0.482 -0.7594  0.7285 -1.8541
  745SOL     OW 2523   5.389   3.000   4.295  0.1101  0.1814 -0.4224
  745SOL    HW1 2524   5.473   3.043   4.329  0.2524 -1.3927  1.4017
  745SOL    HW2 2525   5.359   2.931   4.360 -2.5345  0.5651 -1.1342
  746SOL     OW 2526   2.866   1.428   5.383 -0.3758  0.1412  0.2272
  746SOL    HW1 2527   2.893   1.495   5.452  1.1499 -1.4563  1.2777
  746SOL    HW2 2528   2.856   1.339   5.426 -1.3257 -0.5236 -1.3089
  747SOL     OW 2529   3.027   3.765   4.020 -0.4807  0.3638  0.5471
  747SOL    HW1 2530   3.079   3.820   3.955 -0.2011  0.0045  0.4637
  747SOL    HW2 2531   3.089   3.724   4.087 -0.6227 -0.2349  0.3227
  748SOL     OW 2532   4.515   0.599   5.865 -0.3815 -0.5323  1.0266
  748SOL    HW1 2533   4.482   0.643   5.948 -0.5632  1.1180  0.1193
  748SOL    HW2 2534   4.578   0.525   5.889 -0.5285 -0.1600  2.6297
  749SOL     OW 2535   5.471   4.638   5.325  0.3395 -0.3761  0.0793
  749SOL    HW1 2536   5.539   4.680   5.265  0.1263  1.5990  1.1135
  749SOL    HW2 2537   5.515   4.615   5.413 -0.5577  2.5577  1.4306
  750SOL     OW 2538   4.289   5.122   2.984  0.0428  0.1508 -0.6249
  750SOL    HW1 2539   4.203   5.121   3.035  1.0184  0.3757  1.1212
  750SOL    HW2 2540   4.277   5.076   2.896 -1.3728 -1.5335  0.3970
  751SOL     OW 2541   2.286   5.592   0.998 -0.0441 -0.3794 -0.3360
  751SOL    HW1 2542   2.224   5.530   0.950  2.1914 -2.2769 -1.0039
  751SOL    HW2 2543   2.268   5.588   1.096 -0.8741 -1.0060 -0.5047
  752SOL     OW 2544   2.557   0.248   4.105 -0.1584  0.4097 -0.0373
  752SOL    HW1 2545   2.535   0.332   4.155  0.4813  1.0871 -0.8670
  752SOL    HW2 2546   2.576   0.270   4.010 -2.1843 -0.9572 -0.8328
  753SOL     OW 2547   5.331   3.281   0.469 -0.3085  0.0602  0.5065
  753SOL    HW1 2548   5.399   3.236   0.411  0.8052  1.8321  0.3631
  753SOL    HW2 2549   5.298   3.216   0.538  0.5278 -1.2224 -0.2481
  754SOL     OW 2550   2.844   4.863   5.783  0.2110  0.1851 -0.2077
  754SOL    HW1 2551   2.820   4.936   5.846 -0.4755 -0.0711 -0.1531
  754SOL    HW2 2552   2.787   4.870   5.701 -0.1681 -0.5323 -0.0157
  755SOL     OW 2553   3.591   0.213   2.682  0.3115  0.6435 -0.4876
  755SOL    HW1 2554   3.540   0.179   2.761  2.2670 -1.2076  0.0687
  755SOL    HW2 2555   3.543   0.190   2.598 -0.2938 -0.1224  0.0564
  756SOL     OW 2556   5.899   3.883   1.022  0.7175  0.5930  0.4448
  756SOL    HW1 2557   5.899   3.840   0.931  0.9749  0.5670  0.4574
  756SOL    HW2 2558   5.806   3.913   1.044  0.5309  0.0425  0.4340
  757SOL     OW 2559   0.756   4.191   4.001 -0.1365 -0.3385  0.0274
  757SOL    HW1 2560   0.730   4.276   4.047  0.0584 -0.1421 -0.2238
  757SOL    HW2 2561   0.824   4.210   3.930  0.9839 -0.8747  0.9068
  758SOL     OW 2562   4.282   4.614   0.307  0.0957 -0.1358 -0.2487
  758SOL    HW1 2563   4.349   4.541   0.321  0.1866  0.2236  1.5121
  758SOL    HW2 2564   4.226   4.623   0.390 -0.0540  1.6344 -0.5105
  759SOL     OW 2565   1.123   1.624   5.087 -0.1214  0.0851 -0.4475
  759SOL    HW1 2566   1.084   1.608   5.177 -0.8441 -0.0206 -0.7689
  759SOL    HW2 2567   1.180   1.706   5.089 -1.7694  1.2911 -0.3537
  760SOL     OW 2568   4.866   3.319   3.934  0.6841  0.1475 -0.2399
  760SOL    HW1 2569   4.788   3.372   3.968  0.7446 -0.6488  1.1771
  760SOL    HW2 2570   4.857   3.223   3.961  2.3110  0.0952  0.2555
  761SOL     OW 2571   3.146   1.338   2.274  0.8279 -0.4076 -0.3610
  761SOL    HW1 2572   3.127   1.349   2.176 -0.4181  0.4521 -0.0520
  761SOL    HW2 2573   3.078   1.277   2.314  0.0790  0.8453  0.3357
  762SOL     OW 2574   0.273   5.423   2.928 -0.8357  0.5879  0.5186
  762SOL    HW1 2575   0.218   5.341   2.911  0.8360 -0.6019  0.6162
  762SOL    HW2 2576   0.362   5.413   2.883  0.5516  1.0064  3.0030
  763SOL     OW 2577   3.992   5.666   1.139  0.4418 -0.0349  0.5878
  763SOL    HW1 2578   3.894   5.657   1.125  0.4621 -0.8522  0.9045
  763SOL    HW2 2579   4.009   5.731   1.214  0.1943  0.9838 -0.2243
  764SOL     OW 2580   1.842   3.608   4.763 -0.0972 -0.7621  0.0519
  764SOL    HW1 2581   1.750   3.634   4.736  0.0297  1.4731  1.5261
  764SOL    HW2 2582   1.876   3.535   4.703 -1.7773  0.2350 -2.2054
  765SOL     OW 2583   5.198   0.511   3.569 -0.3212 -0.0134 -0.0358
  765SOL    HW1 2584   5.222   0.606   3.589 -1.6993  0.5712 -0.9891
  765SOL    HW2 2585   5.154   0.470   3.649 -1.5819  0.8284 -0.2723
  766SOL     OW 2586   2.399   2.103   1.809  0.2699 -0.2007 -0.3129
  766SOL    HW1 2587   2.401   2.196   1.843 -0.9926  0.0513 -0.8654
  766SOL    HW2 2588   2.466   2.047   1.858  1.8327  1.2368 -0.7345
  767SOL     OW 2589   3.372   3.240   1.273  0.4358 -0.2958 -0.4250
  767SOL    HW1 2590   3.308   3.164   1.255  1.3245 -1.1348 -0.1384
  767SOL    HW2 2591   3.321   3.320   1.302 -0.3591 -1.6942  2.3665
  768SOL     OW 2592   3.208   0.570   1.258 -0.3938  0.2325 -0.2106
  768SOL    HW1 2593   3.131   0.507   1.266 -0.8662  0.9199  0.8726
  768SOL    HW2 2594   3.237   0.599   1.349  2.8020 -1.9431 -0.3651
  769SOL     OW 2595   5.619   0.686   3.419 -0.1768  0.3885 -1.0568
  769SOL    HW1 2596   5.666   0.622   3.359  1.3693  1.8932 -1.5237
  769SOL    HW2 2597   5.542   0.727   3.370 -0.4809 -0.2564 -1.1280
  770SOL     OW 2598   3.638   4.848   4.502 -0.0274  0.4106  0.2718
  770SOL    HW1 2599   3.727   4.875   4.537  0.7063 -0.5150 -0.8023
  770SOL    HW2 2600   3.631   4.748   4.502 -1.0593  0.4664  0.3253
  771SOL     OW 2601   5.309   1.755   5.622  0.4582 -0.1152 -0.2589
  771SOL    HW1 2602   5.406   1.766   5.646  0.0260  0.7403  1.1492
  771SOL    HW2 2603   5.273   1.842   5.588 -0.0502 -0.1844  0.0977
  772SOL     OW 2604   0.040   3.350   1.275 -0.3704 -0.0155 -0.0055
  772SOL    HW1 2605  -0.022   3.364   1.198 -1.1864  0.8146  0.7855
  772SOL    HW2 2606   0.030   3.424   1.341  1.2135 -0.0475  0.3221
  773SOL     OW 2607   5.925   5.612   5.281  0.4118 -0.3845  0.3627
  773SOL    HW1 2608   5.981   5.598   5.363 -0.1630 -1.6812  0.5518
  773SOL    HW2 2609   5.897   5.524   5.244 -2.6513  0.1661  1.0757
  774SOL     OW 2610   1.200   4.742   2.391 -0.6107  0.1285 -0.1015
  774SOL    HW1 2611   1.187   4.797   2.308 -1.3905 -1.3323 -0.9814
  774SOL    HW2 2612   1.111   4.707   2.421 -0.0534 -1.2314  0.0212
  775SOL     OW 2613   3.948   1.809   5.720  0.0490 -0.2553 -0.4121
  775SOL    HW1 2614   3.995   1.733   5.765 -1.5269 -0.5573  0.8061
  775SOL    HW2 2615   3.850   1.802   5.737 -0.3182  1.1306 -1.7135
  776SOL     OW 2616   0.145   1.389   3.888  0.5154 -0.0263  0.2989
  776SOL    HW1 2617   0.193   1.465   3.844  0.0498  1.1308  1.6794
  776SOL    HW2 2618   0.047   1.409   3.891  0.3999 -0.6423  0.7564
  777SOL     OW 2619   4.630   3.288   4.315 -0.3433 -0.0299  0.7627
  777SOL    HW1 2620   4.568   3.338   4.376 -1.0395  1.3705 -0.9849
  777SOL    HW2 2621   4.722   3.324   4.326 -0.6016  0.7414  0.4714
  778SOL     OW 2622   2.770   1.489   5.834  0.2813  0.6422 -0.7844
  778SOL    HW1 2623   2.857   1.449   5.863 -0.5152  0.3652  1.4033
  778SOL    HW2 2624   2.772   1.505   5.736  2.6326  0.2378 -0.8601
  779SOL     OW 2625   3.488   1.409   5.055  0.2435 -0.1286  0.0939
  779SOL    HW1 2626   3.575   1.360   5.044  0.8761 -0.5154  4.6903
  779SOL    HW2 2627   3.507   1.505   5.073 -0.1257 -0.3512  1.8601
  780SOL     OW 2628   5.053   2.155   0.094 -0.1445 -0.3482  0.2058
  780SOL    HW1 2629   5.084   2.096   0.168  0.2570  1.2187  1.3476
  780SOL    HW2 2630   5.124   2.160   0.024 -0.7046 -2.1887 -0.5347
  781SOL     OW 2631   3.942   4.823   5.873  0.2003 -0.7386 -0.1229
  781SOL    HW1 2632   3.904   4.798   5.784  1.0439  0.8573 -0.9611
  781SOL    HW2 2633   3.953   4.740   5.929 -1.1447 -1.6576 -1.1538
  782SOL     OW 2634   2.038   1.763   2.318 -0.0966 -0.3992  0.3144
  782SOL    HW1 2635   2.003   1.670   2.334  0.6232 -0.6541  0.4248
  782SOL    HW2 2636   2.109   1.784   2.384  1.5748 -0.7608 -1.2971
  783SOL     OW 2637   1.323   1.675   3.822  0.0943 -0.6854  0.4132
  783SOL    HW1 2638   1.344   1.769   3.851 -0.5879 -0.3183 -0.2562
  783SOL    HW2 2639   1.383   1.650   3.746  0.0166 -0.6547  0.3421
  784SOL     OW 2640   0.443   4.621   3.695 -0.1543  0.0639 -0.0364
  784SOL    HW1 2641   0.539   4.597   3.707  0.0491  0.9297  0.1312
  784SOL    HW2 2642   0.412   4.593   3.604  0.0448 -0.8750  0.1732
  785SOL     OW 2643   4.230   0.982   2.705 -0.1690 -0.1072 -0.2920
  785SOL    HW1 2644   4.160   1.053   2.707  0.9818  1.0754 -0.3546
  785SOL    HW2 2645   4.191   0.897   2.668 -1.5090  0.5507 -0.4539
  786SOL     OW 2646   4.075   1.159   0.358  0.2049 -0.5866 -0.2860
  786SOL    HW1 2647   3.984   1.200   0.344 -0.3980 -2.2831 -1.7750
  786SOL    HW2 2648   4.139   1.231   0.384 -1.7657  0.4900  2.0404
  787SOL     OW 2649   1.312   3.449   3.985 -0.2133 -0.5754  0.7701
  787SOL    HW1 2650   1.263   3.528   3.949 -0.6012 -1.1248  0.0703
  787SOL    HW2 2651   1.411   3.467   3.980 -0.2903 -0.2244  0.4099
  788SOL     OW 2652   5.676   1.973   1.945  0.1664 -0.0035  0.2858
  788SOL    HW1 2653   5.663   2.028   2.027  0.4481 -1.8898  1.6497
  788SOL    HW2 2654   5.587   1.949   1.906  0.0251  0.5985  0.2282
  789SOL     OW 2655   0.079   4.280   1.223 -0.4746 -0.0913  0.0788
  789SOL    HW1 2656   0.158   4.340   1.237  0.0320 -0.4137 -1.2139
  789SOL    HW2 2657   0.032   4.306   1.139 -1.7869  0.1091  0.8467
  790SOL     OW 2658   5.031   1.144   2.338  0.3282  0.1045  0.7180
  790SOL    HW1 2659   4.960   1.174   2.401 -0.1789 -1.4186  0.8963
  790SOL    HW2 2660   5.016   1.049   2.312  1.9420 -0.0641  0.2555
  791SOL     OW 2661   2.416   2.516   5.887 -0.3290 -0.3328 -0.2765
  791SOL    HW1 2662   2.413   2.432   5.833  2.6417  0.2003 -1.4541
  791SOL    HW2 2663   2.348   2.580   5.852 -1.1809 -1.4511 -0.7379
  792SOL     OW 2664   5.743   3.806   4.288 -0.0026 -0.7542 -0.5073
  792SOL    HW1 2665   5.764   3.709   4.285  0.7618 -0.5760 -1.9795
  792SOL    HW2 2666   5.648   3.820   4.262 -0.1465 -1.1186 -0.1813
  793SOL     OW 2667   3.693   4.613   4.955 -0.2623  0.0314 -0.3579
  793SOL    HW1 2668   3.691   4.551   5.034 -0.7086  0.2244 -0.2169
  793SOL    HW2 2669   3.605   4.659   4.946  0.0179  0.5446 -0.5433
  794SOL     OW 2670   4.702   2.848   3.309  0.3126 -0.1338 -0.2820
  794SOL    HW1 2671   4.610   2.886   3.320  1.1804  1.5828  1.6995
  794SOL    HW2 2672   4.737   2.871   3.219 -0.8147  0.0476 -0.6858
  795SOL     OW 2673   0.557   1.892   1.343  0.1736  0.1479 -0.2397
  795SOL    HW1 2674   0.619   1.850   1.277  0.4130  0.6854 -0.3581
  795SOL    HW2 2675   0.551   1.835   1.425  0.8997  0.1467 -0.1894
  796SOL     OW 2676   4.871   5.066   0.305  0.0973  0.0089  0.2080
  796SOL    HW1 2677   4.911   5.051   0.396  2.7478 -0.1962 -0.8798
  796SOL    HW2 2678   4.867   4.979   0.256  0.2874  0.3768 -0.4646
  797SOL     OW 2679   2.607   5.672   2.033 -0.0746  0.0644  0.3727
  797SOL    HW1 2680   2.653   5.620   1.961  0.8634  0.5994  0.5686
  797SOL    HW2 2681   2.631   5.769   2.025 -2.2140  0.5868 -0.3084
  798SOL     OW 2682  -0.001   0.755   3.190 -0.0630  0.2457 -0.2695
  798SOL    HW1 2683  -0.035   0.665   3.217 -0.5744  0.3959 -0.3870
  798SOL    HW2 2684   0.057   0.793   3.262  0.2235 -0.2140 -0.2585
  799SOL     OW 2685   4.842   4.063   5.228 -0.5112 -0.3113 -0.3984
  799SOL    HW1 2686   4.922   4.018   5.268  1.5050  0.7353 -2.9258
  799SOL    HW2 2687   4.794   3.998   5.169 -0.9914 -0.6986  0.4167
  800SOL     OW 2688   5.812   2.815   0.369 -0.2681  0.1350  0.3502
  800SOL    HW1 2689   5.885   2.755   0.336 -0.9509 -1.4406  1.5314
  800SOL    HW2 2690   5.788   2.881   0.298 -0.0473 -1.5477 -1.3845
  801SOL     OW 2691   2.079   4.669   4.786 -0.0441  0.0601 -0.4868
  801SOL    HW1 2692   1.982   4.674   4.760  0.0371  1.4025 -0.5747
  801SOL    HW2 2693   2.087   4.628   4.877 -0.7366  0.3881 -0.2710
  802SOL     OW 2694   4.884   3.637   3.994  0.3565  0.0007 -0.1149
  802SOL    HW1 2695   4.920   3.563   3.937 -1.2402 -0.0709 -1.1175
  802SOL    HW2 2696   4.873   3.719   3.939  0.5433  0.4897  0.5712
  803SOL     OW 2697   5.402   2.079   1.821 -0.4181 -0.0989  0.1450
  803SOL    HW1 2698   5.362   2.132   1.746 -0.1134  0.6664  0.5081
  803SOL    HW2 2699   5.355   1.991   1.829 -1.7687  0.6213  0.3293
  804SOL     OW 2700   2.059   3.850   1.878  0.3808  0.4502  0.3887
  804SOL    HW1 2701   2.068   3.751   1.892 -0.9323  0.5864  2.9782
  804SOL    HW2 2702   2.046   3.895   1.967  2.4163  3.1754 -0.5470
  805SOL     OW 2703   2.321   0.099   4.818 -0.3825  0.2119  0.5063
  805SOL    HW1 2704   2.224   0.096   4.792 -0.6450 -0.3100  1.4755
  805SOL    HW2 2705   2.377   0.070   4.740 -1.1349 -1.2656  0.4609
  806SOL     OW 2706   4.110   3.768   4.128  0.2607 -0.4903  0.1163
  806SOL    HW1 2707   4.154   3.732   4.045  0.9658 -0.4003  0.4366
  806SOL    HW2 2708   4.177   3.824   4.178  0.0173 -1.0170  1.0414
  807SOL     OW 2709   2.313   3.068   3.542  0.0037 -0.7542 -0.1872
  807SOL    HW1 2710   2.304   2.988   3.601 -2.2774 -0.1547  0.3937
  807SOL    HW2 2711   2.276   3.046   3.452  0.5461 -0.7200 -0.4202
  808SOL     OW 2712   2.057   4.363   2.166 -0.2935  0.0542  0.4893
  808SOL    HW1 2713   2.075   4.446   2.112 -0.1719  0.7453  1.5649
  808SOL    HW2 2714   2.084   4.379   2.261 -0.3205 -1.2112  0.7215
  809SOL     OW 2715   1.299   1.327   2.782  0.1927  0.0325  0.1718
  809SOL    HW1 2716   1.353   1.335   2.866 -1.9300  4.0364  1.4408
  809SOL    HW2 2717   1.355   1.356   2.704  1.2559 -0.5933  0.6823
  810SOL     OW 2718   4.580   1.429   0.064  0.2212 -0.1580 -0.2159
  810SOL    HW1 2719   4.654   1.497   0.058  1.3137 -1.3806 -1.1285
  810SOL    HW2 2720   4.617   1.344   0.101 -0.9930 -0.4788  0.3017
  811SOL     OW 2721   4.328   0.023   4.067 -0.3248 -0.3930 -0.1275
  811SOL    HW1 2722   4.230   0.036   4.053 -0.2775 -0.9152 -0.9793
  811SOL    HW2 2723   4.376   0.028   3.979  0.2252 -1.6765  0.0828
  812SOL     OW 2724   2.260   0.839   0.712  0.1840 -0.9359  0.1971
  812SOL    HW1 2725   2.252   0.876   0.805 -0.4389  0.0346 -0.2279
  812SOL    HW2 2726   2.353   0.806   0.697  0.3781 -0.8059  1.0551
  813SOL     OW 2727   2.565   1.442   0.491 -0.4719  0.7607  0.2982
  813SOL    HW1 2728   2.504   1.522   0.485 -2.4090 -0.6970 -0.6952
  813SOL    HW2 2729   2.538   1.385   0.568 -0.9430 -0.3205 -0.6347
  814SOL     OW 2730   4.814   5.557   2.782  0.2141 -0.1622  0.5791
  814SOL    HW1 2731   4.813   5.485   2.713  0.7949 -0.6976  1.1197
  814SOL    HW2 2732   4.725   5.602   2.785 -0.7255 -1.9996  1.4187
  815SOL     OW 2733   1.772   3.312   4.432  0.3333 -0.3524 -0.4607
  815SOL    HW1 2734   1.785   3.401   4.388  0.8246 -0.2585 -0.1341
  815SOL    HW2 2735   1.790   3.240   4.366  0.2938 -0.2103 -0.6286
  816SOL     OW 2736   2.186   4.982   5.465 -0.1051 -0.4429  0.1350
  816SOL    HW1 2737   2.239   5.057   5.426  0.5307 -0.8869  0.1339
  816SOL    HW2 2738   2.244   4.901   5.474 -0.6584 -0.8002  0.5651
  817SOL     OW 2739   0.579   0.093   1.412  0.7540 -0.0615 -0.2982
  817SOL    HW1 2740   0.657   0.071   1.354  0.5469 -0.6354 -0.3583
  817SOL    HW2 2741   0.505   0.131   1.356  0.5404 -0.6495 -0.4193
  818SOL     OW 2742   1.570   1.011   0.941  0.2117  0.4468 -0.5772
  818SOL    HW1 2743   1.525   0.962   0.866  0.1326  0.8170 -0.7731
  818SOL    HW2 2744   1.629   0.948   0.991 -0.1770  0.0572 -0.5955
  819SOL     OW 2745   1.549   4.819   1.256 -0.5266  0.3104  0.0376
  819SOL    HW1 2746   1.601   4.900   1.229 -0.0819  0.1661  0.4418
  819SOL    HW2 2747   1.454   4.845   1.273 -0.6209  0.5543 -0.8214
  820SOL     OW 2748   0.984   0.046   2.392 -0.2368  0.6190  0.3711
  820SOL    HW1 2749   1.070   0.051   2.341 -1.1985 -0.2594 -1.4313
  820SOL    HW2 2750   0.973   0.129   2.447  1.2374  1.2374 -0.2029
  821SOL     OW 2751   4.411   3.027   4.969 -0.4441 -0.2936  0.1299
  821SOL    HW1 2752   4.417   3.010   5.068 -1.3963  0.8493  0.4199
  821SOL    HW2 2753   4.463   2.958   4.920  0.8968 -0.3050  1.4776
  822SOL     OW 2754   4.928   2.195   0.489  0.5579  0.0639 -0.4285
  822SOL    HW1 2755   4.922   2.295   0.491  1.3841  0.1132  0.6320
  822SOL    HW2 2756   4.851   2.158   0.437  1.1116  1.3001 -2.1825
  823SOL     OW 2757   4.399   5.525   5.168 -0.4046 -0.6443  0.2526
  823SOL    HW1 2758   4.415   5.432   5.136 -0.1880  0.1717 -2.1590
  823SOL    HW2 2759   4.302   5.547   5.161 -0.0311  0.4893 -2.8690
  824SOL     OW 2760   5.695   4.634   0.201  0.2232  0.3246  0.4643
  824SOL    HW1 2761   5.773   4.690   0.229  2.6357 -1.0578 -2.8805
  824SOL    HW2 2762   5.720   4.578   0.122 -4.1011 -0.4948 -0.5942
  825SOL     OW 2763   2.357   5.032   3.165 -0.0805 -0.0474  0.2707
  825SOL    HW1 2764   2.356   4.996   3.072 -1.6994  0.8997 -0.1182
  825SOL    HW2 2765   2.311   4.968   3.226  0.8352 -0.5907  0.4159
  826SOL     OW 2766   0.442   2.140   1.275 -0.3787 -0.1129 -0.7844
  826SOL    HW1 2767   0.432   2.118   1.178  0.2956 -0.4526 -0.7835
  826SOL    HW2 2768   0.479   2.060   1.323 -0.2148  0.2256 -0.3470
  827SOL     OW 2769   0.180   2.566   5.769  0.5336 -0.7639 -0.4673
  827SOL    HW1 2770   0.148   2.482   5.814  0.2873 -0.7298 -0.5765
  827SOL    HW2 2771   0.107   2.603   5.711 -0.3033  0.9071  1.5073
  828SOL     OW 2772   1.737   1.564   4.709  0.3373  0.2708 -0.1344
  828SOL    HW1 2773   1.642   1.535   4.696  0.1023  1.4777 -1.4196
  828SOL    HW2 2774   1.797   1.504   4.657  0.3631 -0.8241  1.1049
  829SOL     OW 2775   1.190   1.743   1.802  0.3075 -0.2013 -0.5062
  829SOL    HW1 2776   1.242   1.806   1.745  0.9066  0.9295  1.2101
  829SOL    HW2 2777   1.240   1.656   1.809  1.3485  0.4128  0.0385
  830SOL     OW 2778   3.352   4.873   1.536  0.4585  0.7787 -0.1234
  830SOL    HW1 2779   3.266   4.838   1.499  0.9714  0.5787 -1.1671
  830SOL    HW2 2780   3.424   4.866   1.466  1.1184  1.7624  0.4293
  831SOL     OW 2781   1.805   3.581   0.730 -0.6189 -0.5711  0.2557
  831SOL    HW1 2782   1.796   3.484   0.748  1.0027 -0.8596 -0.3284
  831SOL    HW2 2783   1.874   3.596   0.660 -1.3526  0.9678 -0.1942
  832SOL     OW 2784   2.474   4.168   5.164  0.0854  0.0402 -0.6562
  832SOL    HW1 2785   2.477   4.267   5.150  1.3926  0.0608 -0.3554
  832SOL    HW2 2786   2.539   4.123   5.103 -0.8755 -0.6989 -1.1708
  833SOL     OW 2787   3.693   1.037   1.240  0.0294  0.2983  0.4618
  833SOL    HW1 2788   3.609   1.065   1.192 -1.1339 -1.4466  1.4088
  833SOL    HW2 2789   3.771   1.084   1.198 -1.3451  1.7082 -0.6764
  834SOL     OW 2790   1.188   3.434   5.941 -0.4477 -0.7914 -0.0819
  834SOL    HW1 2791   1.141   3.347   5.952 -0.9355 -0.4492  0.7026
  834SOL    HW2 2792   1.134   3.494   5.882 -0.7567 -0.5845  0.3976
  835SOL     OW 2793   5.613   2.071   3.924 -0.6352  0.0510 -0.2994
  835SOL    HW1 2794   5.554   2.152   3.921  0.2204  0.7660  0.9259
  835SOL    HW2 2795   5.698   2.094   3.972  1.2847 -0.5396 -3.1072
  836SOL     OW 2796   5.592   5.475   2.473 -1.0225  0.4445 -0.1527
  836SOL    HW1 2797   5.519   5.529   2.516 -0.4371 -0.2311  1.7765
  836SOL    HW2 2798   5.588   5.381   2.507  0.2877  0.2070 -0.6101
  837SOL     OW 2799   5.696   4.199   5.897  0.1049  0.5286 -0.6130
  837SOL    HW1 2800   5.656   4.175   5.985 -2.0415 -0.3530 -1.7509
  837SOL    HW2 2801   5.741   4.118   5.858 -0.1317  0.5343 -0.9046
  838SOL     OW 2802   4.554   2.984   2.112  0.3340  0.3725 -0.1643
  838SOL    HW1 2803   4.468   2.939   2.136  0.6174 -0.4993 -0.7282
  838SOL    HW2 2804   4.538   3.082   2.098 -0.2422  0.5364  1.3792
  839SOL     OW 2805   3.642   3.688   1.119  0.4129  0.2607 -0.3555
  839SOL    HW1 2806   3.566   3.735   1.164  0.3666 -1.0449  0.9761
  839SOL    HW2 2807   3.726   3.741   1.131  0.9125 -1.1288  3.3959
  840SOL     OW 2808   0.646   5.396   4.632  0.1093 -0.1964 -0.0536
  840SOL    HW1 2809   0.629   5.398   4.731 -0.5002  0.6557 -0.1643
  840SOL    HW2 2810   0.684   5.307   4.607 -0.8535 -0.8664  0.7634
  841SOL     OW 2811   1.042   5.891   4.042 -0.0123 -0.0518 -0.0847
  841SOL    HW1 2812   1.046   5.953   4.121 -0.1595 -1.0875  0.7587
  841SOL    HW2 2813   1.094   5.808   4.063  0.2314 -0.1989 -1.2209
  842SOL     OW 2814   5.255   0.596   0.582  0.2069  0.1360  0.1801
  842SOL    HW1 2815   5.284   0.689   0.603 -0.7816  0.1854  1.4523
  842SOL    HW2 2816   5.196   0.562   0.656 -1.7915 -0.4531 -1.5952
  843SOL     OW 2817   4.574   0.130   4.151  0.5629  0.0547 -0.3101
  843SOL    HW1 2818   4.582   0.158   4.247 -1.5691  0.0074 -0.0740
  843SOL    HW2 2819   4.485   0.159   4.116  0.2058 -2.2969 -1.4804
  844SOL     OW 2820   2.514   5.692   3.265  0.1516  0.1432  0.1434
  844SOL    HW1 2821   2.538   5.609   3.314 -0.3246 -0.5499 -0.7684
  844SOL    HW2 2822   2.585   5.714   3.199  0.7823  1.0634  1.0992
  845SOL     OW 2823   5.699   3.124   1.762  0.7517  0.4030 -0.6159
  845SOL    HW1 2824   5.716   3.026   1.752 -0.4535  0.1071  0.0630
  845SOL    HW2 2825   5.725   3.170   1.677 -0.0589 -0.7101 -1.5099
  846SOL     OW 2826   0.114   0.242   5.530  0.2902 -0.1650 -0.1114
  846SOL    HW1 2827   0.124   0.341   5.532 -2.5033  0.2102 -0.4956
  846SOL    HW2 2828   0.173   0.204   5.459  1.2617  1.2158 -0.0790
  847SOL     OW 2829   3.644   2.420   0.066  0.0146 -0.3331 -0.6357
  847SOL    HW1 2830   3.665   2.322   0.062 -2.2372 -0.8260 -2.8263
  847SOL    HW2 2831   3.558   2.433   0.116  0.9664  0.7133  0.7954
  848SOL     OW 2832   4.299   0.672   1.482  0.1507  0.3584  0.7492
  848SOL    HW1 2833   4.279   0.582   1.520 -1.2986  0.4827  0.3324
  848SOL    HW2 2834   4.381   0.709   1.526 -0.3109 -0.3677  2.2800
  849SOL     OW 2835   1.281   4.840   0.643 -0.8271 -0.5509  0.1285
  849SOL    HW1 2836   1.381   4.840   0.638 -0.7549  1.3271  0.9645
  849SOL    HW2 2837   1.243   4.849   0.551 -0.2760 -2.1148 -0.2839
  850SOL     OW 2838   3.805   1.912   2.169  0.2062 -0.3247  0.2692
  850SOL    HW1 2839   3.825   1.902   2.071  0.1202 -1.8732  0.3849
  850SOL    HW2 2840   3.755   1.831   2.201 -1.4054  0.9717  1.2005
  851SOL     OW 2841   2.611   2.311   0.291  0.0344  0.3657 -0.2472
  851SOL    HW1 2842   2.544   2.360   0.235  0.3059 -0.1254 -1.0294
  851SOL    HW2 2843   2.629   2.222   0.249  2.9924  1.4102 -1.4853
  852SOL     OW 2844   1.180   2.325   5.139 -0.3655 -0.6013  0.2092
  852SOL    HW1 2845   1.096   2.343   5.189 -0.3277 -1.5176  0.6264
  852SOL    HW2 2846   1.230   2.411   5.124 -1.3350 -0.0595 -0.0003
  853SOL     OW 2847   2.922   4.190   1.137  0.3605  0.1197 -0.1070
  853SOL    HW1 2848   2.952   4.234   1.052 -0.1422  0.0873 -0.3035
  853SOL    HW2 2849   2.827   4.215   1.156 -0.2123 -1.5253 -0.6587
  854SOL     OW 2850   0.331   5.051   2.825  0.0953 -0.1999 -0.4022
  854SOL    HW1 2851   0.325   5.104   2.740  1.3904 -1.3178 -1.2339
  854SOL    HW2 2852   0.272   5.093   2.894 -1.7946  0.1722 -2.1333
  855SOL     OW 2853   4.434   3.548   2.020 -0.4663  0.4074 -0.3502
  855SOL    HW1 2854   4.395   3.578   1.933 -1.0235 -1.4441 -0.7878
  855SOL    HW2 2855   4.361   3.513   2.080  0.1903 -0.8087 -0.2131
  856SOL     OW 2856   1.076   0.894   5.293 -0.0872  0.9078 -0.0173
  856SOL    HW1 2857   0.995   0.866   5.345  0.0040 -0.4908 -0.6009
  856SOL    HW2 2858   1.053   0.898   5.196  1.1597 -2.1232 -0.5244
  857SOL     OW 2859   3.118   1.661   2.624  0.2744 -0.1263  0.7077
  857SOL    HW1 2860   3.119   1.652   2.524 -1.5540 -1.5587  0.7724
  857SOL    HW2 2861   3.025   1.684   2.654 -0.1522 -3.4402  2.2992
  858SOL     OW 2862   4.358   2.782   1.884  0.7453 -0.6165  0.1755
  858SOL    HW1 2863   4.424   2.777   1.959  0.4815 -1.6482  0.3528
  858SOL    HW2 2864   4.285   2.715   1.899 -0.8190  1.0557  0.4222
  859SOL     OW 2865   2.055   4.219   1.927 -0.3397  0.0874  0.2074
  859SOL    HW1 2866   2.100   4.299   1.886 -0.3569 -0.0542 -0.0946
  859SOL    HW2 2867   2.019   4.243   2.017  1.8552 -0.2502  1.2433
  860SOL     OW 2868   3.441   2.863   2.881  0.1614 -1.4183 -0.3508
  860SOL    HW1 2869   3.374   2.811   2.828 -0.2478  0.5008 -1.8396
  860SOL    HW2 2870   3.395   2.911   2.956 -0.1841 -0.1922 -1.3046
  861SOL     OW 2871   5.057   0.166   1.158 -0.2229  0.2937 -0.3639
  861SOL    HW1 2872   5.042   0.238   1.225  0.7444  1.0879 -0.9664
  861SOL    HW2 2873   5.148   0.178   1.116  0.3211 -1.7688  0.1301
  862SOL     OW 2874   5.802   4.608   4.765  0.3105  0.3396 -0.6024
  862SOL    HW1 2875   5.769   4.586   4.673  0.2195 -0.3232 -0.4214
  862SOL    HW2 2876   5.852   4.694   4.763  0.3494  0.3070 -1.2827
  863SOL     OW 2877   0.582   5.400   4.898  0.1869  0.1856 -0.1813
  863SOL    HW1 2878   0.618   5.484   4.939  0.8243 -0.2172  0.0960
  863SOL    HW2 2879   0.601   5.323   4.958 -2.8546  0.1893  0.9501
  864SOL     OW 2880   2.419   5.314   1.061 -0.3604  0.2451 -0.6530
  864SOL    HW1 2881   2.350   5.250   1.029 -0.1649 -1.0991  1.3892
  864SOL    HW2 2882   2.388   5.408   1.045 -2.1413 -0.3356 -0.8137
  865SOL     OW 2883   1.807   5.445   0.381 -0.4012 -0.0371  0.1177
  865SOL    HW1 2884   1.731   5.502   0.412  0.5058  0.5223  1.3948
  865SOL    HW2 2885   1.890   5.502   0.372  0.7521 -1.2589  2.2797
  866SOL     OW 2886   5.846   2.812   1.146  0.5753  0.4023  0.6092
  866SOL    HW1 2887   5.897   2.854   1.071 -1.9727  0.8193 -0.9934
  866SOL    HW2 2888   5.881   2.845   1.233  0.7587  3.4136 -0.4992
  867SOL     OW 2889   0.933   1.965   0.457 -0.5007  0.5586 -0.1476
  867SOL    HW1 2890   1.028   1.996   0.458 -0.0263 -0.8504  0.3147
  867SOL    HW2 2891   0.920   1.899   0.383 -0.5555 -0.8826  1.1060
  868SOL     OW 2892   4.957   2.376   2.775 -0.4576 -0.5325  0.1164
  868SOL    HW1 2893   4.959   2.281   2.804 -1.9365 -0.8740 -0.8202
  868SOL    HW2 2894   4.879   2.422   2.817 -0.7802 -0.2034 -0.8178
  869SOL     OW 2895   2.156   4.545   3.799 -0.1332  0.7624 -0.8609
  869SOL    HW1 2896   2.133   4.641   3.811  0.8851  1.0063 -0.7746
  869SOL    HW2 2897   2.090   4.503   3.736 -1.5432  1.0954  0.3340
  870SOL     OW 2898   4.386   2.338   0.829  0.6952 -0.6636 -0.2589
  870SOL    HW1 2899   4.352   2.431   0.822 -0.7692 -1.0442  1.1324
  870SOL    HW2 2900   4.344   2.281   0.758 -1.0297 -0.9405  0.9153
  871SOL     OW 2901   0.682   1.411   3.893  0.4246 -0.4661  0.2988
  871SOL    HW1 2902   0.741   1.442   3.819  1.5771  0.7631  1.6882
  871SOL    HW2 2903   0.607   1.476   3.905 -0.5698 -1.3909 -0.6572
  872SOL     OW 2904   3.635   3.208   1.284  0.0274  0.0278 -0.2307
  872SOL    HW1 2905   3.661   3.283   1.225  0.1251  0.9920  0.9982
  872SOL    HW2 2906   3.535   3.206   1.294  0.0107 -0.1353 -0.4210
  873SOL     OW 2907   5.008   4.456   3.586  0.1783 -0.1034 -0.2324
  873SOL    HW1 2908   5.097   4.418   3.612  0.5185  0.5672 -0.3952
  873SOL    HW2 2909   4.994   4.544   3.631 -1.4408 -1.2445  1.6671
  874SOL     OW 2910   3.721   3.615   2.437 -0.0594 -0.9737  0.0015
  874SOL    HW1 2911   3.693   3.710   2.449  1.3188 -0.3504 -1.4116
  874SOL    HW2 2912   3.658   3.555   2.486 -0.4313  0.7039  1.6856
  875SOL     OW 2913   4.954   5.169   3.539  0.2611 -0.5165 -0.2664
  875SOL    HW1 2914   4.997   5.173   3.449 -0.0873  0.0163 -0.4144
  875SOL    HW2 2915   4.864   5.214   3.535  0.2736 -0.4292  0.3602
  876SOL     OW 2916   3.118   3.498   0.127  0.6354  0.1151 -0.2035
  876SOL    HW1 2917   3.126   3.585   0.175  0.5977 -0.4789  0.9095
  876SOL    HW2 2918   3.210   3.464   0.104  0.6473  0.4712 -0.6915
  877SOL     OW 2919   1.846   4.672   1.533 -0.0635 -0.1141  0.3491
  877SOL    HW1 2920   1.880   4.622   1.454  0.4529 -0.2151  0.6327
  877SOL    HW2 2921   1.746   4.666   1.535 -0.0535 -0.4799 -0.0481
  878SOL     OW 2922   2.920   3.497   3.117  0.4520  0.3944 -0.0738
  878SOL    HW1 2923   2.941   3.555   3.196  0.0619 -0.4295  0.6621
  878SOL    HW2 2924   2.998   3.495   3.055  1.3455 -0.0978  1.0284
  879SOL     OW 2925   2.218   1.587   3.593  0.0036  0.1575  0.2502
  879SOL    HW1 2926   2.251   1.588   3.499  0.6282 -1.5432  0.4127
  879SOL    HW2 2927   2.140   1.525   3.600 -0.4568  0.7806  0.7377
  880SOL     OW 2928   2.112   0.206   0.588 -0.3454  0.0765 -0.5536
  880SOL    HW1 2929   2.168   0.125   0.570  2.3008  1.2811  1.6522
  880SOL    HW2 2930   2.024   0.177   0.626  1.2523 -1.8660  2.0231
  881SOL     OW 2931   3.466   0.760   4.602 -0.3513 -0.0548  0.4437
  881SOL    HW1 2932   3.476   0.795   4.509 -2.4719 -1.0836 -0.2507
  881SOL    HW2 2933   3.451   0.661   4.598 -0.7824 -0.0616  1.8533
  882SOL     OW 2934   4.252   2.065   3.473  0.6041 -0.2595 -0.6286
  882SOL    HW1 2935   4.210   2.010   3.401 -1.7276 -2.5997  2.2737
  882SOL    HW2 2936   4.181   2.110   3.528  2.3200  2.3201 -0.3112
  883SOL     OW 2937   1.692   1.310   0.446 -0.0274  0.2932 -0.4619
  883SOL    HW1 2938   1.722   1.301   0.351  0.0087  0.3460 -0.4557
  883SOL    HW2 2939   1.697   1.222   0.492 -3.4602 -0.6272 -1.5145
  884SOL     OW 2940   5.039   0.918   5.238 -0.3220  0.4800 -0.3380
  884SOL    HW1 2941   5.134   0.896   5.218  0.2034  1.6478  0.6719
  884SOL    HW2 2942   4.979   0.870   5.175  0.9515 -0.0381 -1.1943
  885SOL     OW 2943   0.719   5.882   5.181 -0.1746 -0.2609  0.2439
  885SOL    HW1 2944   0.624   5.914   5.174 -0.4650 -1.4459 -2.4885
  885SOL    HW2 2945   0.722   5.784   5.159  1.7005 -0.2207  0.2237
  886SOL     OW 2946   2.794   4.341   0.226  0.1025 -0.1358  0.0960
  886SOL    HW1 2947   2.764   4.310   0.136  0.9042  0.2609 -0.3192
  886SOL    HW2 2948   2.803   4.262   0.287  1.0114 -0.5921 -0.6117
  887SOL     OW 2949   1.959   2.811   1.380  0.1412 -0.3023 -0.0084
  887SOL    HW1 2950   1.916   2.836   1.466  0.5716  0.2090  0.0593
  887SOL    HW2 2951   2.003   2.721   1.390  0.6456 -0.0074  0.4651
  888SOL     OW 2952   5.315   3.028   2.674  0.1549  0.5042 -0.0632
  888SOL    HW1 2953   5.321   3.127   2.684  0.6057  0.5328 -0.5944
  888SOL    HW2 2954   5.340   2.984   2.760  0.6886  0.8300 -0.0500
  889SOL     OW 2955   1.575   4.990   1.939 -0.0010  0.1220 -0.0395
  889SOL    HW1 2956   1.508   5.064   1.937  0.2118  0.3466  0.7198
  889SOL    HW2 2957   1.560   4.933   2.020  0.6123  0.0767  0.0528
  890SOL     OW 2958   3.718   0.794   1.770 -0.1228 -0.9220  0.2073
  890SOL    HW1 2959   3.717   0.839   1.681 -1.4004 -1.0221  0.1621
  890SOL    HW2 2960   3.630   0.806   1.815 -0.1329 -2.4738  0.6526
  891SOL     OW 2961   5.984   1.575   4.910  0.0773 -0.6452  0.1985
  891SOL    HW1 2962   5.913   1.510   4.884 -0.1595 -0.6243  0.7603
  891SOL    HW2 2963   5.947   1.668   4.904  0.4121 -0.5581 -0.5972
  892SOL     OW 2964   4.534   2.915   0.998  0.4075 -0.2724 -0.0210
  892SOL    HW1 2965   4.528   2.820   1.028  1.4100 -0.6277 -0.8748
  892SOL    HW2 2966   4.444   2.946   0.967  0.4078 -1.5457 -1.4405
  893SOL     OW 2967   2.437   0.856   4.208  0.3363  0.0710 -0.3140
  893SOL    HW1 2968   2.346   0.892   4.229  1.0500  1.2306  0.8881
  893SOL    HW2 2969   2.434   0.811   4.119 -1.0264  1.5211 -1.0568
  894SOL     OW 2970   5.556   5.706   5.091 -0.0117  0.0363 -0.1747
  894SOL    HW1 2971   5.613   5.755   5.025  0.6551 -1.0029 -0.3973
  894SOL    HW2 2972   5.490   5.649   5.041 -0.9565  0.8880  0.0814
  895SOL     OW 2973   3.702   4.722   0.484 -0.8626  0.3593  0.1682
  895SOL    HW1 2974   3.602   4.726   0.489 -0.7709  1.1849  1.8870
  895SOL    HW2 2975   3.734   4.638   0.528 -0.8078 -0.3003 -1.0783
  896SOL     OW 2976   3.465   1.362   1.205  0.3575 -0.5735 -0.2181
  896SOL    HW1 2977   3.438   1.276   1.161 -0.7382 -0.6566  0.5656
  896SOL    HW2 2978   3.383   1.415   1.225  1.0952  1.5131 -2.3146
  897SOL     OW 2979   1.944   4.412   4.545  0.2267 -0.0778 -0.5921
  897SOL    HW1 2980   1.970   4.320   4.514  0.0507 -0.0461 -0.8414
  897SOL    HW2 2981   1.865   4.405   4.606  0.0450 -0.0741 -0.8222
  898SOL     OW 2982   0.828   4.579   0.255  0.3696 -0.4108 -0.4432
  898SOL    HW1 2983   0.797   4.488   0.283 -0.3481  0.2285  0.9446
  898SOL    HW2 2984   0.750   4.629   0.217  0.3575  0.2066  0.3814
  899SOL     OW 2985   4.425   2.299   1.372  0.0182  0.1321  0.7445
  899SOL    HW1 2986   4.398   2.337   1.283 -0.6069 -1.1743  0.3558
  899SOL    HW2 2987   4.350   2.246   1.410 -0.0220  1.3364  2.4672
  900SOL     OW 2988   1.651   4.578   5.690 -0.0481 -0.3084 -0.2153
  900SOL    HW1 2989   1.729   4.619   5.641  0.5416 -2.3752 -1.1158
  900SOL    HW2 2990   1.668   4.583   5.788  0.3065  0.9596 -0.3149
  901SOL     OW 2991   3.203   2.992   4.831  0.2028 -0.7835 -0.4187
  901SOL    HW1 2992   3.297   3.018   4.850  0.0732 -1.0909  0.6907
  901SOL    HW2 2993   3.152   3.072   4.798  0.7106 -0.4979 -0.5185
  902SOL     OW 2994   1.266   1.335   3.442 -0.0375  0.6103 -0.2703
  902SOL    HW1 2995   1.213   1.258   3.477  0.7818  0.5891  0.9946
  902SOL    HW2 2996   1.346   1.300   3.393  1.2478  0.5969  1.7302
  903SOL     OW 2997   1.624   1.754   2.977  0.3474 -0.5463 -0.1466
  903SOL    HW1 2998   1.569   1.821   3.026 -0.1802 -0.6591 -0.5719
  903SOL    HW2 2999   1.719   1.784   2.973 -0.1185  0.8464 -1.4921
  904SOL     OW 3000   3.444   4.709   0.450  0.2383  0.0830 -0.0775
  904SOL    HW1 3001   3.374   4.780   0.459  1.9739  1.6686  2.1351
  904SOL    HW2 3002   3.407   4.632   0.397 -2.7913  1.2453  0.1309
  905SOL     OW 3003   2.511   3.661   2.616  0.2697  0.2452  0.3941
  905SOL    HW1 3004   2.546   3.577   2.658  1.2638  0.5067  0.1274
  905SOL    HW2 3005   2.575   3.736   2.634 -0.3901  0.8522  0.2647
  906SOL     OW 3006   0.024   3.120   0.697  0.3628  0.0185  0.4961
  906SOL    HW1 3007   0.076   3.041   0.664  0.8992  0.8971 -0.8302
  906SOL    HW2 3008  -0.062   3.126   0.648  0.7431  0.7842 -0.0950
  907SOL     OW 3009   5.105   3.877   5.435 -0.2023 -0.5235  0.0556
  907SOL    HW1 3010   5.118   3.976   5.432  0.6510 -0.6145  0.3371
  907SOL    HW2 3011   5.141   3.842   5.522  0.7370 -1.2465 -0.6125
  908SOL     OW 3012   5.383   1.425   1.037 -0.2108 -0.2809  0.0052
  908SOL    HW1 3013   5.327   1.402   1.116  0.2862  1.0976  0.7983
  908SOL    HW2 3014   5.404   1.523   1.038  1.7434 -0.6377 -0.5569
  909SOL     OW 3015   2.440   2.878   5.797 -0.0189 -0.5549 -0.4483
  909SOL    HW1 3016   2.373   2.804   5.807  0.4618 -0.9794 -0.3249
  909SOL    HW2 3017   2.406   2.960   5.843 -1.1495 -0.2993 -1.7066
  910SOL     OW 3018   0.661   0.919   1.599 -0.0368 -0.6180 -0.1013
  910SOL    HW1 3019   0.739   0.857   1.601 -0.0171 -0.5621  1.4775
  910SOL    HW2 3020   0.664   0.973   1.515  0.5534 -1.9536 -0.9768
  911SOL     OW 3021   3.920   2.601   5.208 -0.2719  0.0101 -0.1512
  911SOL    HW1 3022   3.934   2.611   5.109 -1.1755  2.5133 -0.0963
  911SOL    HW2 3023   3.841   2.542   5.224  0.1106 -0.7351 -0.8819
  912SOL     OW 3024   3.757   0.135   1.756 -0.2273  0.3367 -0.3122
  912SOL    HW1 3025   3.682   0.188   1.715 -0.3026  1.0160  0.6821
  912SOL    HW2 3026   3.835   0.135   1.693 -0.6405  0.6274 -0.8404
  913SOL     OW 3027   0.238   4.636   3.933 -0.0729  0.2861  0.1271
  913SOL    HW1 3028   0.320   4.620   3.878  0.7560  0.6743  1.2203
  913SOL    HW2 3029   0.223   4.558   3.995 -1.2001 -0.3130 -0.8521
  914SOL     OW 3030   2.157   0.457   3.715 -0.0737  0.1610 -0.4554
  914SOL    HW1 3031   2.130   0.375   3.665  0.4772 -0.4811  0.2884
  914SOL    HW2 3032   2.250   0.446   3.750 -0.3021  0.7557  0.3716
  915SOL     OW 3033   3.144   1.241   5.572 -0.3308  0.0402  0.0643
  915SOL    HW1 3034   3.104   1.157   5.611  1.9251 -0.7028  0.9617
  915SOL    HW2 3035   3.196   1.218   5.490 -1.1677  0.8891 -0.7289
  916SOL     OW 3036   0.843   2.412   1.771  0.1547 -0.6538 -0.3311
  916SOL    HW1 3037   0.896   2.396   1.854 -2.2212  1.5231  1.7940
  916SOL    HW2 3038   0.848   2.509   1.747 -0.0350 -1.0626 -2.1942
  917SOL     OW 3039   1.778   2.764   2.949 -0.0125  0.3384  0.2735
  917SOL    HW1 3040   1.691   2.805   2.919 -1.1027 -1.5716  0.6595
  917SOL    HW2 3041   1.804   2.691   2.885  0.3425 -0.3216  1.1522
  918SOL     OW 3042   4.365   4.485   1.416 -0.1084  0.0897 -0.0148
  918SOL    HW1 3043   4.337   4.528   1.502 -2.6202  0.1497 -0.7919
  918SOL    HW2 3044   4.403   4.394   1.434  1.0821  0.7934  1.2579
  919SOL     OW 3045   0.434   5.705   1.766  0.2927  0.2452 -0.3840
  919SOL    HW1 3046   0.486   5.672   1.687 -0.2762  0.1111 -0.7102
  919SOL    HW2 3047   0.497   5.729   1.840  0.8285  0.3388 -0.8658
  920SOL     OW 3048   1.726   5.234   1.323  0.5708  0.1714  0.2735
  920SOL    HW1 3049   1.722   5.188   1.411  0.6126  0.1348  0.2568
  920SOL    HW2 3050   1.697   5.171   1.251  1.8418 -0.2454  0.1035
  921SOL     OW 3051   4.081   1.504   2.185 -0.1091  0.1418 -0.6088
  921SOL    HW1 3052   4.007   1.476   2.124 -0.6105  0.2750 -0.0601
  921SOL    HW2 3053   4.138   1.425   2.207 -0.1020  0.0341 -0.9991
  922SOL     OW 3054   4.203   3.650   4.648  0.4317  0.1497 -0.0735
  922SOL    HW1 3055   4.197   3.576   4.582  1.1753  0.7425 -0.8414
  922SOL    HW2 3056   4.223   3.736   4.600 -0.3392  0.8401  0.7927
  923SOL     OW 3057   2.664   3.934   1.634 -0.2905  0.1252 -0.1091
  923SOL    HW1 3058   2.643   4.026   1.669  0.5108 -0.0914  0.9679
  923SOL    HW2 3059   2.580   3.880   1.633 -0.7594  0.8383 -0.6873
  924SOL     OW 3060   4.144   5.123   3.453 -0.1021 -0.2237  0.2150
  924SOL    HW1 3061   4.153   5.038   3.505  1.6986 -0.5065 -0.4704
  924SOL    HW2 3062   4.235   5.160   3.434 -0.6603 -0.0513 -2.5390
  925SOL     OW 3063   2.048   5.502   4.693  0.2219  0.8875  0.6408
  925SOL    HW1 3064   2.020   5.412   4.725  0.1559  1.0969  1.1887
  925SOL    HW2 3065   2.070   5.498   4.596 -1.0571  0.5612  0.3410
  926SOL     OW 3066   4.605   3.734   2.702 -0.2461  0.6132  0.1534
  926SOL    HW1 3067   4.571   3.733   2.608 -1.3288  1.1061  0.5151
  926SOL    HW2 3068   4.608   3.640   2.737 -1.1158  0.5348  0.0498
  927SOL     OW 3069   1.535   1.751   5.872  0.4010  0.0884 -0.3866
  927SOL    HW1 3070   1.509   1.655   5.867  0.2384  0.1819 -1.6632
  927SOL    HW2 3071   1.621   1.760   5.923  0.0158 -0.6444  0.4055
  928SOL     OW 3072   1.524   4.939   3.439 -0.3759  0.0755  0.4183
  928SOL    HW1 3073   1.466   4.864   3.470 -0.9702 -0.2200 -1.2923
  928SOL    HW2 3074   1.558   4.919   3.347 -1.1775  2.2238 -0.4167
  929SOL     OW 3075   4.977   2.860   0.933 -0.3552 -0.5598 -0.6595
  929SOL    HW1 3076   4.982   2.809   1.018 -3.5753  1.3601  0.8930
  929SOL    HW2 3077   5.055   2.922   0.926 -1.3168  1.2329  2.4270
  930SOL     OW 3078   0.124   1.064   0.194  0.2910  0.5378 -0.5510
  930SOL    HW1 3079   0.100   1.058   0.291  1.1197  0.3990 -0.3541
  930SOL    HW2 3080   0.078   0.991   0.144  2.2949 -1.3384  0.2319
  931SOL     OW 3081   3.127   5.687   1.016  0.2739  0.1790 -0.4916
  931SOL    HW1 3082   3.172   5.768   1.055  1.6554 -0.2980 -1.0229
  931SOL    HW2 3083   3.185   5.607   1.030 -0.6672 -0.5654 -0.7554
  932SOL     OW 3084   1.800   4.815   2.453  0.1279  0.2458 -0.1509
  932SOL    HW1 3085   1.781   4.836   2.548  1.5688  0.7502  0.0476
  932SOL    HW2 3086   1.735   4.863   2.394 -0.8482 -0.1734  0.5614
  933SOL     OW 3087   4.496   1.626   1.734 -0.1252 -0.1797 -0.0174
  933SOL    HW1 3088   4.562   1.596   1.665 -0.5904  0.1922 -0.6371
  933SOL    HW2 3089   4.530   1.602   1.825  0.9578  0.1827 -0.3032
  934SOL     OW 3090   5.777   3.857   0.097 -0.5356 -0.4372  0.0836
  934SOL    HW1 3091   5.874   3.860   0.121 -0.5800  1.5387  0.1844
  934SOL    HW2 3092   5.768   3.844  -0.002 -0.1881 -1.1066  0.1341
  935SOL     OW 3093   3.600   2.281   2.881  0.5731  0.1116  0.1144
  935SOL    HW1 3094   3.566   2.244   2.794 -0.4665  1.4290 -0.0726
  935SOL    HW2 3095   3.604   2.209   2.949  1.2115 -0.9037 -0.9634
  936SOL     OW 3096   1.277   5.437   1.444 -0.0498  0.8128 -0.0565
  936SOL    HW1 3097   1.365   5.478   1.420  0.7232 -1.0781 -0.6666
  936SOL    HW2 3098   1.204   5.480   1.392  0.6527  1.7268 -0.3045
  937SOL     OW 3099   2.226   2.686   5.773  0.2219 -0.0638  0.0367
  937SOL    HW1 3100   2.164   2.702   5.850  0.8215 -2.1077  1.0224
  937SOL    HW2 3101   2.186   2.724   5.690 -2.0026 -0.6486  0.7572
  938SOL     OW 3102   0.402   4.332   1.916 -0.0219  0.3645  0.1699
  938SOL    HW1 3103   0.374   4.268   1.845  0.6396  0.2896 -0.0269
  938SOL    HW2 3104   0.420   4.421   1.876 -0.4802  0.5498  0.3731
  939SOL     OW 3105   4.026   5.914   0.233 -0.0274 -0.2873 -0.3638
  939SOL    HW1 3106   4.096   5.953   0.173  1.0238 -0.7924  0.4991
  939SOL    HW2 3107   4.011   5.818   0.210  0.0233 -0.3501 -0.1431
  940SOL     OW 3108   4.488   0.919   1.796 -0.0128 -0.2928 -0.3364
  940SOL    HW1 3109   4.399   0.912   1.840  0.1515 -1.6255 -0.1818
  940SOL    HW2 3110   4.499   0.846   1.730  1.3112 -0.7134  0.3025
  941SOL     OW 3111   5.202   3.861   2.211 -0.1106  0.3083  0.4212
  941SOL    HW1 3112   5.263   3.868   2.290  0.1224  1.8639  0.1416
  941SOL    HW2 3113   5.108   3.883   2.240 -0.4497 -1.3581  0.6985
  942SOL     OW 3114   2.598   0.692   5.749 -0.7121  0.2199  0.1397
  942SOL    HW1 3115   2.630   0.708   5.655 -0.2752 -0.2343  0.2080
  942SOL    HW2 3116   2.654   0.621   5.791  1.2277  2.6012  1.8476
  943SOL     OW 3117   0.346   5.006   5.794 -0.4390 -0.0253 -0.1585
  943SOL    HW1 3118   0.425   5.005   5.733  1.5207  0.3963  2.1789
  943SOL    HW2 3119   0.262   4.993   5.741  1.2554 -1.9428 -2.6213
  944SOL     OW 3120   3.680   1.711   5.466  0.1183 -0.0954 -0.0457
  944SOL    HW1 3121   3.654   1.797   5.511  2.0039  0.1592  0.6703
  944SOL    HW2 3122   3.729   1.731   5.381  1.0703 -0.4061  0.4078
  945SOL     OW 3123   3.573   4.818   1.724 -0.0228  0.3942 -0.1159
  945SOL    HW1 3124   3.648   4.774   1.675 -0.0784  0.1431  0.0217
  945SOL    HW2 3125   3.496   4.832   1.662 -0.4171 -0.7100  0.0940
  946SOL     OW 3126   1.577   3.897   2.206  0.0647  0.1069  0.1480
  946SOL    HW1 3127   1.564   3.823   2.271  0.1298  0.2064  0.2736
  946SOL    HW2 3128   1.665   3.941   2.222  0.0916  0.1152 -0.0228
  947SOL     OW 3129   2.451   3.785   4.254  0.5491  0.4738  0.0997
  947SOL    HW1 3130   2.515   3.862   4.247  0.5816  0.4373 -0.0143
  947SOL    HW2 3131   2.357   3.819   4.247  0.4660  0.7520  2.0701
  948SOL     OW 3132   5.344   0.046   2.014 -0.2250  0.3958 -0.7215
  948SOL    HW1 3133   5.271  -0.023   2.019  0.6179 -0.5605 -1.2651
  948SOL    HW2 3134   5.432   0.002   2.029  0.3916  1.2642 -1.7085
  949SOL     OW 3135   1.702   2.485   1.294  0.3585 -0.3652  0.1105
  949SOL    HW1 3136   1.772   2.510   1.226  0.0032  0.8547  0.1597
  949SOL    HW2 3137   1.614   2.475   1.249  0.5573 -1.9409  0.0446
  950SOL     OW 3138   2.289   4.299   2.432 -0.1327  0.4868 -0.2810
  950SOL    HW1 3139   2.348   4.329   2.507  0.9032 -0.2052 -0.8023
  950SOL    HW2 3140   2.304   4.202   2.415 -4.4837 -0.9753  2.4295
  951SOL     OW 3141   3.438   4.826   2.804  0.3012 -0.4132 -0.7734
  951SOL    HW1 3142   3.469   4.768   2.880 -0.0280 -0.6672 -0.8337
  951SOL    HW2 3143   3.354   4.789   2.765  1.3203 -1.2007 -2.3060
  952SOL     OW 3144   5.308   1.396   3.537  0.0140 -0.0587  0.2420
  952SOL    HW1 3145   5.322   1.465   3.608 -2.5088  1.6760 -0.7779
  952SOL    HW2 3146   5.396   1.364   3.502  1.3496  3.1971  0.3040
  953SOL     OW 3147   2.072   2.823   3.104 -0.0449  0.3902 -0.2994
  953SOL    HW1 3148   2.164   2.853   3.079  0.4588 -0.4965  0.4072
  953SOL    HW2 3149   2.067   2.723   3.096 -0.6003  0.3244  0.7190
  954SOL     OW 3150   5.806   5.366   0.405 -0.0413  0.2272 -0.0889
  954SOL    HW1 3151   5.835   5.273   0.429 -0.6506 -0.3290 -1.4139
  954SOL    HW2 3152   5.767   5.366   0.313 -2.1437  1.3756  0.7457
  955SOL     OW 3153   0.955   1.236   3.683 -0.0055  0.6992  0.2742
  955SOL    HW1 3154   0.932   1.333   3.674  0.1973  0.7425  0.2137
  955SOL    HW2 3155   0.872   1.181   3.683 -0.0513  0.7282 -1.4429
  956SOL     OW 3156   4.692   1.889   4.863  0.5178 -0.3763  0.1114
  956SOL    HW1 3157   4.681   1.808   4.806  1.0572 -0.0751 -0.4321
  956SOL    HW2 3158   4.642   1.877   4.949  1.4116 -1.6905  0.4628
  957SOL     OW 3159   3.178   5.029   4.712  0.3325 -0.0729 -0.2533
  957SOL    HW1 3160   3.206   5.105   4.771 -1.5354  1.2458 -0.9943
  957SOL    HW2 3161   3.260   4.986   4.673  1.6295 -0.6568  2.7719
  958SOL     OW 3162   3.483   0.140   5.857 -0.0150 -0.1929 -0.4548
  958SOL    HW1 3163   3.432   0.149   5.943 -1.5713  1.4510 -1.4724
  958SOL    HW2 3164   3.423   0.164   5.781  1.4364 -1.2702 -1.9904
  959SOL     OW 3165   4.350   2.144   5.935 -0.3182 -0.0496 -0.4234
  959SOL    HW1 3166   4.300   2.080   5.878 -2.2332  0.1806  0.8975
  959SOL    HW2 3167   4.285   2.199   5.989  1.3211  1.4465  0.1335
  960SOL     OW 3168   1.602   0.599   3.524  0.0317  0.3145 -0.1074
  960SOL    HW1 3169   1.556   0.676   3.480 -3.9282 -1.3493  0.6991
  960SOL    HW2 3170   1.601   0.612   3.623 -0.3343 -0.5391  0.0121
  961SOL     OW 3171   5.832   4.299   3.998  0.6990  0.9627  0.9898
  961SOL    HW1 3172   5.816   4.331   4.092  1.7288  0.1769  1.4541
  961SOL    HW2 3173   5.818   4.375   3.935  0.6281  1.6827  1.8425
  962SOL     OW 3174   3.454   2.783   0.139  0.0978 -0.0306 -0.3781
  962SOL    HW1 3175   3.490   2.781   0.046  0.1178  1.3853 -0.4242
  962SOL    HW2 3176   3.372   2.842   0.142  0.4399  0.4174  0.5961
  963SOL     OW 3177   3.005   4.474   0.457  0.1001 -0.1361  0.0592
  963SOL    HW1 3178   2.943   4.538   0.501 -0.2113 -1.1090  1.0824
  963SOL    HW2 3179   2.981   4.381   0.483  0.6327 -0.6754 -1.2791
  964SOL     OW 3180   0.707   0.634   1.459 -0.1814 -0.0631 -0.1804
  964SOL    HW1 3181   0.800   0.658   1.487 -0.1893 -0.9412  0.6278
  964SOL    HW2 3182   0.658   0.594   1.536 -1.4261  0.8936 -0.4398
  965SOL     OW 3183   0.614   4.350   2.448  0.1663  0.0543 -0.0802
  965SOL    HW1 3184   0.694   4.320   2.500 -0.0488 -1.9610 -0.8458
  965SOL    HW2 3185   0.607   4.297   2.364 -1.9233  0.2639 -0.0793
  966SOL     OW 3186   3.035   1.392   5.889  0.2486  0.4639 -0.3225
  966SOL    HW1 3187   3.029   1.425   5.794  1.0084 -0.4830 -0.7142
  966SOL    HW2 3188   3.127   1.410   5.925 -0.2428  1.4344  0.4806
  967SOL     OW 3189   1.441   5.505   4.818  0.4409 -0.3467  0.5126
  967SOL    HW1 3190   1.493   5.421   4.804  0.1036 -0.3374 -0.9493
  967SOL    HW2 3191   1.498   5.584   4.797  1.0747 -0.1201  2.8478
  968SOL     OW 3192   3.773   5.921   3.168 -0.3247 -0.2140 -0.0168
  968SOL    HW1 3193   3.679   5.886   3.164 -0.6974  0.6229  1.0675
  968SOL    HW2 3194   3.837   5.846   3.150 -1.2099 -0.5370 -2.1457
  969SOL     OW 3195   4.139   1.122   2.382  0.1982 -0.2522  0.8294
  969SOL    HW1 3196   4.112   1.025   2.377  0.3418 -0.3522  1.7770
  969SOL    HW2 3197   4.097   1.164   2.462 -0.1600  0.5793  0.2185
  970SOL     OW 3198   5.402   4.909   3.608  0.8675 -0.4498 -0.3026
  970SOL    HW1 3199   5.420   4.923   3.705  2.5221 -1.9571 -0.3423
  970SOL    HW2 3200   5.388   4.998   3.564 -0.7673  0.2149  1.4197
  971SOL     OW 3201   1.619   0.595   2.609  0.3081  0.1650 -0.2856
  971SOL    HW1 3202   1.599   0.507   2.567  0.0460 -1.0677  2.2140
  971SOL    HW2 3203   1.533   0.643   2.629  0.2209 -0.6189  1.4293
  972SOL     OW 3204   1.267   1.825   3.263  0.3584  0.4566  0.1036
  972SOL    HW1 3205   1.349   1.867   3.224  0.3952  0.2390 -0.0553
  972SOL    HW2 3206   1.287   1.730   3.286 -0.3402 -0.1182 -1.5347
  973SOL     OW 3207   4.973   3.058   4.832  0.0112 -0.3025 -0.0100
  973SOL    HW1 3208   4.942   2.989   4.767 -0.0898 -1.2844  1.0371
  973SOL    HW2 3209   4.916   3.139   4.825 -2.5868 -1.8631  1.5386
  974SOL     OW 3210   0.350   0.168   3.522 -0.0047 -0.7666 -0.7331
  974SOL    HW1 3211   0.425   0.186   3.586  0.0541  0.1821 -1.0370
  974SOL    HW2 3212   0.386   0.116   3.444  0.3927 -0.1847 -0.9526
  975SOL     OW 3213   5.319   0.598   4.464  0.2597  0.0106 -0.1191
  975SOL    HW1 3214   5.276   0.580   4.376 -0.1845 -1.3600  0.3548
  975SOL    HW2 3215   5.351   0.512   4.504  0.7583  0.6508  0.9074
  976SOL     OW 3216   1.261   5.895   5.843 -0.6546  0.0691  0.4180
  976SOL    HW1 3217   1.173   5.866   5.805 -0.6464 -0.1547  0.5715
  976SOL    HW2 3218   1.279   5.846   5.928 -0.3915  0.1293  0.3985
  977SOL     OW 3219   4.956   0.625   2.686  0.9796  0.0803 -0.5430
  977SOL    HW1 3220   4.974   0.532   2.656  0.8622  0.5890 -2.3730
  977SOL    HW2 3221   4.922   0.625   2.779  1.9495 -1.6088 -0.1501
  978SOL     OW 3222   3.609  -0.021   1.517 -0.1807 -0.1221 -0.0559
  978SOL    HW1 3223   3.654  -0.051   1.601  1.1113  1.6620 -0.0399
  978SOL    HW2 3224   3.634   0.075   1.498 -2.2266  0.2391 -1.2781
  979SOL     OW 3225   3.490   1.894   1.004  0.0358  0.7117  0.3324
  979SOL    HW1 3226   3.412   1.956   1.015  1.1860  2.2623 -0.0301
  979SOL    HW2 3227   3.574   1.940   1.032  1.1628 -0.0670 -1.5937
  980SOL     OW 3228   1.666   4.191   4.965 -0.0418 -0.1308 -0.9785
  980SOL    HW1 3229   1.697   4.285   4.977  0.7398 -0.7154  3.1290
  980SOL    HW2 3230   1.727   4.130   5.016 -0.4508 -2.9563 -3.6147
  981SOL     OW 3231   4.630   0.318   0.310 -0.2090  0.2599  0.0459
  981SOL    HW1 3232   4.533   0.326   0.331 -0.1046  3.0987 -0.1068
  981SOL    HW2 3233   4.644   0.254   0.235 -1.8009 -1.1312  0.8891
  982SOL     OW 3234   2.025   0.241   0.876  0.4075  0.2826  0.3037
  982SOL    HW1 3235   1.965   0.180   0.927  1.0484 -1.4440 -0.8983
  982SOL    HW2 3236   2.080   0.295   0.939  0.2883 -0.8625  1.4281
  983SOL     OW 3237   2.739   0.565   2.237 -0.1300  0.2771  0.1952
  983SOL    HW1 3238   2.814   0.521   2.286 -0.5517 -1.8636 -0.9629
  983SOL    HW2 3239   2.699   0.636   2.294  3.0622  1.8922  0.6614
  984SOL     OW 3240   4.827   5.554   1.425  0.1556 -0.3502  0.1288
  984SOL    HW1 3241   4.780   5.630   1.380  1.1163 -0.9270 -1.9885
  984SOL    HW2 3242   4.849   5.484   1.356 -1.3336 -2.9139  2.0885
  985SOL     OW 3243   2.876   3.111   5.039  0.0651 -0.0068 -0.0755
  985SOL    HW1 3244   2.835   3.107   5.131 -1.9751  1.7512 -0.8400
  985SOL    HW2 3245   2.847   3.031   4.987  2.2943 -1.7260  1.1260
  986SOL     OW 3246   5.420   2.481   2.894  0.2312 -1.0741 -0.4495
  986SOL    HW1 3247   5.331   2.514   2.863  0.1360 -2.0175 -1.2450
  986SOL    HW2 3248   5.427   2.383   2.877  2.6295 -0.5266 -3.5390
  987SOL     OW 3249   3.540   1.354   3.552  0.1828 -0.5288 -0.3169
  987SOL    HW1 3250   3.466   1.305   3.506 -0.2702 -0.7304  0.6114
  987SOL    HW2 3251   3.551   1.444   3.510  0.5835 -1.1509 -1.6057
  988SOL     OW 3252   4.811   1.192   2.515 -0.9730 -0.2682 -0.0834
  988SOL    HW1 3253   4.817   1.292   2.519 -0.2461 -0.3515  1.4798
  988SOL    HW2 3254   4.721   1.167   2.479 -1.4237  0.9521  0.1148
  989SOL     OW 3255   4.067   3.479   0.471  0.8319 -0.0875 -0.2563
  989SOL    HW1 3256   4.119   3.554   0.509 -0.1491 -0.1187  1.2173
  989SOL    HW2 3257   4.043   3.414   0.543 -0.3420 -0.6001 -1.0665
  990SOL     OW 3258   5.071   4.136   2.821  0.5620  0.4766  0.5907
  990SOL    HW1 3259   5.075   4.042   2.854  1.5742  0.5957  0.8142
  990SOL    HW2 3260   5.128   4.145   2.740 -0.7973  0.5266 -0.3975
  991SOL     OW 3261   3.886   0.224   0.118  0.2093  0.2285  0.2587
  991SOL    HW1 3262   3.959   0.255   0.179  0.3217  1.7353 -0.5676
  991SOL    HW2 3263   3.921   0.218   0.025 -0.2015 -1.0946  0.1807
  992SOL     OW 3264   1.987   4.765   1.304 -0.5978 -0.2665  0.2256
  992SOL    HW1 3265   1.935   4.786   1.386 -1.8198 -1.0668 -0.3114
  992SOL    HW2 3266   1.961   4.674   1.271 -0.4607  0.2119 -1.2805
  993SOL     OW 3267   5.891   1.210   1.585 -0.2640  0.1575 -0.1166
  993SOL    HW1 3268   5.834   1.258   1.651 -0.6148 -0.7669  0.2674
  993SOL    HW2 3269   5.881   1.253   1.495 -2.4592 -0.6488 -0.3138
  994SOL     OW 3270   2.372   5.678   0.614  0.1959 -0.1507  0.4149
  994SOL    HW1 3271   2.413   5.631   0.536  0.7271  0.4866  0.2978
  994SOL    HW2 3272   2.317   5.613   0.667  0.0174 -0.6435 -0.3533
  995SOL     OW 3273   5.424   3.375   3.831 -0.1948  0.2795 -0.6161
  995SOL    HW1 3274   5.350   3.336   3.778 -0.5360  1.5045 -1.0772
  995SOL    HW2 3275   5.512   3.349   3.790 -0.4478  0.9945 -1.6502
  996SOL     OW 3276   1.925   1.186   5.262  0.1282  0.0817 -0.3450
  996SOL    HW1 3277   1.937   1.094   5.224 -3.1576 -1.1626  1.2517
  996SOL    HW2 3278   1.852   1.233   5.213  0.7741  1.2882 -0.1872
  997SOL     OW 3279   3.809   5.721   5.003  0.6235 -0.6749  0.8186
  997SOL    HW1 3280   3.852   5.810   4.985 -1.0372  0.1169  0.6071
  997SOL    HW2 3281   3.859   5.649   4.954 -0.0224  0.5882 -1.8401
  998SOL     OW 3282   2.872   0.612   2.815 -1.0555  0.1995 -0.0075
  998SOL    HW1 3283   2.864   0.645   2.909 -1.1926  0.3101 -0.0578
  998SOL    HW2 3284   2.965   0.628   2.782 -0.5497 -1.2338  0.6343
  999SOL     OW 3285   5.291   4.461   3.597  0.5602  0.0581 -0.8394
  999SOL    HW1 3286   5.380   4.486   3.636  0.5527 -0.2787 -0.5990
  999SOL    HW2 3287   5.264   4.530   3.530  1.7699 -0.6809 -2.1534
 1000SOL     OW 3288   3.033   2.359   2.598  0.0278 -0.4992  0.9259
 1000SOL    HW1 3289   2.982   2.359   2.684 -2.2984 -0.2402 -0.3625
 1000SOL    HW2 3290   3.040   2.453   2.563  4.1318 -0.0325  2.4747
 1001SOL     OW 3291   5.293   0.938   2.525 -0.4771 -0.4209  0.4491
 1001SOL    HW1 3292   5.318   1.004   2.454  0.2643 -1.6415 -0.4644
 1001SOL    HW2 3293   5.194   0.921   2.521 -0.5613  0.0855  0.2338
 1002SOL     OW 3294   1.922   4.644   0.433  0.3641 -0.2824 -0.1070
 1002SOL    HW1 3295   2.013   4.629   0.394 -0.5902 -0.9913 -2.2094
 1002SOL    HW2 3296   1.899   4.568   0.493  1.4037  0.2349  0.9758
 1003SOL     OW 3297   3.288   1.584   3.515 -0.4115  0.3088 -0.0456
 1003SOL    HW1 3298   3.321   1.678   3.504 -2.1019  1.1509  1.5613
 1003SOL    HW2 3299   3.273   1.565   3.612 -0.9935 -1.3140 -0.4244
 1004SOL     OW 3300   1.294   0.067   1.804  0.0232 -0.1499 -0.1449
 1004SOL    HW1 3301   1.198   0.073   1.774 -0.2510 -1.7976  0.3065
 1004SOL    HW2 3302   1.332  -0.022   1.777  1.1822  0.1679  0.3878
 1005SOL     OW 3303   1.901   1.361   4.574 -0.3081 -0.0918 -0.8581
 1005SOL    HW1 3304   1.972   1.424   4.543 -2.1666  2.0779 -0.9831
 1005SOL    HW2 3305   1.930   1.317   4.659  1.7771 -0.4860 -1.6984
 1006SOL     OW 3306   4.308   1.729   3.575  0.0383  0.4713 -0.4018
 1006SOL    HW1 3307   4.327   1.756   3.481  0.5211  0.8786 -0.1942
 1006SOL    HW2 3308   4.228   1.669   3.577  0.3097  0.0654 -1.1219
 1007SOL     OW 3309   1.566   3.409   5.202  0.6426 -0.3776 -0.1117
 1007SOL    HW1 3310   1.598   3.317   5.179 -0.5424 -0.7377 -0.3819
 1007SOL    HW2 3311   1.639   3.459   5.249  1.4053 -1.3421 -0.2429
 1008SOL     OW 3312   2.835   1.278   4.989  0.4898  0.0572  0.1631
 1008SOL    HW1 3313   2.825   1.228   4.903 -0.5596  2.5218 -1.2558
 1008SOL    HW2 3314   2.911   1.239   5.042  1.2207 -1.4872 -1.8921
 1009SOL     OW 3315   1.459   4.792   4.592 -0.7119 -0.3810 -0.2858
 1009SOL    HW1 3316   1.448   4.718   4.525 -0.2023 -0.3212 -0.4389
 1009SOL    HW2 3317   1.393   4.864   4.573 -0.6796 -0.4383 -0.6231
 1010SOL     OW 3318   4.608   2.948   1.434  0.1014 -0.3443  0.1448
 1010SOL    HW1 3319   4.706   2.967   1.427 -0.1802  0.7424 -1.8876
 1010SOL    HW2 3320   4.580   2.949   1.530  2.1739 -1.3360  0.8154
 1011SOL     OW 3321   4.838   0.989   2.708  0.1410  0.0568 -0.1878
 1011SOL    HW1 3322   4.769   0.921   2.734  0.0199  0.4092  0.4152
 1011SOL    HW2 3323   4.794   1.060   2.652  0.3135 -0.4701 -1.0131
 1012SOL     OW 3324   5.221   5.284   4.147 -0.0387 -0.1061  0.0051
 1012SOL    HW1 3325   5.293   5.263   4.213  0.6225  0.5599 -0.4788
 1012SOL    HW2 3326   5.140   5.318   4.196 -0.0871 -1.0050  0.5639
 1013SOL     OW 3327   2.414   4.067   4.609 -0.0824  0.7522 -0.0321
 1013SOL    HW1 3328   2.319   4.092   4.627 -0.6086  0.4992 -2.1574
 1013SOL    HW2 3329   2.433   3.977   4.648 -1.3703 -0.1117 -1.2771
 1014SOL     OW 3330   2.451   4.784   5.892 -0.3961  0.1988 -0.0479
 1014SOL    HW1 3331   2.528   4.726   5.868  0.4057  1.5832 -0.9052
 1014SOL    HW2 3332   2.371   4.758   5.837 -0.2290 -0.4668  0.0115
 1015SOL     OW 3333   4.473   3.833   3.382 -0.0554  0.3054 -0.4154
 1015SOL    HW1 3334   4.498   3.772   3.457 -0.4372  0.1805 -0.3899
 1015SOL    HW2 3335   4.512   3.798   3.296 -0.7033 -0.2540 -0.4827
 1016SOL     OW 3336   4.374   2.319   5.739  0.7705 -0.0296  0.5872
 1016SOL    HW1 3337   4.368   2.278   5.830  1.5874 -0.4104  0.4811
 1016SOL    HW2 3338   4.431   2.261   5.681 -0.7162 -0.4406 -0.5347
 1017SOL     OW 3339   1.915   0.762   5.843 -0.0211  0.8101  0.7773
 1017SOL    HW1 3340   1.877   0.851   5.866 -1.7851  0.0276  1.0342
 1017SOL    HW2 3341   2.000   0.774   5.791 -0.9662  2.6513 -0.4418
 1018SOL     OW 3342   0.741   1.150   0.482  0.6683 -0.0342 -0.0216
 1018SOL    HW1 3343   0.713   1.239   0.519  0.2446  0.2109 -0.9080
 1018SOL    HW2 3344   0.679   1.123   0.409  0.9131 -0.9753  0.1037
 1019SOL     OW 3345   3.493   4.334   0.943 -0.0215  0.4267  0.3671
 1019SOL    HW1 3346   3.501   4.425   0.903  0.6384  0.8126  1.3544
 1019SOL    HW2 3347   3.582   4.288   0.940  0.0198  0.4266  1.3017
 1020SOL     OW 3348   4.527   2.234   4.603 -0.7170 -0.4949  0.0457
 1020SOL    HW1 3349   4.518   2.145   4.645 -1.2495 -0.1924  0.5784
 1020SOL    HW2 3350   4.599   2.286   4.650  0.4443 -1.0752 -1.0332
 1021SOL     OW 3351   0.852   5.507   3.857 -0.4707 -0.0883  0.0158
 1021SOL    HW1 3352   0.814   5.435   3.799  0.1518 -0.5050  0.1110
 1021SOL    HW2 3353   0.811   5.595   3.833 -1.6131 -0.5447  0.2373
 1022SOL     OW 3354   5.351   1.550   4.043 -0.3615 -0.2267 -0.0220
 1022SOL    HW1 3355   5.433   1.578   4.092  0.5355 -3.0542  0.2953
 1022SOL    HW2 3356   5.287   1.508   4.107 -0.4534 -1.3102 -0.7921
 1023SOL     OW 3357   5.885   3.568   1.943  0.2543 -0.1794 -0.3913
 1023SOL    HW1 3358   5.864   3.499   2.011 -1.0755 -0.9041 -1.5086
 1023SOL    HW2 3359   5.915   3.652   1.989 -1.6483 -0.2804  1.1507
 1024SOL     OW 3360   4.711   0.949   1.433 -0.3184 -0.3300 -0.2756
 1024SOL    HW1 3361   4.761   1.032   1.458 -0.0463  0.0435 -1.9520
 1024SOL    HW2 3362   4.767   0.869   1.454  0.8016  0.0579 -1.5636
 1025SOL     OW 3363   3.674   4.930   1.277  0.1523 -0.3982  0.2236
 1025SOL    HW1 3364   3.716   4.886   1.197  0.6963 -1.0251  0.8479
 1025SOL    HW2 3365   3.732   5.004   1.310  1.5829 -2.2243  2.0048
 1026SOL     OW 3366   3.735   2.250   0.490  0.1539  0.2870 -0.1903
 1026SOL    HW1 3367   3.760   2.323   0.427  0.2169  0.2751 -0.1792
 1026SOL    HW2 3368   3.816   2.222   0.542  0.0432  0.4899  0.0933
 1027SOL     OW 3369   0.698   0.632   3.871  0.7682  0.4177 -0.2407
 1027SOL    HW1 3370   0.709   0.659   3.966 -0.3460  0.3604 -0.0838
 1027SOL    HW2 3371   0.720   0.710   3.812  0.3433  0.8100  0.1085
 1028SOL     OW 3372   1.957   3.066   2.863 -0.3212  0.0208  0.2152
 1028SOL    HW1 3373   1.965   2.985   2.805 -1.8141  0.2990 -0.4245
 1028SOL    HW2 3374   1.943   3.038   2.958  0.5881 -0.4417  0.2293
 1029SOL     OW 3375   1.613   1.632   2.739  0.0079 -0.1117 -0.3858
 1029SOL    HW1 3376   1.602   1.674   2.829 -0.4370 -0.4797 -0.2619
 1029SOL    HW2 3377   1.633   1.535   2.750  1.3214  0.1138 -0.6623
 1030SOL     OW 3378   0.008   5.166   2.523  0.7450  0.2949  0.3642
 1030SOL    HW1 3379   0.075   5.092   2.524  1.7598  1.0618 -2.2190
 1030SOL    HW2 3380  -0.069   5.141   2.464  0.8997  1.1102 -0.2047
 1031SOL     OW 3381   5.424   0.398   3.958 -0.5383 -0.1530 -0.3249
 1031SOL    HW1 3382   5.457   0.400   3.863  2.6135 -1.6515  0.6067
 1031SOL    HW2 3383   5.483   0.456   4.015 -0.6198 -1.4618  1.1653
 1032SOL     OW 3384   2.483   4.795   1.720 -0.2234  0.0484  0.2699
 1032SOL    HW1 3385   2.516   4.784   1.627  0.4180 -0.8909  0.5981
 1032SOL    HW2 3386   2.389   4.761   1.726  0.5730 -2.2497  0.4955
 1033SOL     OW 3387   0.897   3.747   0.585 -0.0145 -0.4370 -0.0237
 1033SOL    HW1 3388   0.857   3.823   0.534  0.2011  1.4950  2.5227
 1033SOL    HW2 3389   0.867   3.661   0.545  0.0010  0.9045 -3.2524
 1034SOL     OW 3390   0.436   4.785   4.647  0.3826 -0.2408  0.1688
 1034SOL    HW1 3391   0.469   4.749   4.735  0.9310  0.9061  0.4605
 1034SOL    HW2 3392   0.336   4.794   4.650  0.2688 -1.3916  0.2011
 1035SOL     OW 3393   0.600   3.972   3.143 -0.7382  0.4428  0.2806
 1035SOL    HW1 3394   0.643   3.969   3.052  0.9277  2.4644  0.9406
 1035SOL    HW2 3395   0.647   3.908   3.203  0.0715  1.1749  0.4518
 1036SOL     OW 3396   2.362   0.067   2.921  0.1197  0.2286 -0.6966
 1036SOL    HW1 3397   2.345   0.100   3.013 -2.6690  1.8239 -1.6485
 1036SOL    HW2 3398   2.443   0.112   2.883 -1.5429  3.4965 -0.6779
 1037SOL     OW 3399   4.569   4.405   5.506  0.3338 -0.0035 -0.1587
 1037SOL    HW1 3400   4.592   4.312   5.478 -1.6239 -0.4417 -0.4538
 1037SOL    HW2 3401   4.509   4.446   5.438  0.9414  1.3926  0.1205
 1038SOL     OW 3402   4.913   4.840   4.249 -0.3089 -0.4475 -0.3831
 1038SOL    HW1 3403   4.885   4.756   4.295  0.2683 -0.4257  0.0115
 1038SOL    HW2 3404   4.861   4.850   4.164 -0.3863 -1.1899 -0.4284
 1039SOL     OW 3405   0.349   3.992   5.453  1.0822 -0.1082 -0.3340
 1039SOL    HW1 3406   0.400   4.074   5.429  2.2458 -0.0413  2.0659
 1039SOL    HW2 3407   0.412   3.921   5.485 -0.1399 -0.7767  0.6948
 1040SOL     OW 3408   2.665   1.417   1.029 -0.2981 -0.3089 -0.4604
 1040SOL    HW1 3409   2.666   1.510   0.994 -0.0551  0.3833  1.2694
 1040SOL    HW2 3410   2.685   1.353   0.955  1.8705  1.1641 -1.2303
 1041SOL     OW 3411   5.510   0.697   1.039  0.3064  0.0017  0.3142
 1041SOL    HW1 3412   5.487   0.793   1.023 -0.3467 -0.1563  0.2903
 1041SOL    HW2 3413   5.558   0.689   1.126 -2.3611 -0.0097  1.8887
 1042SOL     OW 3414   4.062   0.148   4.098  0.3972  0.0812  0.4079
 1042SOL    HW1 3415   4.080   0.246   4.102 -0.6645  0.2748  0.7757
 1042SOL    HW2 3416   4.021   0.118   4.184  1.2931 -0.8182  0.5427
 1043SOL     OW 3417   3.222   1.431   5.182 -0.1150  0.4428  0.2078
 1043SOL    HW1 3418   3.311   1.425   5.136  0.0949 -0.4723  0.7002
 1043SOL    HW2 3419   3.172   1.345   5.167 -0.0489  0.1395  1.6458
 1044SOL     OW 3420   5.315   4.178   3.527 -1.0928 -0.0834 -0.6630
 1044SOL    HW1 3421   5.296   4.276   3.540 -2.3209 -0.2092 -1.2794
 1044SOL    HW2 3422   5.232   4.133   3.494 -0.6211 -1.3984 -0.1168
 1045SOL     OW 3423   3.312   3.986   4.831 -0.1393 -0.4050 -0.3494
 1045SOL    HW1 3424   3.322   3.889   4.810  0.8224 -0.6105  0.9433
 1045SOL    HW2 3425   3.327   4.040   4.747  1.1848 -1.2836 -0.7032
 1046SOL     OW 3426   3.829   4.142   5.970  0.2906  0.2843 -0.2098
 1046SOL    HW1 3427   3.893   4.217   5.956  0.1341  0.4224 -0.1860
 1046SOL    HW2 3428   3.799   4.106   5.881  0.0845  0.4896 -0.2238
 1047SOL     OW 3429   1.821   4.014   5.121 -0.0830 -0.0501 -0.2746
 1047SOL    HW1 3430   1.831   3.970   5.031  0.0024  3.0308 -1.9029
 1047SOL    HW2 3431   1.909   4.050   5.150 -0.2714 -0.3564  0.6959
 1048SOL     OW 3432   3.103   1.754   0.842 -0.1841 -0.3438  0.4985
 1048SOL    HW1 3433   3.157   1.685   0.891 -0.0707 -0.8397 -0.3039
 1048SOL    HW2 3434   3.108   1.736   0.744  2.2879  2.5402 -0.0508
 1049SOL     OW 3435   1.220   1.898   0.118 -0.6081 -0.7630 -0.3320
 1049SOL    HW1 3436   1.305   1.908   0.067 -0.5430 -0.4378 -0.1631
 1049SOL    HW2 3437   1.143   1.912   0.056 -0.5366 -0.9086 -0.4539
 1050SOL     OW 3438   0.257   0.456   2.344 -0.4151  0.2644  0.7003
 1050SOL    HW1 3439   0.288   0.491   2.256  0.2073  0.4337  0.9851
 1050SOL    HW2 3440   0.323   0.390   2.379 -0.6050  0.2819  1.0998
 1051SOL     OW 3441   0.643   1.512   0.646 -0.0822 -0.1792  0.0444
 1051SOL    HW1 3442   0.586   1.430   0.649 -0.4381 -0.0286 -1.5482
 1051SOL    HW2 3443   0.686   1.526   0.735 -1.5899 -0.9653  0.9461
 1052SOL     OW 3444   5.659   2.173   4.915  0.0867  0.6622  0.3417
 1052SOL    HW1 3445   5.689   2.086   4.954  0.6428  0.1358 -1.1840
 1052SOL    HW2 3446   5.567   2.163   4.877  0.1097  0.7703  0.2550
 1053SOL     OW 3447   5.469   5.356   3.990  0.1054 -0.0286 -0.4930
 1053SOL    HW1 3448   5.392   5.311   4.034  0.3535  0.2331  0.2210
 1053SOL    HW2 3449   5.436   5.434   3.937 -0.0773  0.4377  0.2845
 1054SOL     OW 3450   4.039   4.055   0.463  0.3694 -0.8221 -0.3519
 1054SOL    HW1 3451   3.960   4.063   0.402  0.7489 -0.5237 -0.8081
 1054SOL    HW2 3452   4.098   4.135   0.453 -0.0179 -0.3330  1.0766
 1055SOL     OW 3453   2.105   3.152   0.253 -0.6169  0.2937 -0.3700
 1055SOL    HW1 3454   2.138   3.091   0.325 -0.5714 -0.2531 -0.8437
 1055SOL    HW2 3455   2.087   3.099   0.170  0.9838  1.1548 -1.3106
 1056SOL     OW 3456   2.373   1.374   1.824 -0.0290 -0.3552  0.5320
 1056SOL    HW1 3457   2.351   1.318   1.744 -0.3250  1.0124 -0.3763
 1056SOL    HW2 3458   2.340   1.467   1.809  2.2117  0.5919  1.1517
 1057SOL     OW 3459   1.399   2.254   2.197 -0.4382  0.5530 -0.3488
 1057SOL    HW1 3460   1.450   2.226   2.115 -0.8617 -2.3248  0.2805
 1057SOL    HW2 3461   1.321   2.310   2.170  1.6577  3.1111 -1.5115
 1058SOL     OW 3462   2.781   3.222   4.013  0.0864  0.6531  0.4022
 1058SOL    HW1 3463   2.801   3.320   4.013  1.3835  0.4136  1.0889
 1058SOL    HW2 3464   2.717   3.202   4.087 -0.2858  0.9986  0.1775
 1059SOL     OW 3465   1.000   1.853   5.901 -0.2306 -0.0854  0.3814
 1059SOL    HW1 3466   1.029   1.758   5.885  0.9652  0.3900 -0.3854
 1059SOL    HW2 3467   0.998   1.902   5.814  0.8262  1.0477  0.9761
 1060SOL     OW 3468   0.107   0.469   2.786 -0.7921  0.2044 -0.2508
 1060SOL    HW1 3469   0.142   0.547   2.839  1.9254 -1.3847  0.4887
 1060SOL    HW2 3470   0.124   0.384   2.837 -0.5695 -1.1690 -2.4995
 1061SOL     OW 3471   4.207   2.178   1.511 -0.0924  0.1420  0.1697
 1061SOL    HW1 3472   4.216   2.080   1.492 -0.3632  0.0038  0.7497
 1061SOL    HW2 3473   4.201   2.192   1.610  0.7486  0.8063  0.1347
 1062SOL     OW 3474   1.840   5.518   0.989  0.1731  0.3105 -0.3048
 1062SOL    HW1 3475   1.902   5.440   1.001 -1.5701 -0.9577  1.0499
 1062SOL    HW2 3476   1.887   5.591   0.940  2.1561 -1.2515 -0.8667
 1063SOL     OW 3477   5.319   0.844   2.110  0.0936  0.6329  0.2116
 1063SOL    HW1 3478   5.331   0.879   2.203 -0.9569 -0.1894  0.6698
 1063SOL    HW2 3479   5.223   0.847   2.085  0.4776  1.8767 -1.2886
 1064SOL     OW 3480   0.269   2.181   1.560 -0.0485 -0.2562  0.1828
 1064SOL    HW1 3481   0.314   2.119   1.496  0.0076 -0.8526  0.7878
 1064SOL    HW2 3482   0.291   2.276   1.535 -0.6950 -0.4339 -1.1574
 1065SOL     OW 3483   3.196   3.514   2.512 -0.4911  0.2996  0.1117
 1065SOL    HW1 3484   3.229   3.461   2.434  0.4845  0.9053  0.0890
 1065SOL    HW2 3485   3.096   3.514   2.513 -0.5026 -0.8740 -0.3256
 1066SOL     OW 3486   2.127   5.219   5.050 -0.0995  0.0611 -0.5024
 1066SOL    HW1 3487   2.214   5.261   5.024  0.8506 -1.9117 -0.6707
 1066SOL    HW2 3488   2.137   5.120   5.052 -1.9998 -0.1611  0.7751
 1067SOL     OW 3489   2.541   5.752   1.087 -0.4070  0.4575  0.1210
 1067SOL    HW1 3490   2.555   5.706   1.174  0.1577  1.1475  0.4045
 1067SOL    HW2 3491   2.584   5.698   1.014 -2.4513 -1.0670 -0.0228
 1068SOL     OW 3492   1.504   1.851   1.937  0.0329 -0.6228 -0.4929
 1068SOL    HW1 3493   1.500   1.915   2.013  5.1232 -0.4373 -0.0419
 1068SOL    HW2 3494   1.463   1.764   1.965 -3.4709  1.0552  0.2117
 1069SOL     OW 3495   4.041   5.086   3.080 -0.2020  0.2576  0.3449
 1069SOL    HW1 3496   3.984   5.167   3.063 -0.9104 -0.4196 -0.5860
 1069SOL    HW2 3497   4.028   5.055   3.174 -1.8997 -0.2667 -0.0247
 1070SOL     OW 3498   1.472   3.436   0.662 -0.2034 -0.6473  0.7144
 1070SOL    HW1 3499   1.402   3.371   0.692 -1.5617  0.8998  1.0114
 1070SOL    HW2 3500   1.520   3.398   0.583 -2.4163 -1.1459 -0.4744
 1071SOL     OW 3501   5.218   0.221   0.758 -0.0362 -0.1231 -0.0466
 1071SOL    HW1 3502   5.206   0.320   0.764 -2.3748 -0.3908  0.9183
 1071SOL    HW2 3503   5.218   0.192   0.662 -0.6545  0.6834 -0.2940
 1072SOL     OW 3504   2.908   4.105   5.623  0.3519 -0.0692  0.1755
 1072SOL    HW1 3505   2.883   4.036   5.691  2.6266 -0.3911  0.7979
 1072SOL    HW2 3506   2.883   4.072   5.532  0.2691 -1.1596  0.5729
 1073SOL     OW 3507   1.756   3.237   2.728 -0.2398  0.2410 -0.2492
 1073SOL    HW1 3508   1.803   3.161   2.773 -0.7515  1.2200  2.1017
 1073SOL    HW2 3509   1.824   3.297   2.685  0.3003 -0.6037 -0.5957
 1074SOL     OW 3510   3.702   0.936   1.496  0.5396  0.5107 -0.1485
 1074SOL    HW1 3511   3.756   1.006   1.542  2.9791 -0.5540 -1.1833
 1074SOL    HW2 3512   3.674   0.969   1.406 -1.5303  1.4380  0.7730
 1075SOL     OW 3513   2.525   1.264   5.564  1.0070 -0.4740 -0.2369
 1075SOL    HW1 3514   2.461   1.339   5.578  1.0393 -0.5090  0.0865
 1075SOL    HW2 3515   2.503   1.188   5.626  0.6274 -0.9542 -0.9402
 1076SOL     OW 3516   5.529   0.623   2.806  0.0600 -0.0075  0.0409
 1076SOL    HW1 3517   5.604   0.596   2.744 -0.1445  0.7617 -0.5519
 1076SOL    HW2 3518   5.455   0.664   2.753 -1.0616 -1.2954  0.5515
 1077SOL     OW 3519   2.034   2.479   2.720 -0.0988 -0.3294 -0.2223
 1077SOL    HW1 3520   2.022   2.538   2.640 -0.3809  2.0793  1.4867
 1077SOL    HW2 3521   2.063   2.388   2.691  0.2893  0.6092 -2.9994
 1078SOL     OW 3522   3.417   5.823   2.856 -0.3611  0.1047  0.1406
 1078SOL    HW1 3523   3.420   5.842   2.758 -0.0414 -0.3414  0.0638
 1078SOL    HW2 3524   3.492   5.762   2.881 -1.3170 -1.0189  0.3917
 1079SOL     OW 3525   5.217   0.533   5.648  0.2889 -0.2704 -0.1643
 1079SOL    HW1 3526   5.162   0.478   5.710  1.4713 -1.4781 -0.1437
 1079SOL    HW2 3527   5.247   0.477   5.570 -0.3929  0.9672 -1.3649
 1080SOL     OW 3528   4.635   1.201   5.269  0.2030  0.0663  0.1775
 1080SOL    HW1 3529   4.701   1.186   5.195 -1.4089 -1.6155 -0.9978
 1080SOL    HW2 3530   4.545   1.166   5.241 -0.8176  0.8026  2.3576
 1081SOL     OW 3531   5.643   5.701   4.402 -0.5414 -0.3312 -0.8467
 1081SOL    HW1 3532   5.570   5.767   4.379  1.5650  2.2041 -0.7093
 1081SOL    HW2 3533   5.692   5.676   4.319 -0.2450 -0.3896 -0.6522
 1082SOL     OW 3534   5.637   4.770   5.740  0.3104 -0.6019  0.2810
 1082SOL    HW1 3535   5.681   4.848   5.694 -0.3446 -0.8288 -0.7718
 1082SOL    HW2 3536   5.590   4.714   5.672 -3.2590  0.6511  1.5037
 1083SOL     OW 3537   3.655   5.523   4.619  0.0617 -0.0175 -0.3039
 1083SOL    HW1 3538   3.666   5.434   4.573  0.7224  0.1804 -0.5391
 1083SOL    HW2 3539   3.734   5.581   4.599  0.8271 -0.2336  1.8055
 1084SOL     OW 3540   4.399   5.320   3.125  0.1293 -0.4427 -0.6100
 1084SOL    HW1 3541   4.321   5.382   3.120 -0.8341 -1.4449  0.9873
 1084SOL    HW2 3542   4.378   5.235   3.077  0.0811 -0.8387  0.0884
 1085SOL     OW 3543   3.196   2.417   4.268 -0.1072  0.5450  0.9862
 1085SOL    HW1 3544   3.131   2.410   4.344  0.5828  0.0399  1.5415
 1085SOL    HW2 3545   3.285   2.382   4.297  0.3222  0.8926  0.1219
 1086SOL     OW 3546   2.802   2.521   5.375  0.4181  0.2401 -0.2567
 1086SOL    HW1 3547   2.851   2.465   5.308  0.8598  1.8636 -1.3475
 1086SOL    HW2 3548   2.862   2.543   5.452  0.9265  0.9273 -0.8378
 1087SOL     OW 3549   4.532   1.988   3.550  0.5080 -0.1861 -0.1840
 1087SOL    HW1 3550   4.531   1.910   3.487 -1.6787  1.5954 -2.5914
 1087SOL    HW2 3551   4.441   2.029   3.554  1.1594  1.2320  2.3805
 1088SOL     OW 3552   5.185   3.035   4.104  0.1223  0.3879  0.1141
 1088SOL    HW1 3553   5.266   3.040   4.163  0.2195  0.2153 -0.0017
 1088SOL    HW2 3554   5.162   2.939   4.088 -0.2316  0.4371  0.3139
 1089SOL     OW 3555   4.058   3.575   3.593 -0.0795  0.2314  0.2342
 1089SOL    HW1 3556   3.965   3.600   3.617 -0.3825 -2.4071  2.3402
 1089SOL    HW2 3557   4.100   3.648   3.539 -3.3238  1.4730 -0.8242
 1090SOL     OW 3558   1.598   4.923   1.664  0.6480 -0.0739 -0.2086
 1090SOL    HW1 3559   1.582   4.831   1.628  0.2172  0.0867 -0.4438
 1090SOL    HW2 3560   1.616   4.918   1.762  1.7848 -0.5122 -0.4301
 1091SOL     OW 3561   5.404   2.521   2.422 -0.0933  0.8106  0.3599
 1091SOL    HW1 3562   5.459   2.523   2.506  0.8029  0.1585 -0.1907
 1091SOL    HW2 3563   5.459   2.552   2.345 -0.2507 -0.5300 -0.3288
 1092SOL     OW 3564   4.274   3.257   2.453 -0.0077  0.0703  0.4973
 1092SOL    HW1 3565   4.284   3.261   2.552  1.1647 -2.4431  0.5649
 1092SOL    HW2 3566   4.255   3.163   2.425 -0.9244  0.8270 -1.6395
 1093SOL     OW 3567   4.080   4.223   2.048  0.0153  0.1080  0.2839
 1093SOL    HW1 3568   4.076   4.124   2.059  0.3686  0.1667  1.0216
 1093SOL    HW2 3569   4.097   4.266   2.137  1.7999  0.7104 -0.3088
 1094SOL     OW 3570   0.262   4.982   2.405 -0.6211 -0.2415 -0.3473
 1094SOL    HW1 3571   0.285   5.059   2.464  1.6794  0.8483 -2.5041
 1094SOL    HW2 3572   0.318   4.903   2.429  0.0191  0.0734 -0.7907
 1095SOL     OW 3573   4.130   2.109   1.802 -0.3120  0.2468  0.0137
 1095SOL    HW1 3574   4.167   2.199   1.825  1.5409 -0.5973  0.5345
 1095SOL    HW2 3575   4.156   2.044   1.872 -0.1982 -1.0319 -1.1683
 1096SOL     OW 3576   1.599   3.207   5.982  0.0912  0.1421 -0.0521
 1096SOL    HW1 3577   1.586   3.177   5.887  1.6424 -0.2510 -0.1748
 1096SOL    HW2 3578   1.597   3.307   5.986  0.0624  0.1630 -0.5200
 1097SOL     OW 3579   4.909   4.226   3.516  0.1735  0.2325 -0.2670
 1097SOL    HW1 3580   4.947   4.311   3.552 -0.7045  0.3526  0.4102
 1097SOL    HW2 3581   4.975   4.183   3.454  0.4432  1.6455 -1.0052
 1098SOL     OW 3582   3.146   1.239   4.709  0.1288  0.0415 -0.4760
 1098SOL    HW1 3583   3.219   1.293   4.750 -0.4431  1.0259 -0.7187
 1098SOL    HW2 3584   3.061   1.291   4.711 -0.7400 -1.3499  0.4136
 1099SOL     OW 3585   5.114   3.902   1.716 -0.4231 -0.2468 -0.1792
 1099SOL    HW1 3586   5.069   3.894   1.804 -1.9789 -1.4367 -1.0414
 1099SOL    HW2 3587   5.178   3.979   1.718  0.3309 -0.8628  2.2771
 1100SOL     OW 3588   5.298   5.323   1.834  0.8157 -0.2914 -0.3673
 1100SOL    HW1 3589   5.313   5.374   1.750 -1.4773  0.7141 -0.2326
 1100SOL    HW2 3590   5.249   5.239   1.814  0.3881 -0.1180 -0.0627
 1101SOL     OW 3591   5.504   0.826   4.654  0.4216 -0.5950 -0.4940
 1101SOL    HW1 3592   5.496   0.917   4.696 -1.8891  0.3941 -2.7950
 1101SOL    HW2 3593   5.413   0.787   4.644  1.2270 -2.3383 -1.3358
 1102SOL     OW 3594   0.567   1.257   5.160 -0.0591 -0.3380  0.4276
 1102SOL    HW1 3595   0.637   1.302   5.216 -1.0583 -0.2217  1.6294
 1102SOL    HW2 3596   0.498   1.217   5.220  0.1865 -2.5137 -0.6359
 1103SOL     OW 3597   3.072   4.783   4.665  0.4756  0.0792 -0.2273
 1103SOL    HW1 3598   3.093   4.874   4.700  0.4512  0.2088 -0.5493
 1103SOL    HW2 3599   3.156   4.728   4.663  0.3592 -0.1569  0.6816
 1104SOL     OW 3600   3.460   0.755   0.498  0.0004 -0.1494 -0.0962
 1104SOL    HW1 3601   3.443   0.666   0.540 -2.4160 -0.5388 -1.6698
 1104SOL    HW2 3602   3.382   0.815   0.514  0.3997  0.7453 -1.3127
 1105SOL     OW 3603   4.151   3.334   3.561 -0.2665 -0.0167  0.1565
 1105SOL    HW1 3604   4.149   3.277   3.643 -0.2282  0.1435  0.2680
 1105SOL    HW2 3605   4.102   3.419   3.578 -0.8121 -0.2540 -0.1887
 1106SOL     OW 3606   0.549   2.527   1.683  0.1851 -0.1493 -0.4557
 1106SOL    HW1 3607   0.603   2.445   1.698  1.2298  0.2161 -2.0968
 1106SOL    HW2 3608   0.570   2.594   1.755  1.8395 -0.0562 -0.9939
 1107SOL     OW 3609   4.089   0.488   0.518 -0.1913 -0.3747 -0.4016
 1107SOL    HW1 3610   4.137   0.567   0.480  1.3979 -0.8790  0.4783
 1107SOL    HW2 3611   3.993   0.489   0.488  0.0344  1.3629 -1.1448
 1108SOL     OW 3612   4.788   0.324   3.880  0.0383  0.1458  0.2387
 1108SOL    HW1 3613   4.800   0.384   3.800 -0.2488  1.1299  0.9173
 1108SOL    HW2 3614   4.701   0.345   3.924  0.3010 -0.2378  0.9535
 1109SOL     OW 3615   2.427   5.335   3.307  0.4529  0.0850 -0.1542
 1109SOL    HW1 3616   2.519   5.348   3.270  0.7154 -0.3996  0.3109
 1109SOL    HW2 3617   2.433   5.285   3.394 -0.1756  0.8607  0.3499
 1110SOL     OW 3618   2.696   2.326   1.614 -0.0477 -0.2599 -0.0377
 1110SOL    HW1 3619   2.676   2.228   1.624 -0.1416 -0.2076  0.2726
 1110SOL    HW2 3620   2.689   2.371   1.702  1.1188 -0.1704  0.0265
 1111SOL     OW 3621   1.605   2.553   3.674 -0.0719  0.4235  0.2455
 1111SOL    HW1 3622   1.518   2.598   3.655 -0.5936 -1.4206 -2.1258
 1111SOL    HW2 3623   1.675   2.623   3.690 -1.5490  1.9786  0.2161
 1112SOL     OW 3624   1.458   1.542   3.027  0.7194 -0.0372 -0.0950
 1112SOL    HW1 3625   1.514   1.621   3.005  2.0995 -1.1441 -0.7337
 1112SOL    HW2 3626   1.376   1.542   2.970  1.6910 -0.0949 -1.5426
 1113SOL     OW 3627   2.668   5.358   0.380  0.2522 -0.3914 -0.5735
 1113SOL    HW1 3628   2.723   5.349   0.463 -1.8175 -2.3498  0.6740
 1113SOL    HW2 3629   2.663   5.269   0.334 -0.6937  0.0959 -1.4483
 1114SOL     OW 3630   2.533   5.538   2.722 -0.0695  0.3455 -0.2936
 1114SOL    HW1 3631   2.628   5.515   2.705  0.1808  0.6272  0.6711
 1114SOL    HW2 3632   2.491   5.573   2.638 -0.2895 -2.8967 -1.6897
 1115SOL     OW 3633   4.096   4.218   0.879 -0.4999  0.8359  0.5840
 1115SOL    HW1 3634   4.181   4.190   0.833  0.6256 -0.2015  3.1260
 1115SOL    HW2 3635   4.030   4.247   0.810  1.1080 -0.4605 -1.6667
 1116SOL     OW 3636   1.138   4.301   3.959 -0.4094 -0.1779  0.0610
 1116SOL    HW1 3637   1.140   4.400   3.962 -1.5492 -0.0804 -1.3393
 1116SOL    HW2 3638   1.057   4.270   3.909 -0.5646 -1.8449  1.2498
 1117SOL     OW 3639   0.508   4.683   4.895  0.2798 -0.4909  0.4642
 1117SOL    HW1 3640   0.597   4.685   4.939  0.2887 -0.0791  0.4286
 1117SOL    HW2 3641   0.479   4.588   4.883  0.8294 -0.6370  0.2362
 1118SOL     OW 3642   2.556   0.413   1.875 -0.1067 -0.1934 -0.6739
 1118SOL    HW1 3643   2.622   0.473   1.922  0.0442 -0.5297 -0.4550
 1118SOL    HW2 3644   2.564   0.320   1.911 -1.0989 -0.1183 -0.2389
 1119SOL     OW 3645   4.603   2.815   2.859  0.3881 -0.5411  0.5574
 1119SOL    HW1 3646   4.583   2.775   2.949 -1.4280 -3.6935 -1.0600
 1119SOL    HW2 3647   4.521   2.858   2.822  0.9830  0.3031  0.1866
 1120SOL     OW 3648   3.710   5.694   0.340 -0.1518  0.3166  0.2094
 1120SOL    HW1 3649   3.691   5.776   0.285 -2.0838  0.5771  1.1779
 1120SOL    HW2 3650   3.661   5.700   0.427  0.2537 -1.5561  0.6110
 1121SOL     OW 3651   0.120   4.577   2.809  0.2847  0.1833 -0.0138
 1121SOL    HW1 3652   0.143   4.566   2.712 -0.0709  0.8819 -0.1775
 1121SOL    HW2 3653   0.173   4.510   2.862  0.1500 -0.5155 -0.7251
 1122SOL     OW 3654   0.940   5.535   2.991  0.6367 -0.1506 -0.6127
 1122SOL    HW1 3655   0.971   5.629   2.997  1.7368 -0.4494 -1.3173
 1122SOL    HW2 3656   1.019   5.474   2.991 -0.0773 -1.2859  2.6316
 1123SOL     OW 3657   1.070   4.673   4.783 -0.1823  0.3967  0.0160
 1123SOL    HW1 3658   0.980   4.657   4.741 -1.4921  0.8158  2.4439
 1123SOL    HW2 3659   1.081   4.771   4.801  1.2696  0.4900 -1.2359
 1124SOL     OW 3660   4.543   2.498   0.481 -0.3180 -0.6438  0.0028
 1124SOL    HW1 3661   4.534   2.546   0.568  1.9499  0.6042 -0.3740
 1124SOL    HW2 3662   4.578   2.406   0.496  2.1369  0.2778  0.3665
 1125SOL     OW 3663   5.150   4.625   0.277  0.5824 -0.5615 -0.2108
 1125SOL    HW1 3664   5.150   4.575   0.191 -0.6359  0.2585 -0.7149
 1125SOL    HW2 3665   5.234   4.678   0.285  0.9151 -1.0113 -0.6602
 1126SOL     OW 3666   2.109   3.088   2.471 -0.1927  0.9281 -0.3937
 1126SOL    HW1 3667   2.052   3.130   2.400  0.1354 -0.8914 -1.8384
 1126SOL    HW2 3668   2.195   3.056   2.429  0.5356  0.8636  1.0887
 1127SOL     OW 3669   4.507   4.104   4.063 -0.0793  0.1967 -0.4554
 1127SOL    HW1 3670   4.561   4.170   4.010 -0.1757 -0.7341 -1.7655
 1127SOL    HW2 3671   4.430   4.072   4.007 -0.0558 -1.0001  0.1672
 1128SOL     OW 3672   0.468   0.841   4.276 -0.0409  0.1511  0.2909
 1128SOL    HW1 3673   0.416   0.881   4.201 -1.5203 -0.4103  0.9790
 1128SOL    HW2 3674   0.423   0.757   4.307  1.6489 -0.7084  0.4993
 1129SOL     OW 3675   4.208   4.828   5.920  0.4301 -0.2598 -0.8060
 1129SOL    HW1 3676   4.261   4.894   5.868 -0.6492  1.8799  0.6542
 1129SOL    HW2 3677   4.110   4.846   5.908  0.1312 -0.0598  1.3903
 1130SOL     OW 3678   0.242   5.377   2.151  0.2164 -0.0450  0.4149
 1130SOL    HW1 3679   0.320   5.412   2.202 -0.4262 -0.2032  1.5455
 1130SOL    HW2 3680   0.236   5.278   2.162 -0.7872  0.0956  1.2944
 1131SOL     OW 3681   1.562   4.848   0.567 -0.1485  0.1916  0.0793
 1131SOL    HW1 3682   1.648   4.889   0.535 -0.1353 -0.1641 -0.3390
 1131SOL    HW2 3683   1.564   4.749   0.552 -0.2214  0.0391  1.0035
 1132SOL     OW 3684   5.694   2.483   0.737 -0.3567 -0.1054  0.0983
 1132SOL    HW1 3685   5.632   2.520   0.806  0.6014 -0.2957  1.0825
 1132SOL    HW2 3686   5.751   2.557   0.701 -0.9096  0.0078 -0.5595
 1133SOL     OW 3687   3.595   5.158   5.342  0.1497 -0.0809  0.4060
 1133SOL    HW1 3688   3.544   5.084   5.299 -2.0772  1.8108 -0.4405
 1133SOL    HW2 3689   3.656   5.201   5.275  0.6034 -0.4403  0.5879
 1134SOL     OW 3690   1.683   1.644   0.258  0.1632 -0.2994  0.6638
 1134SOL    HW1 3691   1.599   1.686   0.293  0.4857 -0.6572  1.9204
 1134SOL    HW2 3692   1.721   1.701   0.185 -0.4145  0.6115  1.0605
 1135SOL     OW 3693   2.671   0.017   0.458  0.4641 -0.0069 -0.1048
 1135SOL    HW1 3694   2.602   0.026   0.385  0.5420  1.2209 -0.0450
 1135SOL    HW2 3695   2.751   0.072   0.435  0.0975  1.2032  1.3456
 1136SOL     OW 3696   1.376   3.178   4.643  0.5746 -0.2880 -0.3331
 1136SOL    HW1 3697   1.295   3.199   4.697  1.2448 -2.3710  1.6398
 1136SOL    HW2 3698   1.436   3.258   4.640 -0.0243  0.2373  1.0029
 1137SOL     OW 3699   1.263   0.123   4.894 -0.0408  0.3274 -0.5144
 1137SOL    HW1 3700   1.175   0.129   4.847  0.6004  0.7806 -1.7268
 1137SOL    HW2 3701   1.304   0.214   4.899 -0.2652  0.3579  1.3410
 1138SOL     OW 3702   3.924   1.439   5.195 -0.1354 -0.1479 -0.3930
 1138SOL    HW1 3703   3.893   1.534   5.208 -0.9731 -0.5742  0.8509
 1138SOL    HW2 3704   3.887   1.403   5.110  0.7016  0.8266 -1.2049
 1139SOL     OW 3705   0.190   4.984   0.932 -0.6799  0.1431 -0.0798
 1139SOL    HW1 3706   0.153   4.938   1.012  0.0146  0.5321  0.4766
 1139SOL    HW2 3707   0.128   4.970   0.854 -0.3625 -1.9683 -0.0234
 1140SOL     OW 3708   5.016   5.393   3.097  0.1481 -0.3817  0.0975
 1140SOL    HW1 3709   4.918   5.377   3.112  0.4327 -1.7421  0.6031
 1140SOL    HW2 3710   5.029   5.432   3.006 -0.8926  0.2392  0.1903
 1141SOL     OW 3711   5.808   4.803   0.893  0.0181 -0.4336 -0.2878
 1141SOL    HW1 3712   5.885   4.855   0.931 -0.0253 -0.0598 -0.7034
 1141SOL    HW2 3713   5.751   4.770   0.968  0.5052 -0.6023  0.0200
 1142SOL     OW 3714   2.556   1.196   1.948 -0.2543  0.6831  0.0853
 1142SOL    HW1 3715   2.475   1.242   1.913 -0.8617 -0.5291 -0.1553
 1142SOL    HW2 3716   2.638   1.232   1.903 -0.5182  2.6884  1.1185
 1143SOL     OW 3717   2.205   1.290   2.833  0.0660  0.3537 -0.3465
 1143SOL    HW1 3718   2.214   1.198   2.872  0.0593  1.1436  1.5976
 1143SOL    HW2 3719   2.294   1.320   2.798  0.3258  0.0678  0.0640
 1144SOL     OW 3720   5.636   0.154   0.714  0.4808 -0.7725  0.8346
 1144SOL    HW1 3721   5.638   0.172   0.616  0.6005  0.5409  1.0593
 1144SOL    HW2 3722   5.583   0.071   0.732  1.0699 -1.4274 -0.3862
 1145SOL     OW 3723   5.478   5.699   1.402 -0.2217  0.3743  0.7319
 1145SOL    HW1 3724   5.452   5.794   1.383 -0.7855  0.2387  0.7842
 1145SOL    HW2 3725   5.396   5.648   1.432 -0.1140 -0.3578 -0.1787
 1146SOL     OW 3726   0.163   3.499   2.736 -0.8289 -0.3502  0.1261
 1146SOL    HW1 3727   0.242   3.475   2.679 -0.8757 -0.0926 -0.0494
 1146SOL    HW2 3728   0.083   3.446   2.708 -1.0370  0.2990 -0.5325
 1147SOL     OW 3729   0.574   4.020   3.932 -0.3778 -0.3817  0.3449
 1147SOL    HW1 3730   0.648   4.082   3.956  0.3307 -1.3669  0.7926
 1147SOL    HW2 3731   0.514   4.008   4.011  0.1200 -1.1084  0.6281
 1148SOL     OW 3732   2.558   3.711   3.626  0.0828 -0.1789 -0.0912
 1148SOL    HW1 3733   2.553   3.811   3.624 -0.5613 -0.2086 -2.3103
 1148SOL    HW2 3734   2.496   3.673   3.558 -0.1847 -2.1539  1.1685
 1149SOL     OW 3735   2.011   3.614   0.544  0.0290 -0.2521  0.2132
 1149SOL    HW1 3736   2.076   3.543   0.569 -0.5516 -0.9596 -0.2497
 1149SOL    HW2 3737   2.029   3.645   0.450  0.0724 -0.0134  0.2980
 1150SOL     OW 3738   4.262   5.106   2.135 -0.2715 -0.4993 -0.6875
 1150SOL    HW1 3739   4.313   5.189   2.154 -0.0439 -0.6136 -0.7922
 1150SOL    HW2 3740   4.236   5.062   2.221  1.7798 -1.6454 -0.5885
 1151SOL     OW 3741   2.089   0.285   5.371 -0.2080 -0.0046 -0.3001
 1151SOL    HW1 3742   1.999   0.295   5.414 -0.3293  1.6309 -0.8768
 1151SOL    HW2 3743   2.120   0.374   5.338  1.5664 -0.5755 -0.2530
 1152SOL     OW 3744   3.220   5.453   4.316 -0.2236  0.1706 -0.3915
 1152SOL    HW1 3745   3.157   5.512   4.266 -0.0471 -1.2050 -2.3593
 1152SOL    HW2 3746   3.307   5.448   4.267 -0.5765 -2.4904 -0.9311
 1153SOL     OW 3747   3.318   2.857   5.117 -0.0862  0.7498  0.3816
 1153SOL    HW1 3748   3.406   2.903   5.128  0.0370  1.0557 -1.5569
 1153SOL    HW2 3749   3.245   2.925   5.112 -0.2196  0.5948  0.2025
 1154SOL     OW 3750   1.883   2.924   0.201  0.2469 -0.4002  0.1684
 1154SOL    HW1 3751   1.826   2.932   0.119 -0.2249 -0.6731  0.4677
 1154SOL    HW2 3752   1.951   2.853   0.188  0.3860 -0.2181 -0.1104
 1155SOL     OW 3753   5.491   5.758   3.048 -0.3271  0.4830 -0.0022
 1155SOL    HW1 3754   5.483   5.857   3.063  0.2394  0.3801  1.0656
 1155SOL    HW2 3755   5.416   5.727   2.990  1.1208  2.0182 -2.9086
 1156SOL     OW 3756   2.374   4.341   2.176 -0.0877 -0.0021 -0.0679
 1156SOL    HW1 3757   2.396   4.247   2.150 -1.7436  0.3173 -3.0200
 1156SOL    HW2 3758   2.334   4.341   2.268  0.7296 -2.0591  0.3378
 1157SOL     OW 3759   3.247   2.950   0.085 -0.4523 -0.3601 -0.2374
 1157SOL    HW1 3760   3.272   3.000   0.168 -2.1874 -0.3639  0.3201
 1157SOL    HW2 3761   3.181   3.003   0.032  0.9256 -0.1759 -1.8614
 1158SOL     OW 3762   4.341   1.343   3.547 -0.5453  0.6625 -0.4644
 1158SOL    HW1 3763   4.299   1.260   3.509  0.4995  0.3321 -0.9403
 1158SOL    HW2 3764   4.342   1.414   3.477 -1.4736  1.0978 -0.0443
 1159SOL     OW 3765   5.769   0.267   5.884  0.0984 -0.4832  0.5906
 1159SOL    HW1 3766   5.711   0.263   5.965 -0.5062 -0.6855  0.1507
 1159SOL    HW2 3767   5.713   0.264   5.801  0.4794  2.4421  0.1059
 1160SOL     OW 3768   4.532   3.941   1.961 -0.4479 -0.5631  0.1111
 1160SOL    HW1 3769   4.574   4.024   1.924 -0.6652 -0.9980 -1.1659
 1160SOL    HW2 3770   4.592   3.863   1.942 -1.1569 -0.9783 -0.4554
 1161SOL     OW 3771   3.626   5.876   5.862 -0.3213 -0.2782  0.6052
 1161SOL    HW1 3772   3.612   5.974   5.852 -1.2682 -0.3509  1.0703
 1161SOL    HW2 3773   3.537   5.831   5.871  0.0819 -1.2198  0.0402
 1162SOL     OW 3774   1.485   2.161   4.754  0.4114  0.1865 -0.0521
 1162SOL    HW1 3775   1.414   2.169   4.824 -0.2313  1.0835 -0.7777
 1162SOL    HW2 3776   1.512   2.065   4.746  1.3324  0.2013  2.1957
 1163SOL     OW 3777   4.968   2.787   0.008  0.1456 -0.3841  0.0400
 1163SOL    HW1 3778   5.029   2.710   0.025  0.5233  0.2802  1.8946
 1163SOL    HW2 3779   4.891   2.783   0.072 -0.7103 -0.0948 -0.9336
 1164SOL     OW 3780   4.341   4.534   5.597 -0.2598  0.5843 -0.1491
 1164SOL    HW1 3781   4.433   4.495   5.590 -0.6343 -0.5804  1.0418
 1164SOL    HW2 3782   4.274   4.464   5.574 -0.9621  0.3486  2.3173
 1165SOL     OW 3783   1.802   3.559   4.353  0.0308  0.5925  0.0386
 1165SOL    HW1 3784   1.771   3.564   4.258  1.6664 -0.5351 -0.6009
 1165SOL    HW2 3785   1.784   3.646   4.398 -2.4877  0.5520 -0.7161
 1166SOL     OW 3786   5.224   4.039   5.054  0.5419 -0.2180 -0.0612
 1166SOL    HW1 3787   5.298   4.033   4.987  0.7008  2.1974 -0.1888
 1166SOL    HW2 3788   5.225   4.130   5.096 -1.1341 -0.8238  1.3892
 1167SOL     OW 3789   1.258   3.396   2.098 -0.0757  0.1937  0.5699
 1167SOL    HW1 3790   1.213   3.310   2.073 -2.2337  1.0225  1.3347
 1167SOL    HW2 3791   1.300   3.436   2.017  2.2812 -2.2244  0.4609
 1168SOL     OW 3792   2.237   1.676   1.926  0.4016 -0.1342 -0.3175
 1168SOL    HW1 3793   2.141   1.648   1.936  0.3886  0.3906  1.2255
 1168SOL    HW2 3794   2.252   1.761   1.977  1.8763 -0.6207  0.0758
 1169SOL     OW 3795   2.763   2.512   2.474  0.3924 -0.3045  0.0886
 1169SOL    HW1 3796   2.793   2.585   2.536  0.9706  0.4058 -0.9818
 1169SOL    HW2 3797   2.727   2.436   2.527 -0.5028  0.8743  1.2300
 1170SOL     OW 3798   1.240   1.085   5.379 -0.3904 -0.1891  0.7086
 1170SOL    HW1 3799   1.194   1.151   5.320  0.4931 -2.1995 -2.4769
 1170SOL    HW2 3800   1.192   0.997   5.374 -0.2431 -0.4819  3.0434
 1171SOL     OW 3801   1.318   2.580   5.152 -0.6091  0.2021  0.0962
 1171SOL    HW1 3802   1.259   2.660   5.158 -1.0515 -0.0871 -0.3153
 1171SOL    HW2 3803   1.368   2.569   5.238 -1.9102 -0.1294  0.8281
 1172SOL     OW 3804   3.099   0.337   2.666 -0.1273  0.3825  0.0708
 1172SOL    HW1 3805   3.021   0.275   2.661  0.1721 -0.0306  0.4307
 1172SOL    HW2 3806   3.120   0.373   2.575 -0.2021 -0.1637 -0.1619
 1173SOL     OW 3807   0.369   2.687   1.360 -0.3650  0.8113 -0.2418
 1173SOL    HW1 3808   0.310   2.655   1.286 -0.3698 -0.3430  0.2345
 1173SOL    HW2 3809   0.464   2.662   1.340 -0.2660  1.1578 -0.2096
 1174SOL     OW 3810   4.249   5.334   1.090  0.1711  0.2044 -0.3202
 1174SOL    HW1 3811   4.340   5.346   1.130  0.0802 -2.7261  1.0452
 1174SOL    HW2 3812   4.189   5.291   1.157 -2.2109  1.8381 -1.2866
 1175SOL     OW 3813   1.509   2.715   2.837  0.2465  0.6602  0.7103
 1175SOL    HW1 3814   1.421   2.739   2.796 -0.5085 -1.7448  0.8041
 1175SOL    HW2 3815   1.511   2.746   2.932 -0.2345  1.3039  0.5151
 1176SOL     OW 3816   0.004   0.878   2.421  0.2269 -0.1303 -0.0043
 1176SOL    HW1 3817   0.058   0.805   2.463  1.5484 -0.1437 -1.6285
 1176SOL    HW2 3818  -0.027   0.850   2.331  0.7756  1.2937 -0.6746
 1177SOL     OW 3819   5.558   3.606   5.713 -0.3691 -0.1691 -0.5937
 1177SOL    HW1 3820   5.502   3.547   5.654  1.5843 -1.3367 -1.3852
 1177SOL    HW2 3821   5.613   3.668   5.656  0.7129 -0.5250  0.0276
 1178SOL     OW 3822   1.385   3.208   0.395 -0.0660  0.3430 -0.0321
 1178SOL    HW1 3823   1.313   3.256   0.444  1.1437  0.4563  1.7089
 1178SOL    HW2 3824   1.405   3.122   0.441  0.3320 -0.1041 -1.0057
 1179SOL     OW 3825   3.383   2.373   4.974  0.2705  0.2453 -0.4473
 1179SOL    HW1 3826   3.344   2.340   4.889  0.8347 -1.4623 -0.0769
 1179SOL    HW2 3827   3.436   2.456   4.956 -0.1708  0.2889 -1.6256
 1180SOL     OW 3828   5.386   4.380   0.303 -0.1043  0.4056  0.4843
 1180SOL    HW1 3829   5.413   4.474   0.283  1.2957 -0.2213 -0.6836
 1180SOL    HW2 3830   5.449   4.340   0.370  0.4819 -0.2963 -0.4622
 1181SOL     OW 3831   5.540   2.409   5.527 -0.7820 -0.4050 -0.4000
 1181SOL    HW1 3832   5.451   2.364   5.522  0.1028 -2.0875 -2.1519
 1181SOL    HW2 3833   5.577   2.420   5.435 -0.0547  2.2178  0.1198
 1182SOL     OW 3834   1.434   2.989   0.171  0.1022 -0.1593 -0.1389
 1182SOL    HW1 3835   1.498   2.964   0.244  0.3400 -1.5680 -0.8029
 1182SOL    HW2 3836   1.470   3.069   0.122  1.6043 -1.1850 -0.7756
 1183SOL     OW 3837   1.597   4.370   4.217 -0.9010  0.3085 -0.3167
 1183SOL    HW1 3838   1.500   4.375   4.240 -1.0774  0.5414 -1.0986
 1183SOL    HW2 3839   1.617   4.429   4.139 -0.4746 -1.0386 -1.2879
 1184SOL     OW 3840   5.601   5.886   2.095  0.9958  0.1923 -0.3045
 1184SOL    HW1 3841   5.684   5.909   2.145  0.6816  1.3094 -0.2683
 1184SOL    HW2 3842   5.579   5.789   2.109  1.3676  0.2841  1.0476
 1185SOL     OW 3843   0.227   2.890   0.971 -0.0564 -0.1723  0.1295
 1185SOL    HW1 3844   0.295   2.951   1.012 -0.8515  1.7410 -1.2623
 1185SOL    HW2 3845   0.148   2.943   0.941 -0.0098 -1.6049 -2.8311
 1186SOL     OW 3846   5.707   4.292   5.638 -0.3886 -0.3477 -0.3365
 1186SOL    HW1 3847   5.722   4.280   5.736  1.0798 -1.0195 -0.6210
 1186SOL    HW2 3848   5.769   4.362   5.603 -1.1980  0.1899 -0.7216
 1187SOL     OW 3849   5.681   3.797   5.067  0.4598  0.4129 -0.2589
 1187SOL    HW1 3850   5.737   3.879   5.053  1.0888 -0.0527 -0.5438
 1187SOL    HW2 3851   5.631   3.805   5.153 -0.4119  1.6142 -0.8456
 1188SOL     OW 3852   2.560   4.287   4.907 -0.0870  0.0407 -0.0331
 1188SOL    HW1 3853   2.473   4.321   4.872 -0.9285 -0.2098  1.7056
 1188SOL    HW2 3854   2.559   4.187   4.906  0.2417  0.0380 -0.1336
 1189SOL     OW 3855   4.919   4.739   4.866  0.1935  0.3539  0.0083
 1189SOL    HW1 3856   4.990   4.706   4.928  0.6987  0.3235 -0.5780
 1189SOL    HW2 3857   4.838   4.680   4.874 -0.5933  1.6646  2.2565
 1190SOL     OW 3858   4.940   5.325   0.232  0.3410 -0.4212  0.8961
 1190SOL    HW1 3859   4.925   5.228   0.248  2.0593 -0.3775  3.3197
 1190SOL    HW2 3860   4.934   5.374   0.319  2.0328  1.2526  0.1301
 1191SOL     OW 3861   4.821   4.616   5.369 -0.4579 -0.0332 -0.0948
 1191SOL    HW1 3862   4.786   4.705   5.339  0.8961  0.0551 -1.5756
 1191SOL    HW2 3863   4.793   4.599   5.463  1.7100  3.3543  1.3691
 1192SOL     OW 3864   4.083   3.684   3.156  0.3256  0.0695 -0.2960
 1192SOL    HW1 3865   4.127   3.683   3.246 -0.3680  1.7867  0.0902
 1192SOL    HW2 3866   4.068   3.778   3.127 -0.1474 -0.4670 -1.8928
 1193SOL     OW 3867   0.847   0.770   5.378  0.2779  0.1625 -0.3806
 1193SOL    HW1 3868   0.786   0.848   5.388  1.2299  0.8413  0.2028
 1193SOL    HW2 3869   0.858   0.724   5.466  1.2081  0.4962 -0.3198
 1194SOL     OW 3870   2.260   0.965   0.476  0.4476  0.0360  0.3895
 1194SOL    HW1 3871   2.357   0.980   0.457  0.5447 -0.6164  0.3368
 1194SOL    HW2 3872   2.250   0.923   0.566  0.2614 -0.5345  0.1035
 1195SOL     OW 3873   1.286   5.858   3.826  0.6622 -0.2671  0.0005
 1195SOL    HW1 3874   1.246   5.778   3.872 -0.1310  0.9148  1.4559
 1195SOL    HW2 3875   1.366   5.889   3.876 -1.0353  1.9034  1.5687
 1196SOL     OW 3876   5.112   5.426   0.041 -0.0140 -0.0606  0.5945
 1196SOL    HW1 3877   5.185   5.398   0.104  0.2194  0.2088  0.4490
 1196SOL    HW2 3878   5.024   5.417   0.087  0.0679 -0.8261  0.6181
 1197SOL     OW 3879   2.673   5.296   1.201 -0.1799  0.3919 -0.6670
 1197SOL    HW1 3880   2.726   5.212   1.208  1.9132  1.7621  1.8748
 1197SOL    HW2 3881   2.575   5.274   1.198  0.0749 -2.1824  2.9832
 1198SOL     OW 3882   4.162   1.395   5.357  0.5088 -0.2476 -0.5480
 1198SOL    HW1 3883   4.074   1.403   5.311  0.2939 -1.8963 -0.4897
 1198SOL    HW2 3884   4.147   1.371   5.453  1.0010 -1.7223 -0.8126
 1199SOL     OW 3885   5.273   2.585   2.157  0.2947 -0.1650  0.1155
 1199SOL    HW1 3886   5.357   2.638   2.172  0.1736 -0.3915  1.7889
 1199SOL    HW2 3887   5.242   2.546   2.244 -1.8333  0.3100 -0.3742
 1200SOL     OW 3888   4.535   3.870   2.218 -0.0149  0.0393 -0.2850
 1200SOL    HW1 3889   4.503   3.914   2.134  3.5313  0.6755 -1.4527
 1200SOL    HW2 3890   4.608   3.805   2.196  3.0221  2.2327  2.4155
 1201SOL     OW 3891   5.940   1.887   3.342 -0.0416  0.2627  0.3041
 1201SOL    HW1 3892   5.956   1.861   3.437  0.1096  0.0872  0.2317
 1201SOL    HW2 3893   5.945   1.805   3.284 -2.2053 -0.0123  0.4004
 1202SOL     OW 3894   3.907   3.173   1.769  0.3231 -0.0127 -0.5373
 1202SOL    HW1 3895   3.969   3.100   1.738 -0.7732 -0.6098 -1.3794
 1202SOL    HW2 3896   3.889   3.236   1.693 -1.7852 -1.0615 -0.9806
 1203SOL     OW 3897   5.778   4.977   2.998 -1.2431 -0.6730  0.6956
 1203SOL    HW1 3898   5.807   4.882   3.002  0.2989 -0.1915  1.5568
 1203SOL    HW2 3899   5.817   5.028   3.074 -2.5861  0.5245  0.6341
 1204SOL     OW 3900   4.015   4.034   5.298  0.3591 -0.3204 -0.2473
 1204SOL    HW1 3901   3.989   4.131   5.302 -1.8238 -0.7912 -1.3699
 1204SOL    HW2 3902   3.950   3.980   5.352 -0.5828 -1.4767 -2.4081
 1205SOL     OW 3903   0.137   5.883   0.667 -0.4690 -0.1345  0.3771
 1205SOL    HW1 3904   0.062   5.927   0.717 -2.2534 -2.5691 -0.0072
 1205SOL    HW2 3905   0.168   5.802   0.718  0.0895 -0.6631 -0.7634
 1206SOL     OW 3906   3.911   5.896   3.601  0.0379 -0.0517 -0.0346
 1206SOL    HW1 3907   3.885   5.820   3.541  1.0612 -0.0830 -0.4622
 1206SOL    HW2 3908   3.834   5.920   3.661 -0.3035 -1.3963  0.0860
 1207SOL     OW 3909   3.162   1.822   5.473 -0.1744  0.1237  0.0734
 1207SOL    HW1 3910   3.218   1.756   5.423  0.2666  2.3989 -2.7407
 1207SOL    HW2 3911   3.106   1.775   5.541  2.1518 -2.7140  0.2046
 1208SOL     OW 3912   2.233   2.550   1.555 -0.9118 -0.9820  0.8312
 1208SOL    HW1 3913   2.238   2.637   1.605  1.7506  0.4908 -1.6637
 1208SOL    HW2 3914   2.165   2.558   1.482  0.5565 -0.1975 -0.5335
 1209SOL     OW 3915   4.740   0.152   3.109 -0.4814 -0.0424 -0.0932
 1209SOL    HW1 3916   4.807   0.181   3.177  0.5616 -0.1634 -1.0401
 1209SOL    HW2 3917   4.741   0.052   3.102  0.0283  0.0031 -0.8572
 1210SOL     OW 3918   0.028   2.800   2.003  0.1221 -0.4951  0.2607
 1210SOL    HW1 3919   0.058   2.771   2.093 -0.0261 -0.9989  0.1529
 1210SOL    HW2 3920  -0.069   2.777   1.991 -0.7821  2.4297  1.1743
 1211SOL     OW 3921   2.318   5.409   2.845  0.0062  0.1876  0.0673
 1211SOL    HW1 3922   2.391   5.460   2.800  0.1806  0.2516  0.4160
 1211SOL    HW2 3923   2.357   5.331   2.894 -0.1362  0.3140  0.3855
 1212SOL     OW 3924   1.269   0.622   3.133 -0.1312  0.0348 -0.5753
 1212SOL    HW1 3925   1.362   0.637   3.098  0.5769  0.9034  1.5165
 1212SOL    HW2 3926   1.204   0.623   3.057  1.1758  2.8985 -1.7775
 1213SOL     OW 3927   2.931   0.330   2.092  0.1979 -0.2964  0.1726
 1213SOL    HW1 3928   2.921   0.333   2.192 -2.0845  0.7811 -0.0167
 1213SOL    HW2 3929   2.969   0.416   2.059  1.7868 -0.9719  0.1242
 1214SOL     OW 3930   5.606   5.323   4.486  0.2258  0.5878  0.6308
 1214SOL    HW1 3931   5.549   5.271   4.550 -0.8781  1.5914  0.4996
 1214SOL    HW2 3932   5.665   5.385   4.537 -2.3783  3.2089  0.7850
 1215SOL     OW 3933   1.813   3.435   0.184 -0.0123 -0.1846 -0.2292
 1215SOL    HW1 3934   1.755   3.397   0.257 -1.6416  2.8519  0.2282
 1215SOL    HW2 3935   1.758   3.444   0.100  0.7036 -0.0091 -0.6863
 1216SOL     OW 3936   1.178   2.681   0.070  0.2988  0.0037 -0.2645
 1216SOL    HW1 3937   1.203   2.653   0.163  0.9998  0.1615 -0.4078
 1216SOL    HW2 3938   1.149   2.600   0.018 -0.9421  0.0283  0.3438
 1217SOL     OW 3939   3.186   2.735   4.867 -0.3237  0.1199 -0.0651
 1217SOL    HW1 3940   3.140   2.698   4.948  1.4855 -1.1891  0.4363
 1217SOL    HW2 3941   3.197   2.834   4.876 -0.9622  0.1145  0.8516
 1218SOL     OW 3942   4.230   3.718   3.867 -0.3725  0.1068 -0.1750
 1218SOL    HW1 3943   4.325   3.689   3.869  0.3346  2.0139 -2.1728
 1218SOL    HW2 3944   4.181   3.666   3.796 -0.6530 -0.3416  0.3367
 1219SOL     OW 3945   0.320   2.816   1.593  0.0714 -0.3320  0.0076
 1219SOL    HW1 3946   0.334   2.760   1.511  4.1303  0.0740  0.2177
 1219SOL    HW2 3947   0.320   2.913   1.568 -1.4411 -0.2534  0.2408
 1220SOL     OW 3948   5.397   3.224   2.959 -0.2894  0.2835  0.2885
 1220SOL    HW1 3949   5.486   3.226   2.913 -0.5472 -0.2709 -0.2474
 1220SOL    HW2 3950   5.326   3.254   2.895 -0.4535  1.0850  0.8240
 1221SOL     OW 3951   1.999   0.682   4.225  0.2824 -0.4051 -0.3420
 1221SOL    HW1 3952   1.967   0.661   4.317 -1.7376  0.4636 -0.7743
 1221SOL    HW2 3953   2.043   0.601   4.185  3.4496 -0.1115  2.1809
 1222SOL     OW 3954   4.803   4.199   2.783 -0.6429 -0.0144 -0.0669
 1222SOL    HW1 3955   4.897   4.181   2.809 -0.2742  1.5033 -0.2861
 1222SOL    HW2 3956   4.747   4.118   2.803  1.4428 -2.7282 -3.9565
 1223SOL     OW 3957   2.755   2.529   2.201  0.0520 -0.0473 -0.6428
 1223SOL    HW1 3958   2.696   2.451   2.179  1.6444 -1.0320 -1.7223
 1223SOL    HW2 3959   2.755   2.544   2.300 -0.3458 -1.3977 -0.4063
 1224SOL     OW 3960   3.549   2.016   2.529  0.9557  0.1781  0.5043
 1224SOL    HW1 3961   3.511   2.102   2.563 -0.0136 -0.0938  0.1464
 1224SOL    HW2 3962   3.622   2.035   2.463  0.5299  0.7373  0.1825
 1225SOL     OW 3963   0.181   0.210   5.932 -0.0576 -0.1438 -0.0853
 1225SOL    HW1 3964   0.142   0.185   6.021 -0.3301  0.2512 -0.0936
 1225SOL    HW2 3965   0.172   0.308   5.918 -0.7218 -0.3143 -0.8930
 1226SOL     OW 3966   2.261   1.854   0.101  0.0036  0.2957 -0.0027
 1226SOL    HW1 3967   2.255   1.837   0.003  2.1620 -0.8323  0.0059
 1226SOL    HW2 3968   2.249   1.768   0.151  0.3786  0.6047  0.6372
 1227SOL     OW 3969   0.341   0.306   4.730 -0.7471 -0.7542 -0.4649
 1227SOL    HW1 3970   0.438   0.293   4.748 -1.1976 -1.6564  1.6450
 1227SOL    HW2 3971   0.319   0.404   4.737 -0.1119 -0.6205 -0.2046
 1228SOL     OW 3972   0.891   4.874   1.656  0.4951 -0.1600 -0.1760
 1228SOL    HW1 3973   0.922   4.779   1.666 -0.3217 -0.6545 -1.9386
 1228SOL    HW2 3974   0.968   4.932   1.631  0.7677 -0.5863 -0.3346
 1229SOL     OW 3975   0.458   2.076   1.004  0.6913  0.1747 -0.3349
 1229SOL    HW1 3976   0.393   2.068   0.928  1.4826 -0.3442 -0.9724
 1229SOL    HW2 3977   0.543   2.031   0.979  0.3711 -1.6318  1.5679
 1230SOL     OW 3978   0.126   4.965   5.626  0.2073  0.4836  0.4710
 1230SOL    HW1 3979   0.117   5.060   5.595  1.1269  0.6365  0.6428
 1230SOL    HW2 3980   0.178   4.913   5.558  1.3162  0.5619  1.2268
 1231SOL     OW 3981   4.794   4.225   5.012 -0.6023 -0.7063 -0.1349
 1231SOL    HW1 3982   4.815   4.173   5.095  0.4860  0.6286  0.4785
 1231SOL    HW2 3983   4.871   4.217   4.948 -1.8594 -2.5691 -1.5122
 1232SOL     OW 3984   3.675   2.474   3.415 -0.2860 -0.7468  0.5236
 1232SOL    HW1 3985   3.764   2.457   3.457 -0.3531 -2.1463  0.1270
 1232SOL    HW2 3986   3.685   2.475   3.315 -0.4848  0.5337  0.4959
 1233SOL     OW 3987   4.289   1.634   1.535  0.0968  0.4247 -0.0370
 1233SOL    HW1 3988   4.374   1.615   1.585  0.0303 -2.1337 -0.7298
 1233SOL    HW2 3989   4.211   1.600   1.588 -0.4551  1.9501  0.1860
 1234SOL     OW 3990   1.164   4.891   1.073  0.4473  0.4483 -0.7088
 1234SOL    HW1 3991   1.122   4.969   1.027 -1.7798 -0.5486 -0.4898
 1234SOL    HW2 3992   1.196   4.825   1.005  0.7599  0.7513 -0.8610
 1235SOL     OW 3993   4.572   4.644   3.761  0.0876 -0.1606  0.3889
 1235SOL    HW1 3994   4.589   4.712   3.689 -0.4195  0.5347  0.9202
 1235SOL    HW2 3995   4.573   4.553   3.720  0.9063  0.1440 -0.3130
 1236SOL     OW 3996   3.586   0.505   2.713 -0.4900 -0.0706  0.2967
 1236SOL    HW1 3997   3.583   0.406   2.727  1.3746  0.0419  1.8325
 1236SOL    HW2 3998   3.647   0.546   2.780 -1.3734  2.1672 -0.2025
 1237SOL     OW 3999   5.094   2.390   5.287 -0.4803 -0.0848  0.3760
 1237SOL    HW1 4000   5.021   2.441   5.241 -0.0417 -0.4981 -0.8222
 1237SOL    HW2 4001   5.056   2.308   5.329 -0.8829  0.2627  0.6941
 1238SOL     OW 4002   3.306   1.652   3.148  0.5813  0.3047 -0.2554
 1238SOL    HW1 4003   3.370   1.680   3.077  2.9841 -0.7157  1.3883
 1238SOL    HW2 4004   3.327   1.559   3.177  0.3147  1.0115  2.4291
 1239SOL     OW 4005   3.999   1.714   1.173 -0.0182 -0.0065  0.0034
 1239SOL    HW1 4006   3.932   1.726   1.245 -0.8957 -2.3594 -0.3392
 1239SOL    HW2 4007   3.962   1.748   1.086 -0.6035 -0.9058 -0.1029
 1240SOL     OW 4008   0.537   1.422   5.530  0.3202 -0.1628  0.0307
 1240SOL    HW1 4009   0.585   1.460   5.450  0.8592 -0.0857  0.3850
 1240SOL    HW2 4010   0.523   1.495   5.597  0.9246 -0.4748  0.5051
 1241SOL     OW 4011   5.096   5.595   4.129 -0.3759 -0.2052  0.1136
 1241SOL    HW1 4012   5.027   5.602   4.056 -0.6813  3.4204  0.5391
 1241SOL    HW2 4013   5.061   5.535   4.201 -2.3244  0.0983 -0.4962
 1242SOL     OW 4014   3.937   4.298   0.664 -0.6367  0.3098 -0.0773
 1242SOL    HW1 4015   4.023   4.306   0.612  0.0711  2.3808  1.3032
 1242SOL    HW2 4016   3.864   4.266   0.603  0.0133  3.0823 -2.5264
 1243SOL     OW 4017   1.564   4.079   5.623 -0.0166 -0.0222 -0.3046
 1243SOL    HW1 4018   1.486   4.019   5.605 -0.1452  0.4057 -1.2495
 1243SOL    HW2 4019   1.646   4.041   5.581 -0.2406  0.7956 -1.5412
 1244SOL     OW 4020   4.532   4.549   5.902  0.4046  0.0258 -0.3989
 1244SOL    HW1 4021   4.433   4.567   5.896  0.2103 -1.3769 -2.9424
 1244SOL    HW2 4022   4.546   4.453   5.925  1.2631  0.6365  1.8421
 1245SOL     OW 4023   2.793   0.139   4.221  0.2272  0.3418 -0.3839
 1245SOL    HW1 4024   2.773   0.189   4.305  0.0947  0.3598 -0.4264
 1245SOL    HW2 4025   2.708   0.119   4.172  0.4144  1.7848 -1.3529
 1246SOL     OW 4026   2.325   4.829   0.708 -0.3315 -0.4185 -0.0693
 1246SOL    HW1 4027   2.269   4.844   0.626 -0.5155  2.1137  0.4504
 1246SOL    HW2 4028   2.315   4.734   0.737 -1.1340 -1.1064 -2.3145
 1247SOL     OW 4029   1.956   0.906   5.221 -0.1134  0.3230  0.3181
 1247SOL    HW1 4030   1.858   0.889   5.232 -0.7878  4.0358  1.6357
 1247SOL    HW2 4031   2.007   0.858   5.293 -1.2753  0.4455  1.2442
 1248SOL     OW 4032   2.109   3.538   0.918 -0.4869 -0.8326  0.0685
 1248SOL    HW1 4033   2.010   3.542   0.901 -0.4115 -1.5736 -0.5918
 1248SOL    HW2 4034   2.141   3.444   0.904  0.3391 -0.5624  0.1283
 1249SOL     OW 4035   2.110   5.424   3.877  0.0109  0.2760  0.1406
 1249SOL    HW1 4036   2.184   5.358   3.868  0.5375  0.9940 -1.2095
 1249SOL    HW2 4037   2.043   5.391   3.943  0.4269 -1.4424 -0.2421
 1250SOL     OW 4038   4.801   4.811   5.720  0.2192 -0.1913  0.2635
 1250SOL    HW1 4039   4.866   4.887   5.720  1.0057 -0.7248 -2.5670
 1250SOL    HW2 4040   4.851   4.725   5.709 -0.8126 -0.8722  0.7709
 1251SOL     OW 4041   5.711   0.754   1.237  0.0205  0.1479  0.2399
 1251SOL    HW1 4042   5.713   0.852   1.214  0.8105  0.5468  1.8324
 1251SOL    HW2 4043   5.724   0.743   1.335  1.8529 -1.6258 -0.1257
 1252SOL     OW 4044   3.410   3.463   2.029 -0.4994 -0.1205 -0.1251
 1252SOL    HW1 4045   3.423   3.366   2.009 -0.3902  0.0759 -1.0598
 1252SOL    HW2 4046   3.494   3.513   2.008 -0.4701  0.1478  0.5965
 1253SOL     OW 4047   3.413   5.514   2.586 -0.3818 -0.0134  0.2370
 1253SOL    HW1 4048   3.384   5.445   2.519  0.5804 -0.6743  0.4789
 1253SOL    HW2 4049   3.366   5.499   2.673  0.0040 -0.5216  0.3610
 1254SOL     OW 4050   5.711   0.885   3.184 -0.1382  0.1719  0.5019
 1254SOL    HW1 4051   5.779   0.821   3.218  1.6710  1.3427 -0.7031
 1254SOL    HW2 4052   5.652   0.839   3.118  1.1331 -0.2882 -0.3509
 1255SOL     OW 4053   2.987   3.128   4.708 -0.5761  0.5181  0.1543
 1255SOL    HW1 4054   3.029   3.208   4.666  1.2674  1.1054  2.8531
 1255SOL    HW2 4055   2.900   3.155   4.750 -1.1003  0.5336 -0.9108
 1256SOL     OW 4056   1.770   0.989   5.868 -0.1974  0.0434 -0.2283
 1256SOL    HW1 4057   1.730   1.008   5.957 -0.8436 -1.2535 -0.2152
 1256SOL    HW2 4058   1.697   0.984   5.799  0.3669  1.9147 -1.0224
 1257SOL     OW 4059   3.939   1.413   5.818  0.0471 -0.3833  0.4406
 1257SOL    HW1 4060   3.998   1.493   5.831  0.7741 -0.5251 -1.6591
 1257SOL    HW2 4061   3.988   1.343   5.766 -1.8995 -0.5212 -1.3548
 1258SOL     OW 4062   2.680   0.460   4.800 -0.1038  0.1195 -0.1998
 1258SOL    HW1 4063   2.637   0.376   4.765 -0.4152 -0.2080  0.9411
 1258SOL    HW2 4064   2.610   0.530   4.813 -0.2307 -0.2487  1.1783
 1259SOL     OW 4065   5.972   2.137   3.284  0.3211 -0.3246  0.0196
 1259SOL    HW1 4066   5.966   2.039   3.304 -0.3428  0.1839  2.7401
 1259SOL    HW2 4067   5.903   2.162   3.217  0.6412 -1.7403 -0.8730
 1260SOL     OW 4068   2.073   3.765   5.377  0.3818 -0.1569 -0.1474
 1260SOL    HW1 4069   2.040   3.703   5.448 -0.7971 -0.0475 -0.5807
 1260SOL    HW2 4070   2.110   3.848   5.420 -0.2998 -0.1004  0.3467
 1261SOL     OW 4071   5.003   1.278   2.114  0.2738  0.1080  0.1160
 1261SOL    HW1 4072   5.014   1.243   2.207 -1.3397 -2.7278 -0.6431
 1261SOL    HW2 4073   4.924   1.235   2.071  0.7606  1.5867 -2.4996
 1262SOL     OW 4074   1.534   2.689   4.712  0.2196  0.1684  0.0766
 1262SOL    HW1 4075   1.471   2.628   4.760  1.3049 -1.9369 -1.0203
 1262SOL    HW2 4076   1.542   2.775   4.762 -1.5817 -0.4587  1.5565
 1263SOL     OW 4077   2.931   0.261   5.734  0.1759 -0.0856 -0.0016
 1263SOL    HW1 4078   2.972   0.313   5.659 -0.2515  0.8200  0.3759
 1263SOL    HW2 4079   2.865   0.195   5.697 -1.3369  1.5459 -0.3646
 1264SOL     OW 4080   4.892   3.846   0.867 -0.1188  0.4450  0.4489
 1264SOL    HW1 4081   4.825   3.772   0.864 -0.0220  0.2749  1.9533
 1264SOL    HW2 4082   4.913   3.876   0.774 -0.5451 -1.0576 -0.1530
 1265SOL     OW 4083   4.585   5.272   1.027  0.1961 -0.0674  0.0476
 1265SOL    HW1 4084   4.632   5.219   1.098  0.9758  0.5959  0.0446
 1265SOL    HW2 4085   4.546   5.209   0.960  1.9303 -0.6551 -0.4695
 1266SOL     OW 4086   4.087   3.686   5.148  0.2232  0.1569  0.0096
 1266SOL    HW1 4087   4.130   3.678   5.238 -0.3967  0.4777  0.3428
 1266SOL    HW2 4088   4.154   3.663   5.077  0.5463 -0.7102  0.5740
 1267SOL     OW 4089   5.892   3.027   2.611  0.1669 -0.0819  0.4121
 1267SOL    HW1 4090   5.924   3.008   2.518  0.1105 -0.7130  0.5213
 1267SOL    HW2 4091   5.810   3.084   2.607 -0.7845 -1.4515  0.0235
 1268SOL     OW 4092   2.352   3.009   1.362  0.0447  0.3743 -0.3938
 1268SOL    HW1 4093   2.393   2.947   1.431  0.3641  1.4846  0.4480
 1268SOL    HW2 4094   2.272   2.965   1.321 -0.0003 -0.4247  0.5050
 1269SOL     OW 4095   4.596   1.410   5.679 -0.0787 -0.4202 -0.0686
 1269SOL    HW1 4096   4.618   1.322   5.721 -0.5022 -0.6351 -0.2891
 1269SOL    HW2 4097   4.594   1.481   5.749  1.3596 -0.3757 -0.0456
 1270SOL     OW 4098   2.740   1.178   4.756  0.1512 -0.0634 -0.0295
 1270SOL    HW1 4099   2.785   1.111   4.697 -1.4600 -1.4895  0.3109
 1270SOL    HW2 4100   2.658   1.213   4.711  2.2847  3.8573 -1.4316
 1271SOL     OW 4101   0.654  -0.002   3.676 -0.2082  0.5206  0.0419
 1271SOL    HW1 4102   0.738   0.039   3.641 -0.1861  0.3824 -0.0700
 1271SOL    HW2 4103   0.601   0.067   3.725  0.8971  0.1698  1.8331
 1272SOL     OW 4104   4.222   3.295   5.366 -0.5047  0.4330  0.4111
 1272SOL    HW1 4105   4.154   3.290   5.292 -0.1210  2.0939 -0.1011
 1272SOL    HW2 4106   4.182   3.343   5.444 -0.6950 -0.7521  1.0600
 1273SOL     OW 4107   3.624   0.692   0.275 -0.0830  0.2264  0.1301
 1273SOL    HW1 4108   3.579   0.700   0.364  0.6600 -3.1558  0.9917
 1273SOL    HW2 4109   3.721   0.714   0.285  0.0178 -0.2359  0.2112
 1274SOL     OW 4110   2.783   5.494   2.535 -0.0457  0.0791 -0.1313
 1274SOL    HW1 4111   2.748   5.538   2.453  0.9808  2.3925  0.5914
 1274SOL    HW2 4112   2.881   5.509   2.543 -0.2416  0.6815  1.9101
 1275SOL     OW 4113   3.174   4.661   3.190 -0.2082  0.1842 -0.6821
 1275SOL    HW1 4114   3.077   4.677   3.204  0.1938  1.5056  0.9701
 1275SOL    HW2 4115   3.219   4.747   3.166  1.3342  0.9400  3.9339
 1276SOL     OW 4116   2.651   2.627   3.891 -0.7249  0.3860 -0.1110
 1276SOL    HW1 4117   2.588   2.551   3.878  0.0944 -0.8604  2.3597
 1276SOL    HW2 4118   2.666   2.674   3.805 -0.8935 -2.5728 -1.8759
 1277SOL     OW 4119   3.630   4.428   0.371 -0.0221  0.1655 -0.1621
 1277SOL    HW1 4120   3.649   4.461   0.278 -0.9682 -0.3910 -0.5645
 1277SOL    HW2 4121   3.541   4.460   0.401  0.2938  0.3704  0.5775
 1278SOL     OW 4122   4.166   1.171   0.075 -0.5299 -0.1984 -0.0758
 1278SOL    HW1 4123   4.125   1.193   0.164  0.6564 -2.6566  1.1907
 1278SOL    HW2 4124   4.266   1.177   0.082 -0.3444 -1.9408 -0.7388
 1279SOL     OW 4125   0.593   1.985   3.936 -0.2817  0.2495 -0.1960
 1279SOL    HW1 4126   0.501   2.003   3.902 -0.3134 -1.9325 -1.4046
 1279SOL    HW2 4127   0.598   1.892   3.973  1.4227  0.3384 -0.1022
 1280SOL     OW 4128   4.783   0.010   3.857 -0.2588 -0.3810 -0.0261
 1280SOL    HW1 4129   4.792   0.109   3.846  1.2285 -0.3398  1.1727
 1280SOL    HW2 4130   4.802  -0.015   3.952  1.7677 -2.0353 -0.7820
 1281SOL     OW 4131   4.073   1.816   5.271 -0.2872 -0.5111  0.2913
 1281SOL    HW1 4132   4.075   1.834   5.369 -0.5405 -2.2497  0.6372
 1281SOL    HW2 4133   4.134   1.740   5.249 -1.4851 -1.2539 -0.6321
 1282SOL     OW 4134   2.816   5.362   2.253 -0.3401 -0.3067  0.7577
 1282SOL    HW1 4135   2.856   5.318   2.333  0.4691 -0.4406  0.2967
 1282SOL    HW2 4136   2.889   5.389   2.190 -0.9525 -0.0878  0.1251
 1283SOL     OW 4137   3.333   5.603   3.291  0.4419  0.2587  0.4991
 1283SOL    HW1 4138   3.335   5.608   3.391  0.1584  0.3556  0.4994
 1283SOL    HW2 4139   3.269   5.671   3.256 -1.2257 -1.3165  0.3472
 1284SOL     OW 4140   3.594   4.690   1.359  0.0403 -0.2000 -0.3144
 1284SOL    HW1 4141   3.561   4.636   1.281  0.7243  0.2833 -0.9507
 1284SOL    HW2 4142   3.615   4.783   1.329  1.2192 -0.2689  0.2252
 1285SOL     OW 4143   5.327   2.584   5.785  0.1107  0.1882  0.3927
 1285SOL    HW1 4144   5.402   2.597   5.850  1.6249 -2.0680 -0.7579
 1285SOL    HW2 4145   5.356   2.616   5.695 -0.3646 -0.5528 -0.0300
 1286SOL     OW 4146   4.848   1.295   3.046 -0.0976  0.0468  0.1646
 1286SOL    HW1 4147   4.839   1.299   2.946  1.5648 -1.1066 -0.0730
 1286SOL    HW2 4148   4.772   1.243   3.085 -0.5363  0.1503 -0.5349
 1287SOL     OW 4149   0.895   1.846   0.198 -0.7801  0.0036  0.1476
 1287SOL    HW1 4150   0.898   1.746   0.207  1.2498 -0.0659 -0.6364
 1287SOL    HW2 4151   0.946   1.873   0.117  1.6876  1.8110  2.1379
 1288SOL     OW 4152   3.247   3.415   5.086  0.4150 -0.1058 -0.1524
 1288SOL    HW1 4153   3.171   3.445   5.143  0.8101  1.9198 -0.6246
 1288SOL    HW2 4154   3.280   3.326   5.119 -0.7239  0.0095  1.4087
 1289SOL     OW 4155   2.817   5.652   3.817 -0.2657  0.2712  0.1580
 1289SOL    HW1 4156   2.882   5.615   3.883 -0.8377 -0.0324  0.5527
 1289SOL    HW2 4157   2.839   5.748   3.799  0.2972  0.1665  0.2808
 1290SOL     OW 4158   0.449   5.006   0.800 -0.7090  0.0559  0.3955
 1290SOL    HW1 4159   0.500   4.935   0.752  0.2622  1.2002 -0.3246
 1290SOL    HW2 4160   0.353   4.979   0.809 -0.5155 -0.9981 -0.5345
 1291SOL     OW 4161   2.663   5.403   1.601 -0.2871  0.0976  0.4752
 1291SOL    HW1 4162   2.646   5.304   1.601  3.2205 -0.6217  1.3177
 1291SOL    HW2 4163   2.687   5.433   1.509  0.0280 -0.1288  0.4825
 1292SOL     OW 4164   1.780   0.275   0.753  0.0387 -0.5961  0.3610
 1292SOL    HW1 4165   1.869   0.287   0.798 -0.1014 -3.1615  1.5069
 1292SOL    HW2 4166   1.715   0.236   0.819 -2.0528  1.4094 -0.3846
 1293SOL     OW 4167   2.518   4.215   2.620  0.6936  0.3846  0.7174
 1293SOL    HW1 4168   2.616   4.224   2.604  0.5460  0.2207 -0.3367
 1293SOL    HW2 4169   2.482   4.303   2.653  0.6354  1.5228 -2.0839
 1294SOL     OW 4170   0.566   4.837   2.409 -0.5354  0.4471  0.8293
 1294SOL    HW1 4171   0.526   4.752   2.375  1.2362 -0.4124  0.7561
 1294SOL    HW2 4172   0.564   4.837   2.509 -2.0516  1.1145  0.8228
 1295SOL     OW 4173   4.823   0.988   4.443  0.7963 -0.3922 -0.2338
 1295SOL    HW1 4174   4.862   0.950   4.360  0.9557  1.2111 -0.9249
 1295SOL    HW2 4175   4.837   1.087   4.445  1.4597 -0.4592  2.0540
 1296SOL     OW 4176   5.561   3.295   1.297  0.0968 -0.1760  0.1696
 1296SOL    HW1 4177   5.507   3.293   1.212 -0.6663  0.5297  0.6208
 1296SOL    HW2 4178   5.602   3.386   1.308  1.0385 -0.5746  0.0578
 1297SOL     OW 4179   5.886   5.448   3.200  0.3103  0.1073  0.4191
 1297SOL    HW1 4180   5.982   5.460   3.173 -0.1969  1.6029 -0.8886
 1297SOL    HW2 4181   5.878   5.451   3.299  1.6742 -0.6068  0.5688
 1298SOL     OW 4182   2.015   0.465   2.184 -0.1736  0.2899  0.1885
 1298SOL    HW1 4183   1.916   0.462   2.189 -0.2945  0.3086 -1.6296
 1298SOL    HW2 4184   2.047   0.399   2.115  0.9765  1.1432 -0.1289
 1299SOL     OW 4185   4.869   0.409   2.185 -0.3751 -0.0144  0.0121
 1299SOL    HW1 4186   4.932   0.472   2.140  2.3641 -2.0485  0.7199
 1299SOL    HW2 4187   4.837   0.341   2.119  0.1980 -0.4550  0.1820
 1300SOL     OW 4188   0.543   2.484   2.092  0.5976  0.0364 -0.5231
 1300SOL    HW1 4189   0.586   2.422   2.158 -1.8895  0.2936  1.4591
 1300SOL    HW2 4190   0.453   2.449   2.067 -0.0942  1.9103 -0.7949
 1301SOL     OW 4191   1.164   3.467   2.774  0.2825 -0.2173 -0.3484
 1301SOL    HW1 4192   1.195   3.469   2.870  1.4487  0.5265 -0.7153
 1301SOL    HW2 4193   1.148   3.561   2.743 -2.1455 -0.5568 -0.2786
 1302SOL     OW 4194   4.888   2.970   0.464  0.4896 -0.1807  0.6886
 1302SOL    HW1 4195   4.843   2.981   0.553 -1.8375  0.1515 -0.4304
 1302SOL    HW2 4196   4.831   2.914   0.405  1.8566 -0.1821 -0.6944
 1303SOL     OW 4197   3.857   0.376   3.657  0.2768  0.5574 -0.0353
 1303SOL    HW1 4198   3.841   0.417   3.747  1.9777  1.0944  0.0588
 1303SOL    HW2 4199   3.949   0.399   3.626  0.5841 -1.5741 -0.8783
 1304SOL     OW 4200   5.873   3.474   0.390  0.2545  0.3883  0.5928
 1304SOL    HW1 4201   5.952   3.419   0.364  0.4428  1.8330 -2.3761
 1304SOL    HW2 4202   5.903   3.566   0.414 -0.4567  0.7851 -0.0075
 1305SOL     OW 4203   3.674   1.698   2.245  0.2270 -0.5866  0.7368
 1305SOL    HW1 4204   3.651   1.726   2.338  1.4316 -0.2365  0.9434
 1305SOL    HW2 4205   3.682   1.598   2.242  2.0450 -0.5029  1.4844
 1306SOL     OW 4206   0.472   5.393   1.489 -0.0464 -0.2799  0.6188
 1306SOL    HW1 4207   0.518   5.482   1.485 -1.0219  0.1928 -1.5367
 1306SOL    HW2 4208   0.376   5.406   1.513  0.1033 -0.9051  1.6024
 1307SOL     OW 4209   5.241   0.290   5.007  0.0886  0.1627 -0.1793
 1307SOL    HW1 4210   5.147   0.280   5.040 -0.1275  0.9565 -0.5148
 1307SOL    HW2 4211   5.264   0.213   4.949  0.5958 -1.4388  2.0312
 1308SOL     OW 4212   5.243   2.659   1.606  0.0484  0.2205  0.1619
 1308SOL    HW1 4213   5.220   2.568   1.641 -0.4912  0.0467 -0.6155
 1308SOL    HW2 4214   5.299   2.708   1.674 -0.7695 -0.1823  1.1551
 1309SOL     OW 4215   3.986   4.742   2.996 -0.2172 -0.0815  0.7146
 1309SOL    HW1 4216   3.929   4.786   3.066  1.0195  0.3890  1.4527
 1309SOL    HW2 4217   3.952   4.767   2.906 -1.1338  0.2574  1.1384
 1310SOL     OW 4218   0.792   0.066   2.169  0.6075 -0.2485 -0.4144
 1310SOL    HW1 4219   0.721   0.022   2.223  1.5906  0.2804  1.4080
 1310SOL    HW2 4220   0.873   0.081   2.227  1.8350  0.0692 -2.1405
 1311SOL     OW 4221   5.139   1.165   3.421 -0.0573  0.7361  0.3167
 1311SOL    HW1 4222   5.120   1.193   3.327 -1.7096 -1.3160 -0.0269
 1311SOL    HW2 4223   5.204   1.229   3.462  1.7756  0.9426 -2.6286
 1312SOL     OW 4224   0.724   4.762   5.649 -0.0469  0.0972 -0.4003
 1312SOL    HW1 4225   0.777   4.732   5.570 -0.0508  0.2708 -0.4701
 1312SOL    HW2 4226   0.786   4.786   5.724 -0.0149  0.5219 -0.5610
 1313SOL     OW 4227   2.726   0.678   0.909  0.1983  0.1397  0.1493
 1313SOL    HW1 4228   2.794   0.752   0.911  0.1229  0.1967  0.6064
 1313SOL    HW2 4229   2.646   0.709   0.858  1.3977 -0.7067 -2.4385
 1314SOL     OW 4230   5.831   0.350   4.654  0.5597 -0.1205 -0.2229
 1314SOL    HW1 4231   5.902   0.332   4.585  1.1289 -0.3473  0.4090
 1314SOL    HW2 4232   5.747   0.302   4.629  1.0571 -0.9907 -0.2651
 1315SOL     OW 4233   5.002   5.591   5.082  0.5563  0.2818  0.7847
 1315SOL    HW1 4234   5.070   5.567   5.151  0.1296  0.4637  1.2733
 1315SOL    HW2 4235   5.009   5.688   5.060  0.9739  0.1380  0.2507
 1316SOL     OW 4236   5.033   1.240   5.769  0.0486  0.1094 -0.0885
 1316SOL    HW1 4237   5.091   1.309   5.725  1.1612  0.1140  1.3080
 1316SOL    HW2 4238   5.086   1.155   5.779  0.1144  0.3373  1.8740
 1317SOL     OW 4239   1.501   4.422   3.579  0.7264 -0.2902 -0.2028
 1317SOL    HW1 4240   1.535   4.424   3.673  1.9441  1.9795 -0.6217
 1317SOL    HW2 4241   1.519   4.332   3.539  0.7871 -1.0716  1.4961
 1318SOL     OW 4242   2.475   5.427   4.629  0.0141  0.5504  0.0739
 1318SOL    HW1 4243   2.568   5.461   4.639  0.5828 -0.3154 -1.7420
 1318SOL    HW2 4244   2.477   5.338   4.584 -1.7470  1.1944 -1.4326
 1319SOL     OW 4245   2.515   1.843   0.118  0.3132 -0.0326 -0.3678
 1319SOL    HW1 4246   2.416   1.838   0.127  0.3400  0.4181  0.2615
 1319SOL    HW2 4247   2.551   1.753   0.095 -0.2791 -0.1110 -1.0036
 1320SOL     OW 4248   0.877   4.839   5.861  0.2147  0.2592 -0.5376
 1320SOL    HW1 4249   0.859   4.757   5.916  0.7808  0.2557 -0.3570
 1320SOL    HW2 4250   0.865   4.920   5.918  1.8513  0.2217 -0.0994
 1321SOL     OW 4251   5.013   5.529   1.661  0.1614 -0.3101  0.7515
 1321SOL    HW1 4252   4.958   5.538   1.578  1.0876 -3.5883 -0.3548
 1321SOL    HW2 4253   5.018   5.618   1.707 -2.5680  1.0301 -1.2419
 1322SOL     OW 4254   0.241   5.641   0.783 -0.3414 -0.0992 -0.1843
 1322SOL    HW1 4255   0.225   5.655   0.881  2.2509 -0.6085  0.3905
 1322SOL    HW2 4256   0.249   5.543   0.765  2.7286  0.0476 -0.1516
 1323SOL     OW 4257   1.615   1.928   1.488 -0.3358 -0.1330 -0.0158
 1323SOL    HW1 4258   1.638   1.999   1.555  1.8196  1.4681 -2.2977
 1323SOL    HW2 4259   1.696   1.872   1.470 -0.8003 -0.3792 -1.4431
 1324SOL     OW 4260   2.886   4.978   1.608 -0.3724  0.0008 -0.3741
 1324SOL    HW1 4261   2.918   4.913   1.539 -1.2957 -0.3201 -0.5092
 1324SOL    HW2 4262   2.939   5.063   1.600  0.1281 -0.3532 -0.8917
 1325SOL     OW 4263   2.752   5.576   0.738 -0.2510  0.2510  0.2287
 1325SOL    HW1 4264   2.674   5.581   0.800  0.6765 -0.1069  1.4570
 1325SOL    HW2 4265   2.764   5.482   0.707 -1.2072  0.5658 -1.1827
 1326SOL     OW 4266   0.945   4.701   2.053  0.0467 -0.2626 -0.3204
 1326SOL    HW1 4267   0.975   4.608   2.030 -0.1265 -0.6555  0.9686
 1326SOL    HW2 4268   0.863   4.723   2.001  1.3452  0.0563 -2.3655
 1327SOL     OW 4269   2.778   5.623   5.098  0.2570 -0.3661 -0.3825
 1327SOL    HW1 4270   2.814   5.666   5.181  1.5388 -1.4976 -0.3166
 1327SOL    HW2 4271   2.699   5.675   5.065  0.5749  0.8928  0.7541
 1328SOL     OW 4272   1.057   0.793   3.009  0.3154 -0.1006  0.4403
 1328SOL    HW1 4273   0.966   0.821   2.979  1.2814 -0.3188 -3.0720
 1328SOL    HW2 4274   1.115   0.874   3.020  1.0207 -0.0974 -2.4163
 1329SOL     OW 4275   5.948   4.825   3.238  0.3755 -0.1664 -0.2800
 1329SOL    HW1 4276   5.864   4.820   3.292  0.4596  0.7867 -0.0421
 1329SOL    HW2 4277   5.939   4.770   3.156 -0.9662  0.9353 -0.9020
 1330SOL     OW 4278   1.935   1.520   1.367 -0.0517 -0.1304 -0.0913
 1330SOL    HW1 4279   1.963   1.470   1.449  1.3636 -0.4407 -0.7179
 1330SOL    HW2 4280   1.959   1.465   1.286 -1.0332  0.3561 -0.7196
 1331SOL     OW 4281   1.261   2.495   4.472  0.2607  0.4183  0.1285
 1331SOL    HW1 4282   1.301   2.587   4.478 -1.9419  1.4321  0.5804
 1331SOL    HW2 4283   1.219   2.472   4.560 -0.3611 -0.4606 -0.3867
 1332SOL     OW 4284   5.142   5.551   0.892  0.7862  0.3765 -0.0458
 1332SOL    HW1 4285   5.188   5.583   0.810  0.0412  0.8816 -0.2745
 1332SOL    HW2 4286   5.072   5.618   0.920 -1.1076 -1.1956 -0.7823
 1333SOL     OW 4287   3.654   3.623   0.352 -0.3586 -0.6843  0.1379
 1333SOL    HW1 4288   3.640   3.700   0.290  1.0256 -0.6079 -0.1258
 1333SOL    HW2 4289   3.606   3.640   0.438  0.2712  0.6900  0.2393
 1334SOL     OW 4290   5.010   0.845   0.024  0.4929 -0.0068  0.0757
 1334SOL    HW1 4291   4.912   0.836   0.004  0.9847  0.3534 -3.0136
 1334SOL    HW2 4292   5.044   0.759   0.061 -0.7470 -0.5740 -0.0324
 1335SOL     OW 4293   0.767   1.955   1.809 -0.4016 -0.2165  0.3672
 1335SOL    HW1 4294   0.708   1.914   1.878 -1.2720 -0.0530 -0.2555
 1335SOL    HW2 4295   0.834   2.015   1.853  0.0987 -1.3462  1.1812
 1336SOL     OW 4296   0.892   5.042   0.270 -0.1046  0.2698 -0.6140
 1336SOL    HW1 4297   0.989   5.030   0.288 -0.5439 -1.8067  0.7126
 1336SOL    HW2 4298   0.878   5.063   0.173  1.5417 -0.9705 -1.1565
 1337SOL     OW 4299   4.031   1.827   1.774 -0.1892 -0.0625 -0.1434
 1337SOL    HW1 4300   4.084   1.866   1.849 -1.5673  0.5651  0.5400
 1337SOL    HW2 4301   4.020   1.896   1.701 -2.4053  0.8576  0.9528
 1338SOL     OW 4302   3.485   5.437   2.864  0.1384 -0.9860  0.6668
 1338SOL    HW1 4303   3.389   5.418   2.844 -0.2042  1.1796 -0.0935
 1338SOL    HW2 4304   3.500   5.434   2.962 -1.0267 -0.1622  0.8881
 1339SOL     OW 4305   3.775   3.489   4.344  0.0642  0.1686  0.2112
 1339SOL    HW1 4306   3.770   3.478   4.443 -1.2151 -0.7974  0.0681
 1339SOL    HW2 4307   3.870   3.484   4.314  0.3746 -0.7340  1.2773
 1340SOL     OW 4308   5.524   1.553   4.411 -0.3713  0.5459  0.1769
 1340SOL    HW1 4309   5.549   1.531   4.316  0.4728 -0.5157  0.6269
 1340SOL    HW2 4310   5.431   1.521   4.429 -0.3553  0.3061 -0.1549
 1341SOL     OW 4311   5.344   4.135   4.825 -0.4250  0.1285 -0.3442
 1341SOL    HW1 4312   5.429   4.088   4.800 -0.6348 -0.6411  0.3564
 1341SOL    HW2 4313   5.333   4.216   4.768  0.0342 -0.5675 -1.4473
 1342SOL     OW 4314   4.292   0.111   3.092 -0.0317 -0.0611  0.5377
 1342SOL    HW1 4315   4.237   0.194   3.083 -0.6608 -0.5010  0.1716
 1342SOL    HW2 4316   4.370   0.127   3.153  0.9218  1.3362 -0.9753
 1343SOL     OW 4317   1.403   2.026   5.871 -0.1176 -0.2077  0.0409
 1343SOL    HW1 4318   1.486   2.059   5.916 -0.2022 -0.0261  0.0627
 1343SOL    HW2 4319   1.423   1.940   5.823  0.1774  0.0450 -0.2929
 1344SOL     OW 4320   3.989   3.591   2.488  0.1880 -0.2251  0.2460
 1344SOL    HW1 4321   3.893   3.565   2.478  0.6332 -1.0161 -2.7894
 1344SOL    HW2 4322   4.029   3.542   2.566 -1.3430 -1.4194  0.3299
 1345SOL     OW 4323   3.608   5.650   3.786 -0.0258  0.4206 -0.0089
 1345SOL    HW1 4324   3.522   5.662   3.836  1.1231 -0.5989  2.3347
 1345SOL    HW2 4325   3.679   5.617   3.848  2.5134  2.6200 -1.4962
 1346SOL     OW 4326   4.551   5.725   1.698 -0.2096  0.1709  0.7742
 1346SOL    HW1 4327   4.476   5.679   1.744  0.0707 -1.6914 -0.5406
 1346SOL    HW2 4328   4.634   5.717   1.754 -0.3313 -0.2705  0.8921
 1347SOL     OW 4329   3.231   0.974   3.986 -0.2659 -0.2200  0.4067
 1347SOL    HW1 4330   3.132   0.962   3.988 -0.4273  0.8458 -0.3121
 1347SOL    HW2 4331   3.266   0.974   4.080 -0.9543 -0.5364  0.6714
 1348SOL     OW 4332   3.202   0.393   2.433 -0.1024  0.1081 -0.3411
 1348SOL    HW1 4333   3.186   0.295   2.421  2.1078 -0.6856  2.2726
 1348SOL    HW2 4334   3.275   0.423   2.372  2.2303 -0.9681  1.7539
 1349SOL     OW 4335   4.253   4.257   4.875  0.1198 -0.5300 -0.1352
 1349SOL    HW1 4336   4.326   4.281   4.811 -0.9808 -0.5962 -1.4721
 1349SOL    HW2 4337   4.267   4.164   4.910  0.6595 -0.5447 -0.3950
 1350SOL     OW 4338   5.269   5.538   1.583 -0.3194  0.1128  0.2942
 1350SOL    HW1 4339   5.337   5.573   1.648 -0.9578  1.8265  0.1013
 1350SOL    HW2 4340   5.179   5.538   1.627 -0.7030  0.9795 -0.4586
 1351SOL     OW 4341   2.478   4.407   0.202 -0.0035 -0.2069 -0.2251
 1351SOL    HW1 4342   2.538   4.328   0.191 -1.1662 -1.5059  2.0657
 1351SOL    HW2 4343   2.533   4.489   0.218  1.1964 -1.1726  0.7621
 1352SOL     OW 4344   0.102   5.083   3.360  0.1498  0.0014  0.1566
 1352SOL    HW1 4345   0.088   4.984   3.373  2.2862 -0.3734 -0.0907
 1352SOL    HW2 4346   0.123   5.125   3.447  1.9864 -0.2807 -0.1226
 1353SOL     OW 4347   5.818   2.870   5.338  0.0318  0.1368 -0.3770
 1353SOL    HW1 4348   5.884   2.945   5.339  0.1825  0.0790 -2.4896
 1353SOL    HW2 4349   5.741   2.893   5.278 -0.8083 -0.6968  0.3376
 1354SOL     OW 4350   2.346   0.653   2.763  0.0810  0.0446  0.3480
 1354SOL    HW1 4351   2.269   0.609   2.717  0.5049  0.1565 -0.4770
 1354SOL    HW2 4352   2.432   0.613   2.730  0.3946  0.0458  1.1286
 1355SOL     OW 4353   3.845   0.443   0.380 -0.3432  0.3875  0.9017
 1355SOL    HW1 4354   3.865   0.533   0.341 -0.4614  0.7449  1.6386
 1355SOL    HW2 4355   3.773   0.399   0.326 -1.8589  1.6659  1.7783
 1356SOL     OW 4356   2.270   4.523   5.758 -0.1428 -0.7396 -0.2645
 1356SOL    HW1 4357   2.263   4.520   5.857 -0.4107 -0.4569 -0.2708
 1356SOL    HW2 4358   2.179   4.511   5.718 -0.2426  0.4269 -0.4359
 1357SOL     OW 4359   5.393   1.019   3.894 -0.1664  0.2900 -0.0388
 1357SOL    HW1 4360   5.319   1.053   3.836 -1.1939  0.2089  1.1676
 1357SOL    HW2 4361   5.479   1.019   3.843 -0.8939  0.9042 -1.3051
 1358SOL     OW 4362   2.079   2.963   4.293  0.6729 -0.2669 -0.7018
 1358SOL    HW1 4363   2.101   3.061   4.299 -2.9572  0.6688 -0.2700
 1358SOL    HW2 4364   2.121   2.915   4.370  0.6805  1.3830  0.3703
 1359SOL     OW 4365   1.453   2.221   1.898  0.0450  0.1638 -0.1710
 1359SOL    HW1 4366   1.503   2.197   1.815 -1.6051 -2.3850 -0.5515
 1359SOL    HW2 4367   1.361   2.251   1.874 -0.0016  0.7402  0.6927
 1360SOL     OW 4368   1.517   5.399   0.135  0.0428 -0.3950 -0.0871
 1360SOL    HW1 4369   1.459   5.362   0.208 -0.7681 -0.2367 -0.6265
 1360SOL    HW2 4370   1.551   5.324   0.079 -0.5321 -0.4323 -0.4021
 1361SOL     OW 4371   5.518   4.522   3.730 -0.4648 -0.1381 -0.0677
 1361SOL    HW1 4372   5.584   4.453   3.700  0.3787 -0.1133  1.5964
 1361SOL    HW2 4373   5.546   4.612   3.699  0.6147 -0.0594  1.0583
 1362SOL     OW 4374   5.912   2.608   1.592  0.6179 -0.2304 -0.2537
 1362SOL    HW1 4375   5.985   2.633   1.656  0.6245 -1.8142  0.4069
 1362SOL    HW2 4376   5.848   2.545   1.637 -1.5812  1.6164 -0.5991
 1363SOL     OW 4377   1.662   3.284   4.101  0.1460 -0.6427  0.7614
 1363SOL    HW1 4378   1.712   3.209   4.145  1.3946 -0.3907 -0.1730
 1363SOL    HW2 4379   1.564   3.264   4.102  0.4537 -2.2882  0.5174
 1364SOL     OW 4380   3.002   2.341   4.446  0.0403  0.2398  0.4928
 1364SOL    HW1 4381   2.904   2.350   4.428  0.1511 -0.1903 -0.4006
 1364SOL    HW2 4382   3.024   2.382   4.534 -0.7738  1.3156  0.2237
 1365SOL     OW 4383   4.735   0.134   2.650 -0.8006  0.2547 -0.2743
 1365SOL    HW1 4384   4.802   0.061   2.653 -0.1793  0.8101 -0.4068
 1365SOL    HW2 4385   4.762   0.202   2.582 -0.0650  1.8415  1.5079
 1366SOL     OW 4386   5.149   3.512   5.841  0.2722  0.4330  0.1076
 1366SOL    HW1 4387   5.090   3.588   5.869  1.0695  1.5875 -1.2018
 1366SOL    HW2 4388   5.235   3.515   5.892 -0.2362 -0.4434  1.0467
 1367SOL     OW 4389   2.910   3.519   2.559 -0.2088  0.4778 -0.0391
 1367SOL    HW1 4390   2.851   3.460   2.504  2.0408 -0.3294 -1.7753
 1367SOL    HW2 4391   2.917   3.609   2.515  1.0384  0.0603 -0.7432
 1368SOL     OW 4392   0.340   0.886   2.941 -0.5939  0.1348 -0.0969
 1368SOL    HW1 4393   0.425   0.935   2.922 -1.3056  0.7044 -2.0732
 1368SOL    HW2 4394   0.285   0.938   3.006  0.1987  0.1743  0.5509
 1369SOL     OW 4395   3.773   5.296   0.142  0.3879  0.1010 -0.0060
 1369SOL    HW1 4396   3.776   5.362   0.067  2.1320  1.1120  0.9020
 1369SOL    HW2 4397   3.678   5.286   0.173 -0.1027  1.0965 -1.0841
 1370SOL     OW 4398   2.858   2.385   4.747  0.3544 -0.0919  0.0336
 1370SOL    HW1 4399   2.868   2.403   4.845 -0.2910 -0.0795  0.1023
 1370SOL    HW2 4400   2.858   2.287   4.730  2.3802 -0.1008 -0.1780
 1371SOL     OW 4401   3.413   1.385   3.177 -0.6210 -0.0749 -0.0235
 1371SOL    HW1 4402   3.477   1.402   3.103 -1.0615 -1.2267 -0.7110
 1371SOL    HW2 4403   3.382   1.290   3.172 -1.8300  0.2605  0.7134
 1372SOL     OW 4404   2.182   5.211   5.724  0.1296 -0.0969 -0.3089
 1372SOL    HW1 4405   2.135   5.259   5.649  0.5498 -1.0050 -1.1774
 1372SOL    HW2 4406   2.263   5.264   5.751 -1.0682  1.2165  0.8483
 1373SOL     OW 4407   5.182   5.066   0.407 -0.1102  0.2313  0.0681
 1373SOL    HW1 4408   5.125   5.117   0.472 -1.2038 -0.7551 -0.0764
 1373SOL    HW2 4409   5.160   5.094   0.314  1.6867  1.8761  0.0988
 1374SOL     OW 4410   5.244   4.627   2.358  0.4754  0.2561 -0.3628
 1374SOL    HW1 4411   5.183   4.636   2.436  0.1362  0.4657 -0.6479
 1374SOL    HW2 4412   5.195   4.652   2.274  1.1927  1.2691 -0.4993
 1375SOL     OW 4413   0.851   1.501   5.952  0.2476  0.2096 -0.0221
 1375SOL    HW1 4414   0.801   1.588   5.948 -1.1253 -0.5605 -0.2524
 1375SOL    HW2 4415   0.829   1.447   5.871 -0.3334 -1.0956  0.9780
 1376SOL     OW 4416   0.648   3.944   2.454  0.2261 -0.2147  0.0935
 1376SOL    HW1 4417   0.589   3.905   2.524  0.3694 -0.9006 -0.1587
 1376SOL    HW2 4418   0.728   3.885   2.441  1.2839  0.9918  0.8518
 1377SOL     OW 4419   5.819   2.970   3.988 -0.1155 -0.6466  0.4081
 1377SOL    HW1 4420   5.886   2.897   3.979  2.1284  1.3330 -0.2396
 1377SOL    HW2 4421   5.785   2.974   4.082  2.1255 -0.6194  1.2898
 1378SOL     OW 4422   2.328   2.136   1.158  0.0577 -0.0414  0.4110
 1378SOL    HW1 4423   2.280   2.107   1.241 -1.0810  0.5102 -0.0196
 1378SOL    HW2 4424   2.365   2.228   1.172  2.0009 -0.8919  1.1220
 1379SOL     OW 4425   0.867   3.553   5.929  0.6582  0.2629 -0.5230
 1379SOL    HW1 4426   0.868   3.454   5.912 -0.0017  0.1647 -0.0573
 1379SOL    HW2 4427   0.935   3.598   5.871  0.1324 -0.3225 -1.6223
 1380SOL     OW 4428   5.231   4.524   3.150  0.2910 -0.1012 -0.2799
 1380SOL    HW1 4429   5.312   4.561   3.194  1.5052  0.4029 -2.7476
 1380SOL    HW2 4430   5.168   4.488   3.219  2.1387  0.4037  1.7570
 1381SOL     OW 4431   5.226   0.604   5.948  0.3167  0.0782  0.0767
 1381SOL    HW1 4432   5.278   0.525   5.915  0.9811  0.6166 -0.1914
 1381SOL    HW2 4433   5.289   0.680   5.968 -0.1602  0.0818  1.7009
 1382SOL     OW 4434   4.725   0.668   5.555 -0.5983 -0.0444 -0.1099
 1382SOL    HW1 4435   4.773   0.733   5.496 -0.0110 -1.3669 -1.1269
 1382SOL    HW2 4436   4.771   0.662   5.644 -0.6523  0.8923 -0.0090
 1383SOL     OW 4437   5.738   1.421   5.275 -0.0853  0.4485  0.6232
 1383SOL    HW1 4438   5.690   1.508   5.260  0.9771  1.2507  1.7275
 1383SOL    HW2 4439   5.748   1.405   5.373  0.5238 -0.4951  0.4223
 1384SOL     OW 4440   4.226   0.218   5.264  0.0248 -0.0424 -0.4736
 1384SOL    HW1 4441   4.276   0.219   5.351 -0.9329  1.5139  0.1041
 1384SOL    HW2 4442   4.271   0.282   5.201  0.4101 -0.7768 -0.9474
 1385SOL     OW 4443   3.816   0.197   3.982 -0.0799  1.1252  0.1757
 1385SOL    HW1 4444   3.911   0.170   3.997 -0.2727 -0.2420 -0.9110
 1385SOL    HW2 4445   3.813   0.291   3.948  0.9502  0.9104 -0.5390
 1386SOL     OW 4446   4.584   4.427   4.360 -0.5687  0.2657  0.2775
 1386SOL    HW1 4447   4.507   4.365   4.347 -0.2965  0.1888 -1.2610
 1386SOL    HW2 4448   4.592   4.487   4.279  0.5862  0.7035  0.6944
 1387SOL     OW 4449   0.115   3.695   0.488 -0.2755  0.1383 -0.2718
 1387SOL    HW1 4450   0.125   3.712   0.390 -0.9316 -2.0868 -0.7966
 1387SOL    HW2 4451   0.195   3.647   0.522 -0.1755  0.6511  0.2236
 1388SOL     OW 4452   2.192   3.291   0.904 -0.0119  0.7356  0.1279
 1388SOL    HW1 4453   2.273   3.278   0.961 -0.3461 -0.1336  0.4173
 1388SOL    HW2 4454   2.188   3.219   0.834 -0.5001  0.8021  0.0810
 1389SOL     OW 4455   5.072   3.857   2.902  0.4074  0.0102 -0.1274
 1389SOL    HW1 4456   5.155   3.819   2.944  0.0507 -2.2971 -1.3030
 1389SOL    HW2 4457   5.001   3.867   2.971  0.8896 -0.4196  0.4458
 1390SOL     OW 4458   5.557   5.058   5.365 -0.3211 -0.0867  0.3381
 1390SOL    HW1 4459   5.602   5.146   5.348 -0.3630 -0.2731 -0.7885
 1390SOL    HW2 4460   5.625   4.985   5.362 -0.4714 -0.2164  0.1235
 1391SOL     OW 4461   3.749   2.978   0.688  0.1841  0.1055  0.3154
 1391SOL    HW1 4462   3.656   2.970   0.652 -0.6383 -0.1597  2.3712
 1391SOL    HW2 4463   3.768   3.074   0.708 -0.2464  0.0099  1.2784
 1392SOL     OW 4464   2.263   2.429   0.617  0.3656 -0.3410  0.0634
 1392SOL    HW1 4465   2.328   2.354   0.631 -0.9588 -1.5751 -0.1262
 1392SOL    HW2 4466   2.277   2.468   0.525  0.7300 -0.7041 -0.0394
 1393SOL     OW 4467   1.451   3.774   5.569  0.0881  0.0038 -0.0521
 1393SOL    HW1 4468   1.476   3.743   5.661 -0.7205 -1.1230 -0.1944
 1393SOL    HW2 4469   1.387   3.851   5.575  1.9369  1.5879  0.3050
 1394SOL     OW 4470   1.389   0.481   5.431  0.1155 -0.1234 -0.2358
 1394SOL    HW1 4471   1.352   0.408   5.373 -3.8181  1.1260  0.3999
 1394SOL    HW2 4472   1.349   0.475   5.522  1.0519  1.8115  0.3555
 1395SOL     OW 4473   5.501   1.774   0.248  0.6325 -0.0681  0.2614
 1395SOL    HW1 4474   5.594   1.745   0.271  0.8147  0.3769  0.1043
 1395SOL    HW2 4475   5.501   1.872   0.230  0.0131  0.0479  0.8610
 1396SOL     OW 4476   1.489   5.060   2.779  0.4975  0.3281  0.2508
 1396SOL    HW1 4477   1.461   4.967   2.756 -0.9898 -0.2204  3.7043
 1396SOL    HW2 4478   1.453   5.123   2.711 -3.6490 -1.0914  0.8448
 1397SOL     OW 4479   1.828   2.216   2.106  0.1943 -0.6071 -0.1708
 1397SOL    HW1 4480   1.911   2.209   2.163  0.0288  1.6053  0.4425
 1397SOL    HW2 4481   1.774   2.295   2.135 -0.9260 -0.5766 -2.1319
 1398SOL     OW 4482   5.784   1.949   1.675 -0.0669 -0.3416 -0.0973
 1398SOL    HW1 4483   5.753   1.969   1.768  0.2730  0.0219 -0.0632
 1398SOL    HW2 4484   5.883   1.963   1.668  0.1306 -1.5888 -0.1812
 1399SOL     OW 4485   3.967   1.928   0.706  0.0970  0.0003 -0.0121
 1399SOL    HW1 4486   3.966   2.024   0.677  1.4173  0.2771  0.7886
 1399SOL    HW2 4487   4.002   1.871   0.632  0.5431  0.3004 -0.0320
 1400SOL     OW 4488   3.641   5.392   1.449  0.2525 -0.0490  0.4078
 1400SOL    HW1 4489   3.644   5.370   1.351  0.9156 -0.4979  0.5169
 1400SOL    HW2 4490   3.630   5.490   1.461  0.3252  0.0270 -0.1208
 1401SOL     OW 4491   4.966   4.592   4.416 -0.0326  0.2743 -0.9876
 1401SOL    HW1 4492   4.919   4.504   4.425 -0.6629  0.6755 -0.2154
 1401SOL    HW2 4493   4.998   4.622   4.506 -0.7147  1.3110 -1.0781
 1402SOL     OW 4494   0.809   5.160   0.597  1.3170 -0.6133 -0.4683
 1402SOL    HW1 4495   0.814   5.090   0.668  0.2948  1.1650  1.4729
 1402SOL    HW2 4496   0.721   5.151   0.549  1.2423 -0.7474 -0.3106
 1403SOL     OW 4497   5.445   5.655   2.662  0.6175 -0.0818 -0.5715
 1403SOL    HW1 4498   5.358   5.637   2.708 -0.1822 -0.5482 -2.2168
 1403SOL    HW2 4499   5.466   5.753   2.667  0.0143  0.0276 -0.1518
 1404SOL     OW 4500   1.620   1.275   2.142  0.1973 -0.1652 -0.2840
 1404SOL    HW1 4501   1.560   1.219   2.085 -0.7371 -0.2479  0.7482
 1404SOL    HW2 4502   1.649   1.356   2.091  0.8975 -1.1409 -1.5090
 1405SOL     OW 4503   2.385   2.063   2.678  0.1318  0.1648 -0.6347
 1405SOL    HW1 4504   2.372   2.129   2.752  0.6894 -0.2969 -0.1174
 1405SOL    HW2 4505   2.304   2.005   2.671  0.3797 -0.2868  0.1253
 1406SOL     OW 4506   5.091   5.972   5.890 -0.0995  0.0361 -0.0577
 1406SOL    HW1 4507   5.025   5.995   5.962  1.2652  0.6919  1.0233
 1406SOL    HW2 4508   5.112   5.875   5.894 -1.9059 -0.4498 -1.2244
 1407SOL     OW 4509   3.641   2.881   4.980  0.3213 -0.2224  0.1976
 1407SOL    HW1 4510   3.583   2.803   5.005  0.8471 -0.2415  1.4218
 1407SOL    HW2 4511   3.689   2.914   5.061  2.5869 -0.6606 -0.8833
 1408SOL     OW 4512   5.234   3.301   2.698  0.4271  0.1791 -0.0936
 1408SOL    HW1 4513   5.230   3.378   2.761  1.6368  1.2479 -1.2705
 1408SOL    HW2 4514   5.158   3.306   2.633  0.3585  0.2358 -0.0091
 1409SOL     OW 4515   0.426   2.765   3.616 -0.0596 -0.2193 -0.3116
 1409SOL    HW1 4516   0.342   2.742   3.567  0.2004  1.3501 -1.6039
 1409SOL    HW2 4517   0.493   2.802   3.551  1.2755 -0.5264  0.8470
 1410SOL     OW 4518   2.024   1.584   5.870  0.3081  0.0929 -0.6864
 1410SOL    HW1 4519   2.026   1.520   5.793  0.2065  0.4668 -1.0014
 1410SOL    HW2 4520   2.076   1.666   5.847 -1.6565  1.2241 -1.2602
 1411SOL     OW 4521   0.942   2.838   5.119 -0.2941 -0.5740 -0.4406
 1411SOL    HW1 4522   0.895   2.918   5.157  0.2572 -0.6623  0.4824
 1411SOL    HW2 4523   0.882   2.790   5.056 -1.2137 -0.3357  0.2311
 1412SOL     OW 4524   5.273   2.240   2.477 -0.5121  0.3905 -0.2634
 1412SOL    HW1 4525   5.195   2.290   2.514 -0.1878  2.2823 -1.9491
 1412SOL    HW2 4526   5.311   2.290   2.399  1.9388 -0.8333  0.0303
 1413SOL     OW 4527   0.948   5.891   1.064  0.0203 -0.2922  0.6355
 1413SOL    HW1 4528   1.014   5.815   1.062 -1.1175 -1.3220  1.1733
 1413SOL    HW2 4529   0.884   5.881   0.988  0.9670  1.2050 -0.4278
 1414SOL     OW 4530   0.207   0.029   4.116 -0.3840  0.4461 -0.0636
 1414SOL    HW1 4531   0.238   0.071   4.031  0.9516 -1.1665 -0.4186
 1414SOL    HW2 4532   0.127  -0.028   4.097 -0.7898  0.9883 -0.0075
 1415SOL     OW 4533   0.255   4.330   3.365  0.0743 -0.0197 -0.0394
 1415SOL    HW1 4534   0.193   4.339   3.443  0.2679  1.0949 -0.0091
 1415SOL    HW2 4535   0.202   4.305   3.284 -0.1054 -1.3849  0.4582
 1416SOL     OW 4536   4.568   0.907   4.344 -0.2080 -0.1778  0.3236
 1416SOL    HW1 4537   4.653   0.959   4.346 -0.0663 -0.3630 -0.5157
 1416SOL    HW2 4538   4.496   0.962   4.301 -0.2281 -0.4262  0.0382
 1417SOL     OW 4539   5.032   3.228   1.401  0.0859 -0.0494 -0.6908
 1417SOL    HW1 4540   5.008   3.293   1.328  0.4547  0.9949  0.1004
 1417SOL    HW2 4541   5.019   3.271   1.490 -1.5353 -1.7044 -0.0620
 1418SOL     OW 4542   2.106   2.552   2.976  0.3907 -0.1692  0.1167
 1418SOL    HW1 4543   2.084   2.488   3.050 -4.0252 -0.4723 -1.1365
 1418SOL    HW2 4544   2.073   2.515   2.890 -0.4844  2.8366 -0.9796
 1419SOL     OW 4545   4.111   5.070   1.914  0.3304  0.4142 -0.1168
 1419SOL    HW1 4546   4.131   5.089   2.011  0.2286  0.3478 -0.0823
 1419SOL    HW2 4547   4.196   5.074   1.861  0.4412  0.1173  0.0313
 1420SOL     OW 4548   1.924   1.623   5.274  0.2126 -0.1594  0.2695
 1420SOL    HW1 4549   2.024   1.621   5.275  0.2144 -0.6086 -0.4304
 1420SOL    HW2 4550   1.893   1.718   5.278  0.6810  0.0293 -0.3942
 1421SOL     OW 4551   1.776   3.235   4.703  0.2895  0.2387 -0.2943
 1421SOL    HW1 4552   1.787   3.249   4.605  1.7985 -0.0110 -0.1967
 1421SOL    HW2 4553   1.851   3.281   4.752 -0.2145  0.0278  0.7040
 1422SOL     OW 4554   1.208   3.215   0.929 -0.1878 -0.2714  0.0743
 1422SOL    HW1 4555   1.246   3.190   1.018  0.6327 -1.6687 -0.6271
 1422SOL    HW2 4556   1.121   3.168   0.916 -0.6713  0.5139  0.4286
 1423SOL     OW 4557   2.179   4.951   5.023  0.1588 -0.8678  0.1654
 1423SOL    HW1 4558   2.133   4.958   4.935 -0.2190  1.6587  0.5082
 1423SOL    HW2 4559   2.277   4.939   5.008  0.1025 -0.4406 -0.5831
 1424SOL     OW 4560   4.705   5.148   1.245 -0.5640  0.4286  0.3379
 1424SOL    HW1 4561   4.652   5.063   1.246 -1.7980  1.1405 -0.5030
 1424SOL    HW2 4562   4.738   5.167   1.337  0.7079 -1.5162  0.3420
 1425SOL     OW 4563   4.140   3.495   5.532  0.2513  0.3261 -0.0526
 1425SOL    HW1 4564   4.140   3.486   5.631 -1.9503 -0.8354 -0.0938
 1425SOL    HW2 4565   4.065   3.555   5.504  0.9762  0.8066 -1.0188
 1426SOL     OW 4566   3.041   3.366   4.584  0.1928 -0.5216  0.0265
 1426SOL    HW1 4567   3.120   3.388   4.528 -0.1403 -0.6250 -0.4949
 1426SOL    HW2 4568   2.979   3.306   4.533  1.1227 -2.7919  1.4259
 1427SOL     OW 4569   5.734   2.295   5.246  0.1731 -0.4241 -0.2326
 1427SOL    HW1 4570   5.748   2.360   5.171 -0.4463 -0.2998 -0.2486
 1427SOL    HW2 4571   5.643   2.253   5.236 -0.5349  0.6788  1.2556
 1428SOL     OW 4572   2.360   5.264   5.362 -0.1711  0.3661  0.1099
 1428SOL    HW1 4573   2.342   5.352   5.406  0.4657  1.2570 -1.3573
 1428SOL    HW2 4574   2.352   5.273   5.263  0.6369 -1.0481 -0.1197
 1429SOL     OW 4575   1.213   0.418   0.985  0.3999 -0.5056 -0.2713
 1429SOL    HW1 4576   1.191   0.429   0.888 -1.8048  0.7135  0.2967
 1429SOL    HW2 4577   1.187   0.326   1.014 -1.0622 -0.1461 -0.3637
 1430SOL     OW 4578   3.590   1.984   5.619  0.2015 -0.0294  0.3630
 1430SOL    HW1 4579   3.492   1.987   5.601 -0.3132  1.1753  2.8659
 1430SOL    HW2 4580   3.608   1.913   5.687  1.3852 -1.4637 -1.3545
 1431SOL     OW 4581   5.937   0.192   2.047  0.2951 -0.1604  0.3659
 1431SOL    HW1 4582   5.844   0.227   2.033  0.1515 -0.9678 -0.9111
 1431SOL    HW2 4583   5.977   0.167   1.958  1.0478 -1.5374  1.0526
 1432SOL     OW 4584   5.636   0.780   4.913 -0.2086 -0.3470  0.3007
 1432SOL    HW1 4585   5.671   0.696   4.873 -0.7457  0.0422 -1.0483
 1432SOL    HW2 4586   5.536   0.778   4.915 -0.2912  0.7648 -0.9791
 1433SOL     OW 4587   3.038   5.646   0.194 -0.2777  0.4532 -0.5382
 1433SOL    HW1 4588   2.952   5.634   0.244  0.3118 -0.2708  0.3378
 1433SOL    HW2 4589   3.066   5.742   0.198  0.1506  0.2838  1.2290
 1434SOL     OW 4590   3.708   1.142   0.639 -0.0491  0.3557 -0.2019
 1434SOL    HW1 4591   3.710   1.055   0.689 -3.9716  0.0594 -0.2756
 1434SOL    HW2 4592   3.696   1.123   0.541  2.2560  1.0432 -0.6944
 1435SOL     OW 4593   3.434   2.767   1.444 -0.1742  0.3093 -0.4157
 1435SOL    HW1 4594   3.412   2.847   1.499 -1.3323  0.4721 -1.0539
 1435SOL    HW2 4595   3.360   2.751   1.378  0.1327 -1.1550 -0.4550
 1436SOL     OW 4596   3.926   5.156   1.600 -0.0407 -0.5975  0.6218
 1436SOL    HW1 4597   3.992   5.082   1.611  0.1235 -0.2538  2.1640
 1436SOL    HW2 4598   3.923   5.211   1.683 -2.0740 -0.4345  0.4956
 1437SOL     OW 4599   3.142   5.909   5.837  0.4752 -0.3656  0.0820
 1437SOL    HW1 4600   3.076   5.876   5.769 -0.7294  2.8649 -0.4966
 1437SOL    HW2 4601   3.102   5.986   5.887  2.7982 -0.1627  1.7551
 1438SOL     OW 4602   5.876   3.592   3.858  0.2771  0.3418  0.2358
 1438SOL    HW1 4603   5.887   3.650   3.939  0.8185 -0.7858  0.9962
 1438SOL    HW2 4604   5.781   3.596   3.827 -0.0980  0.2670  1.3458
 1439SOL     OW 4605   3.618   5.218   1.939  0.0481 -0.8939 -0.0937
 1439SOL    HW1 4606   3.606   5.242   1.843  0.3852 -4.6746 -1.2223
 1439SOL    HW2 4607   3.533   5.235   1.988 -0.6607 -0.4609 -1.4240
 1440SOL     OW 4608   3.509   0.747   1.419  0.1547 -0.2793  0.5294
 1440SOL    HW1 4609   3.569   0.820   1.453 -0.2181  1.2289 -1.8378
 1440SOL    HW2 4610   3.566   0.671   1.386  0.6959  0.3804 -0.0763
 1441SOL     OW 4611   2.308   1.898   1.597  0.8268  0.1421  0.1978
 1441SOL    HW1 4612   2.337   1.802   1.596  0.1903 -0.0524  0.0729
 1441SOL    HW2 4613   2.318   1.935   1.689  1.3853  0.0515  0.1742
 1442SOL     OW 4614   5.797   0.034   5.461  0.0599  0.4310  0.4610
 1442SOL    HW1 4615   5.803   0.128   5.495  1.1434  0.6006 -0.1618
 1442SOL    HW2 4616   5.760  -0.025   5.533  0.4007  1.1431  1.2373
 1443SOL     OW 4617   2.769   1.404   2.819 -0.5790  0.2732  0.5942
 1443SOL    HW1 4618   2.724   1.478   2.768 -0.8694 -1.1027 -1.2637
 1443SOL    HW2 4619   2.751   1.416   2.917 -2.2487  1.5839  0.1888
 1444SOL     OW 4620   5.667   1.232   5.092 -0.2695 -0.3023 -0.1249
 1444SOL    HW1 4621   5.570   1.221   5.115 -0.2407 -0.5237 -0.1144
 1444SOL    HW2 4622   5.707   1.301   5.153 -1.0606  1.8087 -1.8388
 1445SOL     OW 4623   3.725   3.081   2.388  0.3746  0.0608  0.5341
 1445SOL    HW1 4624   3.808   3.127   2.354 -0.0963 -0.1709 -1.0371
 1445SOL    HW2 4625   3.682   3.138   2.458  1.7710  0.2416  1.2888
 1446SOL     OW 4626   1.614   5.743   1.666 -0.1717  0.0721 -0.3483
 1446SOL    HW1 4627   1.674   5.806   1.616  0.2582 -0.9781 -1.1734
 1446SOL    HW2 4628   1.662   5.709   1.747  0.2756 -0.5918 -0.8852
 1447SOL     OW 4629   3.202   5.394   5.694  0.6954  0.0473  0.3616
 1447SOL    HW1 4630   3.170   5.470   5.637 -0.8787 -1.0880 -0.3548
 1447SOL    HW2 4631   3.168   5.308   5.656  1.1325 -0.8932  2.0207
 1448SOL     OW 4632   0.173   4.327   2.075  0.6624  0.6213  0.2947
 1448SOL    HW1 4633   0.108   4.275   2.019 -0.1990  0.4258  1.4370
 1448SOL    HW2 4634   0.265   4.314   2.040  0.1783  0.2685 -0.8922
 1449SOL     OW 4635   5.828   5.873   0.496 -0.3413 -0.0886  0.0644
 1449SOL    HW1 4636   5.762   5.799   0.505  0.7227 -1.0723  0.1423
 1449SOL    HW2 4637   5.921   5.835   0.499  0.2394  1.2666  0.2329
 1450SOL     OW 4638   1.511   5.620   1.454 -1.2648  0.2066  0.3809
 1450SOL    HW1 4639   1.547   5.673   1.531 -0.7962  0.9410 -0.3290
 1450SOL    HW2 4640   1.586   5.579   1.403 -1.5459  0.0519  0.0854
 1451SOL     OW 4641   1.361   2.649   2.264 -0.3578  0.0828  0.1879
 1451SOL    HW1 4642   1.419   2.690   2.334 -0.4489 -1.0913  0.9733
 1451SOL    HW2 4643   1.395   2.675   2.173  1.9867 -1.2750  0.5816
 1452SOL     OW 4644   3.392   1.075   0.491 -0.1009 -0.7647 -0.1869
 1452SOL    HW1 4645   3.473   1.066   0.434 -0.8140 -0.4052 -1.2878
 1452SOL    HW2 4646   3.335   1.150   0.458 -1.3940 -1.6548 -0.0805
 1453SOL     OW 4647   0.600   2.109   2.054  0.4140 -0.0584 -0.5074
 1453SOL    HW1 4648   0.691   2.136   2.022  1.1184 -1.3594  0.3021
 1453SOL    HW2 4649   0.566   2.033   1.999 -0.5999  0.9892 -1.3757
 1454SOL     OW 4650   5.513   0.748   3.984  0.1956 -0.4778  0.1588
 1454SOL    HW1 4651   5.501   0.841   4.019 -1.5610 -1.1962  1.6486
 1454SOL    HW2 4652   5.493   0.746   3.886  0.3772  0.7177  0.0810
 1455SOL     OW 4653   3.671   0.538   1.370  0.3429 -0.0123  0.1972
 1455SOL    HW1 4654   3.705   0.556   1.277  1.4332  0.7366  0.7162
 1455SOL    HW2 4655   3.735   0.478   1.418 -0.1538 -0.2967  0.5087
 1456SOL     OW 4656   5.739   2.037   0.333 -0.2779 -0.7101  0.1057
 1456SOL    HW1 4657   5.803   1.960   0.330 -0.1260 -0.5560 -1.4390
 1456SOL    HW2 4658   5.659   2.012   0.387  0.2202 -1.5892  0.4527
 1457SOL     OW 4659   0.967   4.036   2.648 -0.4919  0.1809 -0.1493
 1457SOL    HW1 4660   1.025   4.038   2.567  0.8728 -0.5164  0.7741
 1457SOL    HW2 4661   0.937   3.942   2.665  0.4659  0.0606  0.9802
 1458SOL     OW 4662   2.733   2.026   0.515 -0.3615 -0.3842  0.7542
 1458SOL    HW1 4663   2.662   1.955   0.505  0.5987 -1.5563  1.8552
 1458SOL    HW2 4664   2.692   2.116   0.505 -2.0408 -1.0329  1.4779
 1459SOL     OW 4665   0.382   2.675   5.084  0.3164  0.0258 -0.2003
 1459SOL    HW1 4666   0.437   2.677   5.168 -2.1399 -0.4845  1.5383
 1459SOL    HW2 4667   0.303   2.736   5.094  0.4628  0.6982 -2.5708
 1460SOL     OW 4668   3.981   2.458   0.906  0.3261 -0.0437 -0.8016
 1460SOL    HW1 4669   3.944   2.365   0.911  0.9744 -0.2573  1.3230
 1460SOL    HW2 4670   3.906   2.523   0.895 -0.2853 -0.7288 -0.7425
 1461SOL     OW 4671   4.426   1.913   1.742 -0.7173 -0.0285  0.2668
 1461SOL    HW1 4672   4.464   1.932   1.651 -0.4984  1.3478  0.6115
 1461SOL    HW2 4673   4.406   1.816   1.750 -0.1223 -0.2876 -1.0187
 1462SOL     OW 4674   0.009   3.401   5.800 -0.7068  0.2942 -0.2704
 1462SOL    HW1 4675  -0.050   3.322   5.815 -0.0238 -0.2625 -0.4844
 1462SOL    HW2 4676   0.079   3.378   5.732  1.1368  0.2103  1.5777
 1463SOL     OW 4677   5.827   3.242   1.534 -0.0553 -0.1260  0.6258
 1463SOL    HW1 4678   5.755   3.308   1.513 -0.2061 -0.8791 -1.4421
 1463SOL    HW2 4679   5.916   3.288   1.533 -0.2925  0.3319  0.6803
 1464SOL     OW 4680   3.377   2.457   4.702  0.1499  0.5482  0.0500
 1464SOL    HW1 4681   3.305   2.510   4.659  0.1467 -0.4609 -1.2535
 1464SOL    HW2 4682   3.460   2.461   4.646  1.0857  1.5731  1.4470
 1465SOL     OW 4683   4.876   0.545   2.946 -0.2999 -0.0673  0.6548
 1465SOL    HW1 4684   4.795   0.486   2.942 -0.6809  0.4659  0.4095
 1465SOL    HW2 4685   4.959   0.489   2.938 -0.6899 -0.4507 -1.1017
 1466SOL     OW 4686   4.435   0.557   2.823  0.1767  0.3869  0.0118
 1466SOL    HW1 4687   4.378   0.553   2.741 -0.8582  0.0523  0.7177
 1466SOL    HW2 4688   4.507   0.489   2.818  2.2375  2.5418 -2.0892
 1467SOL     OW 4689   2.295   4.895   0.973  0.1232  0.2052 -0.1125
 1467SOL    HW1 4690   2.301   4.898   0.873 -0.9908  0.0424 -0.1923
 1467SOL    HW2 4691   2.377   4.938   1.012  0.5405  0.3256 -1.0871
 1468SOL     OW 4692   5.406   1.198   5.124  0.6031 -0.2336 -0.3141
 1468SOL    HW1 4693   5.339   1.260   5.082 -0.7588 -1.4159  0.0307
 1468SOL    HW2 4694   5.370   1.163   5.210  1.9350 -0.4577  0.1824
 1469SOL     OW 4695   3.460   0.667   2.538 -0.4357  0.1987  0.1673
 1469SOL    HW1 4696   3.470   0.588   2.599 -2.7026 -0.0150  0.3347
 1469SOL    HW2 4697   3.535   0.731   2.554 -0.2967 -0.4325  2.2882
 1470SOL     OW 4698   4.859   2.450   0.545  0.1734 -0.1911 -0.1990
 1470SOL    HW1 4699   4.780   2.457   0.485  0.5247  0.5961 -0.5744
 1470SOL    HW2 4700   4.845   2.507   0.626  1.1544  1.5362 -1.1780
 1471SOL     OW 4701   4.559   1.839   2.668  0.4022  0.3292  0.4167
 1471SOL    HW1 4702   4.480   1.854   2.609  1.4442  0.3268 -1.0466
 1471SOL    HW2 4703   4.639   1.885   2.629  1.5933 -1.3644  0.7306
 1472SOL     OW 4704   4.131   5.705   4.075 -0.0984 -0.6671  0.3043
 1472SOL    HW1 4705   4.071   5.758   4.016 -0.4383 -0.1712  1.0687
 1472SOL    HW2 4706   4.131   5.746   4.167  1.1955 -0.8135  0.3853
 1473SOL     OW 4707   1.951   4.746   4.495  0.7067  0.2390 -0.0696
 1473SOL    HW1 4708   1.872   4.803   4.470  0.0075 -0.5963  0.1917
 1473SOL    HW2 4709   1.922   4.651   4.505  1.6945 -0.0327  0.3447
 1474SOL     OW 4710   3.521   0.034   5.377  0.1548 -0.0047  0.2843
 1474SOL    HW1 4711   3.481  -0.036   5.435 -1.0094  0.2784 -0.1418
 1474SOL    HW2 4712   3.545   0.114   5.432  0.8711 -0.4743  0.6654
 1475SOL     OW 4713   2.796   0.422   0.355 -0.3576  0.2205  0.1623
 1475SOL    HW1 4714   2.701   0.445   0.332 -0.9371 -2.7577 -0.8402
 1475SOL    HW2 4715   2.814   0.448   0.450 -2.0840  1.0557  0.3048
 1476SOL     OW 4716   1.400   0.902   2.270 -0.2697 -0.0258 -0.2142
 1476SOL    HW1 4717   1.366   0.879   2.178  0.3933  2.7162 -1.2208
 1476SOL    HW2 4718   1.332   0.958   2.317  0.7641  1.3773 -0.3524
 1477SOL     OW 4719   2.929   1.860   0.583  0.4689 -0.4829  0.1306
 1477SOL    HW1 4720   3.009   1.920   0.578  0.7335 -0.6692  1.7434
 1477SOL    HW2 4721   2.848   1.910   0.555  0.8516  0.3042  0.4156
 1478SOL     OW 4722   2.287   3.647   5.776 -0.2732 -0.3145 -0.1531
 1478SOL    HW1 4723   2.289   3.576   5.847 -1.0562  0.7424  0.9757
 1478SOL    HW2 4724   2.372   3.645   5.725 -0.1057 -1.7809  0.1396
 1479SOL     OW 4725   0.105   3.076   2.088 -0.0009  0.5125  0.9921
 1479SOL    HW1 4726   0.070   2.995   2.041 -0.5849  0.1213  2.0878
 1479SOL    HW2 4727   0.085   3.157   2.032 -1.2585  0.1282  0.8538
 1480SOL     OW 4728   5.808   1.361   4.815  0.4394  0.0131 -0.0744
 1480SOL    HW1 4729   5.856   1.323   4.736  0.0117  2.1434 -1.4306
 1480SOL    HW2 4730   5.824   1.302   4.894  1.6738 -1.6764 -1.4902
 1481SOL     OW 4731   5.047   1.676   1.671 -0.0158  0.3036  0.3298
 1481SOL    HW1 4732   5.013   1.712   1.758 -2.3406 -0.5521 -0.1690
 1481SOL    HW2 4733   5.010   1.729   1.596  1.8517  0.9334 -0.2167
 1482SOL     OW 4734   0.922   1.663   1.841 -0.3100 -0.3578  0.1410
 1482SOL    HW1 4735   0.995   1.728   1.817 -0.5594 -1.4304 -4.4361
 1482SOL    HW2 4736   0.956   1.570   1.833 -1.9989 -0.8816 -1.8357
 1483SOL     OW 4737   0.377   1.841   2.467  0.9694 -0.5108  0.0096
 1483SOL    HW1 4738   0.449   1.777   2.493 -0.0989 -2.0045 -0.5683
 1483SOL    HW2 4739   0.415   1.909   2.404  2.0612 -0.7301  0.4019
 1484SOL     OW 4740   3.711   0.225   5.030 -0.2109  0.4140 -0.2839
 1484SOL    HW1 4741   3.745   0.131   5.025 -0.7659  0.1659  0.3680
 1484SOL    HW2 4742   3.678   0.254   4.940 -1.5496 -0.6108 -0.1508
 1485SOL     OW 4743   2.009   1.353   3.654  0.0504 -0.7592  0.4757
 1485SOL    HW1 4744   2.091   1.301   3.679 -1.1962 -2.5430  1.0858
 1485SOL    HW2 4745   1.954   1.299   3.591 -0.5863  0.4797 -0.0540
 1486SOL     OW 4746   2.486   1.149   4.159 -0.2518 -0.0327 -0.3543
 1486SOL    HW1 4747   2.506   1.061   4.116 -1.2391 -0.4339 -0.0064
 1486SOL    HW2 4748   2.419   1.199   4.105  1.4955  1.2621 -1.4484
 1487SOL     OW 4749   2.619   5.803   4.264  0.3246 -0.0272  0.3480
 1487SOL    HW1 4750   2.679   5.850   4.328 -1.0649 -0.4459  2.0178
 1487SOL    HW2 4751   2.632   5.841   4.172  2.4495  0.4942  0.8029
 1488SOL     OW 4752   4.113   3.957   3.149  0.0695  0.1030 -0.3808
 1488SOL    HW1 4753   4.119   3.986   3.245 -0.0780  0.4672 -0.4798
 1488SOL    HW2 4754   4.193   3.993   3.099  0.5424 -0.7247 -0.2305
 1489SOL     OW 4755   0.821   3.447   4.001  0.1457  0.7120 -0.3435
 1489SOL    HW1 4756   0.743   3.385   4.004  0.4884  0.2799 -0.3776
 1489SOL    HW2 4757   0.802   3.526   4.060 -0.4668  0.7924 -0.6389
 1490SOL     OW 4758   2.515   3.282   5.438  0.3071  0.2148 -0.1507
 1490SOL    HW1 4759   2.541   3.263   5.343 -0.9790  0.2737 -0.5318
 1490SOL    HW2 4760   2.437   3.344   5.439 -0.2402 -0.4668  0.9268
 1491SOL     OW 4761   4.477   3.595   1.355 -0.4918  0.0219 -0.3513
 1491SOL    HW1 4762   4.463   3.498   1.336 -1.2831  0.5448 -2.8986
 1491SOL    HW2 4763   4.388   3.641   1.362 -0.2146  0.2777  3.1356
 1492SOL     OW 4764   5.192   1.719   0.410 -0.3006  0.0644  0.0499
 1492SOL    HW1 4765   5.157   1.626   0.398 -1.4502  0.5076 -0.1135
 1492SOL    HW2 4766   5.288   1.722   0.382  0.3644 -1.5326  1.9052
 1493SOL     OW 4767   1.580   1.924   4.682  0.3736  0.8702 -0.0132
 1493SOL    HW1 4768   1.563   1.887   4.773  0.7029  1.3804  0.2584
 1493SOL    HW2 4769   1.619   1.852   4.624  0.3495  0.5973  0.3044
 1494SOL     OW 4770   0.760   5.170   5.340  0.1724  0.3685 -0.2531
 1494SOL    HW1 4771   0.801   5.203   5.425  2.6906 -2.3273 -0.2353
 1494SOL    HW2 4772   0.831   5.127   5.284 -1.8307  0.0310 -2.7253
 1495SOL     OW 4773   5.030   0.543   2.005 -0.4842  0.4783 -0.1703
 1495SOL    HW1 4774   5.114   0.494   2.025 -0.2138  1.4394  1.2412
 1495SOL    HW2 4775   5.036   0.586   1.915 -0.5252 -1.5657 -1.2061
 1496SOL     OW 4776   0.241   4.629   5.226 -0.0184 -0.1989  0.3384
 1496SOL    HW1 4777   0.302   4.565   5.178  0.0406  1.7266 -2.3818
 1496SOL    HW2 4778   0.159   4.580   5.256 -0.6211 -1.3615 -2.8639
 1497SOL     OW 4779   0.894   1.974   4.916 -0.3505 -0.1593  0.0510
 1497SOL    HW1 4780   0.810   1.997   4.867 -1.0413  1.7675  1.9724
 1497SOL    HW2 4781   0.872   1.936   5.006  0.8295  0.3248  0.5721
 1498SOL     OW 4782   2.674   3.957   3.225 -0.2100  0.2638 -0.1006
 1498SOL    HW1 4783   2.671   3.967   3.126 -0.1467  2.2102  0.0600
 1498SOL    HW2 4784   2.597   4.005   3.267  1.1119  1.6505  0.8865
 1499SOL     OW 4785   1.682   4.484   4.621  0.1590 -0.0502 -0.6670
 1499SOL    HW1 4786   1.661   4.400   4.671 -0.3726  0.6027  0.2327
 1499SOL    HW2 4787   1.600   4.514   4.572 -0.5194  1.4269  1.2524
 1500SOL     OW 4788   2.653   3.112   0.268  0.0005 -0.0798  0.1655
 1500SOL    HW1 4789   2.644   3.102   0.168  0.4090  1.0688  0.0063
 1500SOL    HW2 4790   2.700   3.197   0.289  0.3622 -0.5536  1.3425
 1501SOL     OW 4791   2.583   0.756   2.428  0.0232 -0.3491 -0.1850
 1501SOL    HW1 4792   2.485   0.776   2.424  0.3313  1.1379 -0.7055
 1501SOL    HW2 4793   2.616   0.765   2.522 -0.5558 -2.0795  0.2221
 1502SOL     OW 4794   1.002   2.257   0.951 -0.6185  0.2349  0.4060
 1502SOL    HW1 4795   0.920   2.239   0.896 -0.9229  0.6268  0.7231
 1502SOL    HW2 4796   1.080   2.210   0.910 -0.4411  1.9592 -1.4227
 1503SOL     OW 4797   4.320   5.727   3.839 -0.1544 -0.3500 -0.3656
 1503SOL    HW1 4798   4.343   5.823   3.822 -0.7130 -0.3339 -1.0326
 1503SOL    HW2 4799   4.252   5.722   3.912  1.9802 -0.4052  1.7532
 1504SOL     OW 4800   4.399   3.447   3.466 -0.6589 -0.9452 -0.2670
 1504SOL    HW1 4801   4.470   3.397   3.515 -0.1234  1.1136  1.2116
 1504SOL    HW2 4802   4.309   3.415   3.495 -0.3795  0.4727  2.5704
 1505SOL     OW 4803   3.851   2.640   2.266 -0.3919  0.0863 -0.2553
 1505SOL    HW1 4804   3.931   2.583   2.252 -1.1996 -1.0611 -0.3808
 1505SOL    HW2 4805   3.773   2.601   2.217 -1.5715 -0.0611  1.6465
 1506SOL     OW 4806   5.449   4.978   3.134  0.2274  0.1702  0.0462
 1506SOL    HW1 4807   5.372   4.992   3.196  0.4480  0.6502  0.2155
 1506SOL    HW2 4808   5.496   4.893   3.158  0.1038  0.1771  0.3174
 1507SOL     OW 4809   1.596   0.047   4.348  0.0686  0.3326  0.2620
 1507SOL    HW1 4810   1.508   0.007   4.322 -0.5799  1.0835  1.2205
 1507SOL    HW2 4811   1.649   0.067   4.265 -0.7392  0.0557 -0.3409
 1508SOL     OW 4812   3.636   3.239   4.341 -0.3706 -0.3931 -0.4537
 1508SOL    HW1 4813   3.538   3.253   4.354 -0.3397 -1.0586  0.6465
 1508SOL    HW2 4814   3.679   3.326   4.316 -1.1126  0.1018 -0.0430
 1509SOL     OW 4815   1.981   1.227   3.086 -0.2100  0.2948  0.4953
 1509SOL    HW1 4816   1.925   1.146   3.067  0.2137 -0.9720  3.9874
 1509SOL    HW2 4817   2.076   1.207   3.066 -0.3259  0.7000 -0.5618
 1510SOL     OW 4818   0.740   5.791   0.079  0.2975 -0.0878  0.0079
 1510SOL    HW1 4819   0.778   5.726   0.013  1.3449 -0.7910  1.2420
 1510SOL    HW2 4820   0.642   5.774   0.091 -0.1359  0.7203 -2.0761
 1511SOL     OW 4821   3.174   1.286   3.687 -0.5602 -0.2289  0.0054
 1511SOL    HW1 4822   3.194   1.379   3.718 -2.2919  1.0109 -2.2972
 1511SOL    HW2 4823   3.078   1.264   3.708  0.1981 -2.1557  1.8661
 1512SOL     OW 4824   1.047   0.286   2.166  0.3707 -0.3080  0.0771
 1512SOL    HW1 4825   1.077   0.191   2.181  0.7431 -0.1962  0.0521
 1512SOL    HW2 4826   1.123   0.339   2.129  0.2546  0.0759  0.3864
 1513SOL     OW 4827   4.230   1.103   3.410 -0.1009  0.8324 -0.4016
 1513SOL    HW1 4828   4.214   1.087   3.507 -0.1306  0.3212 -0.4882
 1513SOL    HW2 4829   4.147   1.085   3.358  0.2063  0.0258 -0.6376
 1514SOL     OW 4830   1.983   4.523   5.886 -0.0276 -0.0739  0.6339
 1514SOL    HW1 4831   2.042   4.533   5.966 -0.6545 -0.2497  1.1230
 1514SOL    HW2 4832   2.010   4.442   5.834 -2.1610 -2.4305  2.8987
 1515SOL     OW 4833   4.215   4.587   5.813  0.0424  0.1953  0.0407
 1515SOL    HW1 4834   4.220   4.668   5.872 -1.5241  0.1694  0.2584
 1515SOL    HW2 4835   4.273   4.601   5.733  1.4794  0.6196  1.1091
 1516SOL     OW 4836   5.692   3.301   4.182 -0.3165  0.4700  0.2329
 1516SOL    HW1 4837   5.764   3.310   4.114  0.9957  0.4751  1.5647
 1516SOL    HW2 4838   5.604   3.287   4.136  0.3754  1.3549 -1.4504
 1517SOL     OW 4839   4.045   3.873   5.710  0.7049  0.3801  0.1753
 1517SOL    HW1 4840   4.128   3.877   5.765  0.1219 -0.9610  1.2182
 1517SOL    HW2 4841   4.024   3.777   5.688 -1.7186  0.4415  1.8051
 1518SOL     OW 4842   4.034   1.263   0.926 -0.5930  0.6410 -0.2344
 1518SOL    HW1 4843   3.986   1.350   0.921  1.9126  2.0938 -1.0552
 1518SOL    HW2 4844   4.073   1.241   0.836 -1.3394 -1.4793 -0.1064
 1519SOL     OW 4845   0.153   1.873   3.834 -0.1228 -0.2253 -0.2256
 1519SOL    HW1 4846   0.215   1.951   3.828 -0.7845  0.2374 -1.1750
 1519SOL    HW2 4847   0.205   1.789   3.818  0.6771 -0.0388  1.2453
 1520SOL     OW 4848   0.857   4.859   3.300  0.1815 -0.0073  0.0952
 1520SOL    HW1 4849   0.869   4.955   3.278 -1.2256 -0.4093 -2.9881
 1520SOL    HW2 4850   0.773   4.847   3.352 -1.0329  0.2913 -1.6902
 1521SOL     OW 4851   2.968   0.428   1.717  0.4187 -0.2601 -0.5825
 1521SOL    HW1 4852   2.910   0.428   1.799  1.1272  0.7006 -0.0656
 1521SOL    HW2 4853   2.911   0.423   1.636 -0.4773  1.7656 -0.1269
 1522SOL     OW 4854   3.682   4.740   0.984 -0.5178 -0.0649  0.4217
 1522SOL    HW1 4855   3.615   4.781   0.922  0.4972 -0.5155 -1.0201
 1522SOL    HW2 4856   3.770   4.732   0.938  0.6023  0.6137  2.3121
 1523SOL     OW 4857   4.109   4.495   2.967  0.0671  0.0148 -0.1823
 1523SOL    HW1 4858   4.075   4.587   2.984  0.2683  0.1319 -0.4254
 1523SOL    HW2 4859   4.192   4.499   2.912  0.8445 -0.2290  0.9289
 1524SOL     OW 4860   0.069   4.584   5.809 -0.5640  0.0394  0.3367
 1524SOL    HW1 4861   0.124   4.518   5.861 -0.3955 -1.5369 -1.7073
 1524SOL    HW2 4862   0.118   4.671   5.804  0.1364 -0.2726  1.4518
 1525SOL     OW 4863   1.529   3.798   5.833  0.2499 -0.0690 -0.1502
 1525SOL    HW1 4864   1.477   3.739   5.894 -0.7141 -1.1084 -1.8856
 1525SOL    HW2 4865   1.499   3.893   5.844 -1.1356 -0.4784 -0.2170
 1526SOL     OW 4866   5.638   3.737   4.788 -0.2845 -0.0817  0.0354
 1526SOL    HW1 4867   5.607   3.642   4.778 -0.2084 -0.4663  2.7046
 1526SOL    HW2 4868   5.646   3.759   4.885 -0.8478  2.8748 -0.4992
 1527SOL     OW 4869   3.323   2.599   3.144  0.2817  0.0236  0.0522
 1527SOL    HW1 4870   3.356   2.558   3.229  0.0030  1.1526  0.7268
 1527SOL    HW2 4871   3.398   2.601   3.077  0.9664  0.5779  0.8233
 1528SOL     OW 4872   3.644   1.705   0.871  0.0309  0.2485 -0.2613
 1528SOL    HW1 4873   3.583   1.770   0.916  3.0673  0.7680  3.6772
 1528SOL    HW2 4874   3.614   1.611   0.892 -0.7463  0.4388 -0.4865
 1529SOL     OW 4875   4.113   3.502   5.801 -0.2679  0.5162  0.2144
 1529SOL    HW1 4876   4.066   3.414   5.795  0.3497  0.0587  1.6040
 1529SOL    HW2 4877   4.096   3.542   5.891 -1.2432  2.2505 -0.6842
 1530SOL     OW 4878   0.258   3.461   4.794 -0.2072 -0.1153 -0.1273
 1530SOL    HW1 4879   0.164   3.428   4.788 -0.1716 -0.1771 -0.3466
 1530SOL    HW2 4880   0.258   3.559   4.813 -0.3189  0.0452 -0.9517
 1531SOL     OW 4881   3.189   0.907   0.423  0.0620 -0.3642  0.5068
 1531SOL    HW1 4882   3.265   0.960   0.460 -1.2906  1.5733  0.6516
 1531SOL    HW2 4883   3.131   0.874   0.499 -0.0850 -0.5278  0.3253
 1532SOL     OW 4884   2.688   0.616   0.146 -0.7036  0.1770 -0.1203
 1532SOL    HW1 4885   2.743   0.684   0.193  0.0551 -0.6746  0.2592
 1532SOL    HW2 4886   2.619   0.580   0.209 -0.9730  0.4470 -0.2597
 1533SOL     OW 4887   4.087   0.083   2.665 -0.3321  0.3738 -0.1603
 1533SOL    HW1 4888   4.014   0.116   2.606  0.3270  0.4946 -0.9285
 1533SOL    HW2 4889   4.051   0.018   2.731 -0.9881 -0.1787 -1.0537
 1534SOL     OW 4890   1.826   1.516   0.577  0.2390 -0.7725 -0.6988
 1534SOL    HW1 4891   1.773   1.444   0.532 -1.2599  0.3711 -0.8569
 1534SOL    HW2 4892   1.773   1.601   0.576  0.8325 -0.3013  1.7815
 1535SOL     OW 4893   3.785   2.822   1.587  0.3463 -0.6211 -0.3277
 1535SOL    HW1 4894   3.870   2.860   1.621 -0.3522  0.3156  0.4303
 1535SOL    HW2 4895   3.709   2.882   1.612 -0.6073 -1.7293 -0.4642
 1536SOL     OW 4896   3.463   0.696   3.111 -0.1849  0.4854 -0.0842
 1536SOL    HW1 4897   3.540   0.647   3.150 -1.5451 -0.5305  1.4698
 1536SOL    HW2 4898   3.495   0.781   3.069  1.9017 -0.5019 -0.6284
 1537SOL     OW 4899   3.369   3.367   4.002 -0.5165  0.2254 -0.2864
 1537SOL    HW1 4900   3.443   3.428   4.031 -0.5367 -0.2489  0.7972
 1537SOL    HW2 4901   3.378   3.349   3.904  0.5505  0.5165 -0.2621
 1538SOL     OW 4902   3.801   1.550   1.588  0.3778  0.5991  0.3169
 1538SOL    HW1 4903   3.893   1.537   1.624  0.0353  2.5546  2.0963
 1538SOL    HW2 4904   3.804   1.617   1.513  0.4264  0.5379  0.2641
 1539SOL     OW 4905   1.181   1.037   3.086 -0.5316 -1.2225 -0.2830
 1539SOL    HW1 4906   1.273   1.022   3.123  0.0674  0.2713 -1.0876
 1539SOL    HW2 4907   1.132   1.103   3.143 -0.5698 -0.9272 -0.6526
 1540SOL     OW 4908   4.919   1.822   0.473 -0.7272  0.3348 -0.5549
 1540SOL    HW1 4909   4.915   1.723   0.485 -1.3543  0.2101 -1.6746
 1540SOL    HW2 4910   5.014   1.849   0.454 -0.5730 -0.0615 -0.3625
 1541SOL     OW 4911   5.049   5.890   2.695 -0.9220 -0.5875  0.2569
 1541SOL    HW1 4912   5.103   5.967   2.662  0.3621 -1.4994  0.1768
 1541SOL    HW2 4913   4.977   5.869   2.629 -1.2630  0.4959  0.2567
 1542SOL     OW 4914   1.356   3.566   1.885  0.2004 -0.1095 -0.2252
 1542SOL    HW1 4915   1.336   3.661   1.862  0.0124  0.0368  0.4927
 1542SOL    HW2 4916   1.324   3.506   1.812 -0.0861  0.3501 -0.4813
 1543SOL     OW 4917   3.845   2.400   1.806 -0.0371  0.2585  0.0737
 1543SOL    HW1 4918   3.857   2.418   1.708  0.7794  0.5048  0.2077
 1543SOL    HW2 4919   3.859   2.302   1.824 -0.0923  0.2289 -0.0435
 1544SOL     OW 4920   2.735   0.803   3.725  0.0331  0.3307  0.2843
 1544SOL    HW1 4921   2.698   0.714   3.698  0.3539  0.6585 -1.4009
 1544SOL    HW2 4922   2.665   0.873   3.715  0.4079  0.5966 -0.6843
 1545SOL     OW 4923   0.376   3.088   5.370  0.0258 -0.4949 -0.2702
 1545SOL    HW1 4924   0.423   3.109   5.456 -1.2904 -0.5732  0.4894
 1545SOL    HW2 4925   0.441   3.047   5.306  1.7624  2.1599 -0.3882
 1546SOL     OW 4926   3.440   1.043   0.830  0.3353 -0.4168 -0.3679
 1546SOL    HW1 4927   3.377   0.967   0.821 -0.1699 -0.1047  0.4443
 1546SOL    HW2 4928   3.527   1.020   0.785  0.3785 -1.6711  0.3149
 1547SOL     OW 4929  -0.027   0.832   0.632  0.3877 -0.2425  0.0228
 1547SOL    HW1 4930  -0.016   0.786   0.720 -0.3588 -0.8297 -0.1681
 1547SOL    HW2 4931   0.052   0.889   0.613  0.3976  0.1662  1.2321
 1548SOL     OW 4932   5.760   5.955   3.195 -0.2971 -0.2008 -0.0883
 1548SOL    HW1 4933   5.762   5.865   3.239  0.6430  0.0070  0.3407
 1548SOL    HW2 4934   5.666   5.985   3.184 -0.6324 -1.3685 -0.5160
 1549SOL     OW 4935   1.916   3.956   0.771  0.3446  0.4172 -0.1954
 1549SOL    HW1 4936   1.832   3.924   0.728 -0.7817  2.4611  0.3656
 1549SOL    HW2 4937   1.935   3.900   0.852 -0.2672 -0.3054 -0.5417
 1550SOL     OW 4938   0.603   4.380   1.645  0.5693  0.1831 -0.0172
 1550SOL    HW1 4939   0.541   4.446   1.686  2.3735  2.4123 -0.6615
 1550SOL    HW2 4940   0.697   4.412   1.655  1.3232 -0.7836 -2.9484
 1551SOL     OW 4941   3.240   1.231   1.777  0.7488  0.6563 -0.1035
 1551SOL    HW1 4942   3.243   1.292   1.856  2.2064 -0.1177  0.4798
 1551SOL    HW2 4943   3.297   1.151   1.794 -0.3251 -0.4142 -1.2424
 1552SOL     OW 4944   4.600   5.029   2.900  0.2070 -0.0059 -0.4698
 1552SOL    HW1 4945   4.608   5.110   2.841  0.1144  1.6666  1.6666
 1552SOL    HW2 4946   4.511   5.031   2.946  0.5334 -0.9110  0.2187
 1553SOL     OW 4947   0.394   2.877   5.652  0.5253  0.8667 -0.5094
 1553SOL    HW1 4948   0.348   2.792   5.679  0.2818  1.3788  0.7952
 1553SOL    HW2 4949   0.492   2.868   5.670  0.6739  0.4599 -1.4738
 1554SOL     OW 4950   3.109   5.311   1.102  0.0300 -0.4668 -0.5214
 1554SOL    HW1 4951   3.019   5.351   1.118 -0.5334 -1.2754 -1.5227
 1554SOL    HW2 4952   3.102   5.211   1.101  0.9630 -0.5459 -0.4586
 1555SOL     OW 4953   5.507   0.805   4.352 -0.5189  0.1928  0.2753
 1555SOL    HW1 4954   5.443   0.733   4.379  1.0333 -0.3887  2.6432
 1555SOL    HW2 4955   5.562   0.833   4.431  0.0247  2.8948 -0.9432
 1556SOL     OW 4956   5.247   4.566   2.696 -0.2523  0.0571 -0.1031
 1556SOL    HW1 4957   5.190   4.621   2.636 -0.3114 -0.3565 -0.4302
 1556SOL    HW2 4958   5.190   4.502   2.747 -0.1177 -0.1574 -0.2182
 1557SOL     OW 4959   2.784   0.473   3.561 -0.6247 -0.2604  0.2557
 1557SOL    HW1 4960   2.765   0.376   3.546  0.7070 -0.2988 -1.5043
 1557SOL    HW2 4961   2.876   0.483   3.599 -0.0659  0.3432 -1.1712
 1558SOL     OW 4962   0.482   0.733   1.641  0.3215 -0.0880 -0.4356
 1558SOL    HW1 4963   0.524   0.654   1.684  0.0693  1.2734  2.5588
 1558SOL    HW2 4964   0.553   0.797   1.611  0.4739 -0.5189 -1.0134
 1559SOL     OW 4965   2.389   4.490   1.942  0.3698 -0.2427 -0.2988
 1559SOL    HW1 4966   2.340   4.454   2.022  1.0072 -0.1343  0.1509
 1559SOL    HW2 4967   2.356   4.581   1.920 -0.1014 -0.4428 -0.4167
 1560SOL     OW 4968   0.892   4.823   5.408 -0.6238 -0.6385  0.1983
 1560SOL    HW1 4969   0.961   4.806   5.337 -0.0728  0.5208  0.4365
 1560SOL    HW2 4970   0.934   4.868   5.486 -1.3074 -1.5640  1.1275
 1561SOL     OW 4971   0.603   3.347   0.985  0.4027  0.8789 -0.1709
 1561SOL    HW1 4972   0.567   3.272   0.930  1.3033  0.0087  0.3820
 1561SOL    HW2 4973   0.699   3.363   0.960  0.2983  1.6711 -0.0934
 1562SOL     OW 4974   0.629   1.205   4.267 -0.0793  0.0344 -0.7126
 1562SOL    HW1 4975   0.639   1.300   4.297 -1.4437  0.4258 -1.4123
 1562SOL    HW2 4976   0.573   1.155   4.333 -0.3407  0.0317 -0.9342
 1563SOL     OW 4977   4.841   2.132   4.139 -0.5198 -0.6674 -0.2148
 1563SOL    HW1 4978   4.801   2.146   4.229  0.9238  0.5982  0.2508
 1563SOL    HW2 4979   4.848   2.219   4.091  2.4599 -0.6416  0.0882
 1564SOL     OW 4980   1.221   1.566   5.564 -0.6253  0.3319 -0.0622
 1564SOL    HW1 4981   1.283   1.487   5.566  0.7473  1.3482 -0.6318
 1564SOL    HW2 4982   1.267   1.643   5.520 -2.3451  1.1178 -0.5961
 1565SOL     OW 4983   2.115   5.645   2.755 -0.6275  0.1237  0.1654
 1565SOL    HW1 4984   2.086   5.563   2.804  1.2010 -0.7475 -0.1215
 1565SOL    HW2 4985   2.180   5.697   2.811 -0.4108  0.4301 -0.3607
 1566SOL     OW 4986   0.014   1.646   4.265 -0.6000 -0.1425  0.3643
 1566SOL    HW1 4987   0.081   1.715   4.237  0.2022  0.5024  3.5667
 1566SOL    HW2 4988  -0.061   1.691   4.313 -0.8369 -1.3586  1.1595
 1567SOL     OW 4989   4.965   3.582   0.139 -0.1290 -0.1018  0.5629
 1567SOL    HW1 4990   5.053   3.544   0.168 -0.3212  0.4658  1.9467
 1567SOL    HW2 4991   4.891   3.526   0.176 -0.3681 -0.0087  0.2301
 1568SOL     OW 4992   4.020   0.857   1.659 -0.0754 -0.0176  0.7247
 1568SOL    HW1 4993   4.058   0.853   1.567  0.6804 -0.8794  1.0611
 1568SOL    HW2 4994   3.974   0.945   1.672 -0.7003 -0.1118 -0.6597
 1569SOL     OW 4995   4.099   0.550   2.826 -0.3291 -0.1509 -0.0230
 1569SOL    HW1 4996   4.133   0.456   2.825  0.5286  0.1354 -1.3746
 1569SOL    HW2 4997   4.140   0.599   2.903  1.8554 -0.0282 -1.1849
 1570SOL     OW 4998   4.371   4.718   4.883  0.2082 -0.0648  0.3503
 1570SOL    HW1 4999   4.399   4.812   4.867 -0.6045  0.0650 -0.4426
 1570SOL    HW2 5000   4.369   4.668   4.796  0.7516 -0.8573  0.7757
 1571SOL     OW 5001   2.167   4.046   0.159  0.6683  0.6129 -0.3702
 1571SOL    HW1 5002   2.115   4.017   0.239 -1.0990  2.3426 -0.8248
 1571SOL    HW2 5003   2.194   3.966   0.106 -0.1951 -0.4172  0.6932
 1572SOL     OW 5004   4.612   5.277   2.767 -0.4866  0.4019 -0.1738
 1572SOL    HW1 5005   4.550   5.265   2.689 -0.5331 -1.2985  0.0948
 1572SOL    HW2 5006   4.701   5.309   2.734 -1.2942  2.3254 -0.6173
 1573SOL     OW 5007   0.885   3.886   1.548 -0.6224  0.2748  0.0978
 1573SOL    HW1 5008   0.927   3.953   1.609  0.4169  0.2777 -0.5746
 1573SOL    HW2 5009   0.815   3.834   1.597  0.3657  0.0901  1.3708
 1574SOL     OW 5010   2.597   0.197   2.871  0.1291  0.3662  0.7829
 1574SOL    HW1 5011   2.611   0.155   2.961  1.2922 -0.2940  0.3226
 1574SOL    HW2 5012   2.573   0.293   2.882 -3.3875 -0.5002  1.8956
 1575SOL     OW 5013   5.280   2.906   5.695 -0.0426 -0.3035  0.0133
 1575SOL    HW1 5014   5.182   2.888   5.692 -0.4767  1.6710  0.4416
 1575SOL    HW2 5015   5.326   2.856   5.622 -1.1070 -2.5153  0.7775
 1576SOL     OW 5016   5.789   1.873  -0.024 -0.5543  0.2981  0.1039
 1576SOL    HW1 5017   5.760   1.794   0.030 -0.0395  0.8263  1.1869
 1576SOL    HW2 5018   5.837   1.938   0.035  1.5802  0.1226 -1.3277
 1577SOL     OW 5019   1.486   2.079   0.290 -0.4708 -0.2669 -0.7593
 1577SOL    HW1 5020   1.460   2.172   0.315 -0.5635 -0.1296 -1.3385
 1577SOL    HW2 5021   1.540   2.081   0.205  2.8212 -0.3647  1.1448
 1578SOL     OW 5022   1.190   2.884   3.688  0.7609 -0.0610  0.0393
 1578SOL    HW1 5023   1.183   2.946   3.610  0.3158  0.3388  0.3941
 1578SOL    HW2 5024   1.259   2.918   3.752 -0.1881  0.6307  0.7266
 1579SOL     OW 5025   1.080   1.447   4.107  0.7012 -0.2289  0.4845
 1579SOL    HW1 5026   0.995   1.478   4.150  0.5145 -0.0992  0.0257
 1579SOL    HW2 5027   1.058   1.382   4.034  0.9725  0.1369  0.0779
 1580SOL     OW 5028   1.539   0.171   0.889 -0.1419 -0.1225 -0.0336
 1580SOL    HW1 5029   1.448   0.193   0.853 -1.1369 -1.6491  1.3955
 1580SOL    HW2 5030   1.562   0.076   0.866  1.8681  0.6994 -1.7956
 1581SOL     OW 5031   5.544   5.852   0.726 -0.0784 -0.3713  0.3014
 1581SOL    HW1 5032   5.572   5.804   0.643  1.4168  0.0278  0.5483
 1581SOL    HW2 5033   5.507   5.786   0.792 -0.1108 -0.8715 -0.2091
 1582SOL     OW 5034   2.689   4.858   5.554  0.1809 -0.0474  0.2157
 1582SOL    HW1 5035   2.647   4.783   5.503  0.8135 -0.0448 -0.3184
 1582SOL    HW2 5036   2.633   4.940   5.544  0.4025  0.0100 -0.6610
 1583SOL     OW 5037   4.473   3.795   0.180 -0.3753 -0.3197  0.2864
 1583SOL    HW1 5038   4.385   3.752   0.202  0.6946 -2.1951  1.2088
 1583SOL    HW2 5039   4.511   3.754   0.097  1.7177 -3.0275  2.4062
 1584SOL     OW 5040   2.308   3.130   2.817  0.0105  0.1028  0.0402
 1584SOL    HW1 5041   2.309   3.175   2.728 -0.1609  1.3353  0.6348
 1584SOL    HW2 5042   2.233   3.166   2.872 -0.9868 -1.9044  0.0866
 1585SOL     OW 5043   2.011   4.688   2.343  0.1343  0.3023 -0.1712
 1585SOL    HW1 5044   1.931   4.731   2.386 -0.2976  0.5416 -1.1781
 1585SOL    HW2 5045   2.029   4.599   2.386 -0.2730  0.5434  0.5016
 1586SOL     OW 5046   4.879   0.242   2.450 -0.2836 -0.4071 -0.2784
 1586SOL    HW1 5047   4.917   0.163   2.401  0.9440  0.7721 -1.3164
 1586SOL    HW2 5048   4.860   0.316   2.385 -1.0861  0.2859  0.7138
 1587SOL     OW 5049   5.633   0.811   5.551 -0.2043  0.4790  0.1354
 1587SOL    HW1 5050   5.724   0.781   5.580 -0.6343  0.2054  1.2316
 1587SOL    HW2 5051   5.565   0.780   5.617 -0.8086  2.8950  0.7222
 1588SOL     OW 5052   2.329   0.973   1.340 -0.2075 -0.2851 -0.4734
 1588SOL    HW1 5053   2.251   1.036   1.334 -0.1102  0.1059  1.5045
 1588SOL    HW2 5054   2.309   0.902   1.407  0.1211 -1.7752 -1.9036
 1589SOL     OW 5055   0.386   5.166   0.593 -0.2521  0.4139 -0.2082
 1589SOL    HW1 5056   0.465   5.196   0.540 -0.4211  1.7494  0.2493
 1589SOL    HW2 5057   0.417   5.110   0.670  0.2661  1.1154  0.0976
 1590SOL     OW 5058   5.826   3.189   4.564 -0.2808 -0.8995  0.2228
 1590SOL    HW1 5059   5.884   3.269   4.549 -1.8026  0.3254  0.5941
 1590SOL    HW2 5060   5.762   3.179   4.488 -0.6983 -1.2271  0.6080
 1591SOL     OW 5061   3.653   3.128   5.926 -0.4819  0.3838  0.1240
 1591SOL    HW1 5062   3.714   3.071   5.871 -0.0025  0.5265  0.5023
 1591SOL    HW2 5063   3.672   3.113   6.023  0.1273  1.7024  0.2233
 1592SOL     OW 5064   5.823   2.730   0.654  0.2716  0.2317 -0.2215
 1592SOL    HW1 5065   5.740   2.785   0.664  0.5028  0.6131 -0.3478
 1592SOL    HW2 5066   5.845   2.720   0.557  0.0968 -0.2948 -0.2077
 1593SOL     OW 5067   0.364   3.368   2.035  0.1292  0.5140 -0.0101
 1593SOL    HW1 5068   0.387   3.463   2.012  0.2629  0.7724  1.1457
 1593SOL    HW2 5069   0.344   3.361   2.133 -3.2284  0.0302 -0.6031
 1594SOL     OW 5070   1.950   3.992   0.314 -0.3532 -0.7010 -0.5069
 1594SOL    HW1 5071   2.003   3.991   0.399 -1.4497 -0.3356  0.2065
 1594SOL    HW2 5072   1.864   3.943   0.328 -1.3068  0.7943 -0.8726
 1595SOL     OW 5073   2.741   1.636   3.377 -0.0946 -0.2233 -0.0666
 1595SOL    HW1 5074   2.677   1.606   3.448  0.0727 -0.4558 -0.0118
 1595SOL    HW2 5075   2.801   1.707   3.414 -0.2550 -0.0775 -0.0876
 1596SOL     OW 5076   0.641   2.303   4.598 -0.7365  0.1054 -0.0373
 1596SOL    HW1 5077   0.699   2.318   4.518 -0.7388 -0.2836 -0.1115
 1596SOL    HW2 5078   0.611   2.208   4.601 -2.2658  0.5446 -0.5908
 1597SOL     OW 5079   0.473   1.914   4.324 -0.2681 -0.4078 -0.0516
 1597SOL    HW1 5080   0.456   1.853   4.401 -0.1245 -0.9462 -0.4378
 1597SOL    HW2 5081   0.568   1.906   4.295 -0.2964 -0.1387 -0.2207
 1598SOL     OW 5082   3.354   2.038   4.083  0.0379 -0.2182  0.1037
 1598SOL    HW1 5083   3.434   2.098   4.086  0.4428 -0.7631  0.3306
 1598SOL    HW2 5084   3.274   2.091   4.055 -0.0627  0.9319  2.3087
 1599SOL     OW 5085   2.781   4.092   0.399  0.5294 -0.1350  0.2530
 1599SOL    HW1 5086   2.798   4.001   0.437 -0.6110  0.0413  1.2254
 1599SOL    HW2 5087   2.686   4.099   0.369  0.8428  0.4546 -0.6547
 1600SOL     OW 5088   2.013   1.352   0.050  0.2508  0.1428  0.1371
 1600SOL    HW1 5089   2.009   1.442   0.007  0.0491 -0.0988 -0.3575
 1600SOL    HW2 5090   2.098   1.344   0.103  1.0139  0.0681 -1.0724
 1601SOL     OW 5091   3.185   4.661   4.995 -0.2851 -0.1002  0.5471
 1601SOL    HW1 5092   3.087   4.674   4.981 -0.0712 -0.1668 -1.3209
 1601SOL    HW2 5093   3.203   4.566   5.020 -0.6269 -0.3637 -0.1654
 1602SOL     OW 5094   5.546   4.587   1.717  0.1254  0.1886 -0.5724
 1602SOL    HW1 5095   5.498   4.549   1.638  0.2092  0.1145 -0.5871
 1602SOL    HW2 5096   5.642   4.561   1.714  0.0232 -0.2394 -0.1708
 1603SOL     OW 5097   3.564   4.561   4.209 -0.0120 -0.0036  0.1315
 1603SOL    HW1 5098   3.645   4.607   4.173  1.0918 -2.4993 -0.7701
 1603SOL    HW2 5099   3.569   4.557   4.309  0.9940 -0.1697  0.0815
 1604SOL     OW 5100   1.400   2.752   4.470 -0.2045  0.4446  0.1269
 1604SOL    HW1 5101   1.446   2.828   4.423  1.7783  0.7989  2.4515
 1604SOL    HW2 5102   1.435   2.745   4.563 -2.1378 -1.8222  0.7571
 1605SOL     OW 5103   3.531   0.808   5.343 -0.0195 -0.0754  0.4572
 1605SOL    HW1 5104   3.510   0.851   5.431 -2.1109 -1.6194  0.7636
 1605SOL    HW2 5105   3.451   0.811   5.284  0.5172 -1.4965 -0.3859
 1606SOL     OW 5106   5.350   4.376   2.315 -0.8552 -0.6535 -0.1136
 1606SOL    HW1 5107   5.413   4.327   2.375 -0.1445 -2.0455 -1.9069
 1606SOL    HW2 5108   5.334   4.468   2.352  1.8824 -0.3929  0.6598
 1607SOL     OW 5109   4.968   0.035   2.290  0.3177  0.0168 -0.4817
 1607SOL    HW1 5110   4.948  -0.009   2.202  1.0959 -0.4528 -0.4350
 1607SOL    HW2 5111   5.056   0.083   2.283  0.7185 -0.6020  0.2446
 1608SOL     OW 5112   0.943   2.211   0.086 -0.4180 -0.3030  0.2081
 1608SOL    HW1 5113   1.040   2.200   0.067 -0.6730  1.3582 -2.5992
 1608SOL    HW2 5114   0.927   2.205   0.185  2.1644 -2.7750  0.5923
 1609SOL     OW 5115   0.585   1.499   4.596  0.8041  0.1730 -0.1364
 1609SOL    HW1 5116   0.634   1.526   4.679 -0.0587  1.1285  0.0844
 1609SOL    HW2 5117   0.505   1.445   4.620 -0.4235  1.8954 -0.1771
 1610SOL     OW 5118   0.694   0.228   4.452  0.2511 -0.3020  0.1130
 1610SOL    HW1 5119   0.656   0.206   4.362 -1.3117  1.5464  0.2551
 1610SOL    HW2 5120   0.748   0.151   4.485 -0.0733 -1.4652 -1.9023
 1611SOL     OW 5121   2.943   3.827   3.010 -0.1140 -0.3814 -0.4531
 1611SOL    HW1 5122   2.924   3.907   3.067  0.0344  1.0179 -2.2804
 1611SOL    HW2 5123   2.884   3.751   3.037 -0.4468  0.4170  1.1477
 1612SOL     OW 5124   3.971   2.845   1.247  0.7709 -0.5639  0.3926
 1612SOL    HW1 5125   3.921   2.918   1.199 -1.0137 -0.0791  2.8085
 1612SOL    HW2 5126   3.906   2.775   1.277  2.0310 -1.5736  0.8616
 1613SOL     OW 5127   3.412   3.486   1.520  0.5405  0.0859 -0.4390
 1613SOL    HW1 5128   3.341   3.473   1.450  0.4106  0.1470 -0.3183
 1613SOL    HW2 5129   3.499   3.506   1.475  0.3672  0.5532 -0.5739
 1614SOL     OW 5130   1.090   5.494   1.886  0.3180  0.2597  0.0991
 1614SOL    HW1 5131   1.179   5.490   1.842 -0.2222  0.4096 -1.0598
 1614SOL    HW2 5132   1.090   5.564   1.958  0.6128  1.5900 -1.1499
 1615SOL     OW 5133   0.423   1.719   4.533 -0.5511 -0.4817 -0.1411
 1615SOL    HW1 5134   0.498   1.653   4.531  0.2126  0.3727 -1.0364
 1615SOL    HW2 5135   0.363   1.699   4.611 -0.8333 -2.7106 -0.8509
 1616SOL     OW 5136   2.528   0.479   0.321 -0.2165  0.4563  0.1647
 1616SOL    HW1 5137   2.494   0.487   0.415 -2.1223  1.4989 -0.5535
 1616SOL    HW2 5138   2.456   0.444   0.262  1.5064 -1.9482 -0.6602
 1617SOL     OW 5139   3.396   5.178   5.086  0.2369  0.0544 -0.2259
 1617SOL    HW1 5140   3.418   5.237   5.164  0.0359 -0.0713 -0.0711
 1617SOL    HW2 5141   3.444   5.210   5.005 -0.4198  0.8517 -0.3083
 1618SOL     OW 5142   1.930   3.745   2.705 -0.0428  0.0069 -0.8093
 1618SOL    HW1 5143   1.928   3.653   2.744  1.1801 -1.3177 -3.6095
 1618SOL    HW2 5144   1.846   3.763   2.655 -0.2112  0.3831 -0.4048
 1619SOL     OW 5145   1.607   3.492   2.121  0.6315 -0.0024 -0.3773
 1619SOL    HW1 5146   1.678   3.527   2.059  0.5154 -2.0494 -1.7807
 1619SOL    HW2 5147   1.521   3.482   2.070  0.7141 -2.4018 -0.1713
 1620SOL     OW 5148   1.787   3.902   4.190  0.5767 -0.3406  0.2546
 1620SOL    HW1 5149   1.832   3.991   4.197 -3.0577  1.6171  0.9232
 1620SOL    HW2 5150   1.791   3.856   4.279 -0.0969  0.5263  0.7398
 1621SOL     OW 5151   2.719   1.118   2.910  0.1183  0.9090  0.8171
 1621SOL    HW1 5152   2.639   1.062   2.933  0.6356 -0.0826  0.2529
 1621SOL    HW2 5153   2.706   1.157   2.819  0.8590 -0.3654  0.1483
 1622SOL     OW 5154   1.745   5.402   2.718 -0.3343  0.4109 -0.1667
 1622SOL    HW1 5155   1.661   5.372   2.673 -0.5477  0.2654  0.3282
 1622SOL    HW2 5156   1.740   5.500   2.737 -1.6476 -0.0746  2.4835
 1623SOL     OW 5157   4.799   0.939   1.725 -0.4818 -0.1176  0.1758
 1623SOL    HW1 5158   4.740   1.013   1.759 -1.1413 -0.2188 -0.7374
 1623SOL    HW2 5159   4.804   0.867   1.794 -1.1634  0.0346  0.3935
 1624SOL     OW 5160   4.251   5.645   2.151  0.1372 -0.1983  0.5389
 1624SOL    HW1 5161   4.255   5.707   2.229 -1.4385  2.1619 -1.1093
 1624SOL    HW2 5162   4.157   5.634   2.120  0.7901 -0.0710 -1.7337
 1625SOL     OW 5163   1.343   0.662   3.976 -0.8345  0.1728  0.5358
 1625SOL    HW1 5164   1.382   0.609   3.901  0.0402  2.1970 -0.5241
 1625SOL    HW2 5165   1.250   0.690   3.952 -0.2024  1.6785 -0.3225
 1626SOL     OW 5166   5.697   0.866   0.287 -0.1562 -0.0072 -0.1833
 1626SOL    HW1 5167   5.683   0.770   0.265 -1.6994  0.0241  0.5416
 1626SOL    HW2 5168   5.709   0.876   0.386  2.3932  0.3189 -0.4602
 1627SOL     OW 5169   4.234   4.974   3.962  0.0096 -0.1876  0.5350
 1627SOL    HW1 5170   4.147   4.939   3.926 -0.3275  0.4325  0.7404
 1627SOL    HW2 5171   4.243   4.947   4.058 -0.4081  0.5547  0.7923
 1628SOL     OW 5172   2.702   3.008   2.075 -0.1975  0.0617 -0.3642
 1628SOL    HW1 5173   2.686   2.913   2.048 -1.0131 -0.2741  1.1531
 1628SOL    HW2 5174   2.795   3.034   2.052  0.6302 -1.7006  0.7271
 1629SOL     OW 5175   3.327   2.870   2.600  0.5538 -0.0283 -0.1320
 1629SOL    HW1 5176   3.357   2.886   2.506 -1.7270 -1.0897 -1.1180
 1629SOL    HW2 5177   3.272   2.948   2.631  0.2535 -0.2419 -0.1330
 1630SOL     OW 5178   1.407   3.989   2.022  0.1013  0.7776 -0.3400
 1630SOL    HW1 5179   1.462   4.015   1.943  0.3414  3.6429  0.6603
 1630SOL    HW2 5180   1.465   3.946   2.091 -0.1825 -2.1396 -1.7606
 1631SOL     OW 5181   5.212   1.431   0.345 -0.1649 -0.2692 -0.4475
 1631SOL    HW1 5182   5.160   1.390   0.270 -0.8315 -0.6990  0.2369
 1631SOL    HW2 5183   5.306   1.397   0.343 -1.0153 -2.9778  0.9102
 1632SOL     OW 5184   0.377   1.659   2.964 -0.3224 -0.2674 -0.1425
 1632SOL    HW1 5185   0.334   1.747   2.943 -0.4742 -0.4475 -0.5986
 1632SOL    HW2 5186   0.469   1.657   2.926  0.0475  0.0712  0.7279
 1633SOL     OW 5187   4.688   3.843   0.376 -0.2172 -0.1380 -0.5943
 1633SOL    HW1 5188   4.710   3.760   0.429 -0.4515 -1.8163 -2.9606
 1633SOL    HW2 5189   4.606   3.825   0.321 -0.0074  1.5495 -1.4866
 1634SOL     OW 5190   1.421   5.719   2.949  0.0152 -0.1780 -0.1988
 1634SOL    HW1 5191   1.327   5.716   2.983  0.8320 -1.2401  2.2693
 1634SOL    HW2 5192   1.475   5.650   2.997  2.0513  0.3698 -1.5905
 1635SOL     OW 5193   1.947   4.744   0.727 -0.2190 -0.2487 -0.0860
 1635SOL    HW1 5194   1.988   4.673   0.784  2.0016  0.3737 -0.8083
 1635SOL    HW2 5195   1.975   4.731   0.632  1.1127  2.1286 -0.0864
 1636SOL     OW 5196   0.443   5.935   3.379 -0.0349 -0.2168  0.8031
 1636SOL    HW1 5197   0.389   5.917   3.297  4.1519  0.7765 -2.5571
 1636SOL    HW2 5198   0.479   5.848   3.414  1.2174 -0.4432 -0.9033
 1637SOL     OW 5199   4.646   2.117   3.768  0.0858  0.1530  0.1276
 1637SOL    HW1 5200   4.619   2.056   3.694 -2.3246  1.6277 -0.3189
 1637SOL    HW2 5201   4.572   2.182   3.786  2.1347  2.3049  1.2432
 1638SOL     OW 5202   2.179   5.844   4.473 -0.3837 -0.1841 -0.1672
 1638SOL    HW1 5203   2.220   5.754   4.459  1.2033  0.2357  1.4148
 1638SOL    HW2 5204   2.084   5.842   4.442  0.0993 -1.8866 -1.7565
 1639SOL     OW 5205   3.466   3.113   2.783 -0.1356  0.3433 -0.2174
 1639SOL    HW1 5206   3.411   3.168   2.845  0.7207  0.5823  0.3475
 1639SOL    HW2 5207   3.431   3.019   2.783 -2.6585  1.1566 -2.4593
 1640SOL     OW 5208   1.742   0.964   2.566 -0.5036  0.7983  0.2477
 1640SOL    HW1 5209   1.663   1.012   2.604 -1.5191  0.2886 -1.1331
 1640SOL    HW2 5210   1.729   0.950   2.468  1.9707  1.9650 -0.3265
 1641SOL     OW 5211   3.427   4.960   2.429  0.0903 -1.0202 -0.5084
 1641SOL    HW1 5212   3.445   4.909   2.513 -0.8855  1.0809  1.0702
 1641SOL    HW2 5213   3.354   4.915   2.377  1.1312 -2.6785 -0.5927
 1642SOL     OW 5214   1.467   1.977   5.179  0.8787  0.6217  0.0734
 1642SOL    HW1 5215   1.540   2.043   5.196  0.4420  1.4451 -1.1881
 1642SOL    HW2 5216   1.478   1.937   5.088  0.3689 -0.0498  0.2991
 1643SOL     OW 5217   2.320   2.924   3.055  0.3154 -0.2336 -0.1113
 1643SOL    HW1 5218   2.305   3.001   2.993  1.7237  1.4694  1.5401
 1643SOL    HW2 5219   2.410   2.885   3.038 -0.1754 -1.1924 -0.5664
 1644SOL     OW 5220   2.917   5.083   0.844 -0.5381  0.1863  0.0505
 1644SOL    HW1 5221   2.992   5.084   0.778 -0.5140 -0.0425  0.0705
 1644SOL    HW2 5222   2.896   5.176   0.874 -2.0512  0.5746 -1.9628
 1645SOL     OW 5223   4.382   5.461   0.042 -0.2387  0.2460  0.2515
 1645SOL    HW1 5224   4.293   5.417   0.048 -0.7653  1.1191 -0.7838
 1645SOL    HW2 5225   4.454   5.392   0.046 -0.8724 -0.3568  2.4989
 1646SOL     OW 5226   3.672   2.052   5.361  0.2131  0.6551 -0.5026
 1646SOL    HW1 5227   3.769   2.074   5.365  0.3111  0.1021  2.3551
 1646SOL    HW2 5228   3.636   2.042   5.454 -2.1203 -1.1826 -1.4921
 1647SOL     OW 5229   3.237   0.255   1.916 -0.0346  0.1163 -0.5352
 1647SOL    HW1 5230   3.168   0.326   1.905 -1.6356 -1.2672  0.2243
 1647SOL    HW2 5231   3.290   0.272   1.999 -1.3687 -0.3043  0.4337
 1648SOL     OW 5232   3.976   5.949   2.006 -0.2364  0.2907 -0.3041
 1648SOL    HW1 5233   4.065   5.981   1.972  0.7268 -0.2900  1.5509
 1648SOL    HW2 5234   3.966   5.852   1.985 -0.1575  0.2085  0.0413
 1649SOL     OW 5235   1.624   2.809   5.557 -0.0582 -0.5418  0.5136
 1649SOL    HW1 5236   1.618   2.776   5.651  1.9763 -3.1661 -0.1608
 1649SOL    HW2 5237   1.580   2.899   5.550 -1.8319 -1.0424  3.5314
 1650SOL     OW 5238   4.736   5.633   5.936  0.3956  0.5925  0.2888
 1650SOL    HW1 5239   4.644   5.638   5.897 -0.2925 -0.0046  1.7932
 1650SOL    HW2 5240   4.741   5.559   6.003  2.7223 -1.1690 -1.6408
 1651SOL     OW 5241   2.657   3.436   0.588  0.0082  0.7596 -0.0388
 1651SOL    HW1 5242   2.617   3.357   0.541  0.5879  0.5724 -0.2225
 1651SOL    HW2 5243   2.634   3.432   0.685  1.2927 -0.4613  0.2474
 1652SOL     OW 5244   2.098   3.230   5.021 -0.4930  0.2951 -0.4054
 1652SOL    HW1 5245   2.015   3.243   5.076 -0.1568 -1.3741  0.5812
 1652SOL    HW2 5246   2.117   3.132   5.014  0.8821  0.6152 -1.4278
 1653SOL     OW 5247   5.443   5.325   0.544 -0.3325  0.3430  0.1534
 1653SOL    HW1 5248   5.466   5.377   0.626 -2.1293 -0.0009  0.9157
 1653SOL    HW2 5249   5.410   5.388   0.473 -0.5814  0.4446  0.3599
 1654SOL     OW 5250   1.065   5.283   5.868  0.1907 -0.0035 -0.2479
 1654SOL    HW1 5251   1.023   5.369   5.841  0.6368  0.2273 -0.2081
 1654SOL    HW2 5252   1.103   5.292   5.960  0.2798 -0.2280 -0.2624
 1655SOL     OW 5253   3.612   5.294   2.651 -0.0029 -0.3827 -0.5480
 1655SOL    HW1 5254   3.597   5.351   2.731  1.2724  0.3123 -0.7743
 1655SOL    HW2 5255   3.526   5.284   2.600 -0.0430  2.5124 -1.2477
 1656SOL     OW 5256   4.184   2.007   3.217 -0.0674  0.6552 -0.6173
 1656SOL    HW1 5257   4.251   2.068   3.174 -1.1545  0.7381 -2.2748
 1656SOL    HW2 5258   4.104   2.059   3.245 -0.0096  0.3487  0.1485
 1657SOL     OW 5259   0.753   1.467   2.690  0.3497  0.8414  0.2559
 1657SOL    HW1 5260   0.762   1.538   2.620 -0.9915  0.2512 -0.5539
 1657SOL    HW2 5261   0.676   1.407   2.667  0.2567  0.2709  1.9360
 1658SOL     OW 5262   3.820   2.407   2.789  0.2031 -0.2115 -0.5743
 1658SOL    HW1 5263   3.760   2.348   2.843  0.3917  1.0447  1.0753
 1658SOL    HW2 5264   3.775   2.430   2.703 -1.8542  0.8999  0.7146
 1659SOL     OW 5265   4.401   2.029   0.777  0.2226 -0.0475 -0.1912
 1659SOL    HW1 5266   4.448   1.952   0.734  0.6363  0.9321 -1.5334
 1659SOL    HW2 5267   4.331   1.994   0.839  1.6162 -1.5224  0.6287
 1660SOL     OW 5268   1.827   1.741   3.290  0.1128  0.2073 -0.0727
 1660SOL    HW1 5269   1.847   1.673   3.219 -1.6372  0.3679 -0.7668
 1660SOL    HW2 5270   1.913   1.774   3.329  1.0564 -1.1959 -0.8551
 1661SOL     OW 5271   1.566   4.562   0.603  0.3315  0.8403  0.1517
 1661SOL    HW1 5272   1.656   4.519   0.606  0.6996  1.3647 -1.8490
 1661SOL    HW2 5273   1.518   4.533   0.520 -1.3163  0.6776  1.1101
 1662SOL     OW 5274   1.212   0.735   4.972 -0.2042 -0.0605  0.3049
 1662SOL    HW1 5275   1.204   0.656   5.032 -0.2922 -0.3187 -0.0446
 1662SOL    HW2 5276   1.309   0.761   4.963  0.2728 -2.2482 -2.2641
 1663SOL     OW 5277   0.860   4.760   2.323  0.4107  0.7963 -0.2806
 1663SOL    HW1 5278   0.910   4.728   2.242  1.7501  0.7426  0.5254
 1663SOL    HW2 5279   0.764   4.735   2.316  0.9741 -1.4651 -0.7157
 1664SOL     OW 5280   2.840   2.386   0.720 -0.6027  0.4692  0.4137
 1664SOL    HW1 5281   2.927   2.367   0.675 -0.9964  1.3359 -0.7710
 1664SOL    HW2 5282   2.765   2.378   0.653 -1.4492 -0.2312  1.3977
 1665SOL     OW 5283   1.560   4.364   3.093 -0.3008  0.2412  0.5616
 1665SOL    HW1 5284   1.638   4.313   3.130 -1.2543 -0.3241  1.8833
 1665SOL    HW2 5285   1.541   4.332   3.000 -0.3297 -1.2240  1.0451
 1666SOL     OW 5286   4.670   5.047   4.250  0.6787 -0.0655  0.1200
 1666SOL    HW1 5287   4.587   5.037   4.196 -0.0930 -1.9576  1.5485
 1666SOL    HW2 5288   4.750   5.028   4.193 -0.1006 -1.7526 -0.4686
 1667SOL     OW 5289   5.571   3.816   5.310  0.4359  0.2268 -0.2342
 1667SOL    HW1 5290   5.530   3.726   5.323  1.8824 -0.4926 -0.5415
 1667SOL    HW2 5291   5.500   3.886   5.322 -0.5392 -0.8887  0.8343
 1668SOL     OW 5292   3.205   5.194   0.207 -0.1264 -0.2608  0.0141
 1668SOL    HW1 5293   3.295   5.192   0.251  0.6086 -0.2903 -1.4281
 1668SOL    HW2 5294   3.194   5.280   0.158  0.3083 -1.3375 -2.1110
 1669SOL     OW 5295   3.217   2.308   1.998 -0.1663 -0.4585 -0.3342
 1669SOL    HW1 5296   3.250   2.378   1.935 -1.9813 -1.6902 -2.8189
 1669SOL    HW2 5297   3.229   2.340   2.092  3.4684  1.1321 -1.1358
 1670SOL     OW 5298   2.872   3.251   4.401 -0.3778 -0.0580  0.6010
 1670SOL    HW1 5299   2.776   3.255   4.373 -0.8124 -0.7883  1.8708
 1670SOL    HW2 5300   2.928   3.215   4.327 -0.9984  0.8852 -0.3425
 1671SOL     OW 5301   2.922   4.453   4.528  0.3968 -0.7110  1.0053
 1671SOL    HW1 5302   2.887   4.361   4.510 -0.4375 -0.3215  0.6113
 1671SOL    HW2 5303   2.851   4.509   4.569  0.1237  0.4524 -0.9453
 1672SOL     OW 5304   2.177   1.487   4.622 -0.4280 -0.5742 -0.1201
 1672SOL    HW1 5305   2.266   1.481   4.666 -0.9758  0.0306  1.1139
 1672SOL    HW2 5306   2.187   1.467   4.524  0.7303 -2.4923  0.3343
 1673SOL     OW 5307   4.040   0.284   4.999 -0.1461 -0.8659  0.0739
 1673SOL    HW1 5308   4.129   0.286   5.046 -0.8205 -2.6463  1.5731
 1673SOL    HW2 5309   3.992   0.370   5.016  0.8105 -0.3463  0.2377
 1674SOL     OW 5310   2.892   5.760   5.743 -0.2935  0.0002 -0.3940
 1674SOL    HW1 5311   2.867   5.726   5.833  2.1121  0.0691  0.3685
 1674SOL    HW2 5312   2.844   5.707   5.673 -2.7705  0.4281  0.8756
 1675SOL     OW 5313   0.698   4.560   3.774 -0.2570 -0.1095  0.3028
 1675SOL    HW1 5314   0.781   4.610   3.748  0.0493 -1.2156 -0.9911
 1675SOL    HW2 5315   0.708   4.464   3.747 -1.8911 -0.2942  0.2889
 1676SOL     OW 5316   1.516   1.682   2.301  0.4640 -0.0342 -0.3530
 1676SOL    HW1 5317   1.608   1.697   2.336  0.8065 -0.0267 -1.2344
 1676SOL    HW2 5318   1.474   1.604   2.347  0.0243  1.3272  1.7093
 1677SOL     OW 5319   4.196   5.435   4.345 -0.1388  0.2723 -0.2673
 1677SOL    HW1 5320   4.251   5.415   4.264  0.5070 -1.6599  0.5942
 1677SOL    HW2 5321   4.256   5.457   4.422 -0.4485 -2.2007  0.7773
 1678SOL     OW 5322   4.174   5.719   1.668 -0.0852  0.0680  0.1657
 1678SOL    HW1 5323   4.228   5.701   1.750  1.9426 -0.1253 -1.1359
 1678SOL    HW2 5324   4.164   5.635   1.614  1.5530  0.8048 -1.4124
 1679SOL     OW 5325   5.347   2.169   0.610 -0.6279  0.4745 -0.5958
 1679SOL    HW1 5326   5.370   2.264   0.590  1.5280  0.0161 -0.5878
 1679SOL    HW2 5327   5.351   2.154   0.709  3.5645 -0.5285 -0.7413
 1680SOL     OW 5328   5.264   1.569   5.807 -0.1390 -1.0498  0.0135
 1680SOL    HW1 5329   5.269   1.617   5.720  0.0095 -2.9463 -1.0950
 1680SOL    HW2 5330   5.284   1.632   5.882  0.4307  0.4784 -1.3721
 1681SOL     OW 5331   2.520   4.268   0.446  0.0682  0.5994 -0.0866
 1681SOL    HW1 5332   2.481   4.329   0.377 -0.4416  0.8938  0.4539
 1681SOL    HW2 5333   2.483   4.176   0.434 -0.0153  0.6483 -0.2089
 1682SOL     OW 5334   4.334   4.017   3.018 -0.5988 -0.5202 -0.1036
 1682SOL    HW1 5335   4.382   3.931   2.998 -1.7895 -1.5951  1.4879
 1682SOL    HW2 5336   4.389   4.093   2.985  1.3851 -1.7846  0.0951
 1683SOL     OW 5337   4.954   4.415   2.719  0.2866 -0.1546  0.2531
 1683SOL    HW1 5338   5.004   4.420   2.805 -0.6196  1.6981  0.7112
 1683SOL    HW2 5339   4.870   4.362   2.732 -0.8972  1.8611  1.0920
 1684SOL     OW 5340   5.811   2.420   2.754  0.4802 -0.1328 -0.2121
 1684SOL    HW1 5341   5.786   2.432   2.850  0.9993 -0.6108 -0.0094
 1684SOL    HW2 5342   5.911   2.416   2.747  0.4317 -0.3587 -0.7441
 1685SOL     OW 5343   1.807   5.394   3.591 -0.0546 -0.0269  0.0905
 1685SOL    HW1 5344   1.880   5.331   3.618  0.6167  0.5836 -0.2674
 1685SOL    HW2 5345   1.848   5.480   3.558 -0.9526  0.8843  1.2623
 1686SOL     OW 5346   0.278   2.243   2.577  0.3566 -0.6734 -0.6794
 1686SOL    HW1 5347   0.298   2.282   2.486 -0.0330 -0.8073 -0.8243
 1686SOL    HW2 5348   0.347   2.275   2.642  1.7166 -2.0086 -1.3902
 1687SOL     OW 5349   5.634   1.621   1.746 -0.8269  0.1373 -0.5243
 1687SOL    HW1 5350   5.577   1.658   1.819 -1.1136  0.3646 -0.8605
 1687SOL    HW2 5351   5.705   1.688   1.723 -1.5948  0.6647 -1.4130
 1688SOL     OW 5352   0.430   0.132   5.933 -0.1640  0.6945 -0.5101
 1688SOL    HW1 5353   0.334   0.158   5.927 -0.1427  1.4046  1.5974
 1688SOL    HW2 5354   0.442   0.065   6.006  0.8914  0.2414 -1.0751
 1689SOL     OW 5355   0.242   1.574   5.695 -0.1877  0.2496 -0.6669
 1689SOL    HW1 5356   0.154   1.619   5.708 -0.1867 -0.0200  0.4534
 1689SOL    HW2 5357   0.227   1.485   5.651 -0.3882  0.5306 -1.1750
 1690SOL     OW 5358   2.269   0.826   1.850 -0.2730 -0.1290 -0.0160
 1690SOL    HW1 5359   2.314   0.786   1.930 -0.3170  0.1549  0.1516
 1690SOL    HW2 5360   2.252   0.923   1.866 -1.0369 -0.2544 -0.0296
 1691SOL     OW 5361   2.260   3.538   1.933 -0.2691  0.9777 -0.6351
 1691SOL    HW1 5362   2.259   3.534   2.033  0.7808 -0.1380 -0.6573
 1691SOL    HW2 5363   2.352   3.558   1.901  0.1345 -1.9007 -1.4568
 1692SOL     OW 5364   0.423   5.407   1.141  0.7628 -0.0107  0.4792
 1692SOL    HW1 5365   0.357   5.368   1.076  0.3906  0.5323  0.5205
 1692SOL    HW2 5366   0.416   5.359   1.228  0.3150  0.1266  0.5262
 1693SOL     OW 5367   1.444   4.859   2.159  0.2773 -0.0698  0.0550
 1693SOL    HW1 5368   1.344   4.855   2.157  0.2856 -0.0263 -0.9421
 1693SOL    HW2 5369   1.482   4.768   2.143  0.3971  0.1388 -0.8758
 1694SOL     OW 5370   3.895   5.885   5.481 -0.0218  0.3572  0.6736
 1694SOL    HW1 5371   3.843   5.802   5.502  1.0043 -1.4480 -2.9445
 1694SOL    HW2 5372   3.851   5.933   5.404 -0.7555  3.4988  2.8571
 1695SOL     OW 5373   2.058   5.450   2.257  0.5360 -0.0798  0.0771
 1695SOL    HW1 5374   2.104   5.539   2.263  1.0790 -0.4279  1.5615
 1695SOL    HW2 5375   2.125   5.377   2.272 -0.1715 -0.6692  0.4305
 1696SOL     OW 5376   1.132   3.727   4.878  0.3696 -0.2460  0.0979
 1696SOL    HW1 5377   1.184   3.812   4.883 -0.4120  0.1885  1.0551
 1696SOL    HW2 5378   1.059   3.727   4.946  0.0544 -1.4897 -0.1970
 1697SOL     OW 5379   3.184   5.218   4.902  0.1082  0.3366 -0.2561
 1697SOL    HW1 5380   3.134   5.304   4.909 -0.8849 -0.2921  0.6723
 1697SOL    HW2 5381   3.246   5.208   4.980 -0.3188 -0.1170  0.0282
 1698SOL     OW 5382   0.706   0.579   3.557  0.1763 -0.3299 -0.5673
 1698SOL    HW1 5383   0.622   0.593   3.504  1.0927  0.6889 -1.8061
 1698SOL    HW2 5384   0.732   0.483   3.553 -1.0295 -0.6959  0.0059
 1699SOL     OW 5385   3.075   2.588   1.888  0.4515 -0.4480 -0.1855
 1699SOL    HW1 5386   3.063   2.621   1.982 -0.3928 -0.1011 -0.4044
 1699SOL    HW2 5387   3.172   2.584   1.866  0.7244 -1.4953  1.0395
 1700SOL     OW 5388   1.444   0.801   2.637 -0.3868 -0.3798  0.0577
 1700SOL    HW1 5389   1.514   0.870   2.620 -0.1949 -0.1583  1.6115
 1700SOL    HW2 5390   1.354   0.838   2.611 -0.1634  0.0749 -0.0859
 1701SOL     OW 5391   1.205   0.914   2.592 -0.4021  0.4996 -0.2931
 1701SOL    HW1 5392   1.196   0.963   2.505 -1.5204  1.2555  0.2321
 1701SOL    HW2 5393   1.184   0.975   2.668 -1.5418 -0.7111  0.3986
 1702SOL     OW 5394   2.196   0.082   2.234 -0.2468  0.2011 -0.0926
 1702SOL    HW1 5395   2.267   0.081   2.305 -0.8270 -0.3376  0.4918
 1702SOL    HW2 5396   2.110   0.113   2.274 -1.0197 -1.7633 -0.1178
 1703SOL     OW 5397   2.106   3.323   2.980  0.2922  0.3307  0.4091
 1703SOL    HW1 5398   2.049   3.270   2.916 -0.6294  1.4075  0.3035
 1703SOL    HW2 5399   2.150   3.397   2.930 -0.7758  1.4438  1.0687
 1704SOL     OW 5400   5.555   4.065   5.610  0.3973 -0.1454 -0.5554
 1704SOL    HW1 5401   5.600   4.149   5.580 -0.0940 -0.7664 -3.2552
 1704SOL    HW2 5402   5.620   4.011   5.664  0.5042  2.1973  1.9241
 1705SOL     OW 5403   1.322   5.024   3.701  0.1365  0.4624 -0.1140
 1705SOL    HW1 5404   1.266   5.043   3.620  1.4695 -0.6357 -1.3442
 1705SOL    HW2 5405   1.352   4.929   3.699  0.7552  0.6068  1.3384
 1706SOL     OW 5406   5.363   3.223   4.511  0.1193 -0.3835  1.2355
 1706SOL    HW1 5407   5.290   3.156   4.527 -1.1251  0.5470 -0.2604
 1706SOL    HW2 5408   5.326   3.300   4.459  2.5208 -0.5156 -0.8062
 1707SOL     OW 5409   0.482   5.501   0.628 -0.1604  0.3965  0.1593
 1707SOL    HW1 5410   0.413   5.429   0.634  1.0458 -0.6950  1.5151
 1707SOL    HW2 5411   0.531   5.494   0.541  3.2649 -3.6900  2.0674
 1708SOL     OW 5412   3.848   2.656   5.478 -0.5431 -0.1504 -0.0724
 1708SOL    HW1 5413   3.790   2.585   5.518  2.1671 -1.6345  1.5287
 1708SOL    HW2 5414   3.887   2.623   5.392 -0.6439  0.1091 -0.2192
 1709SOL     OW 5415   0.366   5.372   5.716 -0.2844 -0.6299  0.1428
 1709SOL    HW1 5416   0.332   5.466   5.726  1.7314  0.1792 -0.1800
 1709SOL    HW2 5417   0.341   5.319   5.798 -1.2140  0.2383  0.4466
 1710SOL     OW 5418   2.975   2.884   4.258  0.0650 -0.0268 -0.6132
 1710SOL    HW1 5419   3.027   2.805   4.225  0.8542  0.2244  0.0032
 1710SOL    HW2 5420   2.880   2.858   4.274  0.8487 -1.5573  2.0647
 1711SOL     OW 5421   5.262   3.099   3.165  0.7977 -0.0521  0.3911
 1711SOL    HW1 5422   5.224   3.008   3.149 -0.4217  0.4342  0.4359
 1711SOL    HW2 5423   5.306   3.133   3.082 -1.7237  0.6878 -0.7545
 1712SOL     OW 5424   2.890   5.530   3.580  0.2336  0.1229 -0.6212
 1712SOL    HW1 5425   2.857   5.572   3.665  1.4860  0.8741 -0.4803
 1712SOL    HW2 5426   2.946   5.596   3.530  1.0540 -0.9160 -1.1141
 1713SOL     OW 5427   1.819   4.373   0.870 -0.2724  0.3181 -0.3458
 1713SOL    HW1 5428   1.880   4.356   0.947 -0.6953 -0.7411 -0.2356
 1713SOL    HW2 5429   1.727   4.393   0.904  0.0117  2.0518 -0.5038
 1714SOL     OW 5430   2.337   5.957   1.618 -0.0978 -0.6097 -0.1615
 1714SOL    HW1 5431   2.420   5.932   1.667 -0.6188 -0.0227  1.0736
 1714SOL    HW2 5432   2.263   5.895   1.644 -1.4640  2.1085  3.1224
 1715SOL     OW 5433   5.917   3.704   5.588  0.0563  0.5019  0.0664
 1715SOL    HW1 5434   5.952   3.691   5.496  3.0441  1.3126  0.9632
 1715SOL    HW2 5435   5.927   3.618   5.639 -1.9273 -0.0526 -0.3908
 1716SOL     OW 5436   3.012   3.619   1.730 -0.2633 -0.0224 -0.1141
 1716SOL    HW1 5437   3.049   3.657   1.646  0.8040  1.3367  0.9206
 1716SOL    HW2 5438   2.924   3.661   1.751 -0.5517 -0.3968 -0.5596
 1717SOL     OW 5439   4.770   0.693   4.693 -0.2667 -0.4004  0.0358
 1717SOL    HW1 5440   4.803   0.787   4.702 -1.3664  0.0317 -0.3232
 1717SOL    HW2 5441   4.695   0.677   4.757 -1.0568 -0.5746 -0.9129
 1718SOL     OW 5442   4.036   1.487   0.123 -0.2695  0.3203 -0.4085
 1718SOL    HW1 5443   4.136   1.491   0.120 -0.2695  1.8383  0.5848
 1718SOL    HW2 5444   4.004   1.411   0.067  1.3902  0.4037 -1.5418
 1719SOL     OW 5445   2.587   0.364   2.346 -0.1856  0.1461  0.1372
 1719SOL    HW1 5446   2.629   0.453   2.333  0.0697  0.1661  1.0677
 1719SOL    HW2 5447   2.492   0.367   2.314 -0.4923  1.0367  1.0869
 1720SOL     OW 5448   4.889   0.923   3.199 -0.3101  0.1575  0.6669
 1720SOL    HW1 5449   4.974   0.934   3.148 -1.0824 -1.6318 -1.1848
 1720SOL    HW2 5450   4.836   1.008   3.196  0.8748  0.9117  0.8150
 1721SOL     OW 5451   1.717   1.221   0.997  0.6234  0.4285 -0.4258
 1721SOL    HW1 5452   1.735   1.286   0.923  0.0801  2.1545  0.8948
 1721SOL    HW2 5453   1.645   1.158   0.969  0.8075  0.6949 -1.5614
 1722SOL     OW 5454   1.078   5.090   1.669  0.6927  0.1085  0.1751
 1722SOL    HW1 5455   1.015   5.158   1.633  0.5857 -0.1015 -0.0304
 1722SOL    HW2 5456   1.172   5.116   1.646  0.7141  0.6472  0.8493
 1723SOL     OW 5457   5.520   4.989   5.841  0.3647  0.3251 -0.1295
 1723SOL    HW1 5458   5.602   5.048   5.838  0.4320  0.4117  1.9484
 1723SOL    HW2 5459   5.537   4.906   5.788  1.5941  0.5962 -0.1998
 1724SOL     OW 5460   3.893   5.221   1.044 -0.2911 -0.1957 -0.3576
 1724SOL    HW1 5461   3.830   5.271   1.102 -0.9999  0.0419 -1.3039
 1724SOL    HW2 5462   3.971   5.189   1.098 -2.5204 -2.9277  1.4857
 1725SOL     OW 5463   0.152   0.906   4.623 -0.3082  0.0712  0.0967
 1725SOL    HW1 5464   0.122   0.960   4.545  2.4950  0.7804 -0.6077
 1725SOL    HW2 5465   0.072   0.868   4.671 -2.1879  1.6843 -1.6005
 1726SOL     OW 5466   5.610   2.857   0.572  0.3716 -0.0422  0.1807
 1726SOL    HW1 5467   5.662   2.839   0.488 -0.0996 -1.1452  0.1180
 1726SOL    HW2 5468   5.533   2.794   0.578 -0.0969  0.5965  1.0251
 1727SOL     OW 5469   0.110   3.981   5.861 -0.2303  0.5380 -0.1148
 1727SOL    HW1 5470   0.113   3.884   5.838  0.0041  0.5756 -0.2502
 1727SOL    HW2 5471   0.155   3.996   5.949 -1.5122  0.3335  0.6092
 1728SOL     OW 5472   2.946   4.157   5.093 -0.2825  0.1383 -0.0833
 1728SOL    HW1 5473   3.037   4.131   5.061 -0.9767 -0.7648 -1.4628
 1728SOL    HW2 5474   2.907   4.225   5.030 -1.3901 -1.1041 -0.7974
 1729SOL     OW 5475   2.920   2.442   2.857  0.1656  0.2716 -0.6423
 1729SOL    HW1 5476   3.016   2.471   2.860  0.0554  0.6203 -0.3847
 1729SOL    HW2 5477   2.875   2.469   2.942 -0.1218 -0.0355 -0.6965
 1730SOL     OW 5478   4.658   2.700   3.840 -0.5122  0.0573 -0.4020
 1730SOL    HW1 5479   4.624   2.676   3.750 -0.7382 -1.4557  0.0586
 1730SOL    HW2 5480   4.758   2.704   3.838  0.0682 -5.7161  0.3913
 1731SOL     OW 5481   4.007   2.853   0.730 -0.0412  0.0203 -0.2405
 1731SOL    HW1 5482   4.076   2.877   0.662 -0.2598 -1.2435 -0.9359
 1731SOL    HW2 5483   3.918   2.890   0.703 -0.3397 -1.3245 -1.2163
 1732SOL     OW 5484   5.920   2.185   0.597 -0.0053  0.6235 -0.2879
 1732SOL    HW1 5485   5.937   2.086   0.595  1.7701  0.8362  1.0231
 1732SOL    HW2 5486   5.841   2.205   0.656 -0.0745  0.0091 -0.1685
 1733SOL     OW 5487   0.902   2.720   5.940  0.3319  0.4391  1.2040
 1733SOL    HW1 5488   0.844   2.642   5.963  1.6087 -1.4020 -1.3251
 1733SOL    HW2 5489   0.998   2.696   5.956  0.7622  1.3758  0.1778
 1734SOL     OW 5490   5.783   5.214   1.208 -0.1620 -0.0463 -0.1410
 1734SOL    HW1 5491   5.757   5.117   1.205 -0.7698  0.0979  0.3079
 1734SOL    HW2 5492   5.747   5.261   1.127 -1.2286  0.1275  0.4174
 1735SOL     OW 5493   1.104   4.006   4.636 -0.2757 -0.0470  0.0762
 1735SOL    HW1 5494   1.025   4.008   4.697  0.6030 -2.1303  1.4226
 1735SOL    HW2 5495   1.105   3.918   4.587  0.4628  0.5303 -0.9759
 1736SOL     OW 5496   2.757   5.635   0.230 -0.2509 -0.5422 -0.1220
 1736SOL    HW1 5497   2.664   5.670   0.224 -0.6358 -1.6861 -1.1566
 1736SOL    HW2 5498   2.783   5.626   0.326 -0.1580  2.3849  0.2289
 1737SOL     OW 5499   0.923   1.071   3.273  0.4770  0.4531 -0.2024
 1737SOL    HW1 5500   0.925   1.138   3.200  1.1665  1.0703  0.3731
 1737SOL    HW2 5501   0.830   1.066   3.311  0.0810  0.0166 -1.2045
 1738SOL     OW 5502   3.712   4.114   5.670 -0.4819  0.1159 -0.5010
 1738SOL    HW1 5503   3.702   4.059   5.587 -0.6016 -1.9372  0.8322
 1738SOL    HW2 5504   3.637   4.180   5.676 -0.8652 -0.2015 -1.6371
 1739SOL     OW 5505   4.463   4.964   3.447  0.2735 -0.2646 -0.1988
 1739SOL    HW1 5506   4.528   4.890   3.431  0.2245 -0.3748  0.1078
 1739SOL    HW2 5507   4.456   4.982   3.546  1.1165  0.8868 -0.3206
 1740SOL     OW 5508   3.372   3.859   5.192 -0.1624  0.3272  0.2920
 1740SOL    HW1 5509   3.396   3.781   5.135 -0.4427 -0.5712  1.3671
 1740SOL    HW2 5510   3.380   3.944   5.139  1.1366 -0.3275 -0.6066
 1741SOL     OW 5511   1.558   0.500   4.585  0.2568  0.1830 -0.2283
 1741SOL    HW1 5512   1.604   0.445   4.515 -0.1689 -1.9066  1.0269
 1741SOL    HW2 5513   1.488   0.557   4.542  0.5026 -0.4951 -1.5812
 1742SOL     OW 5514   3.744   0.545   0.628 -0.3996  0.1953 -0.0274
 1742SOL    HW1 5515   3.786   0.481   0.564 -0.2246 -0.2722  0.5466
 1742SOL    HW2 5516   3.737   0.635   0.586 -0.9146 -0.2646 -0.9542
 1743SOL     OW 5517   5.051   2.953   2.703  0.0122  0.2333  0.4823
 1743SOL    HW1 5518   5.036   2.859   2.675 -2.6769  1.1465 -1.5479
 1743SOL    HW2 5519   5.149   2.973   2.699  0.4949 -1.9997 -0.6212
 1744SOL     OW 5520   1.065   2.044   5.220 -0.1104 -0.1856  0.4122
 1744SOL    HW1 5521   1.028   2.129   5.258 -0.4403 -1.1041  2.2466
 1744SOL    HW2 5522   0.991   1.978   5.209  0.3443 -0.6683  0.2234
 1745SOL     OW 5523   4.147   5.953   2.299 -0.2018 -0.2189 -0.0797
 1745SOL    HW1 5524   4.210   6.000   2.237  1.5598 -0.7518  1.2275
 1745SOL    HW2 5525   4.199   5.899   2.365 -2.0771 -1.3740  0.5453
 1746SOL     OW 5526   5.716   3.429   2.486 -0.0891  0.1451 -0.2522
 1746SOL    HW1 5527   5.732   3.406   2.390  0.5376 -1.5599  0.2292
 1746SOL    HW2 5528   5.620   3.414   2.508 -0.3361  0.9857 -0.7111
 1747SOL     OW 5529   1.716   3.622   0.982 -0.2269  0.8107 -0.4030
 1747SOL    HW1 5530   1.751   3.613   0.889 -0.1375  0.1710 -0.3119
 1747SOL    HW2 5531   1.638   3.685   0.983 -0.1979  0.8540 -0.9010
 1748SOL     OW 5532   1.753   3.036   3.942 -0.5563 -0.3785 -0.2278
 1748SOL    HW1 5533   1.680   3.023   4.009  0.9348 -3.5795  0.9826
 1748SOL    HW2 5534   1.814   3.110   3.972 -1.7176  0.4527  0.1561
 1749SOL     OW 5535   3.569   4.179   4.474  0.6336  0.3801 -0.2212
 1749SOL    HW1 5536   3.633   4.102   4.475 -0.3924 -0.4955 -0.2161
 1749SOL    HW2 5537   3.607   4.255   4.527  2.4615  0.5609 -1.7131
 1750SOL     OW 5538   2.881   0.176   0.363  0.1156  0.4567  0.0435
 1750SOL    HW1 5539   2.957   0.190   0.426 -2.5253 -0.9983  3.9648
 1750SOL    HW2 5540   2.842   0.264   0.336  2.4565  1.1701 -1.2421
 1751SOL     OW 5541   4.063   4.377   1.532  0.2278  0.3472  0.6263
 1751SOL    HW1 5542   4.029   4.446   1.468 -2.1738  1.1200  2.6062
 1751SOL    HW2 5543   4.123   4.420   1.599 -0.3806  0.3085  1.2013
 1752SOL     OW 5544   5.614   0.252   1.973 -0.0822 -0.0827  0.3632
 1752SOL    HW1 5545   5.587   0.204   2.056 -1.1240 -0.3351 -0.0949
 1752SOL    HW2 5546   5.534   0.300   1.936  0.7100  1.1890  0.2751
 1753SOL     OW 5547   5.687   1.236   1.297  0.7908 -0.3216 -0.2725
 1753SOL    HW1 5548   5.777   1.270   1.325  1.2059 -1.6400  0.0889
 1753SOL    HW2 5549   5.687   1.220   1.198  0.4418  1.1014 -0.5234
 1754SOL     OW 5550   0.980   3.436   1.148 -0.2337 -0.1180  0.0963
 1754SOL    HW1 5551   0.902   3.465   1.204 -0.8871  1.2762 -1.4561
 1754SOL    HW2 5552   1.059   3.493   1.170 -0.5902  0.6718 -0.6125
 1755SOL     OW 5553   3.903   3.497   0.738  0.6105 -0.0574 -0.3922
 1755SOL    HW1 5554   3.865   3.415   0.696  2.0233 -0.0454 -1.8061
 1755SOL    HW2 5555   4.001   3.483   0.756  0.6727  0.9975  0.2034
 1756SOL     OW 5556   0.320   3.822   1.268 -0.0227  0.2471 -0.1384
 1756SOL    HW1 5557   0.236   3.875   1.276 -0.1939 -0.0893  0.3489
 1756SOL    HW2 5558   0.397   3.885   1.254 -0.0637  0.7513  1.5732
 1757SOL     OW 5559   5.682   3.808   5.578 -0.3656  0.5611 -0.2767
 1757SOL    HW1 5560   5.770   3.762   5.565 -0.6939  0.1747 -1.2772
 1757SOL    HW2 5561   5.648   3.839   5.489 -1.5368  0.1178  0.0003
 1758SOL     OW 5562   5.528   2.792   4.050  1.1357  0.1285  0.0796
 1758SOL    HW1 5563   5.553   2.834   3.963 -0.3502  0.8135 -0.0471
 1758SOL    HW2 5564   5.478   2.858   4.106  0.6361 -0.8138  0.7670
 1759SOL     OW 5565   0.751   5.040   2.082  0.1445 -0.2811  0.0358
 1759SOL    HW1 5566   0.779   5.126   2.038  1.2471  0.0043  1.2158
 1759SOL    HW2 5567   0.709   4.980   2.014  0.9393  0.4996 -1.2050
 1760SOL     OW 5568   2.887   4.650   0.613 -0.1600 -0.0634 -0.1607
 1760SOL    HW1 5569   2.789   4.669   0.607 -0.1115  0.0694 -0.5480
 1760SOL    HW2 5570   2.903   4.574   0.675 -0.3816  1.0352  1.3056
 1761SOL     OW 5571   0.179   4.633   1.641 -0.1651 -0.0992  0.0302
 1761SOL    HW1 5572   0.262   4.686   1.659  0.2689 -0.9128  0.4550
 1761SOL    HW2 5573   0.108   4.693   1.604  0.2198  0.8316  0.7823
 1762SOL     OW 5574   3.039   4.901   2.534 -0.0109  0.2318 -0.2724
 1762SOL    HW1 5575   3.102   4.910   2.457 -0.3700 -2.9320 -1.0584
 1762SOL    HW2 5576   3.084   4.853   2.609  0.4521  3.5509  1.8307
 1763SOL     OW 5577   3.057   4.107   3.055 -0.1574  0.0839 -0.0527
 1763SOL    HW1 5578   3.065   4.110   2.955  0.9821 -1.0024 -0.0260
 1763SOL    HW2 5579   3.112   4.180   3.095 -0.7456  0.6214 -0.2233
 1764SOL     OW 5580   1.564   2.520   1.868  0.1857  0.2707  0.3739
 1764SOL    HW1 5581   1.650   2.537   1.819  0.1259 -1.2635 -0.3081
 1764SOL    HW2 5582   1.564   2.427   1.904 -1.2948  0.1579  0.1519
 1765SOL     OW 5583   1.829   5.145   3.416  0.6438  0.0454 -0.2113
 1765SOL    HW1 5584   1.867   5.113   3.329  1.3401  2.1158 -0.7423
 1765SOL    HW2 5585   1.746   5.198   3.399  1.8409  2.1701  0.0713
 1766SOL     OW 5586   4.693   2.031   1.631 -0.0673  0.0896  0.3902
 1766SOL    HW1 5587   4.710   2.129   1.629  0.3229  0.0950  2.0809
 1766SOL    HW2 5588   4.697   1.994   1.539 -0.4487  1.6917 -0.3034
 1767SOL     OW 5589   4.248   3.684   0.271  0.1649 -0.2906 -0.6471
 1767SOL    HW1 5590   4.254   3.586   0.249 -0.7736 -0.5877  0.3348
 1767SOL    HW2 5591   4.251   3.696   0.370 -0.6402  0.6034 -0.7222
 1768SOL     OW 5592   1.555   1.876   5.642  0.2790  0.3068 -0.1235
 1768SOL    HW1 5593   1.645   1.851   5.609  0.1323 -0.0582 -0.2444
 1768SOL    HW2 5594   1.541   1.838   5.734  0.2659  0.4063 -0.0837
 1769SOL     OW 5595   0.580   1.535   0.370  0.9588 -0.0810  0.3417
 1769SOL    HW1 5596   0.669   1.511   0.332  1.2092 -0.3170  1.0619
 1769SOL    HW2 5597   0.587   1.540   0.470  0.1517 -0.1572  0.4039
 1770SOL     OW 5598   3.422   4.772   4.935  0.2180 -0.1256 -0.0715
 1770SOL    HW1 5599   3.338   4.719   4.940  0.8009 -0.9647  1.3959
 1770SOL    HW2 5600   3.426   4.820   4.847 -2.7648  1.6139  0.6090
 1771SOL     OW 5601   3.281   0.866   0.077 -0.3465  0.3319 -0.2894
 1771SOL    HW1 5602   3.204   0.899   0.021 -0.5256  1.2964  0.4971
 1771SOL    HW2 5603   3.253   0.860   0.173  0.9550  2.1476  0.2546
 1772SOL     OW 5604   4.414   5.431   3.862 -0.0845 -0.1752 -0.2156
 1772SOL    HW1 5605   4.351   5.363   3.825 -0.0420  0.4078 -1.4093
 1772SOL    HW2 5606   4.370   5.520   3.865  0.9934  0.4872 -2.1912
 1773SOL     OW 5607   5.941   5.691   3.406  0.4855  0.3177  0.0204
 1773SOL    HW1 5608   5.915   5.739   3.322 -0.8282  0.1390  0.2980
 1773SOL    HW2 5609   5.881   5.612   3.419  1.6467 -0.5286  0.3620
 1774SOL     OW 5610   2.594   4.978   3.326 -0.1879 -0.3963 -0.6165
 1774SOL    HW1 5611   2.679   4.970   3.273  0.4415  0.6190  0.1855
 1774SOL    HW2 5612   2.530   5.038   3.278  0.4243  0.6093 -0.2221
 1775SOL     OW 5613   1.279   2.174   4.934  0.4129  0.7580 -0.1719
 1775SOL    HW1 5614   1.209   2.105   4.917 -0.7753  2.3620 -2.2161
 1775SOL    HW2 5615   1.263   2.216   5.024  1.1684 -1.5283  1.1096
 1776SOL     OW 5616   1.259   2.057   3.424 -0.0547 -0.2257 -0.4012
 1776SOL    HW1 5617   1.251   1.971   3.373  0.2177  0.7465 -2.1645
 1776SOL    HW2 5618   1.342   2.105   3.395  0.6288 -0.0299  1.6722
 1777SOL     OW 5619   3.970   4.465   2.362 -0.2035 -0.5460 -0.0157
 1777SOL    HW1 5620   3.922   4.532   2.305  0.4516 -0.2250 -0.2115
 1777SOL    HW2 5621   4.069   4.476   2.348 -0.0874 -1.5628 -0.0610
 1778SOL     OW 5622   4.939   0.814   3.717 -0.0324  0.1992 -0.0880
 1778SOL    HW1 5623   4.892   0.750   3.777  0.5823  0.2657  0.4709
 1778SOL    HW2 5624   4.918   0.792   3.622 -1.2688  0.2920  0.1513
 1779SOL     OW 5625   3.540   1.624   0.285 -0.8327  0.3661  0.0223
 1779SOL    HW1 5626   3.561   1.698   0.221 -0.6918  1.2831  1.0933
 1779SOL    HW2 5627   3.592   1.637   0.370 -1.5208 -0.4256  0.5866
 1780SOL     OW 5628   4.364   0.190   4.439 -0.2830 -0.1078  0.3436
 1780SOL    HW1 5629   4.359   0.095   4.409  0.0796 -0.2701  0.7924
 1780SOL    HW2 5630   4.407   0.195   4.529  0.2618  0.5348  0.0579
 1781SOL     OW 5631   0.736   5.436   5.255 -0.6041  0.4781  0.4357
 1781SOL    HW1 5632   0.745   5.337   5.256  1.7951  0.6541  1.4922
 1781SOL    HW2 5633   0.777   5.475   5.338 -2.5914  2.3044  0.6610
 1782SOL     OW 5634   3.033   5.379   2.077 -0.5100  0.3216 -0.1759
 1782SOL    HW1 5635   3.091   5.450   2.038 -0.1497 -0.5314 -1.2743
 1782SOL    HW2 5636   3.022   5.305   2.010 -0.7551 -0.7233  0.9782
 1783SOL     OW 5637   3.842   0.968   3.524  0.2062  0.0602 -0.1190
 1783SOL    HW1 5638   3.928   0.988   3.476  0.1901  0.6894  0.1035
 1783SOL    HW2 5639   3.841   0.872   3.552  0.9657  0.1200  0.1325
 1784SOL     OW 5640   0.184   2.471   2.361 -0.1306 -0.8188  0.0506
 1784SOL    HW1 5641   0.284   2.463   2.359 -0.0840 -0.4712  0.6227
 1784SOL    HW2 5642   0.144   2.413   2.291  0.5392  0.2401 -1.2437
 1785SOL     OW 5643   3.215   4.107   5.067  0.2106 -0.2660  0.0816
 1785SOL    HW1 5644   3.290   4.106   5.132  0.3339 -0.9747 -0.0674
 1785SOL    HW2 5645   3.236   4.047   4.990 -1.5169 -2.4335  1.1939
 1786SOL     OW 5646   1.815   5.080   5.216  0.2095  0.2819  0.2776
 1786SOL    HW1 5647   1.771   5.062   5.129  0.7699 -0.0668  0.0638
 1786SOL    HW2 5648   1.751   5.060   5.291 -0.3953  0.9378 -0.0534
 1787SOL     OW 5649   1.707   4.424   0.226 -0.8717  0.2558 -0.1421
 1787SOL    HW1 5650   1.792   4.447   0.274 -0.5063 -2.0905  0.4740
 1787SOL    HW2 5651   1.629   4.448   0.285 -0.4831 -0.8608  0.8806
 1788SOL     OW 5652   3.120   2.039   0.538  0.7176 -0.1902  0.1644
 1788SOL    HW1 5653   3.074   2.127   0.528  0.7389 -0.3106 -1.1923
 1788SOL    HW2 5654   3.147   2.026   0.633 -2.5063 -0.3482  1.1819
 1789SOL     OW 5655   5.198   3.004   1.668  0.5495  0.0177  0.0098
 1789SOL    HW1 5656   5.175   3.084   1.723  1.3822 -0.9801  1.9080
 1789SOL    HW2 5657   5.203   3.030   1.572 -1.1933  1.7845  0.3414
 1790SOL     OW 5658   3.422   4.481   2.230 -0.1821  0.4547  0.1482
 1790SOL    HW1 5659   3.351   4.540   2.270 -0.0569  0.8868 -0.2479
 1790SOL    HW2 5660   3.470   4.532   2.158  1.8240  0.8613  1.6778
 1791SOL     OW 5661   1.544   1.118   2.674 -0.5412  0.1295  0.1696
 1791SOL    HW1 5662   1.485   1.083   2.747  1.3202 -0.5004  1.4587
 1791SOL    HW2 5663   1.524   1.214   2.656 -2.8008 -0.3921 -0.3693
 1792SOL     OW 5664   4.411   5.056   1.506 -0.1975 -0.5729 -0.2180
 1792SOL    HW1 5665   4.469   5.032   1.427  0.1704 -2.6277  0.6184
 1792SOL    HW2 5666   4.390   5.153   1.503  3.8342  0.4529 -0.2379
 1793SOL     OW 5667   2.265   5.231   1.404 -0.4711  0.3522  0.2753
 1793SOL    HW1 5668   2.325   5.156   1.376 -1.8042 -0.6171 -0.0487
 1793SOL    HW2 5669   2.182   5.231   1.349 -1.1679  1.1478  1.2759
 1794SOL     OW 5670   0.056   1.118   2.833 -0.2481  0.0952  0.7157
 1794SOL    HW1 5671  -0.021   1.059   2.860 -0.4273  0.0477  0.1150
 1794SOL    HW2 5672   0.094   1.085   2.746  0.2489  0.3088  0.8515
 1795SOL     OW 5673   4.566   0.947   2.997  0.6576  0.2021  0.6623
 1795SOL    HW1 5674   4.473   0.923   2.967  0.9989  0.1055 -0.3424
 1795SOL    HW2 5675   4.606   0.870   3.045  0.0036  0.4555  1.6675
 1796SOL     OW 5676   4.210   0.782   5.153  0.0539 -0.3392 -0.0900
 1796SOL    HW1 5677   4.128   0.747   5.107  0.3656  1.9060 -2.6198
 1796SOL    HW2 5678   4.254   0.708   5.204 -1.6460 -2.4501 -1.5191
 1797SOL     OW 5679   0.852   0.865   2.107  0.2463 -0.1466  0.1238
 1797SOL    HW1 5680   0.763   0.851   2.063  0.6247 -0.9025 -0.4249
 1797SOL    HW2 5681   0.878   0.961   2.101  0.3864 -0.2656 -1.5150
 1798SOL     OW 5682   3.737   2.177   0.096  0.5779  0.1767 -0.0622
 1798SOL    HW1 5683   3.797   2.151   0.020  0.9262  0.0987  0.2388
 1798SOL    HW2 5684   3.781   2.154   0.183 -0.4925 -1.2551  0.1435
 1799SOL     OW 5685   3.441   4.065   5.478  0.6123 -0.4997  1.0249
 1799SOL    HW1 5686   3.423   4.110   5.565  0.2705 -1.2114  1.3314
 1799SOL    HW2 5687   3.384   3.983   5.471 -0.5789  0.4116 -0.5709
 1800SOL     OW 5688   0.977   5.387   4.084  0.4257  0.7839  0.7289
 1800SOL    HW1 5689   0.942   5.423   4.171 -1.6917  1.3009 -0.2822
 1800SOL    HW2 5690   0.945   5.444   4.009  0.1900 -1.0060 -0.5944
 1801SOL     OW 5691   0.580   5.492   0.375 -0.3094  0.4685 -0.4368
 1801SOL    HW1 5692   0.649   5.560   0.349  0.0987  0.0581 -0.4512
 1801SOL    HW2 5693   0.491   5.519   0.339  0.1360  0.1941 -1.7920
 1802SOL     OW 5694   5.060   1.838   5.853  0.2418  0.5098 -0.1787
 1802SOL    HW1 5695   4.994   1.877   5.916  0.5897  0.7207  0.0590
 1802SOL    HW2 5696   5.026   1.751   5.818 -0.5815  1.0500 -0.7787
 1803SOL     OW 5697   1.673   0.531   4.085  0.1950  0.2575 -0.6715
 1803SOL    HW1 5698   1.578   0.501   4.091  0.5831 -0.8690 -0.0487
 1803SOL    HW2 5699   1.678   0.629   4.103 -0.7930  0.2469 -0.3029
 1804SOL     OW 5700   5.452   2.336   0.099 -0.0174  0.1948 -0.1899
 1804SOL    HW1 5701   5.402   2.408   0.146  1.7478  0.0912  1.9672
 1804SOL    HW2 5702   5.535   2.313   0.150 -0.3303 -3.1316 -0.9732
 1805SOL     OW 5703   0.419   3.085   1.047  0.1208 -0.8775 -0.1760
 1805SOL    HW1 5704   0.490   3.073   1.116  1.3114  1.7599 -0.8323
 1805SOL    HW2 5705   0.352   3.152   1.079  0.8812  0.6508 -1.6309
 1806SOL     OW 5706   5.778   0.565   5.652 -0.1916 -0.3207  0.7612
 1806SOL    HW1 5707   5.683   0.538   5.638 -0.2199  1.1295 -3.5521
 1806SOL    HW2 5708   5.838   0.491   5.622 -0.1118  0.3010 -0.7093
 1807SOL     OW 5709   4.592   4.073   4.854 -0.3957  0.4872  0.7259
 1807SOL    HW1 5710   4.539   4.017   4.918  1.1958 -0.0254  1.6455
 1807SOL    HW2 5711   4.653   4.134   4.904 -0.2024  1.1715 -0.3024
 1808SOL     OW 5712   2.186   3.780   5.139 -0.0027  0.0272  0.2513
 1808SOL    HW1 5713   2.119   3.750   5.070  0.8165 -1.0785 -0.0975
 1808SOL    HW2 5714   2.147   3.768   5.230 -0.4460 -0.1921  0.0396
 1809SOL     OW 5715   2.464   5.633   5.642 -0.0520 -0.6125  0.4420
 1809SOL    HW1 5716   2.412   5.719   5.635  1.3547  0.3018  0.8524
 1809SOL    HW2 5717   2.483   5.613   5.738  0.6822 -0.7199  0.2821
 1810SOL     OW 5718   3.004   0.062   3.523 -0.4909 -0.3621 -0.3016
 1810SOL    HW1 5719   3.005   0.139   3.459  1.6328 -0.2737 -0.2282
 1810SOL    HW2 5720   3.085   0.066   3.581 -0.9729 -1.9917  0.5488
 1811SOL     OW 5721   0.971   4.582   1.423  0.1077  0.2066  0.1390
 1811SOL    HW1 5722   0.926   4.624   1.345 -1.1226  2.0345  1.7406
 1811SOL    HW2 5723   1.060   4.626   1.438  1.4863 -1.8213 -1.6302
 1812SOL     OW 5724   3.704   1.970   0.535  0.5601  0.1426 -0.0304
 1812SOL    HW1 5725   3.706   1.981   0.634 -0.2773  0.6722 -0.0646
 1812SOL    HW2 5726   3.632   2.027   0.496  1.0063  0.0897 -0.9683
 1813SOL     OW 5727   1.951   5.457   5.719 -0.1799 -0.0334 -0.1255
 1813SOL    HW1 5728   1.857   5.489   5.726  0.2027  1.0067  0.5204
 1813SOL    HW2 5729   1.981   5.463   5.623 -0.3117  1.0190 -0.1146
 1814SOL     OW 5730   4.606   3.279   3.240 -0.4128 -0.5914 -0.1439
 1814SOL    HW1 5731   4.552   3.360   3.216  2.3214  1.3113 -0.2829
 1814SOL    HW2 5732   4.656   3.296   3.324  1.1457 -1.6497 -0.8087
 1815SOL     OW 5733   4.238   3.880   5.340  0.1922 -0.3254 -0.0795
 1815SOL    HW1 5734   4.284   3.916   5.422  0.3565  1.4263 -0.8959
 1815SOL    HW2 5735   4.154   3.932   5.324 -0.7988 -1.8760 -0.0039
 1816SOL     OW 5736   2.294   3.520   2.206 -0.2770  0.2646  0.5642
 1816SOL    HW1 5737   2.383   3.552   2.239 -0.4317  0.2135  1.0291
 1816SOL    HW2 5738   2.283   3.423   2.227 -0.5870  0.3552  0.8169
 1817SOL     OW 5739   5.529   4.399   5.911  0.7120 -0.3004 -0.4249
 1817SOL    HW1 5740   5.580   4.313   5.911  0.2193 -0.5980 -0.5355
 1817SOL    HW2 5741   5.592   4.476   5.899  1.1620 -0.6416 -0.2507
 1818SOL     OW 5742   2.006   2.535   3.906  0.6049  0.1908 -0.3004
 1818SOL    HW1 5743   2.021   2.630   3.932 -1.0410  0.7786 -1.3248
 1818SOL    HW2 5744   1.955   2.488   3.979 -0.1929  0.6170 -0.5770
 1819SOL     OW 5745   2.820   4.095   3.454  0.2804 -0.3663  1.0017
 1819SOL    HW1 5746   2.899   4.153   3.434  1.1155 -1.1748  1.8672
 1819SOL    HW2 5747   2.784   4.117   3.544  1.0134 -1.6003  1.6259
 1820SOL     OW 5748   0.145   1.287   5.664 -0.0622  0.2146 -0.1554
 1820SOL    HW1 5749   0.109   1.290   5.757  0.6583  0.1264  0.1365
 1820SOL    HW2 5750   0.117   1.202   5.619 -0.1253  0.0988  0.1051
 1821SOL     OW 5751   1.081   2.455   2.500  0.3124 -0.1376  0.0961
 1821SOL    HW1 5752   1.107   2.541   2.456  0.3288  0.0634  0.4960
 1821SOL    HW2 5753   1.163   2.412   2.539  0.4461 -0.7681 -0.8569
 1822SOL     OW 5754   1.232   5.433   3.015  0.0043  0.1240  0.1921
 1822SOL    HW1 5755   1.314   5.415   3.069 -0.1501 -1.2450 -0.0167
 1822SOL    HW2 5756   1.245   5.400   2.922 -0.0246  1.7853 -0.4499
 1823SOL     OW 5757   2.076   0.853   0.271 -0.0163  0.4318  0.1548
 1823SOL    HW1 5758   2.115   0.913   0.201  0.4525  1.9380  1.6534
 1823SOL    HW2 5759   2.117   0.874   0.360 -3.1071  1.0316  1.5505
 1824SOL     OW 5760   2.749   2.711   2.656  0.2754  0.0936 -0.0123
 1824SOL    HW1 5761   2.833   2.749   2.695  1.1101 -1.7836  0.1465
 1824SOL    HW2 5762   2.698   2.662   2.727  0.0922 -0.5024 -0.5483
 1825SOL     OW 5763   4.010   3.100   0.350  0.3370  0.4605  0.4382
 1825SOL    HW1 5764   4.060   3.018   0.377  1.5274  1.2505  0.6838
 1825SOL    HW2 5765   3.927   3.073   0.301 -0.4686 -0.9583  2.4326
 1826SOL     OW 5766   4.737   0.187   5.661  0.0172 -0.0131 -0.0451
 1826SOL    HW1 5767   4.736   0.087   5.656 -0.8297  0.0343 -0.9939
 1826SOL    HW2 5768   4.803   0.223   5.596 -1.1923  0.1025 -1.2511
 1827SOL     OW 5769   0.498   4.323   4.553  0.0766 -0.2904 -0.1193
 1827SOL    HW1 5770   0.411   4.296   4.513 -0.7808 -0.6176  1.8664
 1827SOL    HW2 5771   0.539   4.243   4.598  0.7989  0.1653  0.0391
 1828SOL     OW 5772   1.831   2.584   3.154 -0.1000  0.6704  0.6940
 1828SOL    HW1 5773   1.814   2.630   3.241 -0.7105  0.9123  0.4470
 1828SOL    HW2 5774   1.840   2.652   3.082  2.1625  0.5954  0.8260
 1829SOL     OW 5775   3.966   1.580   0.378  0.0330 -0.2554 -0.0712
 1829SOL    HW1 5776   4.004   1.548   0.291 -1.0923  2.5589 -1.7386
 1829SOL    HW2 5777   3.898   1.514   0.410 -2.3701  0.2871 -3.4378
 1830SOL     OW 5778   4.767   2.604   0.753  0.3214 -0.1095 -0.0024
 1830SOL    HW1 5779   4.755   2.608   0.852  2.1340 -0.1923  0.2622
 1830SOL    HW2 5780   4.713   2.676   0.710  0.5749  0.8151  1.1632
 1831SOL     OW 5781   4.298   0.412   5.093  0.0566  0.0296 -0.7164
 1831SOL    HW1 5782   4.279   0.482   5.162 -2.1697 -0.3030 -0.9066
 1831SOL    HW2 5783   4.330   0.456   5.009 -0.8533  0.7888 -0.6812
 1832SOL     OW 5784   1.025   0.831   1.157  0.0335  0.4305 -0.0146
 1832SOL    HW1 5785   0.980   0.902   1.211  0.0088 -1.5822  2.8195
 1832SOL    HW2 5786   1.123   0.851   1.151 -0.2763  1.7553 -1.1017
 1833SOL     OW 5787   3.885   4.275   5.354 -0.8774  0.0363  0.2838
 1833SOL    HW1 5788   3.926   4.362   5.325  0.6606 -0.0401  2.0051
 1833SOL    HW2 5789   3.798   4.294   5.401 -1.6694  0.4214 -1.2754
 1834SOL     OW 5790   3.538   1.726   3.600  0.3719  0.2090 -0.0727
 1834SOL    HW1 5791   3.570   1.815   3.631 -2.2521  1.3096 -0.3651
 1834SOL    HW2 5792   3.521   1.667   3.680 -1.0599  1.1378  0.3370
 1835SOL     OW 5793   0.819   4.338   1.942 -0.6095  0.4241 -0.0082
 1835SOL    HW1 5794   0.899   4.358   1.998 -0.8357 -1.1969  0.9773
 1835SOL    HW2 5795   0.835   4.367   1.848  0.5771  1.3722  0.4658
 1836SOL     OW 5796   2.078   5.688   2.487 -0.2194 -0.8281  0.2959
 1836SOL    HW1 5797   2.059   5.785   2.505  1.3651 -0.7007  1.4329
 1836SOL    HW2 5798   2.090   5.640   2.573  2.3713 -1.3137 -0.2527
 1837SOL     OW 5799   1.475   1.787   1.305 -0.2404 -0.1632  0.0114
 1837SOL    HW1 5800   1.516   1.841   1.378 -0.7724 -1.4449  1.3084
 1837SOL    HW2 5801   1.407   1.725   1.343 -0.4895 -0.9290 -1.5745
 1838SOL     OW 5802   0.888   1.308   3.096 -0.4899  0.1594  0.2417
 1838SOL    HW1 5803   0.908   1.312   2.999  0.3513  0.1816  0.4083
 1838SOL    HW2 5804   0.963   1.350   3.148  0.3574 -2.2158  1.0519
 1839SOL     OW 5805   4.284   4.852   4.200  0.4510 -0.6894 -0.1705
 1839SOL    HW1 5806   4.308   4.890   4.289  0.9216  0.3057 -0.7019
 1839SOL    HW2 5807   4.223   4.773   4.212  0.8966 -0.8598  1.0342
 1840SOL     OW 5808   0.794   2.695   0.349 -1.1481 -0.6287  0.0529
 1840SOL    HW1 5809   0.823   2.724   0.440 -0.0511  0.9852 -0.7693
 1840SOL    HW2 5810   0.865   2.638   0.308  0.2223  1.8793 -1.2712
 1841SOL     OW 5811   4.222   0.689   5.524 -0.1780  0.2692 -0.0080
 1841SOL    HW1 5812   4.164   0.755   5.572  0.6623  0.9101  0.1699
 1841SOL    HW2 5813   4.318   0.709   5.545  0.1178 -0.6345 -0.4546
 1842SOL     OW 5814   3.801   4.154   3.388 -0.4686 -0.1760  0.2556
 1842SOL    HW1 5815   3.730   4.129   3.323 -1.1531  1.4755  0.3189
 1842SOL    HW2 5816   3.829   4.249   3.372  1.1937 -0.5484  0.7227
 1843SOL     OW 5817   0.631   4.109   1.769 -0.3679  0.1334  0.0437
 1843SOL    HW1 5818   0.645   4.202   1.734  0.0993  0.3448  0.7705
 1843SOL    HW2 5819   0.534   4.087   1.767 -1.0032  2.0097  3.1454
 1844SOL     OW 5820   1.487   3.012   3.209 -0.2717 -0.1660 -0.2622
 1844SOL    HW1 5821   1.478   2.987   3.305  1.0949 -0.7316 -0.2572
 1844SOL    HW2 5822   1.459   2.935   3.151  0.1432 -0.2972 -0.2930
 1845SOL     OW 5823   0.587   0.374   0.443  0.0173  0.2790  0.2723
 1845SOL    HW1 5824   0.545   0.465   0.443  0.1762  0.4046  2.2991
 1845SOL    HW2 5825   0.663   0.372   0.379 -1.2709  0.9212 -1.3403
 1846SOL     OW 5826   1.139   0.643   4.728 -0.4506 -0.0993 -0.0494
 1846SOL    HW1 5827   1.152   0.685   4.818 -1.4515 -0.7849  0.4298
 1846SOL    HW2 5828   1.180   0.702   4.658  0.0010  0.6351  0.8082
 1847SOL     OW 5829   1.918   1.947   3.665  0.0582  0.4006 -0.0309
 1847SOL    HW1 5830   1.939   2.040   3.634 -0.8800  0.8264  0.5895
 1847SOL    HW2 5831   1.826   1.944   3.704  0.6170 -0.4607  1.2894
 1848SOL     OW 5832   2.074   5.081   2.388 -0.2086 -0.2462 -0.7278
 1848SOL    HW1 5833   1.981   5.088   2.351  0.1050 -2.7208 -2.2328
 1848SOL    HW2 5834   2.136   5.138   2.334 -0.8372  1.7883  0.5694
 1849SOL     OW 5835   0.139   2.098   4.160  0.5077 -0.1927 -0.5737
 1849SOL    HW1 5836   0.093   2.099   4.071 -0.4312 -1.1707 -0.1207
 1849SOL    HW2 5837   0.102   2.171   4.217  0.3968 -0.2037 -0.6318
 1850SOL     OW 5838   1.220   1.065   0.611  0.8994  0.5190  0.4819
 1850SOL    HW1 5839   1.292   1.023   0.556  0.9178 -1.5575  1.9594
 1850SOL    HW2 5840   1.249   1.156   0.641  1.0914  1.4869 -2.4088
 1851SOL     OW 5841   0.576   2.712   1.873 -0.2082  0.3071 -0.2255
 1851SOL    HW1 5842   0.557   2.663   1.959 -0.2775  0.1544 -0.3262
 1851SOL    HW2 5843   0.556   2.809   1.885 -1.3230  0.1065 -0.4118
 1852SOL     OW 5844   3.352   1.810   3.888 -0.5314  0.4499 -0.2808
 1852SOL    HW1 5845   3.359   1.879   3.961 -0.9076  1.9567 -1.6081
 1852SOL    HW2 5846   3.299   1.848   3.812  2.9275  0.3816 -2.9479
 1853SOL     OW 5847   3.083   3.480   0.492 -0.4071  0.1193 -0.7685
 1853SOL    HW1 5848   3.144   3.524   0.426  0.2987 -0.3001 -0.3985
 1853SOL    HW2 5849   3.091   3.381   0.484 -0.5884  0.0677 -0.3004
 1854SOL     OW 5850   3.207   5.378   3.728 -0.1827 -0.1498  0.0066
 1854SOL    HW1 5851   3.216   5.446   3.656 -0.8465 -0.1018 -0.0411
 1854SOL    HW2 5852   3.277   5.308   3.717 -2.3258 -2.1104 -2.8565
 1855SOL     OW 5853   1.051   4.769   4.464 -0.0153  0.1985 -0.0710
 1855SOL    HW1 5854   1.087   4.798   4.553  0.5262 -1.0495  0.1378
 1855SOL    HW2 5855   0.991   4.690   4.476  0.9902 -0.7412 -0.8957
 1856SOL     OW 5856   4.124   1.178   5.075 -0.2261  0.1153  0.3179
 1856SOL    HW1 5857   4.100   1.101   5.135 -0.0398  0.2098  0.5104
 1856SOL    HW2 5858   4.064   1.255   5.094  1.6446  1.1538  2.3808
 1857SOL     OW 5859   0.076   1.639   1.811 -0.0566 -0.4015 -0.3263
 1857SOL    HW1 5860   0.119   1.575   1.874 -0.3453 -2.5362 -2.1920
 1857SOL    HW2 5861   0.031   1.712   1.863  2.3605 -0.2940  1.7875
 1858SOL     OW 5862   5.444   5.001   2.019 -0.1217  0.0588 -0.2129
 1858SOL    HW1 5863   5.437   5.051   2.106 -0.0923  1.4958 -1.0069
 1858SOL    HW2 5864   5.352   4.984   1.983 -0.4221 -3.9714  1.8967
 1859SOL     OW 5865   4.896   1.456   2.590 -0.5912 -0.2178 -0.0288
 1859SOL    HW1 5866   4.984   1.419   2.621 -0.1484 -0.3589 -1.4088
 1859SOL    HW2 5867   4.888   1.551   2.619 -0.1615 -0.3253  0.4542
 1860SOL     OW 5868   4.203   2.552   1.884  0.6487 -0.7155  0.1043
 1860SOL    HW1 5869   4.247   2.463   1.898  0.3011 -1.2454 -1.8521
 1860SOL    HW2 5870   4.108   2.547   1.914  0.6684 -0.9774  0.1250
 1861SOL     OW 5871   0.424   1.829   3.460  0.4058 -0.1308  0.0297
 1861SOL    HW1 5872   0.402   1.733   3.480 -2.3630  0.6435  1.2064
 1861SOL    HW2 5873   0.494   1.861   3.524  1.7128 -1.4311 -0.6783
 1862SOL     OW 5874   0.190   4.727   0.649 -0.3185  0.2444 -0.3758
 1862SOL    HW1 5875   0.163   4.655   0.586 -2.6025  0.2045  0.5650
 1862SOL    HW2 5876   0.163   4.816   0.612 -0.6031  0.3174  0.0017
 1863SOL     OW 5877   3.213   2.481   5.935  0.0618  0.5489  0.0425
 1863SOL    HW1 5878   3.170   2.570   5.917 -0.6663  0.5406  1.6436
 1863SOL    HW2 5879   3.144   2.417   5.968  1.0518  0.1466  1.3920
 1864SOL     OW 5880   4.653   3.185   2.719  0.0749 -0.0011  0.1338
 1864SOL    HW1 5881   4.612   3.159   2.632  1.7913  2.2390 -1.4551
 1864SOL    HW2 5882   4.751   3.165   2.718  1.0449  3.9297 -0.3407
 1865SOL     OW 5883   3.335   5.885   1.536  0.6844 -0.2201 -0.2387
 1865SOL    HW1 5884   3.430   5.911   1.553  0.7514  0.5606 -1.6176
 1865SOL    HW2 5885   3.289   5.959   1.486 -0.3888 -0.9695 -0.3986
 1866SOL     OW 5886   1.777   2.991   2.433 -0.8748  0.2919  0.4200
 1866SOL    HW1 5887   1.725   2.914   2.471 -0.9441  0.1266  0.0048
 1866SOL    HW2 5888   1.722   3.036   2.362 -0.8417  0.7370  0.6755
 1867SOL     OW 5889   5.137   3.391   5.599 -0.2528 -0.0641 -0.1788
 1867SOL    HW1 5890   5.119   3.424   5.692  0.2833 -1.2316  0.3549
 1867SOL    HW2 5891   5.086   3.448   5.534 -0.4921  0.8918  0.8001
 1868SOL     OW 5892   3.792   2.265   0.846  0.4355 -0.3623 -0.9556
 1868SOL    HW1 5893   3.697   2.296   0.843  0.2070 -1.0759 -1.3727
 1868SOL    HW2 5894   3.803   2.198   0.919  0.8404  0.3882 -0.3055
 1869SOL     OW 5895   3.853   3.642   4.996 -0.7635 -0.8381 -0.1562
 1869SOL    HW1 5896   3.931   3.638   5.059 -1.1787 -3.1532  0.3186
 1869SOL    HW2 5897   3.780   3.697   5.036 -0.5167 -1.1971  0.8266
 1870SOL     OW 5898   0.375   2.895   3.855  0.4760  0.8347 -0.4112
 1870SOL    HW1 5899   0.448   2.859   3.913  0.4957  0.8159 -0.4475
 1870SOL    HW2 5900   0.386   2.860   3.762  0.3028  0.6710 -0.3683
 1871SOL     OW 5901   2.081   3.452   3.533  0.0700 -0.4840 -0.2614
 1871SOL    HW1 5902   2.111   3.430   3.441  2.7665  1.0636  0.1659
 1871SOL    HW2 5903   2.011   3.523   3.530  1.8655  1.3346 -1.1021
 1872SOL     OW 5904   0.693   5.901   3.062 -0.2386  0.1296  0.0989
 1872SOL    HW1 5905   0.716   5.991   3.100  1.6118  0.2184 -1.0852
 1872SOL    HW2 5906   0.734   5.893   2.970  0.4395 -2.2654  0.5482
 1873SOL     OW 5907   5.621   4.735   3.609  0.0230 -0.4605 -0.5502
 1873SOL    HW1 5908   5.683   4.765   3.536  0.7240  1.1221  0.6444
 1873SOL    HW2 5909   5.538   4.791   3.608 -1.0563 -1.9942 -1.5831
 1874SOL     OW 5910   3.092   1.922   2.236 -0.2273 -0.5062  0.6182
 1874SOL    HW1 5911   3.176   1.938   2.288  0.0461 -0.7330  0.2506
 1874SOL    HW2 5912   3.016   1.970   2.280 -0.1252 -1.1950  1.5801
 1875SOL     OW 5913   4.120   5.859   3.359  0.8799 -0.7126  0.2198
 1875SOL    HW1 5914   4.079   5.868   3.268 -0.4148  0.4674  0.8821
 1875SOL    HW2 5915   4.149   5.949   3.391  0.6268 -0.9904  1.2673
 1876SOL     OW 5916   2.114   3.032   5.920 -0.4920  0.0973  0.2052
 1876SOL    HW1 5917   2.105   2.938   5.955  0.9994 -0.7495 -1.5309
 1876SOL    HW2 5918   2.051   3.045   5.844 -0.6909  0.5168  0.4410
 1877SOL     OW 5919   4.120   3.068   1.640  0.4514  0.5983  0.7142
 1877SOL    HW1 5920   4.147   3.013   1.562 -0.7563 -0.5115  1.0502
 1877SOL    HW2 5921   4.185   3.143   1.652  0.9805  0.4445 -0.9771
 1878SOL     OW 5922   4.281   1.023   1.264 -0.1100  0.0548  0.2236
 1878SOL    HW1 5923   4.374   1.033   1.300  0.2072 -1.4201 -0.1120
 1878SOL    HW2 5924   4.241   1.113   1.250  0.8634  0.6988  1.4013
 1879SOL     OW 5925   5.562   2.874   4.900  0.0174 -0.1290 -0.5535
 1879SOL    HW1 5926   5.545   2.858   4.997 -1.4159 -1.4227 -0.9819
 1879SOL    HW2 5927   5.615   2.798   4.862  1.7223  0.9957 -0.5455
 1880SOL     OW 5928   4.067   3.432   2.693 -0.3266 -0.0636 -0.9921
 1880SOL    HW1 5929   3.985   3.376   2.703 -0.8613  0.4095 -2.3858
 1880SOL    HW2 5930   4.148   3.375   2.706 -0.8667 -0.7091 -0.3670
 1881SOL     OW 5931   0.305   5.449   3.424 -0.6392  0.0168 -0.5723
 1881SOL    HW1 5932   0.317   5.540   3.465 -1.1976  0.1229 -0.6378
 1881SOL    HW2 5933   0.260   5.458   3.336 -0.6438 -0.3239 -0.6064
 1882SOL     OW 5934   0.797   0.868   2.917  0.4700  0.9911 -0.3322
 1882SOL    HW1 5935   0.745   0.793   2.876  1.8278  0.7412 -1.6621
 1882SOL    HW2 5936   0.734   0.927   2.969 -0.5049 -1.5022  1.5259
 1883SOL     OW 5937   1.435   5.367   2.654 -0.1001 -0.6646 -0.5686
 1883SOL    HW1 5938   1.355   5.342   2.709 -0.7985  0.1391 -1.2039
 1883SOL    HW2 5939   1.415   5.449   2.601  1.1588 -0.4452 -0.7272
 1884SOL     OW 5940   5.449   0.443   3.013 -0.0830 -0.6696  0.0225
 1884SOL    HW1 5941   5.508   0.472   2.938 -0.8630 -0.2896 -0.4575
 1884SOL    HW2 5942   5.504   0.400   3.084  0.6655 -1.0522 -0.7732
 1885SOL     OW 5943   2.795   0.395   5.284 -0.7689 -0.6280 -0.0467
 1885SOL    HW1 5944   2.711   0.426   5.329 -1.0399 -0.5308 -0.6078
 1885SOL    HW2 5945   2.778   0.309   5.236 -0.6735 -0.3839 -0.5285
 1886SOL     OW 5946   3.670   5.640   2.629 -0.5456 -0.2441  0.3848
 1886SOL    HW1 5947   3.729   5.672   2.555  0.6845 -2.6344  0.2455
 1886SOL    HW2 5948   3.593   5.589   2.590 -1.5368  0.9469  0.6870
 1887SOL     OW 5949   4.454   4.474   0.999  1.0999 -0.0676  0.3498
 1887SOL    HW1 5950   4.436   4.526   1.083  0.1742  0.0935  0.0667
 1887SOL    HW2 5951   4.461   4.377   1.021 -2.6704 -0.5219  0.2565
 1888SOL     OW 5952   5.889   2.137   3.679 -0.5846 -0.1264 -0.2441
 1888SOL    HW1 5953   5.981   2.130   3.642 -0.4874 -0.5568  0.0748
 1888SOL    HW2 5954   5.822   2.124   3.606 -0.3958  0.7799 -0.5860
 1889SOL     OW 5955   1.342   5.486   2.090  0.5724 -0.1113  0.6047
 1889SOL    HW1 5956   1.401   5.566   2.101  0.3174  0.1585  0.0449
 1889SOL    HW2 5957   1.385   5.406   2.132  1.6269 -0.0557 -0.3196
 1890SOL     OW 5958   2.812   1.645   0.298  0.7492 -0.8604  0.2150
 1890SOL    HW1 5959   2.907   1.631   0.270  1.5535 -0.9697  2.7411
 1890SOL    HW2 5960   2.752   1.640   0.218  2.8228 -1.0587 -1.4022
 1891SOL     OW 5961   4.603   2.417   4.164  0.4669 -0.1429 -0.0778
 1891SOL    HW1 5962   4.641   2.476   4.093 -0.3763  0.6952  0.1445
 1891SOL    HW2 5963   4.671   2.405   4.237  1.5955 -1.5777 -1.3053
 1892SOL     OW 5964   1.971   0.165   1.535 -0.1045 -0.2290  0.2748
 1892SOL    HW1 5965   1.946   0.212   1.451  1.9789 -0.7927 -0.7245
 1892SOL    HW2 5966   2.067   0.182   1.555 -0.3472 -0.8101  2.0908
 1893SOL     OW 5967   0.365   4.925   1.930  0.2479  0.0835  0.4364
 1893SOL    HW1 5968   0.404   5.017   1.939 -1.4623  0.9050 -0.1100
 1893SOL    HW2 5969   0.266   4.932   1.925  0.1047 -1.8000  0.1783
 1894SOL     OW 5970   1.302   1.556   2.419 -0.3004 -0.4091  0.7846
 1894SOL    HW1 5971   1.298   1.656   2.420 -1.7406 -0.4101 -0.2798
 1894SOL    HW2 5972   1.209   1.519   2.420  0.1766 -1.7122  0.1609
 1895SOL     OW 5973   0.107   1.113   0.475  0.4793 -0.2008 -0.2246
 1895SOL    HW1 5974   0.104   1.097   0.574  1.5701  0.9406  0.0233
 1895SOL    HW2 5975   0.046   1.189   0.453  0.6346 -0.1102 -0.3438
 1896SOL     OW 5976   0.032   1.522   2.375 -0.2746  0.8191  0.4900
 1896SOL    HW1 5977   0.050   1.615   2.407  3.2277  0.6913 -0.6503
 1896SOL    HW2 5978   0.026   1.521   2.275  0.9411 -0.2427  0.3849
 1897SOL     OW 5979   0.247   3.542   5.491  0.0969 -0.5176 -0.2481
 1897SOL    HW1 5980   0.171   3.561   5.428  1.1911  1.1708 -1.1437
 1897SOL    HW2 5981   0.331   3.526   5.438  0.8954  0.2224  0.7541
 1898SOL     OW 5982   3.405   5.438   5.186 -0.4632  0.1699 -0.6331
 1898SOL    HW1 5983   3.491   5.488   5.194  0.2537 -0.8586 -1.7074
 1898SOL    HW2 5984   3.361   5.461   5.099 -0.6051 -0.3407 -0.6973
 1899SOL     OW 5985   2.654   4.350   0.655 -0.8987 -0.0404  0.1314
 1899SOL    HW1 5986   2.633   4.317   0.562  0.1819 -0.0919 -0.1093
 1899SOL    HW2 5987   2.643   4.276   0.720 -0.9135 -0.2107 -0.0643
 1900SOL     OW 5988   3.758   3.975   1.975  0.6275  0.0695  0.4923
 1900SOL    HW1 5989   3.847   3.948   2.011 -0.4297 -2.0558  1.7191
 1900SOL    HW2 5990   3.685   3.935   2.031 -1.1339  2.0859 -0.2074
 1901SOL     OW 5991   5.258   5.032   1.201 -0.1894 -0.1345 -0.5197
 1901SOL    HW1 5992   5.171   5.044   1.247 -0.2501 -0.7591 -0.4653
 1901SOL    HW2 5993   5.270   4.936   1.176  0.5381 -0.0801 -0.4071
 1902SOL     OW 5994   1.198   5.099   5.738  0.0401  0.2509 -0.0789
 1902SOL    HW1 5995   1.167   5.181   5.786 -1.3353 -0.2425 -0.0861
 1902SOL    HW2 5996   1.222   5.029   5.804  1.5395  0.7363 -0.0625
 1903SOL     OW 5997   1.288   0.014   5.278 -0.2641 -0.5601 -0.5473
 1903SOL    HW1 5998   1.190   0.028   5.264 -0.2279  0.8664  0.4764
 1903SOL    HW2 5999   1.309   0.024   5.375  0.9820 -0.4016 -0.8249
 1904SOL     OW 6000   4.469   1.872   4.035 -0.4280  0.2178  0.2465
 1904SOL    HW1 6001   4.397   1.851   3.969 -1.5174 -0.6291  1.6551
 1904SOL    HW2 6002   4.557   1.880   3.987 -1.7361  4.3196 -2.0497
 1905SOL     OW 6003   1.181   4.165   2.407 -0.0781  0.1612 -0.3059
 1905SOL    HW1 6004   1.252   4.181   2.339 -1.7265  0.5511 -2.0176
 1905SOL    HW2 6005   1.116   4.097   2.372 -0.1841 -0.7124  1.5036
 1906SOL     OW 6006   3.025   4.357   3.913 -0.4412  0.0551 -0.6095
 1906SOL    HW1 6007   3.002   4.295   3.988 -0.0965  0.5127 -0.1208
 1906SOL    HW2 6008   2.979   4.444   3.926  1.4001  0.9526  0.3242
 1907SOL     OW 6009   4.142   4.348   5.167 -0.0481  0.2683  0.1958
 1907SOL    HW1 6010   4.217   4.343   5.232 -0.4592  2.1906  0.8576
 1907SOL    HW2 6011   4.179   4.352   5.074  0.6731  1.3133  0.5200
 1908SOL     OW 6012   4.140   2.394   0.479  0.6049 -0.4847 -0.1486
 1908SOL    HW1 6013   4.104   2.318   0.424 -0.0852 -1.0714  1.0826
 1908SOL    HW2 6014   4.230   2.368   0.515 -0.2087 -1.3024  1.3830
 1909SOL     OW 6015   3.297   5.057   5.382 -0.8665  0.5578  0.4590
 1909SOL    HW1 6016   3.304   5.012   5.471  0.3163 -0.8487 -0.2927
 1909SOL    HW2 6017   3.240   5.001   5.321 -0.7721  0.9407  0.0149
 1910SOL     OW 6018   1.503   2.168   3.576  0.1748 -0.0198 -0.0832
 1910SOL    HW1 6019   1.432   2.203   3.515 -0.3671 -1.8831 -0.5777
 1910SOL    HW2 6020   1.585   2.223   3.567 -0.4217  0.6991 -1.3151
 1911SOL     OW 6021   0.962   3.048   3.776 -0.1901  0.3333  0.0380
 1911SOL    HW1 6022   1.059   3.026   3.765 -0.5286 -1.3673  0.1765
 1911SOL    HW2 6023   0.911   2.965   3.794 -1.3204  1.4779  2.7300
 1912SOL     OW 6024   3.128   5.100   0.664  0.1766 -0.3227 -0.1066
 1912SOL    HW1 6025   3.228   5.096   0.658  0.5734  3.0383  1.7648
 1912SOL    HW2 6026   3.091   5.127   0.575  0.8484 -1.9702 -0.9269
 1913SOL     OW 6027   5.245   0.574   3.149  0.3801 -0.1285 -0.5162
 1913SOL    HW1 6028   5.190   0.626   3.084  0.5644 -0.6185 -1.0744
 1913SOL    HW2 6029   5.318   0.526   3.100  1.4952  0.7370  0.2472
 1914SOL     OW 6030   5.494   0.739   0.031 -0.0048 -0.1486  0.2147
 1914SOL    HW1 6031   5.583   0.719   0.071  0.2048 -0.1903 -0.2660
 1914SOL    HW2 6032   5.433   0.776   0.101 -0.3965 -2.4117  1.1596
 1915SOL     OW 6033   1.705   3.980   3.661 -0.3702 -0.2478 -0.2549
 1915SOL    HW1 6034   1.797   3.980   3.700 -0.0521  2.6220 -0.8277
 1915SOL    HW2 6035   1.639   3.953   3.732  0.6083  0.6717  1.0465
 1916SOL     OW 6036   0.976   1.292   1.238  0.0884  0.1356  0.0957
 1916SOL    HW1 6037   1.054   1.271   1.178  1.1104 -0.3532  1.5503
 1916SOL    HW2 6038   0.969   1.391   1.249 -0.1222  0.2374 -0.8105
 1917SOL     OW 6039   4.819   5.340   4.176 -0.4707 -0.6879  0.2561
 1917SOL    HW1 6040   4.728   5.344   4.218  0.2111 -1.4542  1.9006
 1917SOL    HW2 6041   4.819   5.274   4.102 -1.1381 -1.0276  0.5512
 1918SOL     OW 6042   0.847   5.461   4.337 -0.8872  0.0672  0.1119
 1918SOL    HW1 6043   0.791   5.510   4.404 -1.1467 -0.5968  0.3883
 1918SOL    HW2 6044   0.805   5.373   4.316 -0.0259 -0.3779  0.2156
 1919SOL     OW 6045   3.584   5.198   4.046  0.1619  0.0579  0.5699
 1919SOL    HW1 6046   3.633   5.221   4.131  0.2959  1.2248  0.1975
 1919SOL    HW2 6047   3.638   5.228   3.968 -0.8222  0.7127  0.1317
 1920SOL     OW 6048   0.710   3.327   3.313  0.5495 -0.7037  0.4549
 1920SOL    HW1 6049   0.754   3.278   3.388 -1.2909 -0.0533  2.0425
 1920SOL    HW2 6050   0.660   3.405   3.349  1.4661  1.0245 -1.7447
 1921SOL     OW 6051   0.437   4.552   1.780  0.4190 -0.1750 -0.2886
 1921SOL    HW1 6052   0.384   4.594   1.707  0.7621 -0.7765 -0.8936
 1921SOL    HW2 6053   0.436   4.611   1.861 -0.9617 -0.0620 -0.3691
 1922SOL     OW 6054   0.573   0.038   5.709 -0.3236  0.2965 -0.3850
 1922SOL    HW1 6055   0.649   0.094   5.676  0.6200  0.1070  1.3169
 1922SOL    HW2 6056   0.524   0.088   5.780 -0.6455 -0.2955 -0.1872
 1923SOL     OW 6057   3.341   4.129   4.607 -0.0592  0.3981 -0.6331
 1923SOL    HW1 6058   3.267   4.106   4.545  1.0934  0.8143 -2.2352
 1923SOL    HW2 6059   3.421   4.158   4.554  0.9797  0.7654  1.0573
 1924SOL     OW 6060   0.267   1.181   4.500  0.1138  0.3704  0.9319
 1924SOL    HW1 6061   0.339   1.112   4.502  1.1989  1.4739  2.1605
 1924SOL    HW2 6062   0.259   1.219   4.408  0.8854  0.0055  0.7065
 1925SOL     OW 6063   2.411   3.540   3.483  0.7000  0.7154  0.0993
 1925SOL    HW1 6064   2.453   3.454   3.512  0.4502  1.1822  2.0161
 1925SOL    HW2 6065   2.404   3.542   3.384  3.6955 -0.0910 -0.2255
 1926SOL     OW 6066   3.491   5.422   3.146 -0.7210  0.0364  0.3483
 1926SOL    HW1 6067   3.463   5.495   3.208 -0.7402  0.0475  0.3269
 1926SOL    HW2 6068   3.432   5.342   3.161 -0.2694 -0.2139  0.8411
 1927SOL     OW 6069   0.241   0.121   4.579  0.2112  0.5392  0.3681
 1927SOL    HW1 6070   0.296   0.181   4.638 -0.1197  0.3003  0.9256
 1927SOL    HW2 6071   0.177   0.068   4.636 -0.8627  1.0915 -0.3015
 1928SOL     OW 6072   2.796   4.544   1.958  0.5372 -0.0407  0.1766
 1928SOL    HW1 6073   2.763   4.626   1.912  3.1866  1.0766  0.0909
 1928SOL    HW2 6074   2.854   4.492   1.896  1.5097 -0.2386  1.2247
 1929SOL     OW 6075   4.374   5.405   2.134  0.2545  0.5629 -0.3645
 1929SOL    HW1 6076   4.319   5.486   2.113  0.4770  0.4204 -1.5537
 1929SOL    HW2 6077   4.433   5.425   2.212 -0.7151  1.0644  0.2607
 1930SOL     OW 6078   5.168   2.595   0.023 -0.2314  0.1218  0.3905
 1930SOL    HW1 6079   5.225   2.593  -0.059 -1.1354 -0.2847 -0.2434
 1930SOL    HW2 6080   5.226   2.586   0.104  0.7279  1.0798 -0.1657
 1931SOL     OW 6081   4.810   3.213   4.668 -0.4243  0.8301 -1.1117
 1931SOL    HW1 6082   4.845   3.169   4.585 -0.1343  1.2653 -1.2247
 1931SOL    HW2 6083   4.717   3.181   4.686  0.9115 -2.5917  0.7661
 1932SOL     OW 6084   1.266   3.694   5.363  0.3815 -0.0983  0.2327
 1932SOL    HW1 6085   1.303   3.757   5.294  1.2339 -0.5862  0.2180
 1932SOL    HW2 6086   1.309   3.713   5.451 -2.7628  2.4361  1.4070
 1933SOL     OW 6087   0.074   3.792   0.174 -0.3330 -0.1600 -0.1440
 1933SOL    HW1 6088   0.145   3.857   0.147  0.0981  0.5263  2.3536
 1933SOL    HW2 6089   0.102   3.699   0.149  1.1114  0.1849  0.0978
 1934SOL     OW 6090   1.393   5.895   5.031 -0.3883 -0.2403 -0.0779
 1934SOL    HW1 6091   1.388   5.933   5.123 -0.1314 -0.8043  0.1695
 1934SOL    HW2 6092   1.344   5.956   4.967  0.5862  0.8441  0.1874
 1935SOL     OW 6093   0.453   0.024   2.804  0.4149  0.4128 -0.1889
 1935SOL    HW1 6094   0.534   0.082   2.808 -0.0803  1.1766 -0.8848
 1935SOL    HW2 6095   0.473  -0.065   2.845  1.5838  0.6077 -0.3127
 1936SOL     OW 6096   3.627   0.297   1.002 -0.0422 -0.0803  0.0065
 1936SOL    HW1 6097   3.584   0.275   1.089  0.7273 -0.7684  0.2211
 1936SOL    HW2 6098   3.669   0.215   0.963  0.6853  0.4730 -0.4128
 1937SOL     OW 6099   0.766   5.865   0.868  0.3023  0.1814 -0.4715
 1937SOL    HW1 6100   0.723   5.776   0.856 -0.2433  0.4146 -0.3109
 1937SOL    HW2 6101   0.759   5.917   0.783  0.4169  0.1579 -0.4954
 1938SOL     OW 6102   4.278   1.169   3.025  0.1769  0.5410 -0.1297
 1938SOL    HW1 6103   4.339   1.183   3.102  2.3028  1.6826 -1.8922
 1938SOL    HW2 6104   4.185   1.194   3.050  0.4478 -0.8031  2.5130
 1939SOL     OW 6105   3.098   4.555   0.187  0.0725 -0.9223  0.2301
 1939SOL    HW1 6106   3.083   4.538   0.285 -0.2209 -1.8798  0.0329
 1939SOL    HW2 6107   3.013   4.583   0.145  0.8119  2.6806  0.8117
 1940SOL     OW 6108   0.462   3.828   1.534  0.1234  0.3726  0.0287
 1940SOL    HW1 6109   0.378   3.876   1.558 -2.0717 -0.8179 -4.1810
 1940SOL    HW2 6110   0.505   3.873   1.455  0.1385 -2.1966 -1.5531
 1941SOL     OW 6111   1.065   0.740   4.028 -0.3449 -0.3011 -0.2407
 1941SOL    HW1 6112   0.988   0.767   4.085 -0.1652 -0.1420 -0.0695
 1941SOL    HW2 6113   1.037   0.739   3.932 -0.1481  1.3136 -0.3461
 1942SOL     OW 6114   1.893   1.892   2.643  0.4264  0.1480 -0.6781
 1942SOL    HW1 6115   1.868   1.795   2.645  1.8316 -0.2275 -0.6284
 1942SOL    HW2 6116   1.813   1.946   2.617  0.0874 -1.1668 -2.5185
 1943SOL     OW 6117   0.746   0.387   0.231  0.2012 -0.8445  0.2878
 1943SOL    HW1 6118   0.785   0.300   0.202  0.7255 -0.4544 -0.1976
 1943SOL    HW2 6119   0.819   0.451   0.253 -0.1496 -0.0016 -0.9391
 1944SOL     OW 6120   5.079   0.191   0.434  0.2312 -0.2394 -0.1123
 1944SOL    HW1 6121   5.023   0.262   0.391  2.2967  0.8147 -1.2389
 1944SOL    HW2 6122   5.023   0.137   0.495 -2.1155  0.3752 -1.5946
 1945SOL     OW 6123   5.800   5.383   5.075  0.1891 -0.4689 -0.3154
 1945SOL    HW1 6124   5.853   5.457   5.033 -0.1543  0.2374  0.4900
 1945SOL    HW2 6125   5.715   5.371   5.024 -1.1989  1.7728  1.3062
 1946SOL     OW 6126   1.313   4.412   5.144  0.4103  0.3571 -0.2548
 1946SOL    HW1 6127   1.285   4.449   5.232 -1.9392  0.8478 -1.1525
 1946SOL    HW2 6128   1.395   4.459   5.113 -0.3761  2.2091  0.3567
 1947SOL     OW 6129   2.998   3.400   2.808  0.6243 -0.1974 -0.0081
 1947SOL    HW1 6130   2.960   3.436   2.722 -1.5287  0.8786  1.2972
 1947SOL    HW2 6131   2.960   3.309   2.825  0.8905 -0.3249 -0.0949
 1948SOL     OW 6132   5.333   3.971   4.024 -0.7351 -0.4538  0.1396
 1948SOL    HW1 6133   5.239   3.937   4.019 -0.5112 -1.2219  0.9617
 1948SOL    HW2 6134   5.362   4.001   3.933 -0.8301 -2.8350 -0.7413
 1949SOL     OW 6135   0.254   5.102   1.504 -0.0888  0.4604  0.4101
 1949SOL    HW1 6136   0.349   5.113   1.476  0.1768  0.3093  1.2144
 1949SOL    HW2 6137   0.246   5.121   1.602 -0.8176  0.0906  0.4270
 1950SOL     OW 6138   5.013   4.086   3.786 -0.8047 -0.7219 -0.1727
 1950SOL    HW1 6139   4.986   4.165   3.731  0.0641  1.4231  2.2913
 1950SOL    HW2 6140   5.110   4.093   3.807 -1.3375 -0.7295  2.6181
 1951SOL     OW 6141   1.422   0.423   4.111  0.2984 -0.1176  0.5181
 1951SOL    HW1 6142   1.405   0.514   4.073  0.3964 -0.6287 -0.8247
 1951SOL    HW2 6143   1.356   0.404   4.184  0.4734  1.1330  1.0275
 1952SOL     OW 6144   1.747   0.478   1.135 -0.4633 -0.3041  0.6430
 1952SOL    HW1 6145   1.665   0.465   1.080 -1.0353  0.0061  1.3930
 1952SOL    HW2 6146   1.807   0.544   1.090 -1.1301  0.2912  0.6056
 1953SOL     OW 6147   5.336   2.837   2.870  0.4649 -0.1419 -0.0795
 1953SOL    HW1 6148   5.373   2.745   2.875  0.3713 -0.1390  0.9829
 1953SOL    HW2 6149   5.290   2.859   2.956 -1.8938 -0.0955 -1.2431
 1954SOL     OW 6150   4.493   5.916   1.502  0.5914 -0.2539 -0.1967
 1954SOL    HW1 6151   4.563   5.899   1.433  1.5020  1.7122  0.1882
 1954SOL    HW2 6152   4.510   5.858   1.582  1.5891 -0.0605 -0.2538
 1955SOL     OW 6153   4.494   0.351   1.025  0.1664 -0.0223 -0.7183
 1955SOL    HW1 6154   4.580   0.331   0.978  1.0972  1.1628  0.3708
 1955SOL    HW2 6155   4.511   0.421   1.095 -1.6320 -0.0171 -0.2472
 1956SOL     OW 6156   3.082   1.194   5.104  0.0617  0.7318 -0.1932
 1956SOL    HW1 6157   3.125   1.164   5.189  0.5450 -1.1645 -1.0613
 1956SOL    HW2 6158   3.120   1.143   5.027 -1.4290  1.3315 -1.3857
 1957SOL     OW 6159   3.447   0.979   3.668 -0.2573  0.0276 -0.2616
 1957SOL    HW1 6160   3.446   1.075   3.697  1.2381  0.7119 -2.2479
 1957SOL    HW2 6161   3.398   0.971   3.581 -0.3373 -1.0192 -0.1260
 1958SOL     OW 6162   4.929   3.389   1.966 -0.1449 -0.2765  0.2226
 1958SOL    HW1 6163   4.918   3.297   2.003  1.4497  0.1220  1.8547
 1958SOL    HW2 6164   4.840   3.425   1.939 -1.1409 -1.3868  1.8205
 1959SOL     OW 6165   3.841   4.574   0.652  0.1068  0.3606 -0.7534
 1959SOL    HW1 6166   3.895   4.491   0.637  1.4225  1.1894 -0.6806
 1959SOL    HW2 6167   3.859   4.610   0.743 -2.6778 -0.8303  0.3884
 1960SOL     OW 6168   3.062   4.745   0.836 -0.2812  0.1487 -0.1401
 1960SOL    HW1 6169   2.990   4.750   0.766 -0.1549  0.6713 -0.2422
 1960SOL    HW2 6170   3.144   4.791   0.802 -0.2910  0.5939  0.4317
 1961SOL     OW 6171   3.151   3.018   2.781 -0.2201  0.6459 -0.3567
 1961SOL    HW1 6172   3.067   3.072   2.782  0.2146  1.3358  0.0027
 1961SOL    HW2 6173   3.185   3.009   2.874 -0.0028  0.1999 -0.4805
 1962SOL     OW 6174   3.338   1.137   3.052  0.4117 -0.1873  0.3291
 1962SOL    HW1 6175   3.291   1.155   2.965  1.5327 -2.3708 -0.8292
 1962SOL    HW2 6176   3.292   1.063   3.100 -0.1599  0.9632  1.6191
 1963SOL     OW 6177   2.567   1.838   0.415  0.0029 -0.8502  0.0854
 1963SOL    HW1 6178   2.573   1.835   0.315 -2.2931  0.7514 -0.1804
 1963SOL    HW2 6179   2.517   1.757   0.448  0.9197 -1.4719 -0.0213
 1964SOL     OW 6180   1.787   0.122   0.504 -0.5796 -0.4971 -0.3319
 1964SOL    HW1 6181   1.768   0.169   0.590  0.8359 -2.6672  1.2590
 1964SOL    HW2 6182   1.705   0.073   0.474 -1.5194  1.4110 -1.0749
 1965SOL     OW 6183   5.379   1.043   2.986 -0.1184  0.4993 -0.1221
 1965SOL    HW1 6184   5.389   1.116   3.053  0.4268 -1.2671  1.8259
 1965SOL    HW2 6185   5.365   1.083   2.895 -1.9937  2.9824  1.1295
 1966SOL     OW 6186   4.322   4.571   3.343 -0.3080 -0.0222 -0.1378
 1966SOL    HW1 6187   4.270   4.489   3.319 -0.0288 -0.7056  1.4127
 1966SOL    HW2 6188   4.420   4.550   3.340 -0.2491 -0.4203  2.2036
 1967SOL     OW 6189   0.952   2.617   4.541 -0.1782 -0.2743 -0.3440
 1967SOL    HW1 6190   0.993   2.618   4.450 -1.8104  0.3327 -1.1028
 1967SOL    HW2 6191   0.863   2.571   4.537  0.0588 -0.9239  1.1124
 1968SOL     OW 6192   5.700   3.554   3.102 -0.6259 -0.5984 -0.4012
 1968SOL    HW1 6193   5.749   3.499   3.035 -1.2210 -0.2539 -1.1248
 1968SOL    HW2 6194   5.762   3.623   3.141 -0.4051 -0.4824 -0.9530
 1969SOL     OW 6195   0.727   0.318   4.099  0.0232 -0.0857 -0.0035
 1969SOL    HW1 6196   0.677   0.404   4.114 -1.0299 -0.6742 -0.0425
 1969SOL    HW2 6197   0.775   0.323   4.012 -2.4365 -0.5995 -1.4936
 1970SOL     OW 6198   1.880   3.258   5.185 -0.0612 -0.2749 -0.0062
 1970SOL    HW1 6199   1.792   3.215   5.168  0.2460 -0.9745  0.1435
 1970SOL    HW2 6200   1.901   3.253   5.283 -0.7524  1.6579  0.2963
 1971SOL     OW 6201   0.660   1.643   1.897  0.6474  0.2406  0.4968
 1971SOL    HW1 6202   0.755   1.656   1.869  0.6860  0.5896  0.7746
 1971SOL    HW2 6203   0.606   1.723   1.870  0.0327 -0.7269 -1.2717
 1972SOL     OW 6204   5.761   1.633   0.893  0.4638 -0.0803 -0.1521
 1972SOL    HW1 6205   5.694   1.705   0.908 -0.5166 -1.1212  0.6656
 1972SOL    HW2 6206   5.750   1.597   0.800  0.5388  0.3901 -0.3470
 1973SOL     OW 6207   0.036   1.432   3.556 -0.0378  0.2220 -0.1515
 1973SOL    HW1 6208   0.003   1.407   3.647  0.7497  0.8827  0.3251
 1973SOL    HW2 6209   0.049   1.349   3.502  0.0882 -0.2277  0.5475
 1974SOL     OW 6210   5.320   5.210   2.630 -0.6560  0.1805 -0.8123
 1974SOL    HW1 6211   5.420   5.216   2.630 -0.6380 -0.0813 -1.1548
 1974SOL    HW2 6212   5.292   5.131   2.684 -0.6540 -0.0885 -1.2050
 1975SOL     OW 6213   3.972   5.267   4.378 -0.2816  0.3659 -0.2254
 1975SOL    HW1 6214   4.038   5.341   4.364 -1.8092  1.5509 -1.6450
 1975SOL    HW2 6215   3.995   5.189   4.321  1.1181 -0.1386  0.9770
 1976SOL     OW 6216   5.768   2.522   1.147 -0.2591 -0.2307 -0.0745
 1976SOL    HW1 6217   5.856   2.498   1.189 -0.7137 -0.3050  0.8644
 1976SOL    HW2 6218   5.769   2.618   1.119  0.3062 -0.3736 -0.5661
 1977SOL     OW 6219   2.481   1.015   1.125 -0.5135 -0.6931  1.1898
 1977SOL    HW1 6220   2.581   1.009   1.132 -0.4486 -1.6473 -0.1365
 1977SOL    HW2 6221   2.440   0.989   1.213  0.3603 -2.6648  1.0711
 1978SOL     OW 6222   4.966   0.771   0.744 -0.0024 -0.0292 -0.2328
 1978SOL    HW1 6223   4.917   0.692   0.780  0.3713 -1.0666 -1.8871
 1978SOL    HW2 6224   5.006   0.823   0.819 -0.0959 -1.5087  0.8748
 1979SOL     OW 6225   4.318   3.273   5.014 -0.0695  0.2622  0.3079
 1979SOL    HW1 6226   4.284   3.314   4.930  0.9804  0.4615 -0.0328
 1979SOL    HW2 6227   4.344   3.178   4.997 -0.7503  0.0116  0.6432
 1980SOL     OW 6228   3.035   1.950   5.800 -0.2982  0.0707 -0.1978
 1980SOL    HW1 6229   3.017   1.869   5.744 -0.9367  0.2211 -0.2096
 1980SOL    HW2 6230   3.120   1.936   5.851 -0.0390 -0.3227 -0.7238
 1981SOL     OW 6231   5.057   4.150   3.162  0.1493  0.2598  0.0647
 1981SOL    HW1 6232   5.146   4.120   3.126 -1.9865 -3.2803 -3.1002
 1981SOL    HW2 6233   5.013   4.209   3.095 -1.2872 -1.0515 -0.2006
 1982SOL     OW 6234   1.310   5.234   0.858 -0.1426  0.0900  0.4481
 1982SOL    HW1 6235   1.381   5.203   0.795  0.6574  0.0099  1.3814
 1982SOL    HW2 6236   1.338   5.217   0.952 -0.5343  1.8293  0.9267
 1983SOL     OW 6237   0.266   4.479   1.282  0.0139  0.4135  0.0602
 1983SOL    HW1 6238   0.198   4.542   1.245 -1.0556 -0.3353  0.7040
 1983SOL    HW2 6239   0.357   4.506   1.250 -0.5092  1.7746 -0.3483
 1984SOL     OW 6240   4.467   4.222   2.516  0.7715 -0.0273  0.4037
 1984SOL    HW1 6241   4.468   4.199   2.613 -0.1981  0.8834  0.6491
 1984SOL    HW2 6242   4.531   4.163   2.467 -0.9518 -2.6578  1.1180
 1985SOL     OW 6243   4.868   0.376   4.559  0.0460  0.5910 -0.2406
 1985SOL    HW1 6244   4.814   0.323   4.493  1.6940  0.1004 -1.2427
 1985SOL    HW2 6245   4.903   0.315   4.631 -2.6296  1.2792  1.8279
 1986SOL     OW 6246   1.767   0.520   5.672  0.3230  0.2498  0.5633
 1986SOL    HW1 6247   1.808   0.603   5.711 -0.6783  0.9796  0.0762
 1986SOL    HW2 6248   1.840   0.457   5.646  1.1392  1.4059 -0.0263
 1987SOL     OW 6249   4.613   1.434   3.351 -0.4267 -0.6067  0.4913
 1987SOL    HW1 6250   4.634   1.462   3.258  3.4602 -3.7362  0.1573
 1987SOL    HW2 6251   4.540   1.366   3.350  0.5475 -1.6747 -0.5239
 1988SOL     OW 6252   0.818   4.713   4.267 -0.2849  0.7545  0.1619
 1988SOL    HW1 6253   0.869   4.797   4.282 -0.4628  0.8131  0.4504
 1988SOL    HW2 6254   0.837   4.677   4.176  1.2303  0.1209  0.6894
 1989SOL     OW 6255   3.200   4.181   0.341 -0.3541 -0.0238  0.6242
 1989SOL    HW1 6256   3.157   4.209   0.256 -1.3491 -1.3944  0.6322
 1989SOL    HW2 6257   3.134   4.185   0.416  0.5081  1.1645  1.3514
 1990SOL     OW 6258   3.274   2.192   3.088  0.1661 -0.0741 -0.2836
 1990SOL    HW1 6259   3.269   2.113   3.027  0.5027 -1.4235  1.3781
 1990SOL    HW2 6260   3.199   2.188   3.154 -0.5906  1.7303 -0.9543
 1991SOL     OW 6261   4.859   5.553   3.939 -0.6204 -0.4754 -0.0865
 1991SOL    HW1 6262   4.849   5.481   4.008 -0.8380 -0.2159  0.1536
 1991SOL    HW2 6263   4.782   5.616   3.946 -0.0323  0.2232  0.2224
 1992SOL     OW 6264   3.094   1.313   0.650  0.9239  0.4334  0.4855
 1992SOL    HW1 6265   3.014   1.318   0.591  0.3639 -0.6871  1.1174
 1992SOL    HW2 6266   3.137   1.404   0.656  0.8341  0.6303 -1.3761
 1993SOL     OW 6267   0.957   2.267   4.962 -0.1228 -0.3070 -0.0595
 1993SOL    HW1 6268   0.999   2.253   4.872 -0.8783 -0.4105 -0.4021
 1993SOL    HW2 6269   1.028   2.263   5.033  0.4472 -0.4468 -0.6290
 1994SOL     OW 6270   5.767   1.616   0.197  0.4403  0.1475  1.1122
 1994SOL    HW1 6271   5.748   1.525   0.235  0.8173 -0.3699  0.0953
 1994SOL    HW2 6272   5.837   1.609   0.126 -0.5860  1.0151 -0.0191
 1995SOL     OW 6273   1.591   2.741   2.436 -0.1380  0.2754 -0.1356
 1995SOL    HW1 6274   1.636   2.657   2.463  0.2167  0.1598 -1.0331
 1995SOL    HW2 6275   1.629   2.773   2.349 -0.1037  1.4905  0.3051
 1996SOL     OW 6276   4.720   0.228   4.377  0.4080  0.0767  0.1523
 1996SOL    HW1 6277   4.786   0.154   4.368 -0.4652 -0.5811 -1.0081
 1996SOL    HW2 6278   4.741   0.299   4.309  0.1685  0.0635  0.0664
 1997SOL     OW 6279   2.772   1.197   0.402 -0.1429 -0.0210  0.0717
 1997SOL    HW1 6280   2.809   1.284   0.435  0.4084  0.3421 -1.4312
 1997SOL    HW2 6281   2.847   1.139   0.370 -0.5279 -0.9813  0.8706
 1998SOL     OW 6282   5.826   4.130   3.483  0.7056 -1.1760 -0.1316
 1998SOL    HW1 6283   5.799   4.169   3.395  1.2626 -0.6407 -0.0718
 1998SOL    HW2 6284   5.757   4.064   3.513 -0.9238  0.6637  0.3752
 1999SOL     OW 6285   4.202   5.225   0.021 -0.0584 -0.0854  0.2473
 1999SOL    HW1 6286   4.291   5.193  -0.011  0.6893  0.1161  2.0193
 1999SOL    HW2 6287   4.172   5.169   0.098 -1.2113  0.2080  0.0292
 2000SOL     OW 6288   0.666   5.454   3.178  0.0860  0.0496  0.2366
 2000SOL    HW1 6289   0.703   5.518   3.110  0.0162  1.0883  1.1574
 2000SOL    HW2 6290   0.597   5.396   3.134 -1.2314  1.8664 -0.2190
 2001SOL     OW 6291   0.661   4.391   4.990 -0.2322  0.1956 -0.2900
 2001SOL    HW1 6292   0.597   4.421   4.920  0.4356  0.5532 -0.7589
 2001SOL    HW2 6293   0.749   4.368   4.947 -0.3008 -1.1402  0.2166
 2002SOL     OW 6294   3.208   5.307   5.327 -0.0176  0.1760 -0.3680
 2002SOL    HW1 6295   3.268   5.367   5.274  1.6097 -0.1904  0.9752
 2002SOL    HW2 6296   3.261   5.231   5.364 -1.5927 -0.8681 -0.1854
 2003SOL     OW 6297   0.778   0.478   2.946  0.7627 -0.3614 -0.4504
 2003SOL    HW1 6298   0.804   0.520   3.033 -0.6005 -0.5618  0.0756
 2003SOL    HW2 6299   0.717   0.540   2.896  0.0543 -1.0181 -0.4129
 2004SOL     OW 6300   4.191   2.093   4.830  0.1936 -0.0267  0.4106
 2004SOL    HW1 6301   4.122   2.035   4.874  0.1770 -0.6230 -0.3801
 2004SOL    HW2 6302   4.149   2.146   4.758  0.2778  0.7340  0.9119
 2005SOL     OW 6303   0.930   0.664   5.613  0.3210  0.0920 -0.1671
 2005SOL    HW1 6304   1.026   0.644   5.633  0.2567  0.5058  0.6229
 2005SOL    HW2 6305   0.872   0.604   5.668  0.1350  0.9974  0.6495
 2006SOL     OW 6306   1.106   2.434   4.245  0.2072 -0.2724  0.4986
 2006SOL    HW1 6307   1.168   2.450   4.321 -0.6502 -0.7755  1.3202
 2006SOL    HW2 6308   1.096   2.335   4.230 -1.0751 -0.2288  0.9632
 2007SOL     OW 6309   3.568   1.066   2.775 -0.1637 -0.6179 -0.7889
 2007SOL    HW1 6310   3.615   0.989   2.734  0.1770 -0.8842  0.0874
 2007SOL    HW2 6311   3.543   1.045   2.870 -0.5129  0.1545 -0.6933
 2008SOL     OW 6312   1.678   1.125   4.176  0.0385 -0.5830  0.7280
 2008SOL    HW1 6313   1.664   1.157   4.270  2.2529  1.3886  0.4735
 2008SOL    HW2 6314   1.591   1.127   4.127 -0.5849  1.7561  1.7663
 2009SOL     OW 6315   5.415   4.835   5.496 -0.4056  0.0707 -0.2873
 2009SOL    HW1 6316   5.416   4.915   5.436 -1.9738 -0.8055 -1.5495
 2009SOL    HW2 6317   5.411   4.751   5.440  0.9265 -0.9167  1.0019
 2010SOL     OW 6318   5.324   3.267   1.973 -0.1677  0.0359  0.3374
 2010SOL    HW1 6319   5.234   3.246   1.935 -0.6615 -0.4774  1.7589
 2010SOL    HW2 6320   5.389   3.279   1.898 -1.4300  0.5549 -0.7190
 2011SOL     OW 6321   2.623   5.514   4.233  0.3058  0.7708 -0.5575
 2011SOL    HW1 6322   2.586   5.520   4.140 -0.4254  1.0282 -0.2604
 2011SOL    HW2 6323   2.619   5.605   4.275 -0.7387  0.3678  0.2349
 2012SOL     OW 6324   5.979   4.489   5.302  0.1546 -0.1136  0.6726
 2012SOL    HW1 6325   5.971   4.392   5.278 -1.9779  0.4959 -1.5704
 2012SOL    HW2 6326   5.914   4.542   5.246  0.8649  2.5546  2.2197
 2013SOL     OW 6327   1.027   5.293   5.102 -0.0442 -0.3782  0.1345
 2013SOL    HW1 6328   1.048   5.378   5.150 -0.4039 -1.5500  2.4957
 2013SOL    HW2 6329   1.040   5.306   5.003 -1.3355  2.7751  0.2754
 2014SOL     OW 6330   3.176   2.861   3.426  0.0699  0.0301 -0.2561
 2014SOL    HW1 6331   3.242   2.850   3.500 -1.3057  0.3897  1.0691
 2014SOL    HW2 6332   3.164   2.959   3.407 -0.6114  0.0076  0.0291
 2015SOL     OW 6333   2.773   3.356   1.985 -0.4305 -0.3279 -0.1969
 2015SOL    HW1 6334   2.711   3.336   2.061 -0.7655  0.6383 -0.2016
 2015SOL    HW2 6335   2.814   3.271   1.952 -0.6058 -0.8128  0.7832
 2016SOL     OW 6336   2.306   0.989   5.240  0.3464  0.4616  0.7720
 2016SOL    HW1 6337   2.228   0.926   5.249  2.5449 -3.2003 -2.4237
 2016SOL    HW2 6338   2.364   0.982   5.320 -1.0899  1.0229  1.9060
 2017SOL     OW 6339   1.320   4.385   2.089  0.3093 -0.4071  0.3256
 2017SOL    HW1 6340   1.376   4.457   2.130  0.7503 -0.3183 -0.4169
 2017SOL    HW2 6341   1.330   4.301   2.143 -0.4052  0.1380  1.3416
 2018SOL     OW 6342   4.823   5.274   2.082  0.2518 -0.4660  0.4449
 2018SOL    HW1 6343   4.741   5.218   2.070  1.4277 -2.1065 -0.3988
 2018SOL    HW2 6344   4.866   5.289   1.993  1.9128 -1.3315  1.0557
 2019SOL     OW 6345   4.852   2.645   3.419 -0.0514 -0.6572  0.1295
 2019SOL    HW1 6346   4.795   2.719   3.385 -0.5804 -0.8822  0.5152
 2019SOL    HW2 6347   4.800   2.590   3.485  1.1452  0.1692  1.8269
 2020SOL     OW 6348   4.711   3.559   5.104  0.1013 -0.9844  0.4446
 2020SOL    HW1 6349   4.672   3.467   5.105 -0.8653 -0.6464 -1.2895
 2020SOL    HW2 6350   4.701   3.601   5.194 -1.0383 -1.9427  0.7888
 2021SOL     OW 6351   3.272   1.671   0.359 -0.3835  0.5062  0.5901
 2021SOL    HW1 6352   3.273   1.769   0.341 -1.1927  0.3070 -0.6841
 2021SOL    HW2 6353   3.359   1.630   0.331 -0.7879  0.5642 -0.8118
 2022SOL     OW 6354   3.867   0.234   2.089  0.0279  0.7889  0.6549
 2022SOL    HW1 6355   3.870   0.138   2.061  0.5312  0.6692  1.1192
 2022SOL    HW2 6356   3.917   0.246   2.174 -0.6447  1.3396  0.9804
 2023SOL     OW 6357   0.382   4.087   2.655 -0.4401  0.2856 -0.4299
 2023SOL    HW1 6358   0.415   4.178   2.676 -1.4271 -0.0278  3.1640
 2023SOL    HW2 6359   0.387   4.071   2.556  1.0242  3.6515 -1.0215
 2024SOL     OW 6360   2.318   5.914   1.132 -0.0837  0.5406  0.2864
 2024SOL    HW1 6361   2.349   5.981   1.199  0.6506  1.1052 -0.5871
 2024SOL    HW2 6362   2.394   5.854   1.107 -0.5241 -0.1013  0.4522
 2025SOL     OW 6363   2.567   2.837   2.986 -0.7533 -0.2240  0.3700
 2025SOL    HW1 6364   2.641   2.904   2.985 -0.4631 -0.5336  0.5217
 2025SOL    HW2 6365   2.605   2.746   2.966 -1.2011 -0.2858 -0.2263
 2026SOL     OW 6366   1.879   3.409   3.126  0.1551  0.0052  0.3290
 2026SOL    HW1 6367   1.966   3.378   3.088 -0.3786  1.4907 -2.3493
 2026SOL    HW2 6368   1.813   3.334   3.124  0.6600 -0.4349 -0.0140
 2027SOL     OW 6369   1.837   2.097   1.856  0.4360  0.2635  0.1483
 2027SOL    HW1 6370   1.830   2.137   1.947  0.5072 -1.8205  1.1030
 2027SOL    HW2 6371   1.929   2.114   1.820  1.0387 -0.5023  1.2666
 2028SOL     OW 6372   5.752   5.714   1.719  0.2971  0.0039 -0.2426
 2028SOL    HW1 6373   5.764   5.781   1.646  2.2358 -0.4826 -0.4232
 2028SOL    HW2 6374   5.775   5.755   1.807 -1.6532  0.4719  0.0904
 2029SOL     OW 6375   0.693   3.672   3.075 -0.0582  0.4333 -0.6483
 2029SOL    HW1 6376   0.701   3.742   3.004 -0.8378  0.1674 -1.0206
 2029SOL    HW2 6377   0.688   3.716   3.164 -3.0167  1.0825 -1.0188
 2030SOL     OW 6378   4.182   0.904   0.332 -0.4056 -0.2727 -0.0122
 2030SOL    HW1 6379   4.136   0.868   0.251 -1.2701 -2.2137  1.2727
 2030SOL    HW2 6380   4.157   1.000   0.344 -0.0964  0.1226 -2.1061
 2031SOL     OW 6381   3.238   5.752   1.760  0.0222 -0.1843 -0.5808
 2031SOL    HW1 6382   3.279   5.783   1.674  1.5191  0.8357  0.4740
 2031SOL    HW2 6383   3.266   5.812   1.835 -2.9922  0.2368  0.3189
 2032SOL     OW 6384   3.694   5.612   1.097  0.2838  0.4497  0.0904
 2032SOL    HW1 6385   3.699   5.539   1.028  0.1226  0.9072 -0.4091
 2032SOL    HW2 6386   3.635   5.685   1.064 -1.7133 -0.3542  1.6618
 2033SOL     OW 6387   4.058   3.946   2.057  0.0162 -0.5366 -0.1846
 2033SOL    HW1 6388   4.126   3.944   2.131  0.4437 -1.5344 -0.5823
 2033SOL    HW2 6389   4.105   3.931   1.969 -0.4094  1.1654 -0.7251
 2034SOL     OW 6390   2.578   0.091   5.472 -0.8536  0.0132  0.4770
 2034SOL    HW1 6391   2.646   0.067   5.541 -0.4389 -1.1671 -0.3121
 2034SOL    HW2 6392   2.506   0.147   5.514  1.1923  2.3735  1.0774
 2035SOL     OW 6393   1.412   4.036   5.908 -0.0629 -0.1230 -0.4207
 2035SOL    HW1 6394   1.316   4.040   5.880  0.5262  1.1060 -2.5225
 2035SOL    HW2 6395   1.446   4.129   5.923  0.1862 -0.6383  2.8273
 2036SOL     OW 6396   4.179   0.038   0.011 -0.4580  0.1377 -0.2465
 2036SOL    HW1 6397   4.217  -0.053  -0.006  0.2009  0.6043 -1.4287
 2036SOL    HW2 6398   4.252   0.106   0.007 -1.2923  1.0171 -2.1778
 2037SOL     OW 6399   1.345   3.167   2.953  0.1580  0.7503 -0.6208
 2037SOL    HW1 6400   1.257   3.120   2.955 -0.1057  1.2630  0.7397
 2037SOL    HW2 6401   1.401   3.138   3.031  1.0107  0.7957 -1.1968
 2038SOL     OW 6402   4.634   4.143   5.455  0.6214 -0.0369  0.3060
 2038SOL    HW1 6403   4.725   4.111   5.428 -0.5396 -2.3995 -1.1169
 2038SOL    HW2 6404   4.607   4.097   5.539  0.7217  0.6755  0.7346
 2039SOL     OW 6405   4.962   0.187   4.720  0.5579  0.1877 -0.1513
 2039SOL    HW1 6406   5.017   0.121   4.771 -0.2976  0.2256  0.8463
 2039SOL    HW2 6407   4.868   0.186   4.754  0.4707  1.7531 -0.2806
 2040SOL     OW 6408   2.646   2.089   3.240  0.0502 -0.2343 -0.3381
 2040SOL    HW1 6409   2.590   2.029   3.299  0.4180 -2.5041 -2.1461
 2040SOL    HW2 6410   2.590   2.166   3.209 -1.0527 -0.6508  0.5348
 2041SOL     OW 6411   1.221   1.012   0.894  0.0980 -0.5719  0.0116
 2041SOL    HW1 6412   1.154   1.071   0.938  0.0247 -1.2070  0.7732
 2041SOL    HW2 6413   1.223   1.031   0.796 -1.2510 -0.5983 -0.0377
 2042SOL     OW 6414   1.904   0.312   1.320 -0.5535 -0.3169  0.0764
 2042SOL    HW1 6415   1.985   0.370   1.334  0.9491 -2.3750  0.3923
 2042SOL    HW2 6416   1.845   0.355   1.252  0.6434  1.4137  0.0434
 2043SOL     OW 6417   4.277   3.619   4.923  0.0822 -0.8417 -0.2838
 2043SOL    HW1 6418   4.265   3.524   4.894  0.3419 -0.6205 -1.1585
 2043SOL    HW2 6419   4.276   3.679   4.842 -1.2281  0.0266  0.3411
 2044SOL     OW 6420   5.229   2.724   4.997  0.9136  0.2812  0.5069
 2044SOL    HW1 6421   5.305   2.741   5.060  1.2349  0.8335 -0.0114
 2044SOL    HW2 6422   5.227   2.797   4.929  1.8611 -1.3409 -1.3682
 2045SOL     OW 6423   1.830   0.604   3.344  0.0815 -0.3530  0.1366
 2045SOL    HW1 6424   1.802   0.543   3.270  0.0952  1.1677 -1.1819
 2045SOL    HW2 6425   1.764   0.598   3.419 -1.1524 -0.3543 -0.9116
 2046SOL     OW 6426   0.407   2.221   3.632  0.2325 -0.2444  0.0202
 2046SOL    HW1 6427   0.333   2.166   3.593  0.6087 -1.2213  0.6476
 2046SOL    HW2 6428   0.414   2.307   3.582 -0.2916 -0.8124 -1.0742
 2047SOL     OW 6429   4.342   2.561   5.615 -0.0390 -0.1167 -0.2739
 2047SOL    HW1 6430   4.256   2.609   5.634  0.8114  0.8152  1.4480
 2047SOL    HW2 6431   4.351   2.483   5.677  0.9678  0.6060  0.5197
 2048SOL     OW 6432   3.437   3.755   4.755  0.5814 -0.3460 -0.0418
 2048SOL    HW1 6433   3.450   3.679   4.819  0.1173  0.4253  0.9988
 2048SOL    HW2 6434   3.398   3.721   4.670  1.1558 -1.3885  0.0909
 2049SOL     OW 6435   0.955   5.357   0.995 -0.0456 -0.1066 -0.0702
 2049SOL    HW1 6436   0.913   5.378   0.906  0.5917 -0.5413 -0.4816
 2049SOL    HW2 6437   0.994   5.441   1.034 -0.2946  0.0795 -0.2192
 2050SOL     OW 6438   4.291   4.737   3.143  0.1461 -0.5827 -0.4532
 2050SOL    HW1 6439   4.293   4.670   3.218 -1.2771 -0.2209 -0.0456
 2050SOL    HW2 6440   4.196   4.763   3.125  0.4228 -0.8064 -2.5346
 2051SOL     OW 6441   3.696   0.882   3.287 -0.0650 -0.3513  0.3974
 2051SOL    HW1 6442   3.759   0.943   3.335  0.8737 -1.4984  0.6453
 2051SOL    HW2 6443   3.645   0.828   3.353  0.7965 -1.4996  0.1488
 2052SOL     OW 6444   0.854   1.737   5.385 -0.0492  0.5823  0.1416
 2052SOL    HW1 6445   0.781   1.676   5.355 -0.6259  1.0682  0.5387
 2052SOL    HW2 6446   0.850   1.749   5.484  2.6235 -2.0406  0.7016
 2053SOL     OW 6447   5.440   0.365   1.693 -0.4253  0.1647 -0.0104
 2053SOL    HW1 6448   5.416   0.335   1.785 -0.3280 -1.3197 -0.4420
 2053SOL    HW2 6449   5.528   0.412   1.696 -0.9982  1.2114  0.8229
 2054SOL     OW 6450   1.784   1.696   2.175  0.0361  0.4017  0.2994
 2054SOL    HW1 6451   1.783   1.794   2.196  1.9890  0.5388  0.0043
 2054SOL    HW2 6452   1.820   1.646   2.254  0.7028  0.1301 -0.1701
 2055SOL     OW 6453   0.031   1.242   4.076  0.2866  0.0576 -0.3976
 2055SOL    HW1 6454   0.090   1.268   4.000  0.8570 -1.0834 -0.3572
 2055SOL    HW2 6455  -0.030   1.168   4.048  0.3377 -0.2136  0.1890
 2056SOL     OW 6456   4.577   3.077   4.658 -0.0585 -0.2078  0.5299
 2056SOL    HW1 6457   4.480   3.089   4.635 -0.2577  1.0700  1.8703
 2056SOL    HW2 6458   4.585   3.016   4.737  0.3985 -1.8870 -0.7490
 2057SOL     OW 6459   5.238   3.764   5.668 -0.5461 -0.2177  0.4096
 2057SOL    HW1 6460   5.305   3.831   5.700 -1.1502  0.5447  0.1257
 2057SOL    HW2 6461   5.285   3.691   5.619  0.0108  0.8133 -0.6556
 2058SOL     OW 6462   4.549   0.332   1.393 -0.0988  0.3624  0.3090
 2058SOL    HW1 6463   4.593   0.402   1.337 -0.2796  0.1152 -0.1510
 2058SOL    HW2 6464   4.467   0.370   1.435  0.2563  0.6655  0.7322
 2059SOL     OW 6465   2.155   5.236   1.788 -0.4236 -0.6045  0.3158
 2059SOL    HW1 6466   2.250   5.267   1.782 -0.5852 -0.3619 -1.5817
 2059SOL    HW2 6467   2.096   5.313   1.809 -0.4816 -0.1929 -1.2728
 2060SOL     OW 6468   3.294   1.672   1.042 -0.4769  0.2045  0.2905
 2060SOL    HW1 6469   3.357   1.745   1.069 -1.2935  1.0542 -0.0202
 2060SOL    HW2 6470   3.225   1.660   1.113 -0.3693 -0.2336  0.3194
 2061SOL     OW 6471   2.282   0.257   2.560  0.1404  0.1504  0.2730
 2061SOL    HW1 6472   2.243   0.171   2.593  0.0015  0.3331  0.5880
 2061SOL    HW2 6473   2.210   0.313   2.521  0.6999 -1.3421 -3.2767
 2062SOL     OW 6474   1.920   3.481   3.853 -0.2355  0.5065 -0.1754
 2062SOL    HW1 6475   1.861   3.501   3.932 -1.2482  0.0001 -0.7889
 2062SOL    HW2 6476   1.864   3.467   3.772  0.6517 -0.8980 -0.5907
 2063SOL     OW 6477   2.006   1.439   1.629  0.1880 -0.0572  0.2500
 2063SOL    HW1 6478   1.981   1.350   1.593 -1.1645  0.3629  0.1192
 2063SOL    HW2 6479   1.929   1.478   1.680  1.7820 -0.3584  3.1252
 2064SOL     OW 6480   5.192   1.825   1.118 -0.2882 -0.2505  0.1743
 2064SOL    HW1 6481   5.158   1.755   1.181 -0.3360 -0.8924 -0.5571
 2064SOL    HW2 6482   5.267   1.787   1.064 -1.0334 -0.0870 -0.9934
 2065SOL     OW 6483   4.909   0.907   2.299  0.2184 -0.0450  0.2195
 2065SOL    HW1 6484   4.946   0.870   2.385  1.1925 -1.5019 -0.7674
 2065SOL    HW2 6485   4.814   0.878   2.289  0.7505 -1.7700 -0.1882
 2066SOL     OW 6486   3.391   2.995   1.617  0.9750  0.6159 -0.6244
 2066SOL    HW1 6487   3.340   3.080   1.626  2.4328  1.2876  2.4438
 2066SOL    HW2 6488   3.483   3.014   1.585  1.1724  0.1179 -0.3620
 2067SOL     OW 6489   2.550   3.714   1.108 -0.0924  0.2712 -0.6028
 2067SOL    HW1 6490   2.519   3.804   1.139 -0.8497 -0.6529  1.5316
 2067SOL    HW2 6491   2.649   3.708   1.116 -0.2559 -0.3412  3.3589
 2068SOL     OW 6492   2.893   2.298   4.010 -0.0186 -0.2759  0.4520
 2068SOL    HW1 6493   2.818   2.232   3.998  0.4826 -0.7168 -0.3852
 2068SOL    HW2 6494   2.856   2.391   4.012 -0.6322 -0.5165  0.5502
 2069SOL     OW 6495   5.888   2.413   2.492  0.3824 -0.1573  0.1702
 2069SOL    HW1 6496   5.983   2.446   2.488  0.2112  0.2841 -0.3816
 2069SOL    HW2 6497   5.850   2.433   2.582  0.4259  0.7609 -0.0070
 2070SOL     OW 6498   4.420   4.236   1.148  0.4365  0.0658  0.3914
 2070SOL    HW1 6499   4.501   4.288   1.177  1.0195 -0.6255  0.0444
 2070SOL    HW2 6500   4.350   4.242   1.219  0.3798  1.5280  0.2524
 2071SOL     OW 6501   3.034   1.341   1.264 -0.4796  0.0208 -0.4229
 2071SOL    HW1 6502   3.078   1.350   1.354  0.8032 -0.0890 -1.0083
 2071SOL    HW2 6503   2.936   1.324   1.276 -0.2879 -0.2405  0.9607
 2072SOL     OW 6504   1.170   5.031   3.450 -0.5525 -0.2987  0.2836
 2072SOL    HW1 6505   1.236   5.096   3.413 -1.3991 -0.0038 -0.7331
 2072SOL    HW2 6506   1.192   4.939   3.416  0.2097 -0.4556  1.1468
 2073SOL     OW 6507   4.281   5.161   4.798 -0.3327  0.1795 -0.3694
 2073SOL    HW1 6508   4.287   5.233   4.729 -0.7134  0.1737 -0.4092
 2073SOL    HW2 6509   4.199   5.173   4.853  0.5419  0.8616  0.8479
 2074SOL     OW 6510   5.074   1.370   0.104 -0.4134 -0.3123 -0.0241
 2074SOL    HW1 6511   5.024   1.308   0.044 -0.3159 -0.1141 -0.3093
 2074SOL    HW2 6512   5.169   1.377   0.073  0.5203 -2.6805  1.9620
 2075SOL     OW 6513   0.702   4.162   0.525  0.5978 -0.5837  0.6840
 2075SOL    HW1 6514   0.708   4.229   0.451  2.2908 -1.0548  0.3535
 2075SOL    HW2 6515   0.667   4.207   0.607 -2.1510 -0.2262 -0.5488
 2076SOL     OW 6516   0.094   3.090   5.323  0.0206  0.3055  0.1177
 2076SOL    HW1 6517   0.190   3.111   5.305  0.1281 -0.2411  0.0298
 2076SOL    HW2 6518   0.040   3.173   5.314  0.2356  0.2979 -1.5471
 2077SOL     OW 6519   2.129   0.304   1.962  0.0299 -0.1551 -0.0512
 2077SOL    HW1 6520   2.188   0.382   1.983 -2.5231  1.1796  3.1551
 2077SOL    HW2 6521   2.181   0.220   1.967  2.0001  1.0573  0.8183
 2078SOL     OW 6522   2.656   2.063   0.179 -0.7667  0.2266 -0.6261
 2078SOL    HW1 6523   2.738   2.049   0.123  0.0534 -1.2687  0.8622
 2078SOL    HW2 6524   2.589   1.991   0.159 -0.7348  0.0661 -0.1754
 2079SOL     OW 6525   3.459   2.636   4.894 -0.0414 -0.4644  0.3143
 2079SOL    HW1 6526   3.488   2.601   4.805  0.4710 -0.6119  0.5348
 2079SOL    HW2 6527   3.374   2.687   4.883  0.8132  0.8574 -0.5381
 2080SOL     OW 6528   3.481   2.334   5.222 -0.1668  0.0099 -0.1108
 2080SOL    HW1 6529   3.476   2.235   5.236  1.6982 -0.0159  0.8514
 2080SOL    HW2 6530   3.441   2.358   5.134  0.9714 -1.8515 -1.1990
 2081SOL     OW 6531   4.092   4.379   3.203  0.1334  0.1731  0.1842
 2081SOL    HW1 6532   4.093   4.406   3.106 -0.6174 -3.0057 -0.8378
 2081SOL    HW2 6533   4.161   4.308   3.218 -2.2460 -2.1268  0.9998
 2082SOL     OW 6534   5.216   0.395   2.297 -0.5280  0.4099 -0.4473
 2082SOL    HW1 6535   5.309   0.415   2.264 -0.2847  1.1361  0.6258
 2082SOL    HW2 6536   5.199   0.446   2.381 -1.3104 -0.9967  0.2902
 2083SOL     OW 6537   0.175   5.360   4.653  0.0017 -0.2229  0.4775
 2083SOL    HW1 6538   0.272   5.337   4.644 -0.0900 -0.9625  1.2244
 2083SOL    HW2 6539   0.143   5.404   4.569  1.1920  0.8376  0.5631
 2084SOL     OW 6540   5.425   4.965   3.884 -0.3542 -0.6566 -0.6171
 2084SOL    HW1 6541   5.467   5.056   3.878 -2.7311  0.5263 -0.3175
 2084SOL    HW2 6542   5.474   4.911   3.951 -1.0216  1.7090  1.9681
 2085SOL     OW 6543   1.066   3.654   5.777  0.5288 -0.2852  0.2333
 2085SOL    HW1 6544   1.112   3.742   5.765  1.5425 -0.7038  0.8695
 2085SOL    HW2 6545   1.021   3.627   5.692  0.1876  0.8540  0.0419
 2086SOL     OW 6546   5.895   1.820   0.346 -0.3586  0.0988  0.9689
 2086SOL    HW1 6547   5.987   1.829   0.308 -0.5774  0.3214  0.4849
 2086SOL    HW2 6548   5.855   1.733   0.316 -1.0000  0.8207 -0.3538
 2087SOL     OW 6549   2.754   0.826   1.796  0.4663  0.2910  0.0686
 2087SOL    HW1 6550   2.759   0.831   1.696  0.4109 -1.0392 -0.0242
 2087SOL    HW2 6551   2.826   0.883   1.836 -0.3185  1.8705 -0.6789
 2088SOL     OW 6552   1.928   3.929   5.893 -0.4920 -0.7189  0.1079
 2088SOL    HW1 6553   1.893   3.884   5.975  0.5245 -2.5753 -0.3975
 2088SOL    HW2 6554   1.881   3.892   5.813  0.6299 -1.2271 -0.3494
 2089SOL     OW 6555   4.278   3.410   0.235 -0.1910  0.1004 -0.2082
 2089SOL    HW1 6556   4.196   3.373   0.191  0.4091 -3.6261  1.4423
 2089SOL    HW2 6557   4.358   3.391   0.177 -0.0109 -0.1154  0.1100
 2090SOL     OW 6558   1.680   1.761   0.586  0.9336  0.1567 -0.0779
 2090SOL    HW1 6559   1.631   1.821   0.522 -0.3791 -2.5652 -1.8154
 2090SOL    HW2 6560   1.613   1.714   0.644  1.8867 -0.1218  0.8117
 2091SOL     OW 6561   4.759   2.190   2.489 -0.3173  0.3019  0.1335
 2091SOL    HW1 6562   4.704   2.207   2.571  1.5070 -0.8656  1.6946
 2091SOL    HW2 6563   4.772   2.091   2.478  0.2870  0.4930 -1.0064
 2092SOL     OW 6564   2.643   2.823   4.719  0.2359 -0.0672  0.0500
 2092SOL    HW1 6565   2.556   2.839   4.673 -0.3868 -1.5722  0.6505
 2092SOL    HW2 6566   2.705   2.775   4.656  0.3571  0.3057 -0.1166
 2093SOL     OW 6567   3.998   5.095   0.677  0.4891  0.0745  0.3475
 2093SOL    HW1 6568   4.042   5.157   0.613  0.3765 -0.2365 -0.0316
 2093SOL    HW2 6569   3.921   5.049   0.632  0.5163 -0.2747  0.6493
 2094SOL     OW 6570   5.618   4.238   2.706  0.5328  0.5161  0.0518
 2094SOL    HW1 6571   5.714   4.254   2.727  0.9796 -1.5416 -0.2307
 2094SOL    HW2 6572   5.596   4.141   2.718 -1.3742  0.8321 -0.4433
 2095SOL     OW 6573   5.489   0.515   5.307  0.2658  0.0067 -0.2796
 2095SOL    HW1 6574   5.516   0.498   5.212  4.5717  1.1155  0.5217
 2095SOL    HW2 6575   5.515   0.609   5.332 -0.2712 -0.4275  2.1341
 2096SOL     OW 6576   5.451   5.143   5.126 -0.0763  0.4258  0.3798
 2096SOL    HW1 6577   5.375   5.098   5.080  1.1592 -0.4040 -0.9591
 2096SOL    HW2 6578   5.463   5.105   5.217  0.1234 -1.0416 -0.2407
 2097SOL     OW 6579   3.985   3.238   0.590 -0.3062 -0.1949  0.5202
 2097SOL    HW1 6580   3.901   3.239   0.644 -0.8298 -4.2654  0.1137
 2097SOL    HW2 6581   3.975   3.173   0.515  3.7689 -2.4091  1.5777
 2098SOL     OW 6582   5.647   4.513   1.319  0.0644  0.2426  0.0086
 2098SOL    HW1 6583   5.718   4.452   1.353 -0.9995  0.1188  2.1658
 2098SOL    HW2 6584   5.658   4.603   1.359 -2.0706 -0.2860  1.9968
 2099SOL     OW 6585   2.865   0.303   1.470  0.1177 -0.7493  0.2101
 2099SOL    HW1 6586   2.769   0.278   1.481  0.2329 -0.7442  1.2641
 2099SOL    HW2 6587   2.922   0.245   1.527  0.8928 -1.6674 -1.4112
 2100SOL     OW 6588   3.171   0.529   0.498 -0.3783 -0.4763  0.0062
 2100SOL    HW1 6589   3.146   0.541   0.401  1.4653  0.7951 -0.3534
 2100SOL    HW2 6590   3.088   0.511   0.551 -1.7113  0.8938 -1.5001
 2101SOL     OW 6591   3.054   2.943   5.412 -0.0067 -0.5963 -1.2189
 2101SOL    HW1 6592   3.142   2.899   5.429  0.1796  0.2520  0.1762
 2101SOL    HW2 6593   3.053   3.033   5.455 -0.7518  0.3614 -3.1294
 2102SOL     OW 6594   0.287   1.624   4.752 -0.3931 -0.2306 -0.8085
 2102SOL    HW1 6595   0.305   1.531   4.720  0.0987 -0.4280  0.0023
 2102SOL    HW2 6596   0.235   1.620   4.837  2.6383  0.0507  1.2301
 2103SOL     OW 6597   3.304   4.090   1.663 -0.0721 -0.3529 -0.5504
 2103SOL    HW1 6598   3.383   4.080   1.602  1.3006  2.7920  0.4739
 2103SOL    HW2 6599   3.267   4.183   1.654 -3.3721 -1.5481 -0.5581
 2104SOL     OW 6600   2.324   1.478   3.847  0.5802 -0.8106 -0.2962
 2104SOL    HW1 6601   2.290   1.462   3.755  0.4932  1.3684 -0.6920
 2104SOL    HW2 6602   2.291   1.566   3.881  1.0928 -1.2876  1.5996
 2105SOL     OW 6603   3.892   5.780   0.847 -0.1597 -0.6478 -0.2933
 2105SOL    HW1 6604   3.916   5.690   0.883  0.1086 -0.0589  1.0606
 2105SOL    HW2 6605   3.971   5.841   0.852 -0.9286  0.3135  0.9569
 2106SOL     OW 6606   2.200   4.937   5.745  0.5759 -0.1626 -0.0900
 2106SOL    HW1 6607   2.170   5.033   5.742 -2.3120 -0.9757 -0.9651
 2106SOL    HW2 6608   2.207   4.902   5.652 -1.4207 -1.5611  0.2129
 2107SOL     OW 6609   3.376   1.871   5.052  0.0574  0.3472 -0.5038
 2107SOL    HW1 6610   3.389   1.935   5.128  0.8345  0.4125 -0.6837
 2107SOL    HW2 6611   3.346   1.922   4.971 -1.4770  0.1893 -0.0747
 2108SOL     OW 6612   1.700   5.504   5.227  0.2091 -0.3148  0.0660
 2108SOL    HW1 6613   1.751   5.547   5.153 -0.6721 -1.7522 -1.4348
 2108SOL    HW2 6614   1.764   5.460   5.290  0.9819  1.2152  0.4117
 2109SOL     OW 6615   5.047   4.114   4.871 -0.1116 -0.6072 -0.1202
 2109SOL    HW1 6616   5.122   4.090   4.932 -0.3218 -1.6741 -0.2625
 2109SOL    HW2 6617   5.075   4.096   4.776  0.1861  0.9602 -0.3631
 2110SOL     OW 6618   4.084   0.831   4.779  0.1357 -0.2140 -0.0360
 2110SOL    HW1 6619   4.091   0.827   4.679  0.7592 -1.2109  0.0270
 2110SOL    HW2 6620   4.077   0.926   4.808 -2.4133  0.0206 -1.1515
 2111SOL     OW 6621   0.942   1.045   1.324 -0.0905  0.8985 -0.1293
 2111SOL    HW1 6622   0.911   1.050   1.419 -0.4750  0.7152 -0.2449
 2111SOL    HW2 6623   0.945   1.138   1.285  0.3928  1.0093  0.1606
 2112SOL     OW 6624   5.052   0.904   2.066 -0.7806  0.3064 -0.9400
 2112SOL    HW1 6625   5.037   0.992   2.019  0.4414  0.2958 -1.3855
 2112SOL    HW2 6626   4.978   0.889   2.132 -1.4969  1.2396 -1.4919
 2113SOL     OW 6627   2.483   2.713   2.179 -0.5328  0.1143  0.0929
 2113SOL    HW1 6628   2.535   2.734   2.097 -0.7502 -0.4040 -0.1789
 2113SOL    HW2 6629   2.503   2.782   2.249 -0.2556  0.4890 -0.3472
 2114SOL     OW 6630   5.111   3.506   1.827  0.3578  0.0850 -0.8010
 2114SOL    HW1 6631   5.167   3.566   1.883 -1.0958  1.4803 -0.7738
 2114SOL    HW2 6632   5.060   3.443   1.885  3.2372 -2.5846 -0.8858
 2115SOL     OW 6633   5.325   2.803   4.476 -0.7934  0.1998 -0.1809
 2115SOL    HW1 6634   5.369   2.838   4.559 -0.8959  1.6855 -0.7134
 2115SOL    HW2 6635   5.311   2.705   4.484  0.0383  0.1684  1.1734
 2116SOL     OW 6636   0.194   2.089   3.507  0.1421 -0.1552 -0.0699
 2116SOL    HW1 6637   0.260   2.016   3.485  0.2900  0.1919 -0.8130
 2116SOL    HW2 6638   0.148   2.119   3.423  0.0675  0.5916  0.2282
 2117SOL     OW 6639   0.934   5.092   3.584  0.7867  0.4308  0.3105
 2117SOL    HW1 6640   1.011   5.050   3.536  0.0582  0.3360 -0.8036
 2117SOL    HW2 6641   0.852   5.036   3.571  0.2558  1.1505  0.4924
 2118SOL     OW 6642   0.804   4.250   4.311 -0.3454  0.1531 -0.6808
 2118SOL    HW1 6643   0.892   4.296   4.304 -0.0948 -0.3904 -1.1994
 2118SOL    HW2 6644   0.734   4.302   4.261 -0.3957  0.7563  0.0088
 2119SOL     OW 6645   3.024   0.088   2.938 -0.2183  0.4718 -0.0382
 2119SOL    HW1 6646   3.097   0.156   2.931 -0.1991  0.4299 -0.2331
 2119SOL    HW2 6647   2.983   0.094   3.029 -0.8586  1.4016 -0.3729
 2120SOL     OW 6648   0.761   3.259   2.101  0.3839 -0.0169  0.2992
 2120SOL    HW1 6649   0.702   3.267   2.181  1.9326  2.9849  1.3086
 2120SOL    HW2 6650   0.843   3.206   2.125 -0.8895 -2.5339 -0.5558
 2121SOL     OW 6651   5.229   3.801   0.408 -0.3790  0.2801  0.2955
 2121SOL    HW1 6652   5.145   3.749   0.424  0.2459 -0.8955 -0.1652
 2121SOL    HW2 6653   5.251   3.800   0.311 -0.6452  1.9057  0.1845
 2122SOL     OW 6654   4.342   2.917   2.669 -0.7084  0.0887 -0.6199
 2122SOL    HW1 6655   4.264   2.938   2.610 -1.1579 -1.9904 -0.8386
 2122SOL    HW2 6656   4.311   2.907   2.764 -0.7505 -0.8904 -0.7298
 2123SOL     OW 6657   0.263   5.218   1.017 -0.3611  0.3052  0.4344
 2123SOL    HW1 6658   0.244   5.126   0.984  0.6413  0.2100  0.0829
 2123SOL    HW2 6659   0.204   5.238   1.096 -1.9974  0.1234 -0.6969
 2124SOL     OW 6660   3.032   2.611   2.150 -0.4943 -0.4317  0.7226
 2124SOL    HW1 6661   2.939   2.582   2.171 -1.2352  2.1505  1.3467
 2124SOL    HW2 6662   3.064   2.675   2.220  0.8802  0.4842 -0.6694
 2125SOL     OW 6663   4.347   4.715   3.899  0.4133 -0.3697  0.3527
 2125SOL    HW1 6664   4.308   4.805   3.919 -0.9777 -1.1607  1.4056
 2125SOL    HW2 6665   4.423   4.725   3.834 -0.6672  1.4000 -0.7330
 2126SOL     OW 6666   1.144   2.332   4.686 -0.9289  0.0873 -0.0299
 2126SOL    HW1 6667   1.129   2.270   4.609 -1.5389  0.8369 -0.5319
 2126SOL    HW2 6668   1.202   2.287   4.754 -2.0756 -1.3818  0.0463
 2127SOL     OW 6669   3.703   5.421   5.631  0.4453  0.0711 -0.1645
 2127SOL    HW1 6670   3.607   5.397   5.612 -0.3442  2.7824 -0.0684
 2127SOL    HW2 6671   3.711   5.520   5.639  3.3976 -0.0546 -0.6288
 2128SOL     OW 6672   1.394   1.312   2.347 -0.0707  0.3214  0.5300
 2128SOL    HW1 6673   1.466   1.298   2.279 -0.4938 -0.8049  0.2883
 2128SOL    HW2 6674   1.364   1.408   2.344  0.1257  0.3700 -0.6791
 2129SOL     OW 6675   5.865   5.965   0.805  0.1012  0.0009  0.2248
 2129SOL    HW1 6676   5.807   6.019   0.744  1.7666 -1.2423 -2.6352
 2129SOL    HW2 6677   5.820   5.877   0.824  0.5366 -0.5377 -1.1351
 2130SOL     OW 6678   5.821   2.013   5.256  0.1813  0.0189  0.4080
 2130SOL    HW1 6679   5.787   2.107   5.247  0.4267 -0.0065 -0.9655
 2130SOL    HW2 6680   5.917   2.016   5.284  0.3260  0.1859 -0.1045
 2131SOL     OW 6681   4.279   3.147   5.657 -0.2137 -0.2094  0.1124
 2131SOL    HW1 6682   4.240   3.181   5.743  0.9903 -0.6036  0.8556
 2131SOL    HW2 6683   4.342   3.216   5.620 -0.5064 -0.1621 -0.2954
 2132SOL     OW 6684   0.845   3.430   0.908  0.0709 -0.7285 -0.1696
 2132SOL    HW1 6685   0.909   3.425   0.985  1.0044  3.7290 -0.3958
 2132SOL    HW2 6686   0.892   3.410   0.823  0.9667  1.2546 -0.1954
 2133SOL     OW 6687   0.770   0.283   2.539 -0.3168  0.3874  0.8811
 2133SOL    HW1 6688   0.823   0.343   2.480  1.2437 -1.6308  0.1186
 2133SOL    HW2 6689   0.674   0.284   2.510  0.5698 -1.5308 -2.7242
 2134SOL     OW 6690   5.720   4.246   5.015 -0.2355  0.2699  0.5016
 2134SOL    HW1 6691   5.727   4.343   5.036  0.5439 -0.0905  2.0611
 2134SOL    HW2 6692   5.649   4.204   5.072 -0.0381 -0.2277  0.3903
 2135SOL     OW 6693   4.926   4.995   4.477 -0.3675  0.2179  0.5041
 2135SOL    HW1 6694   4.882   4.957   4.397 -2.1722  1.9936  0.5857
 2135SOL    HW2 6695   5.022   5.014   4.457 -0.1540 -1.6302 -0.3970
 2136SOL     OW 6696   1.061   3.312   3.175  0.0441 -0.5711  0.0084
 2136SOL    HW1 6697   1.093   3.220   3.150  1.4378  0.2113 -1.2523
 2136SOL    HW2 6698   0.969   3.326   3.138  0.3835 -0.9757 -1.0242
 2137SOL     OW 6699   5.843   1.188   2.040 -0.3440 -0.1674 -0.1059
 2137SOL    HW1 6700   5.798   1.257   2.097  0.2299 -1.7333  2.4086
 2137SOL    HW2 6701   5.777   1.118   2.015 -0.1202 -0.5892  0.4785
 2138SOL     OW 6702   4.320   0.805   3.924  0.4855 -0.0029  0.5462
 2138SOL    HW1 6703   4.363   0.724   3.962  0.6062  0.0352  0.4915
 2138SOL    HW2 6704   4.387   0.856   3.869  0.4546  0.2137  0.7054
 2139SOL     OW 6705   2.045   2.510   4.293  0.2918  0.0188 -0.1194
 2139SOL    HW1 6706   1.982   2.497   4.369 -0.7689  0.4846 -0.8909
 2139SOL    HW2 6707   2.009   2.466   4.211  1.2360 -0.1685 -0.4490
 2140SOL     OW 6708   1.063   1.465   4.434 -0.7216 -0.0587  0.3239
 2140SOL    HW1 6709   1.023   1.448   4.343  0.5201 -1.4960 -0.0036
 2140SOL    HW2 6710   1.055   1.562   4.456  1.6951  1.0161 -2.7145
 2141SOL     OW 6711   2.111   2.789   3.998  0.4598  0.5239  0.3382
 2141SOL    HW1 6712   2.063   2.873   3.972  0.3746  0.1420 -0.7941
 2141SOL    HW2 6713   2.199   2.812   4.038  0.9380  1.1348 -1.0113
 2142SOL     OW 6714   2.994   2.785   0.921  0.0062  0.2508  0.6142
 2142SOL    HW1 6715   2.926   2.767   0.849  0.4808  0.8967 -0.0108
 2142SOL    HW2 6716   3.085   2.759   0.888 -0.0218 -1.4683  1.7776
 2143SOL     OW 6717   3.722   5.335   5.119 -0.0002 -0.5672 -0.5263
 2143SOL    HW1 6718   3.717   5.424   5.163  1.4519 -0.4312 -0.5795
 2143SOL    HW2 6719   3.655   5.330   5.046 -0.1278  0.4673 -0.4960
 2144SOL     OW 6720   1.049   2.643   0.874 -0.1636  0.0804 -0.3784
 2144SOL    HW1 6721   1.035   2.598   0.962 -0.1184 -0.1688 -0.4993
 2144SOL    HW2 6722   1.008   2.589   0.801  0.7731 -0.2853 -0.6473
 2145SOL     OW 6723   4.357   0.161   1.162 -0.3987 -0.6156 -0.1510
 2145SOL    HW1 6724   4.262   0.173   1.132 -0.2027  2.9681  0.2234
 2145SOL    HW2 6725   4.417   0.221   1.109  1.3213 -1.1345  1.1185
 2146SOL     OW 6726   5.364   3.062   1.082  0.4723  0.1458 -0.0766
 2146SOL    HW1 6727   5.368   3.162   1.076 -1.4746  0.2353 -0.5757
 2146SOL    HW2 6728   5.445   3.023   1.037  0.9005  1.4782 -0.5158
 2147SOL     OW 6729   2.951   0.622   1.434 -0.2323  0.0075  0.2408
 2147SOL    HW1 6730   2.999   0.588   1.515  0.8217 -0.0700 -0.4133
 2147SOL    HW2 6731   2.945   0.550   1.365  0.5462  0.6207 -0.4912
 2148SOL     OW 6732   1.006   4.634   3.460  0.2012  0.0168 -0.4927
 2148SOL    HW1 6733   1.033   4.727   3.435  1.8096 -0.5807 -1.1269
 2148SOL    HW2 6734   0.925   4.607   3.408 -0.5293  1.1829  0.0025
 2149SOL     OW 6735   5.835  -0.024   2.236  0.2163  0.5542 -0.0208
 2149SOL    HW1 6736   5.871  -0.024   2.329 -0.4462 -3.6004  0.4487
 2149SOL    HW2 6737   5.866   0.058   2.188  0.7168  2.7927  3.7240
 2150SOL     OW 6738   2.500   0.916   5.082 -0.2477  0.1380 -0.5113
 2150SOL    HW1 6739   2.415   0.935   5.132 -0.1490 -0.8834  0.0654
 2150SOL    HW2 6740   2.548   1.002   5.065 -1.6572  0.8051 -1.3485
 2151SOL     OW 6741   5.584   3.645   0.554 -0.2831  0.1811  0.3598
 2151SOL    HW1 6742   5.617   3.552   0.569  0.7494  0.3191 -0.8790
 2151SOL    HW2 6743   5.557   3.685   0.641  1.2464 -0.5440  1.2134
 2152SOL     OW 6744   1.992   1.068   2.563  0.1736 -0.9370 -0.0252
 2152SOL    HW1 6745   1.896   1.041   2.561 -0.3781  0.8645  0.1917
 2152SOL    HW2 6746   2.032   1.058   2.472 -1.1085  1.1346 -0.8851
 2153SOL     OW 6747   2.125   2.778   1.936  0.2783 -0.1891 -0.3303
 2153SOL    HW1 6748   2.086   2.868   1.957  0.6495  0.2087 -1.2704
 2153SOL    HW2 6749   2.166   2.780   1.844  1.9423 -0.7666  0.3535
 2154SOL     OW 6750   3.503   1.940   3.340  0.0667 -0.3193  0.0895
 2154SOL    HW1 6751   3.564   1.875   3.293  0.4930 -0.4025  0.7488
 2154SOL    HW2 6752   3.546   1.970   3.425  0.3594  1.6803 -0.7233
 2155SOL     OW 6753   3.455   0.330   2.114 -0.1342 -0.1193 -0.4974
 2155SOL    HW1 6754   3.534   0.370   2.068  0.1778  0.0264  0.1481
 2155SOL    HW2 6755   3.428   0.387   2.191  0.0152 -0.8803  0.1416
 2156SOL     OW 6756   1.445   3.016   2.448 -0.4014  0.1757 -0.3713
 2156SOL    HW1 6757   1.482   2.938   2.498  1.8716  0.8081 -0.9562
 2156SOL    HW2 6758   1.483   3.101   2.483 -0.9357  0.8432 -1.3328
 2157SOL     OW 6759   4.999   1.394   5.084 -0.4886  0.0028 -0.6312
 2157SOL    HW1 6760   5.020   1.312   5.137 -3.2605 -1.0254 -0.9503
 2157SOL    HW2 6761   5.015   1.376   4.987  2.3902  1.1345 -0.4582
 2158SOL     OW 6762   3.651   5.581   5.232  0.4520  0.2435 -0.1512
 2158SOL    HW1 6763   3.638   5.611   5.326  0.2327 -0.1174 -0.0653
 2158SOL    HW2 6764   3.715   5.642   5.186  0.9536  0.1298  0.3847
 2159SOL     OW 6765   0.237   4.853   5.375  0.1323  0.3182 -0.3485
 2159SOL    HW1 6766   0.251   4.928   5.311 -0.0757 -0.2769 -1.0964
 2159SOL    HW2 6767   0.211   4.770   5.325 -1.0390  0.1033  0.5800
 2160SOL     OW 6768   3.112   5.782   2.953  0.0831 -0.5453 -0.5733
 2160SOL    HW1 6769   3.055   5.858   2.923  1.1346  0.2642 -0.5851
 2160SOL    HW2 6770   3.202   5.789   2.910  0.5359 -1.2055  0.2392
 2161SOL     OW 6771   4.119   2.013   1.123 -0.1192  0.0383  0.5196
 2161SOL    HW1 6772   4.176   2.001   1.205  2.1096  1.0266 -0.7837
 2161SOL    HW2 6773   4.166   1.972   1.045  0.0862  3.0903 -1.0878
 2162SOL     OW 6774   0.478   2.889   0.057 -0.2658 -0.2873 -0.6871
 2162SOL    HW1 6775   0.526   2.930  -0.021 -0.4376 -0.5086 -0.9087
 2162SOL    HW2 6776   0.391   2.850   0.026 -0.3265 -0.3903 -0.3873
 2163SOL     OW 6777   5.670   4.990   5.030  0.6951 -0.0955 -0.6551
 2163SOL    HW1 6778   5.592   5.051   5.043  0.7902 -0.1403  0.1734
 2163SOL    HW2 6779   5.750   5.043   5.003  0.6982  0.1173 -0.2418
 2164SOL     OW 6780   5.362   1.582   1.390  0.1570 -0.1160  0.0065
 2164SOL    HW1 6781   5.448   1.590   1.339  0.9282 -0.5412  1.2101
 2164SOL    HW2 6782   5.303   1.515   1.344 -0.8602  2.3187 -2.5527
 2165SOL     OW 6783   3.430   2.904   1.890  0.3017  0.1513 -0.2354
 2165SOL    HW1 6784   3.526   2.932   1.893  0.7224 -0.8921 -2.0594
 2165SOL    HW2 6785   3.398   2.907   1.795 -0.2503 -3.2622 -0.2903
 2166SOL     OW 6786   5.323   0.004   0.579 -0.8805 -0.2562 -0.4599
 2166SOL    HW1 6787   5.364   0.046   0.498  0.2731  2.1397  1.2429
 2166SOL    HW2 6788   5.394  -0.012   0.648 -2.2052  0.3828  1.1201
 2167SOL     OW 6789   2.853   3.620   0.551 -0.2617  0.5550  0.2994
 2167SOL    HW1 6790   2.780   3.555   0.572 -0.3483  0.2403 -0.8874
 2167SOL    HW2 6791   2.939   3.570   0.541 -0.6313  0.3142 -2.3580
 2168SOL     OW 6792   5.316   0.886   5.225 -0.0900 -0.0977 -0.2497
 2168SOL    HW1 6793   5.387   0.815   5.226 -1.1627 -1.2141 -0.6133
 2168SOL    HW2 6794   5.322   0.941   5.308 -0.1498 -1.5592  0.7472
 2169SOL     OW 6795   0.147   1.104   0.754  0.2889 -0.1596  0.0684
 2169SOL    HW1 6796   0.103   1.166   0.819 -0.9261  0.3337 -1.1828
 2169SOL    HW2 6797   0.239   1.080   0.788  0.4306  1.5753  1.0281
 2170SOL     OW 6798   3.784   4.968   4.989  0.0716  0.3510  0.1693
 2170SOL    HW1 6799   3.698   4.941   5.032 -0.1388  1.9013  0.8142
 2170SOL    HW2 6800   3.861   4.922   5.034 -0.2646  0.7138  1.1364
 2171SOL     OW 6801   4.661   1.563   3.076 -0.5143 -0.4829  0.3233
 2171SOL    HW1 6802   4.574   1.571   3.027 -1.5306 -1.3254  1.8993
 2171SOL    HW2 6803   4.727   1.516   3.018 -1.4888 -0.9343 -0.4655
 2172SOL     OW 6804   5.889   3.016   1.393  0.0543 -0.2306  0.3464
 2172SOL    HW1 6805   5.876   3.095   1.453 -0.7107 -0.7946  0.9518
 2172SOL    HW2 6806   5.985   3.008   1.368  0.6268 -0.6657  2.4948
 2173SOL     OW 6807   2.931   2.980   2.258 -0.0313  0.2963 -0.3987
 2173SOL    HW1 6808   2.844   2.940   2.289 -0.3913  1.3864  0.0282
 2173SOL    HW2 6809   2.931   3.078   2.276  1.4869  0.2334  0.0638
 2174SOL     OW 6810   0.212   0.353   0.941  0.1419 -0.0655  0.3073
 2174SOL    HW1 6811   0.160   0.404   0.872  0.2312  1.3302  1.2159
 2174SOL    HW2 6812   0.183   0.258   0.943  0.6437 -0.3290 -2.1504
 2175SOL     OW 6813   0.830   1.112   1.979 -0.3375 -0.3992 -0.6178
 2175SOL    HW1 6814   0.783   1.077   1.898 -0.7141 -0.1663 -0.5040
 2175SOL    HW2 6815   0.894   1.184   1.952 -2.2988  1.5124 -0.4740
 2176SOL     OW 6816   2.764   0.074   1.706 -0.7165  0.3281  0.0983
 2176SOL    HW1 6817   2.851   0.052   1.662 -1.3127 -1.5840 -0.1912
 2176SOL    HW2 6818   2.778   0.090   1.803 -0.2426 -1.7277  0.4135
 2177SOL     OW 6819   0.762   4.395   5.419 -0.0652  0.0897  0.3241
 2177SOL    HW1 6820   0.819   4.414   5.339 -1.6389 -0.8198 -1.0859
 2177SOL    HW2 6821   0.699   4.471   5.434 -0.3284 -0.1003  0.1868
 2178SOL     OW 6822   1.160   4.726   0.859  0.4912  0.3314 -0.5710
 2178SOL    HW1 6823   1.065   4.704   0.838  0.8297 -2.0234  0.0839
 2178SOL    HW2 6824   1.198   4.785   0.788 -0.8651 -0.4066 -1.9482
 2179SOL     OW 6825   1.455   5.843   1.290 -0.2703 -0.3513 -0.8600
 2179SOL    HW1 6826   1.471   5.768   1.355 -2.6845 -1.1405 -1.0686
 2179SOL    HW2 6827   1.358   5.846   1.266  0.0591  1.7978 -2.1961
 2180SOL     OW 6828   0.390   4.799   1.682 -0.2483 -0.6332  0.3919
 2180SOL    HW1 6829   0.484   4.830   1.666  0.2869 -1.8422  0.9947
 2180SOL    HW2 6830   0.354   4.843   1.764 -0.4823  0.3942 -0.2583
 2181SOL     OW 6831   4.298   0.677   0.421  0.5277  0.0854 -0.3235
 2181SOL    HW1 6832   4.260   0.764   0.388 -0.3554  0.0927  0.6645
 2181SOL    HW2 6833   4.326   0.622   0.343  0.1335  0.8279 -1.0064
 2182SOL     OW 6834   1.239   5.481   4.646  0.1356  0.6602  0.2557
 2182SOL    HW1 6835   1.303   5.493   4.722 -2.0711  1.6323  2.0747
 2182SOL    HW2 6836   1.212   5.570   4.611 -1.1279  0.3372  0.3563
 2183SOL     OW 6837   0.557   4.007   1.327  0.3020  0.0795  0.0253
 2183SOL    HW1 6838   0.607   3.978   1.245  0.6160 -0.9755  0.5721
 2183SOL    HW2 6839   0.558   4.107   1.333  1.3512  0.1197 -0.5830
 2184SOL     OW 6840   1.821   0.042   0.929  0.2753 -0.1392 -0.7293
 2184SOL    HW1 6841   1.736   0.050   0.981  0.0397  1.1336 -1.2497
 2184SOL    HW2 6842   1.883  -0.021   0.975 -0.5560 -0.2977  0.2099
 2185SOL     OW 6843   0.974   0.216   0.527  0.4636 -0.0153  0.3673
 2185SOL    HW1 6844   1.019   0.227   0.438 -0.1371 -0.6561 -0.0356
 2185SOL    HW2 6845   1.032   0.252   0.599  1.5308 -0.6526 -0.1555
 2186SOL     OW 6846   1.045   5.099   4.589 -0.1379  0.1657  0.1125
 2186SOL    HW1 6847   0.948   5.113   4.571 -0.1418 -0.8992 -0.7928
 2186SOL    HW2 6848   1.098   5.172   4.547 -0.3940 -0.4819 -1.3889
 2187SOL     OW 6849   0.383   3.290   3.435  0.1990  0.3620 -0.2787
 2187SOL    HW1 6850   0.446   3.319   3.508  0.2010  0.9152 -0.4995
 2187SOL    HW2 6851   0.325   3.366   3.409 -0.3556 -0.0630 -0.2992
 2188SOL     OW 6852   5.484   3.752   3.359  0.5623 -0.1711  0.8722
 2188SOL    HW1 6853   5.465   3.684   3.287  0.2806  1.7897 -1.0055
 2188SOL    HW2 6854   5.580   3.779   3.354  0.7490 -0.6250  1.8192
 2189SOL     OW 6855   4.149   5.960   4.713 -0.3250 -0.3302  0.3943
 2189SOL    HW1 6856   4.220   5.899   4.680 -0.3505  0.3661 -1.0116
 2189SOL    HW2 6857   4.059   5.923   4.689 -0.3318  0.4210 -0.8296
 2190SOL     OW 6858   0.626   0.864   3.663 -0.1931  0.4622 -0.2049
 2190SOL    HW1 6859   0.565   0.825   3.594  0.6504 -1.1064 -0.1060
 2190SOL    HW2 6860   0.720   0.865   3.628  0.0658  0.7412  0.4782
 2191SOL     OW 6861   4.773   0.618   0.915 -0.7689  0.5046 -0.3183
 2191SOL    HW1 6862   4.849   0.612   0.980 -0.6561  0.9923 -0.4076
 2191SOL    HW2 6863   4.734   0.527   0.903 -1.7784  0.6189  1.6273
 2192SOL     OW 6864   2.361   0.102   4.192 -0.4482  0.4844 -0.5408
 2192SOL    HW1 6865   2.414   0.020   4.218  0.0981  0.4014 -1.8416
 2192SOL    HW2 6866   2.420   0.165   4.141 -0.6578  2.0662  1.0801
 2193SOL     OW 6867   3.271   4.450   1.350  0.0089 -0.0820  0.1578
 2193SOL    HW1 6868   3.349   4.435   1.291  0.7722  1.7399  0.6321
 2193SOL    HW2 6869   3.302   4.468   1.443 -1.0283 -0.2624  0.5586
 2194SOL     OW 6870   1.879   5.750   5.075  0.3656  0.3531 -0.2163
 2194SOL    HW1 6871   1.794   5.774   5.030 -0.3365 -1.3109  0.1298
 2194SOL    HW2 6872   1.955   5.758   5.010 -0.3749 -0.2523 -1.1862
 2195SOL     OW 6873   0.977   1.101   2.434 -0.1841 -0.4953  0.7181
 2195SOL    HW1 6874   0.927   1.121   2.518 -0.9190  0.6622  0.0414
 2195SOL    HW2 6875   0.917   1.114   2.356  0.9964  0.3518 -0.0935
 2196SOL     OW 6876   5.684   2.759   3.230  0.5071  0.3019 -0.1952
 2196SOL    HW1 6877   5.678   2.717   3.321  1.2641 -0.2225 -0.3705
 2196SOL    HW2 6878   5.634   2.703   3.164  1.8318 -0.5761 -0.4988
 2197SOL     OW 6879   1.034   5.673   4.318  0.0215  0.3953  0.1979
 2197SOL    HW1 6880   0.955   5.611   4.322  1.2406 -1.1245  2.4512
 2197SOL    HW2 6881   1.073   5.670   4.226 -0.5352 -1.4572 -0.0273
 2198SOL     OW 6882   3.174   2.045   1.983  0.2815 -0.1046 -0.3653
 2198SOL    HW1 6883   3.193   2.143   1.991  0.3607 -0.2369  1.6108
 2198SOL    HW2 6884   3.146   2.009   2.072 -2.0723 -1.4224 -1.5410
 2199SOL     OW 6885   5.493   5.543   5.315 -0.0764  0.4572  0.5352
 2199SOL    HW1 6886   5.398   5.515   5.312  0.4336 -1.3362 -1.0800
 2199SOL    HW2 6887   5.509   5.614   5.247 -0.6905  2.5337  2.4366
 2200SOL     OW 6888   1.619   1.604   0.945 -0.1571  0.2050  0.1247
 2200SOL    HW1 6889   1.575   1.635   0.860 -2.4867 -2.7059  0.0831
 2200SOL    HW2 6890   1.690   1.537   0.923  0.6362  0.9432  0.4141
 2201SOL     OW 6891   4.513   5.899   4.858 -0.8378  0.3060 -0.1041
 2201SOL    HW1 6892   4.446   5.962   4.897 -1.6491 -0.8967  0.5237
 2201SOL    HW2 6893   4.497   5.807   4.895  1.3091  0.0222  0.2374
 2202SOL     OW 6894   3.537   4.375   1.250 -0.6161  0.1242 -0.7310
 2202SOL    HW1 6895   3.533   4.289   1.200 -1.8436 -0.1723 -0.1501
 2202SOL    HW2 6896   3.580   4.360   1.339 -2.0889 -0.1988 -0.0535
 2203SOL     OW 6897   3.911   1.126   2.067  0.1304 -0.2420 -0.0949
 2203SOL    HW1 6898   3.909   1.030   2.039 -1.5039  0.0606 -1.1554
 2203SOL    HW2 6899   3.952   1.134   2.158  0.2641 -1.9346  0.0177
 2204SOL     OW 6900   2.958   5.955   2.569 -1.0015  0.3654  0.4300
 2204SOL    HW1 6901   2.903   5.903   2.504 -1.2810  1.0904  0.0756
 2204SOL    HW2 6902   2.898   6.003   2.633 -0.8122  1.5094 -0.2319
 2205SOL     OW 6903   0.261   2.473   0.734 -0.7752 -0.3623  0.0929
 2205SOL    HW1 6904   0.228   2.563   0.762  1.3943  0.1537  1.2501
 2205SOL    HW2 6905   0.338   2.485   0.671 -1.4732 -1.4658 -1.0137
 2206SOL     OW 6906   2.613   4.516   2.177  0.1106  0.0003 -0.2954
 2206SOL    HW1 6907   2.651   4.536   2.087  0.1778  0.0903 -0.2467
 2206SOL    HW2 6908   2.526   4.468   2.166  0.3262 -0.3677 -0.4045
 2207SOL     OW 6909   1.603   1.537   1.494 -0.5227  0.3417 -0.2010
 2207SOL    HW1 6910   1.505   1.541   1.473 -0.1770 -1.3348 -2.4802
 2207SOL    HW2 6911   1.654   1.595   1.431  0.1160 -0.3779 -0.3667
 2208SOL     OW 6912   0.719   3.343   5.299  0.6350 -0.2475 -0.4037
 2208SOL    HW1 6913   0.790   3.272   5.295  0.2137 -0.6477 -0.8006
 2208SOL    HW2 6914   0.648   3.323   5.232 -0.9017 -0.9600  1.3468
 2209SOL     OW 6915   0.999   5.903   2.049 -0.1369 -1.1883 -1.2478
 2209SOL    HW1 6916   0.918   5.938   2.095  0.7035 -0.0453 -0.5988
 2209SOL    HW2 6917   1.018   5.957   1.967  0.2018 -1.1925 -1.1746
 2210SOL     OW 6918   3.763   4.061   3.643  0.2657 -0.0017 -0.3735
 2210SOL    HW1 6919   3.783   4.113   3.560 -2.1797  0.8837 -0.4822
 2210SOL    HW2 6920   3.671   4.081   3.674 -0.8302 -4.1578 -0.3140
 2211SOL     OW 6921   3.839   1.719   5.166  0.0211  0.6189  0.5584
 2211SOL    HW1 6922   3.911   1.765   5.217  1.4817  0.0659 -0.9041
 2211SOL    HW2 6923   3.847   1.741   5.069  0.8445 -2.6016 -0.2509
 2212SOL     OW 6924   5.131   5.137   0.144 -0.3005 -0.0880  0.1019
 2212SOL    HW1 6925   5.057   5.202   0.132 -0.9159 -0.8495 -0.3185
 2212SOL    HW2 6926   5.104   5.048   0.107  0.5873 -0.5427  0.5073
 2213SOL     OW 6927   4.812   4.708   0.172 -0.4061  0.1780 -0.7944
 2213SOL    HW1 6928   4.882   4.649   0.130  1.8075  3.3909 -2.0314
 2213SOL    HW2 6929   4.747   4.738   0.103 -2.1331 -1.4908  0.0312
 2214SOL     OW 6930   3.416   3.800   1.187  0.5080  0.2808 -0.6192
 2214SOL    HW1 6931   3.326   3.763   1.213  0.4677 -0.4273 -1.6700
 2214SOL    HW2 6932   3.418   3.898   1.204 -0.7871  0.4638 -1.3447
 2215SOL     OW 6933   1.669   2.000   3.768 -0.3993  0.0095 -0.3987
 2215SOL    HW1 6934   1.601   2.045   3.710 -0.4028 -0.0347 -0.4289
 2215SOL    HW2 6935   1.635   1.910   3.795  0.2999 -0.6770 -1.6998
 2216SOL     OW 6936   5.345   4.926   2.429  0.5262 -0.0550  0.4880
 2216SOL    HW1 6937   5.334   4.833   2.395  1.2149 -0.2572  0.8025
 2216SOL    HW2 6938   5.305   4.932   2.521  2.3392 -0.6243  1.3670
 2217SOL     OW 6939   2.008   5.824   0.987 -0.1764 -0.9348 -0.0028
 2217SOL    HW1 6940   2.078   5.787   0.925  0.0000 -0.4498 -0.0980
 2217SOL    HW2 6941   2.035   5.807   1.081  0.4565 -0.0853 -0.0167
 2218SOL     OW 6942   2.253   3.039   0.771  0.5248  0.2594 -0.3550
 2218SOL    HW1 6943   2.322   2.978   0.733 -0.1036 -0.9127  0.3253
 2218SOL    HW2 6944   2.217   3.000   0.856 -1.2031  0.6586 -0.8621
 2219SOL     OW 6945   5.440   5.160   2.259  0.3706 -0.4550  0.1235
 2219SOL    HW1 6946   5.384   5.131   2.336  0.5366  1.4146  0.9980
 2219SOL    HW2 6947   5.536   5.139   2.276  0.4114 -0.0059  0.4503
 2220SOL     OW 6948   2.832   2.972   1.702 -0.6319  0.3770 -0.3344
 2220SOL    HW1 6949   2.754   2.909   1.696 -0.9177  0.7582 -0.6713
 2220SOL    HW2 6950   2.843   3.019   1.615  1.0970 -0.9780 -0.9207
 2221SOL     OW 6951   1.427   3.862   5.193 -0.4900 -0.4691  0.1550
 2221SOL    HW1 6952   1.416   3.869   5.093 -0.0655 -0.3855  0.1150
 2221SOL    HW2 6953   1.503   3.919   5.223 -0.8520 -0.2061  0.5786
 2222SOL     OW 6954   0.159   0.907   5.834 -0.3586 -0.4467 -0.0519
 2222SOL    HW1 6955   0.203   0.966   5.766 -2.2488  1.9135  0.6188
 2222SOL    HW2 6956   0.068   0.881   5.802 -0.9796  0.0719  1.2112
 2223SOL     OW 6957   0.685   2.471   5.769 -0.2059  0.0734  0.6538
 2223SOL    HW1 6958   0.738   2.477   5.853 -1.5573 -0.9780  1.6237
 2223SOL    HW2 6959   0.644   2.381   5.761  1.3705 -0.5356 -2.1070
 2224SOL     OW 6960   4.550   0.516   4.617 -0.0033  0.5841  0.2289
 2224SOL    HW1 6961   4.649   0.518   4.632 -0.1526  0.9134  1.2350
 2224SOL    HW2 6962   4.504   0.573   4.685 -0.9300 -0.0126  0.1305
 2225SOL     OW 6963   5.335   5.174   3.508  0.2169  0.1845  0.2761
 2225SOL    HW1 6964   5.286   5.237   3.569  1.6999 -0.2051  1.9633
 2225SOL    HW2 6965   5.428   5.206   3.496 -0.0467  0.2438 -1.8682
 2226SOL     OW 6966   2.097   2.363   1.706  0.1109  0.6600  0.3317
 2226SOL    HW1 6967   2.070   2.285   1.649  1.7316 -0.4107  0.9483
 2226SOL    HW2 6968   2.104   2.445   1.650 -3.3098  0.8372 -0.0477
 2227SOL     OW 6969   1.406   5.318   3.169  0.5264  0.0563 -0.2650
 2227SOL    HW1 6970   1.470   5.264   3.115  1.6359 -0.3444  1.3775
 2227SOL    HW2 6971   1.413   5.291   3.265 -1.6470  0.4802  0.0588
 2228SOL     OW 6972   5.371   0.832   0.631 -0.4496 -0.0468 -0.7200
 2228SOL    HW1 6973   5.361   0.928   0.656  0.3347 -0.4549  1.3939
 2228SOL    HW2 6974   5.454   0.795   0.673 -1.2901 -1.9236 -0.5793
 2229SOL     OW 6975   2.724   4.191   1.765 -0.4129 -0.3269 -0.1927
 2229SOL    HW1 6976   2.804   4.238   1.727 -1.5654 -0.8580 -3.5946
 2229SOL    HW2 6977   2.649   4.256   1.776 -0.3443 -0.3490  0.4941
 2230SOL     OW 6978   3.387   0.848   1.150 -0.3196 -0.0947  0.7854
 2230SOL    HW1 6979   3.433   0.781   1.208  0.4907 -0.5422 -0.3415
 2230SOL    HW2 6980   3.294   0.816   1.130 -0.2685 -0.4103  1.0432
 2231SOL     OW 6981   1.629   2.916   0.364 -0.1053 -0.3462  0.0240
 2231SOL    HW1 6982   1.694   2.843   0.381 -0.9362 -0.9095  0.8503
 2231SOL    HW2 6983   1.662   3.001   0.406  1.1358 -0.0878 -1.4292
 2232SOL     OW 6984   4.676   1.663   4.697 -0.4385  0.1397 -0.3051
 2232SOL    HW1 6985   4.586   1.624   4.678  0.0307 -1.1193 -0.0686
 2232SOL    HW2 6986   4.731   1.665   4.614  0.3469 -1.9715  0.0857
 2233SOL     OW 6987   2.550   0.613   4.443  0.1737 -0.1456 -0.1095
 2233SOL    HW1 6988   2.622   0.556   4.484 -2.0878 -1.7713  1.9570
 2233SOL    HW2 6989   2.569   0.709   4.461  1.6837 -0.5432  0.5881
 2234SOL     OW 6990   2.177   3.814   5.956 -0.2969  0.2000  0.0047
 2234SOL    HW1 6991   2.096   3.851   5.912  1.2533  3.5221 -0.3913
 2234SOL    HW2 6992   2.222   3.749   5.895 -2.4662 -1.5596  0.1739
 2235SOL     OW 6993   5.183   5.787   2.061  0.4666 -0.1614  0.2585
 2235SOL    HW1 6994   5.084   5.799   2.071  0.5136 -0.1446  0.7295
 2235SOL    HW2 6995   5.215   5.717   2.125  0.4973 -1.4595 -1.1212
 2236SOL     OW 6996   5.284   0.396   5.418 -0.0938  0.2698 -1.1192
 2236SOL    HW1 6997   5.373   0.423   5.381 -0.4298  1.8044 -0.8797
 2236SOL    HW2 6998   5.212   0.452   5.377 -0.6635  0.8334  0.5402
 2237SOL     OW 6999   3.514   0.192   3.190 -0.0555  0.1250  0.1962
 2237SOL    HW1 7000   3.516   0.292   3.184 -0.4404  0.1305  0.1618
 2237SOL    HW2 7001   3.531   0.153   3.100  0.6971  0.1474  0.3138
 2238SOL     OW 7002   4.642   4.429   0.203  0.4171 -0.7375  0.1269
 2238SOL    HW1 7003   4.669   4.524   0.191  2.1515 -1.3429 -1.1801
 2238SOL    HW2 7004   4.664   4.400   0.297 -2.8061  0.8705  1.5516
 2239SOL     OW 7005   3.942   4.534   4.064  0.6071  0.5555 -0.5179
 2239SOL    HW1 7006   3.890   4.483   3.995 -1.9543 -1.3633  2.5921
 2239SOL    HW2 7007   3.883   4.600   4.110  1.8506  0.8179  0.8032
 2240SOL     OW 7008   4.850   0.724   1.488 -0.6197 -0.1937 -0.7286
 2240SOL    HW1 7009   4.947   0.747   1.481 -0.9707  0.9508 -2.7003
 2240SOL    HW2 7010   4.835   0.664   1.566  1.4274  0.8157  0.5145
 2241SOL     OW 7011   4.667   0.697   5.061  0.3943  0.7359 -0.4578
 2241SOL    HW1 7012   4.595   0.765   5.076 -2.2528 -1.8559 -0.4154
 2241SOL    HW2 7013   4.687   0.650   5.146  3.1632  2.2016 -0.1918
 2242SOL     OW 7014   0.019   3.753   2.731  0.2290  0.5171 -0.2378
 2242SOL    HW1 7015  -0.008   3.760   2.635  1.3513  0.3517 -0.5827
 2242SOL    HW2 7016   0.077   3.673   2.744 -0.5271  0.1041  0.7438
 2243SOL     OW 7017   3.948   1.830   2.732 -0.6563  0.3779  0.4816
 2243SOL    HW1 7018   3.900   1.918   2.724 -0.4265  0.5722  1.1529
 2243SOL    HW2 7019   4.005   1.831   2.814 -1.5214 -0.8178  1.1190
 2244SOL     OW 7020   1.970   0.191   4.271 -0.0450 -0.2129 -0.1528
 2244SOL    HW1 7021   2.053   0.245   4.287 -0.5619  0.5814 -0.0948
 2244SOL    HW2 7022   1.961   0.172   4.173  0.7931 -1.2915 -0.0450
 2245SOL     OW 7023   4.244   3.917   2.254 -0.1459  0.0391 -0.1673
 2245SOL    HW1 7024   4.165   3.901   2.314 -0.2832  0.8180 -0.1276
 2245SOL    HW2 7025   4.327   3.882   2.299 -0.2565  0.5561  0.4623
 2246SOL     OW 7026   0.514   3.971   0.777 -0.3853  0.4524 -0.8005
 2246SOL    HW1 7027   0.562   3.884   0.793 -1.4548 -0.5443 -2.6938
 2246SOL    HW2 7028   0.416   3.957   0.787 -0.5223  1.6935 -0.2377
 2247SOL     OW 7029   2.636   4.346   3.909  0.5567 -0.1675 -0.3303
 2247SOL    HW1 7030   2.537   4.354   3.904  0.6018  1.4852  0.6125
 2247SOL    HW2 7031   2.661   4.299   3.994  0.5946  1.7588  0.7912
 2248SOL     OW 7032   4.159   0.430   5.583  0.4394 -0.3325  0.0321
 2248SOL    HW1 7033   4.184   0.525   5.567 -1.6589  0.2445 -0.0783
 2248SOL    HW2 7034   4.100   0.398   5.509  0.0518 -1.3024  0.7345
 2249SOL     OW 7035   2.255   3.398   3.817 -0.4931 -0.0565  0.2943
 2249SOL    HW1 7036   2.301   3.319   3.776 -0.5921 -0.0797  0.2269
 2249SOL    HW2 7037   2.184   3.430   3.755  0.4143  0.8968 -0.2769
 2250SOL     OW 7038   0.084   3.536   3.092 -0.1804  0.0104  0.3864
 2250SOL    HW1 7039   0.162   3.592   3.066  0.2610 -0.7917 -0.0217
 2250SOL    HW2 7040   0.026   3.519   3.013 -0.7123  0.4913  0.6595
 2251SOL     OW 7041   2.078   4.448   2.486 -0.2282 -0.5409 -0.4900
 2251SOL    HW1 7042   2.027   4.393   2.553 -0.2093 -2.2576 -1.8232
 2251SOL    HW2 7043   2.171   4.413   2.480 -0.1443 -0.2004 -1.1788
 2252SOL     OW 7044   5.305   0.279   1.923  0.0232 -0.1424 -0.0688
 2252SOL    HW1 7045   5.212   0.301   1.893  0.3659 -2.3014 -3.1937
 2252SOL    HW2 7046   5.308   0.185   1.956  0.9942  0.1466  0.7078
 2253SOL     OW 7047   3.301   3.819   5.452 -0.5575  0.0432  0.1656
 2253SOL    HW1 7048   3.203   3.799   5.448 -0.2566 -1.5467 -0.1920
 2253SOL    HW2 7049   3.338   3.819   5.359 -0.2832  1.0485  0.2684
 2254SOL     OW 7050   3.150   5.796   3.221  0.2771  0.2940 -0.1300
 2254SOL    HW1 7051   3.188   5.887   3.239  0.9456  0.1129 -0.5765
 2254SOL    HW2 7052   3.120   5.791   3.126 -1.2373  0.5492  0.3146
 2255SOL     OW 7053   1.424   0.955   4.416 -0.6530 -0.2232  0.0440
 2255SOL    HW1 7054   1.381   1.044   4.413 -0.6225 -0.2294 -0.8632
 2255SOL    HW2 7055   1.410   0.907   4.329  1.2301 -0.1853 -0.3372
 2256SOL     OW 7056   2.781   0.312   4.474 -0.5281 -0.2192 -0.1199
 2256SOL    HW1 7057   2.875   0.296   4.504 -0.8852 -0.1631  1.0486
 2256SOL    HW2 7058   2.718   0.297   4.550 -1.3390  1.3004 -0.4562
 2257SOL     OW 7059   3.966   1.437   1.306 -0.4073  0.3171  0.6056
 2257SOL    HW1 7060   3.877   1.429   1.261 -0.5491 -0.7235  1.0469
 2257SOL    HW2 7061   3.986   1.534   1.321 -1.4405  0.5737  0.4637
 2258SOL     OW 7062   3.091   3.049   0.838 -0.1866  0.4632 -0.1848
 2258SOL    HW1 7063   3.153   3.033   0.760  0.3204  0.5288  0.2014
 2258SOL    HW2 7064   3.036   2.967   0.853 -1.2657  0.9235 -1.4720
 2259SOL     OW 7065   4.554   2.669   1.043 -0.1968  0.5317 -0.1088
 2259SOL    HW1 7066   4.558   2.668   1.143 -1.6239  1.2765 -0.0151
 2259SOL    HW2 7067   4.563   2.576   1.008  1.4217  0.3800  0.6375
 2260SOL     OW 7068   1.893   1.174   3.525  0.1524 -0.0046  0.4923
 2260SOL    HW1 7069   1.832   1.166   3.603 -0.2542  1.4418  0.3584
 2260SOL    HW2 7070   1.840   1.190   3.442  0.6251 -0.6524  0.0523
 2261SOL     OW 7071   4.173   0.443   3.309  0.6352 -0.4224  0.2608
 2261SOL    HW1 7072   4.105   0.499   3.356  1.4459  0.1406  0.7811
 2261SOL    HW2 7073   4.132   0.402   3.227  0.0814  1.1550 -0.2849
 2262SOL     OW 7074   0.892   1.297   0.877 -0.1058  0.2167  0.8243
 2262SOL    HW1 7075   0.908   1.258   0.786 -0.2860 -1.6520  1.5634
 2262SOL    HW2 7076   0.976   1.293   0.930 -0.4635 -0.4025  1.3536
 2263SOL     OW 7077   5.383   4.435   5.109  0.0863  0.2163 -0.0278
 2263SOL    HW1 7078   5.439   4.497   5.163 -1.4907  1.2753  0.4820
 2263SOL    HW2 7079   5.360   4.478   5.021 -0.9892  0.3811  0.3150
 2264SOL     OW 7080   2.104   0.397   4.746 -0.5006 -0.1931 -0.1562
 2264SOL    HW1 7081   2.117   0.308   4.703  0.2464  0.2376 -0.8440
 2264SOL    HW2 7082   2.169   0.463   4.707 -2.5925  1.2522 -1.3623
 2265SOL     OW 7083   3.888   0.590   5.450  0.0455  0.1289 -0.2333
 2265SOL    HW1 7084   3.824   0.536   5.395  0.0901  1.5267 -1.7241
 2265SOL    HW2 7085   3.872   0.571   5.547 -0.3523 -2.0487 -0.6774
 2266SOL     OW 7086   0.407   0.757   1.095  0.3518  0.2863 -0.3495
 2266SOL    HW1 7087   0.479   0.743   1.163 -0.4891  0.2468  0.5436
 2266SOL    HW2 7088   0.437   0.719   1.007  0.9923 -0.6804  0.2734
 2267SOL     OW 7089   0.868   4.608   4.618 -0.1347  0.0666  0.1343
 2267SOL    HW1 7090   0.772   4.635   4.622 -0.2414 -0.1872 -0.6018
 2267SOL    HW2 7091   0.874   4.511   4.595  0.2889 -0.0694  0.7949
 2268SOL     OW 7092   4.246   0.925   1.890  0.4263  0.0358  0.3064
 2268SOL    HW1 7093   4.188   0.940   1.971  0.8315 -0.2197  0.6508
 2268SOL    HW2 7094   4.190   0.927   1.808  0.2196  1.7819  0.4596
 2269SOL     OW 7095   3.973   2.239   1.168  0.1065 -0.4951 -0.4268
 2269SOL    HW1 7096   4.002   2.147   1.144 -0.5587 -0.7133 -0.4096
 2269SOL    HW2 7097   4.050   2.289   1.209  0.8827 -0.5651 -1.7200
 2270SOL     OW 7098   3.322   0.651   2.861 -0.3504 -0.0244  0.4137
 2270SOL    HW1 7099   3.371   0.677   2.944  0.3699 -0.8090  0.2407
 2270SOL    HW2 7100   3.362   0.697   2.782 -0.2967 -0.1657  0.3574
 2271SOL     OW 7101   3.847   1.273   0.302 -0.2246 -0.7605  0.5327
 2271SOL    HW1 7102   3.823   1.278   0.205  0.2178 -0.3970  0.4381
 2271SOL    HW2 7103   3.806   1.349   0.351  1.3480  0.3413  0.2250
 2272SOL     OW 7104   1.224   0.078   2.269  0.1291 -0.3840 -0.6339
 2272SOL    HW1 7105   1.283   0.103   2.193  1.1141 -3.1327 -0.8818
 2272SOL    HW2 7106   1.257   0.121   2.353  0.7375  0.4037 -1.2651
 2273SOL     OW 7107   4.959   2.411   0.042  0.6736  0.0102 -0.0413
 2273SOL    HW1 7108   5.041   2.466   0.025  1.2413  0.2302  2.9589
 2273SOL    HW2 7109   4.984   2.314   0.046 -0.0546 -0.4658 -3.5910
 2274SOL     OW 7110   0.426   5.732   2.390 -0.2182 -0.6939  0.6847
 2274SOL    HW1 7111   0.353   5.787   2.349 -1.4486 -1.7021  1.4239
 2274SOL    HW2 7112   0.408   5.720   2.487  2.1610  0.8755  1.3861
 2275SOL     OW 7113   2.078   2.776   0.052 -0.4286  0.1581  0.2064
 2275SOL    HW1 7114   2.006   2.732  -0.002 -0.3633 -0.2630  0.4626
 2275SOL    HW2 7115   2.107   2.715   0.126  0.2875  0.2665  0.0240
 2276SOL     OW 7116   1.688   3.858   0.344 -0.0400  0.2145 -0.5349
 2276SOL    HW1 7117   1.629   3.786   0.380  0.0955  0.9633  1.2474
 2276SOL    HW2 7118   1.633   3.939   0.322 -0.1747 -0.3436 -2.4239
 2277SOL     OW 7119   2.573   4.670   3.905  0.5113 -0.2292 -0.0424
 2277SOL    HW1 7120   2.650   4.608   3.919  0.2889 -0.7308 -0.9192
 2277SOL    HW2 7121   2.503   4.653   3.974  0.5848 -0.7531 -0.0935
 2278SOL     OW 7122   1.330   1.296   0.706  0.3281 -0.5349 -0.2444
 2278SOL    HW1 7123   1.341   1.374   0.644 -1.7987  0.2018  0.2348
 2278SOL    HW2 7124   1.353   1.324   0.800 -0.0314 -0.6039 -0.1351
 2279SOL     OW 7125   2.462   2.704   2.578  0.5114  0.0932  0.0810
 2279SOL    HW1 7126   2.455   2.619   2.525 -1.1225  0.8348 -0.9624
 2279SOL    HW2 7127   2.552   2.709   2.621  1.9439 -0.5320 -2.6427
 2280SOL     OW 7128   1.220  -0.018   3.015 -0.2563  0.0780  0.1786
 2280SOL    HW1 7129   1.286  -0.009   3.090 -2.2331  2.3227  1.8204
 2280SOL    HW2 7130   1.256   0.026   2.933  1.0923 -0.5452  0.4128
 2281SOL     OW 7131   4.826   0.137   1.033 -0.9150 -0.1501 -0.1202
 2281SOL    HW1 7132   4.912   0.150   1.082 -1.7811  2.2886  0.9154
 2281SOL    HW2 7133   4.800   0.041   1.035  1.3049 -0.7895  0.3227
 2282SOL     OW 7134   3.044   1.461   2.794  0.6349  0.4312 -0.0893
 2282SOL    HW1 7135   2.948   1.434   2.796  1.0141 -0.9171  0.6338
 2282SOL    HW2 7136   3.062   1.512   2.710 -0.8778  1.4090  0.1245
 2283SOL     OW 7137   3.140   5.432   0.068 -0.2195  0.0201 -0.0210
 2283SOL    HW1 7138   3.218   5.468   0.016 -0.3482  0.3898  0.0417
 2283SOL    HW2 7139   3.091   5.508   0.112 -0.6546 -0.2047 -0.1144
 2284SOL     OW 7140   5.450   4.052   3.330 -0.3584 -0.3319 -0.1347
 2284SOL    HW1 7141   5.468   3.959   3.364 -2.5513 -1.0430 -0.7056
 2284SOL    HW2 7142   5.399   4.103   3.399  0.2416  0.2414 -0.1021
 2285SOL     OW 7143   1.747   0.158   2.230  0.0785 -0.0107 -0.8718
 2285SOL    HW1 7144   1.692   0.090   2.183  1.5159 -1.3127 -0.7585
 2285SOL    HW2 7145   1.735   0.247   2.185 -1.4172 -0.4343 -1.3606
 2286SOL     OW 7146   2.237   2.423   4.847  0.2716  0.3485 -0.4637
 2286SOL    HW1 7147   2.330   2.431   4.813  0.4037 -1.2420 -0.5620
 2286SOL    HW2 7148   2.177   2.394   4.772  0.1347 -0.8886  0.0965
 2287SOL     OW 7149   1.503   3.012   4.430  0.3650 -0.1848  0.4990
 2287SOL    HW1 7150   1.582   3.071   4.411 -0.3388  0.3961 -0.7155
 2287SOL    HW2 7151   1.458   3.043   4.514  0.7995  0.1524  0.6124
 2288SOL     OW 7152   4.878   2.548   2.277  0.5630 -0.4749  0.0986
 2288SOL    HW1 7153   4.959   2.579   2.328  0.8036  0.0957 -0.6252
 2288SOL    HW2 7154   4.828   2.627   2.243  0.6203 -0.8610 -0.8965
 2289SOL     OW 7155   1.072   1.597   5.781  0.5097  0.2463 -0.7016
 2289SOL    HW1 7156   0.973   1.597   5.761  0.1278 -2.3749  0.7594
 2289SOL    HW2 7157   1.123   1.604   5.695 -1.0005 -1.8351 -1.8522
 2290SOL     OW 7158   1.524   1.422   5.029 -0.2428 -0.1247  0.1534
 2290SOL    HW1 7159   1.494   1.449   5.121 -0.3085 -1.3908  0.5182
 2290SOL    HW2 7160   1.622   1.442   5.019  0.2772 -1.8420  1.2662
 2291SOL     OW 7161   4.544   1.133   0.413 -0.2810 -0.4540  0.4417
 2291SOL    HW1 7162   4.532   1.232   0.419 -0.2360 -0.3357 -1.1377
 2291SOL    HW2 7163   4.498   1.099   0.331 -1.4022 -1.9371  1.6231
 2292SOL     OW 7164   5.877   2.829   2.794 -0.0427  0.4246 -0.9361
 2292SOL    HW1 7165   5.900   2.904   2.732 -1.3819 -0.0588 -2.0457
 2292SOL    HW2 7166   5.819   2.863   2.868 -1.2941  0.3469 -1.8710
 2293SOL     OW 7167   1.227   5.154   5.294 -0.5331  0.3528 -0.0546
 2293SOL    HW1 7168   1.176   5.215   5.234 -1.8850 -0.4538  0.2286
 2293SOL    HW2 7169   1.267   5.080   5.241  0.5135  1.0826 -0.3023
 2294SOL     OW 7170   0.805   2.463   0.041  0.4656  0.4348  0.2907
 2294SOL    HW1 7171   0.821   2.367   0.064 -0.9749 -0.5311 -2.3592
 2294SOL    HW2 7172   0.713   2.489   0.068  0.3288  0.6125 -0.3335
 2295SOL     OW 7173   1.713   4.669   3.529 -0.2959 -0.2434  0.1918
 2295SOL    HW1 7174   1.636   4.677   3.592  0.1935  1.0212  0.6610
 2295SOL    HW2 7175   1.682   4.684   3.435 -0.3870  1.9355  0.5283
 2296SOL     OW 7176   2.224   0.884   2.645  0.0838 -0.0398  0.2585
 2296SOL    HW1 7177   2.303   0.925   2.689 -0.0862  0.4457  0.1207
 2296SOL    HW2 7178   2.142   0.938   2.666 -0.3916 -1.1003  1.2360
 2297SOL     OW 7179   3.671   3.862   1.488  0.7344  0.0195  0.7752
 2297SOL    HW1 7180   3.726   3.889   1.567  0.6978 -0.4567  0.9687
 2297SOL    HW2 7181   3.586   3.820   1.520  0.0533  1.1458  0.4816
 2298SOL     OW 7182   5.391   2.236   4.241 -0.4743 -0.5327  0.1896
 2298SOL    HW1 7183   5.398   2.225   4.142 -0.3683 -0.4141  0.1835
 2298SOL    HW2 7184   5.378   2.147   4.284 -0.4067 -0.5956  0.0783
 2299SOL     OW 7185   4.458   3.030   3.565  0.5599 -0.3429 -0.4838
 2299SOL    HW1 7186   4.448   3.065   3.472  2.1279 -1.1801 -1.0032
 2299SOL    HW2 7187   4.378   3.057   3.619 -0.2168  0.4644 -1.9561
 2300SOL     OW 7188   3.856   4.229   2.312 -0.3784  0.1367  0.1334
 2300SOL    HW1 7189   3.819   4.245   2.220  0.6657 -0.8756 -0.4850
 2300SOL    HW2 7190   3.906   4.310   2.342  1.6197 -0.4678 -1.3695
 2301SOL     OW 7191   0.315   4.083   2.386  0.1880  0.2856  0.2141
 2301SOL    HW1 7192   0.392   4.129   2.342 -0.9302  2.6009  0.5073
 2301SOL    HW2 7193   0.231   4.136   2.371 -1.2726 -1.8235  0.4100
 2302SOL     OW 7194   3.004   2.785   2.771  0.0138  0.1252  0.3611
 2302SOL    HW1 7195   3.054   2.714   2.822  0.0393 -0.1589 -0.0563
 2302SOL    HW2 7196   3.062   2.865   2.759  0.8051 -0.6287 -1.1239
 2303SOL     OW 7197   5.751   5.630   4.633 -0.1706  0.1136 -0.0163
 2303SOL    HW1 7198   5.701   5.668   4.555  0.1119  1.4601  0.4197
 2303SOL    HW2 7199   5.848   5.620   4.609 -0.1993 -0.0892 -0.0474
 2304SOL     OW 7200   5.837   3.050   5.043  0.7077 -0.5987 -0.2028
 2304SOL    HW1 7201   5.738   3.039   5.059  0.5046  1.0111 -0.2596
 2304SOL    HW2 7202   5.873   2.965   5.004 -0.7629 -1.0237 -0.7246
 2305SOL     OW 7203   2.275   1.555   2.945 -0.1039  0.1591 -0.1788
 2305SOL    HW1 7204   2.257   1.473   2.890  1.1949 -2.7414  3.3267
 2305SOL    HW2 7205   2.372   1.578   2.939 -0.2588  0.8038 -0.2778
 2306SOL     OW 7206   4.015   4.870   3.849  0.2726  0.0391 -0.2512
 2306SOL    HW1 7207   3.954   4.924   3.791 -1.0975  1.4059  2.3105
 2306SOL    HW2 7208   3.962   4.800   3.897  1.2471 -0.5674 -0.0265
 2307SOL     OW 7209   1.790   4.051   4.653 -0.0531 -0.0442  0.4595
 2307SOL    HW1 7210   1.699   4.091   4.658 -0.3892 -0.8154  0.6014
 2307SOL    HW2 7211   1.826   4.039   4.745  0.5408  1.0193  0.3823
 2308SOL     OW 7212   5.094   0.477   0.788  0.3003  0.0257 -0.9597
 2308SOL    HW1 7213   5.074   0.509   0.880  2.4381 -1.7912  0.2133
 2308SOL    HW2 7214   5.010   0.442   0.746 -0.6264  0.5400  0.4160
 2309SOL     OW 7215   1.431   4.043   1.251  0.0908 -0.9255 -0.5919
 2309SOL    HW1 7216   1.462   4.033   1.346  0.4277 -0.5209 -0.6542
 2309SOL    HW2 7217   1.434   4.140   1.226 -1.2564 -0.8661 -0.5946
 2310SOL     OW 7218   1.462   1.822   2.627 -0.0964 -0.4875  0.5349
 2310SOL    HW1 7219   1.397   1.853   2.696 -0.2382 -0.0871  0.2202
 2310SOL    HW2 7220   1.507   1.738   2.659 -0.5439 -0.5957  0.8828
 2311SOL     OW 7221   4.992   4.270   4.075 -0.7023  0.3174 -0.1752
 2311SOL    HW1 7222   4.915   4.269   4.138 -1.4903 -0.7791 -1.1116
 2311SOL    HW2 7223   4.993   4.356   4.024 -2.3232 -0.2808 -1.3093
 2312SOL     OW 7224   5.592   1.421   4.164 -0.0774 -0.3672 -0.3414
 2312SOL    HW1 7225   5.666   1.464   4.113 -0.2516 -1.2698 -1.3810
 2312SOL    HW2 7226   5.629   1.372   4.243  0.1103  1.7884  1.0014
 2313SOL     OW 7227   2.433   4.038   0.375 -0.1446  0.2336  0.4386
 2313SOL    HW1 7228   2.389   4.013   0.288  0.2851  2.1460 -0.4027
 2313SOL    HW2 7229   2.389   3.990   0.450 -0.5213 -1.5013 -0.8359
 2314SOL     OW 7230   5.154   0.090   4.022  0.0142 -0.4921 -0.0274
 2314SOL    HW1 7231   5.056   0.107   4.036  0.3937  2.3389 -0.3070
 2314SOL    HW2 7232   5.175   0.095   3.925  0.2359 -2.8651 -0.1786
 2315SOL     OW 7233   5.418   0.957   1.032  0.2227 -0.0660  0.6184
 2315SOL    HW1 7234   5.470   1.043   1.038  0.9245 -0.3697 -0.7052
 2315SOL    HW2 7235   5.343   0.959   1.098  0.1286  1.6360  0.5075
 2316SOL     OW 7236   5.589   0.813   1.550 -0.8274 -0.7899  0.4697
 2316SOL    HW1 7237   5.655   0.744   1.582  1.1370  0.5021 -0.5760
 2316SOL    HW2 7238   5.638   0.883   1.498 -3.2906 -0.6012 -1.7730
 2317SOL     OW 7239   4.190   5.356   5.036  0.3572  0.1611  0.6644
 2317SOL    HW1 7240   4.119   5.325   5.100  0.0634  1.4069  0.9620
 2317SOL    HW2 7241   4.273   5.302   5.051 -0.4227 -1.1505  0.4820
 2318SOL     OW 7242   5.662   1.328   0.195  0.1453  0.3479  0.2777
 2318SOL    HW1 7243   5.616   1.412   0.166 -0.6229  0.0624  0.6365
 2318SOL    HW2 7244   5.673   1.268   0.117 -1.2056 -0.0853  0.3838
 2319SOL     OW 7245   0.494   5.522   5.355  0.3040 -0.1890  0.0248
 2319SOL    HW1 7246   0.528   5.578   5.431  0.6407  2.6371 -2.0663
 2319SOL    HW2 7247   0.571   5.484   5.304  0.0805 -2.7934  1.4491
 2320SOL     OW 7248   5.411   3.556   5.270  0.5969 -0.7329  0.0804
 2320SOL    HW1 7249   5.341   3.602   5.215  1.8746 -0.0411 -1.0404
 2320SOL    HW2 7250   5.435   3.469   5.228  1.3947 -0.3197 -0.3537
 2321SOL     OW 7251   1.212   2.842   5.154  0.6522 -0.1708  0.7583
 2321SOL    HW1 7252   1.228   2.932   5.113  2.1226 -0.7548 -0.0369
 2321SOL    HW2 7253   1.118   2.813   5.137  0.2134  1.1431  0.8881
 2322SOL     OW 7254   3.346   4.144   1.939  0.4178  0.0317 -0.5164
 2322SOL    HW1 7255   3.334   4.117   1.844  1.1505 -1.0664 -0.3223
 2322SOL    HW2 7256   3.410   4.081   1.983  1.0429  1.2511  0.3758
 2323SOL     OW 7257   1.512   1.531   1.196 -0.4647 -0.3372 -0.4409
 2323SOL    HW1 7258   1.490   1.622   1.233 -0.6317 -0.8102  0.6839
 2323SOL    HW2 7259   1.557   1.541   1.108 -1.0993  0.8168 -0.6638
 2324SOL     OW 7260   3.485   2.944   0.607  0.4826  0.5743  0.3136
 2324SOL    HW1 7261   3.525   2.913   0.521  0.5895 -0.3123  0.6760
 2324SOL    HW2 7262   3.388   2.922   0.610  0.3226  1.2259  0.1391
 2325SOL     OW 7263   2.881   3.347   4.925  0.1080  0.1416  0.0442
 2325SOL    HW1 7264   2.889   3.422   4.992  0.9663 -0.8415  1.0895
 2325SOL    HW2 7265   2.889   3.260   4.972 -0.1608 -0.6055 -1.2523
 2326SOL     OW 7266   2.764   1.336   1.834  0.2750  0.4408  0.2322
 2326SOL    HW1 7267   2.784   1.335   1.736  1.6709 -4.3144  0.2904
 2326SOL    HW2 7268   2.842   1.298   1.884 -0.4093  2.6756  3.2884
 2327SOL     OW 7269   4.589   1.309   4.307  0.1401  0.3766  0.0757
 2327SOL    HW1 7270   4.644   1.386   4.340  1.6595 -1.0720  0.9962
 2327SOL    HW2 7271   4.644   1.252   4.246 -1.1865  0.3575 -1.1652
 2328SOL     OW 7272   4.906   1.585   2.084 -0.0247 -0.2846  1.2066
 2328SOL    HW1 7273   4.894   1.672   2.131  1.4034 -0.1926  1.4478
 2328SOL    HW2 7274   4.987   1.539   2.119 -1.4677 -2.3460  2.0022
 2329SOL     OW 7275   4.618   1.808   5.821 -0.2853  0.1169  0.0562
 2329SOL    HW1 7276   4.656   1.735   5.878  1.0478  1.9059  1.5986
 2329SOL    HW2 7277   4.551   1.860   5.874  2.5390  3.1673  0.9752
 2330SOL     OW 7278   2.057   0.031   4.879  0.8079 -0.0686  0.1507
 2330SOL    HW1 7279   1.988   0.101   4.862  1.8217  0.8283 -0.3843
 2330SOL    HW2 7280   2.109   0.055   4.960  0.8167 -0.4882  0.2721
 2331SOL     OW 7281   1.827   1.456   0.840  0.1385 -0.5235 -0.1551
 2331SOL    HW1 7282   1.919   1.437   0.875  0.5310  0.9491 -0.3023
 2331SOL    HW2 7283   1.833   1.481   0.743  0.2902  4.0391  0.8211
 2332SOL     OW 7284   0.584   0.664   4.651  0.3096 -0.1847 -0.0585
 2332SOL    HW1 7285   0.653   0.669   4.722 -0.6987  1.2997  0.8830
 2332SOL    HW2 7286   0.500   0.710   4.682 -0.2728  0.2374 -2.0682
 2333SOL     OW 7287   2.349   3.977   5.783  0.4576  0.9880  0.2979
 2333SOL    HW1 7288   2.445   3.998   5.761  0.6131 -0.1097 -0.1205
 2333SOL    HW2 7289   2.333   3.879   5.772 -0.5096  1.0290  1.1843
 2334SOL     OW 7290   1.646   3.416   5.631 -0.3725  0.7674 -0.0066
 2334SOL    HW1 7291   1.683   3.336   5.585  0.0957  0.3849  1.0053
 2334SOL    HW2 7292   1.671   3.498   5.580  2.5577  0.6001  0.9794
 2335SOL     OW 7293   0.765   3.657   4.187  0.3025  0.4644  0.3872
 2335SOL    HW1 7294   0.763   3.718   4.107  0.0324 -0.2015 -0.1219
 2335SOL    HW2 7295   0.832   3.691   4.253 -0.3602  1.7248  0.4426
 2336SOL     OW 7296   1.288   0.574   0.450  0.2009 -0.2466 -0.1543
 2336SOL    HW1 7297   1.252   0.661   0.417 -0.5885 -0.0246  1.2230
 2336SOL    HW2 7298   1.238   0.499   0.407 -3.1549  0.0355  2.7341
 2337SOL     OW 7299   0.262   3.547   4.409  0.7570 -0.4854 -0.1219
 2337SOL    HW1 7300   0.326   3.474   4.436  1.6117  0.5277  0.6990
 2337SOL    HW2 7301   0.260   3.617   4.480 -1.7889 -0.7795  0.1753
 2338SOL     OW 7302   3.159   5.772   2.594  0.5810  0.5433  0.3124
 2338SOL    HW1 7303   3.093   5.838   2.630  0.0310 -0.3926  1.0811
 2338SOL    HW2 7304   3.250   5.793   2.629  0.1465 -0.0189  1.8895
 2339SOL     OW 7305   3.089   0.223   0.536  0.4431 -0.0638  0.2665
 2339SOL    HW1 7306   3.166   0.182   0.488  0.2677 -0.7444  0.5526
 2339SOL    HW2 7307   3.123   0.289   0.604  0.7493 -0.0812  0.1303
 2340SOL     OW 7308   4.526   1.087   5.882 -0.6375 -0.0238  0.5003
 2340SOL    HW1 7309   4.459   1.092   5.808  0.0301  0.0663 -0.1182
 2340SOL    HW2 7310   4.612   1.129   5.851  0.3762 -1.9756  0.5154
 2341SOL     OW 7311   0.037   4.738   4.344 -0.5302 -0.4295  0.4324
 2341SOL    HW1 7312   0.033   4.645   4.307 -0.5387 -1.0717  1.9841
 2341SOL    HW2 7313   0.131   4.759   4.371 -0.6392 -0.2219  0.6614
 2342SOL     OW 7314   1.206   3.119   5.091  0.6559 -0.2503 -0.1948
 2342SOL    HW1 7315   1.119   3.138   5.137 -0.5723 -1.1382 -1.9737
 2342SOL    HW2 7316   1.255   3.204   5.075 -0.9576  0.5864 -1.0564
 2343SOL     OW 7317   5.378   4.842   0.462 -0.2419  0.2271 -0.4549
 2343SOL    HW1 7318   5.310   4.914   0.448  0.0677  0.8194  0.9727
 2343SOL    HW2 7319   5.467   4.883   0.479  0.4738 -0.5453 -2.0881
 2344SOL     OW 7320   1.882   5.364   4.466 -0.1567  0.2405  0.1369
 2344SOL    HW1 7321   1.802   5.321   4.424  0.2872  0.8621 -1.3863
 2344SOL    HW2 7322   1.887   5.460   4.440  0.5058  0.4833  1.0929
 2345SOL     OW 7323   1.927   2.397   4.759 -0.2145  1.2140  0.8099
 2345SOL    HW1 7324   1.899   2.481   4.805 -2.5162  0.6969  0.4668
 2345SOL    HW2 7325   1.862   2.324   4.780  1.0110 -0.1672  0.0582
 2346SOL     OW 7326   1.388   1.361   5.551 -0.1997  0.2004 -0.6899
 2346SOL    HW1 7327   1.479   1.348   5.590  0.7282  0.5364 -2.6094
 2346SOL    HW2 7328   1.329   1.285   5.578  1.6542 -1.8989 -2.1173
 2347SOL     OW 7329   3.957   1.536   2.442  0.1286  0.2235  0.2546
 2347SOL    HW1 7330   3.986   1.530   2.347  1.6764  1.0474  0.6523
 2347SOL    HW2 7331   3.876   1.479   2.455  0.6065 -0.8765 -1.2746
 2348SOL     OW 7332   3.955   3.700   1.990 -0.3504  0.4224  0.3691
 2348SOL    HW1 7333   3.896   3.650   2.053 -1.0458  0.0356 -0.5551
 2348SOL    HW2 7334   3.980   3.788   2.030  0.7031 -0.5417  1.9234
 2349SOL     OW 7335   0.860   5.247   1.575 -0.0476  0.0196  0.2148
 2349SOL    HW1 7336   0.880   5.345   1.587 -0.1250 -0.0218  0.7308
 2349SOL    HW2 7337   0.800   5.235   1.496  1.7521  0.1623 -1.2377
 2350SOL     OW 7338   0.148   1.299   3.005 -0.6938  0.2014 -0.0631
 2350SOL    HW1 7339   0.135   1.221   2.944 -1.5977  0.4149 -0.1521
 2350SOL    HW2 7340   0.131   1.384   2.956 -4.1024  0.3174  1.0479
 2351SOL     OW 7341   3.089   2.006   2.664  0.1947  0.5408 -0.0757
 2351SOL    HW1 7342   3.108   1.909   2.675 -1.6352 -0.0706 -1.6364
 2351SOL    HW2 7343   3.096   2.031   2.567  3.5620  2.7256  0.5581
 2352SOL     OW 7344   0.591   2.767   2.794 -0.9641 -0.3184  0.1975
 2352SOL    HW1 7345   0.627   2.675   2.776  0.2807  0.1149  0.3657
 2352SOL    HW2 7346   0.523   2.790   2.725  0.6886 -0.3241 -1.5284
 2353SOL     OW 7347   0.220   3.239   5.950 -0.3268  0.1992 -0.2928
 2353SOL    HW1 7348   0.149   3.274   5.889  0.5490 -1.0801 -2.1378
 2353SOL    HW2 7349   0.191   3.150   5.987  0.0681 -0.0541 -0.5901
 2354SOL     OW 7350   2.060   5.802   5.280 -0.5856  0.2078  0.0008
 2354SOL    HW1 7351   1.991   5.763   5.219  0.1006  0.5380 -1.0049
 2354SOL    HW2 7352   2.148   5.755   5.266 -0.0792  1.2170 -0.2830
 2355SOL     OW 7353   3.278   4.379   1.684 -0.1045 -0.2876  0.3871
 2355SOL    HW1 7354   3.253   4.402   1.778  0.6407 -0.4856  0.6394
 2355SOL    HW2 7355   3.358   4.432   1.656 -0.5522  0.0573 -0.2778
 2356SOL     OW 7356   2.610   0.201   1.533  0.1598 -0.0772  0.0590
 2356SOL    HW1 7357   2.582   0.148   1.453  0.7752  1.8063 -1.5054
 2356SOL    HW2 7358   2.654   0.141   1.600 -3.5382 -2.3649  0.6933
 2357SOL     OW 7359   3.084   1.622   0.545 -0.2525 -0.6458  0.2281
 2357SOL    HW1 7360   3.015   1.694   0.534 -1.3833 -1.8647 -1.0010
 2357SOL    HW2 7361   3.151   1.628   0.470 -0.5732 -1.1037 -0.0982
 2358SOL     OW 7362   0.446   3.140   5.640  0.1823 -0.3649  0.1088
 2358SOL    HW1 7363   0.410   3.047   5.644  0.3158 -0.4302 -0.2092
 2358SOL    HW2 7364   0.535   3.144   5.686  0.7115 -0.6456 -0.8702
 2359SOL     OW 7365   4.448   2.987   0.205  0.4013 -0.1480  0.0831
 2359SOL    HW1 7366   4.349   2.978   0.209  0.1196  2.1094 -0.3233
 2359SOL    HW2 7367   4.484   2.938   0.126 -0.6744  0.7478 -1.0001
 2360SOL     OW 7368   0.310   1.491   0.827  0.5559  0.7770 -0.0595
 2360SOL    HW1 7369   0.377   1.452   0.765 -0.7466 -1.5604 -0.0878
 2360SOL    HW2 7370   0.329   1.461   0.920  0.6770  1.7075  0.2233
 2361SOL     OW 7371   0.963   2.613   3.888  0.0248 -0.0454  0.3516
 2361SOL    HW1 7372   0.930   2.522   3.866  1.2008 -0.5892  0.7346
 2361SOL    HW2 7373   1.053   2.606   3.931  0.4789  1.3390 -0.3143
 2362SOL     OW 7374   5.620   0.544   4.128 -0.2905  0.2714 -0.4298
 2362SOL    HW1 7375   5.605   0.527   4.225  1.8665  0.7727  0.0293
 2362SOL    HW2 7376   5.588   0.636   4.104 -1.1036  0.0355 -0.2983
 2363SOL     OW 7377   5.696   4.781   1.406  0.0398 -0.2514 -0.2947
 2363SOL    HW1 7378   5.667   4.854   1.345 -0.3903 -0.7024 -0.6362
 2363SOL    HW2 7379   5.711   4.818   1.498 -1.3570  0.0570 -0.1681
 2364SOL     OW 7380   3.062   0.138   4.837 -0.4201  0.0667 -0.0814
 2364SOL    HW1 7381   3.156   0.135   4.871 -0.8769  1.3810  1.4193
 2364SOL    HW2 7382   3.014   0.216   4.878 -1.7504  0.2934 -1.9401
 2365SOL     OW 7383   1.798   2.766   1.131  0.0792 -0.2987 -0.6746
 2365SOL    HW1 7384   1.832   2.822   1.056 -0.2795  0.7254 -0.0923
 2365SOL    HW2 7385   1.862   2.770   1.208 -0.9287  1.0004  0.1319
 2366SOL     OW 7386   4.125   2.617   5.827 -0.4624  0.0387  0.3304
 2366SOL    HW1 7387   4.133   2.523   5.859 -0.3285  0.4286  1.4977
 2366SOL    HW2 7388   4.214   2.662   5.835 -0.6527  0.4229  0.3059
 2367SOL     OW 7389   0.044   0.042   4.761  0.0240 -0.1354  0.0955
 2367SOL    HW1 7390   0.060  -0.055   4.741  1.1803  0.2644 -0.9941
 2367SOL    HW2 7391   0.105   0.071   4.835 -0.9995 -0.4465  1.1038
 2368SOL     OW 7392   0.289   2.082   5.924 -0.5365  0.1646  0.1537
 2368SOL    HW1 7393   0.249   2.032   6.001 -0.3976  1.6542  1.2366
 2368SOL    HW2 7394   0.283   2.025   5.842 -2.5237 -0.6898  0.8027
 2369SOL     OW 7395   4.103   3.118   4.174 -0.6968 -0.0892 -0.1322
 2369SOL    HW1 7396   4.003   3.118   4.174 -0.7074  0.5066 -0.8609
 2369SOL    HW2 7397   4.136   3.170   4.095  0.1852 -0.0313  0.2637
 2370SOL     OW 7398   1.272   3.012   3.409  0.0937 -0.5341  0.3541
 2370SOL    HW1 7399   1.224   2.945   3.352 -0.3652  0.1751 -0.1039
 2370SOL    HW2 7400   1.217   3.095   3.416  1.6394  0.6497 -0.9308
 2371SOL     OW 7401   3.208   0.408   0.073 -0.0595  0.9718 -0.0908
 2371SOL    HW1 7402   3.148   0.449   0.142 -0.4075  0.6529 -0.2003
 2371SOL    HW2 7403   3.242   0.479   0.012 -1.7898  0.9566 -1.1617
 2372SOL     OW 7404   0.166   2.765   2.859 -1.0755  0.1977  0.2077
 2372SOL    HW1 7405   0.201   2.705   2.787  0.3493 -0.3406  1.3035
 2372SOL    HW2 7406   0.068   2.780   2.845 -0.8419  0.1031 -1.8205
 2373SOL     OW 7407   0.043   0.122   0.995  0.0238 -0.2236  0.6458
 2373SOL    HW1 7408  -0.006   0.206   1.020 -1.0313 -0.4851 -0.4399
 2373SOL    HW2 7409   0.003   0.084   0.911  1.6866 -0.8018  0.0729
 2374SOL     OW 7410   0.825   2.680   1.656 -0.3221  0.5207  0.6329
 2374SOL    HW1 7411   0.761   2.754   1.637  0.8759  1.6643  0.8863
 2374SOL    HW2 7412   0.890   2.672   1.580 -0.4267 -0.2748  0.6167
 2375SOL     OW 7413   3.718   0.793   0.543 -0.1693 -0.1834  0.0978
 2375SOL    HW1 7414   3.783   0.864   0.514 -0.2699  0.3473  1.1391
 2375SOL    HW2 7415   3.627   0.816   0.510  0.3034 -1.5572 -2.4497
 2376SOL     OW 7416   1.709   0.851   1.091 -0.4896  0.8084  0.5911
 2376SOL    HW1 7417   1.759   0.929   1.128  0.2467  0.1970  0.9058
 2376SOL    HW2 7418   1.772   0.791   1.041 -0.9967  0.2724  0.5790
 2377SOL     OW 7419   5.812   3.004   4.275  0.0814 -0.1014  0.1855
 2377SOL    HW1 7420   5.740   3.062   4.313 -0.6525  0.3245 -1.7311
 2377SOL    HW2 7421   5.901   3.045   4.293 -0.4570  2.1831 -1.8958
 2378SOL     OW 7422   4.201   0.268   4.707 -0.0910  0.0153 -0.2482
 2378SOL    HW1 7423   4.177   0.301   4.616 -0.6794  0.2805 -0.0007
 2378SOL    HW2 7424   4.167   0.175   4.719  0.1954 -0.1086 -0.3812
 2379SOL     OW 7425   3.447   0.595   1.650  0.2671  0.0236 -0.1749
 2379SOL    HW1 7426   3.491   0.658   1.587 -0.9895  2.2209  1.0179
 2379SOL    HW2 7427   3.354   0.576   1.619 -0.2260  0.8093  0.7723
 2380SOL     OW 7428   3.610   0.255   5.497  0.0623 -0.6132  0.5318
 2380SOL    HW1 7429   3.599   0.274   5.595  0.0248 -1.1794  0.6368
 2380SOL    HW2 7430   3.704   0.226   5.480 -0.7115 -3.6843  0.9372
 2381SOL     OW 7431   5.159   4.941   3.875  0.0391 -0.0077 -0.5033
 2381SOL    HW1 7432   5.131   5.028   3.836  1.0446  0.5275 -0.0806
 2381SOL    HW2 7433   5.259   4.940   3.884 -0.0888 -0.5025  1.1059
 2382SOL     OW 7434   5.955   1.166   3.504  0.0842  0.7938 -0.2676
 2382SOL    HW1 7435   5.938   1.185   3.407 -0.8093  2.7238  0.1978
 2382SOL    HW2 7436   5.868   1.149   3.550  0.5391 -0.5207  0.1398
 2383SOL     OW 7437   5.263   5.385   3.201 -0.0019  0.1842  0.2968
 2383SOL    HW1 7438   5.333   5.329   3.156  1.8897  1.9180  0.9261
 2383SOL    HW2 7439   5.178   5.381   3.149  1.2781 -0.0283 -1.8993
 2384SOL     OW 7440   3.859   1.089   1.678 -0.2786 -0.2286  0.2541
 2384SOL    HW1 7441   3.787   1.144   1.720  0.6004  0.9289  0.2795
 2384SOL    HW2 7442   3.882   1.126   1.588 -0.3020 -1.1130 -0.1327
 2385SOL     OW 7443   5.715   4.906   0.624  0.3430  0.2186 -0.0493
 2385SOL    HW1 7444   5.670   4.995   0.633 -1.8043 -0.7799 -0.3350
 2385SOL    HW2 7445   5.716   4.861   0.713  2.9900  1.1574  0.4906
 2386SOL     OW 7446   1.020   1.481   0.621 -0.0334 -0.5412 -0.4647
 2386SOL    HW1 7447   0.984   1.388   0.630  1.3614 -0.9996  0.9228
 2386SOL    HW2 7448   1.015   1.526   0.710  2.1789 -0.4224 -0.3449
 2387SOL     OW 7449   0.179   3.348   4.010  0.0443 -0.0356 -0.2977
 2387SOL    HW1 7450   0.203   3.252   4.024 -0.8228 -0.3763 -1.0500
 2387SOL    HW2 7451   0.079   3.357   4.007  0.0749  0.3966 -3.1359
 2388SOL     OW 7452   4.211   4.885   4.675  0.0130  0.2596 -0.1005
 2388SOL    HW1 7453   4.221   4.978   4.712  0.7114 -0.3245  1.2453
 2388SOL    HW2 7454   4.167   4.827   4.744  0.5126 -0.6522 -0.5389
 2389SOL     OW 7455   2.564   1.550   3.582  0.6470 -0.2448 -0.2312
 2389SOL    HW1 7456   2.513   1.636   3.592  1.4550 -0.0276  3.1445
 2389SOL    HW2 7457   2.584   1.512   3.672  1.4320 -3.3767 -1.5950
 2390SOL     OW 7458   5.783   3.948   0.709  0.4056 -0.3981  0.1197
 2390SOL    HW1 7459   5.725   3.947   0.628  0.7667  0.6591 -0.1626
 2390SOL    HW2 7460   5.816   3.855   0.728 -4.4482 -1.9665  2.5552
 2391SOL     OW 7461   1.377   5.775   1.779 -0.7159  0.1053  0.1764
 2391SOL    HW1 7462   1.461   5.764   1.726 -0.7063  0.6008  0.0869
 2391SOL    HW2 7463   1.345   5.685   1.810  1.3590  0.0982  2.5874
 2392SOL     OW 7464   5.980   4.150   1.953 -0.1336  0.4905 -0.8881
 2392SOL    HW1 7465   5.889   4.191   1.962  0.2890  1.1598  0.6002
 2392SOL    HW2 7466   5.996   4.128   1.857 -1.9580  0.1186 -1.1490
 2393SOL     OW 7467   5.169   5.399   4.886 -0.4731  0.0305 -0.5478
 2393SOL    HW1 7468   5.137   5.337   4.957  0.4473  0.2414  0.0726
 2393SOL    HW2 7469   5.184   5.348   4.801  0.7766 -0.7280  0.0988
 2394SOL     OW 7470   5.366   2.533   3.827 -0.3805 -0.6221 -0.3015
 2394SOL    HW1 7471   5.460   2.503   3.810  0.1461 -0.6013  2.2191
 2394SOL    HW2 7472   5.361   2.632   3.817  0.3635 -0.3816  1.3486
 2395SOL     OW 7473   3.419   1.130   2.088 -0.4688  0.4557 -0.1656
 2395SOL    HW1 7474   3.425   1.130   2.188 -2.8149  1.5481  0.0430
 2395SOL    HW2 7475   3.498   1.179   2.050  0.5804 -0.1829  1.1168
 2396SOL     OW 7476   5.463   2.871   2.482 -0.0524  0.3083  0.9414
 2396SOL    HW1 7477   5.388   2.914   2.532  0.5217  0.3345  1.8066
 2396SOL    HW2 7478   5.522   2.822   2.546  0.1037 -0.5766  0.1485
 2397SOL     OW 7479   1.577   5.457   1.745  0.0146  0.2469 -0.1741
 2397SOL    HW1 7480   1.649   5.405   1.699  0.5178  0.8425 -0.0745
 2397SOL    HW2 7481   1.618   5.520   1.811 -0.5312  1.2808 -0.7960
 2398SOL     OW 7482   3.518   2.555   2.957  0.6820 -0.1823  0.0150
 2398SOL    HW1 7483   3.528   2.465   2.915  0.6662  0.3360 -1.1242
 2398SOL    HW2 7484   3.498   2.623   2.887  1.6974  0.8874  0.7218
 2399SOL     OW 7485   3.055   1.519   3.397 -0.0482 -0.3704 -0.1228
 2399SOL    HW1 7486   3.145   1.522   3.440  0.6530 -0.1748 -1.5272
 2399SOL    HW2 7487   3.045   1.434   3.346 -1.7251 -1.6061  2.1144
 2400SOL     OW 7488   3.746   0.999   3.780 -0.2622 -0.6520  0.5510
 2400SOL    HW1 7489   3.761   0.974   3.684 -0.7111 -0.8344  0.5286
 2400SOL    HW2 7490   3.652   1.029   3.793  0.8274  3.6028  0.0438
 2401SOL     OW 7491   0.449   4.261   1.457  0.3215 -0.8565  0.3530
 2401SOL    HW1 7492   0.484   4.276   1.364 -1.9034  0.6544 -0.3336
 2401SOL    HW2 7493   0.516   4.295   1.523  1.3916 -0.7443 -0.7391
 2402SOL     OW 7494   3.938   0.208   3.224  0.0284 -0.7953 -0.4924
 2402SOL    HW1 7495   3.881   0.128   3.202  0.1359 -0.2354 -3.2049
 2402SOL    HW2 7496   3.947   0.217   3.323 -4.0308 -1.2865  0.0701
 2403SOL     OW 7497   3.033   5.014   4.457 -0.5012 -0.1714  0.6843
 2403SOL    HW1 7498   3.074   4.976   4.540 -0.1169 -2.0997 -0.3144
 2403SOL    HW2 7499   3.089   4.989   4.378 -1.3683  0.7785 -0.2623
 2404SOL     OW 7500   5.412   0.369   1.168  0.1370  0.0315 -0.2696
 2404SOL    HW1 7501   5.365   0.429   1.233  0.5894  0.3264 -0.2037
 2404SOL    HW2 7502   5.401   0.406   1.076  0.7863  0.4700 -0.1791
 2405SOL     OW 7503   4.605   4.755   4.467  0.2247 -0.8620  0.8302
 2405SOL    HW1 7504   4.691   4.721   4.504  1.5257  0.0654 -1.1333
 2405SOL    HW2 7505   4.587   4.847   4.503  1.9021  0.3786 -1.2385
 2406SOL     OW 7506   1.035   3.070   0.635 -0.1338  0.1795 -0.3892
 2406SOL    HW1 7507   1.094   3.028   0.565 -1.2640  0.6767 -1.6852
 2406SOL    HW2 7508   0.949   3.098   0.593 -1.3659 -0.6210  1.4704
 2407SOL     OW 7509   0.335   4.733   5.760 -0.0986 -0.4127  0.0609
 2407SOL    HW1 7510   0.340   4.830   5.780 -0.8419 -0.0292 -1.4595
 2407SOL    HW2 7511   0.367   4.716   5.667 -0.0381 -1.6261  0.2787
 2408SOL     OW 7512   2.371   5.101   0.683 -0.4440 -0.0044 -0.4115
 2408SOL    HW1 7513   2.364   5.002   0.670  0.7166 -0.3227  1.0925
 2408SOL    HW2 7514   2.457   5.133   0.644  0.0642  0.0670  0.7134
 2409SOL     OW 7515   4.895   2.592   5.596  0.0976  0.3755  0.3852
 2409SOL    HW1 7516   4.802   2.598   5.560 -0.1577 -0.5421  0.8559
 2409SOL    HW2 7517   4.907   2.504   5.642  1.1454  0.5583  0.4849
 2410SOL     OW 7518   2.794   3.924   4.812  0.0702  0.4540  0.5527
 2410SOL    HW1 7519   2.860   3.874   4.867  0.3160  2.1727  1.8979
 2410SOL    HW2 7520   2.770   3.870   4.731  0.7607 -1.5287  1.6098
 2411SOL     OW 7521   2.980   0.414   1.255  0.1792  0.2880 -0.4687
 2411SOL    HW1 7522   2.954   0.343   1.321  1.0688  0.1606 -0.2451
 2411SOL    HW2 7523   2.971   0.379   1.162  1.2586 -0.3583 -0.3449
 2412SOL     OW 7524   1.121   0.169   5.936 -0.0108  0.2934 -0.7256
 2412SOL    HW1 7525   1.171   0.103   5.880  0.0988 -0.5035  0.3020
 2412SOL    HW2 7526   1.117   0.137   6.030 -1.8821  0.6580 -0.6469
 2413SOL     OW 7527   0.877   3.292   5.857 -0.5551  0.2783  0.3167
 2413SOL    HW1 7528   0.933   3.261   5.934 -1.2559 -1.3190  0.2158
 2413SOL    HW2 7529   0.927   3.279   5.772 -0.8818 -0.6909  0.2675
 2414SOL     OW 7530   4.432   4.303   2.936 -0.4826 -0.0095  0.4828
 2414SOL    HW1 7531   4.512   4.358   2.910  0.6042 -1.0596  1.4839
 2414SOL    HW2 7532   4.415   4.235   2.865 -0.1761 -0.1100  0.5053
 2415SOL     OW 7533   1.848   1.405   5.394 -0.3752 -0.7970 -0.3113
 2415SOL    HW1 7534   1.906   1.464   5.337 -0.4805 -0.2614  0.1270
 2415SOL    HW2 7535   1.873   1.309   5.380  1.0615 -0.5429  0.3471
 2416SOL     OW 7536   1.807   4.262   2.145 -0.4562  0.1441  0.2941
 2416SOL    HW1 7537   1.901   4.289   2.166 -0.7619 -0.5279  2.8776
 2416SOL    HW2 7538   1.746   4.339   2.161 -0.5589 -0.0148  0.6800
 2417SOL     OW 7539   1.412   0.512   0.691 -0.2577  0.2106 -0.1580
 2417SOL    HW1 7540   1.510   0.505   0.673 -0.3910  0.0571 -0.8218
 2417SOL    HW2 7541   1.365   0.545   0.610 -0.9425 -1.0853 -0.3086
 2418SOL     OW 7542   0.295   3.658   2.928 -0.2145 -1.0140  0.3965
 2418SOL    HW1 7543   0.301   3.748   2.884 -2.4415  0.3262  2.5677
 2418SOL    HW2 7544   0.231   3.601   2.877  0.3780 -1.0156 -0.3742
 2419SOL     OW 7545   3.086   0.535   1.984  0.0107 -0.2137 -0.3685
 2419SOL    HW1 7546   3.068   0.548   1.887  0.8112  0.1697 -0.4680
 2419SOL    HW2 7547   3.121   0.620   2.023  1.2818 -0.8474 -0.1039
 2420SOL     OW 7548   4.141   5.434   1.634  0.2972 -0.2425 -0.2509
 2420SOL    HW1 7549   4.100   5.367   1.697  1.2657  1.1382  1.9604
 2420SOL    HW2 7550   4.235   5.407   1.613  0.8727  0.6300  1.0744
 2421SOL     OW 7551   4.501   5.818   3.266 -0.0771  0.6826 -0.2000
 2421SOL    HW1 7552   4.580   5.844   3.212 -0.0111  0.6389 -0.1249
 2421SOL    HW2 7553   4.482   5.720   3.253  0.0908  0.6161  0.0498
 2422SOL     OW 7554   4.484   3.611   0.859  0.1493 -0.5882  0.4506
 2422SOL    HW1 7555   4.471   3.699   0.905 -0.0707  0.3054 -1.2292
 2422SOL    HW2 7556   4.580   3.602   0.831 -0.3616  0.5311 -1.9651
 2423SOL     OW 7557   3.720   1.602   2.615 -0.4885 -0.2054  0.4423
 2423SOL    HW1 7558   3.819   1.619   2.612 -0.6028  0.6292  1.0688
 2423SOL    HW2 7559   3.703   1.505   2.634  0.2173 -0.0933  1.7071
 2424SOL     OW 7560   1.972   4.302   2.687 -0.1256  0.2700  0.3472
 2424SOL    HW1 7561   2.057   4.272   2.731  0.5118 -0.3918 -1.2720
 2424SOL    HW2 7562   1.895   4.279   2.746  0.8912  3.0835  3.0386
 2425SOL     OW 7563   3.882   2.757   0.274 -0.0131 -0.5166  0.0814
 2425SOL    HW1 7564   3.978   2.738   0.295  0.1343  1.3487  1.3473
 2425SOL    HW2 7565   3.875   2.811   0.190 -0.0628 -1.6786 -0.6759
 2426SOL     OW 7566   0.670   4.928   4.618 -0.0439  0.7593  0.4997
 2426SOL    HW1 7567   0.614   4.845   4.622  0.3262  0.5058  0.5915
 2426SOL    HW2 7568   0.639   4.993   4.687 -0.2088  0.6119  0.5652
 2427SOL     OW 7569   0.436   2.026   3.244  0.2820  0.1695 -0.0119
 2427SOL    HW1 7570   0.420   1.949   3.306  2.0128  0.6025  1.0254
 2427SOL    HW2 7571   0.521   2.011   3.193 -0.5386  0.3501 -1.4948
 2428SOL     OW 7572   1.059   5.734   0.082 -0.1261 -0.0225  0.2729
 2428SOL    HW1 7573   1.014   5.698   0.164  0.2318  0.1435  0.5429
 2428SOL    HW2 7574   1.156   5.746   0.100  0.0629 -0.5311 -0.3585
 2429SOL     OW 7575   2.611   4.108   5.395 -0.5763 -0.0622 -0.8315
 2429SOL    HW1 7576   2.604   4.180   5.464 -0.2523 -0.6441 -0.1884
 2429SOL    HW2 7577   2.547   4.128   5.320 -1.7335 -0.0016  0.1487
 2430SOL     OW 7578   2.345   0.620   3.980 -0.3393 -0.2849  0.0987
 2430SOL    HW1 7579   2.367   0.554   3.908  2.2479 -0.0123  0.5387
 2430SOL    HW2 7580   2.356   0.713   3.944 -0.6741 -0.1228  0.4074
 2431SOL     OW 7581   4.441   2.297   3.741 -0.1723  1.1666 -0.3358
 2431SOL    HW1 7582   4.485   2.309   3.652  2.1635 -2.1166  0.1858
 2431SOL    HW2 7583   4.344   2.279   3.728  0.0456  1.1233 -2.1911
 2432SOL     OW 7584   4.294   0.109   4.951 -0.0687 -0.2229  0.2135
 2432SOL    HW1 7585   4.259   0.175   4.885 -0.2086 -1.0479 -0.5717
 2432SOL    HW2 7586   4.234   0.028   4.951 -0.9489  0.3624  2.4694
 2433SOL     OW 7587   5.885   3.989   3.169  0.1047  0.1537  0.4887
 2433SOL    HW1 7588   5.883   3.932   3.087  0.0182  1.8291 -0.7428
 2433SOL    HW2 7589   5.810   4.055   3.164  1.1810  1.4538  1.0179
 2434SOL     OW 7590   3.769   2.783   2.482 -0.1215  0.0539 -0.2547
 2434SOL    HW1 7591   3.762   2.881   2.463  0.5876 -0.1187 -1.5194
 2434SOL    HW2 7592   3.779   2.733   2.396  1.2261 -0.9726  0.4571
 2435SOL     OW 7593   3.703   2.239   2.086 -0.1102  0.2181  0.3823
 2435SOL    HW1 7594   3.616   2.191   2.083 -1.7960  2.9838  0.6587
 2435SOL    HW2 7595   3.771   2.190   2.031 -0.9149 -3.5645  2.4377
 2436SOL     OW 7596   2.212   3.654   4.714  0.4072 -0.0193 -0.2472
 2436SOL    HW1 7597   2.143   3.605   4.660 -1.1617 -0.7602  2.2492
 2436SOL    HW2 7598   2.182   3.659   4.809  3.0883  1.1231  0.6301
 2437SOL     OW 7599   1.338   5.480   5.902  0.2580 -0.2952 -0.1796
 2437SOL    HW1 7600   1.370   5.422   5.827 -0.2845  0.1027 -0.7276
 2437SOL    HW2 7601   1.378   5.448   5.988  2.7859  0.6873 -0.9166
 2438SOL     OW 7602   1.611   5.045   1.154 -0.5363 -0.0821 -0.9336
 2438SOL    HW1 7603   1.521   5.089   1.158 -0.2110  0.6398 -1.2992
 2438SOL    HW2 7604   1.644   5.045   1.060 -0.1929 -0.4163 -0.8142
 2439SOL     OW 7605   4.319   0.586   5.299  0.2076  0.0565 -0.0551
 2439SOL    HW1 7606   4.283   0.626   5.384 -2.4989 -0.9131 -0.6425
 2439SOL    HW2 7607   4.393   0.522   5.321  0.2429  0.5874  1.4678
 2440SOL     OW 7608   0.163   1.117   1.652 -0.1121  0.0972 -0.3611
 2440SOL    HW1 7609   0.209   1.074   1.575  0.8562 -0.1113  0.3114
 2440SOL    HW2 7610   0.082   1.166   1.620  1.1288  1.3214 -1.7307
 2441SOL     OW 7611   2.818   3.753   1.099 -0.7373 -0.1747 -0.1558
 2441SOL    HW1 7612   2.873   3.816   1.153  0.5752 -3.2981  2.5006
 2441SOL    HW2 7613   2.816   3.783   1.004  0.9236  3.0106  0.6701
 2442SOL     OW 7614   2.187   4.831   0.482 -0.8477 -0.2587 -0.0057
 2442SOL    HW1 7615   2.190   4.758   0.414  0.5343 -0.6206  0.4154
 2442SOL    HW2 7616   2.144   4.912   0.442 -2.0530 -1.1536 -0.6017
 2443SOL     OW 7617   2.404   2.889   4.591 -0.2849 -0.4313 -0.5295
 2443SOL    HW1 7618   2.361   2.803   4.564 -1.1978  0.0124 -0.5333
 2443SOL    HW2 7619   2.335   2.950   4.630  0.6413 -0.3625  1.1432
 2444SOL     OW 7620   5.519   4.787   4.765 -0.1510 -0.0974  0.0737
 2444SOL    HW1 7621   5.530   4.788   4.665  1.5294  0.4363  0.2347
 2444SOL    HW2 7622   5.589   4.846   4.806 -1.3949  0.4197  1.5273
 2445SOL     OW 7623   4.029   5.365   5.819  0.3908 -0.0889 -0.1498
 2445SOL    HW1 7624   3.943   5.405   5.849  0.3776  0.7207 -1.2096
 2445SOL    HW2 7625   4.073   5.318   5.896  0.0862  1.4139  0.9890
 2446SOL     OW 7626   1.734   0.807   5.302  0.1459 -0.3164 -0.0614
 2446SOL    HW1 7627   1.639   0.838   5.309  0.5012  0.7624  0.2109
 2446SOL    HW2 7628   1.737   0.708   5.312 -0.8878 -0.2994  0.6148
 2447SOL     OW 7629   4.559   2.505   0.216 -0.0285  0.1676  0.5568
 2447SOL    HW1 7630   4.553   2.460   0.305  2.8572  0.5377  1.0251
 2447SOL    HW2 7631   4.622   2.454   0.157  1.1673  2.0244  0.1438
 2448SOL     OW 7632   2.449   4.435   5.223  0.2616  0.0523 -0.4761
 2448SOL    HW1 7633   2.464   4.497   5.146  1.4264  0.2592 -0.1096
 2448SOL    HW2 7634   2.373   4.468   5.279  0.9271  1.2131 -0.2339
 2449SOL     OW 7635   0.169   5.239   3.577  0.6680 -0.1910 -0.6505
 2449SOL    HW1 7636   0.091   5.263   3.636  2.1836 -1.0498  1.8476
 2449SOL    HW2 7637   0.205   5.323   3.535  0.0542  0.5901  0.3236
 2450SOL     OW 7638   5.353   1.135   4.536 -0.0522 -0.2259  0.2862
 2450SOL    HW1 7639   5.313   1.066   4.475  1.1183 -1.5605  0.9448
 2450SOL    HW2 7640   5.377   1.092   4.623  1.0123  0.9447  0.6065
 2451SOL     OW 7641   4.071   2.459   2.171 -0.3772 -0.2248  0.2328
 2451SOL    HW1 7642   4.110   2.494   2.256  0.5269  1.2882 -0.7657
 2451SOL    HW2 7643   4.085   2.360   2.167  0.0190 -0.2456  1.6123
 2452SOL     OW 7644   4.268   5.752   2.443  0.3900  0.0539  0.0359
 2452SOL    HW1 7645   4.201   5.710   2.504  0.8719  0.5435  0.9200
 2452SOL    HW2 7646   4.356   5.706   2.453  0.4592  0.0998 -0.3358
 2453SOL     OW 7647   0.453   1.562   1.241 -0.1825  0.2050 -0.4707
 2453SOL    HW1 7648   0.515   1.551   1.318  1.3261 -2.6743 -1.9329
 2453SOL    HW2 7649   0.501   1.606   1.165 -0.6227  0.0376 -0.8545
 2454SOL     OW 7650   3.258   1.411   1.986 -0.3771 -0.0344  0.0045
 2454SOL    HW1 7651   3.343   1.371   2.023 -1.3778 -0.8341  1.5922
 2454SOL    HW2 7652   3.272   1.508   1.968  0.1457  0.5625  2.9973
 2455SOL     OW 7653   5.839   3.940   4.495 -0.3885  0.3925  0.4408
 2455SOL    HW1 7654   5.928   3.961   4.453  0.4861 -0.8073  1.5840
 2455SOL    HW2 7655   5.785   3.885   4.432 -1.0267  2.4922 -0.9188
 2456SOL     OW 7656   0.538   1.429   2.330  0.1472 -0.1106  0.3588
 2456SOL    HW1 7657   0.579   1.437   2.239  2.8117 -0.8305  1.3941
 2456SOL    HW2 7658   0.541   1.333   2.359  1.1922  0.3692  1.9620
 2457SOL     OW 7659   5.168   0.055   4.843 -0.0619 -0.1054  0.0124
 2457SOL    HW1 7660   5.152  -0.009   4.918 -1.4516 -0.6198 -0.6897
 2457SOL    HW2 7661   5.266   0.057   4.820  0.0394 -1.8176  0.1942
 2458SOL     OW 7662   1.626   5.967   1.111 -0.2253  0.5031 -0.2332
 2458SOL    HW1 7663   1.562   5.915   1.168  0.6691 -1.4939 -0.9413
 2458SOL    HW2 7664   1.713   5.977   1.158  0.3609 -0.7363 -1.0151
 2459SOL     OW 7665   3.182   1.400   1.538  0.1046 -0.1090  0.4409
 2459SOL    HW1 7666   3.188   1.359   1.629  1.4815 -0.1148  0.3692
 2459SOL    HW2 7667   3.245   1.477   1.532  1.2704 -1.1178 -0.9929
 2460SOL     OW 7668   2.521   5.876   5.274 -0.3639  0.3533 -0.1573
 2460SOL    HW1 7669   2.486   5.927   5.196  0.9828 -0.6314 -1.4603
 2460SOL    HW2 7670   2.530   5.937   5.353 -0.3117  1.7350 -1.2033
 2461SOL     OW 7671   3.718   4.063   0.755 -0.1040  0.3215  0.3300
 2461SOL    HW1 7672   3.738   4.092   0.661 -0.0541 -1.7746 -0.3737
 2461SOL    HW2 7673   3.750   4.132   0.819 -0.7929  2.1443 -1.2023
 2462SOL     OW 7674   3.125   3.931   1.796  0.2757  0.0247  0.0442
 2462SOL    HW1 7675   3.205   3.968   1.749  0.6280  0.9208  1.3127
 2462SOL    HW2 7676   3.126   3.831   1.789  2.1608 -0.0557  1.0481
 2463SOL     OW 7677   2.187   2.982   2.228 -0.0327  0.0232  0.0485
 2463SOL    HW1 7678   2.282   2.955   2.244 -0.3092 -2.3061 -1.6763
 2463SOL    HW2 7679   2.129   2.901   2.227 -1.8556  1.2623 -0.2154
 2464SOL     OW 7680   1.341   3.908   4.917  0.7025 -0.4475 -0.1735
 2464SOL    HW1 7681   1.380   3.960   4.841 -0.0946  0.6375  0.1296
 2464SOL    HW2 7682   1.270   3.962   4.961  0.6106 -1.3734  0.8650
 2465SOL     OW 7683   2.910   4.926   1.856  0.0627 -0.2406 -0.5676
 2465SOL    HW1 7684   2.825   4.876   1.870  0.5447 -1.1552 -0.8283
 2465SOL    HW2 7685   2.926   4.939   1.758  0.3758 -0.3459 -0.5331
 2466SOL     OW 7686   5.856   5.208   0.832  0.3978  0.8434  0.4790
 2466SOL    HW1 7687   5.927   5.142   0.806 -1.0886 -0.9938  0.8299
 2466SOL    HW2 7688   5.776   5.195   0.773 -1.7640 -1.0896  3.5545
 2467SOL     OW 7689   3.740   1.820   1.860 -0.3955  0.0542  0.2121
 2467SOL    HW1 7690   3.679   1.855   1.789 -0.1558  1.3545  0.6263
 2467SOL    HW2 7691   3.831   1.803   1.820 -0.9789 -1.8855 -0.4051
 2468SOL     OW 7692   2.966   5.562   4.006  0.2334  0.0444 -0.3575
 2468SOL    HW1 7693   2.980   5.465   4.025  2.6294  0.3827 -0.0724
 2468SOL    HW2 7694   2.959   5.612   4.092 -1.3650  0.1194 -0.5025
 2469SOL     OW 7695   5.185   0.565   4.991  0.5085 -0.2859  0.1522
 2469SOL    HW1 7696   5.109   0.563   4.927  1.2844 -2.2075 -0.7774
 2469SOL    HW2 7697   5.241   0.483   4.980  0.9373 -0.4785  3.0055
 2470SOL     OW 7698   3.215   2.996   1.199  0.2566 -0.0231 -0.5985
 2470SOL    HW1 7699   3.144   3.048   1.246  0.0424 -0.3753 -0.5308
 2470SOL    HW2 7700   3.198   2.898   1.211 -0.0141 -0.1223 -1.7098
 2471SOL     OW 7701   5.340   4.487   3.941  0.2842 -0.6762 -0.1768
 2471SOL    HW1 7702   5.381   4.515   3.855 -0.3789 -1.2880 -0.7058
 2471SOL    HW2 7703   5.382   4.403   3.973 -0.4964 -1.2887 -0.7053
 2472SOL     OW 7704   4.426   1.655   5.386 -0.1293  0.0021 -0.1723
 2472SOL    HW1 7705   4.373   1.615   5.311  0.6392  0.4767 -0.9918
 2472SOL    HW2 7706   4.520   1.621   5.383  0.3431  1.2605 -0.4390
 2473SOL     OW 7707   0.841   3.880   5.535 -0.1162  0.3973  0.4982
 2473SOL    HW1 7708   0.867   3.929   5.618  0.3509 -0.2474  0.7494
 2473SOL    HW2 7709   0.843   3.942   5.457 -0.4242  0.9761  0.9475
 2474SOL     OW 7710   5.611   1.064   5.686 -0.5260  0.0824 -0.0875
 2474SOL    HW1 7711   5.519   1.058   5.723 -1.3033 -0.0045 -1.9340
 2474SOL    HW2 7712   5.625   0.990   5.619  1.3434 -0.7083  1.0780
 2475SOL     OW 7713   3.360   1.934   2.333 -0.6300 -1.0941 -0.0397
 2475SOL    HW1 7714   3.402   1.847   2.306  0.1933 -0.5919 -0.4146
 2475SOL    HW2 7715   3.424   1.986   2.389 -1.5078 -1.1639  1.0702
 2476SOL     OW 7716   3.963   2.938   4.443 -0.3555 -0.3822 -0.1972
 2476SOL    HW1 7717   3.935   2.990   4.363 -1.5183 -0.7240 -0.0269
 2476SOL    HW2 7718   3.961   2.998   4.524 -2.4448 -0.8265  0.1342
 2477SOL     OW 7719   2.957   2.174   5.653 -0.0668 -0.5063 -0.5472
 2477SOL    HW1 7720   2.904   2.243   5.702 -1.6666 -0.6830 -1.9178
 2477SOL    HW2 7721   2.995   2.108   5.718  0.8000  1.1590  0.7069
 2478SOL     OW 7722   3.548   4.489   3.731  0.7514  0.3880  0.0984
 2478SOL    HW1 7723   3.503   4.542   3.803 -0.4129  0.5437 -0.7030
 2478SOL    HW2 7724   3.594   4.550   3.667 -0.0286  0.4118 -0.4571
 2479SOL     OW 7725   0.863   1.545   4.209  0.4418  0.3825  0.0868
 2479SOL    HW1 7726   0.873   1.628   4.154  0.0715 -0.3127 -1.0725
 2479SOL    HW2 7727   0.767   1.533   4.235  0.2514 -0.3495 -0.8798
 2480SOL     OW 7728   5.872   4.764   2.129  0.6580 -0.7233  0.0704
 2480SOL    HW1 7729   5.913   4.673   2.123  2.8312  0.1926  0.1400
 2480SOL    HW2 7730   5.893   4.804   2.218 -2.4714 -1.0749  1.0973
 2481SOL     OW 7731   1.189   4.431   4.744 -0.1979 -0.5728  0.3942
 2481SOL    HW1 7732   1.212   4.418   4.840 -0.0160  0.6268  0.5304
 2481SOL    HW2 7733   1.145   4.520   4.732 -0.5639 -0.8675 -0.5790
 2482SOL     OW 7734   4.185   1.514   2.636  0.5201 -0.1463 -1.0944
 2482SOL    HW1 7735   4.095   1.528   2.596  0.4555 -1.6508 -1.5221
 2482SOL    HW2 7736   4.256   1.536   2.569  0.5511  2.4614 -0.3020
 2483SOL     OW 7737   4.819   5.516   3.517  0.1886  0.5742 -0.1142
 2483SOL    HW1 7738   4.761   5.596   3.530 -0.6795  0.2123 -1.5066
 2483SOL    HW2 7739   4.904   5.527   3.569 -0.7662  1.4800  1.3188
 2484SOL     OW 7740   3.794   5.507   3.516  0.4784 -0.4792  0.0389
 2484SOL    HW1 7741   3.844   5.464   3.592  1.0246  0.6352  0.3325
 2484SOL    HW2 7742   3.729   5.574   3.552 -0.4720 -1.1408 -0.4046
 2485SOL     OW 7743   3.579   2.984   0.919 -0.1897  0.0225 -0.0974
 2485SOL    HW1 7744   3.651   2.962   0.853 -0.0440 -1.3862  0.4927
 2485SOL    HW2 7745   3.517   3.052   0.880 -0.1088 -0.7861 -1.6848
 2486SOL     OW 7746   4.412   5.895   2.740  0.0211  0.0164 -0.4281
 2486SOL    HW1 7747   4.436   5.985   2.776  0.2711 -0.4114  0.5214
 2486SOL    HW2 7748   4.401   5.900   2.641  2.9675  0.4784 -0.8193
 2487SOL     OW 7749   1.926   1.829   4.061 -0.4972  0.3374  0.6521
 2487SOL    HW1 7750   1.962   1.794   4.147 -1.2114 -0.6781  0.5499
 2487SOL    HW2 7751   1.844   1.883   4.079  0.4036  1.7117  0.7744
 2488SOL     OW 7752   1.849   4.657   5.534  0.2301 -0.2170 -0.0066
 2488SOL    HW1 7753   1.804   4.740   5.502 -0.0734  0.1233  1.2555
 2488SOL    HW2 7754   1.931   4.680   5.586  0.6786 -0.7505 -0.4643
 2489SOL     OW 7755   4.909   0.668   0.254 -0.0502  0.0453  0.2437
 2489SOL    HW1 7756   4.884   0.628   0.166 -0.5391  1.2862 -0.2145
 2489SOL    HW2 7757   4.827   0.702   0.300  0.3680  0.7575  0.4779
 2490SOL     OW 7758   2.891   4.301   2.092  0.3686  0.0159 -0.1907
 2490SOL    HW1 7759   2.853   4.376   2.038 -0.0151 -1.0782 -1.4761
 2490SOL    HW2 7760   2.893   4.217   2.037  0.6545 -0.9628  1.2555
 2491SOL     OW 7761   5.146   2.746   1.991  0.3731  0.0260  0.0366
 2491SOL    HW1 7762   5.224   2.776   1.936  0.1583  0.0329 -0.2702
 2491SOL    HW2 7763   5.178   2.686   2.064  0.7245  0.4673  0.2445
 2492SOL     OW 7764   0.762   1.919   4.303  0.3676 -0.2425  0.2520
 2492SOL    HW1 7765   0.814   2.004   4.300  0.3731 -0.2111  1.1602
 2492SOL    HW2 7766   0.782   1.869   4.387 -0.2036 -0.7844  0.0817
 2493SOL     OW 7767   2.831   0.991   4.567  0.5388  0.1823  0.4815
 2493SOL    HW1 7768   2.759   0.925   4.545 -0.2485  1.5387 -1.3312
 2493SOL    HW2 7769   2.845   1.052   4.488  1.3041  2.0960  2.0057
 2494SOL     OW 7770   1.764   4.448   4.937 -0.6446  0.6193 -0.0578
 2494SOL    HW1 7771   1.821   4.459   5.018 -1.4790  1.0535  0.4724
 2494SOL    HW2 7772   1.771   4.530   4.880  0.4446  0.0621 -0.7693
 2495SOL     OW 7773   2.263   0.025   0.869  0.1857 -0.0820 -0.3926
 2495SOL    HW1 7774   2.256  -0.014   0.961 -0.7434 -0.6995 -0.7053
 2495SOL    HW2 7775   2.215   0.112   0.867 -1.0238 -0.7325 -0.6264
 2496SOL     OW 7776   1.862   4.528   1.294  0.5855  0.8955 -0.4242
 2496SOL    HW1 7777   1.877   4.429   1.298 -0.1208  0.8336  1.6150
 2496SOL    HW2 7778   1.789   4.548   1.229  2.0233  0.2855 -2.3151
 2497SOL     OW 7779   0.868   5.908   4.435 -0.1969 -0.2311 -0.0266
 2497SOL    HW1 7780   0.777   5.871   4.416  0.4523 -1.5579 -0.7361
 2497SOL    HW2 7781   0.933   5.832   4.443  1.5343  0.7669 -3.1543
 2498SOL     OW 7782   5.098   1.346   2.712 -0.1796 -0.0472 -0.5537
 2498SOL    HW1 7783   5.051   1.281   2.772 -0.8143 -0.8598 -1.9039
 2498SOL    HW2 7784   5.165   1.398   2.766 -1.0965 -0.3738  0.9656
 2499SOL     OW 7785   2.701   1.869   2.413  0.2180  0.0301  0.3529
 2499SOL    HW1 7786   2.613   1.823   2.399 -0.4293  1.4585 -0.5214
 2499SOL    HW2 7787   2.691   1.938   2.485  0.9838 -0.6736  1.1509
 2500SOL     OW 7788   4.867   2.980   5.521 -0.9948 -0.2857 -0.4164
 2500SOL    HW1 7789   4.782   2.928   5.511 -2.2439  1.7418 -0.8003
 2500SOL    HW2 7790   4.932   2.926   5.576 -1.1218 -3.3941 -2.9960
 2501SOL     OW 7791   1.198   2.986   5.408 -0.4289 -0.3108  0.4972
 2501SOL    HW1 7792   1.113   3.025   5.445 -0.1447  0.5775  0.2361
 2501SOL    HW2 7793   1.179   2.944   5.320 -0.3555  1.1220 -0.2307
 2502SOL     OW 7794   5.331   4.429   1.872 -0.1714 -0.2620 -0.0765
 2502SOL    HW1 7795   5.363   4.522   1.892 -0.1547 -0.6536  1.9433
 2502SOL    HW2 7796   5.394   4.385   1.807 -0.6819  1.4066 -1.7732
 2503SOL     OW 7797   3.599   0.087   3.444  0.3092  0.5195  0.7519
 2503SOL    HW1 7798   3.646   0.167   3.481 -2.1293  2.1596  0.5493
 2503SOL    HW2 7799   3.569   0.107   3.350  1.1188 -1.3148  0.0474
 2504SOL     OW 7800   4.032   3.440   3.063  0.1983 -0.0285 -0.6645
 2504SOL    HW1 7801   4.110   3.391   3.101 -0.3661 -0.3852  0.0479
 2504SOL    HW2 7802   4.035   3.536   3.090 -0.5071 -0.3947  0.8071
 2505SOL     OW 7803   1.144   3.907   1.882  0.0982 -0.3253  0.1897
 2505SOL    HW1 7804   1.061   3.963   1.875  0.6901  0.3342 -2.1176
 2505SOL    HW2 7805   1.218   3.961   1.921  0.7468  0.6890 -2.2914
 2506SOL     OW 7806   1.982   2.009   1.332 -0.3318 -0.0262 -0.2436
 2506SOL    HW1 7807   2.001   1.990   1.428 -2.1225  1.5459  0.4905
 2506SOL    HW2 7808   1.996   1.926   1.278 -0.0841 -1.1606  1.5005
 2507SOL     OW 7809   0.581   2.531   1.294  0.2946  0.0334 -0.0385
 2507SOL    HW1 7810   0.619   2.455   1.347  1.3130 -0.2972 -1.1873
 2507SOL    HW2 7811   0.495   2.502   1.251  0.8153 -0.5920 -0.6939
 2508SOL     OW 7812   1.109   3.566   0.466  0.0512 -0.2612 -0.2174
 2508SOL    HW1 7813   1.061   3.586   0.380 -0.8835 -0.7918  0.1697
 2508SOL    HW2 7814   1.169   3.643   0.489 -0.3413  0.2603 -0.8934
 2509SOL     OW 7815   4.306   0.915   2.944  0.3637 -0.0987  0.7953
 2509SOL    HW1 7816   4.267   0.930   2.853  0.7569 -1.1071  0.4482
 2509SOL    HW2 7817   4.296   0.998   2.999 -1.9348 -0.1786  0.6083
 2510SOL     OW 7818   0.520   5.064   5.378 -0.2265 -0.0161 -0.4445
 2510SOL    HW1 7819   0.614   5.090   5.354 -0.2679 -1.3756 -2.3140
 2510SOL    HW2 7820   0.470   5.144   5.409  0.7805  1.3196 -2.0992
 2511SOL     OW 7821   5.471   2.054   4.574  0.2273  0.3966 -0.3449
 2511SOL    HW1 7822   5.430   1.964   4.563 -0.2563  0.4426  0.8613
 2511SOL    HW2 7823   5.564   2.045   4.610 -0.2100  0.3891  0.8229
 2512SOL     OW 7824   3.118   1.716   1.481  0.2692 -0.1137  0.9070
 2512SOL    HW1 7825   3.099   1.814   1.490  1.3795  0.0944  1.0750
 2512SOL    HW2 7826   3.031   1.666   1.475 -0.3187  1.0124 -0.8051
 2513SOL     OW 7827   4.787   1.948   3.934  0.8676  0.4361 -0.2087
 2513SOL    HW1 7828   4.745   2.013   3.872  1.6047  0.0129 -1.1899
 2513SOL    HW2 7829   4.822   1.996   4.014  1.4083  1.2576 -0.9177
 2514SOL     OW 7830   0.989   2.487   1.093 -0.4302 -0.5644 -1.2124
 2514SOL    HW1 7831   1.023   2.507   1.185 -3.1385  0.8077 -0.3821
 2514SOL    HW2 7832   1.010   2.393   1.069  1.8289 -0.4490  0.0620
 2515SOL     OW 7833   4.870   0.526   3.389 -0.0752 -0.1692  0.4669
 2515SOL    HW1 7834   4.801   0.511   3.318  1.2103  2.1078 -1.4408
 2515SOL    HW2 7835   4.944   0.459   3.378 -0.5079 -0.6589  0.5171
 2516SOL     OW 7836   2.853   5.086   1.296  0.3970 -0.3926 -0.5123
 2516SOL    HW1 7837   2.928   5.069   1.232 -0.0368 -0.7124 -0.9457
 2516SOL    HW2 7838   2.888   5.136   1.376  1.0844 -0.6281 -0.6567
 2517SOL     OW 7839   5.601   1.220   4.345  0.0659  0.2538 -0.3832
 2517SOL    HW1 7840   5.533   1.201   4.274 -1.3855  1.0904  0.7228
 2517SOL    HW2 7841   5.555   1.229   4.433  1.6053  1.0307  0.3751
 2518SOL     OW 7842   2.232   2.836   3.683 -0.7754  0.5857  0.6460
 2518SOL    HW1 7843   2.164   2.794   3.623 -0.9649  0.2606  1.0831
 2518SOL    HW2 7844   2.285   2.764   3.729 -1.0809  0.8193  1.3755
 2519SOL     OW 7845   1.452   4.222   0.493  0.1943 -0.1560  0.0836
 2519SOL    HW1 7846   1.361   4.223   0.534  0.0845  0.4455 -0.1672
 2519SOL    HW2 7847   1.508   4.153   0.538 -0.2758 -0.2837  0.4798
 2520SOL     OW 7848   1.410   5.585   2.494 -0.2637  0.4758 -0.0631
 2520SOL    HW1 7849   1.493   5.593   2.440 -0.6599 -3.4534 -1.6049
 2520SOL    HW2 7850   1.336   5.638   2.452  0.9808  2.8191  0.5237
 2521SOL     OW 7851   5.643   3.384   0.535 -0.0121 -0.0132  0.4158
 2521SOL    HW1 7852   5.672   3.312   0.599  0.4342 -0.6562 -0.4929
 2521SOL    HW2 7853   5.710   3.391   0.460 -0.9423  0.1716 -0.4106
 2522SOL     OW 7854   1.682   4.899   4.743  0.2666 -0.2774  0.2252
 2522SOL    HW1 7855   1.749   4.948   4.686  0.9902 -1.5793 -0.0915
 2522SOL    HW2 7856   1.603   4.875   4.687 -0.5480  1.3375  0.6204
 2523SOL     OW 7857   3.957   3.503   1.411 -0.0558  0.3383 -0.3981
 2523SOL    HW1 7858   3.974   3.464   1.320  2.8534  0.3589  0.0188
 2523SOL    HW2 7859   3.935   3.600   1.401 -3.6942 -0.4278 -1.2156
 2524SOL     OW 7860   2.031   4.740   5.705  0.3573 -0.3447 -0.1248
 2524SOL    HW1 7861   2.027   4.677   5.782 -1.1463 -0.3912 -0.2150
 2524SOL    HW2 7862   2.082   4.822   5.731 -0.6143 -0.1109  1.1217
 2525SOL     OW 7863   3.434   1.151   2.361 -0.0206  0.4529  0.1240
 2525SOL    HW1 7864   3.413   1.248   2.351 -1.3326  0.2312  0.4264
 2525SOL    HW2 7865   3.391   1.116   2.445  2.7617  0.1985  1.5645
 2526SOL     OW 7866   4.434   5.286   1.891  0.1565 -0.2067 -0.3002
 2526SOL    HW1 7867   4.404   5.325   1.978 -1.4541 -0.0556 -0.8970
 2526SOL    HW2 7868   4.454   5.359   1.826  0.3686 -0.3372 -0.3837
 2527SOL     OW 7869   0.816   4.300   0.321 -0.0435 -0.1736  0.1815
 2527SOL    HW1 7870   0.910   4.298   0.353 -0.2923 -0.1260  0.9379
 2527SOL    HW2 7871   0.814   4.289   0.222  0.9519  2.6817 -0.2551
 2528SOL     OW 7872   4.719   0.683   2.528 -0.0429  0.2983  0.1428
 2528SOL    HW1 7873   4.709   0.613   2.457 -0.1272  0.3419  0.1122
 2528SOL    HW2 7874   4.804   0.667   2.578  0.1391  0.4132 -0.1266
 2529SOL     OW 7875   1.038   0.148   4.739  0.6620  0.2204 -0.2768
 2529SOL    HW1 7876   1.005   0.241   4.721 -0.0345  0.0524  0.0820
 2529SOL    HW2 7877   0.962   0.084   4.730  1.3583 -0.4526 -1.5334
 2530SOL     OW 7878   1.604   1.747   5.309 -0.1316  0.3907 -0.3944
 2530SOL    HW1 7879   1.520   1.794   5.339 -0.5201 -0.7166  0.2991
 2530SOL    HW2 7880   1.587   1.649   5.303  1.4416  0.0070  0.8800
 2531SOL     OW 7881   3.460   2.135   2.089 -0.0243 -0.3399  0.1601
 2531SOL    HW1 7882   3.468   2.043   2.050 -0.4971 -0.3714  0.1311
 2531SOL    HW2 7883   3.402   2.191   2.029  3.0068  1.0533 -1.7488
 2532SOL     OW 7884   0.065   1.772   4.552 -0.1626 -0.1420  0.7575
 2532SOL    HW1 7885   0.099   1.703   4.489  1.8989 -0.1097  1.7567
 2532SOL    HW2 7886  -0.017   1.738   4.597 -0.8772 -0.7066 -0.8892
 2533SOL     OW 7887   5.819   0.981   1.029  0.0532 -0.4206  0.7089
 2533SOL    HW1 7888   5.733   1.026   1.008  0.6592  0.4066 -0.0733
 2533SOL    HW2 7889   5.821   0.891   0.985  1.3855  1.3443 -3.3012
 2534SOL     OW 7890   0.665   3.702   3.742 -0.0618  0.6517 -0.2616
 2534SOL    HW1 7891   0.643   3.755   3.661 -0.2888  0.6524 -0.1989
 2534SOL    HW2 7892   0.583   3.658   3.778  0.1127  0.3076 -0.2765
 2535SOL     OW 7893   5.413   5.136   0.116 -0.1598 -0.3952  0.2059
 2535SOL    HW1 7894   5.457   5.107   0.031 -0.3743 -1.1851  0.3545
 2535SOL    HW2 7895   5.319   5.101   0.119 -0.7774  1.1669 -0.0560
 2536SOL     OW 7896   0.912   3.794   4.388  0.5705  0.1871  0.2780
 2536SOL    HW1 7897   0.967   3.776   4.469  0.0421 -1.1326  0.3699
 2536SOL    HW2 7898   0.968   3.839   4.318  1.2621  0.5001  1.0275
 2537SOL     OW 7899   2.515   3.777   0.754 -0.3694 -0.4602 -0.2176
 2537SOL    HW1 7900   2.423   3.795   0.719 -0.1724 -1.9662 -1.6470
 2537SOL    HW2 7901   2.509   3.726   0.840 -0.8741 -0.4598 -0.2502
 2538SOL     OW 7902   3.796   4.720   4.186  0.2851 -0.4198 -0.2401
 2538SOL    HW1 7903   3.849   4.676   4.259  0.3168 -1.3343 -0.7890
 2538SOL    HW2 7904   3.811   4.819   4.189  0.3405 -0.4438  0.9341
 2539SOL     OW 7905   1.581   3.027   1.592  0.2134 -0.3609 -0.4998
 2539SOL    HW1 7906   1.562   3.004   1.497 -0.4306 -1.3867 -0.1424
 2539SOL    HW2 7907   1.626   3.116   1.597  1.3380 -0.8155 -1.8493
 2540SOL     OW 7908   3.315   4.609   4.624 -0.1661 -0.6194  0.0926
 2540SOL    HW1 7909   3.289   4.576   4.533  0.1220 -2.5151  0.6540
 2540SOL    HW2 7910   3.312   4.533   4.689  2.5840 -0.0122  1.0611
 2541SOL     OW 7911   4.556   2.823   0.495  0.0897 -0.0135 -0.0730
 2541SOL    HW1 7912   4.546   2.919   0.469 -1.3786 -0.7087 -2.3530
 2541SOL    HW2 7913   4.625   2.780   0.436  2.8755  0.2031  2.7962
 2542SOL     OW 7914   3.319   0.756   5.160  0.2144  0.0217  0.4398
 2542SOL    HW1 7915   3.269   0.824   5.106  2.5014  1.6267  0.1858
 2542SOL    HW2 7916   3.366   0.692   5.098  1.8371  1.1187  0.4610
 2543SOL     OW 7917   3.876   5.563   1.566  0.2085  0.2743 -0.3536
 2543SOL    HW1 7918   3.807   5.496   1.538 -1.0551 -1.0221  4.7914
 2543SOL    HW2 7919   3.964   5.516   1.581 -0.1528  0.0382  1.2855
 2544SOL     OW 7920   0.180   3.919   5.266 -0.2281 -0.1816  0.0030
 2544SOL    HW1 7921   0.108   3.856   5.294 -0.2159  0.5081  1.7057
 2544SOL    HW2 7922   0.256   3.914   5.331  0.6823  0.0977 -0.9959
 2545SOL     OW 7923   1.516   0.464   0.977  0.3238 -0.0616  0.6656
 2545SOL    HW1 7924   1.482   0.504   0.892 -0.0518  1.3856  1.4657
 2545SOL    HW2 7925   1.456   0.389   1.004 -0.2062  0.1952  0.2363
 2546SOL     OW 7926   3.371   5.207   1.210 -0.0097  0.2757 -0.7852
 2546SOL    HW1 7927   3.393   5.126   1.155 -0.4936  0.0175 -0.6026
 2546SOL    HW2 7928   3.306   5.264   1.160  0.9921  0.9992 -1.2903
 2547SOL     OW 7929   5.435   4.850   2.878 -0.3335  0.2628  0.2778
 2547SOL    HW1 7930   5.457   4.925   2.940  0.4251  0.2405  0.0451
 2547SOL    HW2 7931   5.471   4.765   2.916 -0.8159  0.0780  0.3295
 2548SOL     OW 7932   2.981   4.212   0.533  0.3694 -0.2292  0.3897
 2548SOL    HW1 7933   2.904   4.162   0.492  0.3829  0.1133 -0.0660
 2548SOL    HW2 7934   3.036   4.150   0.588 -0.0841 -0.5355  0.5015
 2549SOL     OW 7935  -0.002   0.713   1.703  0.1044 -0.2633  0.2464
 2549SOL    HW1 7936   0.006   0.810   1.726  1.0784 -0.1925 -0.3161
 2549SOL    HW2 7937   0.027   0.658   1.781  1.6115 -0.0597 -0.1491
 2550SOL     OW 7938   2.474   4.290   1.474  0.2754 -0.1387 -0.4172
 2550SOL    HW1 7939   2.480   4.289   1.574  0.5154  0.5661 -0.4206
 2550SOL    HW2 7940   2.477   4.196   1.439  1.0137 -0.3498  0.1924
 2551SOL     OW 7941   4.728   3.762   1.886  0.2332 -0.1372 -0.7457
 2551SOL    HW1 7942   4.732   3.783   1.789 -0.5134  0.2255 -0.6969
 2551SOL    HW2 7943   4.724   3.663   1.898 -0.4606 -0.1537 -1.1074
 2552SOL     OW 7944   1.294   0.294   5.263 -0.4052  0.5862 -0.0430
 2552SOL    HW1 7945   1.366   0.287   5.193 -1.2626 -0.3266 -0.8778
 2552SOL    HW2 7946   1.262   0.202   5.287 -1.9278  0.9903 -0.3885
 2553SOL     OW 7947   0.418   3.629   2.001 -0.2333 -0.1713 -0.2370
 2553SOL    HW1 7948   0.371   3.698   1.946 -0.8561 -0.0541  0.4217
 2553SOL    HW2 7949   0.457   3.673   2.082 -1.5223 -0.7497  0.7190
 2554SOL     OW 7950   1.610   2.201   2.771 -0.0327 -0.8822 -0.1393
 2554SOL    HW1 7951   1.706   2.191   2.797 -0.1967 -1.5272  0.2720
 2554SOL    HW2 7952   1.593   2.294   2.739  0.6823 -0.7050 -0.0254
 2555SOL     OW 7953   0.893   5.356   0.319 -0.1187  0.5013 -0.1265
 2555SOL    HW1 7954   0.856   5.446   0.300  0.7956  1.0757  0.7008
 2555SOL    HW2 7955   0.837   5.310   0.388 -0.2167  0.7119 -0.0658
 2556SOL     OW 7956   1.978   0.735   2.118  0.5049 -0.6524  0.3913
 2556SOL    HW1 7957   1.991   0.640   2.147 -0.1911 -1.3618 -1.4670
 2556SOL    HW2 7958   1.951   0.737   2.022  0.8555  1.4677  0.2918
 2557SOL     OW 7959   5.548   1.817   3.520 -0.3440 -0.8105  0.0382
 2557SOL    HW1 7960   5.575   1.736   3.572  1.7820  0.2406  0.7030
 2557SOL    HW2 7961   5.458   1.848   3.551 -1.4426 -3.1458 -0.5918
 2558SOL     OW 7962   2.933   4.193   4.109  0.0976  0.5989 -0.6666
 2558SOL    HW1 7963   2.852   4.242   4.141  0.4531  0.5344  0.4048
 2558SOL    HW2 7964   2.925   4.096   4.132  0.4023  0.5661 -0.6839
 2559SOL     OW 7965   2.815   2.858   3.227  0.2009 -0.2968  0.0450
 2559SOL    HW1 7966   2.866   2.818   3.303 -1.1577 -2.0841  0.0776
 2559SOL    HW2 7967   2.733   2.904   3.263 -1.0317 -2.0726 -0.3211
 2560SOL     OW 7968   4.706   0.561   5.304  0.2630  0.2005  0.4731
 2560SOL    HW1 7969   4.642   0.485   5.295  0.9038 -0.6513  2.5863
 2560SOL    HW2 7970   4.708   0.593   5.398  2.5251  0.5696  0.3769
 2561SOL     OW 7971   4.934   4.670   0.419 -0.3293 -0.0938  0.1698
 2561SOL    HW1 7972   4.856   4.700   0.364 -1.0317 -1.7398  0.2110
 2561SOL    HW2 7973   5.014   4.658   0.360 -0.2854  0.8879  0.0083
 2562SOL     OW 7974   5.070   2.399   4.213  0.3614 -0.3021  0.5815
 2562SOL    HW1 7975   5.131   2.473   4.184  1.0947 -1.0637  0.1654
 2562SOL    HW2 7976   5.103   2.360   4.298 -0.8371  0.7854  1.5945
 2563SOL     OW 7977   0.090   5.246   4.367  0.0989 -0.1434  0.3123
 2563SOL    HW1 7978   0.092   5.327   4.307 -0.2293 -0.3828 -0.0242
 2563SOL    HW2 7979  -0.000   5.204   4.364  0.3965 -0.7839  0.1350
 2564SOL     OW 7980   1.546   4.553   5.080  0.1921  0.0294 -0.3426
 2564SOL    HW1 7981   1.631   4.504   5.061  0.5854  0.9673 -1.1113
 2564SOL    HW2 7982   1.511   4.592   4.995 -1.6466 -1.3057 -0.2590
 2565SOL     OW 7983   5.623   5.132   0.691 -0.4220  0.5353  0.0834
 2565SOL    HW1 7984   5.601   5.191   0.613  0.7299  1.4784  0.4495
 2565SOL    HW2 7985   5.562   5.154   0.767 -1.1992 -0.0246 -0.3585
 2566SOL     OW 7986   4.965   0.297   1.576  0.0978 -0.5278  0.7446
 2566SOL    HW1 7987   4.896   0.240   1.531 -0.2402  1.4632 -1.4885
 2566SOL    HW2 7988   5.054   0.281   1.535  0.4258 -1.0095  1.6283
 2567SOL     OW 7989   4.258   3.894   2.684  0.5199 -0.5808 -0.2740
 2567SOL    HW1 7990   4.251   3.796   2.705  1.3376 -0.3952  0.8973
 2567SOL    HW2 7991   4.204   3.913   2.602 -0.9236 -1.7320  0.3517
 2568SOL     OW 7992   1.326   2.461   5.771  0.6535  0.1100  0.5414
 2568SOL    HW1 7993   1.272   2.522   5.713  1.4334 -0.5709 -0.9665
 2568SOL    HW2 7994   1.265   2.411   5.833 -0.4145 -0.2537 -0.7484
 2569SOL     OW 7995   4.703   3.384   1.494  0.0629 -0.2640 -0.0684
 2569SOL    HW1 7996   4.695   3.483   1.481 -1.5460 -0.0759  1.7790
 2569SOL    HW2 7997   4.663   3.336   1.416 -2.7924  0.6420  0.7186
 2570SOL     OW 7998   3.450   0.755   1.857  0.1944  0.1134  0.1063
 2570SOL    HW1 7999   3.444   0.691   1.781 -0.8522  1.0429 -0.6399
 2570SOL    HW2 8000   3.399   0.719   1.935 -0.5901  0.1136 -0.3897
 2571SOL     OW 8001   4.100   1.281   5.641 -0.0926  0.3918  0.2936
 2571SOL    HW1 8002   4.129   1.191   5.607 -1.7716 -0.4680  1.0024
 2571SOL    HW2 8003   4.179   1.342   5.646  0.8575 -0.5872 -1.5450
 2572SOL     OW 8004   0.458   3.617   5.645  0.3446 -0.0329  0.0023
 2572SOL    HW1 8005   0.384   3.599   5.580  0.2896  1.2370 -0.3017
 2572SOL    HW2 8006   0.419   3.643   5.734  0.3428 -3.7497  1.2929
 2573SOL     OW 8007   2.894   3.284   3.448 -0.0090  0.1197  0.3361
 2573SOL    HW1 8008   2.974   3.314   3.499 -0.3180  0.0411  0.8828
 2573SOL    HW2 8009   2.922   3.240   3.363  0.4471  2.6720 -0.9426
 2574SOL     OW 8010   5.363   4.263   0.969  0.0674  0.8622 -0.1710
 2574SOL    HW1 8011   5.396   4.312   0.888  0.1725  2.9271  1.0571
 2574SOL    HW2 8012   5.263   4.272   0.975  0.0237  0.4440 -0.2196
 2575SOL     OW 8013   0.660   3.025   2.524 -0.4344 -0.2505 -0.0201
 2575SOL    HW1 8014   0.681   3.088   2.599 -1.1243  0.0710 -0.0886
 2575SOL    HW2 8015   0.561   3.024   2.508 -0.2269  0.3313 -1.4789
 2576SOL     OW 8016   2.790   5.007   4.042  0.2741  0.0943 -0.2722
 2576SOL    HW1 8017   2.755   5.098   4.064  0.3707  0.3010 -0.9519
 2576SOL    HW2 8018   2.745   4.973   3.960 -0.4563 -0.8792  0.5007
 2577SOL     OW 8019   2.060   2.790   3.457 -0.1876 -0.5294  0.1227
 2577SOL    HW1 8020   2.111   2.802   3.372 -0.2112 -0.4267  0.1223
 2577SOL    HW2 8021   1.986   2.857   3.461  0.4201  0.1285  0.6743
 2578SOL     OW 8022   1.342   5.665   4.276 -0.4637  0.0419  1.0050
 2578SOL    HW1 8023   1.338   5.762   4.251 -0.3411  0.1824  1.5048
 2578SOL    HW2 8024   1.413   5.652   4.346  1.8521 -0.9526 -1.3691
 2579SOL     OW 8025   2.500   4.509   1.034 -0.0740  0.3325 -0.6345
 2579SOL    HW1 8026   2.526   4.541   0.943  0.2313  1.7198 -0.0943
 2579SOL    HW2 8027   2.479   4.411   1.031  0.9254  0.1351 -1.9780
 2580SOL     OW 8028   4.028   4.153   5.592  0.2978 -0.1277 -0.2352
 2580SOL    HW1 8029   4.041   4.068   5.643 -1.3615  0.6521  1.6448
 2580SOL    HW2 8030   3.972   4.136   5.511 -0.0300 -0.8147  0.1336
 2581SOL     OW 8031   4.118   4.241   3.920  0.0383  0.3586  0.0414
 2581SOL    HW1 8032   4.107   4.239   4.019  1.4573 -1.9670  0.2231
 2581SOL    HW2 8033   4.191   4.306   3.896  0.3136  0.2567  0.5929
 2582SOL     OW 8034   3.644   1.086   0.368 -0.0452  0.2814  0.0047
 2582SOL    HW1 8035   3.728   1.139   0.357  0.6711 -0.9386 -0.5534
 2582SOL    HW2 8036   3.621   1.042   0.281 -1.8058  1.3532 -0.1217
 2583SOL     OW 8037   2.742   1.276   1.267  0.1577 -0.1308  0.0345
 2583SOL    HW1 8038   2.687   1.296   1.348  1.8845  0.8026  1.0480
 2583SOL    HW2 8039   2.706   1.326   1.189  0.7017  2.1067  1.1357
 2584SOL     OW 8040   3.359   5.029   3.853 -0.1517  0.7872 -0.2501
 2584SOL    HW1 8041   3.380   5.080   3.770  0.3665  0.4768 -0.3116
 2584SOL    HW2 8042   3.443   5.009   3.903 -0.1991 -0.9209 -0.7772
 2585SOL     OW 8043   3.384   0.219   0.165  0.1664  0.4062 -0.2515
 2585SOL    HW1 8044   3.319   0.295   0.161 -1.5761 -1.0645 -1.5332
 2585SOL    HW2 8045   3.472   0.252   0.199 -0.4488  3.0317 -1.0180
 2586SOL     OW 8046   2.412   3.804   2.920  0.8223  0.0712  0.5439
 2586SOL    HW1 8047   2.474   3.748   2.975  1.2010 -0.6291 -0.5665
 2586SOL    HW2 8048   2.448   3.812   2.827 -0.9829 -0.7560 -0.2800
 2587SOL     OW 8049   5.714   2.602   2.395  0.4780 -0.0434  0.4079
 2587SOL    HW1 8050   5.768   2.525   2.430  0.3108  0.3462  1.5519
 2587SOL    HW2 8051   5.701   2.670   2.467  0.5095  1.0099 -0.5398
 2588SOL     OW 8052   4.223   2.548   0.786 -0.2288 -0.3181  0.1423
 2588SOL    HW1 8053   4.215   2.643   0.754 -0.7319  0.6585  2.9083
 2588SOL    HW2 8054   4.133   2.517   0.818  0.0649 -1.5298 -0.1814
 2589SOL     OW 8055   2.925   3.905   4.230 -0.0070 -0.1936  0.3087
 2589SOL    HW1 8056   2.977   3.854   4.161  0.6956 -1.0196  1.3961
 2589SOL    HW2 8057   2.969   3.893   4.319 -0.5310  1.3558  0.8070
 2590SOL     OW 8058   4.126   4.523   4.592  0.0686 -0.2014 -0.3031
 2590SOL    HW1 8059   4.098   4.515   4.688  2.1162 -1.2288  0.2497
 2590SOL    HW2 8060   4.222   4.549   4.587 -0.3089  1.1130 -2.1273
 2591SOL     OW 8061   1.011   1.735   2.673 -0.2218  0.3405  0.2412
 2591SOL    HW1 8062   1.019   1.724   2.772  0.0050 -0.5337  0.1291
 2591SOL    HW2 8063   1.032   1.648   2.628  1.3624  1.1463 -0.6622
 2592SOL     OW 8064   1.844   0.772   0.629  0.3025  0.4164  0.1570
 2592SOL    HW1 8065   1.749   0.759   0.657  0.5407 -0.4459  0.5872
 2592SOL    HW2 8066   1.846   0.825   0.544 -0.4105  3.5240  1.9194
 2593SOL     OW 8067   0.663   4.485   1.021  0.0503 -0.3881 -0.5777
 2593SOL    HW1 8068   0.753   4.521   1.045 -1.5141  2.8227  1.0979
 2593SOL    HW2 8069   0.613   4.554   0.968 -1.6687 -1.8600 -0.9633
 2594SOL     OW 8070   2.750   5.255   5.405 -0.2411  0.1803 -0.1409
 2594SOL    HW1 8071   2.688   5.196   5.457  1.0025 -1.0033  0.0457
 2594SOL    HW2 8072   2.793   5.320   5.468 -0.2262  0.0581 -0.0233
 2595SOL     OW 8073   3.670   1.263   3.321  0.4323 -0.2159 -0.6073
 2595SOL    HW1 8074   3.648   1.350   3.277  0.7861 -0.6916 -1.7601
 2595SOL    HW2 8075   3.643   1.267   3.418 -1.0175  0.6035 -1.0103
 2596SOL     OW 8076   2.439   5.946   4.599 -0.5060 -1.1021 -0.0027
 2596SOL    HW1 8077   2.520   5.908   4.555  0.8822  3.1205 -1.5959
 2596SOL    HW2 8078   2.361   5.939   4.536  0.1983  0.2375 -1.0691
 2597SOL     OW 8079   0.637   4.837   2.820 -0.0744  0.2716 -0.0941
 2597SOL    HW1 8080   0.570   4.803   2.753 -0.3248 -1.0160  0.7689
 2597SOL    HW2 8081   0.589   4.889   2.891  0.0492  0.6711 -0.3002
 2598SOL     OW 8082   4.539   0.586   1.974  0.2209 -0.3157 -0.0381
 2598SOL    HW1 8083   4.533   0.568   2.072 -0.8692  1.0236  0.1764
 2598SOL    HW2 8084   4.455   0.553   1.930 -0.7710  1.9146  0.0203
 2599SOL     OW 8085   5.921   5.458   0.937  0.1570  0.3715  0.4348
 2599SOL    HW1 8086   5.961   5.444   1.028 -1.4312 -0.8796  0.9674
 2599SOL    HW2 8087   5.904   5.370   0.894 -0.6999  0.9174 -0.3723
 2600SOL     OW 8088   4.022   3.924   0.951 -0.0626 -0.2121 -0.1526
 2600SOL    HW1 8089   4.066   4.010   0.976 -0.4075 -0.0088 -0.2448
 2600SOL    HW2 8090   3.997   3.925   0.854 -0.1204 -0.3946 -0.1413
 2601SOL     OW 8091   1.718   5.511   1.341  0.2404 -0.6866  0.1227
 2601SOL    HW1 8092   1.705   5.413   1.352  3.9135 -1.4879 -1.3126
 2601SOL    HW2 8093   1.802   5.539   1.388 -2.1002  2.4606  2.9339
 2602SOL     OW 8094   4.490   5.633   4.893  0.1118 -0.8299 -0.0380
 2602SOL    HW1 8095   4.543   5.597   4.817  1.1858 -1.1727  0.8607
 2602SOL    HW2 8096   4.504   5.577   4.974  0.0288  0.2906  0.7755
 2603SOL     OW 8097   5.899   4.708   2.998  0.0403 -0.2293 -0.4727
 2603SOL    HW1 8098   5.895   4.616   3.036 -0.2345  0.0749  0.2614
 2603SOL    HW2 8099   5.968   4.712   2.926  1.0680 -0.6548  0.4573
 2604SOL     OW 8100   5.165   5.673   1.218  0.0668  0.0363 -0.0189
 2604SOL    HW1 8101   5.131   5.744   1.279  2.3820  1.0969  0.1391
 2604SOL    HW2 8102   5.215   5.715   1.142  0.4102 -1.3886 -0.6240
 2605SOL     OW 8103   4.774   5.300   4.584  0.7082  0.0686 -0.1536
 2605SOL    HW1 8104   4.853   5.268   4.637  0.7102 -1.2111 -0.8798
 2605SOL    HW2 8105   4.804   5.325   4.492  0.0705 -1.9783 -0.9713
 2606SOL     OW 8106   1.058   4.641   1.739  0.3529 -0.3996  0.4654
 2606SOL    HW1 8107   1.115   4.646   1.657  1.4523 -1.5749  1.1109
 2606SOL    HW2 8108   1.069   4.724   1.793 -1.0030  0.7386 -0.9316
 2607SOL     OW 8109   2.271   2.130   1.417  0.0641  0.5043  0.2711
 2607SOL    HW1 8110   2.292   2.202   1.483  0.4194  1.0716 -0.4517
 2607SOL    HW2 8111   2.267   2.041   1.464  0.5144  0.8720  1.0161
 2608SOL     OW 8112   5.752   5.137   5.828 -0.4456  0.6649 -0.5886
 2608SOL    HW1 8113   5.735   5.154   5.925  0.5022 -0.3324 -0.2240
 2608SOL    HW2 8114   5.731   5.219   5.776  2.1051  2.3635  0.8369
 2609SOL     OW 8115   4.426   4.166   4.314  0.0346 -0.5487 -0.2285
 2609SOL    HW1 8116   4.461   4.166   4.220 -1.4082 -1.9665 -0.8120
 2609SOL    HW2 8117   4.326   4.167   4.312 -0.0329 -1.7554  1.2703
 2610SOL     OW 8118   2.432   5.054   4.171  0.5920 -0.0256 -0.4088
 2610SOL    HW1 8119   2.441   5.064   4.072 -2.0196 -0.2951 -0.7426
 2610SOL    HW2 8120   2.496   5.116   4.216  2.4296 -0.5158 -2.2337
 2611SOL     OW 8121   0.328   2.112   4.443  0.5659 -0.4623 -0.0591
 2611SOL    HW1 8122   0.352   2.048   4.370  0.3124 -0.0642 -0.5057
 2611SOL    HW2 8123   0.396   2.185   4.447  1.1738 -1.0590  0.8379
 2612SOL     OW 8124   1.737   3.762   5.224  0.1163  0.3263  0.4749
 2612SOL    HW1 8125   1.806   3.704   5.181  0.7356  1.3283  0.0917
 2612SOL    HW2 8126   1.748   3.856   5.193 -1.8768  0.4006 -0.1596
 2613SOL     OW 8127   2.078   3.387   0.153  0.0219  0.7385  0.0765
 2613SOL    HW1 8128   2.092   3.292   0.181  0.5557  0.6471 -0.4607
 2613SOL    HW2 8129   1.985   3.416   0.177  0.2748  0.5053  1.4080
 2614SOL     OW 8130   2.120   0.434   2.431  0.0318 -0.2112 -0.0850
 2614SOL    HW1 8131   2.108   0.503   2.502 -3.4696 -1.9296  1.2075
 2614SOL    HW2 8132   2.058   0.454   2.354 -0.2467 -1.2891 -0.1611
 2615SOL     OW 8133   0.529   4.002   4.936  0.2416 -0.2723  0.3575
 2615SOL    HW1 8134   0.583   4.031   5.015 -0.0570 -1.0570  0.8508
 2615SOL    HW2 8135   0.432   4.007   4.958  0.0848  1.0691 -0.5073
 2616SOL     OW 8136   0.965   1.719   4.857  0.5216 -0.2605  0.1958
 2616SOL    HW1 8137   0.941   1.809   4.893 -0.8791 -1.1722  1.6977
 2616SOL    HW2 8138   1.055   1.691   4.892  0.2074 -0.1409  1.1187
 2617SOL     OW 8139   0.007   1.672   3.184 -0.0483  0.0948  0.1749
 2617SOL    HW1 8140   0.001   1.718   3.095  0.7534  0.8316  0.4896
 2617SOL    HW2 8141   0.090   1.617   3.188 -1.0470 -1.5205 -0.2353
 2618SOL     OW 8142   3.101   2.229   0.948 -0.0223 -0.3476  0.8144
 2618SOL    HW1 8143   3.009   2.262   0.926  0.0623  0.6153  1.8270
 2618SOL    HW2 8144   3.166   2.304   0.940  0.9011 -1.2747 -1.0183
 2619SOL     OW 8145   0.053   0.341   3.338 -0.0966  0.1415 -0.2275
 2619SOL    HW1 8146   0.152   0.332   3.333 -0.0841  0.1551  0.0018
 2619SOL    HW2 8147   0.026   0.363   3.431 -0.2237  1.2562 -0.5040
 2620SOL     OW 8148   4.990   3.846   1.970 -0.1264 -0.0821 -0.4239
 2620SOL    HW1 8149   4.998   3.755   2.012  0.2720  0.6683  1.1913
 2620SOL    HW2 8150   4.906   3.849   1.915 -0.2724 -1.3526 -0.3106
 2621SOL     OW 8151   3.685   5.409   0.910 -0.6100 -0.5303  0.3007
 2621SOL    HW1 8152   3.648   5.394   0.818 -0.0184 -0.3329  0.0250
 2621SOL    HW2 8153   3.785   5.403   0.907 -0.5229  0.4886  0.7376
 2622SOL     OW 8154   5.967   5.865   5.259  0.0853 -0.1941  0.1458
 2622SOL    HW1 8155   5.928   5.774   5.260  0.9566 -0.5739  1.3271
 2622SOL    HW2 8156   5.916   5.925   5.321  1.6095 -0.8241  2.0855
 2623SOL     OW 8157   3.727   1.363   0.796 -0.1282  0.0738 -0.5344
 2623SOL    HW1 8158   3.634   1.398   0.809 -0.6322 -2.2074  3.4480
 2623SOL    HW2 8159   3.725   1.286   0.732 -0.8929  0.3086 -0.8113
 2624SOL     OW 8160   2.671   5.109   0.299  0.5899  0.0292  0.2025
 2624SOL    HW1 8161   2.760   5.096   0.255  0.0631  0.6820 -1.1521
 2624SOL    HW2 8162   2.600   5.068   0.242 -0.1765  1.3722  0.1312
 2625SOL     OW 8163   2.193   4.845   3.281 -0.1956  0.1930  0.2301
 2625SOL    HW1 8164   2.180   4.779   3.355 -1.5169 -0.0864 -0.2345
 2625SOL    HW2 8165   2.137   4.819   3.203 -0.6701  1.8102 -0.0016
 2626SOL     OW 8166   5.388   5.617   3.848 -0.0255  0.3918  0.0890
 2626SOL    HW1 8167   5.340   5.656   3.927 -1.9358 -1.6386  0.0480
 2626SOL    HW2 8168   5.413   5.690   3.785 -2.4363  1.6989  0.5133
 2627SOL     OW 8169   0.689   2.214   1.673 -0.5248  0.4348 -0.2872
 2627SOL    HW1 8170   0.741   2.285   1.721 -1.5999 -0.0543  1.7468
 2627SOL    HW2 8171   0.725   2.124   1.697 -0.7132  0.1932 -0.8887
 2628SOL     OW 8172   4.912   2.710   1.558  0.8739 -0.6862 -0.0040
 2628SOL    HW1 8173   4.952   2.754   1.478  1.5723 -0.1878  0.6054
 2628SOL    HW2 8174   4.936   2.762   1.640 -2.3035  0.5390  0.2604
 2629SOL     OW 8175   5.915   3.330   5.362  0.1500  0.1727  0.3945
 2629SOL    HW1 8176   5.815   3.332   5.351 -0.0448 -0.3337  1.8111
 2629SOL    HW2 8177   5.938   3.274   5.441  1.6960 -1.2821 -1.0226
 2630SOL     OW 8178   3.990   1.939   1.530 -0.1243  0.3438 -0.1100
 2630SOL    HW1 8179   3.951   2.031   1.524  1.0017  0.9084  0.8485
 2630SOL    HW2 8180   4.087   1.943   1.508 -0.1327 -0.6777 -0.3726
 2631SOL     OW 8181   2.255   0.476   1.626 -0.7428 -0.1903 -0.0832
 2631SOL    HW1 8182   2.237   0.382   1.654 -0.8731 -0.2264 -0.2928
 2631SOL    HW2 8183   2.354   0.490   1.618 -0.7202 -0.2824  0.0412
 2632SOL     OW 8184   5.414   3.510   0.364  0.7694 -0.1916  0.6462
 2632SOL    HW1 8185   5.451   3.566   0.439  2.0321 -2.8084  2.1054
 2632SOL    HW2 8186   5.383   3.422   0.400 -1.4369 -0.4271 -1.5191
 2633SOL     OW 8187   0.140   0.099   3.656  0.2053  0.0007 -0.5637
 2633SOL    HW1 8188   0.224   0.120   3.606  0.9142  0.1924  0.6565
 2633SOL    HW2 8189   0.117   0.003   3.643  0.6079 -0.0511 -0.9315
 2634SOL     OW 8190   4.284   1.979   5.249 -1.0104  0.0217 -0.3667
 2634SOL    HW1 8191   4.208   1.919   5.274 -0.8903  0.0178 -0.0114
 2634SOL    HW2 8192   4.289   2.056   5.312 -1.5752  0.7806 -1.2143
 2635SOL     OW 8193   5.967   0.154   3.154  0.1422  0.2500  0.1345
 2635SOL    HW1 8194   5.896   0.084   3.164 -1.2202  1.5231 -0.2321
 2635SOL    HW2 8195   5.973   0.207   3.239 -0.1861  0.9024 -0.2466
 2636SOL     OW 8196   4.605   2.241   0.554 -0.0616  0.3760 -0.6610
 2636SOL    HW1 8197   4.641   2.176   0.487  1.4100  0.0057  0.4470
 2636SOL    HW2 8198   4.665   2.244   0.634 -1.3864  1.3460  0.3459
 2637SOL     OW 8199   3.753   2.082   2.386  0.4331 -0.3014 -0.6581
 2637SOL    HW1 8200   3.755   2.041   2.295 -2.1598  2.0579 -1.9373
 2637SOL    HW2 8201   3.777   2.179   2.380 -0.7589  0.1421  0.9784
 2638SOL     OW 8202   3.905   0.851   1.968  0.1804  0.4719 -0.2031
 2638SOL    HW1 8203   3.865   0.868   1.878  0.4827 -0.4195 -0.5227
 2638SOL    HW2 8204   3.971   0.776   1.961  0.3964  0.5618  0.7171
 2639SOL     OW 8205   0.382   2.568   3.162 -0.2115 -0.3835 -0.4188
 2639SOL    HW1 8206   0.463   2.610   3.120  0.6908 -0.0399  1.5421
 2639SOL    HW2 8207   0.310   2.636   3.173  0.3785  0.1006  0.5905
 2640SOL     OW 8208   4.538   2.287   5.295 -0.1636 -0.4501  0.3330
 2640SOL    HW1 8209   4.604   2.220   5.260 -0.5824  0.0900 -1.6346
 2640SOL    HW2 8210   4.568   2.379   5.270 -1.1442 -0.1341  0.2764
 2641SOL     OW 8211   0.220   5.294   0.327  0.3228  0.3486 -0.0276
 2641SOL    HW1 8212   0.204   5.333   0.417 -0.6627  0.4505 -0.2355
 2641SOL    HW2 8213   0.318   5.282   0.312  0.4573 -0.6317  1.4587
 2642SOL     OW 8214   1.596   4.168   3.492 -0.2155 -0.0199  0.0267
 2642SOL    HW1 8215   1.509   4.144   3.448 -1.4456  0.5683  2.0110
 2642SOL    HW2 8216   1.626   4.090   3.548  0.0661  0.1061  0.0482
 2643SOL     OW 8217   3.227   0.855   0.839 -0.6338 -0.0492  0.0591
 2643SOL    HW1 8218   3.268   0.766   0.817  2.0903  1.1571 -0.2511
 2643SOL    HW2 8219   3.188   0.852   0.931  0.8861 -1.1392  0.7107
 2644SOL     OW 8220   1.976   5.861   0.678 -0.4942  0.1539  0.0969
 2644SOL    HW1 8221   1.954   5.904   0.765  1.0193  0.7175  0.2263
 2644SOL    HW2 8222   1.946   5.919   0.603 -2.8700 -0.8596  0.1626
 2645SOL     OW 8223   5.927   4.086   1.395  0.2875 -0.1325 -0.3062
 2645SOL    HW1 8224   5.982   4.141   1.333 -0.2062  0.9733  0.2050
 2645SOL    HW2 8225   5.832   4.083   1.362 -0.4037  1.9832  1.2603
 2646SOL     OW 8226   3.552   5.078   0.406  0.1196  0.1529 -0.0707
 2646SOL    HW1 8227   3.499   5.091   0.489  1.1691  1.1217  0.4736
 2646SOL    HW2 8228   3.500   5.021   0.342 -0.5441 -0.9472  1.3827
 2647SOL     OW 8229   5.454   3.595   0.008 -0.5657 -0.5319  0.0816
 2647SOL    HW1 8230   5.519   3.561   0.076 -1.9453 -1.7213  0.8658
 2647SOL    HW2 8231   5.500   3.603  -0.081  0.7937 -0.7467  0.7361
 2648SOL     OW 8232   2.590   4.291   5.574 -0.2477 -0.2821 -0.1844
 2648SOL    HW1 8233   2.503   4.291   5.623 -0.8405  0.0761 -1.2038
 2648SOL    HW2 8234   2.639   4.377   5.593  0.1966 -0.7630  0.9040
 2649SOL     OW 8235   2.401   0.345   4.946 -0.2103  0.0765  0.2175
 2649SOL    HW1 8236   2.426   0.419   4.883  1.0899  0.7377  1.4448
 2649SOL    HW2 8237   2.381   0.263   4.893  1.2549  0.4836 -1.0789
 2650SOL     OW 8238   1.869   5.821   3.260  0.1823 -0.0971 -0.5691
 2650SOL    HW1 8239   1.938   5.752   3.240 -1.6751 -1.7408 -1.7174
 2650SOL    HW2 8240   1.796   5.816   3.191 -1.3377  1.2078  0.8602
 2651SOL     OW 8241   5.413   3.671   2.668 -0.0300 -0.3178  0.2629
 2651SOL    HW1 8242   5.339   3.710   2.614 -0.6541 -0.3113  1.1102
 2651SOL    HW2 8243   5.382   3.585   2.709  0.6227 -0.6061  0.1662
 2652SOL     OW 8244   3.136   1.082   2.043  0.3756 -0.0479 -0.2477
 2652SOL    HW1 8245   3.084   1.166   2.035 -1.2591 -1.2069 -2.9090
 2652SOL    HW2 8246   3.234   1.103   2.042  0.0134  1.8481  0.1711
 2653SOL     OW 8247   0.740   2.694   0.823 -0.0585 -0.5368  0.2281
 2653SOL    HW1 8248   0.804   2.633   0.777  1.0465  0.4443  0.4246
 2653SOL    HW2 8249   0.710   2.653   0.909 -1.2549 -1.8772 -0.7896
 2654SOL     OW 8250   5.646   3.265   0.204 -0.0966  0.1075 -0.0420
 2654SOL    HW1 8251   5.647   3.362   0.180  0.2941 -0.1997 -1.3403
 2654SOL    HW2 8252   5.583   3.217   0.143 -0.3656 -0.4447  0.6612
 2655SOL     OW 8253   3.743   3.458   4.624 -0.4080  0.0987  0.7114
 2655SOL    HW1 8254   3.660   3.428   4.670  0.0163  0.6829  1.9143
 2655SOL    HW2 8255   3.780   3.538   4.672 -0.2670  1.1204 -1.0304
 2656SOL     OW 8256   1.200   4.667   5.515 -0.3471  0.2758 -0.2890
 2656SOL    HW1 8257   1.128   4.722   5.558 -2.0591  0.3220 -2.9779
 2656SOL    HW2 8258   1.249   4.722   5.448  0.8198 -0.3566  0.0107
 2657SOL     OW 8259   4.958   1.923   4.512  0.5189  0.3321 -0.1834
 2657SOL    HW1 8260   5.043   1.900   4.560  0.6431 -0.1880 -0.6337
 2657SOL    HW2 8261   4.892   1.959   4.577  1.8417  2.9462 -0.1839
 2658SOL     OW 8262   3.327   0.429   5.038  0.0551 -0.3113 -0.1993
 2658SOL    HW1 8263   3.305   0.377   5.121  0.0618 -1.3664 -0.8358
 2658SOL    HW2 8264   3.421   0.409   5.011 -0.2019 -0.6134 -0.9030
 2659SOL     OW 8265   5.550   1.465   4.836 -0.2888 -0.5302  0.0841
 2659SOL    HW1 8266   5.477   1.402   4.861 -0.5608 -1.1851 -2.1561
 2659SOL    HW2 8267   5.639   1.420   4.848 -0.3603 -0.4937  0.7554
 2660SOL     OW 8268   1.189   5.387   0.620  0.2137  0.4912  0.2026
 2660SOL    HW1 8269   1.153   5.309   0.568  2.2564 -0.5902  0.3267
 2660SOL    HW2 8270   1.235   5.354   0.702 -0.8832  2.0280  1.5120
 2661SOL     OW 8271   2.917   1.184   3.780 -0.3548 -0.3913 -0.1091
 2661SOL    HW1 8272   2.917   1.104   3.841 -0.7016  0.2990  0.8185
 2661SOL    HW2 8273   2.824   1.216   3.767 -0.3077 -0.6585 -1.2063
 2662SOL     OW 8274   1.396   3.804   2.849  0.3457 -0.0733 -0.2733
 2662SOL    HW1 8275   1.425   3.895   2.819  2.0975 -0.7899 -0.8414
 2662SOL    HW2 8276   1.361   3.810   2.943 -0.2890  1.2939 -0.5659
 2663SOL     OW 8277   5.243   5.009   5.008 -0.3820  0.0653 -0.0024
 2663SOL    HW1 8278   5.239   4.980   4.913 -0.6368 -0.8903  0.2909
 2663SOL    HW2 8279   5.255   4.930   5.067  1.2207  0.7710  0.6752
 2664SOL     OW 8280   4.169   5.469   3.149 -0.2001  0.2269 -0.3284
 2664SOL    HW1 8281   4.119   5.432   3.070 -0.4869  1.6700 -0.8627
 2664SOL    HW2 8282   4.105   5.521   3.206 -0.3711 -2.1815  1.8239
 2665SOL     OW 8283   2.790   0.658   4.632 -0.4350 -0.5846  0.3434
 2665SOL    HW1 8284   2.806   0.733   4.696  2.1442 -2.3096  1.9406
 2665SOL    HW2 8285   2.766   0.575   4.684 -1.7899 -1.2516 -1.2456
 2666SOL     OW 8286   3.735   5.254   2.297 -0.1908  0.6192  0.0984
 2666SOL    HW1 8287   3.751   5.162   2.334  0.5279  0.5100 -0.4493
 2666SOL    HW2 8288   3.636   5.271   2.293 -0.3002  0.6074  1.9346
 2667SOL     OW 8289   3.249   0.089   3.237 -0.4124  0.1838  0.1511
 2667SOL    HW1 8290   3.273   0.116   3.331 -0.0766  0.7388 -0.0912
 2667SOL    HW2 8291   3.320   0.120   3.174 -0.9537  0.3922 -0.3697
 2668SOL     OW 8292   1.251   3.789   3.081  0.1292  0.3672  0.5010
 2668SOL    HW1 8293   1.176   3.821   3.139 -1.7032 -0.1367 -1.4656
 2668SOL    HW2 8294   1.253   3.689   3.081  0.4216  0.3704  0.0910
 2669SOL     OW 8295   5.601   0.974   2.750 -0.3437 -0.0368 -0.4550
 2669SOL    HW1 8296   5.502   0.972   2.756 -0.3107 -1.7818 -0.1308
 2669SOL    HW2 8297   5.633   1.068   2.762 -1.7950  0.2055  2.0460
 2670SOL     OW 8298   1.194   2.414   2.229  0.3568 -0.0517  0.6441
 2670SOL    HW1 8299   1.153   2.427   2.319  0.9400  1.4084  0.7177
 2670SOL    HW2 8300   1.274   2.473   2.220 -0.3246  0.6369 -1.2256
 2671SOL     OW 8301   3.471   0.121   2.913 -0.0055 -0.5958 -0.0511
 2671SOL    HW1 8302   3.391   0.181   2.923  1.2447  1.0591  0.4508
 2671SOL    HW2 8303   3.441   0.026   2.909 -1.8896 -0.1640  1.9848
 2672SOL     OW 8304   4.741   2.026   0.119  0.2134  0.1176  0.1009
 2672SOL    HW1 8305   4.749   2.060   0.025  0.3683  2.0213  0.7586
 2672SOL    HW2 8306   4.811   1.957   0.136 -0.6089 -1.1836 -1.5410
 2673SOL     OW 8307   1.889   5.018   3.189  0.3866 -0.1279  0.0910
 2673SOL    HW1 8308   1.966   5.079   3.167 -0.1628 -0.1637 -2.1267
 2673SOL    HW2 8309   1.920   4.923   3.183  0.1125 -0.1557 -1.2375
 2674SOL     OW 8310   3.405   2.505   0.180 -0.8965 -0.0286 -0.4684
 2674SOL    HW1 8311   3.333   2.486   0.113  0.0792 -1.4535 -1.1541
 2674SOL    HW2 8312   3.427   2.602   0.179 -1.5883  0.1307 -1.4974
 2675SOL     OW 8313   2.567   2.253   3.649 -0.9330  0.5184 -0.2484
 2675SOL    HW1 8314   2.604   2.162   3.667 -0.9949  0.6332  0.5146
 2675SOL    HW2 8315   2.481   2.245   3.599 -0.1734  0.2317 -1.5589
 2676SOL     OW 8316   0.526   0.223   0.681  0.0820  0.5543  0.1983
 2676SOL    HW1 8317   0.555   0.282   0.606  1.8390 -1.5588 -0.9345
 2676SOL    HW2 8318   0.429   0.203   0.672 -0.1415  1.8148 -0.4258
 2677SOL     OW 8319   1.924   0.803   3.596 -0.5159  0.7992 -0.5861
 2677SOL    HW1 8320   1.930   0.821   3.694 -0.5577 -1.8235 -0.0283
 2677SOL    HW2 8321   2.010   0.764   3.563 -1.0115  0.1871 -1.2194
 2678SOL     OW 8322   1.086   1.744   2.928  0.2819  0.5831  0.5992
 2678SOL    HW1 8323   1.023   1.764   3.003  1.8811  0.1596  2.1062
 2678SOL    HW2 8324   1.147   1.669   2.954 -0.8246 -1.4519 -2.1353
 2679SOL     OW 8325   4.426   1.534   2.505  0.1218 -0.0560  0.1019
 2679SOL    HW1 8326   4.442   1.628   2.477 -5.5419  0.4882 -2.7512
 2679SOL    HW2 8327   4.462   1.472   2.435  0.5970  0.2467  0.0764
 2680SOL     OW 8328   0.129   0.500   5.638  0.0860 -0.3784 -0.1099
 2680SOL    HW1 8329   0.120   0.519   5.736  0.2874  0.1394 -0.1879
 2680SOL    HW2 8330   0.152   0.585   5.590 -1.6226 -0.2749 -0.8207
 2681SOL     OW 8331   2.371   4.579   3.422 -0.4155 -0.0708 -0.1374
 2681SOL    HW1 8332   2.410   4.620   3.340 -3.0083 -1.0767 -2.0323
 2681SOL    HW2 8333   2.417   4.493   3.443  0.7664  0.5673 -0.0137
 2682SOL     OW 8334   4.155   0.736   2.619 -0.0002  0.3997  0.0812
 2682SOL    HW1 8335   4.164   0.669   2.693  2.0012  0.9884  0.4310
 2682SOL    HW2 8336   4.186   0.694   2.533  1.1730  0.8270  0.2847
 2683SOL     OW 8337   0.161   1.199   1.922 -0.3346 -0.2813 -0.2401
 2683SOL    HW1 8338   0.158   1.161   1.829 -1.8123 -1.3208  0.1912
 2683SOL    HW2 8339   0.073   1.183   1.967  0.3353  0.2673  1.3216
 2684SOL     OW 8340   4.335   0.832   0.785  0.4032  0.0788  0.5128
 2684SOL    HW1 8341   4.418   0.883   0.764  1.5473 -1.4144  1.1771
 2684SOL    HW2 8342   4.324   0.826   0.884  0.5822 -1.3657  0.4643
 2685SOL     OW 8343   4.204   2.982   1.959  0.9954 -0.6578  0.3706
 2685SOL    HW1 8344   4.248   2.923   1.891 -2.3294  1.2157 -3.9142
 2685SOL    HW2 8345   4.243   3.074   1.953  1.0050 -0.5713  1.4903
 2686SOL     OW 8346   5.534   4.210   1.690 -0.3318 -0.3310 -0.5614
 2686SOL    HW1 8347   5.617   4.264   1.672 -0.6478 -0.3531 -2.2928
 2686SOL    HW2 8348   5.483   4.198   1.604 -3.1292  1.2856  0.7317
 2687SOL     OW 8349   3.654   4.348   5.474  0.5880  0.3490  0.0365
 2687SOL    HW1 8350   3.561   4.337   5.439  0.3112  1.0090  0.5446
 2687SOL    HW2 8351   3.652   4.401   5.558  1.4279  0.3522  0.0639
 2688SOL     OW 8352   1.843   3.703   0.178 -0.2009 -0.1247  0.1749
 2688SOL    HW1 8353   1.788   3.754   0.244 -1.0588 -0.3427 -0.3545
 2688SOL    HW2 8354   1.806   3.610   0.169  0.9983 -0.6682  0.7081
 2689SOL     OW 8355   1.660   4.879   5.454  0.0102 -0.1900  0.4280
 2689SOL    HW1 8356   1.640   4.843   5.362 -2.7558  0.4772  0.6619
 2689SOL    HW2 8357   1.577   4.920   5.492  1.7603  1.9257  2.2095
 2690SOL     OW 8358   0.510   0.503   5.013  0.0772  0.1169 -0.0940
 2690SOL    HW1 8359   0.519   0.528   5.110 -1.2853  0.4582 -0.0347
 2690SOL    HW2 8360   0.578   0.552   4.960  0.4064  0.4413  0.6083
 2691SOL     OW 8361   0.902   1.332   4.913 -0.4561 -0.1723  0.3560
 2691SOL    HW1 8362   0.988   1.373   4.884  0.2170 -1.2871  0.7309
 2691SOL    HW2 8363   0.853   1.297   4.833 -0.5137  0.3551  0.1559
 2692SOL     OW 8364   4.007   2.843   1.801 -0.3010  0.1358 -0.1978
 2692SOL    HW1 8365   3.987   2.758   1.850 -0.6010  0.5597  0.4284
 2692SOL    HW2 8366   4.058   2.905   1.861  0.1428  0.2981 -0.7370
 2693SOL     OW 8367   4.965   2.772   2.992  0.4845 -0.0486 -0.5709
 2693SOL    HW1 8368   4.966   2.762   2.892  1.9435 -1.9248 -0.4273
 2693SOL    HW2 8369   4.921   2.693   3.033  1.3274 -0.0617  0.3350
 2694SOL     OW 8370   1.740   2.775   3.813 -0.2213  0.5399 -0.2733
 2694SOL    HW1 8371   1.715   2.822   3.897  0.2504 -0.8273  0.6708
 2694SOL    HW2 8372   1.767   2.842   3.744  0.9144  1.6274  1.1652
 2695SOL     OW 8373   4.429   4.478   2.484 -0.0155 -0.0780  0.8867
 2695SOL    HW1 8374   4.454   4.382   2.494 -0.3874 -0.0501  2.2454
 2695SOL    HW2 8375   4.507   4.529   2.448  0.3688 -0.7708  0.7118
 2696SOL     OW 8376   1.589   4.994   2.342  0.2504 -0.3573 -0.1105
 2696SOL    HW1 8377   1.529   5.038   2.409  1.3828  0.0310  0.6761
 2696SOL    HW2 8378   1.535   4.933   2.284 -0.6151 -1.3953  1.7223
 2697SOL     OW 8379   0.211   4.863   4.080  0.1917  0.4960 -0.9766
 2697SOL    HW1 8380   0.208   4.781   4.023  0.4053  0.2605 -0.6514
 2697SOL    HW2 8381   0.225   4.837   4.176  1.0955  0.9538 -0.9756
 2698SOL     OW 8382   3.957   2.226   0.649  0.4628  0.2053 -0.4297
 2698SOL    HW1 8383   4.008   2.299   0.605  0.5618  1.5261  1.7269
 2698SOL    HW2 8384   3.897   2.266   0.719 -3.5857 -1.2131 -2.7591
 2699SOL     OW 8385   0.299   4.014   2.123  0.5552 -0.4166  0.3270
 2699SOL    HW1 8386   0.266   4.002   2.217  0.1135 -0.9522  0.1108
 2699SOL    HW2 8387   0.244   4.085   2.078 -0.1457 -1.1229  0.0501
 2700SOL     OW 8388   5.255   0.470   1.374  0.1439 -0.2375  0.1823
 2700SOL    HW1 8389   5.255   0.388   1.431  1.2859 -0.6330 -0.3377
 2700SOL    HW2 8390   5.275   0.550   1.431 -0.0504 -0.4481  0.5492
 2701SOL     OW 8391   4.157   0.547   4.561 -0.2387 -0.1294  0.5769
 2701SOL    HW1 8392   4.192   0.620   4.503 -0.3878  0.4682  1.2219
 2701SOL    HW2 8393   4.126   0.471   4.504 -1.9391  1.1086 -0.2507
 2702SOL     OW 8394   2.915   0.918   3.895  0.2390 -0.4936  0.6368
 2702SOL    HW1 8395   2.928   0.846   3.963 -1.2852 -1.7407 -0.3381
 2702SOL    HW2 8396   2.847   0.889   3.827 -0.0180  1.6490 -0.1042
 2703SOL     OW 8397   3.642   0.282   4.779 -0.2747  0.2540  0.3342
 2703SOL    HW1 8398   3.692   0.269   4.693  0.6895 -1.1485  1.0803
 2703SOL    HW2 8399   3.609   0.377   4.784  0.0739  0.4928 -1.3463
 2704SOL     OW 8400   2.616   2.678   5.243  0.2737  0.3638  0.1711
 2704SOL    HW1 8401   2.628   2.721   5.153  1.5941 -0.7669 -0.2150
 2704SOL    HW2 8402   2.705   2.649   5.278 -0.1549  1.2164  2.0878
 2705SOL     OW 8403   3.610   1.235   4.233 -0.5398 -0.2095 -0.0730
 2705SOL    HW1 8404   3.651   1.320   4.265  0.5369 -1.3922  1.9529
 2705SOL    HW2 8405   3.672   1.189   4.170 -0.3733 -0.2460  0.1138
 2706SOL     OW 8406   2.137   2.359   3.706  0.5524  0.0647  0.2949
 2706SOL    HW1 8407   2.062   2.404   3.755 -0.6094 -2.7871  1.3433
 2706SOL    HW2 8408   2.225   2.396   3.738 -0.2795  0.4814  2.2202
 2707SOL     OW 8409   1.836   2.853   4.292  0.6323  0.1691 -0.6724
 2707SOL    HW1 8410   1.829   2.832   4.390 -0.8122 -1.6967 -1.1364
 2707SOL    HW2 8411   1.933   2.852   4.266  0.9078 -3.8230 -0.1107
 2708SOL     OW 8412   5.465   5.444   0.820 -0.4272 -0.3669  0.0605
 2708SOL    HW1 8413   5.451   5.542   0.831 -2.7572 -0.4216 -1.5615
 2708SOL    HW2 8414   5.416   5.395   0.892  0.2769 -0.3723  0.5450
 2709SOL     OW 8415   4.691   2.774   2.164  0.0788  0.3303  0.4388
 2709SOL    HW1 8416   4.631   2.710   2.212 -0.1210 -1.0032 -1.4532
 2709SOL    HW2 8417   4.645   2.862   2.154 -0.0770  0.4663  2.1708
 2710SOL     OW 8418   5.877   2.514   3.664  0.4245  0.2454  0.0337
 2710SOL    HW1 8419   5.928   2.475   3.740 -0.9837 -1.5198  0.1097
 2710SOL    HW2 8420   5.907   2.471   3.578  0.7432  0.9487 -0.2204
 2711SOL     OW 8421   1.265   0.397   4.860 -0.4376 -0.0748 -0.4526
 2711SOL    HW1 8422   1.226   0.454   4.787  1.3809 -0.0842 -1.4908
 2711SOL    HW2 8423   1.362   0.417   4.869 -0.0940 -1.9054  0.2365
 2712SOL     OW 8424   4.189   4.283   2.584  0.0632  0.1316  0.1907
 2712SOL    HW1 8425   4.271   4.270   2.527 -1.8186  1.4829 -3.1421
 2712SOL    HW2 8426   4.197   4.368   2.636  1.3587 -0.5438  1.1640
 2713SOL     OW 8427   3.257   3.240   4.229 -0.2096  0.1739  0.6521
 2713SOL    HW1 8428   3.310   3.261   4.147  1.6716 -1.7045  1.3030
 2713SOL    HW2 8429   3.175   3.189   4.204  1.4428 -2.3304 -0.0080
 2714SOL     OW 8430   3.043   2.621   5.520  0.0459 -0.1470  0.1952
 2714SOL    HW1 8431   3.081   2.530   5.531  1.1262  0.1102 -1.1383
 2714SOL    HW2 8432   3.086   2.666   5.442  0.8417  2.1733  1.8469
 2715SOL     OW 8433   0.123   2.684   1.781 -0.3101 -0.2740 -0.2413
 2715SOL    HW1 8434   0.185   2.746   1.733  2.0168 -2.8628 -0.8826
 2715SOL    HW2 8435   0.094   2.724   1.868  1.4733  1.4733 -0.4027
 2716SOL     OW 8436   0.663   3.699   5.268 -0.1420 -0.2373 -0.3129
 2716SOL    HW1 8437   0.723   3.620   5.280  0.5993  0.1569 -1.2968
 2716SOL    HW2 8438   0.611   3.714   5.352 -0.2458 -1.7201 -0.0861
 2717SOL     OW 8439   2.901   0.020   0.132 -0.5266  1.1214 -0.6748
 2717SOL    HW1 8440   2.976   0.080   0.102  0.9062  0.1991  0.8573
 2717SOL    HW2 8441   2.863   0.055   0.218 -0.3134  0.3758 -0.2658
 2718SOL     OW 8442   0.454   2.806   0.552  0.5442  0.1150 -0.0563
 2718SOL    HW1 8443   0.480   2.720   0.596 -1.2739 -0.9157 -0.8546
 2718SOL    HW2 8444   0.458   2.794   0.452 -0.3950  0.7161 -0.1795
 2719SOL     OW 8445   2.725   5.263   3.876 -0.1108 -0.1932  0.2709
 2719SOL    HW1 8446   2.824   5.270   3.867 -0.2080  0.2954 -0.4955
 2719SOL    HW2 8447   2.683   5.350   3.848 -0.8804 -1.0830 -1.4864
 2720SOL     OW 8448   5.683   1.359   1.713 -0.1490 -0.1296 -0.0464
 2720SOL    HW1 8449   5.702   1.327   1.806  3.8042  0.8875 -0.3141
 2720SOL    HW2 8450   5.657   1.456   1.716 -1.8341 -0.5480  0.0382
 2721SOL     OW 8451   1.775   4.573   4.269  0.3190  0.4067 -0.6195
 2721SOL    HW1 8452   1.849   4.527   4.219  0.7845 -0.1967  0.5758
 2721SOL    HW2 8453   1.713   4.504   4.305  0.1332  0.8152 -0.1555
 2722SOL     OW 8454   5.751   5.195   0.144 -0.1685  0.3438  0.1034
 2722SOL    HW1 8455   5.759   5.293   0.128  0.7896  0.2005 -0.3757
 2722SOL    HW2 8456   5.664   5.175   0.189 -0.0025  1.5004  0.9774
 2723SOL     OW 8457   1.773   1.029   1.899 -0.3372  0.3317 -0.1175
 2723SOL    HW1 8458   1.856   1.043   1.953 -0.1851  0.1087 -0.2911
 2723SOL    HW2 8459   1.785   0.950   1.839 -1.4526 -1.0442  1.3852
 2724SOL     OW 8460   4.938   1.685   2.811  0.3939 -0.4282 -0.4247
 2724SOL    HW1 8461   4.956   1.634   2.895  0.3873 -0.1520 -0.2571
 2724SOL    HW2 8462   5.017   1.740   2.787 -0.0128  0.3695  0.0201
 2725SOL     OW 8463   5.459   4.985   1.627 -0.1387  0.1330 -0.0787
 2725SOL    HW1 8464   5.394   4.910   1.614  0.3727 -0.0587 -1.7287
 2725SOL    HW2 8465   5.503   4.974   1.716 -1.4957 -0.3871  0.5664
 2726SOL     OW 8466   3.689   5.942   0.608  0.0425  0.1589 -0.0665
 2726SOL    HW1 8467   3.753   5.971   0.537  1.1904 -1.6497  0.1476
 2726SOL    HW2 8468   3.728   5.864   0.658 -1.7836 -0.1698  0.9446
 2727SOL     OW 8469   2.444   2.872   1.571 -0.2148 -0.1124  0.1667
 2727SOL    HW1 8470   2.514   2.801   1.570  0.8381  0.7167 -3.8497
 2727SOL    HW2 8471   2.477   2.952   1.620  0.9229 -0.4150 -0.0749
 2728SOL     OW 8472   1.904   3.945   3.848 -0.0207  0.1792  0.2219
 2728SOL    HW1 8473   1.823   3.968   3.901  0.3744  0.8004  0.5695
 2728SOL    HW2 8474   1.939   3.856   3.877 -1.4773 -0.8455 -1.0306
 2729SOL     OW 8475   3.366   1.669   2.240  0.4306  0.3171  0.0111
 2729SOL    HW1 8476   3.404   1.582   2.207  0.8405 -0.8329  3.1154
 2729SOL    HW2 8477   3.273   1.654   2.273 -0.4009  1.6587 -1.6154
 2730SOL     OW 8478   5.464   5.708   4.705  0.0743  0.2467  0.4516
 2730SOL    HW1 8479   5.553   5.681   4.667 -0.0774 -0.4343  0.5684
 2730SOL    HW2 8480   5.392   5.684   4.640 -0.1938 -0.9776  1.1663
 2731SOL     OW 8481   1.049   1.290   1.945  0.1219 -0.3933 -0.0426
 2731SOL    HW1 8482   1.078   1.372   1.995 -0.6215 -0.0719 -0.1377
 2731SOL    HW2 8483   1.127   1.227   1.938  1.3255  1.1409 -1.7149
 2732SOL     OW 8484   0.826   3.091   5.161  0.2296  0.0307  0.4014
 2732SOL    HW1 8485   0.826   3.146   5.077  1.6656  1.0357  1.0153
 2732SOL    HW2 8486   0.893   3.129   5.226 -0.3527 -1.1296  1.7379
 2733SOL     OW 8487   1.487   1.866   4.188 -0.2099 -0.4707  1.0179
 2733SOL    HW1 8488   1.451   1.930   4.120  1.3673  0.6022  1.1334
 2733SOL    HW2 8489   1.527   1.787   4.142 -2.0645 -1.3695  0.8688
 2734SOL     OW 8490   3.820   4.504   2.893 -0.7336  0.3068 -0.3617
 2734SOL    HW1 8491   3.825   4.565   2.814 -1.9589 -1.5936 -2.0152
 2734SOL    HW2 8492   3.910   4.496   2.935  0.4159 -0.1050 -2.7550
 2735SOL     OW 8493   2.887   3.928   1.500 -0.5909  0.1440  0.0540
 2735SOL    HW1 8494   2.805   3.928   1.557 -0.3614  0.0328  0.3835
 2735SOL    HW2 8495   2.928   4.019   1.500  0.0242 -0.1312  0.9510
 2736SOL     OW 8496   0.605   4.617   5.347  0.0994  0.1508  0.3733
 2736SOL    HW1 8497   0.603   4.716   5.331 -0.2162 -0.0840 -1.1860
 2736SOL    HW2 8498   0.547   4.571   5.279  0.3483 -1.1237  0.9921
 2737SOL     OW 8499   4.156   5.893   5.369  0.2603  0.1152 -0.2623
 2737SOL    HW1 8500   4.152   5.974   5.311  0.0902 -1.1199 -2.0408
 2737SOL    HW2 8501   4.069   5.884   5.419  0.1188  0.7774 -0.3794
 2738SOL     OW 8502   5.420   3.295   4.108 -0.2886 -0.0874 -0.2651
 2738SOL    HW1 8503   5.327   3.310   4.143  0.1145 -1.2271  1.4003
 2738SOL    HW2 8504   5.421   3.315   4.010 -1.8517  1.6875  0.0031
 2739SOL     OW 8505   3.288   3.320   0.775  0.5217  0.1628 -0.2739
 2739SOL    HW1 8506   3.220   3.389   0.803 -0.2217 -0.7030  0.1119
 2739SOL    HW2 8507   3.338   3.289   0.855  0.0485 -0.5812 -0.2587
 2740SOL     OW 8508   4.503   2.604   2.518 -0.1730 -0.1588 -0.2930
 2740SOL    HW1 8509   4.537   2.545   2.445  0.1351 -0.5406  0.1502
 2740SOL    HW2 8510   4.577   2.621   2.584 -0.4746  0.0935 -0.0173
 2741SOL     OW 8511   3.938   3.072   4.695 -0.7183  0.0773 -0.4473
 2741SOL    HW1 8512   3.993   3.061   4.778 -0.6755  0.1886 -0.4594
 2741SOL    HW2 8513   3.968   3.155   4.647 -1.0592  0.2732 -0.3292
 2742SOL     OW 8514   2.123   1.473   0.558 -0.3306  0.2063 -0.0651
 2742SOL    HW1 8515   2.045   1.497   0.500  0.0850  1.3585 -0.1771
 2742SOL    HW2 8516   2.111   1.514   0.648 -0.5060 -0.7664  0.3588
 2743SOL     OW 8517   4.525   5.459   2.354 -0.2118  0.1395 -0.1499
 2743SOL    HW1 8518   4.523   5.546   2.403 -0.9829 -0.2098  0.4558
 2743SOL    HW2 8519   4.620   5.429   2.344  0.1407  1.4859 -1.1775
 2744SOL     OW 8520   3.081   3.531   1.043 -0.1359  0.5236  0.3809
 2744SOL    HW1 8521   3.104   3.554   0.948 -2.3703  0.2231 -0.2943
 2744SOL    HW2 8522   3.056   3.434   1.049  2.3346 -0.0995  1.8066
 2745SOL     OW 8523   0.050   2.291   1.425 -0.5259 -0.1440 -0.3021
 2745SOL    HW1 8524   0.140   2.264   1.459 -0.5502  1.1864  0.9003
 2745SOL    HW2 8525   0.056   2.383   1.385 -1.3664 -0.0343 -0.1831
 2746SOL     OW 8526   1.003   3.104   2.148 -0.2230  0.1267 -0.0739
 2746SOL    HW1 8527   1.076   3.097   2.216 -0.9445 -1.2306  0.5967
 2746SOL    HW2 8528   1.043   3.101   2.056  0.5339 -1.6029  0.2702
 2747SOL     OW 8529   1.631   0.861   0.185  0.2082 -0.0373 -0.1862
 2747SOL    HW1 8530   1.662   0.794   0.117 -0.3131 -2.1048  1.5206
 2747SOL    HW2 8531   1.547   0.904   0.153  0.2697 -0.5641 -1.0935
 2748SOL     OW 8532   0.607   4.376   4.156 -0.1150 -0.4432 -0.7049
 2748SOL    HW1 8533   0.520   4.326   4.156  0.2381 -1.0636 -0.1012
 2748SOL    HW2 8534   0.591   4.470   4.123 -0.7989 -0.9063 -1.7443
 2749SOL     OW 8535   0.348   5.551   0.249  0.6916  0.4444 -0.2554
 2749SOL    HW1 8536   0.298   5.584   0.169 -1.2759 -1.1032  0.2661
 2749SOL    HW2 8537   0.325   5.606   0.329  0.2208  0.0772 -0.1322
 2750SOL     OW 8538   1.109   2.356   3.161  0.8243 -0.4324  0.2866
 2750SOL    HW1 8539   1.185   2.382   3.221  1.6553  0.2323 -0.9893
 2750SOL    HW2 8540   1.142   2.353   3.066  0.0687 -3.4870  0.0339
 2751SOL     OW 8541   5.681   5.345   5.672 -0.7297  0.1229  0.2861
 2751SOL    HW1 8542   5.603   5.404   5.689  0.4182  2.2602 -1.3735
 2751SOL    HW2 8543   5.663   5.288   5.592 -0.8166  0.1860  0.2604
 2752SOL     OW 8544   4.978   3.239   2.393 -0.5818  0.1794  0.4491
 2752SOL    HW1 8545   5.035   3.163   2.360  0.0116  0.7650  0.1131
 2752SOL    HW2 8546   4.892   3.239   2.342 -1.0633 -0.9362  1.2149
 2753SOL     OW 8547   5.138   2.784   3.997  0.5320 -0.0030 -0.7769
 2753SOL    HW1 8548   5.170   2.710   4.055 -0.1714  0.6454  0.4869
 2753SOL    HW2 8549   5.205   2.803   3.925  1.2690 -1.0283 -0.3705
 2754SOL     OW 8550   1.696   0.666   0.025 -0.5684 -0.2248 -0.3546
 2754SOL    HW1 8551   1.785   0.678  -0.017  0.0655 -0.8874  0.7580
 2754SOL    HW2 8552   1.656   0.579  -0.004 -0.5703 -0.2209 -0.3638
 2755SOL     OW 8553   4.468   3.701   2.445 -0.2877  0.2302  0.1733
 2755SOL    HW1 8554   4.530   3.762   2.395  1.2611 -0.0930  1.6320
 2755SOL    HW2 8555   4.449   3.621   2.388  1.6377 -0.2540  0.1181
 2756SOL     OW 8556   5.616   4.628   2.962  0.1724 -0.2401 -0.3632
 2756SOL    HW1 8557   5.578   4.576   2.886 -1.0219  0.6264 -0.3838
 2756SOL    HW2 8558   5.687   4.690   2.927  1.5988 -1.7837 -0.3363
 2757SOL     OW 8559   3.175   5.857   4.386  0.2957  0.6253  0.1927
 2757SOL    HW1 8560   3.235   5.842   4.307  0.3031  0.7953  0.1656
 2757SOL    HW2 8561   3.231   5.880   4.466  0.3170  0.0261  0.3511
 2758SOL     OW 8562   4.643   1.285   1.305  0.5749  0.4598  0.5497
 2758SOL    HW1 8563   4.666   1.250   1.214  1.9176 -0.8675  1.3545
 2758SOL    HW2 8564   4.559   1.243   1.337 -0.8838  2.2451 -0.7442
 2759SOL     OW 8565   2.658   5.224   4.259  0.2194  0.0798  0.1595
 2759SOL    HW1 8566   2.643   5.320   4.232  0.3011 -0.5809 -2.5174
 2759SOL    HW2 8567   2.756   5.208   4.267  0.2996 -0.1081 -0.9488
 2760SOL     OW 8568   4.740   5.488   5.088  0.2144 -0.5050  0.3598
 2760SOL    HW1 8569   4.685   5.551   5.143 -1.6365 -2.1211  0.4802
 2760SOL    HW2 8570   4.834   5.521   5.083 -0.2598  1.2624  1.9584
 2761SOL     OW 8571   1.214   2.285   2.888  0.4100 -0.3012  0.2223
 2761SOL    HW1 8572   1.130   2.233   2.871 -1.1394  2.0926  0.1139
 2761SOL    HW2 8573   1.224   2.356   2.818  1.9752  0.1311  0.8401
 2762SOL     OW 8574   2.470   0.159   2.045  0.3529  0.2936 -0.4609
 2762SOL    HW1 8575   2.382   0.128   2.010  0.3630 -1.2905  0.8295
 2762SOL    HW2 8576   2.462   0.180   2.142  1.6210 -0.8510 -0.0853
 2763SOL     OW 8577   2.784   0.521   5.880 -0.4664  0.0671 -0.0656
 2763SOL    HW1 8578   2.736   0.534   5.966 -1.6421  0.0291 -0.6909
 2763SOL    HW2 8579   2.828   0.431   5.879 -1.1182 -0.2614  0.1899
 2764SOL     OW 8580   1.776   2.584   1.699  0.0537 -0.6322 -0.4339
 2764SOL    HW1 8581   1.784   2.676   1.661  1.1048 -0.6472 -0.2852
 2764SOL    HW2 8582   1.820   2.582   1.789  0.6129 -1.4278 -0.7167
 2765SOL     OW 8583   0.815   5.639   3.597 -0.0253  0.1246  0.1558
 2765SOL    HW1 8584   0.730   5.674   3.560  0.6211  1.4696 -0.0967
 2765SOL    HW2 8585   0.883   5.712   3.602  0.8454 -0.7079  1.1919
 2766SOL     OW 8586   0.761   5.149   5.693  0.0390  0.7975 -0.0498
 2766SOL    HW1 8587   0.736   5.054   5.674 -0.5746  0.3269  2.6501
 2766SOL    HW2 8588   0.849   5.170   5.649  0.0983 -0.9431 -0.8467
 2767SOL     OW 8589   1.084   3.728   4.610 -0.3655  0.0427 -0.3503
 2767SOL    HW1 8590   1.083   3.725   4.710 -1.0212  0.6567 -0.3308
 2767SOL    HW2 8591   1.142   3.655   4.575  0.5117  0.3120  0.4998
 2768SOL     OW 8592   5.718   0.460   0.693  0.5220  0.7726 -0.2995
 2768SOL    HW1 8593   5.713   0.410   0.779  2.8177  1.6179  0.4216
 2768SOL    HW2 8594   5.708   0.396   0.616  0.8047 -0.3724  0.5870
 2769SOL     OW 8595   4.445   4.953   3.193 -0.3013  0.7028 -0.3982
 2769SOL    HW1 8596   4.437   4.966   3.292  2.6326  0.2451  0.0123
 2769SOL    HW2 8597   4.381   4.883   3.163 -0.2143 -0.2285  1.4603
 2770SOL     OW 8598   3.371   3.417   0.087  0.2176  0.4920 -0.2030
 2770SOL    HW1 8599   3.360   3.368   0.173 -0.1602 -0.3962 -0.7459
 2770SOL    HW2 8600   3.370   3.352   0.011 -0.8578  1.3827 -0.9865
 2771SOL     OW 8601   3.370   4.233   0.724 -0.2508 -0.2038 -0.6925
 2771SOL    HW1 8602   3.426   4.240   0.807  0.2175 -0.9538 -0.9323
 2771SOL    HW2 8603   3.369   4.321   0.677  0.3863 -0.0588 -0.4532
 2772SOL     OW 8604   2.669   4.682   0.891  0.7740 -0.2181 -0.9294
 2772SOL    HW1 8605   2.673   4.781   0.879  0.5308 -0.1183 -0.2546
 2772SOL    HW2 8606   2.754   4.649   0.932  0.4267 -0.1280 -0.1206
 2773SOL     OW 8607   4.417   4.040   0.253  0.1793 -0.8298  0.5365
 2773SOL    HW1 8608   4.337   4.081   0.210  1.1516  0.4492 -0.1274
 2773SOL    HW2 8609   4.432   3.949   0.215  0.6176  0.0050 -1.3972
 2774SOL     OW 8610   5.117   1.890   4.777  0.7431  0.0461  0.2070
 2774SOL    HW1 8611   5.124   1.948   4.859 -0.8379 -0.2811  0.6127
 2774SOL    HW2 8612   5.135   1.795   4.801  0.3778 -0.0358  0.1736
 2775SOL     OW 8613   5.385   1.251   1.798  0.3745  0.6650 -0.2312
 2775SOL    HW1 8614   5.360   1.163   1.757  2.5092 -1.0233  1.8293
 2775SOL    HW2 8615   5.405   1.317   1.725 -1.0186 -0.5579 -1.8349
 2776SOL     OW 8616   2.120   2.080   1.849 -0.3165  0.6134 -0.3539
 2776SOL    HW1 8617   2.124   2.038   1.940 -1.1410  3.6717  1.2571
 2776SOL    HW2 8618   2.213   2.102   1.819  0.0112 -0.9646 -0.5865
 2777SOL     OW 8619   0.188   4.990   1.266  0.1871 -0.6165  0.1789
 2777SOL    HW1 8620   0.201   5.038   1.353 -1.7380 -2.8393  1.8002
 2777SOL    HW2 8621   0.274   4.949   1.237  0.9967  0.6697  0.6689
 2778SOL     OW 8622   3.700   0.555   2.270 -0.0584 -0.0312  0.6178
 2778SOL    HW1 8623   3.686   0.543   2.172 -1.4332  2.6266  0.3901
 2778SOL    HW2 8624   3.621   0.520   2.320  0.5552 -1.2046  0.8050
 2779SOL     OW 8625   4.152   4.101   1.131 -0.0837 -0.0253  0.0339
 2779SOL    HW1 8626   4.155   4.164   1.053 -1.6175 -1.6351 -1.4224
 2779SOL    HW2 8627   4.153   4.153   1.216  2.8435  1.7620 -0.9579
 2780SOL     OW 8628   0.742   2.270   0.788 -0.5617 -0.0704  0.4625
 2780SOL    HW1 8629   0.749   2.182   0.741  0.2291  1.5876 -2.9241
 2780SOL    HW2 8630   0.648   2.287   0.816 -1.2976 -0.8601 -1.3969
 2781SOL     OW 8631   1.757   2.520   2.489  0.4013  0.0622 -1.0559
 2781SOL    HW1 8632   1.751   2.434   2.440  1.0598  0.3611 -1.6905
 2781SOL    HW2 8633   1.851   2.555   2.484  0.3318  0.4229 -0.1271
 2782SOL     OW 8634   5.521   5.604   2.098 -0.1519 -0.1532  0.2980
 2782SOL    HW1 8635   5.591   5.574   2.163 -1.5035 -0.9846  1.4277
 2782SOL    HW2 8636   5.512   5.537   2.024 -1.1588 -1.1502  1.2741
 2783SOL     OW 8637   4.281   3.048   0.971 -0.1363  0.0830 -0.2255
 2783SOL    HW1 8638   4.203   2.985   0.978 -1.4056  1.3762 -1.6787
 2783SOL    HW2 8639   4.261   3.117   0.900  1.4024  1.7929  0.9150
 2784SOL     OW 8640   0.420   0.631   0.182 -0.1834  0.1871 -0.2107
 2784SOL    HW1 8641   0.369   0.550   0.214 -3.4464  1.6519 -1.2525
 2784SOL    HW2 8642   0.393   0.652   0.088  0.9175  2.2367 -0.1109
 2785SOL     OW 8643   2.500   3.578   3.844  0.3930 -0.5630 -0.0946
 2785SOL    HW1 8644   2.543   3.609   3.760  0.4455  1.1272  0.5223
 2785SOL    HW2 8645   2.421   3.520   3.822  0.2462  0.0699 -1.3182
 2786SOL     OW 8646   3.672   5.064   2.520 -0.1295 -0.2141  0.0313
 2786SOL    HW1 8647   3.586   5.049   2.472 -0.8526 -0.0899  1.2497
 2786SOL    HW2 8648   3.688   5.163   2.529  0.1179 -0.2368 -0.1245
 2787SOL     OW 8649   3.355   3.680   4.503 -0.0878 -0.3085 -0.0247
 2787SOL    HW1 8650   3.346   3.617   4.426 -0.2320 -0.2471 -0.0589
 2787SOL    HW2 8651   3.427   3.747   4.484  1.6734 -1.8217  0.9465
 2788SOL     OW 8652   2.354   1.762   4.539  0.0344  0.2312  0.2567
 2788SOL    HW1 8653   2.406   1.690   4.586  1.7875  0.5737 -1.0253
 2788SOL    HW2 8654   2.259   1.759   4.567  0.1962 -2.1713  0.7442
 2789SOL     OW 8655   5.407   3.335   1.076 -0.8985  0.2237 -0.0276
 2789SOL    HW1 8656   5.357   3.301   0.997 -0.1316  0.3812 -0.5898
 2789SOL    HW2 8657   5.370   3.424   1.103 -0.5847  0.5879 -0.7702
 2790SOL     OW 8658   1.578   3.160   4.897 -0.0531 -0.1655 -0.6299
 2790SOL    HW1 8659   1.545   3.072   4.862  2.7846 -1.1952 -0.9233
 2790SOL    HW2 8660   1.639   3.202   4.830  2.1641 -0.1678  1.2594
 2791SOL     OW 8661   0.943   3.748   5.059  0.0724  0.1562  0.1791
 2791SOL    HW1 8662   0.870   3.784   5.001  0.7317  0.1603 -0.6543
 2791SOL    HW2 8663   0.910   3.665   5.105 -0.8786  0.8509  0.8023
 2792SOL     OW 8664   1.659   4.502   1.960  0.1702  0.2580 -0.2922
 2792SOL    HW1 8665   1.759   4.498   1.952  0.2295  1.4496 -0.3262
 2792SOL    HW2 8666   1.618   4.460   1.879  0.6721  1.3355 -1.1387
 2793SOL     OW 8667   5.117   4.048   3.395 -0.4243  0.5100  0.5072
 2793SOL    HW1 8668   5.126   3.948   3.394  3.0462  0.7015  1.2158
 2793SOL    HW2 8669   5.101   4.081   3.302  0.0953 -0.6082  0.0019
 2794SOL     OW 8670   1.839   5.444   1.635 -0.3826 -0.5214  0.2306
 2794SOL    HW1 8671   1.897   5.450   1.716 -1.3518 -1.0984  0.9813
 2794SOL    HW2 8672   1.823   5.348   1.612 -1.1905 -0.3761  0.1422
 2795SOL     OW 8673   0.552   4.933   3.710 -0.4786 -0.2304  0.1280
 2795SOL    HW1 8674   0.598   5.021   3.705 -1.3737  0.5216  3.1152
 2795SOL    HW2 8675   0.555   4.899   3.804 -1.1058 -2.8973 -0.7214
 2796SOL     OW 8676   0.998   0.837   2.349 -0.0214 -0.3392  0.0693
 2796SOL    HW1 8677   0.976   0.923   2.395 -0.9207 -0.1223 -0.7523
 2796SOL    HW2 8678   0.942   0.827   2.267  0.3881 -1.5052 -0.0879
 2797SOL     OW 8679   3.748   3.703   2.170 -0.4409  0.3745  0.1008
 2797SOL    HW1 8680   3.766   3.643   2.248 -1.5125  0.1692  0.1949
 2797SOL    HW2 8681   3.712   3.790   2.202  1.3122  1.1919 -0.0215
 2798SOL     OW 8682   5.319   4.033   0.487 -0.3541 -0.4460 -0.7443
 2798SOL    HW1 8683   5.284   3.940   0.486 -2.9515  0.4435 -0.3518
 2798SOL    HW2 8684   5.343   4.061   0.394 -0.8654 -1.0627 -1.0676
 2799SOL     OW 8685   2.145   3.394   1.349  0.5012 -0.0128  0.0182
 2799SOL    HW1 8686   2.232   3.347   1.358  1.4694  1.3916 -1.5094
 2799SOL    HW2 8687   2.154   3.471   1.286 -2.2476 -0.8034 -1.5370
 2800SOL     OW 8688   0.801   2.882   2.128  0.1419 -0.3966  0.1568
 2800SOL    HW1 8689   0.862   2.961   2.127  0.4194 -0.6119 -0.3401
 2800SOL    HW2 8690   0.706   2.913   2.137  0.4047 -0.1311  2.5066
 2801SOL     OW 8691   3.227   4.396   5.438  0.6071  0.1909  0.0347
 2801SOL    HW1 8692   3.134   4.416   5.409  0.3502  1.6362  1.6863
 2801SOL    HW2 8693   3.291   4.419   5.364 -0.3318 -1.2584 -1.2802
 2802SOL     OW 8694   2.728   4.442   5.236  0.1275  0.0801 -0.0497
 2802SOL    HW1 8695   2.733   4.426   5.138  0.6154 -1.1940  0.1643
 2802SOL    HW2 8696   2.634   4.430   5.268 -0.1544  1.1238 -0.4423
 2803SOL     OW 8697   0.178   1.717   0.527 -0.0555  0.3505 -0.4988
 2803SOL    HW1 8698   0.277   1.724   0.533  0.0507  0.1369 -1.6674
 2803SOL    HW2 8699   0.142   1.673   0.609  0.5850  2.3134  0.9117
 2804SOL     OW 8700   4.433   0.446   4.368 -0.5956  0.5636 -0.7697
 2804SOL    HW1 8701   4.494   0.479   4.441  1.3453 -2.0963 -1.0064
 2804SOL    HW2 8702   4.409   0.351   4.387 -2.8191  0.8378 -1.9514
 2805SOL     OW 8703   5.356   2.038   2.274  0.0945 -0.3983 -0.1111
 2805SOL    HW1 8704   5.312   2.074   2.356 -0.4487  1.8815 -1.3121
 2805SOL    HW2 8705   5.287   2.003   2.211  0.2272  0.4891 -0.7699
 2806SOL     OW 8706   5.546   2.266   3.578 -0.2083  0.1949  0.4494
 2806SOL    HW1 8707   5.619   2.215   3.532  1.1048  1.7881  0.6834
 2806SOL    HW2 8708   5.460   2.215   3.569  0.6882 -1.2125 -0.7668
 2807SOL     OW 8709   4.086   3.657   1.062  0.3428  0.1477 -0.8033
 2807SOL    HW1 8710   4.051   3.729   1.002  0.1198  0.0899 -0.7447
 2807SOL    HW2 8711   4.143   3.698   1.133  1.0892  0.1553 -1.3980
 2808SOL     OW 8712   5.291   1.423   3.137  0.1275 -0.2579  0.6872
 2808SOL    HW1 8713   5.371   1.363   3.142  0.0737 -0.2346  2.4982
 2808SOL    HW2 8714   5.313   1.510   3.182  0.0184  0.9096 -1.3843
 2809SOL     OW 8715   5.661   2.583   3.439 -0.1712  0.1248 -0.3924
 2809SOL    HW1 8716   5.707   2.546   3.520  0.4364 -1.0626 -1.2616
 2809SOL    HW2 8717   5.580   2.528   3.419 -0.0090  0.0728 -0.9114
 2810SOL     OW 8718   4.322   0.510   4.789 -0.0111  0.2637 -0.2315
 2810SOL    HW1 8719   4.253   0.438   4.796  1.2101 -0.8160  1.2497
 2810SOL    HW2 8720   4.284   0.587   4.736 -2.1925 -0.4368  0.1914
 2811SOL     OW 8721   0.455   3.965   4.492  0.1490 -0.5477  0.9211
 2811SOL    HW1 8722   0.448   3.874   4.531  0.5135 -1.5171 -1.1678
 2811SOL    HW2 8723   0.537   3.971   4.435 -1.6473 -0.1053 -1.8151
 2812SOL     OW 8724   0.141   0.802   3.413  0.1965 -0.0166 -0.1554
 2812SOL    HW1 8725   0.206   0.874   3.440  0.9457 -0.2821 -1.1939
 2812SOL    HW2 8726   0.103   0.760   3.495  0.5547  0.8474  0.4739
 2813SOL     OW 8727   1.091   2.330   0.492 -0.0477  0.0370 -0.3615
 2813SOL    HW1 8728   1.102   2.231   0.475  1.1328 -0.0400  0.7039
 2813SOL    HW2 8729   1.179   2.369   0.516 -0.4157  1.4749 -1.2337
 2814SOL     OW 8730   5.413   5.844   4.317  0.1689  0.5314 -0.4465
 2814SOL    HW1 8731   5.387   5.833   4.221 -1.9100 -0.4917  0.1669
 2814SOL    HW2 8732   5.391   5.938   4.347 -0.2199  0.5270 -0.7020
 2815SOL     OW 8733   3.526   1.804   2.673 -0.3114 -0.1773 -0.1725
 2815SOL    HW1 8734   3.523   1.895   2.633 -1.2353 -0.1239 -0.0198
 2815SOL    HW2 8735   3.616   1.763   2.660  0.1520  0.8152 -0.1146
 2816SOL     OW 8736   2.295   3.798   2.494 -0.3094 -0.1157 -0.5654
 2816SOL    HW1 8737   2.264   3.766   2.404 -0.4074 -0.8906 -0.2697
 2816SOL    HW2 8738   2.368   3.737   2.527 -2.0808 -1.5090  1.0414
 2817SOL     OW 8739   0.327   5.647   2.672  0.0311 -0.1226  0.7082
 2817SOL    HW1 8740   0.271   5.571   2.637  0.0663  0.3716 -0.4732
 2817SOL    HW2 8741   0.268   5.712   2.721 -0.4893  0.4816 -0.6760
 2818SOL     OW 8742   0.255   5.868   1.896 -0.5441  0.3149 -0.2951
 2818SOL    HW1 8743   0.318   5.803   1.854  0.4258  0.7611  0.4456
 2818SOL    HW2 8744   0.191   5.819   1.955  0.1277  0.0122  0.1944
 2819SOL     OW 8745   4.650   4.522   2.069 -0.3904 -0.3063  0.6015
 2819SOL    HW1 8746   4.742   4.550   2.098 -0.0084 -1.0820  0.1686
 2819SOL    HW2 8747   4.637   4.425   2.090 -0.3265 -0.7404 -1.2608
 2820SOL     OW 8748   5.508   4.389   4.260  0.2929  0.0709 -0.3121
 2820SOL    HW1 8749   5.437   4.356   4.199 -0.7352  2.0220 -0.2440
 2820SOL    HW2 8750   5.483   4.480   4.295  1.2762 -0.5625  2.2651
 2821SOL     OW 8751   1.111   4.289   4.989 -0.0698 -0.0155 -0.3874
 2821SOL    HW1 8752   1.111   4.191   5.010 -0.1888  0.2019  0.6952
 2821SOL    HW2 8753   1.179   4.334   5.046 -1.0927  0.7606  0.2406
 2822SOL     OW 8754   4.217   5.543   4.849 -0.1424  0.3194  0.1778
 2822SOL    HW1 8755   4.206   5.476   4.923 -1.1559  0.3564  0.0800
 2822SOL    HW2 8756   4.299   5.597   4.865 -1.3733  1.6932  2.4071
 2823SOL     OW 8757   2.920   5.068   0.134 -0.1695 -0.2220  0.5040
 2823SOL    HW1 8758   2.988   5.142   0.137 -0.7893  0.3647  0.2718
 2823SOL    HW2 8759   2.861   5.081   0.055  0.4830 -1.6659 -0.2564
 2824SOL     OW 8760   5.752   5.215   2.123  0.0028  0.2947 -0.6645
 2824SOL    HW1 8761   5.772   5.307   2.155  1.9980  0.1545 -1.3491
 2824SOL    HW2 8762   5.829   5.181   2.069  0.6418 -2.8189  1.8817
 2825SOL     OW 8763   2.549   2.744   1.093  0.1897  0.3542 -0.3071
 2825SOL    HW1 8764   2.581   2.662   1.140  0.0769  0.5269  0.0690
 2825SOL    HW2 8765   2.467   2.722   1.039 -0.6053  0.5017  0.8092
 2826SOL     OW 8766   3.553   5.519   1.908  0.4503 -0.4112  0.2738
 2826SOL    HW1 8767   3.509   5.463   1.837 -0.5155 -0.3563  0.8173
 2826SOL    HW2 8768   3.625   5.575   1.866  0.2944 -0.8159 -0.5607
 2827SOL     OW 8769   4.454   0.991   0.182 -0.7822  0.1599  0.2843
 2827SOL    HW1 8770   4.393   0.912   0.191 -0.1790 -0.2896  0.5237
 2827SOL    HW2 8771   4.470   1.010   0.086 -1.8760  0.7430  0.2012
 2828SOL     OW 8772   3.076   1.884   1.802 -0.1453 -0.4890  0.0495
 2828SOL    HW1 8773   3.132   1.936   1.867  1.2611 -1.0985 -0.6307
 2828SOL    HW2 8774   3.044   1.944   1.729 -0.4480 -0.1177  0.4839
 2829SOL     OW 8775   1.479   3.444   4.354  0.2173  0.8533 -0.6707
 2829SOL    HW1 8776   1.510   3.419   4.446  0.9667 -0.8805 -1.3552
 2829SOL    HW2 8777   1.463   3.361   4.300  0.6003  1.8401 -2.3866
 2830SOL     OW 8778   5.711   2.579   0.187  0.4936 -0.3729 -0.2008
 2830SOL    HW1 8779   5.809   2.598   0.193  0.4034  0.0321  0.0311
 2830SOL    HW2 8780   5.677   2.553   0.278 -0.3006  2.9086  0.5533
 2831SOL     OW 8781   2.164   2.144   5.562 -0.0109  0.0541  0.4510
 2831SOL    HW1 8782   2.103   2.065   5.551  0.2878 -0.4297  1.9335
 2831SOL    HW2 8783   2.116   2.228   5.539 -0.5525 -0.5079 -0.4860
 2832SOL     OW 8784   1.887   3.875   4.890  0.8115 -0.2106  0.1445
 2832SOL    HW1 8785   1.865   3.778   4.879 -2.8494  0.7082 -2.6469
 2832SOL    HW2 8786   1.959   3.900   4.826 -1.4531 -0.3392 -2.6590
 2833SOL     OW 8787   1.353   2.674   3.633 -0.2090  0.3849  0.0134
 2833SOL    HW1 8788   1.280   2.741   3.625 -0.7099 -0.1871 -0.2243
 2833SOL    HW2 8789   1.339   2.619   3.715 -0.2012  0.0777 -0.1933
 2834SOL     OW 8790   0.475   4.304   3.774 -0.0576  0.1284 -0.0405
 2834SOL    HW1 8791   0.491   4.262   3.863  2.5156  1.9773  0.4630
 2834SOL    HW2 8792   0.376   4.305   3.755 -0.6763 -0.2800  2.7790
 2835SOL     OW 8793   2.081   0.779   3.070  0.1582  1.2005 -0.4562
 2835SOL    HW1 8794   2.009   0.722   3.030  0.8131  0.7749 -1.0592
 2835SOL    HW2 8795   2.055   0.875   3.064 -0.8902  0.9911  0.4236
 2836SOL     OW 8796   4.359   5.318   4.143  0.0669 -0.2863 -0.0138
 2836SOL    HW1 8797   4.266   5.325   4.106 -0.0331 -1.3015 -0.0008
 2836SOL    HW2 8798   4.415   5.265   4.079 -0.1363 -2.1677  1.2934
 2837SOL     OW 8799   4.925   1.732   4.064  0.1671 -0.1068  0.6512
 2837SOL    HW1 8800   5.020   1.747   4.039  0.0086  0.0364  0.1089
 2837SOL    HW2 8801   4.866   1.779   3.998 -0.2782 -0.3886  0.8478
 2838SOL     OW 8802   1.280   3.368   1.706  0.2947  0.3898  0.1584
 2838SOL    HW1 8803   1.373   3.331   1.696  0.3371  0.2120  1.1211
 2838SOL    HW2 8804   1.218   3.321   1.642  0.5978 -0.4492  0.4703
 2839SOL     OW 8805   1.665   4.489   2.389  0.1590  0.3773 -0.1819
 2839SOL    HW1 8806   1.647   4.391   2.388  0.5087  0.3055 -1.4423
 2839SOL    HW2 8807   1.708   4.514   2.476  1.9200 -0.9364 -0.6229
 2840SOL     OW 8808   4.230   2.960   5.459 -0.0522  0.1080 -0.1196
 2840SOL    HW1 8809   4.229   3.015   5.542 -1.7014  0.9891 -0.6764
 2840SOL    HW2 8810   4.164   2.885   5.468 -0.0449  0.0512 -0.5247
 2841SOL     OW 8811   0.987   5.564   0.661  0.5100 -0.6632 -0.2597
 2841SOL    HW1 8812   0.910   5.500   0.658  0.7881 -0.9730 -1.1667
 2841SOL    HW2 8813   1.072   5.513   0.646  1.0206 -0.5029  1.8926
 2842SOL     OW 8814   5.583   5.840   4.028 -0.8516 -0.3714  0.4824
 2842SOL    HW1 8815   5.608   5.933   4.056  0.3315 -1.2043  2.3816
 2842SOL    HW2 8816   5.486   5.824   4.047 -1.7103  1.1783 -2.0647
 2843SOL     OW 8817   5.273   3.598   1.027 -0.0542  0.5497 -0.0202
 2843SOL    HW1 8818   5.178   3.625   1.044 -0.7749 -1.4065 -0.6944
 2843SOL    HW2 8819   5.303   3.634   0.939 -0.7589 -0.1598 -0.5729
 2844SOL     OW 8820   3.210   5.481   4.594  0.6355 -0.2310  0.0893
 2844SOL    HW1 8821   3.227   5.487   4.495  0.9563 -0.9785  0.0977
 2844SOL    HW2 8822   3.147   5.406   4.612  0.5143 -0.0435  0.4518
 2845SOL     OW 8823   4.808   5.883   3.615 -0.1931  0.5382 -0.0721
 2845SOL    HW1 8824   4.796   5.918   3.709 -0.2994  1.6880 -0.4912
 2845SOL    HW2 8825   4.744   5.809   3.598 -0.3324  0.4767  0.6929
 2846SOL     OW 8826   5.380   1.550   3.758 -0.5431  0.3129  0.0139
 2846SOL    HW1 8827   5.369   1.534   3.856 -1.6043  0.9309  0.0139
 2846SOL    HW2 8828   5.407   1.644   3.742  0.4756 -0.0166 -0.2543
 2847SOL     OW 8829   0.783   3.675   2.495 -0.0042  0.0008  0.5242
 2847SOL    HW1 8830   0.824   3.711   2.579 -0.8013 -0.4643  1.1406
 2847SOL    HW2 8831   0.785   3.575   2.498  1.5480 -0.0408 -0.8364
 2848SOL     OW 8832   4.411   0.859   4.563 -0.0314  0.7135 -0.2245
 2848SOL    HW1 8833   4.490   0.875   4.504  1.3512 -0.0138  1.3449
 2848SOL    HW2 8834   4.355   0.786   4.524  1.2952 -0.3116 -0.2768
 2849SOL     OW 8835   3.859   5.014   0.147 -0.4078  0.2311  0.3700
 2849SOL    HW1 8836   3.837   4.969   0.061  0.6896 -0.4152  0.3989
 2849SOL    HW2 8837   3.831   5.109   0.144 -1.2197 -0.0193 -0.3457
 2850SOL     OW 8838   1.634   4.206   2.447  0.0026 -0.3621  0.1893
 2850SOL    HW1 8839   1.717   4.163   2.483  0.0691  0.4677  1.0971
 2850SOL    HW2 8840   1.558   4.189   2.510 -0.4823 -0.9837 -0.5581
 2851SOL     OW 8841   0.822   4.979   4.935 -0.0545 -0.7237 -0.3998
 2851SOL    HW1 8842   0.808   4.881   4.921 -0.9465 -0.6195 -0.3309
 2851SOL    HW2 8843   0.852   4.995   5.029 -2.1422 -0.7794  0.3388
 2852SOL     OW 8844   2.529   3.017   1.161 -0.3825 -0.0365  0.1995
 2852SOL    HW1 8845   2.471   3.028   1.243 -0.5814  2.6075 -0.2297
 2852SOL    HW2 8846   2.520   2.923   1.127 -1.6210 -0.7107  2.2122
 2853SOL     OW 8847   1.508   3.703   4.933 -0.3223  0.4484  0.1246
 2853SOL    HW1 8848   1.439   3.775   4.934 -0.0818  0.6688  0.7792
 2853SOL    HW2 8849   1.523   3.670   5.026 -0.3801 -0.4007 -0.1616
 2854SOL     OW 8850   1.928   5.290   4.035 -0.0877  0.1138 -0.0352
 2854SOL    HW1 8851   1.923   5.231   4.116  1.9912  1.1318  0.9188
 2854SOL    HW2 8852   1.873   5.250   3.961 -1.2302 -1.3747  1.5277
 2855SOL     OW 8853   5.922   0.675   0.858  0.0483 -0.0611 -0.4387
 2855SOL    HW1 8854   6.002   0.659   0.917 -0.5499 -0.1509  0.3747
 2855SOL    HW2 8855   5.901   0.592   0.806 -1.2823 -1.0859  1.5811
 2856SOL     OW 8856   4.417   5.328   1.540  0.1376  0.2401  0.1234
 2856SOL    HW1 8857   4.422   5.343   1.441 -1.0504 -0.0299  0.0012
 2856SOL    HW2 8858   4.499   5.364   1.583  1.3560 -0.9403 -1.1146
 2857SOL     OW 8859   1.399   0.195   2.768 -0.1643 -0.2144 -0.6223
 2857SOL    HW1 8860   1.480   0.254   2.765 -0.3884  0.0895 -0.7016
 2857SOL    HW2 8861   1.389   0.148   2.680  0.8141 -1.4623 -0.1120
 2858SOL     OW 8862   2.872   3.613   5.036 -0.2703  0.5738  0.3027
 2858SOL    HW1 8863   2.896   3.709   5.044  0.8925  0.2793  0.6019
 2858SOL    HW2 8864   2.852   3.576   5.127  0.3462  0.2863  0.3277
 2859SOL     OW 8865   4.365   2.556   4.773  0.3866  0.5838  0.0104
 2859SOL    HW1 8866   4.339   2.489   4.703 -0.1345  0.7545  0.0368
 2859SOL    HW2 8867   4.438   2.518   4.830  0.4618  0.2457 -0.3105
 2860SOL     OW 8868   2.718   4.541   3.298  0.0825 -0.8401  0.2795
 2860SOL    HW1 8869   2.667   4.486   3.231 -0.5241 -1.1894  1.0073
 2860SOL    HW2 8870   2.678   4.527   3.389 -0.3920  1.1623  0.4340
 2861SOL     OW 8871   4.508   1.062   2.720 -0.7279  0.0846 -0.4356
 2861SOL    HW1 8872   4.581   1.031   2.781  0.3282  1.9258 -0.7005
 2861SOL    HW2 8873   4.426   1.006   2.736  0.0417 -0.6019  1.4343
 2862SOL     OW 8874   3.272   0.853   3.216  0.1880  0.3100  0.5609
 2862SOL    HW1 8875   3.279   0.904   3.301  1.6198 -1.2729  1.4710
 2862SOL    HW2 8876   3.356   0.800   3.201  0.0662  0.6798 -1.9561
 2863SOL     OW 8877   5.250   1.773   3.494 -0.3909 -0.1884 -0.1111
 2863SOL    HW1 8878   5.259   1.797   3.591 -0.6499  0.4385 -0.2350
 2863SOL    HW2 8879   5.182   1.832   3.452 -1.7558 -1.7791 -0.2335
 2864SOL     OW 8880   1.899   0.662   1.000 -0.9558  0.1093  0.1401
 2864SOL    HW1 8881   1.919   0.645   0.903  0.2618  3.4332 -0.3333
 2864SOL    HW2 8882   1.981   0.698   1.044 -2.4657  2.1936  1.4220
 2865SOL     OW 8883   5.123   4.264   2.452 -0.0562 -0.7969 -0.3552
 2865SOL    HW1 8884   5.162   4.228   2.537 -0.2900 -1.6656 -0.6037
 2865SOL    HW2 8885   5.197   4.284   2.387  0.0564 -1.2895 -0.3836
 2866SOL     OW 8886   0.830   2.978   1.244 -0.1553 -0.2558  0.1884
 2866SOL    HW1 8887   0.898   2.910   1.271 -0.2841 -0.2627  0.5057
 2866SOL    HW2 8888   0.796   2.957   1.152 -0.3105 -0.7166  0.3457
 2867SOL     OW 8889   3.413   4.611   3.934  0.6808 -0.3339 -0.7370
 2867SOL    HW1 8890   3.319   4.646   3.935  0.5132 -0.7788  0.0249
 2867SOL    HW2 8891   3.414   4.519   3.972  1.4436 -0.2758 -0.6106
 2868SOL     OW 8892   3.127   1.995   1.516 -0.0466 -0.0004  0.2050
 2868SOL    HW1 8893   3.135   2.079   1.570 -0.8994 -0.6309  1.3667
 2868SOL    HW2 8894   3.213   1.945   1.520  0.3042  0.5751 -0.0751
 2869SOL     OW 8895   3.753   1.686   2.935 -0.7798  0.2251  0.2232
 2869SOL    HW1 8896   3.797   1.708   2.847  1.9161  1.0249  1.6529
 2869SOL    HW2 8897   3.769   1.590   2.956 -1.0107  0.1525  0.0728
 2870SOL     OW 8898   2.724   3.331   2.433  0.1955  0.6266  0.0018
 2870SOL    HW1 8899   2.643   3.335   2.491  1.2068 -0.6039  1.5927
 2870SOL    HW2 8900   2.697   3.305   2.340 -1.3629  1.6985  0.1104
 2871SOL     OW 8901   0.144   1.501   4.451  0.2458  0.6225  1.0475
 2871SOL    HW1 8902   0.090   1.441   4.510 -0.4187 -2.0396 -1.9523
 2871SOL    HW2 8903   0.086   1.533   4.376  2.2343 -0.6967 -1.1747
 2872SOL     OW 8904   0.143   0.081   1.580 -0.4295 -0.4486  0.0431
 2872SOL    HW1 8905   0.188   0.107   1.666  0.0840 -0.2690 -0.2792
 2872SOL    HW2 8906   0.129   0.162   1.524 -1.2682 -0.4852  0.1861
 2873SOL     OW 8907   0.223   3.936   1.583  0.0283 -0.3405 -0.3985
 2873SOL    HW1 8908   0.238   3.996   1.505  3.0333 -1.1467 -0.5583
 2873SOL    HW2 8909   0.143   3.967   1.634 -0.1561  2.0954 -2.0182
 2874SOL     OW 8910   3.923   3.635   4.729 -0.4826 -0.7382 -0.2287
 2874SOL    HW1 8911   3.998   3.685   4.686 -1.0489  0.0988 -0.2852
 2874SOL    HW2 8912   3.919   3.656   4.827 -0.5652 -0.8760 -0.2010
 2875SOL     OW 8913   3.906   5.616   2.004  0.4745  0.6191 -0.9717
 2875SOL    HW1 8914   3.905   5.646   2.099 -3.1323  0.5983 -0.8764
 2875SOL    HW2 8915   3.868   5.523   1.998  0.1207  0.8439 -2.4851
 2876SOL     OW 8916   4.101   0.142   1.499 -0.0641  0.0784  0.1723
 2876SOL    HW1 8917   4.153   0.077   1.444 -0.4729 -1.4423  1.4967
 2876SOL    HW2 8918   4.049   0.092   1.569 -1.9024  1.6878  0.0288
 2877SOL     OW 8919   2.596   2.172   2.938  0.0606 -0.4427 -0.2177
 2877SOL    HW1 8920   2.690   2.169   2.903 -0.2558  0.1076 -1.1409
 2877SOL    HW2 8921   2.592   2.233   3.017  0.1603  0.9300 -1.2379
 2878SOL     OW 8922   5.336   1.064   0.785 -0.1510 -0.2630  0.5847
 2878SOL    HW1 8923   5.426   1.091   0.751 -1.7253  0.6600 -3.4130
 2878SOL    HW2 8924   5.344   1.032   0.879  3.9993  1.5414  1.0534
 2879SOL     OW 8925   2.921   1.015   1.854  1.0854 -0.5819  0.0645
 2879SOL    HW1 8926   2.951   1.063   1.771  0.0853  3.3707  1.7199
 2879SOL    HW2 8927   2.994   1.016   1.922  0.7776 -0.6539  0.4016
 2880SOL     OW 8928   1.966   5.929   2.966  0.0301 -0.1839 -0.0425
 2880SOL    HW1 8929   1.872   5.911   2.993 -0.4138 -2.0589 -2.4771
 2880SOL    HW2 8930   2.019   5.845   2.972  0.8047  0.1748 -1.2923
 2881SOL     OW 8931   0.586   5.050   4.293 -0.8406  0.5141 -0.1884
 2881SOL    HW1 8932   0.498   5.075   4.335 -1.0389 -0.5850  0.1039
 2881SOL    HW2 8933   0.597   4.950   4.299  1.0898  0.7520  1.1168
 2882SOL     OW 8934   2.895   3.757   2.464 -0.3191 -0.0775 -0.7602
 2882SOL    HW1 8935   2.953   3.836   2.481 -0.7227  0.8123 -3.1122
 2882SOL    HW2 8936   2.826   3.780   2.395 -1.4833 -2.0178 -0.3291
 2883SOL     OW 8937   5.791   0.668   5.130 -0.2525  0.5160  0.0784
 2883SOL    HW1 8938   5.749   0.708   5.049 -0.9864  0.3979  0.3831
 2883SOL    HW2 8939   5.844   0.588   5.104  0.5441  1.1973 -0.4306
 2884SOL     OW 8940   1.541   1.839   4.935 -0.0972 -0.0389  0.2262
 2884SOL    HW1 8941   1.640   1.829   4.924  0.0999 -0.5665  2.0357
 2884SOL    HW2 8942   1.496   1.753   4.915 -0.1283  0.0475 -0.0716
 2885SOL     OW 8943   5.440   2.871   5.949  0.1665  0.4347 -0.1182
 2885SOL    HW1 8944   5.504   2.795   5.936  0.9229  1.2096 -1.0493
 2885SOL    HW2 8945   5.380   2.878   5.869  0.9056  1.5426 -0.6030
 2886SOL     OW 8946   2.638   3.618   4.089 -0.4816 -0.1516 -0.0609
 2886SOL    HW1 8947   2.573   3.585   4.020 -1.8657  0.8924  0.6939
 2886SOL    HW2 8948   2.590   3.632   4.176  0.8647  0.2382  0.6414
 2887SOL     OW 8949   0.150   0.014   5.689 -0.4557 -0.3595  0.2864
 2887SOL    HW1 8950   0.135   0.104   5.649  3.9211  1.1707  1.6138
 2887SOL    HW2 8951   0.159   0.022   5.788  0.8991 -2.0682  0.3486
 2888SOL     OW 8952   0.415   2.116   1.764 -0.4440  0.1792  0.3662
 2888SOL    HW1 8953   0.491   2.144   1.706 -1.3115 -1.5121 -1.7362
 2888SOL    HW2 8954   0.334   2.171   1.741 -0.7891 -0.4973 -0.0887
 2889SOL     OW 8955   3.738   1.441   0.491 -0.6308  0.3146 -0.0463
 2889SOL    HW1 8956   3.727   1.531   0.534  1.1104  1.1017 -1.1451
 2889SOL    HW2 8957   3.658   1.384   0.511 -2.4413  2.5710 -0.4372
 2890SOL     OW 8958   3.533   1.123   4.472  0.0296  0.2268 -0.4903
 2890SOL    HW1 8959   3.602   1.051   4.476  1.3811  1.5039 -0.0437
 2890SOL    HW2 8960   3.541   1.172   4.385 -1.8767 -1.0636 -1.4594
 2891SOL     OW 8961   3.757   5.435   0.462 -0.5721 -0.0299  0.0129
 2891SOL    HW1 8962   3.856   5.424   0.475 -0.4480 -0.0807 -0.8978
 2891SOL    HW2 8963   3.740   5.495   0.383 -1.2709 -0.1827  0.0393
 2892SOL     OW 8964   4.723   1.510   4.384 -0.0845 -0.5960  0.0491
 2892SOL    HW1 8965   4.691   1.580   4.321 -2.3810 -1.6099 -0.0032
 2892SOL    HW2 8966   4.778   1.553   4.456 -0.3158  1.0542 -0.7119
 2893SOL     OW 8967   3.334   3.272   1.689  0.2389  0.4003 -0.1191
 2893SOL    HW1 8968   3.374   3.343   1.631  0.0109  0.3808 -0.3032
 2893SOL    HW2 8969   3.387   3.263   1.773  0.4314  0.5953 -0.2200
 2894SOL     OW 8970   0.033   1.125   4.880 -0.5727  0.0555 -0.2090
 2894SOL    HW1 8971   0.028   1.143   4.781 -1.4978  2.2096  0.1657
 2894SOL    HW2 8972  -0.040   1.061   4.905 -0.6174 -0.1565 -0.8434
 2895SOL     OW 8973   5.104   0.343   3.776 -0.6936  0.5832  0.1579
 2895SOL    HW1 8974   5.164   0.264   3.762  0.2639  1.1548  0.9292
 2895SOL    HW2 8975   5.008   0.314   3.767 -0.4243 -0.9513  1.6134
 2896SOL     OW 8976   4.697   4.160   0.787  0.0166  0.4601  0.1987
 2896SOL    HW1 8977   4.604   4.145   0.821  0.3704 -1.3436  0.5030
 2896SOL    HW2 8978   4.711   4.105   0.704  0.9368  0.3964  0.3859
 2897SOL     OW 8979   3.244   5.903   1.176  0.4712  0.1880  0.4304
 2897SOL    HW1 8980   3.190   5.981   1.143  1.8847  1.7830  1.6779
 2897SOL    HW2 8981   3.196   5.861   1.253 -0.4071 -0.3534 -0.3846
 2898SOL     OW 8982   3.023   0.201   4.586  0.3487 -0.1199 -0.2289
 2898SOL    HW1 8983   3.092   0.154   4.530  0.3880  1.0710 -1.2232
 2898SOL    HW2 8984   3.053   0.201   4.681  1.3714 -0.2552 -0.5355
 2899SOL     OW 8985   0.756   3.132   3.146  0.4743 -0.1117 -0.3196
 2899SOL    HW1 8986   0.731   3.196   3.219  1.5894  0.0709 -0.0854
 2899SOL    HW2 8987   0.783   3.044   3.187 -2.6947 -1.3856 -0.6913
 2900SOL     OW 8988   0.548   2.198   5.716 -0.1576 -0.0993  0.0996
 2900SOL    HW1 8989   0.595   2.178   5.801 -0.6972 -0.7557  0.2511
 2900SOL    HW2 8990   0.612   2.191   5.639  0.3847  0.7259  0.4574
 2901SOL     OW 8991   4.716   4.214   2.178  0.2043  0.4884 -0.1873
 2901SOL    HW1 8992   4.813   4.222   2.202  0.3832 -0.8546 -0.4362
 2901SOL    HW2 8993   4.669   4.161   2.249  0.0381 -0.4779 -1.0067
 2902SOL     OW 8994   1.063   0.697   2.743 -0.1456  0.0548  0.6087
 2902SOL    HW1 8995   1.058   0.727   2.838  0.7962  0.3213  0.5821
 2902SOL    HW2 8996   1.112   0.765   2.689  1.5782 -1.2527  0.4511
 2903SOL     OW 8997   3.773   0.611   2.862 -0.3099 -0.4409 -0.7194
 2903SOL    HW1 8998   3.753   0.634   2.958 -3.0432 -0.0019 -1.3086
 2903SOL    HW2 8999   3.835   0.680   2.823 -0.1197  0.0377  0.3853
 2904SOL     OW 9000   3.138   1.142   1.063  0.1165  0.1975  0.1128
 2904SOL    HW1 9001   3.111   1.226   1.110  0.2548 -0.4317  1.3477
 2904SOL    HW2 9002   3.237   1.130   1.069  0.0535 -0.2537  0.2879
 2905SOL     OW 9003   2.740   4.374   4.198  0.0804  0.4062 -0.3879
 2905SOL    HW1 9004   2.689   4.369   4.284  1.1153  0.2894  0.2248
 2905SOL    HW2 9005   2.795   4.457   4.196 -0.2404  0.6151 -1.1249
 2906SOL     OW 9006   2.248   4.732   1.337  0.2333 -0.2326  0.0949
 2906SOL    HW1 9007   2.154   4.764   1.344  1.0727  2.9459 -0.8834
 2906SOL    HW2 9008   2.267   4.707   1.242  0.6090  0.0525  0.0927
 2907SOL     OW 9009   3.542   0.950   3.062  0.2035  0.0388  0.1608
 2907SOL    HW1 9010   3.598   0.961   3.144 -0.3830 -0.7198  0.6785
 2907SOL    HW2 9011   3.467   1.017   3.063 -0.2992 -0.5189  0.6809
 2908SOL     OW 9012   1.477   3.683   4.228 -0.2994 -0.4763  0.5516
 2908SOL    HW1 9013   1.495   3.593   4.268 -1.5335  0.3425  3.1709
 2908SOL    HW2 9014   1.391   3.719   4.263  0.2407  1.8044 -0.2733
 2909SOL     OW 9015   3.623   3.796   4.142  0.1174  0.1812 -0.6583
 2909SOL    HW1 9016   3.711   3.842   4.135  0.6518 -0.6182  0.4972
 2909SOL    HW2 9017   3.636   3.697   4.137 -0.7020  0.0499 -0.4271
 2910SOL     OW 9018   3.548   4.721   5.826 -0.4962 -0.6269  0.1921
 2910SOL    HW1 9019   3.598   4.799   5.862 -0.5485 -0.4680 -0.0753
 2910SOL    HW2 9020   3.457   4.717   5.868 -0.4341 -0.6424  0.3275
 2911SOL     OW 9021   2.671   0.158   1.140 -0.4828 -0.0810  0.4500
 2911SOL    HW1 9022   2.613   0.211   1.201 -1.1661  0.9240 -1.0083
 2911SOL    HW2 9023   2.622   0.141   1.054  0.3053 -1.7745  0.3075
 2912SOL     OW 9024   5.304   1.345   0.799 -0.5529  0.7431  0.2172
 2912SOL    HW1 9025   5.319   1.246   0.805  0.5132  0.9470  1.2550
 2912SOL    HW2 9026   5.341   1.390   0.881  1.8642  2.3485 -1.6344
 2913SOL     OW 9027   4.316   4.206   0.707  0.2072  0.3698 -0.4492
 2913SOL    HW1 9028   4.386   4.186   0.638  1.4040  1.3001  0.4385
 2913SOL    HW2 9029   4.303   4.305   0.712  1.3761  0.4662  1.7674
 2914SOL     OW 9030   2.973   5.870   4.938 -0.5907 -0.0858 -0.1163
 2914SOL    HW1 9031   2.982   5.952   4.882 -2.4755  0.8565  0.8512
 2914SOL    HW2 9032   2.989   5.788   4.882 -1.0975  0.8606 -1.6799
 2915SOL     OW 9033   4.261   3.226   2.730 -0.4090  0.2125  0.1710
 2915SOL    HW1 9034   4.180   3.185   2.772 -0.0488 -0.0713  0.5971
 2915SOL    HW2 9035   4.337   3.224   2.795  0.2585 -0.5430 -0.6051
 2916SOL     OW 9036   3.294   1.288   3.453  0.4905  0.9975  0.5408
 2916SOL    HW1 9037   3.248   1.287   3.542 -1.7740  1.5327 -0.5389
 2916SOL    HW2 9038   3.305   1.382   3.421 -1.4514  0.7680 -0.9990
 2917SOL     OW 9039   1.176   4.960   2.565 -0.1608 -0.4421 -0.1333
 2917SOL    HW1 9040   1.220   4.893   2.505 -0.4747 -0.0244 -0.8502
 2917SOL    HW2 9041   1.084   4.979   2.532 -0.4068 -0.3306  0.5931
 2918SOL     OW 9042   5.878   3.340   3.972 -0.0788  0.0355  0.1672
 2918SOL    HW1 9043   5.884   3.426   3.921 -1.4656  0.1890  0.2207
 2918SOL    HW2 9044   5.851   3.266   3.910 -0.7276  0.0160  0.4677
 2919SOL     OW 9045   2.923   4.716   3.285 -0.0659  0.3297 -0.1698
 2919SOL    HW1 9046   2.930   4.758   3.375  0.3500 -0.6951  0.3023
 2919SOL    HW2 9047   2.858   4.640   3.289  1.6682 -1.2333 -0.0848
 2920SOL     OW 9048   3.311   4.845   3.553 -0.3637 -0.3188 -0.0548
 2920SOL    HW1 9049   3.222   4.809   3.583 -0.0447 -0.0454  1.3185
 2920SOL    HW2 9050   3.297   4.920   3.489 -1.2187  0.8648  1.4355
 2921SOL     OW 9051   3.271   5.095   2.096  0.4029 -0.4021 -0.6714
 2921SOL    HW1 9052   3.211   5.023   2.063  1.4071 -1.4674 -0.2747
 2921SOL    HW2 9053   3.267   5.174   2.035 -1.8218 -0.1836 -0.3279
 2922SOL     OW 9054   0.533   3.838   0.333 -0.3980 -0.3601 -0.5864
 2922SOL    HW1 9055   0.495   3.871   0.419  0.9217  0.5054 -0.2977
 2922SOL    HW2 9056   0.525   3.738   0.329  2.5488 -0.8679  2.1715
 2923SOL     OW 9057   2.726   4.276   3.672  0.0487  0.0345  0.4920
 2923SOL    HW1 9058   2.700   4.301   3.765  0.0366  0.7435  0.3018
 2923SOL    HW2 9059   2.685   4.340   3.607  2.3143  1.2638  0.1849
 2924SOL     OW 9060   2.462   0.514   4.201 -0.1841 -0.2794 -0.0015
 2924SOL    HW1 9061   2.408   0.572   4.141  0.6971 -0.3781 -0.9176
 2924SOL    HW2 9062   2.490   0.566   4.282  1.4543  0.9612 -1.2751
 2925SOL     OW 9063   1.053   2.324   5.539  0.4016  0.0485 -0.5833
 2925SOL    HW1 9064   1.089   2.276   5.619 -0.3889  0.9045  0.3145
 2925SOL    HW2 9065   1.005   2.407   5.568  0.2099  0.4540 -1.9607
 2926SOL     OW 9066   0.855   0.803   3.528  0.2275  0.5875 -0.1530
 2926SOL    HW1 9067   0.908   0.792   3.443 -1.1169  1.9433 -1.2259
 2926SOL    HW2 9068   0.797   0.723   3.541  0.5617  0.2973 -0.4109
 2927SOL     OW 9069   2.612   0.749   3.108  0.7585  0.2510  0.1440
 2927SOL    HW1 9070   2.612   0.841   3.147  0.2366 -0.1769  1.1838
 2927SOL    HW2 9071   2.522   0.730   3.068  0.6057 -0.1031  0.6540
 2928SOL     OW 9072   5.828   1.401   3.814 -0.5200  0.1168  0.1509
 2928SOL    HW1 9073   5.744   1.348   3.802 -1.3758  1.1830  1.2477
 2928SOL    HW2 9074   5.825   1.449   3.901 -0.5385  3.3207 -1.4747
 2929SOL     OW 9075   1.832   5.222   2.922 -0.0531 -0.1426 -0.8694
 2929SOL    HW1 9076   1.812   5.281   2.844  1.1238  0.7813 -0.4845
 2929SOL    HW2 9077   1.924   5.240   2.956 -1.3069  1.2170  2.2335
 2930SOL     OW 9078   0.244   4.313   5.100  0.1178 -1.1228 -0.2278
 2930SOL    HW1 9079   0.216   4.317   5.004  0.4167  0.6696 -0.2728
 2930SOL    HW2 9080   0.162   4.311   5.158 -0.2162  1.7455 -0.4414
 2931SOL     OW 9081   2.605   1.159   5.079 -0.2995 -0.4780  0.0746
 2931SOL    HW1 9082   2.573   1.199   5.165 -1.9158 -0.3115 -0.5549
 2931SOL    HW2 9083   2.687   1.206   5.048 -1.5901  1.7799 -0.1534
 2932SOL     OW 9084   3.877   1.186   1.130 -0.1340 -0.5908 -0.3334
 2932SOL    HW1 9085   3.949   1.216   1.067  1.2916  1.7314  2.2027
 2932SOL    HW2 9086   3.812   1.260   1.143 -0.2862 -0.9544  1.0637
 2933SOL     OW 9087   2.083   0.671   1.719 -0.0414 -0.1974 -0.2578
 2933SOL    HW1 9088   2.146   0.743   1.748 -0.6420 -0.4745  1.8854
 2933SOL    HW2 9089   2.135   0.588   1.699  0.4032 -0.0064  0.0702
 2934SOL     OW 9090   0.580   3.363   1.265 -0.1895  0.2019 -0.2175
 2934SOL    HW1 9091   0.582   3.370   1.165 -0.7965 -0.7906 -0.3201
 2934SOL    HW2 9092   0.506   3.419   1.300 -0.8608 -0.5092 -0.4583
 2935SOL     OW 9093   0.747   2.822   4.778  0.5714 -0.5262 -0.1773
 2935SOL    HW1 9094   0.823   2.775   4.823  2.0289  1.2935 -0.6197
 2935SOL    HW2 9095   0.664   2.811   4.833  1.6685 -0.6503  1.5267
 2936SOL     OW 9096   1.986   2.382   3.195  0.3539  0.1229  0.0765
 2936SOL    HW1 9097   2.043   2.403   3.274 -0.4201  1.4293  0.3267
 2936SOL    HW2 9098   1.924   2.459   3.178  0.2544 -0.2920 -1.5754
 2937SOL     OW 9099   0.411   5.253   4.091  0.0922  0.0108  0.4470
 2937SOL    HW1 9100   0.427   5.351   4.107 -0.4641  0.0311  0.9135
 2937SOL    HW2 9101   0.363   5.241   4.004 -0.6533  0.2269  0.8218
 2938SOL     OW 9102   3.589   5.617   0.075  0.1825 -0.3764  0.3075
 2938SOL    HW1 9103   3.498   5.575   0.065  0.6107 -1.0353 -0.9469
 2938SOL    HW2 9104   3.608   5.631   0.173 -1.4542  0.2179  0.5730
 2939SOL     OW 9105   3.095   4.679   1.718  0.4557  0.5426 -0.0945
 2939SOL    HW1 9106   3.165   4.684   1.789  0.9915 -2.3388 -0.2889
 2939SOL    HW2 9107   3.026   4.611   1.744  0.0331  0.2776 -1.7732
 2940SOL     OW 9108   4.507   1.614   3.715  0.2490 -0.0710 -0.2969
 2940SOL    HW1 9109   4.433   1.638   3.652 -0.6576  0.3848  0.8976
 2940SOL    HW2 9110   4.594   1.650   3.681 -0.4699  1.5305 -0.5028
 2941SOL     OW 9111   1.657   3.308   0.349  0.0334 -0.0620 -0.0171
 2941SOL    HW1 9112   1.723   3.244   0.388  0.7400  0.1018 -0.8948
 2941SOL    HW2 9113   1.566   3.268   0.351 -0.0342  0.0962  2.1051
 2942SOL     OW 9114   5.749   4.551   5.909  0.8777  0.1789  0.0366
 2942SOL    HW1 9115   5.846   4.528   5.900  0.6607 -0.4110 -0.9235
 2942SOL    HW2 9116   5.736   4.649   5.895  1.2638  0.1638 -0.4338
 2943SOL     OW 9117   1.675   5.569   5.590 -0.2241 -0.3949 -0.4388
 2943SOL    HW1 9118   1.700   5.645   5.531 -1.1967  0.5074  0.2579
 2943SOL    HW2 9119   1.691   5.483   5.543 -0.9590  0.2981 -2.0137
 2944SOL     OW 9120   4.383   4.095   5.763 -0.1150  0.0265  0.6851
 2944SOL    HW1 9121   4.319   4.165   5.793 -0.5136  0.3602 -0.8451
 2944SOL    HW2 9122   4.348   4.005   5.786 -1.1847  0.2045 -0.1796
 2945SOL     OW 9123   2.684   4.891   3.803 -0.5995 -0.1908  0.2531
 2945SOL    HW1 9124   2.653   4.806   3.846 -1.7881  0.1728  0.1400
 2945SOL    HW2 9125   2.637   4.905   3.717  1.0680 -0.4139 -0.7363
 2946SOL     OW 9126   1.438   4.717   4.882  0.0544  0.0754  0.2878
 2946SOL    HW1 9127   1.457   4.733   4.785 -0.5085 -0.3356  0.1048
 2946SOL    HW2 9128   1.380   4.790   4.917 -1.2242 -0.6987 -0.1506
 2947SOL     OW 9129   0.059   3.882   4.724  0.0502  0.3508 -0.2633
 2947SOL    HW1 9130  -0.003   3.803   4.719  0.2735  0.2000 -0.6193
 2947SOL    HW2 9131   0.150   3.855   4.692 -0.2095  1.1091 -1.7059
 2948SOL     OW 9132   4.105   0.935   0.661 -0.3844 -0.0238 -0.3106
 2948SOL    HW1 9133   4.195   0.891   0.663 -1.3843 -2.2346 -0.3493
 2948SOL    HW2 9134   4.061   0.925   0.750 -1.0528 -0.0263 -0.6374
 2949SOL     OW 9135   3.089   3.182   0.412  0.2453 -0.3861  0.2136
 2949SOL    HW1 9136   3.052   3.181   0.319  1.9076  1.6790 -0.5411
 2949SOL    HW2 9137   3.014   3.179   0.478 -1.0803  0.2194 -1.2126
 2950SOL     OW 9138   1.615   1.771   4.428 -0.0245  0.0544  0.1387
 2950SOL    HW1 9139   1.583   1.815   4.344  1.2362 -0.0795 -0.4414
 2950SOL    HW2 9140   1.586   1.676   4.429  1.4293 -0.4465 -1.0429
 2951SOL     OW 9141   4.229   1.805   0.112  0.2782 -0.3208 -0.3288
 2951SOL    HW1 9142   4.293   1.759   0.173 -0.6475 -0.3267  0.6724
 2951SOL    HW2 9143   4.279   1.848   0.037  1.7122  1.4159  1.4998
 2952SOL     OW 9144   3.970   4.942   5.483 -0.2925 -0.2677  1.2338
 2952SOL    HW1 9145   4.041   4.884   5.445 -0.6171  0.5677 -0.7723
 2952SOL    HW2 9146   4.011   5.028   5.516 -0.3918  0.3945 -0.3164
 2953SOL     OW 9147   4.236   1.380   0.389  0.7567  0.4158 -0.6354
 2953SOL    HW1 9148   4.330   1.367   0.421  0.2469 -0.7282  0.4638
 2953SOL    HW2 9149   4.193   1.454   0.440  1.2254  1.3634 -1.5662
 2954SOL     OW 9150   1.252   4.065   3.620 -0.5727  0.1287  0.3319
 2954SOL    HW1 9151   1.318   4.012   3.566 -0.4290 -0.1114  0.7382
 2954SOL    HW2 9152   1.197   4.122   3.559  1.1550  1.6321  0.1123
 2955SOL     OW 9153   4.911   0.068   0.621  0.3068 -0.3471  0.2286
 2955SOL    HW1 9154   4.971   0.020   0.685  0.9736  3.0567  2.3859
 2955SOL    HW2 9155   4.820   0.026   0.622  0.8619 -1.5930  1.8814
 2956SOL     OW 9156   2.707   2.085   1.087  0.2483 -0.2315 -0.0659
 2956SOL    HW1 9157   2.747   1.994   1.093  1.4397  0.3647  2.7622
 2956SOL    HW2 9158   2.674   2.113   1.178 -1.9409  1.3952 -1.2664
 2957SOL     OW 9159   5.439   4.652   0.268  0.0364  0.6523  0.5627
 2957SOL    HW1 9160   5.436   4.719   0.342  1.1816  1.2026  0.1256
 2957SOL    HW2 9161   5.533   4.638   0.240 -0.2798 -0.5004  0.0535
 2958SOL     OW 9162   0.799   1.931   5.180  1.0018  0.0737  0.2203
 2958SOL    HW1 9163   0.812   1.870   5.259  1.0095  1.3693  1.2458
 2958SOL    HW2 9164   0.744   2.010   5.208  1.2503  0.6952 -1.0073
 2959SOL     OW 9165   2.265   1.268   0.452 -0.7179 -0.0683  0.2679
 2959SOL    HW1 9166   2.215   1.344   0.494  0.0381  0.6719 -0.1518
 2959SOL    HW2 9167   2.222   1.182   0.478 -2.0037  0.5273  0.2117
 2960SOL     OW 9168   0.650   4.165   5.142 -0.0120  0.0250 -0.2382
 2960SOL    HW1 9169   0.578   4.181   5.209 -1.6244 -0.8344 -1.6683
 2960SOL    HW2 9170   0.658   4.244   5.081 -0.4422 -0.2564 -0.6694
 2961SOL     OW 9171   2.906   1.839   1.118 -0.5116  0.2461 -0.1527
 2961SOL    HW1 9172   2.883   1.892   1.200  0.3543  0.5050 -0.0645
 2961SOL    HW2 9173   2.995   1.795   1.131  0.0163  0.9397 -1.2446
 2962SOL     OW 9174   1.895   4.539   5.153  0.3036 -0.5966 -0.1539
 2962SOL    HW1 9175   1.864   4.487   5.233  0.6119  0.2997  0.5581
 2962SOL    HW2 9176   1.929   4.628   5.182  1.6210 -0.7447 -1.1358
 2963SOL     OW 9177   0.153   0.988   2.614 -0.2170 -0.0759 -0.3472
 2963SOL    HW1 9178   0.201   0.906   2.643 -0.4734 -0.5481 -1.2201
 2963SOL    HW2 9179   0.094   0.967   2.536 -0.2199  0.9548 -0.6446
 2964SOL     OW 9180   4.490   3.609   3.838  0.2926  0.5511 -0.2318
 2964SOL    HW1 9181   4.542   3.577   3.759 -1.2337 -0.7111 -0.7699
 2964SOL    HW2 9182   4.507   3.550   3.916 -0.4403  0.0152 -0.4635
 2965SOL     OW 9183   1.961   3.265   2.319  0.0860 -0.0675 -0.2828
 2965SOL    HW1 9184   1.973   3.303   2.227 -1.0798 -0.4087 -0.5978
 2965SOL    HW2 9185   1.863   3.256   2.338  0.3203 -0.1792  0.9249
 2966SOL     OW 9186   0.146   2.943   5.533  0.6507  0.4141 -0.3347
 2966SOL    HW1 9187   0.139   2.995   5.448  1.3712 -0.2212 -0.8007
 2966SOL    HW2 9188   0.242   2.932   5.558  0.5228 -0.7126 -0.2779
 2967SOL     OW 9189   3.048   4.653   5.773  0.0571  0.3189 -0.1560
 2967SOL    HW1 9190   2.987   4.709   5.829 -1.0240 -1.8773  1.0169
 2967SOL    HW2 9191   3.017   4.654   5.678 -1.8738 -0.7356  0.4141
 2968SOL     OW 9192   0.757   0.829   4.208  0.2789 -0.2730  0.1373
 2968SOL    HW1 9193   0.666   0.841   4.248  0.9083  0.8169  1.3080
 2968SOL    HW2 9194   0.791   0.916   4.173 -0.1903 -1.1574 -2.8032
 2969SOL     OW 9195   3.722   3.392   5.862 -0.2591  0.2547  0.0757
 2969SOL    HW1 9196   3.808   3.350   5.832 -1.3079 -0.3483 -2.3246
 2969SOL    HW2 9197   3.666   3.323   5.908  0.2635  0.4993  1.1110
 2970SOL     OW 9198   2.472   2.877   0.720  0.0447 -0.1205  0.3286
 2970SOL    HW1 9199   2.533   2.956   0.727 -2.0691  1.7616 -1.0172
 2970SOL    HW2 9200   2.508   2.813   0.653  1.4130  0.0595  0.8625
 2971SOL     OW 9201   5.137   0.730   2.898 -0.3087  0.2588  0.2433
 2971SOL    HW1 9202   5.040   0.740   2.916 -0.5438 -2.7364  1.2710
 2971SOL    HW2 9203   5.160   0.633   2.892  2.5980  0.8644 -0.2528
 2972SOL     OW 9204   2.733   4.331   2.907  0.6102 -0.3250  0.0986
 2972SOL    HW1 9205   2.767   4.377   2.824 -1.4305 -0.7298 -1.0459
 2972SOL    HW2 9206   2.658   4.385   2.945  0.3552 -1.0684  0.6471
 2973SOL     OW 9207   3.009   1.021   5.623 -0.3087  0.1369 -0.0100
 2973SOL    HW1 9208   2.917   1.045   5.655  0.5859  1.4295  1.7808
 2973SOL    HW2 9209   3.002   0.962   5.543 -2.6945 -1.0186  0.9597
 2974SOL     OW 9210   2.449   1.837   1.094  0.0365 -0.0163  0.2143
 2974SOL    HW1 9211   2.420   1.923   1.135  0.8318 -0.0203  0.8288
 2974SOL    HW2 9212   2.476   1.774   1.167  0.1662 -0.5208 -0.2659
 2975SOL     OW 9213   4.967   3.587   1.373  0.7722  0.1721  0.0206
 2975SOL    HW1 9214   4.961   3.496   1.333  0.7636  0.2946 -0.2611
 2975SOL    HW2 9215   5.016   3.582   1.460  2.3498  0.1474 -0.8347
 2976SOL     OW 9216   0.207   2.424   5.346 -0.5228 -0.2187 -0.2006
 2976SOL    HW1 9217   0.168   2.355   5.406  0.1861  0.2834  0.8658
 2976SOL    HW2 9218   0.305   2.431   5.362 -0.0949 -0.8560 -2.2301
 2977SOL     OW 9219   2.906   2.344   1.975 -0.1549  0.2753 -0.2951
 2977SOL    HW1 9220   2.996   2.386   1.974  0.5055 -1.0496 -2.0701
 2977SOL    HW2 9221   2.891   2.299   2.063  1.2034 -0.0326 -0.2016
 2978SOL     OW 9222   4.880   1.573   0.627  0.1700 -0.4506 -0.4451
 2978SOL    HW1 9223   4.827   1.492   0.654  0.8256 -1.2611 -1.4925
 2978SOL    HW2 9224   4.833   1.656   0.658 -0.5395 -1.2190  0.6207
 2979SOL     OW 9225   0.437   1.681   5.433  0.9747  0.2609  0.1594
 2979SOL    HW1 9226   0.439   1.648   5.338  0.3171  1.5439 -0.3380
 2979SOL    HW2 9227   0.357   1.644   5.480 -0.5070  2.0597 -0.7954
 2980SOL     OW 9228   5.765   4.335   4.257 -0.4943  0.3383 -0.1805
 2980SOL    HW1 9229   5.795   4.299   4.345 -1.4079  0.1417  0.0566
 2980SOL    HW2 9230   5.666   4.350   4.259 -0.2122  2.5043 -0.4007
 2981SOL     OW 9231   2.862   1.602   1.548  0.2002 -0.5779 -0.3435
 2981SOL    HW1 9232   2.814   1.644   1.470 -0.0748 -0.5045 -0.1378
 2981SOL    HW2 9233   2.864   1.503   1.537  0.8419 -0.5194 -0.8272
 2982SOL     OW 9234   4.006   4.718   1.357  0.0326  0.4434 -0.0321
 2982SOL    HW1 9235   3.923   4.670   1.383 -0.5901  1.0401 -0.8624
 2982SOL    HW2 9236   4.021   4.796   1.418 -0.0319  0.3556  0.0961
 2983SOL     OW 9237   4.613   5.504   4.643 -0.4799  0.1555  0.4333
 2983SOL    HW1 9238   4.634   5.584   4.587  1.5633 -0.6592 -0.0325
 2983SOL    HW2 9239   4.668   5.426   4.613 -0.5029 -0.7437  2.5331
 2984SOL     OW 9240   5.343   1.817   1.531  0.0365 -0.5424  0.0656
 2984SOL    HW1 9241   5.330   1.734   1.478  0.7609 -1.6390  1.5353
 2984SOL    HW2 9242   5.272   1.823   1.602  0.7322 -0.5799  0.7773
 2985SOL     OW 9243   5.881   4.293   2.810  0.1742 -0.0121  0.3563
 2985SOL    HW1 9244   5.906   4.200   2.835  0.1568  0.2351  1.3537
 2985SOL    HW2 9245   5.951   4.356   2.843  0.0609  0.3487 -0.0884
 2986SOL     OW 9246   1.955   3.385   2.057 -0.2940  0.2585 -0.0779
 2986SOL    HW1 9247   1.889   3.314   2.031  0.4333 -0.8162  0.9219
 2986SOL    HW2 9248   1.916   3.475   2.039 -2.4782 -0.3069  1.4902
 2987SOL     OW 9249   4.493   0.751   4.814 -0.0467 -0.4732  0.4601
 2987SOL    HW1 9250   4.505   0.794   4.904  0.0493 -0.1568  0.2965
 2987SOL    HW2 9251   4.469   0.820   4.747  1.8935 -0.3629 -0.1848
 2988SOL     OW 9252   1.041   5.769   4.983 -0.4772 -0.2828 -0.5265
 2988SOL    HW1 9253   1.003   5.758   4.891 -0.9915  1.1034 -0.5105
 2988SOL    HW2 9254   1.130   5.724   4.988 -0.4179 -0.3380 -1.7202
 2989SOL     OW 9255   1.448   0.961   2.908 -0.6150  0.1764 -0.1019
 2989SOL    HW1 9256   1.408   0.900   2.840 -1.4270 -0.8509  1.2431
 2989SOL    HW2 9257   1.487   0.907   2.983 -2.2795  1.2651  1.6421
 2990SOL     OW 9258   2.749   0.044   0.733 -0.8763 -0.2632  0.5591
 2990SOL    HW1 9259   2.843   0.020   0.759 -0.8062  1.4628  2.1890
 2990SOL    HW2 9260   2.726   0.001   0.646  1.1908 -1.2689  0.4471
 2991SOL     OW 9261   4.967   2.345   2.117  0.3842  0.1216 -0.3575
 2991SOL    HW1 9262   5.067   2.339   2.127  0.4032  0.1491 -0.5364
 2991SOL    HW2 9263   4.932   2.413   2.180  0.3782 -0.5205  0.3495
 2992SOL     OW 9264   4.761   4.073   3.292  0.0748 -0.6992 -0.0053
 2992SOL    HW1 9265   4.845   4.069   3.237 -0.8203 -1.3436 -1.3654
 2992SOL    HW2 9266   4.777   4.027   3.380  0.4302 -3.2245 -1.2936
 2993SOL     OW 9267   1.014   0.445   2.790  0.0210  0.0565 -0.6633
 2993SOL    HW1 9268   0.941   0.434   2.857  0.7322  1.2670  0.3508
 2993SOL    HW2 9269   1.031   0.543   2.774 -0.1888 -0.1867 -2.6998
 2994SOL     OW 9270   0.327   3.946   2.858  0.0099  0.3375  0.5722
 2994SOL    HW1 9271   0.322   4.020   2.791 -3.5677  0.3134  0.6601
 2994SOL    HW2 9272   0.353   3.983   2.947  1.2156  0.9400 -0.0086
 2995SOL     OW 9273   5.081   0.983   0.856  0.5623  0.0325 -0.2862
 2995SOL    HW1 9274   5.170   0.999   0.813 -0.0996  0.1254 -1.6775
 2995SOL    HW2 9275   5.046   1.068   0.894  1.3605 -0.1425  0.8801
 2996SOL     OW 9276   3.405   1.689   2.890  0.2235 -0.0065 -0.4111
 2996SOL    HW1 9277   3.470   1.740   2.834  0.9097 -1.0584 -0.5966
 2996SOL    HW2 9278   3.315   1.692   2.847  0.0497  1.6836 -0.0201
 2997SOL     OW 9279   5.851   4.406   0.565  0.9968 -0.6000 -0.1444
 2997SOL    HW1 9280   5.924   4.467   0.532 -0.3606  1.1237 -0.1003
 2997SOL    HW2 9281   5.800   4.372   0.486  0.7537 -0.3761 -0.0834
 2998SOL     OW 9282   4.963   1.867   0.932  0.6408 -0.4631  0.6558
 2998SOL    HW1 9283   5.050   1.863   0.982  1.5193 -0.3413 -0.7757
 2998SOL    HW2 9284   4.954   1.957   0.889 -0.6259 -0.1770  1.4736
 2999SOL     OW 9285   4.081   1.551   3.590  0.0890  0.8304 -0.1352
 2999SOL    HW1 9286   4.002   1.582   3.536 -0.2125  1.7623  0.8240
 2999SOL    HW2 9287   4.056   1.468   3.640  0.7362 -0.7849 -2.2896
 3000SOL     OW 9288   4.386   2.948   4.345  0.7648  0.0127  0.1366
 3000SOL    HW1 9289   4.312   2.895   4.306 -0.1735  0.4980  1.1924
 3000SOL    HW2 9290   4.430   2.896   4.418  1.4419 -0.2560 -0.4558
 3001SOL     OW 9291   3.132   2.090   0.188 -0.2285 -0.0880  0.3658
 3001SOL    HW1 9292   3.221   2.044   0.188 -1.0951 -1.8614  1.0835
 3001SOL    HW2 9293   3.060   2.022   0.196 -1.6812  1.3076 -0.4446
 3002SOL     OW 9294   1.550   3.633   0.405  0.4927 -0.6880 -0.0974
 3002SOL    HW1 9295   1.516   3.623   0.498 -0.5865  2.1357 -0.0861
 3002SOL    HW2 9296   1.610   3.556   0.383  2.9964 -0.1577  3.8775
 3003SOL     OW 9297   5.122   0.781   1.219 -0.0614 -0.0302 -0.1065
 3003SOL    HW1 9298   5.060   0.831   1.158 -0.1808  0.7304  0.6194
 3003SOL    HW2 9299   5.203   0.838   1.237 -0.2438 -0.0559  0.8151
 3004SOL     OW 9300   2.916   2.770   3.483  0.3976 -0.0656 -0.1024
 3004SOL    HW1 9301   2.996   2.828   3.494  0.8566 -0.5672 -0.7919
 3004SOL    HW2 9302   2.942   2.674   3.494  0.0803 -0.2978 -1.3005
 3005SOL     OW 9303   0.598   3.563   0.026 -0.6553  0.2662 -0.4171
 3005SOL    HW1 9304   0.692   3.553  -0.006  0.1647 -0.1704  1.9103
 3005SOL    HW2 9305   0.550   3.475   0.017 -0.2167 -0.0401  0.1217
 3006SOL     OW 9306   2.692   5.872   4.545  0.1890 -0.1565 -0.3378
 3006SOL    HW1 9307   2.791   5.884   4.531  0.4279 -0.5481  0.8651
 3006SOL    HW2 9308   2.677   5.807   4.620 -0.9827  0.3162 -0.1401
 3007SOL     OW 9309   0.567   0.630   2.034  0.5074 -0.1644  0.1466
 3007SOL    HW1 9310   0.556   0.726   2.010 -0.7069  0.9096  4.1570
 3007SOL    HW2 9311   0.658   0.615   2.072 -0.2930  0.2406  2.3622
 3008SOL     OW 9312   5.944   4.892   1.120  0.1645  0.3195 -0.2117
 3008SOL    HW1 9313   6.012   4.932   1.181  1.1018 -0.2463 -0.8683
 3008SOL    HW2 9314   5.853   4.900   1.161  0.8876 -1.0404  1.7828
 3009SOL     OW 9315   1.417   4.710   5.702 -0.1946 -0.6334  0.3126
 3009SOL    HW1 9316   1.333   4.688   5.652  0.8592  0.3703 -2.0763
 3009SOL    HW2 9317   1.493   4.658   5.663  0.5292 -0.5756  1.5924
 3010SOL     OW 9318   2.546   0.419   3.167 -0.0281  0.2098  0.0552
 3010SOL    HW1 9319   2.565   0.474   3.085  0.2224  0.0903  0.0319
 3010SOL    HW2 9320   2.632   0.381   3.201 -0.4651 -2.2376 -1.3693
 3011SOL     OW 9321   1.864   1.069   1.187  0.8733  0.4832 -0.1779
 3011SOL    HW1 9322   1.957   1.066   1.225  0.7296 -0.5166  0.1320
 3011SOL    HW2 9323   1.860   1.137   1.114  1.4243  1.7154  0.8963
 3012SOL     OW 9324   1.729   2.041   4.194 -0.3042 -0.4331 -0.4263
 3012SOL    HW1 9325   1.727   2.091   4.108 -1.2059 -1.1878 -0.8535
 3012SOL    HW2 9326   1.642   1.995   4.208  0.2546 -1.2940  0.3123
 3013SOL     OW 9327   0.374   2.362   0.365 -0.7446  0.5070  0.3651
 3013SOL    HW1 9328   0.353   2.396   0.273 -0.7843  0.1519  0.2407
 3013SOL    HW2 9329   0.434   2.426   0.412 -1.1623  0.9536  0.2899
 3014SOL     OW 9330   3.844   5.350   2.014  0.7832 -0.0253  0.5071
 3014SOL    HW1 9331   3.761   5.313   1.973 -0.5877  3.7127 -0.4535
 3014SOL    HW2 9332   3.848   5.323   2.111 -1.1745 -0.8451  0.4058
 3015SOL     OW 9333   1.960   3.154   3.686 -0.4456 -0.6456  0.1981
 3015SOL    HW1 9334   1.937   3.251   3.700  0.7186 -0.6288  2.5438
 3015SOL    HW2 9335   1.875   3.101   3.678 -1.1450  0.3689  0.6205
 3016SOL     OW 9336   0.256   5.680   1.068  0.4995  0.9662 -0.1284
 3016SOL    HW1 9337   0.248   5.600   1.127  1.0058  1.1719  0.2241
 3016SOL    HW2 9338   0.349   5.715   1.070  0.1865  1.8326  0.0872
 3017SOL     OW 9339   2.295   1.242   3.645  0.3601  0.3691  0.2051
 3017SOL    HW1 9340   2.360   1.235   3.570 -0.2230 -1.9721 -0.1713
 3017SOL    HW2 9341   2.230   1.166   3.640 -1.1769  1.5020  1.7199
 3018SOL     OW 9342   5.196   5.427   1.338  0.5415 -0.3073  0.3657
 3018SOL    HW1 9343   5.191   5.515   1.290  0.2343 -0.3095  0.3931
 3018SOL    HW2 9344   5.224   5.442   1.433 -1.9528  0.0459  1.1257
 3019SOL     OW 9345   4.911   4.508   2.145 -0.1419  0.0830  0.5548
 3019SOL    HW1 9346   4.933   4.414   2.170 -0.2008 -0.3417 -0.9025
 3019SOL    HW2 9347   4.995   4.563   2.144 -0.0384 -0.0671  0.9324
 3020SOL     OW 9348   1.499   1.846   0.425 -0.2170 -0.1821 -0.3407
 3020SOL    HW1 9349   1.492   1.925   0.363  0.2380 -1.4378 -2.0878
 3020SOL    HW2 9350   1.408   1.818   0.454 -0.4575  0.3174 -0.6039
 3021SOL     OW 9351   5.907   4.107   3.772 -0.9654 -0.4494  0.1252
 3021SOL    HW1 9352   5.822   4.150   3.802 -0.8914  0.1278 -0.4744
 3021SOL    HW2 9353   5.983   4.170   3.785 -0.6430 -0.9091  0.5193
 3022SOL     OW 9354   4.498   1.737   1.255 -0.2466  0.2156 -0.0208
 3022SOL    HW1 9355   4.407   1.705   1.228 -0.4203  0.2559  0.5045
 3022SOL    HW2 9356   4.567   1.673   1.222 -0.4565  0.2300 -0.4956
 3023SOL     OW 9357   3.688   3.791   5.133  0.2380 -0.3820 -0.0976
 3023SOL    HW1 9358   3.731   3.843   5.207  0.9715  0.2219 -0.9316
 3023SOL    HW2 9359   3.627   3.852   5.082  2.3366  0.1778 -2.0982
 3024SOL     OW 9360   5.298   1.117   2.757  0.1280 -0.4804 -0.9979
 3024SOL    HW1 9361   5.224   1.185   2.753  1.1571  0.7287 -0.2755
 3024SOL    HW2 9362   5.286   1.051   2.683 -1.7186 -0.3801 -0.8479
 3025SOL     OW 9363   5.615   3.291   2.820  0.2189 -0.2751 -0.0213
 3025SOL    HW1 9364   5.650   3.229   2.749  0.4060  1.6542 -1.7325
 3025SOL    HW2 9365   5.688   3.352   2.849 -0.3594  0.2328  0.3855
 3026SOL     OW 9366   1.321   5.947   5.538 -0.4642 -1.2332 -0.4739
 3026SOL    HW1 9367   1.228   5.911   5.536 -0.4024 -1.5041  0.6332
 3026SOL    HW2 9368   1.355   5.944   5.632 -0.0135  0.5923 -0.5524
 3027SOL     OW 9369   2.058   5.387   2.863 -0.1032  0.6137 -0.0091
 3027SOL    HW1 9370   2.157   5.395   2.877 -0.2641  2.5782  0.2556
 3027SOL    HW2 9371   2.040   5.368   2.767  0.5587 -1.4686  0.2254
 3028SOL     OW 9372   3.166   4.463   4.408  0.1870 -0.1865 -0.6910
 3028SOL    HW1 9373   3.192   4.377   4.365 -0.6701  0.5170 -2.7207
 3028SOL    HW2 9374   3.085   4.450   4.465 -0.1528 -0.6535 -1.2794
 3029SOL     OW 9375   5.761   2.382   4.005 -0.4832  0.4633  0.1392
 3029SOL    HW1 9376   5.734   2.423   3.917  0.4285  0.7584 -0.0161
 3029SOL    HW2 9377   5.740   2.446   4.079  0.7049  1.1318 -0.0797
 3030SOL     OW 9378   4.621   5.263   4.843  0.8427  0.1572 -0.0286
 3030SOL    HW1 9379   4.602   5.331   4.773  2.4849  2.4239  1.6073
 3030SOL    HW2 9380   4.718   5.238   4.840  0.2720 -2.2640 -0.6424
 3031SOL     OW 9381   0.873   0.170   3.588  0.4979  0.5100 -0.2007
 3031SOL    HW1 9382   0.931   0.112   3.532  1.4860  0.9281  0.3505
 3031SOL    HW2 9383   0.926   0.206   3.665 -0.8336 -0.1361  1.0711
 3032SOL     OW 9384   0.463   1.195   4.916  0.4193 -0.0753 -0.2246
 3032SOL    HW1 9385   0.452   1.096   4.905 -2.9373 -0.0643  1.4460
 3032SOL    HW2 9386   0.508   1.214   5.003 -1.7653 -0.2622  1.0354
 3033SOL     OW 9387   5.907   1.931   2.321 -0.0329  0.1107  0.0900
 3033SOL    HW1 9388   5.868   2.013   2.364 -0.4316  0.0781 -0.2072
 3033SOL    HW2 9389   5.938   1.953   2.229 -0.8333 -0.2525 -0.2713
 3034SOL     OW 9390   1.205   4.410   1.016 -0.3617 -0.2192 -0.5912
 3034SOL    HW1 9391   1.218   4.482   0.948 -0.5371 -0.9627 -1.4297
 3034SOL    HW2 9392   1.129   4.351   0.987 -0.4299 -0.5512  0.2493
 3035SOL     OW 9393   4.440   2.573   2.124  0.1046  0.3434  0.3199
 3035SOL    HW1 9394   4.423   2.523   2.039  0.9247  1.3450 -0.4668
 3035SOL    HW2 9395   4.508   2.525   2.179 -0.6481 -0.4642  0.5683
 3036SOL     OW 9396   0.248   2.157   3.107 -0.0862  0.5170 -0.1597
 3036SOL    HW1 9397   0.171   2.161   3.170  0.2170  0.6802  0.2045
 3036SOL    HW2 9398   0.324   2.108   3.150  0.4430  1.4060 -0.0486
 3037SOL     OW 9399   3.985   1.253   3.443 -0.0131  0.3065 -0.5012
 3037SOL    HW1 9400   4.006   1.327   3.379 -0.7004  0.3272 -0.7074
 3037SOL    HW2 9401   3.889   1.227   3.434 -0.1844  0.4671  0.6890
 3038SOL     OW 9402   5.276   4.733   1.149  0.5762  0.1819 -0.3218
 3038SOL    HW1 9403   5.348   4.666   1.168 -1.4211 -1.8840  0.3587
 3038SOL    HW2 9404   5.273   4.750   1.050  0.1696 -1.9719 -0.7469
 3039SOL     OW 9405   0.699   1.487   2.136 -0.0280 -0.0682 -0.1026
 3039SOL    HW1 9406   0.683   1.553   2.063  0.0962  1.5223  1.2541
 3039SOL    HW2 9407   0.791   1.449   2.127  0.7963  1.7319  0.4181
 3040SOL     OW 9408   3.797   4.654   3.650  0.0668  0.2681  0.0626
 3040SOL    HW1 9409   3.844   4.566   3.643  0.5590  0.5191  0.1732
 3040SOL    HW2 9410   3.816   4.708   3.568 -1.9909 -0.5655 -1.0267
 3041SOL     OW 9411   4.567   2.204   2.279 -0.4848  0.3567 -0.1358
 3041SOL    HW1 9412   4.591   2.134   2.211  0.4722 -1.4867  2.0013
 3041SOL    HW2 9413   4.635   2.204   2.352 -0.1698  3.9198 -0.2448
 3042SOL     OW 9414   3.483   4.055   1.417 -0.5192  0.2895  0.6203
 3042SOL    HW1 9415   3.452   4.065   1.323 -0.5185  1.5704  0.7395
 3042SOL    HW2 9416   3.557   3.988   1.421 -1.7819 -1.1997  0.0143
 3043SOL     OW 9417   2.823   4.242   3.146  0.1916 -0.2989 -0.9161
 3043SOL    HW1 9418   2.896   4.173   3.145  2.4362  1.9023 -0.7101
 3043SOL    HW2 9419   2.825   4.293   3.060  0.0623  0.8712 -0.2542
 3044SOL     OW 9420   3.285   5.491   1.109  0.5919  0.0564  0.4206
 3044SOL    HW1 9421   3.312   5.506   1.204 -0.3618 -0.7190  0.8262
 3044SOL    HW2 9422   3.214   5.421   1.105 -0.5509  1.2129 -0.6996
 3045SOL     OW 9423   0.438   5.133   3.163 -0.4035 -0.2787  0.2330
 3045SOL    HW1 9424   0.448   5.156   3.260 -1.0897 -2.2203  0.8063
 3045SOL    HW2 9425   0.518   5.082   3.132 -0.9514 -1.1903  0.2776
 3046SOL     OW 9426   4.959   3.804   2.327 -0.6635 -0.0873 -0.3647
 3046SOL    HW1 9427   4.925   3.749   2.252  0.8852  0.5677 -1.6184
 3046SOL    HW2 9428   5.002   3.745   2.396  2.0054 -0.5151 -2.2251
 3047SOL     OW 9429   4.985   4.995   1.061  0.5795  0.5052  0.4705
 3047SOL    HW1 9430   5.026   5.086   1.064  1.2408  0.1713  1.7395
 3047SOL    HW2 9431   5.019   4.947   0.980 -0.8159  1.8346 -0.9938
 3048SOL     OW 9432   2.553   4.965   1.072  0.6562  0.4015 -0.2658
 3048SOL    HW1 9433   2.606   4.955   0.988  2.6082 -3.0294  1.1285
 3048SOL    HW2 9434   2.602   4.920   1.147 -1.4794  2.4063  2.5308
 3049SOL     OW 9435   3.260   3.149   2.425  0.0344  0.3698  0.6764
 3049SOL    HW1 9436   3.161   3.160   2.416  0.2205  1.3427 -0.6082
 3049SOL    HW2 9437   3.294   3.211   2.497 -0.4458 -1.0827  2.2032
 3050SOL     OW 9438   4.932   3.652   0.468  0.2561  0.5343  0.3519
 3050SOL    HW1 9439   4.855   3.590   0.459  0.1108  0.2980  2.5980
 3050SOL    HW2 9440   5.001   3.611   0.528  2.1928  0.7178 -1.6075
 3051SOL     OW 9441   2.572   4.259   3.246  0.5317  0.5109 -0.2309
 3051SOL    HW1 9442   2.500   4.233   3.182  1.7386 -2.2014 -0.6317
 3051SOL    HW2 9443   2.661   4.238   3.207  1.3615 -0.0798  1.8116
 3052SOL     OW 9444   1.924   1.626   2.794  0.6820 -0.0387  0.4920
 3052SOL    HW1 9445   1.888   1.699   2.852  1.2662 -1.8572  3.3857
 3052SOL    HW2 9446   1.867   1.544   2.806  2.2935 -1.2066  0.4684
 3053SOL     OW 9447   1.915   3.584   5.850  0.0171 -0.0832 -0.6368
 3053SOL    HW1 9448   1.877   3.676   5.839  1.8117  0.7546 -0.2661
 3053SOL    HW2 9449   1.934   3.568   5.947  1.5312 -0.0384 -0.9004
 3054SOL     OW 9450   5.892   4.404   1.433  0.3808 -0.3493 -0.0665
 3054SOL    HW1 9451   5.966   4.336   1.428 -0.8286 -1.7277 -0.0960
 3054SOL    HW2 9452   5.930   4.495   1.420  2.1227 -0.9745  0.2776
 3055SOL     OW 9453   3.911   0.954   0.488  0.2654  0.2145  0.2248
 3055SOL    HW1 9454   3.984   0.932   0.553  1.1399  0.7905 -0.5600
 3055SOL    HW2 9455   3.947   1.011   0.414 -1.1137  1.0294  0.1529
 3056SOL     OW 9456   4.505   3.006   3.265 -0.1357 -0.7935 -0.0633
 3056SOL    HW1 9457   4.522   3.104   3.272  0.6780 -0.8961 -0.4979
 3056SOL    HW2 9458   4.435   2.989   3.195 -0.9854 -0.4665  0.6881
 3057SOL     OW 9459   0.897   3.260   1.851  0.1829 -0.1022  0.2843
 3057SOL    HW1 9460   0.826   3.267   1.922 -1.0593 -0.8855 -0.8399
 3057SOL    HW2 9461   0.886   3.173   1.802  1.6589 -0.0315 -0.2159
 3058SOL     OW 9462   4.144   4.703   5.416 -0.0125 -0.6038 -0.1755
 3058SOL    HW1 9463   4.209   4.676   5.487 -0.4597  2.4677  1.5881
 3058SOL    HW2 9464   4.191   4.706   5.327  2.2901  1.1874  0.9820
 3059SOL     OW 9465   4.472   3.440   2.354  0.0033 -0.2935 -0.3342
 3059SOL    HW1 9466   4.557   3.444   2.406  0.4141 -1.0241 -0.9312
 3059SOL    HW2 9467   4.415   3.365   2.387 -0.6599  0.5235  0.4179
 3060SOL     OW 9468   4.414   0.216   5.942 -1.2753 -0.3440  0.5222
 3060SOL    HW1 9469   4.469   0.139   5.973 -0.8176 -0.3395 -0.2420
 3060SOL    HW2 9470   4.471   0.298   5.937 -1.2356 -0.4171 -0.6275
 3061SOL     OW 9471   0.775   1.277   4.676 -0.0270  0.5865  0.7709
 3061SOL    HW1 9472   0.814   1.272   4.584  1.2062 -0.5383  1.3246
 3061SOL    HW2 9473   0.754   1.372   4.698 -1.8947  0.7360 -1.2624
 3062SOL     OW 9474   4.884   5.627   5.711 -0.0341  0.2839  0.1382
 3062SOL    HW1 9475   4.834   5.648   5.794 -0.2853 -1.5771  0.4860
 3062SOL    HW2 9476   4.820   5.600   5.639  0.2370  1.1972 -0.4686
 3063SOL     OW 9477   3.663   2.489   5.571  0.0126 -0.0339  0.1048
 3063SOL    HW1 9478   3.597   2.474   5.645 -0.3373  0.9807  0.0117
 3063SOL    HW2 9479   3.746   2.437   5.590  0.2401  0.8239  1.6155
 3064SOL     OW 9480   4.843   4.294   2.474 -0.1126 -0.4608 -0.2025
 3064SOL    HW1 9481   4.850   4.198   2.448  0.8217 -0.3205 -0.5296
 3064SOL    HW2 9482   4.921   4.319   2.532 -2.1855 -0.7694  2.9044
 3065SOL     OW 9483   5.017   1.072   3.645  0.3166  0.4901 -0.7071
 3065SOL    HW1 9484   5.045   1.087   3.550 -0.7687 -0.2833 -1.1703
 3065SOL    HW2 9485   4.968   0.985   3.651 -0.4712  0.9980  0.3889
 3066SOL     OW 9486   0.847   3.011   1.749  0.3197 -0.4457  0.5274
 3066SOL    HW1 9487   0.755   2.982   1.723 -0.1253  1.3027  0.0719
 3066SOL    HW2 9488   0.914   2.970   1.687 -0.3584  0.1724 -0.6257
 3067SOL     OW 9489   1.962   2.345   4.100  0.1717  0.0028 -0.0188
 3067SOL    HW1 9490   1.883   2.292   4.068 -0.7827  1.7781 -0.7329
 3067SOL    HW2 9491   2.037   2.283   4.120 -0.8167 -1.6014 -1.0173
 3068SOL     OW 9492   1.590   3.648   2.348  0.5413 -0.4418  0.1481
 3068SOL    HW1 9493   1.493   3.624   2.361 -0.0538  1.5229 -0.3754
 3068SOL    HW2 9494   1.625   3.598   2.269 -0.9339  0.9755 -1.5005
 3069SOL     OW 9495   3.833   5.605   3.959 -0.4892 -0.2292  0.1983
 3069SOL    HW1 9496   3.852   5.700   3.932 -0.7322 -0.4020 -0.6219
 3069SOL    HW2 9497   3.911   5.548   3.935 -1.1589 -0.5835 -1.2632
 3070SOL     OW 9498   1.840   0.492   4.761  0.1666 -0.5797  0.6097
 3070SOL    HW1 9499   1.776   0.415   4.769  0.2576 -0.7210  0.0415
 3070SOL    HW2 9500   1.933   0.457   4.751  0.2773 -0.3834  0.9669
 3071SOL     OW 9501   5.784   5.456   0.089 -0.0754 -0.4562  0.4301
 3071SOL    HW1 9502   5.774   5.552   0.116 -0.4667 -0.7461  1.3663
 3071SOL    HW2 9503   5.874   5.441   0.048  0.8970 -0.1410  2.3373
 3072SOL     OW 9504   3.939   0.894   0.935  0.2904  0.0145 -0.3180
 3072SOL    HW1 9505   3.957   0.863   1.029 -0.4088  0.0073 -0.1852
 3072SOL    HW2 9506   3.865   0.961   0.935 -0.3329 -0.6589 -0.9654
 3073SOL     OW 9507   2.013   2.917   2.643 -0.2897  0.1065  0.3311
 3073SOL    HW1 9508   1.950   2.859   2.591  1.4479 -1.7097  0.1059
 3073SOL    HW2 9509   2.061   2.979   2.581  0.5001 -0.8268 -0.0200
 3074SOL     OW 9510   4.131   0.478   2.218  0.2913 -0.4516 -0.6163
 3074SOL    HW1 9511   4.057   0.514   2.275  1.4149  0.6720  0.1788
 3074SOL    HW2 9512   4.133   0.378   2.227  0.1850 -0.3445  1.0337
 3075SOL     OW 9513   1.350   2.575   4.875 -0.1518  0.6797 -0.3836
 3075SOL    HW1 9514   1.254   2.589   4.852 -0.3036  2.3712  1.0262
 3075SOL    HW2 9515   1.363   2.589   4.974  0.8305 -3.7264  0.3425
 3076SOL     OW 9516   0.737   3.488   0.527  0.2653 -0.2909  0.4000
 3076SOL    HW1 9517   0.813   3.443   0.572 -0.5632 -3.4528 -1.1097
 3076SOL    HW2 9518   0.651   3.460   0.570 -0.3245 -0.9241 -1.0988
 3077SOL     OW 9519   0.443   0.195   5.304 -0.3435  0.5773  0.8037
 3077SOL    HW1 9520   0.451   0.097   5.286  1.7788  0.8992 -0.3585
 3077SOL    HW2 9521   0.441   0.211   5.403 -0.6115 -0.6203  1.0058
 3078SOL     OW 9522   1.879   2.169   4.379 -0.4828  0.4545 -0.0425
 3078SOL    HW1 9523   1.837   2.140   4.293  1.0243 -0.1761 -0.5970
 3078SOL    HW2 9524   1.841   2.257   4.407 -1.3065  0.4605 -1.1145
 3079SOL     OW 9525   5.407   4.697   1.913  0.0255  0.5175  0.8204
 3079SOL    HW1 9526   5.460   4.668   1.834  0.3505 -1.3300  1.6674
 3079SOL    HW2 9527   5.465   4.753   1.973  0.5905 -0.2861  1.0358
 3080SOL     OW 9528   5.156   1.443   4.203  1.3075 -0.7360  0.0963
 3080SOL    HW1 9529   5.066   1.468   4.168  0.8538  0.6298  2.0282
 3080SOL    HW2 9530   5.167   1.343   4.200  0.0503 -0.8661 -0.8712
 3081SOL     OW 9531   0.723   5.883   2.529  0.7268  0.3821 -0.0727
 3081SOL    HW1 9532   0.784   5.846   2.458 -0.7509 -0.8186 -0.7801
 3081SOL    HW2 9533   0.678   5.807   2.577 -2.4110  1.1377 -1.5692
 3082SOL     OW 9534   1.308   2.497   0.559  0.2403 -0.1154 -0.4188
 3082SOL    HW1 9535   1.328   2.587   0.521  0.1917  0.6072  1.1574
 3082SOL    HW2 9536   1.374   2.476   0.631 -0.9470 -0.4190  0.6218
 3083SOL     OW 9537   4.687   2.431   2.836  0.2082  0.2315 -0.3674
 3083SOL    HW1 9538   4.640   2.428   2.925  0.3139  1.5414 -0.2459
 3083SOL    HW2 9539   4.674   2.345   2.789 -1.2841  0.1137  0.2051
 3084SOL     OW 9540   2.539   5.157   2.527 -0.2332  0.1517 -0.2901
 3084SOL    HW1 9541   2.488   5.071   2.529  1.3390 -0.8241  0.5843
 3084SOL    HW2 9542   2.482   5.231   2.563 -1.0151 -0.9091  0.7333
 3085SOL     OW 9543   4.172   2.889   0.467 -0.1501  0.5501  0.5458
 3085SOL    HW1 9544   4.136   2.805   0.425  2.7727  0.2050 -1.5894
 3085SOL    HW2 9545   4.212   2.868   0.556  1.2660 -0.5484 -0.3144
 3086SOL     OW 9546   4.120   0.746   3.767 -0.4719  0.7372 -0.6597
 3086SOL    HW1 9547   4.122   0.843   3.741  2.5443  0.3012 -2.6447
 3086SOL    HW2 9548   4.198   0.726   3.827 -1.5777 -0.3277  0.4752
 3087SOL     OW 9549   2.043   4.591   0.916 -0.0819  0.0251 -0.1426
 3087SOL    HW1 9550   2.008   4.512   0.966  0.5385 -0.7720 -0.9321
 3087SOL    HW2 9551   2.111   4.638   0.973 -0.7770  0.2632  0.5053
 3088SOL     OW 9552   3.783   2.499   0.303 -0.5302 -0.8099  0.3551
 3088SOL    HW1 9553   3.813   2.592   0.284  1.6767 -1.2873  1.1594
 3088SOL    HW2 9554   3.728   2.465   0.228 -0.8921  0.9426 -0.2024
 3089SOL     OW 9555   2.845   0.167   2.739  0.5454 -0.3947  0.4850
 3089SOL    HW1 9556   2.904   0.130   2.811  1.7255 -0.9588 -0.7384
 3089SOL    HW2 9557   2.752   0.177   2.775  1.1051 -0.6119  2.0934
 3090SOL     OW 9558   5.407   0.482   0.389 -0.6031 -0.5551 -0.8020
 3090SOL    HW1 9559   5.312   0.486   0.358 -1.0824 -1.0900  0.5386
 3090SOL    HW2 9560   5.413   0.518   0.482  0.5454 -0.3363 -0.9542
 3091SOL     OW 9561   4.621   5.251   3.731  0.0635  0.0770  0.1323
 3091SOL    HW1 9562   4.646   5.249   3.634 -2.7082 -0.0873 -0.6765
 3091SOL    HW2 9563   4.579   5.340   3.752 -0.5296 -0.3578  0.8181
 3092SOL     OW 9564   1.493   3.288   1.341  0.1329  0.1653  0.1362
 3092SOL    HW1 9565   1.525   3.363   1.283  0.8748 -0.5107 -0.3435
 3092SOL    HW2 9566   1.425   3.234   1.290 -0.4090  0.5076  0.4848
 3093SOL     OW 9567   3.546   3.352   0.348 -0.1472  0.1298  0.0557
 3093SOL    HW1 9568   3.523   3.338   0.444  0.7963  0.3057  0.3197
 3093SOL    HW2 9569   3.604   3.433   0.339 -1.6769  1.1619 -0.8894
 3094SOL     OW 9570   0.278   0.167   3.887  0.0725  1.1972  0.0656
 3094SOL    HW1 9571   0.251   0.259   3.916  0.3376  1.0125  0.9253
 3094SOL    HW2 9572   0.234   0.146   3.800 -0.6350  1.8289  0.2536
 3095SOL     OW 9573   3.718   4.448   5.164 -0.0394  0.6348 -0.1987
 3095SOL    HW1 9574   3.756   4.483   5.250 -0.6085 -0.2802  0.4503
 3095SOL    HW2 9575   3.783   4.382   5.124  1.4167  2.9010 -1.8493
 3096SOL     OW 9576   0.514   0.711   5.481 -0.7096 -0.1506  0.1216
 3096SOL    HW1 9577   0.514   0.643   5.554  0.8618  0.2164  0.4823
 3096SOL    HW2 9578   0.533   0.666   5.394  2.4194  0.0093  0.6147
 3097SOL     OW 9579   4.361   1.166   5.184  0.0942 -0.1170  0.2436
 3097SOL    HW1 9580   4.279   1.159   5.128  0.5936 -0.7813 -0.4353
 3097SOL    HW2 9581   4.340   1.212   5.270 -1.1179 -0.8778  0.3634
 3098SOL     OW 9582   5.702   0.535   4.835  0.1068 -0.1278 -0.2247
 3098SOL    HW1 9583   5.671   0.487   4.917 -1.7918 -0.3124 -1.0068
 3098SOL    HW2 9584   5.773   0.481   4.790  0.6143 -0.3956  0.8652
 3099SOL     OW 9585   4.929   2.128   2.940  0.3035 -0.1250  0.4529
 3099SOL    HW1 9586   5.028   2.133   2.950  0.5940  3.3691 -2.2179
 3099SOL    HW2 9587   4.902   2.033   2.921  3.0613 -1.1937  1.4399
 3100SOL     OW 9588   3.717   2.466   2.554 -0.1075  0.1108 -0.3976
 3100SOL    HW1 9589   3.726   2.564   2.534 -0.1685 -0.1400 -1.7288
 3100SOL    HW2 9590   3.757   2.413   2.480 -1.4898 -0.8874 -0.4645
 3101SOL     OW 9591   1.162   4.970   0.323  0.7969 -0.3479 -0.0566
 3101SOL    HW1 9592   1.245   5.003   0.278  0.9430 -2.2933 -1.3500
 3101SOL    HW2 9593   1.175   4.875   0.352 -0.2972 -0.0321  1.5990
 3102SOL     OW 9594   2.423   1.307   1.100 -0.1892  0.1686 -0.0933
 3102SOL    HW1 9595   2.431   1.208   1.111  2.0153  0.1444 -1.3300
 3102SOL    HW2 9596   2.507   1.343   1.059 -1.7002  2.2818 -1.5584
 3103SOL     OW 9597   2.602   2.991   3.329 -0.0441 -0.2987  0.0043
 3103SOL    HW1 9598   2.582   3.076   3.280  0.5093 -0.2219 -0.0950
 3103SOL    HW2 9599   2.634   3.013   3.421  2.2338 -0.2737 -0.7273
 3104SOL     OW 9600   4.609   0.520   1.688 -0.0772  0.7252 -0.1689
 3104SOL    HW1 9601   4.708   0.536   1.683  0.0596 -0.3297 -1.1489
 3104SOL    HW2 9602   4.576   0.548   1.778  1.1761  0.7469  0.3106
 3105SOL     OW 9603   4.995   3.434   0.936  0.1034 -0.3748 -0.1960
 3105SOL    HW1 9604   4.913   3.400   0.891  0.6668 -0.7734 -0.9389
 3105SOL    HW2 9605   5.031   3.512   0.885  1.7198 -1.8857 -1.4880
 3106SOL     OW 9606   5.177   3.090   3.422 -0.0881  0.3253  0.2154
 3106SOL    HW1 9607   5.079   3.069   3.423  0.1549 -0.8268  0.6421
 3106SOL    HW2 9608   5.206   3.109   3.329 -0.3885 -0.9888 -0.1636
 3107SOL     OW 9609   0.123   1.643   5.309 -0.1169  0.7710  0.1379
 3107SOL    HW1 9610   0.165   1.604   5.228  0.5409  1.4328  0.1522
 3107SOL    HW2 9611   0.081   1.570   5.364  2.3476 -0.1336  0.9317
 3108SOL     OW 9612   4.575   5.582   0.391  0.4849  0.0082  0.3180
 3108SOL    HW1 9613   4.525   5.534   0.463 -2.1843 -1.8272 -2.4647
 3108SOL    HW2 9614   4.562   5.680   0.400 -1.2554 -0.2791  1.3479
 3109SOL     OW 9615   0.244   4.548   2.565  0.1714 -0.4819 -0.1582
 3109SOL    HW1 9616   0.165   4.498   2.532 -0.8652  0.8367  0.2431
 3109SOL    HW2 9617   0.316   4.484   2.592 -0.0402 -1.6635 -2.1962
 3110SOL     OW 9618   5.842   0.961   0.064 -0.6003  0.5262  0.1284
 3110SOL    HW1 9619   5.803   0.951   0.156 -1.1957 -0.6904 -0.2384
 3110SOL    HW2 9620   5.821   0.880   0.009  0.3072  0.9475 -0.8898
 3111SOL     OW 9621   5.955   5.161   5.226  0.0426  0.3279  0.2209
 3111SOL    HW1 9622   5.921   5.140   5.134  0.3299 -0.3404  0.2590
 3111SOL    HW2 9623   5.882   5.204   5.279 -1.2395 -2.2060  0.6913
 3112SOL     OW 9624   2.074   4.973   1.127  0.2331  0.4797  0.3989
 3112SOL    HW1 9625   2.058   4.910   1.203  2.3491  1.1011  1.4270
 3112SOL    HW2 9626   2.157   4.946   1.079 -0.4742  0.7580 -1.0319
 3113SOL     OW 9627   3.056   0.977   3.558  0.1427 -0.1336  0.1658
 3113SOL    HW1 9628   3.001   0.910   3.509 -0.7229  0.3287  0.4865
 3113SOL    HW2 9629   2.996   1.039   3.608  0.9267  0.8651 -0.1043
 3114SOL     OW 9630   5.546   1.256   2.747  0.2577 -0.5140  0.6508
 3114SOL    HW1 9631   5.451   1.224   2.756  0.2146  0.1352  3.1493
 3114SOL    HW2 9632   5.556   1.343   2.794  2.1942 -0.7178  0.6714
 3115SOL     OW 9633   3.170   2.015   0.812  0.6438  0.1696  0.0068
 3115SOL    HW1 9634   3.121   1.931   0.836  0.1089 -0.3596 -2.6499
 3115SOL    HW2 9635   3.137   2.090   0.869 -1.2435 -0.7511  0.1923
 3116SOL     OW 9636   1.577   1.497   4.390 -1.2387 -0.3798  0.0523
 3116SOL    HW1 9637   1.663   1.446   4.379 -0.6509  0.5637  0.1549
 3116SOL    HW2 9638   1.524   1.490   4.305 -1.6541 -2.0090  0.4192
 3117SOL     OW 9639   1.628   5.611   2.357 -0.1890  0.6489 -0.8519
 3117SOL    HW1 9640   1.680   5.695   2.343 -0.3488  1.0118  0.5797
 3117SOL    HW2 9641   1.691   5.537   2.385 -0.3040  0.8370 -0.0776
 3118SOL     OW 9642   0.028   4.977   0.722 -0.3122 -0.2207 -0.1174
 3118SOL    HW1 9643  -0.064   4.939   0.712 -0.2458 -0.3345 -0.3184
 3118SOL    HW2 9644   0.065   4.999   0.631 -0.5031  0.7005  0.0182
 3119SOL     OW 9645   5.125   3.661   2.508 -0.1717  0.1339  0.6820
 3119SOL    HW1 9646   5.060   3.630   2.578 -0.7857 -0.6427 -0.2112
 3119SOL    HW2 9647   5.159   3.582   2.457 -1.0713  0.8195 -1.0448
 3120SOL     OW 9648   2.883   0.880   1.002 -0.5527 -0.4277 -0.4172
 3120SOL    HW1 9649   2.933   0.949   0.949 -0.0908  0.2932  0.9075
 3120SOL    HW2 9650   2.834   0.925   1.076  1.0506 -1.6449  1.4641
 3121SOL     OW 9651   0.267   0.442   3.930  0.6070  0.5692  0.6817
 3121SOL    HW1 9652   0.316   0.485   3.854  0.6171 -0.0328  0.3387
 3121SOL    HW2 9653   0.298   0.481   4.016  0.1613  1.6924  0.3447
 3122SOL     OW 9654   4.792   1.589   0.010 -0.2952 -0.0365  0.8187
 3122SOL    HW1 9655   4.830   1.574   0.101  0.0624  0.4889  0.7616
 3122SOL    HW2 9656   4.864   1.581  -0.059 -0.3002  0.7940  0.6970
 3123SOL     OW 9657   1.846   4.680   3.935 -0.8802 -0.1487 -0.0805
 3123SOL    HW1 9658   1.902   4.684   4.017 -2.3748  0.1211  0.9508
 3123SOL    HW2 9659   1.903   4.702   3.855  0.6775 -0.8015  0.7996
 3124SOL     OW 9660   2.678   4.776   1.901  0.1867 -0.3654  0.1074
 3124SOL    HW1 9661   2.639   4.766   1.992 -2.5993 -1.1369 -1.0464
 3124SOL    HW2 9662   2.604   4.790   1.835  2.0139 -0.8985 -2.1806
 3125SOL     OW 9663   1.444   2.349   4.316 -0.5582 -0.8759 -0.2604
 3125SOL    HW1 9664   1.365   2.372   4.373  1.3527  0.0011  2.2316
 3125SOL    HW2 9665   1.488   2.267   4.353  0.1454 -0.9088 -1.1506
 3126SOL     OW 9666   3.433   5.415   4.726  0.2232 -0.8460 -0.2741
 3126SOL    HW1 9667   3.352   5.467   4.699  0.8825  0.3442 -0.0390
 3126SOL    HW2 9668   3.514   5.453   4.681  0.9681 -0.5121  1.2768
 3127SOL     OW 9669   2.370   2.078   4.513  0.1788  0.3800  0.1611
 3127SOL    HW1 9670   2.385   1.983   4.540  0.0571 -0.0458 -1.2001
 3127SOL    HW2 9671   2.272   2.097   4.506  0.2056  0.2100 -0.8381
 3128SOL     OW 9672   5.565   4.225   2.441  0.3479  0.1815  0.2504
 3128SOL    HW1 9673   5.582   4.215   2.539  1.3012 -0.6706  0.0187
 3128SOL    HW2 9674   5.631   4.289   2.401  2.0398 -1.8238 -0.3495
 3129SOL     OW 9675   0.297   0.512   3.494 -0.4346 -0.1267 -0.0336
 3129SOL    HW1 9676   0.238   0.466   3.560 -0.8396  1.3435  0.6747
 3129SOL    HW2 9677   0.322   0.448   3.422 -1.1684 -1.3684  0.7726
 3130SOL     OW 9678   4.625   0.094   1.227 -0.2758 -0.3335  0.3258
 3130SOL    HW1 9679   4.667   0.158   1.163 -2.1834  0.2589 -0.4315
 3130SOL    HW2 9680   4.560   0.143   1.285 -1.4429 -1.4768  0.0435
 3131SOL     OW 9681   5.451   3.574   2.164 -0.1070  0.2192 -0.1049
 3131SOL    HW1 9682   5.428   3.477   2.176 -1.7333  0.8698  2.7417
 3131SOL    HW2 9683   5.494   3.608   2.248 -0.3865  2.1992 -0.7364
 3132SOL     OW 9684   2.384   2.168   5.415 -0.2794 -0.3765 -0.4657
 3132SOL    HW1 9685   2.291   2.168   5.452  0.2598 -0.2047  0.9333
 3132SOL    HW2 9686   2.437   2.095   5.458  0.8469  0.8976  0.3494
 3133SOL     OW 9687   2.916   3.414   5.626  0.1037 -0.0717  0.3148
 3133SOL    HW1 9688   2.921   3.442   5.722 -1.0697  0.0881  0.3562
 3133SOL    HW2 9689   2.855   3.477   5.577  0.2086 -0.5153 -0.3947
 3134SOL     OW 9690   3.151   5.948   2.161  0.9419 -0.6389  0.3052
 3134SOL    HW1 9691   3.178   5.860   2.199  2.0093 -0.5680 -0.2476
 3134SOL    HW2 9692   3.210   5.970   2.083 -0.5049 -0.2929 -0.7280
 3135SOL     OW 9693   4.121   0.863   1.395  0.0394  0.3571 -0.2973
 3135SOL    HW1 9694   4.166   0.930   1.336 -0.4630  0.3744 -0.6624
 3135SOL    HW2 9695   4.190   0.802   1.434  0.3281  0.0204 -1.3078
 3136SOL     OW 9696   5.292   4.116   2.633  0.6762 -0.5541  0.0482
 3136SOL    HW1 9697   5.259   4.022   2.635 -1.2404  0.0742  2.0116
 3136SOL    HW2 9698   5.380   4.120   2.585  0.9570 -3.3710  0.1912
 3137SOL     OW 9699   5.442   5.678   0.492  0.0710 -0.2486  0.6922
 3137SOL    HW1 9700   5.538   5.649   0.483  0.6714  0.8261  2.9586
 3137SOL    HW2 9701   5.436   5.777   0.481 -0.4439 -0.0500  2.4583
 3138SOL     OW 9702   0.500   5.793   4.793 -0.0030 -0.4234  0.3759
 3138SOL    HW1 9703   0.547   5.716   4.835  1.3637 -1.4389 -2.7299
 3138SOL    HW2 9704   0.547   5.878   4.817 -1.1309 -0.4811  3.2743
 3139SOL     OW 9705   0.373   4.228   4.205 -1.2070  0.8743  0.1082
 3139SOL    HW1 9706   0.336   4.256   4.293 -0.6440 -1.2746  1.1002
 3139SOL    HW2 9707   0.377   4.128   4.200  2.2505  0.9059 -0.8422
 3140SOL     OW 9708   4.730   3.610   0.765  0.5312  0.1594 -0.3931
 3140SOL    HW1 9709   4.739   3.520   0.807 -2.1304 -0.0246 -0.0108
 3140SOL    HW2 9710   4.730   3.600   0.665  1.2139 -0.1389 -0.3636
 3141SOL     OW 9711   3.814   0.693   3.572  0.1264  0.2437  0.3334
 3141SOL    HW1 9712   3.721   0.698   3.536 -0.0519 -2.1740  0.3078
 3141SOL    HW2 9713   3.813   0.645   3.660  1.5096 -1.1996 -0.4047
 3142SOL     OW 9714   4.836   3.079   1.119  0.2342  0.2844  0.4076
 3142SOL    HW1 9715   4.755   3.126   1.083 -0.4624 -0.5258  0.8721
 3142SOL    HW2 9716   4.843   2.988   1.078  0.1535 -0.1547  1.3413
 3143SOL     OW 9717   4.068   4.826   1.817  0.2535  0.3181 -0.1104
 3143SOL    HW1 9718   4.049   4.918   1.853  1.4487 -0.5190  2.9971
 3143SOL    HW2 9719   4.160   4.798   1.843  0.3905 -1.3287 -2.0946
 3144SOL     OW 9720   1.246   2.230   0.045 -0.7027  0.4945  0.2763
 3144SOL    HW1 9721   1.279   2.149  -0.004 -0.4783  0.6837  0.1124
 3144SOL    HW2 9722   1.287   2.233   0.136 -1.0215  0.2101  0.4307
 3145SOL     OW 9723   0.027   3.882   3.639 -0.1798  0.2540  0.0564
 3145SOL    HW1 9724   0.073   3.814   3.697 -0.2567  0.0498 -0.1245
 3145SOL    HW2 9725  -0.012   3.954   3.697  1.5032  1.1496  0.1577
 3146SOL     OW 9726   2.888   0.267   1.027  0.1930 -0.2708  0.2169
 3146SOL    HW1 9727   2.965   0.202   1.025  1.1637  0.7632  1.5665
 3146SOL    HW2 9728   2.808   0.223   1.068  0.9169 -0.5735  1.3575
 3147SOL     OW 9729   0.653   1.889   5.828 -0.3258 -0.7380  0.0984
 3147SOL    HW1 9730   0.685   1.982   5.844  1.7698 -1.1978 -1.1162
 3147SOL    HW2 9731   0.611   1.883   5.737  1.8498 -1.4787 -0.9122
 3148SOL     OW 9732   1.129   5.681   3.404  0.7739 -0.2349  0.3306
 3148SOL    HW1 9733   1.062   5.645   3.338 -0.3101  0.9419  0.7443
 3148SOL    HW2 9734   1.195   5.609   3.427  1.8623 -0.4048 -2.8212
 3149SOL     OW 9735   4.492   5.403   1.258 -0.1135  0.0289 -0.2573
 3149SOL    HW1 9736   4.540   5.483   1.293 -1.0698  1.2220 -1.5646
 3149SOL    HW2 9737   4.545   5.361   1.184  0.1071 -0.1872  0.0229
 3150SOL     OW 9738   5.490   2.194   5.284 -0.4015 -0.2896  0.5155
 3150SOL    HW1 9739   5.445   2.118   5.238 -2.1426 -0.1298  1.8540
 3150SOL    HW2 9740   5.426   2.237   5.348  1.0282  1.3152  0.9457
 3151SOL     OW 9741   3.139   5.821   3.935  0.0457  0.2766  0.0884
 3151SOL    HW1 9742   3.186   5.737   3.904  0.1468  0.8230 -1.3212
 3151SOL    HW2 9743   3.048   5.797   3.969  0.8501 -0.6469  1.6951
 3152SOL     OW 9744   1.402   0.406   3.452  0.2241 -0.2584  0.4914
 3152SOL    HW1 9745   1.470   0.478   3.460 -0.3085  0.1487  1.7320
 3152SOL    HW2 9746   1.444   0.317   3.469  1.0949 -0.4007 -2.0392
 3153SOL     OW 9747   4.361   2.720   5.186 -0.3011 -0.3368  0.9958
 3153SOL    HW1 9748   4.372   2.814   5.220  0.8846 -0.2276  0.3708
 3153SOL    HW2 9749   4.314   2.723   5.098  1.3088 -0.1295  0.0923
 3154SOL     OW 9750   3.523   0.350   3.713  0.1036  0.1904  0.3179
 3154SOL    HW1 9751   3.523   0.443   3.751  0.8302  0.0682  0.6308
 3154SOL    HW2 9752   3.599   0.298   3.752  0.3944 -0.1876 -0.7204
 3155SOL     OW 9753   3.285   0.103   0.414  0.2164 -0.0699 -0.5467
 3155SOL    HW1 9754   3.303   0.141   0.323  0.4848 -0.1127 -0.5105
 3155SOL    HW2 9755   3.369   0.103   0.468 -0.0183  0.2643 -0.1827
 3156SOL     OW 9756   0.935   1.726   2.125 -0.8261 -0.1316 -0.1178
 3156SOL    HW1 9757   0.947   1.719   2.026 -0.6650 -0.3658 -0.0839
 3156SOL    HW2 9758   0.888   1.811   2.148 -2.3475 -0.8264 -0.5326
 3157SOL     OW 9759   4.417   2.555   1.474 -0.6812  0.7725 -0.2722
 3157SOL    HW1 9760   4.332   2.586   1.517  0.1211  0.7852  1.3669
 3157SOL    HW2 9761   4.416   2.455   1.467 -1.3645  0.8469 -1.4564
 3158SOL     OW 9762   2.507   0.976   3.658 -0.5348 -0.0429  0.2318
 3158SOL    HW1 9763   2.498   0.945   3.563  0.4919 -0.1802  0.1661
 3158SOL    HW2 9764   2.548   1.067   3.660 -0.5973 -0.0209  0.5435
 3159SOL     OW 9765   0.668   4.575   3.480  0.0522  0.0341 -0.0483
 3159SOL    HW1 9766   0.689   4.494   3.535 -0.5311  0.5680  0.9873
 3159SOL    HW2 9767   0.571   4.574   3.455 -0.0253  0.5481  0.2145
 3160SOL     OW 9768   1.074   5.335   3.493  0.0276  0.8032 -0.3497
 3160SOL    HW1 9769   1.066   5.237   3.511  1.2104  0.8777  0.6886
 3160SOL    HW2 9770   0.992   5.382   3.526 -0.3445  0.2276 -0.4435
 3161SOL     OW 9771   4.806   1.876   2.964 -0.0896  0.4890  0.6978
 3161SOL    HW1 9772   4.819   1.802   2.898 -0.3200  1.6079 -0.6453
 3161SOL    HW2 9773   4.781   1.838   3.052 -1.4474 -0.9915 -0.2733
 3162SOL     OW 9774   4.070   5.486   3.918 -1.4323 -0.0102  0.0450
 3162SOL    HW1 9775   4.119   5.554   3.974 -0.4745 -0.5077 -0.1679
 3162SOL    HW2 9776   4.093   5.394   3.949  1.4890 -0.4786 -2.9175
 3163SOL     OW 9777   3.871   4.031   3.015  0.3376 -0.2099 -0.1649
 3163SOL    HW1 9778   3.894   4.070   2.925  0.0079  1.1496  0.3097
 3163SOL    HW2 9779   3.955   4.011   3.065  0.6556  2.8392  0.7623
 3164SOL     OW 9780   5.053   3.228   5.832  0.0054 -0.0901  0.1092
 3164SOL    HW1 9781   5.082   3.317   5.867 -2.9137  0.7750  0.6052
 3164SOL    HW2 9782   5.067   3.226   5.733 -1.6974  1.8086 -0.2491
 3165SOL     OW 9783   5.677   4.304   1.992 -0.0512  0.2134 -0.1235
 3165SOL    HW1 9784   5.637   4.389   2.028 -1.4679 -0.0169 -1.0635
 3165SOL    HW2 9785   5.634   4.282   1.904  1.0317 -0.9413 -0.3864
 3166SOL     OW 9786   0.819   0.375   1.951 -0.1238  0.1595 -0.8057
 3166SOL    HW1 9787   0.904   0.345   1.995 -0.4982  1.6341  1.0658
 3166SOL    HW2 9788   0.751   0.302   1.957 -0.0291  0.1741  0.7549
 3167SOL     OW 9789   4.218   0.288   2.770 -0.2148 -0.2869 -0.1853
 3167SOL    HW1 9790   4.166   0.214   2.727  1.1480 -1.0520 -0.5647
 3167SOL    HW2 9791   4.312   0.258   2.786  0.7764  1.7901 -1.6031
 3168SOL     OW 9792   4.195   1.914   1.984  0.2013  0.4378 -0.4990
 3168SOL    HW1 9793   4.240   1.975   2.050 -0.3315 -1.4045  1.7163
 3168SOL    HW2 9794   4.221   1.819   2.003 -2.2840 -0.4364 -1.0202
 3169SOL     OW 9795   2.177   5.032   4.172  0.5418  0.1914  0.0349
 3169SOL    HW1 9796   2.132   5.101   4.229 -0.3971  0.4924 -1.0400
 3169SOL    HW2 9797   2.276   5.046   4.174  0.3889  1.3343  0.1174
 3170SOL     OW 9798   5.187   0.386   4.717  0.4282  0.2021  0.8583
 3170SOL    HW1 9799   5.278   0.412   4.749  1.0872 -2.6624  1.6319
 3170SOL    HW2 9800   5.155   0.308   4.771 -1.9427  0.3223 -0.2790
 3171SOL     OW 9801   3.925   0.841   1.204 -0.3715  0.2175  0.3385
 3171SOL    HW1 9802   3.860   0.917   1.204  0.8813  1.3283 -0.0779
 3171SOL    HW2 9803   3.977   0.842   1.290 -1.6130 -1.3574  1.1826
 3172SOL     OW 9804   2.896   0.518   0.596 -0.4639  0.1068 -0.3916
 3172SOL    HW1 9805   2.884   0.512   0.695  0.3207  0.5926 -0.2633
 3172SOL    HW2 9806   2.852   0.600   0.561 -0.3032  0.2018 -0.3723
 3173SOL     OW 9807   0.425   5.428   4.405 -0.7998  0.1153  0.1737
 3173SOL    HW1 9808   0.485   5.469   4.474  0.9257 -0.2468 -1.0276
 3173SOL    HW2 9809   0.411   5.331   4.426  1.1054 -0.4212 -0.8003
 3174SOL     OW 9810   5.136   0.765   0.399  0.7554  0.0219  0.2191
 3174SOL    HW1 9811   5.054   0.734   0.350  0.3228  1.0359  0.2780
 3174SOL    HW2 9812   5.151   0.707   0.479 -0.4946  0.4475  0.7774
 3175SOL     OW 9813   1.778   3.820   5.701 -0.0515  0.1161  0.0170
 3175SOL    HW1 9814   1.785   3.853   5.607  0.6930  1.7031  0.6031
 3175SOL    HW2 9815   1.682   3.824   5.731  0.0882  2.6019  0.3261
 3176SOL     OW 9816   0.765   5.559   2.043  0.1636 -0.0753  0.2958
 3176SOL    HW1 9817   0.860   5.559   2.073  0.4356 -2.4590 -0.3409
 3176SOL    HW2 9818   0.762   5.551   1.943 -0.7500  2.9708 -0.0200
 3177SOL     OW 9819   0.979   4.119   1.741  0.1004 -0.2565  0.0470
 3177SOL    HW1 9820   0.884   4.135   1.766  0.0790  0.8642 -0.6985
 3177SOL    HW2 9821   1.036   4.192   1.778  0.3260  0.3984 -1.5197
 3178SOL     OW 9822   3.278   0.917   5.472  0.0414 -0.5068 -0.2492
 3178SOL    HW1 9823   3.182   0.889   5.478 -1.0847  2.8698 -0.3015
 3178SOL    HW2 9824   3.311   0.943   5.562  0.4377 -0.2759 -0.4598
 3179SOL     OW 9825   4.905   5.554   4.812  0.7079 -0.5361  0.0868
 3179SOL    HW1 9826   4.983   5.535   4.871  2.1597 -0.5858 -1.7533
 3179SOL    HW2 9827   4.832   5.489   4.832  2.3423 -2.6041 -0.2692
 3180SOL     OW 9828   1.371   5.080   0.143 -0.0018  0.4802 -0.0622
 3180SOL    HW1 9829   1.451   5.116   0.094  0.1757 -0.4563 -0.4823
 3180SOL    HW2 9830   1.331   5.005   0.091  0.2362 -0.6030  1.2464
 3181SOL     OW 9831   0.056   4.161   1.668 -0.7285  0.0554 -0.1429
 3181SOL    HW1 9832  -0.023   4.151   1.607 -0.6014  1.4856 -0.5581
 3181SOL    HW2 9833   0.121   4.226   1.629  1.1424 -1.7792 -0.2734
 3182SOL     OW 9834   3.644   4.429   3.112 -0.7391  0.4070  0.6589
 3182SOL    HW1 9835   3.694   4.436   3.198  1.0955 -0.0217 -0.3213
 3182SOL    HW2 9836   3.709   4.412   3.037 -2.3152  0.4175 -0.7616
 3183SOL     OW 9837   4.764   2.789   0.304 -0.3023 -0.0625 -0.3279
 3183SOL    HW1 9838   4.703   2.805   0.226 -0.3437 -1.2421 -0.5559
 3183SOL    HW2 9839   4.818   2.707   0.288  1.6274  1.1531 -0.2734
 3184SOL     OW 9840   5.183   3.397   2.409 -0.0333 -0.5653  0.1187
 3184SOL    HW1 9841   5.235   3.398   2.323 -2.2136  2.1302 -1.3484
 3184SOL    HW2 9842   5.105   3.336   2.400 -1.5080  1.3387 -0.7699
 3185SOL     OW 9843   3.208   4.324   1.031  0.1009  0.2553  0.3249
 3185SOL    HW1 9844   3.302   4.337   0.999  0.0308  0.2416  0.1133
 3185SOL    HW2 9845   3.179   4.405   1.082  0.5001 -0.0588  1.0705
 3186SOL     OW 9846   0.349   5.927   4.365 -1.2614 -0.2678  0.1047
 3186SOL    HW1 9847   0.296   5.982   4.429 -1.6318 -0.7913  0.2495
 3186SOL    HW2 9848   0.314   5.942   4.272 -0.5184  0.7344 -0.0244
 3187SOL     OW 9849   1.973   2.046   2.392  0.4513 -0.1478  0.3622
 3187SOL    HW1 9850   2.072   2.051   2.375  0.5133 -0.5223  0.5966
 3187SOL    HW2 9851   1.938   1.958   2.359 -0.2657  0.9244 -1.9728
 3188SOL     OW 9852   0.607   4.400   2.096 -0.3599  0.3143  0.3686
 3188SOL    HW1 9853   0.534   4.339   2.064  0.4738 -0.1926 -0.6256
 3188SOL    HW2 9854   0.691   4.381   2.046  0.7625  0.1879  2.2024
 3189SOL     OW 9855   2.843   1.702   3.799 -0.4455  0.1949 -0.0146
 3189SOL    HW1 9856   2.918   1.656   3.848 -0.9059 -2.8882 -1.9673
 3189SOL    HW2 9857   2.762   1.644   3.799 -1.3410  1.3367 -2.0230
 3190SOL     OW 9858   0.065   2.463   0.534 -0.4584  0.2072 -0.4734
 3190SOL    HW1 9859   0.146   2.463   0.593 -1.1861  1.6086  0.6003
 3190SOL    HW2 9860   0.016   2.377   0.545 -0.0944  0.0845  0.2807
 3191SOL     OW 9861   4.552   3.340   5.110  0.1103  0.0068 -0.2425
 3191SOL    HW1 9862   4.482   3.322   5.041  0.1091 -0.3565 -0.1454
 3191SOL    HW2 9863   4.519   3.311   5.200  0.2846  0.0706 -0.1569
 3192SOL     OW 9864   3.593   2.832   0.383 -0.1269 -0.4114  0.1046
 3192SOL    HW1 9865   3.534   2.791   0.314  1.8572 -0.8130 -1.4316
 3192SOL    HW2 9866   3.685   2.793   0.376  0.4707  0.5092  2.1149
 3193SOL     OW 9867   3.168   4.372   5.021  0.1881 -0.1581  0.5265
 3193SOL    HW1 9868   3.168   4.283   5.066  3.0319 -0.1067  0.8344
 3193SOL    HW2 9869   3.220   4.366   4.936 -1.9418  0.6327 -0.9255
 3194SOL     OW 9870   5.520   4.494   2.756 -0.0411 -0.0793  0.7167
 3194SOL    HW1 9871   5.426   4.514   2.727  0.1102  0.9828  0.9004
 3194SOL    HW2 9872   5.548   4.405   2.720 -0.5752  0.2934 -0.6750
 3195SOL     OW 9873   1.916   5.644   3.545  0.9497 -0.3182  0.0328
 3195SOL    HW1 9874   1.832   5.685   3.579  1.7992  0.6697  1.0394
 3195SOL    HW2 9875   1.931   5.672   3.450 -0.2147 -1.1233 -0.4084
 3196SOL     OW 9876   5.048   0.208   5.546  0.1191 -0.7136  0.0352
 3196SOL    HW1 9877   5.046   0.126   5.488  0.8391  0.3686 -1.5763
 3196SOL    HW2 9878   5.092   0.283   5.497 -2.3210  1.2677  0.6524
 3197SOL     OW 9879   2.619   2.056   1.635  0.0742  0.6703 -0.1343
 3197SOL    HW1 9880   2.538   2.071   1.691  0.0079  1.0526 -0.3257
 3197SOL    HW2 9881   2.679   1.990   1.680 -0.1014  0.7738  0.2603
 3198SOL     OW 9882   5.347   2.032   5.137 -0.2696  0.1475 -0.1643
 3198SOL    HW1 9883   5.345   2.091   5.056  0.0778  1.1035  0.5049
 3198SOL    HW2 9884   5.255   2.027   5.177 -1.0839 -2.4690 -2.0684
 3199SOL     OW 9885   2.520   1.246   4.636 -0.2868 -0.7003  0.4214
 3199SOL    HW1 9886   2.474   1.235   4.548 -1.5546  2.2540  0.6054
 3199SOL    HW2 9887   2.472   1.192   4.706 -0.5577 -1.3825 -0.2808
 3200SOL     OW 9888   5.699   4.333   4.734 -0.1806 -0.1018  0.5460
 3200SOL    HW1 9889   5.765   4.404   4.759  0.8831 -0.9803  0.3140
 3200SOL    HW2 9890   5.673   4.282   4.815  1.8757 -1.7763  0.2335
 3201SOL     OW 9891   4.965   3.857   4.983 -0.1735 -1.2200 -0.5020
 3201SOL    HW1 9892   4.968   3.948   4.941  0.7309 -0.0983  1.7871
 3201SOL    HW2 9893   5.050   3.808   4.963 -0.1592 -1.0868 -0.7722
 3202SOL     OW 9894   1.157   3.958   5.837 -0.2341 -0.3471  0.0064
 3202SOL    HW1 9895   1.085   4.027   5.833 -1.8218 -2.0075 -1.7486
 3202SOL    HW2 9896   1.143   3.899   5.917 -0.5806 -0.3942 -0.0868
 3203SOL     OW 9897   1.598   3.673   4.685  0.4335 -0.0623  0.2224
 3203SOL    HW1 9898   1.580   3.689   4.782  1.7530 -0.2747  0.5284
 3203SOL    HW2 9899   1.532   3.724   4.630  1.2031  2.1630  1.2087
 3204SOL     OW 9900   1.018   2.091   2.339  0.2964  0.3282  0.1942
 3204SOL    HW1 9901   1.065   2.045   2.413  0.1796 -1.7424 -0.9366
 3204SOL    HW2 9902   1.078   2.096   2.259 -1.2074 -2.2881 -1.2483
 3205SOL     OW 9903   2.110   0.147   5.139  0.0435  0.0923  0.7065
 3205SOL    HW1 9904   2.024   0.181   5.101 -0.4712  0.2185  1.9295
 3205SOL    HW2 9905   2.124   0.188   5.230  0.9909 -0.5552  0.8631
 3206SOL     OW 9906   1.491   3.849   4.500  0.2981  0.0996 -0.2891
 3206SOL    HW1 9907   1.411   3.848   4.440 -0.0278  0.8999  0.1089
 3206SOL    HW2 9908   1.572   3.870   4.447  0.6531 -2.8517 -1.1044
 3207SOL     OW 9909   2.430   0.498   5.165 -0.2851 -0.2221 -0.4905
 3207SOL    HW1 9910   2.418   0.439   5.086 -0.1079  0.8635 -1.3516
 3207SOL    HW2 9911   2.491   0.573   5.142 -1.5583  1.0629  0.1436
 3208SOL     OW 9912   5.353   3.423   4.919  0.2624  0.0315  0.1882
 3208SOL    HW1 9913   5.298   3.352   4.875 -0.6720  1.5208 -1.2068
 3208SOL    HW2 9914   5.435   3.440   4.865  1.9034 -1.7855  1.9637
 3209SOL     OW 9915   4.272   2.385   4.555  0.4807  0.2328  0.0611
 3209SOL    HW1 9916   4.191   2.343   4.596  0.4021 -2.4732 -2.5348
 3209SOL    HW2 9917   4.352   2.328   4.574  0.7274 -0.1583 -1.9212
 3210SOL     OW 9918   2.913   2.140   1.775 -0.7510 -0.5160 -0.0474
 3210SOL    HW1 9919   2.894   2.206   1.848 -1.5041 -0.7301 -0.0445
 3210SOL    HW2 9920   3.005   2.156   1.739 -0.0893 -0.8608  1.4308
 3211SOL     OW 9921   4.605   5.124   2.029 -0.0607 -0.6122 -0.3114
 3211SOL    HW1 9922   4.546   5.176   1.968  1.3386  0.0673 -1.1474
 3211SOL    HW2 9923   4.620   5.032   1.992 -2.5035 -1.6986  1.1472
 3212SOL     OW 9924   5.108   4.213   0.064  0.1424 -0.1284 -0.0971
 3212SOL    HW1 9925   5.173   4.288   0.051  0.0135 -0.2072 -1.2328
 3212SOL    HW2 9926   5.014   4.249   0.060  0.0917 -0.2266  0.1827
 3213SOL     OW 9927   4.733   0.862   5.911 -0.0685  0.5873  0.0425
 3213SOL    HW1 9928   4.664   0.800   5.947 -0.8280  1.8011  0.7620
 3213SOL    HW2 9929   4.689   0.946   5.880  1.0727  1.3902  0.5184
 3214SOL     OW 9930   2.836   2.773   4.519  0.1373  0.1668  0.2837
 3214SOL    HW1 9931   2.778   2.837   4.468  0.4915  1.7030  1.7486
 3214SOL    HW2 9932   2.927   2.811   4.531  0.5341 -0.8665  0.7062
 3215SOL     OW 9933   2.202   3.726   3.518  0.0187  0.1038  0.1076
 3215SOL    HW1 9934   2.278   3.667   3.493 -0.8600 -0.7776 -0.5567
 3215SOL    HW2 9935   2.152   3.685   3.595 -0.7789 -0.2072 -0.5559
 3216SOL     OW 9936   5.222   5.678   3.123  0.2320  0.0750  0.0388
 3216SOL    HW1 9937   5.153   5.719   3.182 -0.7749 -0.7900 -0.5106
 3216SOL    HW2 9938   5.235   5.582   3.147 -0.3005 -0.3356 -1.2109
 3217SOL     OW 9939   1.465   4.586   4.403 -0.0282  0.1809  0.3124
 3217SOL    HW1 9940   1.405   4.508   4.421  0.0889  0.3255  1.3597
 3217SOL    HW2 9941   1.472   4.600   4.304  0.8504 -1.8414  0.0289
 3218SOL     OW 9942   4.646   2.832   5.537  0.1404  0.5081 -0.1275
 3218SOL    HW1 9943   4.594   2.782   5.607 -1.1795 -0.6548 -1.8409
 3218SOL    HW2 9944   4.599   2.824   5.449  2.2304  1.1202 -1.3695
 3219SOL     OW 9945   1.845   0.995   3.027  0.0022 -0.4047 -0.3653
 3219SOL    HW1 9946   1.817   0.948   3.111 -1.3779 -1.3748 -1.3290
 3219SOL    HW2 9947   1.773   0.987   2.958  0.2038  2.1560 -0.9887
 3220SOL     OW 9948   3.911   5.788   5.803 -0.4456 -0.1453 -0.3706
 3220SOL    HW1 9949   3.927   5.887   5.810 -1.8464  0.0333  0.7262
 3220SOL    HW2 9950   3.813   5.770   5.804 -0.2029 -1.5895 -0.1948
 3221SOL     OW 9951   4.158   1.207   0.682 -0.5415  0.5557 -0.3255
 3221SOL    HW1 9952   4.255   1.204   0.706 -0.3504  1.8871 -0.8651
 3221SOL    HW2 9953   4.128   1.115   0.656  0.7144  0.2288 -0.6923
 3222SOL     OW 9954   5.011   4.746   3.288  0.1562 -0.0538  0.3603
 3222SOL    HW1 9955   5.055   4.743   3.198  1.3306 -1.0418  0.9294
 3222SOL    HW2 9956   4.980   4.654   3.312  0.2879  0.1115  1.1759
 3223SOL     OW 9957   3.424   2.066   5.256 -0.3516  0.3513 -0.2889
 3223SOL    HW1 9958   3.368   2.031   5.331 -0.7504 -1.2135 -1.2574
 3223SOL    HW2 9959   3.521   2.053   5.277 -0.4855 -1.5166 -0.6421
 3224SOL     OW 9960   2.377   3.108   5.921 -0.0511  0.0073  0.3342
 3224SOL    HW1 9961   2.280   3.084   5.926 -0.3897  1.2265  0.0272
 3224SOL    HW2 9962   2.387   3.208   5.926  1.2477 -0.1412  1.2301
 3225SOL     OW 9963   0.137   1.476   2.020  0.3644  0.2167 -0.7156
 3225SOL    HW1 9964   0.206   1.492   2.091 -0.6195  0.3264  0.2423
 3225SOL    HW2 9965   0.119   1.378   2.012 -0.4486  0.2813  0.1195
 3226SOL     OW 9966   0.209   2.428   1.803 -0.1141 -0.3287 -0.6197
 3226SOL    HW1 9967   0.160   2.514   1.817  0.2722  0.0078 -1.2846
 3226SOL    HW2 9968   0.252   2.429   1.713  0.9151 -0.7136 -0.1437
 3227SOL     OW 9969   4.497   1.863   0.467 -0.2476 -0.6128  0.2945
 3227SOL    HW1 9970   4.485   1.833   0.561 -0.4873 -0.3586  0.3471
 3227SOL    HW2 9971   4.559   1.942   0.464 -1.6992  0.5954  0.4627
 3228SOL     OW 9972   0.437   1.339   2.905 -0.2900  0.1062 -0.3048
 3228SOL    HW1 9973   0.489   1.399   2.965 -0.7490  1.3987 -1.1672
 3228SOL    HW2 9974   0.348   1.318   2.948  0.6552 -1.6874  0.9295
 3229SOL     OW 9975   2.456   4.286   1.760 -0.0113  0.1114  0.2374
 3229SOL    HW1 9976   2.421   4.362   1.815  1.3847  0.9496  0.0289
 3229SOL    HW2 9977   2.411   4.201   1.787 -0.5157  0.7735  1.5395
 3230SOL     OW 9978   4.165   4.685   3.550 -0.1591 -0.2524  0.0523
 3230SOL    HW1 9979   4.245   4.648   3.502 -1.4690 -0.9936 -1.6924
 3230SOL    HW2 9980   4.124   4.615   3.607 -0.9251 -0.6511 -0.9477
 3231SOL     OW 9981   0.614   1.706   0.060  0.2686  0.0757 -0.1796
 3231SOL    HW1 9982   0.623   1.782  -0.004 -0.8850 -0.5635 -1.1505
 3231SOL    HW2 9983   0.608   1.742   0.153 -0.1781  1.1777 -0.6080
 3232SOL     OW 9984   3.640   1.467   5.769 -0.0999  0.3303  0.1679
 3232SOL    HW1 9985   3.581   1.464   5.689 -1.2786 -0.0747  1.0261
 3232SOL    HW2 9986   3.722   1.411   5.753 -0.1582  0.5351 -0.8657
 3233SOL     OW 9987   3.234   4.942   3.117 -0.1291 -0.1949  0.0403
 3233SOL    HW1 9988   3.208   5.022   3.064  0.9873 -0.4854 -0.9918
 3233SOL    HW2 9989   3.329   4.952   3.147  0.3547 -1.5453 -0.9435
 3234SOL     OW 9990   1.880   0.262   5.035  0.4392 -0.1466 -0.5356
 3234SOL    HW1 9991   1.830   0.231   4.955  0.2930  0.0986 -0.5412
 3234SOL    HW2 9992   1.817   0.266   5.113  0.3313  0.6447 -0.6593
 3235SOL     OW 9993   2.884   5.551   1.120 -0.4441 -0.2306 -0.3528
 3235SOL    HW1 9994   2.949   5.565   1.045 -0.0040  1.9371  0.3413
 3235SOL    HW2 9995   2.928   5.575   1.206 -1.2423 -1.7650  0.5085
 3236SOL     OW 9996   2.562   0.890   4.462  0.2386  0.2875 -0.1202
 3236SOL    HW1 9997   2.495   0.949   4.507 -2.2361 -2.3257 -0.0772
 3236SOL    HW2 9998   2.529   0.865   4.371  1.8423  0.0262 -0.6607
 3237SOL     OW 9999   0.593   0.105   4.873 -0.1112 -0.3768 -0.3136
 3237SOL    HW110000   0.616   0.159   4.792  0.7221 -0.1045  0.0883
 3237SOL    HW210001   0.520   0.149   4.924 -1.8160 -1.3985 -1.7750
 3238SOL     OW10002   1.587   2.023   0.671 -0.5098  0.6713 -0.1710
 3238SOL    HW110003   1.607   2.001   0.575 -1.3113 -2.4288  0.2763
 3238SOL    HW210004   1.670   2.055   0.715  0.0080  1.6340 -1.7378
 3239SOL     OW10005   0.874   0.354   1.305  0.3642 -0.2534 -0.1743
 3239SOL    HW110006   0.830   0.369   1.216  0.7483 -1.5276 -0.5968
 3239SOL    HW210007   0.967   0.390   1.304  0.4641 -0.5181 -0.3844
 3240SOL     OW10008   5.713   2.915   2.993 -0.5038 -0.5746  0.5894
 3240SOL    HW110009   5.695   2.844   3.060  0.2442  0.3883  1.8573
 3240SOL    HW210010   5.672   3.001   3.024 -0.3196 -0.1543 -0.2967
 3241SOL     OW10011   1.620   2.005   1.146  0.2705  0.5374  0.1261
 3241SOL    HW110012   1.675   1.928   1.113 -1.5772 -0.5065 -0.6542
 3241SOL    HW210013   1.645   2.025   1.241 -0.0436 -1.8516  0.7902
 3242SOL     OW10014   3.084   5.256   3.448 -0.3706  0.3807 -0.5923
 3242SOL    HW110015   3.166   5.199   3.448  0.0744  0.9994 -0.2907
 3242SOL    HW210016   3.057   5.276   3.542 -0.6892  0.4260 -0.6932
 3243SOL     OW10017   4.105   5.167   5.641 -0.0615  0.2477 -0.1895
 3243SOL    HW110018   4.180   5.113   5.680  0.4626  0.5910 -0.6957
 3243SOL    HW210019   4.069   5.228   5.711 -0.8793 -0.9632  0.4821
 3244SOL     OW10020   4.442   0.892   5.039 -0.2114 -0.0506 -0.0071
 3244SOL    HW110021   4.427   0.990   5.032 -2.1118 -0.1988  1.1557
 3244SOL    HW210022   4.357   0.847   5.067  0.8866 -1.9038  0.5682
 3245SOL     OW10023   0.604   3.265   2.933 -0.8509  0.1687 -0.3975
 3245SOL    HW110024   0.553   3.344   2.967  0.0578  0.8307 -0.5345
 3245SOL    HW210025   0.644   3.215   3.010  1.5263  1.8841 -0.4140
 3246SOL     OW10026   4.109   5.249   4.023 -0.4289  0.0583 -0.3891
 3246SOL    HW110027   4.095   5.192   4.104  3.7028 -0.7067  0.0065
 3246SOL    HW210028   4.153   5.195   3.951  2.2850  2.2534 -0.5430
 3247SOL     OW10029   4.628   4.424   5.074  0.0561 -0.3066  0.6687
 3247SOL    HW110030   4.641   4.489   4.999  0.5389  0.1772  1.1658
 3247SOL    HW210031   4.677   4.339   5.054 -2.7630 -1.6594 -1.2938
 3248SOL     OW10032   1.226   2.667   1.507  0.0291 -0.2529 -0.3931
 3248SOL    HW110033   1.200   2.761   1.526 -0.0689 -0.2734 -0.4239
 3248SOL    HW210034   1.319   2.664   1.471 -0.0662 -0.1413 -0.6485
 3249SOL     OW10035   3.378   2.622   2.708  0.2509 -0.3580  0.0327
 3249SOL    HW110036   3.377   2.716   2.673  0.5188 -0.4708 -0.2820
 3249SOL    HW210037   3.391   2.558   2.633  0.9379 -0.5982  0.3427
 3250SOL     OW10038   5.431   0.318   3.511  0.2205 -0.1176  0.1448
 3250SOL    HW110039   5.427   0.250   3.437 -0.2587 -0.3178  0.3518
 3250SOL    HW210040   5.345   0.368   3.515  0.1318 -0.3164  0.7666
 3251SOL     OW10041   1.337   5.279   5.495 -0.3517  0.0241  0.4686
 3251SOL    HW110042   1.290   5.224   5.426  1.7103 -1.3646  0.0838
 3251SOL    HW210043   1.301   5.373   5.493 -1.2230 -0.2956 -1.5875
 3252SOL     OW10044   5.460   3.840   3.784 -0.2367  0.1389  0.0233
 3252SOL    HW110045   5.403   3.773   3.832  0.5510 -1.0368 -0.6338
 3252SOL    HW210046   5.550   3.843   3.827 -0.6093  1.6464  0.7664
 3253SOL     OW10047   2.545   4.682   0.392 -0.2922  0.2043 -0.5348
 3253SOL    HW110048   2.464   4.739   0.376 -1.0212  0.0896  2.1818
 3253SOL    HW210049   2.544   4.649   0.487  2.3815 -0.7581 -0.7561
 3254SOL     OW10050   2.661   4.527   4.591 -0.1264 -0.5095  0.6044
 3254SOL    HW110051   2.664   4.621   4.557 -0.8403 -0.4738  0.6298
 3254SOL    HW210052   2.569   4.489   4.578  0.2543 -1.3353  0.2591
 3255SOL     OW10053   0.157   5.843   0.251 -0.2785  0.2340  0.1264
 3255SOL    HW110054   0.117   5.790   0.176 -0.1265 -0.2098  0.3569
 3255SOL    HW210055   0.180   5.782   0.326 -3.6454  1.0251  2.0150
 3256SOL     OW10056   3.305   2.763   5.407  0.8984  0.4878 -0.3403
 3256SOL    HW110057   3.310   2.774   5.307  1.3358  0.6915 -0.2999
 3256SOL    HW210058   3.332   2.671   5.432 -3.3948 -1.0889 -0.7327
 3257SOL     OW10059   4.816   0.494   3.679  0.4640  0.3120  0.4612
 3257SOL    HW110060   4.863   0.541   3.605 -2.1534  3.3467  0.4953
 3257SOL    HW210061   4.745   0.435   3.641  2.7704 -2.7190  0.4905
 3258SOL     OW10062   3.300   3.266   2.941 -0.2839 -0.3799  0.3186
 3258SOL    HW110063   3.269   3.214   3.020 -0.8700 -0.2752  0.1608
 3258SOL    HW210064   3.269   3.361   2.948 -0.1007 -0.3011  0.1026
 3259SOL     OW10065   0.073   1.044   5.532  0.0320  0.0462  0.0666
 3259SOL    HW110066   0.025   1.063   5.446 -2.1537  1.5042  1.5364
 3259SOL    HW210067   0.018   0.984   5.589  1.9909 -1.9008  0.0652
 3260SOL     OW10068   4.584   1.345   2.057 -0.1070 -0.0604 -0.1832
 3260SOL    HW110069   4.627   1.405   1.989 -0.2488 -1.4983 -1.5833
 3260SOL    HW210070   4.511   1.293   2.014  0.8331 -2.1831  0.6683
 3261SOL     OW10071   3.243   3.339   4.802 -0.3439 -0.1351  0.9203
 3261SOL    HW110072   3.204   3.355   4.892  0.1501 -0.0701  1.1243
 3261SOL    HW210073   3.174   3.357   4.732 -1.0393 -1.1997  1.3235
 3262SOL     OW10074   4.489   4.666   1.246  0.1793 -0.2819 -0.0016
 3262SOL    HW110075   4.462   4.617   1.329 -0.6714 -0.1840 -0.2121
 3262SOL    HW210076   4.568   4.620   1.205 -0.0037 -0.9086  0.3305
 3263SOL     OW10077   2.520   4.723   3.211  0.6673  0.3603 -0.0361
 3263SOL    HW110078   2.515   4.820   3.235  0.8989  0.2454  0.4748
 3263SOL    HW210079   2.605   4.684   3.245  1.0461  0.2054 -1.1004
 3264SOL     OW10080   3.605   4.918   1.974 -0.2357 -0.1800 -0.5287
 3264SOL    HW110081   3.609   5.017   1.966 -1.6625 -0.0046  0.4448
 3264SOL    HW210082   3.585   4.878   1.885 -0.6212  0.4900 -0.7495
 3265SOL     OW10083   4.310   0.455   1.865 -0.1566  0.4526  0.3260
 3265SOL    HW110084   4.223   0.418   1.899  0.1185  1.1826  1.9122
 3265SOL    HW210085   4.316   0.441   1.766 -1.7011 -0.3593  0.3212
 3266SOL     OW10086   0.478   0.945   4.928  0.0537  0.3130  0.4131
 3266SOL    HW110087   0.489   0.910   5.021  0.2716 -0.3348  0.1427
 3266SOL    HW210088   0.429   0.879   4.872  0.3074  0.5151 -0.0537
 3267SOL     OW10089   0.817   4.016   5.282  0.4431 -0.3441 -0.4259
 3267SOL    HW110090   0.757   4.071   5.224  1.1904 -1.0171 -1.9140
 3267SOL    HW210091   0.820   3.922   5.247  4.1041  0.1423 -1.9529
 3268SOL     OW10092   5.666   4.098   2.200  1.0154 -0.0436  0.6438
 3268SOL    HW110093   5.630   4.150   2.277  0.3147  0.7136 -0.1730
 3268SOL    HW210094   5.663   4.155   2.118  3.2650 -0.2593  0.3586
 3269SOL     OW10095   5.228   0.138   2.300 -0.4622  0.0180 -0.4332
 3269SOL    HW110096   5.217   0.238   2.302 -0.2887  0.0327  0.3548
 3269SOL    HW210097   5.284   0.113   2.221 -1.7234  0.3977 -1.4913
 3270SOL     OW10098   1.419   2.699   2.007  0.4782 -0.3291  0.2306
 3270SOL    HW110099   1.419   2.774   1.941 -0.9594 -0.9530 -0.5320
 3270SOL    HW210100   1.467   2.620   1.969 -1.1392 -1.0065 -0.5162
 3271SOL     OW10101   1.383   1.375   3.725 -0.4825  0.3628 -0.2502
 3271SOL    HW110102   1.451   1.438   3.689  0.4070 -0.1752  0.4423
 3271SOL    HW210103   1.297   1.388   3.676  0.2230  0.7538 -1.4469
 3272SOL     OW10104   3.635   3.556   5.658 -0.4987 -0.4283  0.0481
 3272SOL    HW110105   3.665   3.496   5.733  0.9571  0.2330  0.0301
 3272SOL    HW210106   3.565   3.618   5.691  1.0602  0.7538  1.2741
 3273SOL     OW10107   1.799   1.745   4.901 -0.5371  0.5427  0.2180
 3273SOL    HW110108   1.885   1.789   4.877 -0.8335  0.8602 -0.2814
 3273SOL    HW210109   1.777   1.675   4.833 -0.4615  0.1693  0.5785
 3274SOL     OW10110   4.413   0.394   5.666 -0.3354  0.0364 -0.0269
 3274SOL    HW110111   4.314   0.397   5.658 -0.3770 -0.1669  0.3894
 3274SOL    HW210112   4.443   0.457   5.738 -0.2775 -0.9136  0.7874
 3275SOL     OW10113   0.497   1.884   5.606 -0.3367  0.2909 -0.0118
 3275SOL    HW110114   0.416   1.909   5.659 -0.4058 -0.6869  0.3574
 3275SOL    HW210115   0.476   1.807   5.546  0.9281 -1.6813  1.9178
 3276SOL     OW10116   1.460   1.644   0.693  0.1358 -0.5358  0.9093
 3276SOL    HW110117   1.387   1.711   0.682  0.8797 -0.0435 -2.0125
 3276SOL    HW210118   1.453   1.575   0.621  1.4006 -1.6171  1.7714
 3277SOL     OW10119   1.046   0.144   3.830 -0.2098 -0.0953  0.5537
 3277SOL    HW110120   1.146   0.142   3.834 -0.0138  2.8346 -0.5848
 3277SOL    HW210121   1.009   0.070   3.888  2.5553 -1.4592  0.7607
 3278SOL     OW10122   5.902   3.577   5.058 -0.6648 -0.1624  0.1952
 3278SOL    HW110123   5.916   3.563   4.960 -1.3243  2.0710 -0.2864
 3278SOL    HW210124   5.831   3.646   5.071 -1.0242 -0.8688  2.2862
 3279SOL     OW10125   3.046   5.870   1.374  0.0896  0.4396  0.1801
 3279SOL    HW110126   2.970   5.923   1.337  0.5358  0.1024 -1.2959
 3279SOL    HW210127   3.040   5.776   1.342  1.4659  0.5626 -0.5098
 3280SOL     OW10128   1.421   3.708   0.677 -0.2432  0.0689  0.3193
 3280SOL    HW110129   1.323   3.728   0.676 -0.6997 -1.8194 -2.3989
 3280SOL    HW210130   1.435   3.613   0.706  0.7391  0.1372  0.1012
 3281SOL     OW10131   2.350   4.781   0.206 -0.4879 -0.4537 -0.1475
 3281SOL    HW110132   2.268   4.835   0.184 -0.2748 -0.0943 -0.0665
 3281SOL    HW210133   2.404   4.768   0.123 -0.5561 -0.5749 -0.1736
 3282SOL     OW10134   0.425   3.672   3.828  0.4383  0.2937 -0.1774
 3282SOL    HW110135   0.371   3.588   3.829 -1.0505  1.1867  1.7445
 3282SOL    HW210136   0.396   3.730   3.752  0.1548 -0.1278 -0.3915
 3283SOL     OW10137   2.645   5.090   0.591  0.6341  0.2467 -0.1256
 3283SOL    HW110138   2.656   5.065   0.495 -3.0733  0.6568 -0.8147
 3283SOL    HW210139   2.707   5.165   0.613  1.1842  0.5274 -2.3847
 3284SOL     OW10140   3.284   5.724   2.236  0.4675  0.3755  0.4578
 3284SOL    HW110141   3.284   5.734   2.335  0.0658 -3.4563  0.9790
 3284SOL    HW210142   3.362   5.669   2.207  0.3226  1.0284 -1.3339
 3285SOL     OW10143   5.763   4.938   0.350 -0.2463 -0.6662 -0.0286
 3285SOL    HW110144   5.677   4.977   0.317  0.1080  0.0955 -0.0728
 3285SOL    HW210145   5.753   4.913   0.447 -0.4860 -0.4891 -0.0065
 3286SOL     OW10146   2.148   0.847   5.712 -0.1760  0.3471 -0.2620
 3286SOL    HW110147   2.245   0.838   5.735 -0.0176  0.7941 -0.7493
 3286SOL    HW210148   2.125   0.943   5.698 -0.4890  0.1698 -1.0018
 3287SOL     OW10149   1.657   3.317   1.554 -0.0804 -0.3140  0.5730
 3287SOL    HW110150   1.589   3.281   1.490  0.8544  0.5250 -0.9398
 3287SOL    HW210151   1.654   3.417   1.553  0.8922 -0.2711  0.8020
 3288SOL     OW10152   5.532   2.743   2.240 -0.1983  0.7639 -0.2994
 3288SOL    HW110153   5.615   2.692   2.261 -1.1163 -0.8888 -0.5180
 3288SOL    HW210154   5.506   2.799   2.319  0.0258 -0.2711  0.5322
 3289SOL     OW10155   5.916   1.336   0.387 -0.5469 -0.0816  0.0512
 3289SOL    HW110156   5.980   1.412   0.372  0.8777 -1.2308  0.1220
 3289SOL    HW210157   5.871   1.314   0.300  0.0482 -0.0501 -0.2678
 3290SOL     OW10158   1.008   3.884   3.248 -0.6579 -0.2672  0.1492
 3290SOL    HW110159   0.979   3.820   3.320  0.2276 -0.6838  0.1475
 3290SOL    HW210160   0.972   3.975   3.269 -1.3091 -0.6056  0.5478
 3291SOL     OW10161   3.996   0.864   2.314 -0.0870  0.3292  0.6585
 3291SOL    HW110162   3.987   0.766   2.331  0.3342  0.3763  1.1805
 3291SOL    HW210163   3.908   0.901   2.281 -0.7161  0.0860  2.0102
 3292SOL     OW10164   3.025   4.849   2.978  0.1583 -0.3879  0.2974
 3292SOL    HW110165   3.103   4.890   3.026  0.1870  0.2353 -0.2738
 3292SOL    HW210166   2.947   4.843   3.041  0.8110 -1.4950  1.0275
 3293SOL     OW10167   0.054   3.603   5.319 -0.3638 -0.6942  0.1989
 3293SOL    HW110168   0.027   3.507   5.320  1.3528 -1.2091  0.6591
 3293SOL    HW210169   0.026   3.644   5.232 -1.3714 -1.5317  0.1163
 3294SOL     OW10170   2.406   1.155   4.418 -0.5356  0.3259  0.5784
 3294SOL    HW110171   2.306   1.148   4.414 -0.4916  0.1090 -0.4484
 3294SOL    HW210172   2.442   1.162   4.325  0.4921 -0.7991  0.8728
 3295SOL     OW10173   0.337   3.609   1.033  0.1341 -0.1650 -0.0403
 3295SOL    HW110174   0.427   3.613   0.989  0.2083  0.0763  0.1299
 3295SOL    HW210175   0.348   3.614   1.132 -0.0827  0.1580 -0.0316
 3296SOL     OW10176   4.716   5.617   5.506 -0.3824  0.0816 -0.5620
 3296SOL    HW110177   4.630   5.597   5.554 -1.6391  2.3921 -1.7082
 3296SOL    HW210178   4.696   5.649   5.413  1.7944 -0.2586 -1.2049
 3297SOL     OW10179   5.298   1.833   1.867 -0.3747 -0.2940  0.0393
 3297SOL    HW110180   5.370   1.764   1.882 -0.0135  0.2621  0.9549
 3297SOL    HW210181   5.209   1.788   1.859 -0.0455 -0.9193 -0.1804
 3298SOL     OW10182   4.189   1.885   0.896  0.2056 -0.2458 -0.2631
 3298SOL    HW110183   4.184   1.792   0.931  1.0103 -0.7193 -1.3395
 3298SOL    HW210184   4.110   1.902   0.836 -1.2578  0.6186  1.8013
 3299SOL     OW10185   4.184   2.553   5.276  0.3252  0.5351  0.7584
 3299SOL    HW110186   4.251   2.623   5.252 -0.4019  0.9606 -0.1168
 3299SOL    HW210187   4.096   2.575   5.234  0.2324 -1.2343 -0.0753
 3300SOL     OW10188   3.930   0.614   2.370  0.4153 -0.1353  0.2023
 3300SOL    HW110189   3.933   0.562   2.455 -1.4157 -0.4418  0.1031
 3300SOL    HW210190   3.841   0.604   2.327  0.9512  0.8719 -1.2363
 3301SOL     OW10191   0.964   0.535   1.774 -0.1202  0.1543  0.1834
 3301SOL    HW110192   0.908   0.482   1.838 -0.2425  0.8874  0.7023
 3301SOL    HW210193   0.904   0.586   1.712 -0.0018 -0.6668 -0.6288
 3302SOL     OW10194   1.857   1.215   1.548  0.7132 -0.2033 -0.5621
 3302SOL    HW110195   1.775   1.270   1.531  0.7178  0.0142  0.1073
 3302SOL    HW210196   1.832   1.118   1.547  0.1414 -0.1128  1.1036
 3303SOL     OW10197   3.352   0.199   0.907  0.3747  0.2869  1.0344
 3303SOL    HW110198   3.427   0.257   0.938  0.6645 -0.4295  1.7128
 3303SOL    HW210199   3.388   0.124   0.852  0.1541 -0.0502  1.3474
 3304SOL     OW10200   0.182   0.618   1.003 -0.2327 -0.4128  0.6101
 3304SOL    HW110201   0.251   0.668   1.057 -0.3283  0.0508  0.2991
 3304SOL    HW210202   0.192   0.520   1.022  0.7553 -0.3888  0.2970
 3305SOL     OW10203   1.234   2.303   1.171  0.4770 -0.3172 -0.0576
 3305SOL    HW110204   1.234   2.216   1.220 -3.4821 -0.0755  0.7225
 3305SOL    HW210205   1.198   2.375   1.231  1.2058  1.3188 -1.4911
 3306SOL     OW10206   2.869   2.535   5.941 -0.2576 -0.5122 -0.0320
 3306SOL    HW110207   2.929   2.613   5.925 -1.9698  1.2387  1.5944
 3306SOL    HW210208   2.915   2.471   6.003  0.0751  0.7050  1.0391
 3307SOL     OW10209   2.642   2.024   5.104 -0.7941 -0.3323  0.1086
 3307SOL    HW110210   2.652   1.998   5.200 -1.2776 -0.2375  0.1869
 3307SOL    HW210211   2.721   2.078   5.076  0.8421 -2.8278 -0.3964
 3308SOL     OW10212   4.673  -0.007   4.658  0.2976  0.5460  0.2237
 3308SOL    HW110213   4.612  -0.022   4.735 -1.4533  0.2711 -1.1725
 3308SOL    HW210214   4.665   0.088   4.626 -0.3557  0.1759 -0.7458
 3309SOL     OW10215   4.403   3.476   0.583 -0.5281 -0.1064  0.0077
 3309SOL    HW110216   4.321   3.424   0.562 -2.2716  1.9926  1.2627
 3309SOL    HW210217   4.395   3.518   0.673  0.7489  2.2992 -0.8811
 3310SOL     OW10218   0.176   3.034   2.880  0.3117  0.0240  0.3678
 3310SOL    HW110219   0.089   3.072   2.910  1.7177  1.6125  2.7747
 3310SOL    HW210220   0.161   2.942   2.843 -2.2308 -0.1650  1.6468
 3311SOL     OW10221   1.365   1.348   1.451 -0.4903  0.4260  0.3902
 3311SOL    HW110222   1.374   1.342   1.550  1.3013  0.5115  0.2687
 3311SOL    HW210223   1.444   1.306   1.407 -0.7783  1.2300 -0.9815
 3312SOL     OW10224   5.705   1.981   0.747  0.1106 -1.2388 -0.0583
 3312SOL    HW110225   5.725   2.076   0.774  0.5071 -0.9408 -1.3014
 3312SOL    HW210226   5.788   1.940   0.708 -0.2327 -1.8816 -0.1164
 3313SOL     OW10227   0.453   2.414   2.396  0.8010 -0.1281  0.4449
 3313SOL    HW110228   0.479   2.489   2.458  0.2577 -0.7395  1.4360
 3313SOL    HW210229   0.530   2.393   2.336  1.4786  0.2413  1.1616
 3314SOL     OW10230   5.079   5.842   5.025 -0.2602 -0.2217  0.4699
 3314SOL    HW110231   5.024   5.829   4.942  0.0069  0.7768  0.1235
 3314SOL    HW210232   5.031   5.904   5.087 -0.7483 -1.4436  1.3601
 3315SOL     OW10233   5.202   1.385   1.245 -0.4314 -0.1008  0.0383
 3315SOL    HW110234   5.147   1.466   1.260 -1.6190 -1.0923  1.3245
 3315SOL    HW210235   5.143   1.305   1.235  0.7270 -1.0311  0.2854
 3316SOL     OW10236   4.568   1.782   3.381  0.3585 -0.8939  0.3243
 3316SOL    HW110237   4.626   1.781   3.299  0.6157  0.3353  0.4788
 3316SOL    HW210238   4.610   1.725   3.452  1.2132 -0.3011  0.3084
 3317SOL     OW10239   0.806   5.668   0.305 -0.2934  0.1224 -0.2794
 3317SOL    HW110240   0.799   5.731   0.227  1.1585 -1.1396 -1.4917
 3317SOL    HW210241   0.834   5.719   0.386 -0.4912  1.2436 -0.8907
 3318SOL     OW10242   5.543   1.041   3.353  0.4112 -0.0556 -0.5044
 3318SOL    HW110243   5.451   1.028   3.315  0.2350  0.6428 -0.3475
 3318SOL    HW210244   5.609   0.985   3.303 -0.1243 -0.6857 -0.5127
 3319SOL     OW10245   3.013   0.828   5.435  0.2203  0.2883  0.4822
 3319SOL    HW110246   2.937   0.849   5.373 -1.3196  0.0261  2.1872
 3319SOL    HW210247   3.042   0.733   5.422 -1.3596 -0.3453  1.4214
 3320SOL     OW10248   5.054   2.648   0.439  0.1185  0.4001  0.0542
 3320SOL    HW110249   5.044   2.715   0.512 -1.7262  0.1881  0.0570
 3320SOL    HW210250   5.113   2.573   0.470 -0.2814  0.5349  1.1725
 3321SOL     OW10251   4.375   2.725   3.897  0.1588 -0.0744 -0.3196
 3321SOL    HW110252   4.328   2.684   3.819 -0.2504  0.9843 -0.6420
 3321SOL    HW210253   4.471   2.739   3.876  0.4395 -1.3944  0.0075
 3322SOL     OW10254   3.871   3.913   4.118 -0.2137  0.0829  0.1660
 3322SOL    HW110255   3.951   3.853   4.121 -0.2551 -0.0683 -1.1229
 3322SOL    HW210256   3.875   3.970   4.035 -1.8346 -0.5064 -0.3474
 3323SOL     OW10257   0.897   4.699   0.763 -0.0884  0.3280  0.2673
 3323SOL    HW110258   0.815   4.643   0.779 -1.0798  1.4394 -0.6666
 3323SOL    HW210259   0.918   4.698   0.665  0.3787  0.9235  0.3603
 3324SOL     OW10260   1.258   4.166   4.178  0.0052 -0.1847 -0.1011
 3324SOL    HW110261   1.229   4.211   4.093  1.9884 -0.0269 -0.7392
 3324SOL    HW210262   1.348   4.125   4.165  0.1148 -0.6340  1.7825
 3325SOL     OW10263   4.716   5.806   1.297  0.0018  0.1670  0.1296
 3325SOL    HW110264   4.661   5.878   1.256  0.4079  0.6172  0.3674
 3325SOL    HW210265   4.809   5.838   1.312  0.0647 -0.2384  0.6882
 3326SOL     OW10266   0.751   5.158   4.499  0.5378 -0.5817  0.6303
 3326SOL    HW110267   0.722   5.078   4.552  2.0642 -1.8953 -0.4125
 3326SOL    HW210268   0.713   5.151   4.406  1.0079 -0.2978  0.4171
 3327SOL     OW10269   2.032   5.320   2.609  0.2707  0.3610 -0.4580
 3327SOL    HW110270   1.956   5.367   2.564  0.9149  0.6815 -1.2232
 3327SOL    HW210271   2.106   5.305   2.544  2.0619  2.5716  0.9094
 3328SOL     OW10272   3.453   2.448   5.773  0.1144  0.3772 -0.4879
 3328SOL    HW110273   3.409   2.410   5.855  0.8822 -0.8019 -0.5858
 3328SOL    HW210274   3.412   2.536   5.751 -0.6353  0.3621  0.7168
 3329SOL     OW10275   0.571   5.918   1.055 -0.2345  0.1886  0.3445
 3329SOL    HW110276   0.563   5.820   1.077  0.2082  0.1106  0.1594
 3329SOL    HW210277   0.654   5.934   1.002  0.3025  0.8315  1.3458
 3330SOL     OW10278   5.282   2.147   0.879  0.3338  0.1590  0.3751
 3330SOL    HW110279   5.360   2.152   0.940  0.4846  1.2987  0.1096
 3330SOL    HW210280   5.228   2.065   0.900  1.4001 -0.4651  0.7737
 3331SOL     OW10281   1.755   3.428   3.627 -0.3445  0.5733 -0.8887
 3331SOL    HW110282   1.783   3.371   3.550  3.5974 -1.3954  1.6078
 3331SOL    HW210283   1.656   3.427   3.635 -0.7688 -1.3051 -4.2775
 3332SOL     OW10284   4.000   4.299   4.590  0.7477  0.9249  0.0344
 3332SOL    HW110285   4.064   4.224   4.569  0.3430  0.4207  0.5639
 3332SOL    HW210286   4.051   4.385   4.598  1.1367  0.8269 -1.2044
 3333SOL     OW10287   2.663   0.966   3.277  0.9262 -0.0946  0.1499
 3333SOL    HW110288   2.644   1.054   3.233 -0.1620 -0.4700 -0.1657
 3333SOL    HW210289   2.742   0.976   3.338  0.8548  1.0900  0.0829
 3334SOL     OW10290   2.945   5.889   4.146  0.1279 -0.1520 -0.2314
 3334SOL    HW110291   2.954   5.807   4.202 -1.0032  0.0277  0.2312
 3334SOL    HW210292   2.876   5.949   4.186  1.1361  1.1696 -0.3885
 3335SOL     OW10293   4.685   5.016   5.015 -0.4173  0.0134  0.2436
 3335SOL    HW110294   4.611   4.996   4.951  0.0535  0.1195 -0.3426
 3335SOL    HW210295   4.745   5.085   4.975 -0.4439  0.5237  1.0511
 3336SOL     OW10296   1.549   1.606   4.097 -0.6587 -0.0302  0.0114
 3336SOL    HW110297   1.485   1.539   4.059 -1.4264  0.0684  1.0891
 3336SOL    HW210298   1.636   1.561   4.116 -1.2857 -0.8398  1.0784
 3337SOL     OW10299   4.931   4.350   4.529  0.2384 -0.6635 -0.3387
 3337SOL    HW110300   4.911   4.254   4.513  2.4417 -1.1559 -0.4984
 3337SOL    HW210301   5.001   4.358   4.601  0.2121  0.8086 -0.4417
 3338SOL     OW10302   1.302   4.999   4.503  0.0780 -0.4108 -0.2071
 3338SOL    HW110303   1.350   5.009   4.416 -0.0994  0.0180 -0.2580
 3338SOL    HW210304   1.211   5.039   4.496  1.0641  2.2810  1.0102
 3339SOL     OW10305   2.106   4.527   3.367  0.0115  0.1293 -0.1936
 3339SOL    HW110306   2.200   4.549   3.394  0.0917  0.1924 -0.5238
 3339SOL    HW210307   2.050   4.512   3.449  0.7263 -1.6695  0.0221
 3340SOL     OW10308   1.660   5.702   3.654 -0.6883 -0.2979 -0.3247
 3340SOL    HW110309   1.595   5.765   3.610 -0.0646 -0.5221 -1.6157
 3340SOL    HW210310   1.612   5.647   3.722 -1.7112  0.0408 -0.7472
 3341SOL     OW10311   4.451   2.800   4.579  0.1572  0.4203 -0.4463
 3341SOL    HW110312   4.450   2.714   4.528  2.0492  0.6738 -1.0054
 3341SOL    HW210313   4.458   2.780   4.677 -1.9708 -0.0472 -0.3371
 3342SOL     OW10314   5.164   1.547   4.661  0.3045 -0.6220  0.7239
 3342SOL    HW110315   5.231   1.611   4.700 -0.5127  0.1058  0.9547
 3342SOL    HW210316   5.209   1.489   4.593  1.2876 -0.5027  1.2587
 3343SOL     OW10317   4.718   1.350   0.708 -0.1077 -0.7766  0.6153
 3343SOL    HW110318   4.621   1.329   0.709 -0.4636 -0.5268 -4.3212
 3343SOL    HW210319   4.767   1.282   0.653  1.7076  1.4239 -0.6780
 3344SOL     OW10320   2.007   2.994   2.011  0.0155  0.2536 -0.3713
 3344SOL    HW110321   1.925   3.029   2.056  0.7027 -1.3967  2.3968
 3344SOL    HW210322   2.087   3.044   2.044  0.5942 -1.3477  0.7385
 3345SOL     OW10323   2.757   1.502   3.117  0.0827  0.5217 -0.5115
 3345SOL    HW110324   2.852   1.523   3.095  0.2268 -0.3131 -0.7168
 3345SOL    HW210325   2.729   1.552   3.199  1.0383 -0.0838  0.1984
 3346SOL     OW10326   2.980   3.261   0.170 -0.2979  0.0517  0.3752
 3346SOL    HW110327   3.032   3.344   0.148  0.9446 -0.5816  0.7882
 3346SOL    HW210328   2.902   3.285   0.227 -0.5667  1.0597 -0.3812
 3347SOL     OW10329   5.388   1.873   2.597 -0.4463 -0.0666 -0.1682
 3347SOL    HW110330   5.415   1.786   2.555 -0.6214 -0.2125  0.0195
 3347SOL    HW210331   5.470   1.928   2.613 -0.2510 -0.4893  0.3528
 3348SOL     OW10332   1.873   4.067   1.751  0.0696  0.2510  0.1070
 3348SOL    HW110333   1.894   3.987   1.694  1.0540  0.8149 -0.3401
 3348SOL    HW210334   1.957   4.100   1.794 -0.8789 -1.6941  4.0373
 3349SOL     OW10335   0.373   3.492   0.728 -0.0668  0.5164 -0.4623
 3349SOL    HW110336   0.433   3.521   0.802 -0.0326 -1.5913  0.4135
 3349SOL    HW210337   0.302   3.432   0.764 -0.4281 -0.0483 -2.0391
 3350SOL     OW10338   2.010   2.723   2.207  0.1040 -0.1340 -0.3463
 3350SOL    HW110339   2.036   2.691   2.115 -1.6371 -1.4076 -0.4468
 3350SOL    HW210340   1.926   2.777   2.200  0.0131 -0.1677  0.4988
 3351SOL     OW10341   2.849   3.989   3.730  0.3969 -0.0375  0.0086
 3351SOL    HW110342   2.803   4.074   3.755  0.2904 -0.1797  0.2964
 3351SOL    HW210343   2.801   3.911   3.771  2.3089 -0.0481  2.5236
 3352SOL     OW10344   5.799   5.170   1.738 -0.2201 -0.5317 -0.4337
 3352SOL    HW110345   5.822   5.179   1.641  0.0256 -1.0151 -0.4205
 3352SOL    HW210346   5.814   5.258   1.784 -0.1613 -0.3521 -0.7960
 3353SOL     OW10347   0.249   0.196   0.647  0.3406  0.5967  0.1701
 3353SOL    HW110348   0.175   0.256   0.676 -0.3310  0.6865 -1.6007
 3353SOL    HW210349   0.214   0.102   0.637  1.1153  0.0878  1.8122
 3354SOL     OW10350   3.414   4.161   4.256 -0.0428  0.8708  0.6115
 3354SOL    HW110351   3.481   4.157   4.330  0.9093  1.2770 -0.2037
 3354SOL    HW210352   3.323   4.177   4.294  0.7063  3.2485  1.5655
 3355SOL     OW10353   1.574   5.291   5.104  0.6427  0.5210 -0.1018
 3355SOL    HW110354   1.604   5.299   5.009  1.7321 -0.7758  0.0930
 3355SOL    HW210355   1.610   5.367   5.158 -1.2391  2.1100 -0.9832
 3356SOL     OW10356   2.228   3.951   1.606 -0.0511  0.2754  0.6683
 3356SOL    HW110357   2.251   3.999   1.690  0.7707  0.1171  0.5422
 3356SOL    HW210358   2.135   3.916   1.612 -0.0280  0.3410  1.4745
 3357SOL     OW10359   1.038   5.805   3.627  0.1545  0.0869 -0.1859
 3357SOL    HW110360   1.096   5.861   3.687 -0.3821 -0.2620  0.6811
 3357SOL    HW210361   1.095   5.764   3.555  0.8905  0.2027  0.3139
 3358SOL     OW10362   1.221   2.848   4.297  0.3872 -0.3002  0.5891
 3358SOL    HW110363   1.226   2.948   4.298 -2.6028 -0.0738  0.9576
 3358SOL    HW210364   1.271   2.812   4.376 -1.5352  1.2067  2.6317
 3359SOL     OW10365   0.512   3.421   4.865 -0.3104  0.0204 -0.0333
 3359SOL    HW110366   0.417   3.415   4.837 -0.3720  0.0117  0.1802
 3359SOL    HW210367   0.571   3.406   4.785 -0.4690 -1.2025  0.0554
 3360SOL     OW10368   3.913   1.416   4.928 -0.3143  0.6198  0.0504
 3360SOL    HW110369   3.983   1.389   4.862 -1.4673 -1.5456 -0.3650
 3360SOL    HW210370   3.867   1.499   4.896  1.9579  2.0663  0.3123
 3361SOL     OW10371   2.646   1.239   3.203  0.2006 -0.7037 -0.2171
 3361SOL    HW110372   2.730   1.293   3.201 -0.5590  0.6234  1.5921
 3361SOL    HW210373   2.616   1.221   3.110  0.5956  1.8519 -0.9127
 3362SOL     OW10374   1.537   0.362   2.987 -0.2887  0.7176  0.0669
 3362SOL    HW110375   1.439   0.371   2.999 -0.3685  0.1513 -0.1398
 3362SOL    HW210376   1.561   0.266   2.973  0.2635  0.8773 -0.1333
 3363SOL     OW10377   2.573   2.590   3.520 -0.5674 -0.1883 -0.2607
 3363SOL    HW110378   2.648   2.524   3.529 -0.1568  0.2076 -0.7078
 3363SOL    HW210379   2.598   2.675   3.565 -0.7338 -0.0437 -0.4407
 3364SOL     OW10380   1.278   3.868   4.350 -0.4356 -0.0365  0.0607
 3364SOL    HW110381   1.304   3.934   4.279 -0.2434  1.6310  1.6072
 3364SOL    HW210382   1.181   3.878   4.371 -0.3676 -0.1561  0.4267
 3365SOL     OW10383   5.459   3.714   0.799  0.0539  0.0415 -0.1789
 3365SOL    HW110384   5.515   3.705   0.882  1.1492 -0.2230 -0.9183
 3365SOL    HW210385   5.390   3.784   0.813  0.1829 -0.0329  0.9771
 3366SOL     OW10386   5.752   3.509   4.345  0.4759 -0.4090 -0.1366
 3366SOL    HW110387   5.733   3.426   4.293 -0.4874 -1.2320  1.4301
 3366SOL    HW210388   5.683   3.519   4.417  1.7987  0.5932  1.0470
 3367SOL     OW10389   2.340   5.362   2.554  0.7162 -0.2775  0.3341
 3367SOL    HW110390   2.325   5.459   2.532  0.2341 -0.5037 -0.3726
 3367SOL    HW210391   2.316   5.346   2.650 -0.1871  0.1121  0.1890
 3368SOL     OW10392   4.929   0.041   4.337  0.5805  0.1539 -0.2303
 3368SOL    HW110393   4.980  -0.007   4.409  0.2786 -0.9829 -0.7556
 3368SOL    HW210394   4.985   0.116   4.302  1.4496 -0.3895 -0.0420
 3369SOL     OW10395   5.820   3.186   5.852  0.0433 -0.7013 -0.2682
 3369SOL    HW110396   5.814   3.151   5.759 -1.2154  0.7453 -0.7741
 3369SOL    HW210397   5.737   3.163   5.902  0.8861 -1.8262  0.6521
 3370SOL     OW10398   3.981   0.296   5.354 -0.1973 -0.1178  0.0235
 3370SOL    HW110399   4.068   0.248   5.341 -0.4717 -1.2580  1.9152
 3370SOL    HW210400   3.975   0.372   5.290  0.7390 -1.9457 -2.4285
 3371SOL     OW10401   5.211   3.172   5.448  0.2627 -0.5438  0.0242
 3371SOL    HW110402   5.174   3.259   5.480 -0.9607 -1.1409  0.2956
 3371SOL    HW210403   5.136   3.111   5.423  0.9534 -2.4518  2.2740
 3372SOL     OW10404   5.373   3.307   2.227  0.8123 -0.1065  0.2039
 3372SOL    HW110405   5.347   3.317   2.131 -2.1888 -1.2880  0.7836
 3372SOL    HW210406   5.420   3.219   2.240  0.2992 -0.4223 -0.0367
 3373SOL     OW10407   4.347   4.726   2.885 -0.0724 -0.3332  0.4470
 3373SOL    HW110408   4.341   4.714   2.984  1.0723 -1.6017  0.4033
 3373SOL    HW210409   4.417   4.664   2.848 -1.3746 -0.8218 -1.3261
 3374SOL     OW10410   3.339   2.250   2.365  0.0829 -0.5766 -0.6935
 3374SOL    HW110411   3.404   2.200   2.308  0.6326  0.1384 -0.6957
 3374SOL    HW210412   3.299   2.325   2.312  0.0506 -0.3579 -0.3614
 3375SOL     OW10413   2.910   3.238   0.609  0.5445  0.3185 -0.3204
 3375SOL    HW110414   2.953   3.254   0.698 -1.2597  0.2519  0.6103
 3375SOL    HW210415   2.818   3.202   0.622  0.3411  0.0102 -2.2384
 3376SOL     OW10416   3.301   3.987   5.905 -0.1546 -0.1636 -0.4425
 3376SOL    HW110417   3.400   3.995   5.916 -0.2538 -0.3983  0.7388
 3376SOL    HW210418   3.277   3.891   5.887 -0.1613 -0.0758 -0.9279
 3377SOL     OW10419   0.218   1.954   0.194 -0.3685  0.0562  0.1875
 3377SOL    HW110420   0.200   2.023   0.265 -1.8175 -1.3144  1.2248
 3377SOL    HW210421   0.299   1.901   0.219 -1.0410 -0.6118  1.0124
 3378SOL     OW10422   0.524   1.986   0.549  0.5232  0.4535 -0.4341
 3378SOL    HW110423   0.552   1.958   0.457  1.2469 -2.3140  0.5551
 3378SOL    HW210424   0.479   1.910   0.595  1.5261  1.2684  2.0515
 3379SOL     OW10425   4.541   5.466   2.937 -0.1345  0.4275 -0.1905
 3379SOL    HW110426   4.490   5.425   3.012 -0.7216  0.2761 -0.6599
 3379SOL    HW210427   4.559   5.396   2.867  0.0654  0.6510 -0.3638
 3380SOL     OW10428   1.455   2.758   4.030 -0.0463 -0.4645  0.6634
 3380SOL    HW110429   1.515   2.680   4.047 -0.1808 -1.2234 -1.8778
 3380SOL    HW210430   1.360   2.731   4.045  0.0189 -0.2664  1.4462
 3381SOL     OW10431   1.372   0.950   3.571  0.0430 -0.5881 -0.9009
 3381SOL    HW110432   1.272   0.963   3.571 -0.1085 -1.4829  0.4478
 3381SOL    HW210433   1.395   0.869   3.517  0.0269 -0.4104 -1.1720
 3382SOL     OW10434   1.587   4.141   0.908  0.4588 -0.0721  0.2191
 3382SOL    HW110435   1.561   4.237   0.918  0.8586  0.0877 -0.2287
 3382SOL    HW210436   1.537   4.086   0.974  1.4888  0.6563  1.6590
 3383SOL     OW10437   2.222   3.965   5.492  0.1389  0.1854 -0.2538
 3383SOL    HW110438   2.239   4.008   5.580  1.3040 -0.2173 -0.2704
 3383SOL    HW210439   2.256   4.023   5.419  0.8041 -0.2917 -0.3308
 3384SOL     OW10440   1.909   1.282   4.852 -0.3415 -0.1318 -0.2370
 3384SOL    HW110441   1.875   1.345   4.921  0.2833  1.1980 -1.1006
 3384SOL    HW210442   2.006   1.264   4.868 -0.2302  0.0666 -0.6690
 3385SOL     OW10443   5.036   4.650   2.531 -0.1100  0.1512 -0.1214
 3385SOL    HW110444   4.975   4.723   2.559  1.0320  0.9661  0.2858
 3385SOL    HW210445   5.002   4.563   2.567 -2.0554  0.2798 -1.4795
 3386SOL     OW10446   1.469   3.996   4.176  0.1940  0.0633 -0.7179
 3386SOL    HW110447   1.537   4.021   4.246 -0.3781 -0.5842  0.0789
 3386SOL    HW210448   1.469   3.897   4.163 -0.3203  0.1013 -1.0168
 3387SOL     OW10449   5.473   4.601   3.360  0.2334  0.1538 -0.3006
 3387SOL    HW110450   5.535   4.601   3.438  1.2364 -0.3736 -1.0806
 3387SOL    HW210451   5.382   4.632   3.389  0.3817 -0.7986  1.2342
 3388SOL     OW10452   1.443   0.785   5.875 -0.5986 -0.3236 -0.4764
 3388SOL    HW110453   1.356   0.735   5.879 -0.7105 -0.1086 -0.2650
 3388SOL    HW210454   1.516   0.725   5.906 -0.5647 -0.7439 -1.3237
 3389SOL     OW10455   2.905   4.032   1.917  0.2393  0.0566  0.3720
 3389SOL    HW110456   2.841   4.093   1.870 -0.2364 -0.1827  0.6999
 3389SOL    HW210457   2.986   4.019   1.860  1.2443  2.5211  1.1086
 3390SOL     OW10458   5.294   0.972   1.271 -0.7295 -0.2857  0.0126
 3390SOL    HW110459   5.373   0.998   1.327  0.2938  2.0214 -2.3058
 3390SOL    HW210460   5.230   1.049   1.267 -0.3597 -0.0465 -2.5763
 3391SOL     OW10461   2.268   2.083   2.414 -0.1412 -0.4576  0.2790
 3391SOL    HW110462   2.332   2.081   2.337 -0.0178 -0.6380  0.3857
 3391SOL    HW210463   2.318   2.072   2.500  0.0320  2.2459  0.6066
 3392SOL     OW10464   4.887   4.080   4.505  0.2209  0.0576 -0.2105
 3392SOL    HW110465   4.809   4.042   4.555  0.5418  0.4295  0.6032
 3392SOL    HW210466   4.971   4.034   4.536  0.4817  0.6533 -0.0261
 3393SOL     OW10467   5.639   3.903   0.486 -0.2721 -0.1311 -0.0442
 3393SOL    HW110468   5.553   3.941   0.452 -0.5866 -1.1122 -0.3867
 3393SOL    HW210469   5.628   3.805   0.503  0.6680 -0.1938  0.2816
 3394SOL     OW10470   3.205   2.965   3.031  0.6064  0.6613  0.2493
 3394SOL    HW110471   3.140   2.908   3.082 -1.0268  1.4722 -0.8375
 3394SOL    HW210472   3.242   3.035   3.092  0.6170  0.0717  0.9372
 3395SOL     OW10473   4.969   2.727   1.172  0.0791 -0.2781 -0.0038
 3395SOL    HW110474   5.042   2.741   1.240  0.6187 -0.2561 -0.5748
 3395SOL    HW210475   4.904   2.659   1.207 -0.4535  0.7982  1.1408
 3396SOL     OW10476   3.346   1.920   1.666  0.4735  0.1467  0.0515
 3396SOL    HW110477   3.439   1.943   1.695  0.2873  0.2107  0.6058
 3396SOL    HW210478   3.294   1.885   1.744 -0.4003  1.4670  0.0888
 3397SOL     OW10479   4.899   2.494   5.091  0.1783  0.0424  0.2782
 3397SOL    HW110480   4.883   2.564   5.160  2.1064  0.9629 -0.1483
 3397SOL    HW210481   4.908   2.537   5.001 -0.2324 -0.9310 -0.2445
 3398SOL     OW10482   1.992   1.898   3.413 -0.1253  0.0283 -0.2281
 3398SOL    HW110483   2.002   1.993   3.386  1.6805  0.2547  1.0338
 3398SOL    HW210484   1.926   1.891   3.488 -0.9710  0.1367 -0.9490
 3399SOL     OW10485   2.128   4.140   0.865  0.2104 -0.3926  0.4438
 3399SOL    HW110486   2.087   4.050   0.874  0.2765 -0.5996 -1.1310
 3399SOL    HW210487   2.081   4.191   0.793  1.2012  0.2309  0.2183
 3400SOL     OW10488   2.701   0.112   2.363 -0.4711  0.5961  0.2815
 3400SOL    HW110489   2.800   0.129   2.354 -0.8010  1.2142 -3.8542
 3400SOL    HW210490   2.652   0.199   2.357 -1.3570  0.1275  0.6717
 3401SOL     OW10491   5.491   2.018   5.807  0.7052 -0.2682  0.3046
 3401SOL    HW110492   5.541   2.095   5.767  0.4358 -0.7395 -0.9907
 3401SOL    HW210493   5.529   1.932   5.771  0.4153 -0.7147  1.0400
 3402SOL     OW10494   3.080   0.995   1.310  0.4237 -0.2560 -0.3306
 3402SOL    HW110495   3.083   1.054   1.230 -0.4779 -1.3038 -1.1615
 3402SOL    HW210496   3.084   0.899   1.282  2.2581 -0.6374  1.0105
 3403SOL     OW10497   1.455   2.195   3.280 -0.3818  0.5405  0.3366
 3403SOL    HW110498   1.411   2.279   3.311 -1.0679  0.4815 -0.4237
 3403SOL    HW210499   1.459   2.194   3.180  2.0704  0.8835  0.3639
 3404SOL     OW10500   5.472   2.951   4.653  0.1778 -0.4738  0.1809
 3404SOL    HW110501   5.527   2.911   4.726  2.4870  1.4849 -0.3303
 3404SOL    HW210502   5.487   3.050   4.650 -1.3010 -0.2348 -1.7655
 3405SOL     OW10503   0.948   3.730   2.273 -0.0653 -0.3501 -0.2136
 3405SOL    HW110504   0.874   3.709   2.337 -0.6808  0.1325 -0.7574
 3405SOL    HW210505   0.975   3.647   2.225 -0.3123 -0.5086 -0.0782
 3406SOL     OW10506   0.134   4.013   0.606 -0.2102  0.0656  0.0065
 3406SOL    HW110507   0.135   3.935   0.669  1.6518 -1.6014 -1.9448
 3406SOL    HW210508   0.070   3.994   0.531 -0.5648  0.9392  0.0732
 3407SOL     OW10509   1.021   2.454   2.020  0.4153 -0.1631 -0.4575
 3407SOL    HW110510   0.966   2.537   2.030 -0.4030 -0.7382 -0.0605
 3407SOL    HW210511   1.084   2.446   2.098  0.8929  0.3612 -0.7806
 3408SOL     OW10512   0.840   2.894   3.283  0.1044  0.1823  0.1980
 3408SOL    HW110513   0.805   2.932   3.369  0.6403  0.3610  0.3410
 3408SOL    HW210514   0.797   2.805   3.267 -0.3688  0.3662  0.3949
 3409SOL     OW10515   3.909   3.562   0.270 -0.1585  0.7020 -0.0232
 3409SOL    HW110516   3.816   3.571   0.306 -0.1268 -0.6554  0.4486
 3409SOL    HW210517   3.972   3.542   0.345  0.5235  1.5717 -0.3443
 3410SOL     OW10518   0.571   3.341   4.023 -0.0331  0.3407  0.1168
 3410SOL    HW110519   0.587   3.244   4.039 -1.5426 -0.1091 -0.9519
 3410SOL    HW210520   0.502   3.375   4.087  1.9230  1.2515  1.8626
 3411SOL     OW10521   2.102   4.044   5.098  0.1038 -0.3686 -0.8965
 3411SOL    HW110522   2.149   3.957   5.082 -0.5915 -1.3224  1.7612
 3411SOL    HW210523   2.136   4.086   5.183  1.2088  2.5818 -2.6447
 3412SOL     OW10524   3.104   2.748   3.197 -0.0355 -0.2869 -1.1365
 3412SOL    HW110525   3.114   2.786   3.289  1.0288  0.4695 -1.5410
 3412SOL    HW210526   3.179   2.684   3.180  0.4868  0.5072 -1.9032
 3413SOL     OW10527   4.796   5.209   1.490 -0.8535 -0.0532  0.2174
 3413SOL    HW110528   4.784   5.122   1.539  0.4674 -0.8000 -0.7207
 3413SOL    HW210529   4.756   5.283   1.544 -2.5342 -1.2928  0.7934
 3414SOL     OW10530   1.373   2.925   1.005  0.3982  0.7656 -0.0945
 3414SOL    HW110531   1.422   2.843   1.036 -0.5719 -0.3246 -1.3285
 3414SOL    HW210532   1.278   2.921   1.037  0.4808  1.6969  0.2951
 3415SOL     OW10533   1.989   2.315   5.843  0.2607 -0.0832  0.1533
 3415SOL    HW110534   1.935   2.256   5.783 -2.1497 -1.1261  3.0671
 3415SOL    HW210535   1.955   2.408   5.839  1.4646  0.3273 -1.5100
 3416SOL     OW10536   4.629   5.709   3.552  0.1599  0.0012  0.7546
 3416SOL    HW110537   4.581   5.625   3.576  1.2393 -0.4953  1.2679
 3416SOL    HW210538   4.569   5.769   3.500 -1.2847 -0.2191  2.1081
 3417SOL     OW10539   2.635   4.103   0.774  0.1678  0.1680  0.7974
 3417SOL    HW110540   2.641   4.042   0.696  0.4161 -0.1242  1.0437
 3417SOL    HW210541   2.562   4.072   0.835 -0.9129  1.1361  0.0472
 3418SOL     OW10542   2.991   5.548   1.361 -0.2072 -0.8443 -0.3147
 3418SOL    HW110543   2.895   5.529   1.383 -0.4995 -0.2259 -1.0177
 3418SOL    HW210544   3.041   5.568   1.445 -0.8366 -0.5369 -0.0074
 3419SOL     OW10545   2.721   1.388   2.315  0.0753 -0.3503 -0.0895
 3419SOL    HW110546   2.762   1.445   2.244 -0.7140  0.0055 -0.2678
 3419SOL    HW210547   2.791   1.328   2.354  0.5243 -0.5423 -1.1567
 3420SOL     OW10548   5.920   5.129   0.475  0.0059 -0.5434  0.2656
 3420SOL    HW110549   6.016   5.102   0.486  0.1958  0.6772  1.9768
 3420SOL    HW210550   5.876   5.067   0.410  1.2847 -2.7252  1.3620
 3421SOL     OW10551   5.781   4.542   3.379 -0.1853 -0.2452  0.6390
 3421SOL    HW110552   5.856   4.587   3.427  0.7226 -3.0226  2.0593
 3421SOL    HW210553   5.809   4.521   3.286 -0.2101  1.0813  0.3230
 3422SOL     OW10554   1.950   2.711   0.733 -0.4187  0.4160 -0.2357
 3422SOL    HW110555   1.978   2.672   0.821  0.2772  0.7323 -0.3132
 3422SOL    HW210556   1.909   2.639   0.676 -2.1098  0.4649  0.8320
 3423SOL     OW10557   5.088   0.697   1.772 -0.2517 -0.4436 -0.1151
 3423SOL    HW110558   5.117   0.730   1.682  1.8967  0.2342  0.7526
 3423SOL    HW210559   5.069   0.775   1.832 -2.8753 -0.8841 -0.2739
 3424SOL     OW10560   1.765   0.967   5.522 -0.3145 -0.1771  0.2462
 3424SOL    HW110561   1.673   0.972   5.563  0.1661  1.3009  1.2316
 3424SOL    HW210562   1.760   0.916   5.437 -2.1309  0.1694  0.0947
 3425SOL     OW10563   1.640   3.139   5.152  0.2062  0.5959 -0.5089
 3425SOL    HW110564   1.594   3.157   5.065 -1.1763  0.2538  0.1375
 3425SOL    HW210565   1.573   3.113   5.221  1.4343 -0.4985  0.3143
 3426SOL     OW10566   0.657   3.137   5.866  0.3460 -0.1227  0.0630
 3426SOL    HW110567   0.738   3.190   5.843  1.2772 -1.3325  0.4091
 3426SOL    HW210568   0.590   3.195   5.912  1.7638  0.5290  1.4082
 3427SOL     OW10569   2.241   5.582   1.743 -1.0426 -0.8295 -0.1268
 3427SOL    HW110570   2.313   5.532   1.696 -0.3587 -0.4627  0.5018
 3427SOL    HW210571   2.275   5.613   1.832 -1.0241  1.7730 -0.9549
 3428SOL     OW10572   5.320   5.357   0.269 -0.1267 -0.6736 -0.2110
 3428SOL    HW110573   5.294   5.267   0.234 -1.6616  0.4213 -2.1253
 3428SOL    HW210574   5.242   5.399   0.314  0.3944 -0.0604  0.1314
 3429SOL     OW10575   1.516   3.560   3.779 -0.2898 -0.4568  0.5062
 3429SOL    HW110576   1.453   3.608   3.718  1.6289  1.5130 -0.0475
 3429SOL    HW210577   1.557   3.625   3.842 -0.2663 -2.0383  2.1976
 3430SOL     OW10578   3.254   5.645   3.564 -0.2283  0.3689 -0.0172
 3430SOL    HW110579   3.165   5.682   3.535 -0.5520 -1.5139 -1.6801
 3430SOL    HW210580   3.315   5.720   3.589 -2.0853  1.7417  0.6278
 3431SOL     OW10581   5.498   1.395   1.993  0.4644 -0.0544  0.5204
 3431SOL    HW110582   5.490   1.326   2.066  1.5529 -0.3763  0.3484
 3431SOL    HW210583   5.453   1.360   1.911 -0.3097  0.0889  0.8679
 3432SOL     OW10584   4.615   2.037   2.056 -0.0032 -0.2839  0.2133
 3432SOL    HW110585   4.554   2.079   1.988  0.3338 -1.3257 -0.7716
 3432SOL    HW210586   4.577   1.948   2.083 -0.3419  0.2931  1.7253
 3433SOL     OW10587   0.842   1.036   5.834 -0.5150  0.2906 -0.4302
 3433SOL    HW110588   0.929   1.004   5.797 -0.8196 -1.2504  0.0881
 3433SOL    HW210589   0.790   1.083   5.763  0.2974  0.2955 -1.0306
 3434SOL     OW10590   3.375   5.092   2.805 -0.5182  0.0349 -0.0426
 3434SOL    HW110591   3.398   4.996   2.789 -0.6937  0.1303 -0.8662
 3434SOL    HW210592   3.384   5.144   2.721 -0.6215  0.7104  0.3522
 3435SOL     OW10593   3.392   0.596   5.884  0.8196  0.0920  0.0015
 3435SOL    HW110594   3.400   0.605   5.784  0.4425 -1.1777 -0.1530
 3435SOL    HW210595   3.367   0.685   5.923  1.1840  0.6566 -1.0057
 3436SOL     OW10596   5.804   2.169   3.049 -0.2311 -0.1424  0.0541
 3436SOL    HW110597   5.776   2.263   3.031  0.3744 -0.0565 -0.5125
 3436SOL    HW210598   5.768   2.110   2.977  2.7680  0.3002 -2.0114
 3437SOL     OW10599   4.654   3.817   1.260 -0.0530 -0.2684  0.1470
 3437SOL    HW110600   4.622   3.737   1.312  0.3315 -0.7027 -0.2721
 3437SOL    HW210601   4.658   3.896   1.321 -0.5973 -0.5244  0.5335
 3438SOL     OW10602   1.185   1.331   4.645 -0.0991  0.3079 -0.8385
 3438SOL    HW110603   1.163   1.407   4.707  0.1646  0.1119 -0.4956
 3438SOL    HW210604   1.150   1.351   4.554  1.9695  1.9151 -1.3597
 3439SOL     OW10605   5.449   3.304   5.837 -0.2814 -0.2731  0.6121
 3439SOL    HW110606   5.511   3.381   5.821  0.2451 -0.8506 -0.1701
 3439SOL    HW210607   5.391   3.325   5.915  0.7915  0.3491  1.2760
 3440SOL     OW10608   0.936   0.974   0.922  0.0932  0.4088 -0.0830
 3440SOL    HW110609   0.972   0.912   0.992 -1.8333  1.3333  1.8143
 3440SOL    HW210610   0.847   0.942   0.891 -0.4377  1.6306  0.1242
 3441SOL     OW10611   1.739   0.982   1.538 -0.1554  0.0560 -0.2460
 3441SOL    HW110612   1.644   0.996   1.509 -0.1436  0.1748 -0.2264
 3441SOL    HW210613   1.758   0.884   1.543 -0.8064 -0.0110  1.4759
 3442SOL     OW10614   0.218   2.454   5.067 -0.4952 -0.3730 -0.3069
 3442SOL    HW110615   0.212   2.460   5.167 -1.3844  1.3354 -0.4260
 3442SOL    HW210616   0.273   2.530   5.033  1.4662 -2.0142 -1.0366
 3443SOL     OW10617   3.014   1.493   4.200  0.2935  0.3746 -0.5305
 3443SOL    HW110618   2.925   1.506   4.244  1.1637 -0.6468  1.6857
 3443SOL    HW210619   3.066   1.424   4.250  1.9546  0.1863 -2.3951
 3444SOL     OW10620   2.905   4.593   4.217  0.5801 -0.1062  0.1006
 3444SOL    HW110621   2.963   4.563   4.293  0.1748 -0.2027  0.3730
 3444SOL    HW210622   2.908   4.693   4.210  1.7511 -0.1649 -0.6648
 3445SOL     OW10623   2.511   5.088   3.863 -0.2822  0.2528  0.0050
 3445SOL    HW110624   2.557   5.009   3.822 -0.3634 -0.9624  2.0825
 3445SOL    HW210625   2.574   5.166   3.864  1.1174 -0.8266  1.0684
 3446SOL     OW10626   0.498   0.357   0.908 -0.1624 -0.3097 -0.0288
 3446SOL    HW110627   0.400   0.367   0.920 -0.4402 -3.9888  2.4610
 3446SOL    HW210628   0.516   0.291   0.835  0.3381 -0.7851  0.5074
 3447SOL     OW10629   4.271   3.182   3.366 -0.0707  0.1052 -0.0601
 3447SOL    HW110630   4.279   3.239   3.284 -0.9595  0.9921  0.4409
 3447SOL    HW210631   4.242   3.239   3.443 -0.8536 -1.0089  0.4904
 3448SOL     OW10632   2.981   1.123   0.849  0.2681  0.0959  0.0593
 3448SOL    HW110633   3.006   1.179   0.770  0.3455  0.8414  0.6108
 3448SOL    HW210634   3.036   1.150   0.928 -0.5355  0.0589  0.6356
 3449SOL     OW10635   0.238   5.800   5.128 -0.2679 -0.3398  0.3060
 3449SOL    HW110636   0.166   5.829   5.191 -0.3648 -0.2083  0.1379
 3449SOL    HW210637   0.259   5.703   5.143 -2.0250 -1.0094 -1.0800
 3450SOL     OW10638   5.502   5.067   1.329 -0.2677  0.1626 -0.6741
 3450SOL    HW110639   5.487   5.070   1.428  0.4090  0.7963 -0.5775
 3450SOL    HW210640   5.415   5.050   1.283 -0.2785 -2.2423  0.1005
 3451SOL     OW10641   4.352   3.299   1.388  0.6790 -0.1422  0.2608
 3451SOL    HW110642   4.433   3.241   1.374  0.5651 -0.2568  0.0714
 3451SOL    HW210643   4.290   3.289   1.310  1.8028  2.1603 -1.0434
 3452SOL     OW10644   2.329   2.640   4.528 -0.2876  0.4237 -0.4031
 3452SOL    HW110645   2.316   2.606   4.434 -0.8092 -0.6780  0.0492
 3452SOL    HW210646   2.387   2.576   4.578  0.1066  1.0847 -0.0067
 3453SOL     OW10647   1.696   0.328   3.695 -0.4491 -0.2045 -0.3696
 3453SOL    HW110648   1.712   0.233   3.667 -0.2509  0.3928 -2.5114
 3453SOL    HW210649   1.769   0.386   3.660  0.3928  0.5476  2.4400
 3454SOL     OW10650   0.012   2.098   1.233 -0.2786  0.3083  0.5110
 3454SOL    HW110651   0.004   2.169   1.304 -1.7200 -1.0713  1.8166
 3454SOL    HW210652   0.075   2.027   1.264 -0.0065  0.2682 -0.1206
 3455SOL     OW10653   1.855   5.088   2.011  0.6412 -0.4132  0.4231
 3455SOL    HW110654   1.782   5.030   1.974  0.2472  0.6746 -0.5752
 3455SOL    HW210655   1.942   5.064   1.967  0.1691  0.9012 -1.3371
 3456SOL     OW10656   0.835   0.580   3.196 -0.2053 -0.0297  0.1332
 3456SOL    HW110657   0.883   0.637   3.262  0.6592 -0.3239 -0.2242
 3456SOL    HW210658   0.857   0.484   3.213 -0.2030 -0.1261 -0.3985
 3457SOL     OW10659   5.275   3.777   3.056  0.2981  0.9516 -0.2063
 3457SOL    HW110660   5.327   3.703   3.098  1.2764  2.2022  0.8875
 3457SOL    HW210661   5.324   3.864   3.069 -2.1151  2.2305  1.0512
 3458SOL     OW10662   5.689   5.668   3.210  0.4173 -0.0570 -0.5036
 3458SOL    HW110663   5.743   5.594   3.170 -1.2980 -0.8478 -1.4460
 3458SOL    HW210664   5.618   5.697   3.146 -0.8560  0.3273  1.0082
 3459SOL     OW10665   1.733   0.871   4.639 -0.2418 -0.2131 -0.3377
 3459SOL    HW110666   1.635   0.858   4.626 -0.4498  1.6007 -0.9478
 3459SOL    HW210667   1.752   0.969   4.650  1.4004 -0.6114  0.6924
 3460SOL     OW10668   2.397   3.249   4.157  0.0450 -0.4308 -0.4847
 3460SOL    HW110669   2.415   3.197   4.074 -1.0356  0.0994 -1.0746
 3460SOL    HW210670   2.335   3.325   4.136 -0.4502 -0.4335  0.8418
 3461SOL     OW10671   1.297   5.466   3.488 -0.1469 -0.6941  0.1248
 3461SOL    HW110672   1.211   5.418   3.473 -0.0053 -0.6719 -0.8289
 3461SOL    HW210673   1.369   5.400   3.510  0.2291 -1.0439 -1.9898
 3462SOL     OW10674   4.339   5.807   4.647 -0.4723  0.0019 -0.4744
 3462SOL    HW110675   4.376   5.724   4.605  0.9895  0.7093 -0.6643
 3462SOL    HW210676   4.414   5.861   4.685 -1.3205  1.5085 -0.8459
 3463SOL     OW10677   1.146   5.172   4.110 -0.4067 -0.4212 -0.6831
 3463SOL    HW110678   1.189   5.173   4.020 -1.1590 -0.9573 -1.0564
 3463SOL    HW210679   1.099   5.260   4.125 -2.0677 -1.0784 -1.7160
 3464SOL     OW10680   5.302   4.079   3.115 -0.1051  0.6510  0.1757
 3464SOL    HW110681   5.362   4.055   3.191  0.3578 -2.0725 -0.9515
 3464SOL    HW210682   5.346   4.148   3.058 -0.3766  2.6001  2.1788
 3465SOL     OW10683   3.928   4.046   4.334  0.0354  0.4434 -0.0084
 3465SOL    HW110684   3.906   4.002   4.247  1.8402 -0.1670 -0.1868
 3465SOL    HW210685   3.902   3.985   4.409  0.7667 -0.1110 -0.1981
 3466SOL     OW10686   3.317   0.710   2.127 -0.3213 -0.5920  0.3445
 3466SOL    HW110687   3.225   0.746   2.111 -0.7544 -1.5585  0.5702
 3466SOL    HW210688   3.365   0.769   2.192 -0.0911  0.9548 -1.1897
 3467SOL     OW10689   3.699   0.422   5.282 -0.0552  0.3549  0.3038
 3467SOL    HW110690   3.750   0.359   5.224  0.3364 -0.2932  1.3235
 3467SOL    HW210691   3.649   0.371   5.352 -0.7069  1.1016  0.4065
 3468SOL     OW10692   0.522   2.527   0.688 -0.3324  0.2133 -0.0204
 3468SOL    HW110693   0.587   2.585   0.736 -1.4423 -0.0342  1.8906
 3468SOL    HW210694   0.500   2.448   0.745 -0.8483 -0.7217 -1.4517
 3469SOL     OW10695   1.047   1.448   2.448  0.1521 -0.2889 -0.0302
 3469SOL    HW110696   1.032   1.349   2.442 -1.1500 -0.2919  2.2976
 3469SOL    HW210697   0.965   1.495   2.417  1.4333  0.2036 -3.0050
 3470SOL     OW10698   3.722   1.390   1.119 -0.2790 -0.4708  0.3952
 3470SOL    HW110699   3.641   1.392   1.178  0.9796 -1.3566  2.2530
 3470SOL    HW210700   3.697   1.421   1.027 -3.0284 -2.0333  0.5050
 3471SOL     OW10701   0.207   1.716   0.035 -0.4878  0.0757 -0.1760
 3471SOL    HW110702   0.259   1.647   0.086 -0.9837 -0.3576 -0.2411
 3471SOL    HW210703   0.206   1.802   0.086 -2.5648 -0.8564  1.5485
 3472SOL     OW10704   1.978   0.111   3.728 -0.2678 -0.1696 -0.1529
 3472SOL    HW110705   1.990   0.012   3.726 -0.7949 -0.2542  0.5119
 3472SOL    HW210706   2.042   0.153   3.664  1.2249 -0.8134  0.8501
 3473SOL     OW10707   4.031   1.326   3.738  0.3120 -0.2046 -0.0156
 3473SOL    HW110708   3.948   1.343   3.790  1.4767 -1.0848  2.3146
 3473SOL    HW210709   4.009   1.276   3.654 -1.5247 -0.1395  0.3936
 3474SOL     OW10710   3.168   0.566   4.858 -0.3780  0.0267 -0.2286
 3474SOL    HW110711   3.100   0.505   4.816 -0.3063  0.2297 -0.6356
 3474SOL    HW210712   3.215   0.516   4.931 -0.7861 -0.1969 -0.1117
 3475SOL     OW10713   2.533   4.480   3.023  0.0084  0.1155  0.2272
 3475SOL    HW110714   2.486   4.564   3.049 -0.6545 -0.1272 -0.1632
 3475SOL    HW210715   2.467   4.416   2.984  0.5154 -0.5656  0.4728
 3476SOL     OW10716   2.620   3.221   4.287 -0.0673 -0.0144 -0.7126
 3476SOL    HW110717   2.539   3.251   4.237 -0.4013 -0.4825 -0.4570
 3476SOL    HW210718   2.593   3.188   4.377  0.3884 -0.3302 -0.6874
 3477SOL     OW10719   5.603   4.410   3.131 -0.0768  0.4612  0.4149
 3477SOL    HW110720   5.555   4.417   3.219 -0.3727  1.9465  0.1588
 3477SOL    HW210721   5.601   4.498   3.085  1.2982  0.0658 -0.4600
 3478SOL     OW10722   0.445   3.040   4.604  0.3113  0.1122  0.8568
 3478SOL    HW110723   0.427   3.084   4.517 -0.7233  0.6441  1.3152
 3478SOL    HW210724   0.505   2.961   4.591  1.6885  1.2734 -0.0625
 3479SOL     OW10725   5.373   2.257   3.956 -0.3630 -0.0873 -0.1786
 3479SOL    HW110726   5.276   2.236   3.966 -0.6414  1.1994  0.0179
 3479SOL    HW210727   5.384   2.355   3.941  0.8687 -0.3177 -0.8648
 3480SOL     OW10728   1.384   4.175   2.226  0.1024 -0.4002  0.1625
 3480SOL    HW110729   1.472   4.181   2.272  0.1496  0.0185  0.0183
 3480SOL    HW210730   1.388   4.104   2.155  0.1461 -0.7782  0.5361
 3481SOL     OW10731   0.067   0.414   0.704 -0.3714 -0.1014  0.1144
 3481SOL    HW110732  -0.017   0.439   0.656  0.4129  0.8611 -0.8197
 3481SOL    HW210733   0.135   0.487   0.692  1.0751 -1.4726 -0.3886
 3482SOL     OW10734   2.946   1.927   4.532 -1.0916  0.4002  0.2341
 3482SOL    HW110735   2.892   1.988   4.590 -3.4513 -2.8561  1.7661
 3482SOL    HW210736   3.033   1.908   4.578 -1.2717  0.8672  0.7908
 3483SOL     OW10737   3.698   5.040   3.030 -0.7295 -0.0443 -0.1576
 3483SOL    HW110738   3.666   5.009   2.940 -2.8348  2.7757 -0.5416
 3483SOL    HW210739   3.764   5.114   3.018  1.3759 -1.7027  0.6982
 3484SOL     OW10740   1.908   0.472   3.637 -0.2723 -0.9191 -0.3723
 3484SOL    HW110741   2.000   0.462   3.674  0.6918 -0.2023 -2.4291
 3484SOL    HW210742   1.913   0.512   3.546 -2.7464  0.5927  0.0745
 3485SOL     OW10743   0.792   1.774   3.040 -0.4101 -0.7515  0.0636
 3485SOL    HW110744   0.733   1.855   3.044  0.7749  0.2280 -1.3438
 3485SOL    HW210745   0.869   1.786   3.102  0.4215 -0.2359 -1.0543
 3486SOL     OW10746   3.050   4.120   2.794 -0.0441  0.4435 -0.4147
 3486SOL    HW110747   3.017   4.184   2.724 -0.8025  0.1586 -0.3192
 3486SOL    HW210748   3.128   4.069   2.757  1.4696  2.3543 -0.0334
 3487SOL     OW10749   2.314   2.904   4.150 -0.2619  0.0715 -0.0172
 3487SOL    HW110750   2.393   2.848   4.175 -1.8909 -1.9250  1.0280
 3487SOL    HW210751   2.245   2.898   4.223 -2.5411 -0.6230 -2.0887
 3488SOL     OW10752   1.416   1.149   1.149  0.7396  0.2808 -0.3886
 3488SOL    HW110753   1.461   1.207   1.217 -1.2876  1.4764  0.0193
 3488SOL    HW210754   1.483   1.120   1.080  2.0396  2.2862 -0.0535
 3489SOL     OW10755   2.169   0.165   4.556  0.0722  0.1082 -0.0296
 3489SOL    HW110756   2.176   0.202   4.463 -0.5967 -0.6611 -0.3872
 3489SOL    HW210757   2.193   0.068   4.555  2.5779  0.6203  1.0357
 3490SOL     OW10758   5.660   4.981   1.855  0.5841 -0.1990  0.4058
 3490SOL    HW110759   5.595   5.016   1.922  1.5366  2.0075  0.2485
 3490SOL    HW210760   5.727   5.052   1.832 -0.0954 -0.5757 -3.4194
 3491SOL     OW10761   5.065   4.356   1.729 -0.0289  0.0260 -0.4422
 3491SOL    HW110762   5.075   4.365   1.629  1.2443 -0.4785 -0.3714
 3491SOL    HW210763   5.155   4.360   1.772 -0.4548 -1.0507  0.5872
 3492SOL     OW10764   4.956   1.103   0.107  0.1417  0.5524  0.3932
 3492SOL    HW110765   4.955   1.007   0.080  0.8638  1.0165 -1.3648
 3492SOL    HW210766   4.871   1.147   0.077  1.0722  1.1393 -1.5024
 3493SOL     OW10767   5.913   2.555   3.211  0.4580  0.2439 -0.4771
 3493SOL    HW110768   6.000   2.598   3.188  0.6996  0.6614  1.0981
 3493SOL    HW210769   5.843   2.626   3.219  0.7769  0.3875  1.7619
 3494SOL     OW10770   4.591   3.233   1.299 -0.1764  0.7946  0.0947
 3494SOL    HW110771   4.646   3.150   1.311 -0.0104  1.1684  2.5739
 3494SOL    HW210772   4.589   3.259   1.203  3.1700  0.2041 -0.2477
 3495SOL     OW10773   5.366   5.573   4.949  0.0837  0.2591  0.6498
 3495SOL    HW110774   5.387   5.619   4.862 -0.2694  1.0905  0.9895
 3495SOL    HW210775   5.288   5.512   4.936  0.4634 -0.1399  0.2230
 3496SOL     OW10776   3.565   0.739   3.477  0.5330  0.4541 -0.0470
 3496SOL    HW110777   3.498   0.748   3.551 -0.6180  1.4158 -1.1521
 3496SOL    HW210778   3.536   0.666   3.414  0.2528  1.1847 -0.7823
 3497SOL     OW10779   3.587   1.879   1.400  0.2912  0.1326  0.2514
 3497SOL    HW110780   3.636   1.949   1.349 -0.9950 -0.1151 -1.4151
 3497SOL    HW210781   3.496   1.867   1.361 -0.1801 -1.1799  1.6628
 3498SOL     OW10782   3.337   1.194   3.877  0.3534  0.4386  0.6968
 3498SOL    HW110783   3.290   1.109   3.900 -1.6609  2.1494  3.3725
 3498SOL    HW210784   3.290   1.239   3.801 -0.2837  0.5188  1.1381
 3499SOL     OW10785   3.396   5.607   0.869  0.0593  0.2311  0.4994
 3499SOL    HW110786   3.373   5.556   0.952  0.3428 -1.1525 -0.2438
 3499SOL    HW210787   3.331   5.582   0.797  0.9983 -0.0811 -0.2460
 3500SOL     OW10788   3.909   4.577   5.307 -0.2886 -0.1351 -0.1701
 3500SOL    HW110789   3.974   4.611   5.374  0.6025  0.2524 -1.1948
 3500SOL    HW210790   3.866   4.655   5.260 -1.7761 -0.3747  0.7370
 3501SOL     OW10791   3.137   2.629   1.536 -0.1673  0.1366  0.2763
 3501SOL    HW110792   3.069   2.566   1.575 -0.4561 -0.5327 -1.2115
 3501SOL    HW210793   3.162   2.698   1.604 -0.8824 -0.7662  1.4946
 3502SOL     OW10794   3.572   5.267   4.912  0.4142 -0.0105 -0.2111
 3502SOL    HW110795   3.526   5.331   4.851 -0.2665 -1.2474 -1.0333
 3502SOL    HW210796   3.655   5.233   4.868  1.3318  1.0530  0.6426
 3503SOL     OW10797   1.937   5.869   4.377 -0.3777  0.2054 -0.3075
 3503SOL    HW110798   1.932   5.966   4.352  0.7990  0.0067 -1.3957
 3503SOL    HW210799   1.879   5.853   4.457  2.2334  2.5616  2.2897
 3504SOL     OW10800   2.439   1.467   4.260 -0.2673  0.3651 -0.1126
 3504SOL    HW110801   2.534   1.465   4.293 -0.2191  0.2330 -0.2599
 3504SOL    HW210802   2.411   1.562   4.247  0.0670  0.3884 -0.7075
 3505SOL     OW10803   1.573   3.121   0.998 -0.0353 -0.2486 -0.0542
 3505SOL    HW110804   1.533   3.202   1.041 -0.8647 -0.8267  0.2770
 3505SOL    HW210805   1.507   3.046   0.999  0.7723 -0.9783 -0.2272
 3506SOL     OW10806   3.004   5.293   4.085  0.5267  0.5429  0.0975
 3506SOL    HW110807   3.102   5.296   4.102  0.5730 -1.5170  0.4841
 3506SOL    HW210808   2.956   5.271   4.170  0.0250 -1.4505 -0.6467
 3507SOL     OW10809   1.151   5.258   4.838  0.2457 -0.2711 -0.1270
 3507SOL    HW110810   1.150   5.355   4.817 -0.5741 -0.5299 -1.4329
 3507SOL    HW210811   1.106   5.207   4.764  0.4628 -1.6212  0.6246
 3508SOL     OW10812   2.323   3.848   3.876  0.5767 -0.1476 -0.3090
 3508SOL    HW110813   2.234   3.802   3.873  0.5211 -0.0178 -3.4330
 3508SOL    HW210814   2.393   3.786   3.840  1.8230 -0.1913  1.9752
 3509SOL     OW10815   4.721   3.356   0.856 -0.5746 -0.1729  0.4864
 3509SOL    HW110816   4.726   3.303   0.771  0.5402 -0.7190  0.8768
 3509SOL    HW210817   4.697   3.295   0.931 -1.2269  0.2519  0.6294
 3510SOL     OW10818   2.194   4.498   4.226  0.1127 -0.3403 -0.3095
 3510SOL    HW110819   2.192   4.523   4.322  0.0533 -1.0586 -0.1172
 3510SOL    HW210820   2.106   4.458   4.201  0.2957 -0.5976 -0.5413
 3511SOL     OW10821   5.022   4.917   0.059 -0.1747  0.4538  0.4308
 3511SOL    HW110822   4.991   4.827   0.088 -1.4021  1.3553  2.1370
 3511SOL    HW210823   5.009   4.928  -0.039  0.7740 -1.4910  0.0455
 3512SOL     OW10824   4.104   0.409   1.513  0.1284  0.3761 -0.3759
 3512SOL    HW110825   4.131   0.428   1.419 -0.4614 -0.1524 -0.6620
 3512SOL    HW210826   4.097   0.311   1.527  0.8977  0.4232  0.4293
 3513SOL     OW10827   3.013   3.263   0.988 -0.0282  0.4933  0.4992
 3513SOL    HW110828   3.074   3.197   0.945 -0.9440 -0.3985  0.5072
 3513SOL    HW210829   2.924   3.220   1.004 -0.4704  1.5629  1.0423
 3514SOL     OW10830   0.775   1.995   0.675 -0.1660  0.0796 -0.5611
 3514SOL    HW110831   0.690   1.985   0.624 -0.1212 -0.0077 -0.6201
 3514SOL    HW210832   0.853   1.979   0.614 -0.1330 -2.2048 -0.0175
 3515SOL     OW10833   4.576   1.396   4.980  0.4889 -0.0228 -0.2084
 3515SOL    HW110834   4.599   1.340   5.060  1.1637  0.5705  0.0256
 3515SOL    HW210835   4.478   1.395   4.966  0.2680  0.4916  1.1099
 3516SOL     OW10836   3.587   1.332   2.643  0.6269 -0.1528 -0.5316
 3516SOL    HW110837   3.512   1.392   2.615  1.2799  0.2600 -1.4521
 3516SOL    HW210838   3.550   1.242   2.667 -0.0329 -0.5948 -2.8583
 3517SOL     OW10839   1.036   0.247   2.593 -0.0242 -0.1975 -0.0912
 3517SOL    HW110840   0.939   0.228   2.576  0.0909 -0.3293 -0.6442
 3517SOL    HW210841   1.045   0.324   2.655 -0.4831  1.3038 -1.8088
 3518SOL     OW10842   3.355   2.609   0.626 -0.0226  0.3424 -0.0956
 3518SOL    HW110843   3.331   2.539   0.560 -1.9710 -0.5016  1.4344
 3518SOL    HW210844   3.454   2.611   0.638  0.2393 -0.5184 -1.8838
 3519SOL     OW10845   3.323   2.454   0.951 -0.1901 -0.0547 -0.0387
 3519SOL    HW110846   3.385   2.484   1.023  0.9495  1.1481 -1.4668
 3519SOL    HW210847   3.284   2.533   0.905 -3.2433 -0.7429  1.1117
 3520SOL     OW10848   0.868   2.528   5.539 -0.4542  0.2019 -0.3579
 3520SOL    HW110849   0.843   2.546   5.444 -0.4795  3.3280  0.1522
 3520SOL    HW210850   0.785   2.511   5.592 -0.7113  1.3278 -0.3834
 3521SOL     OW10851   2.610   0.677   5.107  0.3098 -0.0522 -0.0036
 3521SOL    HW110852   2.572   0.767   5.087  0.6689 -0.0569 -0.7394
 3521SOL    HW210853   2.707   0.675   5.083  0.2678 -0.6796 -0.1377
 3522SOL     OW10854   1.016   2.791   1.289 -0.1877 -0.6691  0.0726
 3522SOL    HW110855   1.081   2.784   1.365  0.0981  3.0125  0.3308
 3522SOL    HW210856   1.063   2.767   1.204  0.7991 -0.4784  0.5401
 3523SOL     OW10857   4.949   1.863   3.709 -0.0494 -0.3022 -0.2180
 3523SOL    HW110858   4.974   1.767   3.696 -0.9009 -0.6666  0.6485
 3523SOL    HW210859   4.918   1.876   3.803 -0.6791  0.6484 -0.5452
 3524SOL     OW10860   4.929   0.916   0.510 -0.0830 -0.2336  0.0370
 3524SOL    HW110861   5.016   0.899   0.463 -0.1482  0.1288 -0.2204
 3524SOL    HW210862   4.923   0.858   0.592  0.0684 -0.8028 -0.3532
 3525SOL     OW10863   1.916   3.059   5.732 -0.0789 -0.2006 -0.4483
 3525SOL    HW110864   1.886   3.155   5.729 -0.6561 -0.2874  1.2824
 3525SOL    HW210865   1.905   3.018   5.642  0.0898  1.3250 -1.2030
 3526SOL     OW10866   3.844   4.689   1.752  0.0427 -0.2542  0.2528
 3526SOL    HW110867   3.811   4.643   1.835 -1.0962  2.9180  1.7243
 3526SOL    HW210868   3.933   4.730   1.770 -1.2679  2.5505  0.8988
 3527SOL     OW10869   2.478   3.286   3.566 -0.4085 -0.2653  0.6200
 3527SOL    HW110870   2.526   3.261   3.651 -1.4888  1.3728  1.7806
 3527SOL    HW210871   2.419   3.210   3.538 -1.1726 -0.2986  2.2004
 3528SOL     OW10872   4.289   4.731   1.047  0.0143 -0.6317  0.0093
 3528SOL    HW110873   4.350   4.726   1.126 -1.1568 -1.5743  0.8795
 3528SOL    HW210874   4.344   4.750   0.965  1.2519  0.3652  1.0087
 3529SOL     OW10875   3.461   1.490   0.897 -0.8758  0.3154  0.1494
 3529SOL    HW110876   3.408   1.546   0.960  0.3022  1.7285 -0.0580
 3529SOL    HW210877   3.415   1.403   0.883 -2.5513  1.0511  0.8253
 3530SOL     OW10878   2.048   1.007   4.595 -0.2267 -0.0084  0.3369
 3530SOL    HW110879   2.074   0.911   4.595 -1.4317 -0.3501  1.2227
 3530SOL    HW210880   2.056   1.045   4.687 -0.8408  0.4352  0.2161
 3531SOL     OW10881   4.522   1.819   2.142  0.3564 -0.0972 -0.2143
 3531SOL    HW110882   4.578   1.763   2.204  0.6769  0.7398  0.2713
 3531SOL    HW210883   4.460   1.760   2.091  2.6402 -1.2526 -1.8123
 3532SOL     OW10884   2.988   0.359   5.485  0.0211 -0.4412 -0.2722
 3532SOL    HW110885   2.926   0.370   5.407  1.0712  1.5394 -0.9061
 3532SOL    HW210886   3.013   0.449   5.520  1.3360 -1.2422  0.9325
 3533SOL     OW10887   5.097   4.251   0.932 -0.4020  0.2880 -0.6405
 3533SOL    HW110888   5.124   4.200   0.850 -2.1418 -2.0500  0.1391
 3533SOL    HW210889   4.998   4.241   0.946 -0.2416  1.1688  1.4077
 3534SOL     OW10890   5.724   5.469   2.232 -0.4217 -0.0484 -0.6864
 3534SOL    HW110891   5.676   5.456   2.318 -0.8520  1.2583 -0.7130
 3534SOL    HW210892   5.816   5.505   2.249 -0.0164 -1.0392 -0.7185
 3535SOL     OW10893   1.289   1.906   2.816 -0.5175  0.2417  0.1335
 3535SOL    HW110894   1.207   1.856   2.847  1.0247 -1.4802  1.6827
 3535SOL    HW210895   1.320   1.967   2.888  0.1771  0.0521  0.0029
 3536SOL     OW10896   2.541   3.122   4.518 -0.1420 -0.2375 -0.1601
 3536SOL    HW110897   2.496   3.039   4.549 -2.1685  1.5509  2.1246
 3536SOL    HW210898   2.610   3.150   4.584 -1.5028  1.3425  0.6890
 3537SOL     OW10899   0.405   5.198   4.600 -0.3209  0.1198  0.2219
 3537SOL    HW110900   0.375   5.132   4.532 -2.3435  1.4470 -0.2457
 3537SOL    HW210901   0.461   5.151   4.669  0.8445 -1.4546 -1.6925
 3538SOL     OW10902   5.026   0.386   2.628 -0.1147  0.1109 -0.3247
 3538SOL    HW110903   5.101   0.415   2.569  0.0432 -0.5473 -0.4588
 3538SOL    HW210904   4.977   0.310   2.585 -0.9023  0.5762 -0.2697
 3539SOL     OW10905   3.728   5.988   0.983  0.2797  0.5778 -0.3562
 3539SOL    HW110906   3.791   5.926   0.936  0.6547  0.8869 -0.2692
 3539SOL    HW210907   3.647   5.938   1.012  0.8518 -0.0228  0.2691
 3540SOL     OW10908   0.454   1.525   5.180  0.5279 -0.0002 -0.1126
 3540SOL    HW110909   0.504   1.442   5.157 -0.6668 -0.6706 -0.4073
 3540SOL    HW210910   0.358   1.515   5.153  0.1469  1.1088  0.7121
 3541SOL     OW10911   1.743   2.980   5.923  0.2566  0.7563  0.4567
 3541SOL    HW110912   1.804   3.000   5.846  2.5206  0.8919  2.1749
 3541SOL    HW210913   1.699   3.065   5.953  0.3897  0.9423  0.1282
 3542SOL     OW10914   3.894   3.635   5.562 -0.2273 -0.3647  0.2248
 3542SOL    HW110915   3.802   3.624   5.598 -0.5749 -2.2226 -1.1075
 3542SOL    HW210916   3.905   3.580   5.480  2.8650 -2.3804  1.7722
 3543SOL     OW10917   3.295   0.100   4.948 -0.2537 -0.1252  0.6061
 3543SOL    HW110918   3.311   0.159   5.027 -0.0167  1.0447 -0.3014
 3543SOL    HW210919   3.381   0.088   4.897 -0.3372 -1.1167  0.6662
 3544SOL     OW10920   1.067   1.488   2.149 -0.4393 -0.0933  0.6990
 3544SOL    HW110921   1.026   1.578   2.131  0.2059  0.1418  0.3782
 3544SOL    HW210922   1.043   1.458   2.241 -1.0136  0.2163  0.6549
 3545SOL     OW10923   5.066   3.054   0.070  0.2556 -0.4884 -0.1208
 3545SOL    HW110924   5.065   2.955   0.051 -2.0689 -0.6950  0.7076
 3545SOL    HW210925   5.046   3.104  -0.015 -1.0009 -0.9018 -0.0963
 3546SOL     OW10926   3.203   0.575   3.324  0.1177 -0.1581 -0.0025
 3546SOL    HW110927   3.113   0.533   3.329  0.0658 -0.2928 -1.6073
 3546SOL    HW210928   3.195   0.669   3.289  0.7294 -0.8207 -2.0602
 3547SOL     OW10929   1.162   2.083   0.436  0.2549  0.0426  0.3927
 3547SOL    HW110930   1.214   2.052   0.356  0.4326 -0.6547  0.7597
 3547SOL    HW210931   1.222   2.082   0.516  0.2241  1.2474  0.4478
 3548SOL     OW10932   0.391   4.883   3.011  0.1617  0.3832 -0.8545
 3548SOL    HW110933   0.401   4.942   3.091  0.6051 -0.7026 -0.0795
 3548SOL    HW210934   0.378   4.939   2.929 -0.6371  1.5105  0.0132
 3549SOL     OW10935   4.696   5.718   4.499 -0.1141 -0.2970  0.1171
 3549SOL    HW110936   4.685   5.797   4.560  1.1819  0.0984 -0.1312
 3549SOL    HW210937   4.645   5.734   4.415  0.6224  0.5613 -0.1820
 3550SOL     OW10938   3.230   2.970   0.603  0.1316  0.2639  0.0776
 3550SOL    HW110939   3.183   2.885   0.578  2.6256 -0.6132 -2.0787
 3550SOL    HW210940   3.194   3.045   0.547 -0.7131  0.2575  0.5859
 3551SOL     OW10941   0.482   3.943   4.172 -0.7193  0.2728 -0.2533
 3551SOL    HW110942   0.472   3.844   4.172  0.6152  0.1273 -0.2676
 3551SOL    HW210943   0.568   3.968   4.217 -1.0063  1.4188 -0.3188
 3552SOL     OW10944   2.781   3.103   1.454  0.3069  0.2250 -0.1627
 3552SOL    HW110945   2.718   3.144   1.388 -1.0124 -0.5666  0.5658
 3552SOL    HW210946   2.812   3.014   1.421  0.0803  0.0715  0.0387
 3553SOL     OW10947   2.244   4.706   1.854 -0.3076 -0.1549 -0.6573
 3553SOL    HW110948   2.252   4.777   1.924  0.9793 -0.2156 -0.7162
 3553SOL    HW210949   2.181   4.735   1.783 -0.0681  0.7741 -0.4978
 3554SOL     OW10950   1.150   3.207   1.939  0.6711 -0.2767  0.0318
 3554SOL    HW110951   1.221   3.248   1.882  0.0673  0.5316 -0.1566
 3554SOL    HW210952   1.060   3.226   1.900  0.3682 -2.0169 -0.2025
 3555SOL     OW10953   1.786   5.523   4.064  0.4795 -0.1222  0.0357
 3555SOL    HW110954   1.735   5.440   4.086  0.4280 -0.1914 -0.3369
 3555SOL    HW210955   1.869   5.498   4.014  0.9309 -0.0177  0.7310
 3556SOL     OW10956   3.608   4.715   3.053 -0.0196  0.7066 -0.0219
 3556SOL    HW110957   3.684   4.740   3.113 -0.3565 -0.2643  0.8544
 3556SOL    HW210958   3.587   4.618   3.066 -0.4414  0.6043 -1.3511
 3557SOL     OW10959   0.764   1.790   1.594  0.3722  0.6811  0.3795
 3557SOL    HW110960   0.682   1.732   1.594 -0.7900  2.1966 -2.0491
 3557SOL    HW210961   0.776   1.830   1.685 -0.5599 -0.9057  1.2484
 3558SOL     OW10962   1.175   2.075   2.124 -0.4331 -0.5122  0.1215
 3558SOL    HW110963   1.271   2.103   2.122  0.0299 -1.9705  0.2521
 3558SOL    HW210964   1.168   1.978   2.098 -1.7351 -0.7647  1.2719
 3559SOL     OW10965   0.058   4.140   4.655 -0.4463 -0.4741  0.5193
 3559SOL    HW110966   0.069   4.041   4.668  0.8366 -0.7968 -2.1536
 3559SOL    HW210967  -0.019   4.156   4.593  0.0284  0.1093  0.0736
 3560SOL     OW10968   0.995   1.824   3.715 -0.5332 -0.1476  0.1187
 3560SOL    HW110969   1.012   1.742   3.770 -1.8647 -0.2174  0.4870
 3560SOL    HW210970   0.983   1.903   3.776 -1.1422 -0.0570 -0.1042
 3561SOL     OW10971   3.151   1.249   4.275 -0.4523 -0.1284 -0.1163
 3561SOL    HW110972   3.199   1.205   4.352 -0.4820 -1.2408 -0.7144
 3561SOL    HW210973   3.217   1.273   4.204 -0.7889 -2.3097 -1.2544
 3562SOL     OW10974   3.432   5.601   5.483  0.0913 -0.3568  0.0172
 3562SOL    HW110975   3.430   5.501   5.475 -0.3266 -0.3869  0.4600
 3562SOL    HW210976   3.382   5.642   5.407  0.1220 -0.4909 -0.0764
 3563SOL     OW10977   3.613   4.297   1.495 -0.3281 -0.8551  0.4736
 3563SOL    HW110978   3.564   4.214   1.471  0.2581 -0.6037 -1.9161
 3563SOL    HW210979   3.699   4.274   1.540 -0.5097 -1.4908  0.4992
 3564SOL     OW10980   3.697   2.734   1.342  0.5187  0.6212 -0.0632
 3564SOL    HW110981   3.737   2.792   1.413 -0.1330  1.4572 -0.3642
 3564SOL    HW210982   3.598   2.733   1.352  0.5657 -1.3543  0.6110
 3565SOL     OW10983   4.107   3.499   1.637  0.5233 -0.0506  0.1037
 3565SOL    HW110984   4.159   3.414   1.644 -0.0799 -0.4476 -0.2406
 3565SOL    HW210985   4.069   3.508   1.545  0.6786  0.6522  0.1004
 3566SOL     OW10986   1.937   1.525   2.377  0.3747  0.2644 -0.2443
 3566SOL    HW110987   2.007   1.513   2.447 -0.9321  0.4164  1.1255
 3566SOL    HW210988   1.918   1.437   2.334  1.5400  0.2586 -0.8088
 3567SOL     OW10989   4.571   0.744   0.155  0.4254  0.1033 -0.7340
 3567SOL    HW110990   4.590   0.832   0.199 -0.8338  0.0506 -0.0428
 3567SOL    HW210991   4.578   0.670   0.222 -1.4206  0.0145 -0.5660
 3568SOL     OW10992   5.049   2.034   4.992  0.4718 -0.0124  0.2819
 3568SOL    HW110993   5.060   2.011   5.088 -0.3923 -0.6571  0.2400
 3568SOL    HW210994   4.989   2.114   4.984  1.7683  1.0107  0.3275
 3569SOL     OW10995   2.230   2.104   3.843  0.3628  0.1459  0.0483
 3569SOL    HW110996   2.235   2.029   3.777  1.3485  0.6920 -0.5199
 3569SOL    HW210997   2.182   2.182   3.801  1.8298  0.8427 -0.4020
 3570SOL     OW10998   5.468   3.328   5.164 -0.3602  0.3631  0.3843
 3570SOL    HW110999   5.426   3.238   5.178  0.5018 -0.5301 -2.1234
 3570SOL    HW211000   5.450   3.358   5.070  1.2160  1.8045  0.5028
 3571SOL     OW11001   2.888   4.406   0.763 -0.0659  0.3887  0.0387
 3571SOL    HW111002   2.803   4.400   0.711 -1.8549  1.4283  2.6624
 3571SOL    HW211003   2.914   4.315   0.796 -0.4250  0.1352 -0.3644
 3572SOL     OW11004   2.440   3.797   1.579  0.1457  0.2224  0.1530
 3572SOL    HW111005   2.426   3.713   1.526 -0.5964  0.7835 -0.5628
 3572SOL    HW211006   2.356   3.850   1.581 -0.5701 -0.8030  3.8172
 3573SOL     OW11007   4.603   4.248   1.511  0.0602 -0.2423 -0.2042
 3573SOL    HW111008   4.626   4.323   1.572  0.1847  0.7901 -1.4831
 3573SOL    HW211009   4.520   4.202   1.544  0.9127 -0.6500  1.5162
 3574SOL     OW11010   4.504   4.741   2.176 -0.7369 -0.5139  0.9264
 3574SOL    HW111011   4.467   4.767   2.087 -2.6713 -1.3436  1.4408
 3574SOL    HW211012   4.546   4.650   2.170  2.5075  0.8823  0.0625
 3575SOL     OW11013   5.145   4.032   1.446  0.1921  0.0038  0.1811
 3575SOL    HW111014   5.126   3.990   1.535 -1.1517  0.5375  0.1642
 3575SOL    HW211015   5.064   4.078   1.413  0.4604 -0.7705 -1.6744
 3576SOL     OW11016   1.324   1.520   1.811 -0.3169  0.6074  0.3776
 3576SOL    HW111017   1.390   1.553   1.879 -0.0011  2.4204 -0.7280
 3576SOL    HW211018   1.366   1.448   1.756  0.2541  0.7785  0.5814
 3577SOL     OW11019   2.909   1.411   4.722 -0.7914  0.5200 -0.1448
 3577SOL    HW111020   2.841   1.360   4.775  0.5409 -1.0346  0.1468
 3577SOL    HW211021   2.873   1.430   4.631 -1.0531 -1.6932 -0.5570
 3578SOL     OW11022   0.690   2.178   5.277  0.5328 -0.1310 -0.3838
 3578SOL    HW111023   0.684   2.247   5.205 -0.1236 -0.8017 -1.0049
 3578SOL    HW211024   0.598   2.148   5.301  0.6890  0.7492  1.4223
 3579SOL     OW11025   0.344   1.230   0.412 -0.5556 -0.3621  0.4281
 3579SOL    HW111026   0.368   1.228   0.315  0.1453 -3.0682  0.5860
 3579SOL    HW211027   0.244   1.224   0.421 -0.7994  1.8734 -0.0836
 3580SOL     OW11028   4.809   2.315   3.120  0.1422 -0.6284 -0.3585
 3580SOL    HW111029   4.767   2.261   3.193 -1.4075 -1.1823 -1.5714
 3580SOL    HW211030   4.844   2.253   3.049 -1.4197 -0.1251 -1.6432
 3581SOL     OW11031   3.020   0.133   3.940 -0.5898  0.4178 -0.1004
 3581SOL    HW111032   3.093   0.199   3.958  0.2330 -0.1807 -1.0727
 3581SOL    HW211033   3.011   0.071   4.018  1.1981 -0.6073 -0.6521
 3582SOL     OW11034   0.738   2.193   4.033 -0.0444 -0.0610  0.2247
 3582SOL    HW111035   0.677   2.117   4.008  1.8535 -2.1629  1.6627
 3582SOL    HW211036   0.709   2.232   4.120 -0.8690  0.7672 -0.3937
 3583SOL     OW11037   3.918   4.696   0.893  0.3020  0.2452  0.0845
 3583SOL    HW111038   3.976   4.660   0.965 -1.1257  1.1355  1.7538
 3583SOL    HW211039   3.974   4.748   0.828  1.7616 -1.4524 -0.0864
 3584SOL     OW11040   0.207   2.650   2.622 -0.2818  0.3315 -0.7166
 3584SOL    HW111041   0.141   2.696   2.563 -0.9389  1.3731  0.7676
 3584SOL    HW211042   0.214   2.554   2.596 -1.4478  0.4922 -1.7020
 3585SOL     OW11043   5.020   3.537   5.375 -0.6729 -0.2105  0.4130
 3585SOL    HW111044   5.034   3.626   5.331  0.1186 -0.4580  0.1410
 3585SOL    HW211045   5.045   3.464   5.311 -0.6996 -0.6102  0.8493
 3586SOL     OW11046   2.177   5.433   3.333 -0.4482  0.3294  0.1129
 3586SOL    HW111047   2.271   5.405   3.314 -0.9240 -0.4502 -1.1673
 3586SOL    HW211048   2.171   5.467   3.427  0.7535 -1.2988  0.8320
 3587SOL     OW11049   5.211   2.040   1.328  0.0065 -0.0429  0.0808
 3587SOL    HW111050   5.286   2.041   1.394 -0.9861 -0.4129  1.2697
 3587SOL    HW211051   5.224   1.964   1.264  0.9103  0.2234 -0.0613
 3588SOL     OW11052   4.881   2.559   0.257 -0.0954 -0.2835 -0.7570
 3588SOL    HW111053   4.943   2.587   0.331 -0.3498 -1.8744  0.0983
 3588SOL    HW211054   4.918   2.478   0.211 -0.5916 -0.0862 -1.5199
 3589SOL     OW11055   2.034   1.919   5.542  0.2671  0.1887 -0.2831
 3589SOL    HW111056   2.097   1.920   5.464 -0.5580 -0.7204 -0.9911
 3589SOL    HW211057   1.946   1.881   5.513 -0.4619  1.0005  0.8037
 3590SOL     OW11058   2.110   2.500   0.858  0.8059 -0.3581  0.4138
 3590SOL    HW111059   2.154   2.483   0.771 -0.1093 -1.8177  0.1883
 3590SOL    HW211060   2.084   2.412   0.900  1.4171  0.2827  2.2621
 3591SOL     OW11061   2.320   0.852   1.589  0.9235 -0.2432  0.1511
 3591SOL    HW111062   2.292   0.822   1.680 -0.1777 -1.2238 -0.4967
 3591SOL    HW211063   2.409   0.813   1.567  1.6846  0.8098  1.1770
 3592SOL     OW11064   2.528   0.974   0.835  0.0782 -0.3129  0.3303
 3592SOL    HW111065   2.523   0.891   0.780  1.3310 -0.3054  0.1670
 3592SOL    HW211066   2.535   0.950   0.932 -1.7550 -0.3318  0.4957
 3593SOL     OW11067   5.165   0.387   4.054  0.0217 -0.0310 -0.2165
 3593SOL    HW111068   5.264   0.391   4.038  0.5049 -3.2639  1.1199
 3593SOL    HW211069   5.118   0.372   3.967  1.0523 -1.4655 -0.5738
 3594SOL     OW11070   1.865   2.601   5.533 -0.0466  0.0407  0.1889
 3594SOL    HW111071   1.793   2.667   5.511  0.8696  0.6187 -1.2022
 3594SOL    HW211072   1.952   2.648   5.545  0.3661 -0.7816  0.5413
 3595SOL     OW11073   4.937   1.407   1.623 -0.0004  0.2769  0.0357
 3595SOL    HW111074   4.969   1.502   1.622 -1.7277  0.9043  0.5700
 3595SOL    HW211075   4.961   1.364   1.709  0.4380  0.3532 -0.0465
 3596SOL     OW11076   3.883   2.742   5.863  0.6404 -0.0464  0.1654
 3596SOL    HW111077   3.973   2.701   5.849  1.1916  0.3618  2.1637
 3596SOL    HW211078   3.813   2.670   5.863  1.0194 -0.4333 -0.7838
 3597SOL     OW11079   4.452   3.524   3.196 -0.3332  0.3148 -0.1449
 3597SOL    HW111080   4.435   3.513   3.294  1.6269  0.4158  0.2456
 3597SOL    HW211081   4.520   3.596   3.181 -2.0182  1.6796 -1.7436
 3598SOL     OW11082   2.929   5.322   3.073  0.2584 -0.0156 -0.1521
 3598SOL    HW111083   2.888   5.274   3.150 -1.3063 -0.8792 -1.4846
 3598SOL    HW211084   2.944   5.259   2.997 -0.5339  1.2749 -1.4462
 3599SOL     OW11085   2.078   2.214   2.658 -0.1700  0.2245 -0.4562
 3599SOL    HW111086   2.158   2.155   2.668 -0.9193 -0.6810  0.3038
 3599SOL    HW211087   2.004   2.163   2.614  0.9173  2.2093 -5.3340
 3600SOL     OW11088   5.821   1.432   2.869 -0.0228  0.1612  0.0272
 3600SOL    HW111089   5.796   1.468   2.779 -0.5013  0.9648  0.4735
 3600SOL    HW211090   5.920   1.418   2.873  0.0236  0.2999 -0.5571
 3601SOL     OW11091   3.802   0.706   3.106  0.1430 -0.7385 -0.0312
 3601SOL    HW111092   3.901   0.715   3.112  0.0909 -0.0633 -0.0185
 3601SOL    HW211093   3.759   0.778   3.160 -0.3361  0.5610 -2.0042
 3602SOL     OW11094   1.472   0.711   1.135 -1.1310  0.0258  0.1525
 3602SOL    HW111095   1.565   0.745   1.148 -0.7878 -1.6055  2.7860
 3602SOL    HW211096   1.475   0.623   1.088 -1.5170  0.6280 -1.0531
 3603SOL     OW11097   4.784   1.170   2.016 -0.1793 -0.6667  0.0744
 3603SOL    HW111098   4.720   1.245   2.034  0.2484 -0.1038 -0.6958
 3603SOL    HW211099   4.746   1.085   2.052 -0.6186 -0.0679  1.0728
 3604SOL     OW11100   4.158   4.173   4.276  0.0978 -0.4098  0.0483
 3604SOL    HW111101   4.075   4.128   4.308 -0.7249 -0.8422 -2.4809
 3604SOL    HW211102   4.143   4.271   4.271 -0.8837 -0.6182 -1.9257
 3605SOL     OW11103   4.805   0.226   1.991 -0.6395  0.0706  0.3471
 3605SOL    HW111104   4.842   0.140   2.025  0.3690  0.1682 -0.4486
 3605SOL    HW211105   4.755   0.211   1.906  0.9563  0.4640 -0.7037
 3606SOL     OW11106   2.383   5.360   4.082 -0.3940 -0.5357 -0.2028
 3606SOL    HW111107   2.404   5.445   4.035  2.9163 -0.9452  0.2708
 3606SOL    HW211108   2.362   5.289   4.014  1.1467 -0.3483 -0.9255
 3607SOL     OW11109   4.880   3.762   4.626 -0.7963 -0.1761 -0.4798
 3607SOL    HW111110   4.849   3.731   4.716  0.6453  1.8266  0.7876
 3607SOL    HW211111   4.820   3.835   4.594 -0.4356  0.1412 -0.4340
 3608SOL     OW11112   1.775   1.749   0.033  0.0264 -0.2917 -0.0234
 3608SOL    HW111113   1.842   1.686  -0.007  0.9363 -0.4788  1.7003
 3608SOL    HW211114   1.816   1.840   0.044 -0.5336  0.0157 -0.3998
 3609SOL     OW11115   4.647   0.218   1.727  0.3851 -0.0660  0.1295
 3609SOL    HW111116   4.705   0.224   1.646  0.8891  2.4854  0.5754
 3609SOL    HW211117   4.558   0.181   1.702  0.5701  0.5662 -1.5846
 3610SOL     OW11118   2.058   3.988   0.545 -0.8191 -0.0806  0.0439
 3610SOL    HW111119   2.099   4.079   0.557  0.4955 -0.6500 -0.0529
 3610SOL    HW211120   1.994   3.971   0.620 -0.4557  0.5921  0.5215
 3611SOL     OW11121   2.080   2.970   4.942  0.6489 -0.6086  0.1702
 3611SOL    HW111122   1.999   2.948   4.887  0.0201 -0.2334  0.9138
 3611SOL    HW211123   2.144   2.894   4.939 -0.4194 -1.5764  0.8015
 3612SOL     OW11124   0.335   5.180   2.578  0.6773 -0.1538 -0.3486
 3612SOL    HW111125   0.420   5.224   2.548  0.2223  0.2781 -1.0333
 3612SOL    HW211126   0.266   5.251   2.596 -0.1586 -0.5793 -1.7469
 3613SOL     OW11127   2.599   3.234   2.201  0.5166 -0.0263  0.1661
 3613SOL    HW111128   2.643   3.158   2.153  2.4781  0.1634  1.5440
 3613SOL    HW211129   2.505   3.210   2.222  1.7180 -3.1865  2.6986
 3614SOL     OW11130   0.416   4.794   2.672  0.4468  0.1327  0.0497
 3614SOL    HW111131   0.352   4.870   2.684  0.0345 -0.4401  1.6204
 3614SOL    HW211132   0.366   4.710   2.654  0.8272 -0.0663 -0.0987
 3615SOL     OW11133   5.781   0.387   2.396 -0.1035  0.0970  0.3918
 3615SOL    HW111134   5.862   0.378   2.454  1.0722 -0.1682 -1.2413
 3615SOL    HW211135   5.803   0.440   2.314 -1.6624  0.2612  0.0351
 3616SOL     OW11136   0.893   3.303   3.763 -0.0065 -0.2018  0.3216
 3616SOL    HW111137   0.873   3.342   3.853  0.3869 -1.2596  0.8900
 3616SOL    HW211138   0.921   3.208   3.774 -0.6357 -0.5642 -0.9877
 3617SOL     OW11139   0.667   0.306   4.715  0.7363  0.5445 -0.6477
 3617SOL    HW111140   0.730   0.372   4.756 -0.1671  1.3263 -0.4980
 3617SOL    HW211141   0.677   0.309   4.615 -0.0647  1.7184 -0.7139
 3618SOL     OW11142   0.029   5.786   4.103 -0.2436  0.5846 -0.0892
 3618SOL    HW111143  -0.064   5.768   4.135  0.0186  1.6338  1.3704
 3618SOL    HW211144   0.070   5.701   4.070 -1.1293 -0.2419  0.8633
 3619SOL     OW11145   5.018   2.857   5.719  0.8629  0.1481  0.0559
 3619SOL    HW111146   5.004   2.861   5.818  1.3271  1.4830  0.0830
 3619SOL    HW211147   4.985   2.769   5.685 -2.5715  0.9942  0.8758
 3620SOL     OW11148   0.824   2.212   0.324 -0.1577  0.1334  0.0047
 3620SOL    HW111149   0.852   2.295   0.372  1.9887  0.7889 -2.1694
 3620SOL    HW211150   0.861   2.132   0.371  0.3626  0.6318  0.4572
 3621SOL     OW11151   4.226   1.945   5.806  0.3381  0.4787 -0.1292
 3621SOL    HW111152   4.128   1.923   5.806 -0.5862  3.9737  1.0193
 3621SOL    HW211153   4.274   1.880   5.746 -2.4284 -2.0691  0.1494
 3622SOL     OW11154   0.042   1.804   3.600  0.2720  0.2965 -0.1202
 3622SOL    HW111155   0.109   1.739   3.563 -1.2269 -1.6845  0.4943
 3622SOL    HW211156   0.064   1.823   3.696  0.1886 -0.0189 -0.0393
 3623SOL     OW11157   2.919   4.618   1.250  0.1756 -0.4245  0.0792
 3623SOL    HW111158   2.933   4.564   1.166 -1.0381  0.1133 -0.4940
 3623SOL    HW211159   2.841   4.680   1.237 -0.3265 -0.6499  1.7623
 3624SOL     OW11160   3.321   0.875   2.409  0.2273  0.6138 -0.2084
 3624SOL    HW111161   3.276   0.938   2.472 -0.2202  1.3541 -1.2447
 3624SOL    HW211162   3.352   0.794   2.459 -2.9388 -0.3189  0.4311
 3625SOL     OW11163   4.359   0.200   5.504 -0.5586 -0.1036 -0.1759
 3625SOL    HW111164   4.391   0.259   5.578  1.3226 -0.7983 -0.3798
 3625SOL    HW211165   4.416   0.118   5.500  1.4305  1.2141 -4.1966
 3626SOL     OW11166   1.747   3.545   4.085 -0.1678 -0.0140 -1.0021
 3626SOL    HW111167   1.693   3.463   4.102 -0.6804  0.9916  3.3883
 3626SOL    HW211168   1.687   3.618   4.054 -0.3324 -0.3176 -1.4099
 3627SOL     OW11169   0.332   5.122   4.336  0.1611  0.1663 -0.1908
 3627SOL    HW111170   0.239   5.160   4.338 -0.2655 -0.8749  0.1399
 3627SOL    HW211171   0.373   5.141   4.247 -0.8582 -0.4916 -0.8249
 3628SOL     OW11172   2.523   1.351   0.205 -0.1751 -0.1153  0.3151
 3628SOL    HW111173   2.581   1.287   0.154 -1.7487 -1.6117  0.3266
 3628SOL    HW211174   2.567   1.374   0.292  0.6338 -0.8022  0.1042
 3629SOL     OW11175   3.146   0.601   5.352  0.0112  0.4607  0.0697
 3629SOL    HW111176   3.210   0.660   5.301  1.4359 -1.3969 -0.4018
 3629SOL    HW211177   3.196   0.523   5.389 -1.8117 -0.4398  0.7260
 3630SOL     OW11178   1.508   5.766   0.964 -0.2445 -0.0173  0.5777
 3630SOL    HW111179   1.527   5.671   0.989 -0.0259 -0.0019  0.4754
 3630SOL    HW211180   1.585   5.824   0.992 -1.0095  0.3619  1.9658
 3631SOL     OW11181   2.636   2.823   5.633 -0.4007  0.1182 -0.5724
 3631SOL    HW111182   2.585   2.826   5.719 -0.6947  1.7673 -0.7779
 3631SOL    HW211183   2.597   2.888   5.568 -0.0804 -0.9867 -1.9219
 3632SOL     OW11184   1.823   0.753   4.850 -0.5478 -0.0275 -0.0586
 3632SOL    HW111185   1.830   0.656   4.828  0.1393 -0.0035  0.0364
 3632SOL    HW211186   1.806   0.806   4.767 -0.2440 -0.1594 -0.2023
 3633SOL     OW11187   5.196   4.897   1.882  0.0943  0.0580 -0.3284
 3633SOL    HW111188   5.237   4.819   1.835  0.2893  2.4208 -4.5042
 3633SOL    HW211189   5.098   4.883   1.890  0.1440 -0.6938 -0.9203
 3634SOL     OW11190   5.203   5.601   5.290  0.4772 -0.2487  0.6745
 3634SOL    HW111191   5.186   5.624   5.386  1.9414  0.2521  0.8457
 3634SOL    HW211192   5.246   5.679   5.244  0.6311 -0.8076 -0.1486
 3635SOL     OW11193   2.886   3.745   0.312 -0.4740  0.8986 -0.2707
 3635SOL    HW111194   2.881   3.715   0.407 -0.8236  0.7635 -0.3292
 3635SOL    HW211195   2.981   3.744   0.282 -0.5886 -1.6195 -0.7262
 3636SOL     OW11196   3.607   1.244   3.844  0.0299 -0.3117 -0.4839
 3636SOL    HW111197   3.521   1.217   3.887 -0.3137 -0.5477 -1.3093
 3636SOL    HW211198   3.589   1.284   3.755  0.6832  0.9293 -0.0797
 3637SOL     OW11199   2.990   0.335   4.198 -0.6106  0.7673  0.4887
 3637SOL    HW111200   2.910   0.277   4.183 -1.5963  1.4908  2.5229
 3637SOL    HW211201   3.048   0.294   4.268  0.7962  0.2808 -0.9360
 3638SOL     OW11202   3.198   4.794   3.885  0.3492 -0.6373 -0.6410
 3638SOL    HW111203   3.289   4.826   3.857  1.0009 -1.8539 -0.0123
 3638SOL    HW211204   3.154   4.863   3.942  0.0537  0.7918 -2.4926
 3639SOL     OW11205   4.886   0.795   3.452 -0.3529 -0.1587 -0.1087
 3639SOL    HW111206   4.887   0.847   3.366  3.1792  0.8620  0.3843
 3639SOL    HW211207   4.888   0.697   3.432  0.9842  0.0671 -1.2897
 3640SOL     OW11208   2.480   1.923   3.888 -0.3964  0.5205 -0.3523
 3640SOL    HW111209   2.418   1.851   3.920  0.3277 -0.6102 -1.3890
 3640SOL    HW211210   2.456   2.010   3.933 -1.9857 -0.1124  0.1170
 3641SOL     OW11211   5.316   1.962   4.319 -0.4182  0.1190 -0.5359
 3641SOL    HW111212   5.218   1.979   4.329 -0.2054  0.4951  1.3930
 3641SOL    HW211213   5.345   1.892   4.384  0.5431 -0.2950 -1.3719
 3642SOL     OW11214   1.798   1.925   5.179  0.0517 -0.4497  0.1318
 3642SOL    HW111215   1.727   1.856   5.196  0.6640 -0.8612  1.0851
 3642SOL    HW211216   1.755   2.015   5.173 -0.6159 -0.7549  0.1975
 3643SOL     OW11217   3.521   2.183   3.193  0.4051 -0.0760 -0.3893
 3643SOL    HW111218   3.510   2.098   3.245 -0.6663  0.1911 -0.1567
 3643SOL    HW211219   3.447   2.191   3.126  0.0701  1.0210  0.0934
 3644SOL     OW11220   3.254   0.289   3.671 -0.2677 -0.1718  0.1576
 3644SOL    HW111221   3.228   0.210   3.727  0.7914  1.1736  2.7183
 3644SOL    HW211222   3.349   0.315   3.692  0.5929 -0.1847 -3.1055
 3645SOL     OW11223   4.961   1.846   0.145  0.0607 -0.3028  0.1831
 3645SOL    HW111224   5.053   1.883   0.156  0.5893 -1.3264 -0.5927
 3645SOL    HW211225   4.960   1.750   0.170 -0.5759 -0.5404 -0.6770
 3646SOL     OW11226   4.773   5.638   3.275  0.5767 -0.1843 -0.0783
 3646SOL    HW111227   4.812   5.580   3.347 -0.1956  0.4555  0.8918
 3646SOL    HW211228   4.684   5.602   3.248  1.1932 -0.8481 -1.2762
 3647SOL     OW11229   3.027   5.645   0.745 -0.0481  0.0591  0.3112
 3647SOL    HW111230   3.074   5.662   0.832  0.1945 -0.9915  0.3898
 3647SOL    HW211231   2.929   5.632   0.763 -0.2567  1.3718  0.2422
 3648SOL     OW11232   3.946   4.406   3.654  0.6149 -0.1630 -0.2800
 3648SOL    HW111233   4.008   4.334   3.624  1.4207 -0.2208  1.3688
 3648SOL    HW211234   3.896   4.376   3.736  1.1185  1.1874  0.5660
 3649SOL     OW11235   0.504   1.882   1.919  0.1598  0.0395 -0.1919
 3649SOL    HW111236   0.467   1.951   1.857 -1.6541 -0.1869  0.5754
 3649SOL    HW211237   0.429   1.832   1.962  1.4111 -2.1417 -0.3866
 3650SOL     OW11238   1.044   1.551   0.368  0.5936 -0.0417 -0.1385
 3650SOL    HW111239   0.965   1.513   0.320  0.2272 -0.3531  0.6949
 3650SOL    HW211240   1.037   1.531   0.466  2.9810 -2.3821 -0.3075
 3651SOL     OW11241   5.493   1.597   2.729 -0.0339 -0.0549 -0.3997
 3651SOL    HW111242   5.583   1.639   2.745  1.0743 -1.5080 -2.3960
 3651SOL    HW211243   5.469   1.603   2.633 -1.9807  0.0310  0.0457
 3652SOL     OW11244   3.247   5.529   0.622 -0.0103  0.3341  0.3590
 3652SOL    HW111245   3.233   5.435   0.655 -0.5616  0.2015 -0.2457
 3652SOL    HW211246   3.167   5.584   0.643  0.9623  1.1544  2.2698
 3653SOL     OW11247   1.364   5.212   2.213  0.2906  0.4328  0.5539
 3653SOL    HW111248   1.438   5.206   2.281 -0.5258 -0.1560  1.4218
 3653SOL    HW211249   1.277   5.196   2.258 -0.3049  0.3491 -0.5987
 3654SOL     OW11250   4.822   3.652   4.875 -0.4157  0.3856 -0.6996
 3654SOL    HW111251   4.868   3.728   4.922 -0.6780  0.5930 -0.7797
 3654SOL    HW211252   4.785   3.588   4.943 -0.3545  0.4236 -0.6304
 3655SOL     OW11253   2.545   1.456   2.505 -0.4119  0.0616  0.3743
 3655SOL    HW111254   2.615   1.428   2.439 -0.2396  1.4949 -0.0881
 3655SOL    HW211255   2.491   1.531   2.466 -0.9995  0.2143  1.4527
 3656SOL     OW11256   5.550   0.417   5.632 -0.0258  0.0922  0.1852
 3656SOL    HW111257   5.480   0.385   5.569  0.5418  0.6788 -0.7712
 3656SOL    HW211258   5.639   0.377   5.607 -0.1376 -1.4156  1.9635
 3657SOL     OW11259   3.346   2.287   5.587 -0.6562 -0.0426 -0.1209
 3657SOL    HW111260   3.385   2.349   5.519  1.3511 -1.1721 -0.0699
 3657SOL    HW211261   3.382   2.311   5.678 -1.7960  0.2314  0.2712
 3658SOL     OW11262   1.419   2.952   4.774  0.1165 -0.3094  0.0677
 3658SOL    HW111263   1.408   3.041   4.729 -0.6757  1.6132  3.6909
 3658SOL    HW211264   1.339   2.933   4.830  1.4520 -1.9339  1.5580
 3659SOL     OW11265   4.965   4.480   3.296 -0.3484 -0.0262 -0.4736
 3659SOL    HW111266   4.976   4.436   3.385 -1.8984  2.3077  0.9905
 3659SOL    HW211267   4.911   4.421   3.236  0.3647 -1.4550  0.2286
 3660SOL     OW11268   1.389   2.141   2.454 -0.6239 -0.3311 -1.1976
 3660SOL    HW111269   1.475   2.094   2.472 -0.0040  1.5521  1.3583
 3660SOL    HW211270   1.401   2.205   2.377  0.2789 -0.0741 -0.8547
 3661SOL     OW11271   0.531   3.096   0.246 -0.4054  0.8857  0.4642
 3661SOL    HW111272   0.551   3.023   0.180 -1.0324 -0.0808  1.3178
 3661SOL    HW211273   0.617   3.138   0.276  0.1009 -0.5372  1.1025
 3662SOL     OW11274   1.271   0.934   1.490  0.5982 -0.0945 -0.2863
 3662SOL    HW111275   1.285   0.929   1.391  2.3204  0.0038 -0.0944
 3662SOL    HW211276   1.230   1.022   1.514 -2.6118 -1.2481 -1.1267
 3663SOL     OW11277   1.763   5.333   5.494 -0.2827  0.2423  0.2876
 3663SOL    HW111278   1.694   5.278   5.448 -1.7327  1.9711  0.2889
 3663SOL    HW211279   1.846   5.279   5.506 -0.9299 -1.2613 -1.5122
 3664SOL     OW11280   2.756   5.252   2.659  0.1343  0.4209 -0.1415
 3664SOL    HW111281   2.677   5.201   2.625 -0.3048 -0.8049  2.4986
 3664SOL    HW211282   2.754   5.345   2.622 -2.5575  0.4376 -0.1323
 3665SOL     OW11283   3.420   2.412   3.332 -0.5815 -0.2135  0.6508
 3665SOL    HW111284   3.480   2.446   3.404  0.9894 -0.2199 -0.5897
 3665SOL    HW211285   3.459   2.328   3.294 -0.5757  0.5708 -1.1620
 3666SOL     OW11286   2.989   5.412   5.026 -0.1721  0.1882 -0.2658
 3666SOL    HW111287   2.912   5.468   5.057 -1.9231 -1.0741 -2.0766
 3666SOL    HW211288   2.993   5.327   5.078 -0.1913  0.1239 -0.3686
 3667SOL     OW11289   2.117   3.862   4.480  0.0408  0.6625  0.1911
 3667SOL    HW111290   2.163   3.774   4.492  0.4664  0.9817  0.9753
 3667SOL    HW211291   2.145   3.925   4.553 -1.6029  0.8757  0.6932
 3668SOL     OW11292   5.229   2.448   5.048  0.0933 -0.0142 -0.1655
 3668SOL    HW111293   5.241   2.547   5.037  0.1189 -0.0936 -0.8952
 3668SOL    HW211294   5.176   2.431   5.131 -0.8660  0.6807 -0.6091
 3669SOL     OW11295   2.122   0.352   0.347 -0.8045  0.0768  0.2664
 3669SOL    HW111296   2.136   0.310   0.437  0.4611 -0.6026 -0.2207
 3669SOL    HW211297   2.024   0.361   0.329 -1.1241 -1.9701  0.7241
 3670SOL     OW11298   0.105   0.798   1.977  0.1856 -0.2376  0.5772
 3670SOL    HW111299   0.194   0.782   1.934 -1.4264 -2.4319 -2.2659
 3670SOL    HW211300   0.057   0.871   1.927 -0.5603 -0.7730  0.4973
 3671SOL     OW11301   0.083   2.987   0.109 -0.1353 -0.5742 -0.3239
 3671SOL    HW111302   0.115   2.995   0.203 -2.2565 -0.7430  0.4551
 3671SOL    HW211303  -0.017   2.984   0.107 -0.3067  2.0860 -2.7589
 3672SOL     OW11304   3.493   4.071   0.401  0.5606 -0.6284  0.5972
 3672SOL    HW111305   3.510   4.124   0.318 -0.5884 -1.1035  0.0395
 3672SOL    HW211306   3.399   4.088   0.432  1.6125  1.2705  3.0739
 3673SOL     OW11307   1.888   5.140   3.789  0.2927  0.1206  0.2107
 3673SOL    HW111308   1.804   5.101   3.753  1.0502 -1.3721  0.0169
 3673SOL    HW211309   1.945   5.173   3.713 -0.3956  1.8234  0.3728
 3674SOL     OW11310   3.350   0.923   5.738 -0.4791  0.0192  0.2594
 3674SOL    HW111311   3.429   0.983   5.742  1.1757 -1.9922 -0.6443
 3674SOL    HW211312   3.322   0.898   5.831  1.3024 -0.9026  0.5811
 3675SOL     OW11313   0.320   4.595   0.341  0.0028 -0.2245 -0.0998
 3675SOL    HW111314   0.331   4.500   0.312  1.1808  0.2522 -1.3292
 3675SOL    HW211315   0.308   4.653   0.260  2.5454  1.0628  0.3491
 3676SOL     OW11316   2.958   4.925   0.453 -0.4082  0.0239  0.0043
 3676SOL    HW111317   2.892   4.882   0.392 -0.1435 -0.1892 -0.1328
 3676SOL    HW211318   2.975   4.865   0.531 -1.0360  0.4612  0.4934
 3677SOL     OW11319   0.784   3.744   0.857  0.0066  0.2416  0.0939
 3677SOL    HW111320   0.863   3.749   0.918 -0.4333 -0.2047  0.7164
 3677SOL    HW211321   0.815   3.727   0.764  0.6780  0.6960  0.2275
 3678SOL     OW11322   5.895   3.712   0.733  0.3291 -0.2285  0.2336
 3678SOL    HW111323   5.932   3.648   0.801  1.6717  1.5830  1.2761
 3678SOL    HW211324   5.926   3.685   0.642 -0.7215 -2.1439  0.3835
 3679SOL     OW11325   5.776   2.129   2.433 -0.4119  0.5623 -0.1119
 3679SOL    HW111326   5.723   2.120   2.518  1.5800  0.4569  1.1939
 3679SOL    HW211327   5.834   2.211   2.439  0.4782  0.0051 -0.9529
 3680SOL     OW11328   2.641   2.320   0.557 -0.3488  0.7169  0.3287
 3680SOL    HW111329   2.625   2.321   0.459 -0.1045 -1.1944  0.2436
 3680SOL    HW211330   2.564   2.276   0.603  0.5442 -0.4138  0.7673
 3681SOL     OW11331   0.299   3.137   3.776  0.4956 -0.4079 -0.0720
 3681SOL    HW111332   0.220   3.134   3.716  1.2705  0.8588 -1.2257
 3681SOL    HW211333   0.321   3.045   3.807 -0.4886 -0.9732 -0.9885
 3682SOL     OW11334   4.007   1.197   3.112 -0.4349  0.0483 -0.4640
 3682SOL    HW111335   4.014   1.286   3.157  0.8299 -0.9305  1.4182
 3682SOL    HW211336   3.922   1.192   3.060 -0.6600  2.2311 -0.3926
 3683SOL     OW11337   2.928   3.092   3.233 -0.6850 -0.4351  0.0660
 3683SOL    HW111338   3.020   3.085   3.273 -0.5658  1.0361  0.1314
 3683SOL    HW211339   2.890   3.001   3.220  0.1737 -1.0227  1.4609
 3684SOL     OW11340   3.698   4.529   0.108 -0.5514 -0.2123  0.3401
 3684SOL    HW111341   3.797   4.540   0.103 -0.1669 -3.0039  0.4756
 3684SOL    HW211342   3.656   4.617   0.133  2.1528  0.3283  3.7386
 3685SOL     OW11343   5.758   4.211   4.505 -0.2416 -0.5631 -0.0797
 3685SOL    HW111344   5.771   4.114   4.524 -0.7911 -0.8623 -1.1680
 3685SOL    HW211345   5.731   4.258   4.589  0.5567 -1.2382  0.5788
 3686SOL     OW11346   2.924   1.916   0.293 -0.4685  0.8325  0.3433
 3686SOL    HW111347   2.881   1.971   0.364 -1.0554  1.3914 -0.4356
 3686SOL    HW211348   2.889   1.822   0.297 -1.4483  1.1712  0.0004
 3687SOL     OW11349   4.568   5.084   0.326  0.8155 -0.8267  0.2571
 3687SOL    HW111350   4.551   5.040   0.238  0.8037 -1.4715  0.5781
 3687SOL    HW211351   4.660   5.122   0.327 -0.1167  1.7344 -1.0910
 3688SOL     OW11352   1.785   1.819   5.500  0.0958  0.1847  0.0714
 3688SOL    HW111353   1.793   1.733   5.552 -0.1005  0.5344  0.6930
 3688SOL    HW211354   1.727   1.804   5.420  1.1479 -0.5957 -0.5741
 3689SOL     OW11355   4.494   5.621   5.807 -0.1469 -0.5722 -0.2180
 3689SOL    HW111356   4.458   5.596   5.718  0.7634 -1.9528 -0.2290
 3689SOL    HW211357   4.429   5.594   5.878  0.0802 -1.4422 -0.3387
 3690SOL     OW11358   5.163   5.402   2.828 -0.3499  0.2452 -0.1671
 3690SOL    HW111359   5.219   5.339   2.775  0.2708  0.4883  0.1878
 3690SOL    HW211360   5.191   5.496   2.810  0.2480  0.3113  0.9954
 3691SOL     OW11361   1.762   2.891   5.057  0.1496  0.1942 -0.0617
 3691SOL    HW111362   1.717   2.967   5.103 -1.0585 -0.4453 -0.1447
 3691SOL    HW211363   1.805   2.923   4.973  1.0029  1.0678  0.6935
 3692SOL     OW11364   5.723   2.006   1.196 -0.0715 -0.2668 -0.6585
 3692SOL    HW111365   5.689   1.955   1.275  0.7399 -1.1655 -0.8625
 3692SOL    HW211366   5.812   2.046   1.219 -0.5231  0.7521 -0.6340
 3693SOL     OW11367   5.559   2.835   1.073  0.2573 -0.0915  0.5691
 3693SOL    HW111368   5.658   2.833   1.086  0.3342  1.4655  0.4003
 3693SOL    HW211369   5.514   2.840   1.163  0.4971  2.5204  0.6300
 3694SOL     OW11370   1.028   1.777   1.077  0.2757  0.0440  0.0111
 3694SOL    HW111371   1.128   1.775   1.074  0.2524 -1.3300 -0.6874
 3694SOL    HW211372   0.997   1.871   1.095  1.6479  0.7944 -1.2972
 3695SOL     OW11373   0.212   5.123   2.163  0.1498  0.0404  0.1424
 3695SOL    HW111374   0.251   5.055   2.225 -0.5696 -1.1314 -0.6517
 3695SOL    HW211375   0.121   5.094   2.134  0.6520  0.2555 -1.8409
 3696SOL     OW11376   4.450   5.486   3.525 -0.6836 -0.0439  0.8257
 3696SOL    HW111377   4.368   5.537   3.549 -0.5480  0.8895 -0.5340
 3696SOL    HW211378   4.427   5.390   3.508 -1.8894  0.5534 -1.3423
 3697SOL     OW11379   0.393   2.578   4.319 -0.2725  0.1174 -0.1614
 3697SOL    HW111380   0.367   2.513   4.391  0.6033  0.3677  0.3956
 3697SOL    HW211381   0.319   2.642   4.304 -1.4682 -1.4459 -1.2450
 3698SOL     OW11382   1.791   3.292   3.393  0.3860 -0.4909 -0.4974
 3698SOL    HW111383   1.730   3.282   3.314  1.3263 -1.3626 -1.1453
 3698SOL    HW211384   1.879   3.250   3.372  0.9529  0.0481  0.7079
 3699SOL     OW11385   2.486   5.047   1.807  0.0363 -0.5086 -0.0852
 3699SOL    HW111386   2.470   4.959   1.762  0.8195 -0.3632 -0.6723
 3699SOL    HW211387   2.496   5.033   1.906 -0.5301 -0.9821 -0.0891
 3700SOL     OW11388   1.636   1.001   2.294 -0.4153  0.0498 -0.9506
 3700SOL    HW111389   1.628   1.100   2.277  1.9090  0.5263  0.2794
 3700SOL    HW211390   1.547   0.958   2.284 -1.6462  2.4089 -0.7461
 3701SOL     OW11391   0.444   5.667   3.204  0.2176  0.3678  0.0618
 3701SOL    HW111392   0.454   5.693   3.108  2.5053 -0.3273  0.0613
 3701SOL    HW211393   0.518   5.606   3.231  0.0839  1.1369  2.4820
 3702SOL     OW11394   2.331   1.085   2.156 -0.2783  0.3176  0.2278
 3702SOL    HW111395   2.383   1.171   2.156  2.8150 -1.3831  0.8186
 3702SOL    HW211396   2.352   1.034   2.073  1.7646 -1.8130  1.9003
 3703SOL     OW11397   3.016   5.901   5.259 -0.1898  0.3307  0.1970
 3703SOL    HW111398   2.940   5.861   5.311 -0.8947  1.1671 -0.1667
 3703SOL    HW211399   2.991   5.905   5.163 -0.2521  1.8552  0.2467
 3704SOL     OW11400   0.621   3.520   1.795 -0.2426  0.1323 -0.0472
 3704SOL    HW111401   0.545   3.550   1.853 -0.2114 -0.5895  0.3811
 3704SOL    HW211402   0.705   3.518   1.849 -0.2596 -0.7900 -0.0350
 3705SOL     OW11403   5.609   3.697   1.640 -0.4463 -0.3136  0.2827
 3705SOL    HW111404   5.696   3.740   1.664 -1.7100  1.6423  1.6365
 3705SOL    HW211405   5.580   3.637   1.715 -0.9813  0.2598  0.5473
 3706SOL     OW11406   0.512   4.884   3.334 -0.6505 -0.3621 -0.5696
 3706SOL    HW111407   0.447   4.947   3.376 -1.0179 -1.1313  0.0380
 3706SOL    HW211408   0.489   4.790   3.360  0.9383 -0.6220  0.0137
 3707SOL     OW11409   3.114   2.656   4.162 -0.0546  0.2972 -0.3711
 3707SOL    HW111410   3.170   2.579   4.192  2.0045  0.4920 -3.2538
 3707SOL    HW211411   3.024   2.623   4.135  0.1798 -0.8181  0.1485
 3708SOL     OW11412   2.059   3.635   4.131 -0.3262 -0.5074 -0.3270
 3708SOL    HW111413   1.960   3.634   4.144 -0.6560 -0.7510 -2.4994
 3708SOL    HW211414   2.097   3.717   4.175 -1.2857 -1.0512  1.6003
 3709SOL     OW11415   1.721   0.073   4.103 -0.5906 -0.2915 -0.1933
 3709SOL    HW111416   1.773   0.148   4.064 -0.0504 -0.3520  0.4018
 3709SOL    HW211417   1.746  -0.013   4.057  0.6128 -0.4835  0.7811
 3710SOL     OW11418   3.134   5.021   3.998  0.2603 -0.0773 -0.1965
 3710SOL    HW111419   3.066   5.092   3.980  0.0643 -0.4044 -0.7802
 3710SOL    HW211420   3.212   5.033   3.937 -0.1300 -0.8252 -0.8690
 3711SOL     OW11421   2.191   0.765   3.488 -0.0747 -0.0154  0.6321
 3711SOL    HW111422   2.289   0.772   3.468 -0.0582 -0.7965  0.3997
 3711SOL    HW211423   2.148   0.707   3.419 -0.8031  0.7486  0.4269
 3712SOL     OW11424   2.137   5.513   1.256  0.0759  0.4946  0.2836
 3712SOL    HW111425   2.138   5.507   1.356  2.5491 -1.9460  0.2432
 3712SOL    HW211426   2.053   5.471   1.221 -0.5984  0.9536  1.3078
 3713SOL     OW11427   0.366   3.050   2.461 -0.6503  0.0513 -0.0919
 3713SOL    HW111428   0.287   3.087   2.509 -0.0705  0.6676  0.4155
 3713SOL    HW211429   0.360   3.072   2.364 -0.4952  1.2110  0.1417
 3714SOL     OW11430   1.194   5.267   2.759 -0.4111 -0.4304 -0.1791
 3714SOL    HW111431   1.133   5.284   2.681 -2.3522 -0.2945  1.2770
 3714SOL    HW211432   1.161   5.187   2.810  0.7389 -0.4354  0.5939
 3715SOL     OW11433   4.205   3.319   1.112 -0.0336 -0.4177  0.3160
 3715SOL    HW111434   4.221   3.240   1.053 -0.8262 -1.0199  0.8792
 3715SOL    HW211435   4.261   3.396   1.081  0.0294 -0.9045 -0.8204
 3716SOL     OW11436   4.262   4.870   0.232  0.1147  0.4421  0.4555
 3716SOL    HW111437   4.256   4.775   0.263 -0.3591  0.2860 -0.0957
 3716SOL    HW211438   4.238   4.876   0.135  0.1606  1.1233  0.4760
 3717SOL     OW11439   4.732   3.153   0.626  0.4514  0.0995 -0.1712
 3717SOL    HW111440   4.708   3.094   0.703  0.3542  1.5430  0.9516
 3717SOL    HW211441   4.663   3.143   0.554  0.7747 -1.5985 -0.2914
 3718SOL     OW11442   3.786   5.145   4.786 -0.0754  0.7650 -0.1302
 3718SOL    HW111443   3.811   5.084   4.712  1.0122 -0.1304  0.9452
 3718SOL    HW211444   3.789   5.096   4.873  1.6321  2.5187  0.8667
 3719SOL     OW11445   3.777   1.139   4.050  0.2435  0.1333 -0.1252
 3719SOL    HW111446   3.870   1.174   4.059  0.1764  0.4830 -0.7271
 3719SOL    HW211447   3.745   1.154   3.956 -0.7802  0.9426  0.3272
 3720SOL     OW11448   0.844   5.127   3.219 -0.2422 -0.2130 -0.7309
 3720SOL    HW111449   0.791   5.188   3.279  0.8757  0.6398 -0.5565
 3720SOL    HW211450   0.929   5.174   3.192  0.3277 -1.4574 -1.1507
 3721SOL     OW11451   2.154   2.726   5.483 -0.0680  0.9366  0.2047
 3721SOL    HW111452   2.171   2.819   5.449  1.1016  0.8920  0.6330
 3721SOL    HW211453   2.215   2.662   5.437 -1.8376  0.1266 -1.1345
 3722SOL     OW11454   5.121   5.667   5.868 -0.3929 -0.4989  0.2697
 3722SOL    HW111455   5.129   5.584   5.923  1.1327 -1.1049 -0.8058
 3722SOL    HW211456   5.044   5.659   5.804 -1.3636 -0.3153  1.3752
 3723SOL     OW11457   4.482   4.290   4.722 -0.2314  0.3718 -0.0358
 3723SOL    HW111458   4.559   4.354   4.717  1.0404 -1.1655 -0.9364
 3723SOL    HW211459   4.514   4.200   4.748 -1.7565 -0.2827 -0.2958
 3724SOL     OW11460   5.751   5.646   4.134 -0.2131  0.0650 -0.4142
 3724SOL    HW111461   5.674   5.688   4.085  0.1713  0.7297 -0.4631
 3724SOL    HW211462   5.726   5.553   4.162 -2.1640  1.2447  2.2024
 3725SOL     OW11463   4.963   2.370   1.849  0.1450 -0.1713  0.2139
 3725SOL    HW111464   4.957   2.338   1.943  0.4685 -0.6533  0.0779
 3725SOL    HW211465   4.903   2.449   1.836  0.4639  0.2028  0.9451
 3726SOL     OW11466   2.430   2.365   1.919  0.1230 -0.3298 -0.3799
 3726SOL    HW111467   2.522   2.394   1.893 -0.6594  0.5852 -2.3043
 3726SOL    HW211468   2.377   2.444   1.950  0.5060 -1.1359  2.6539
 3727SOL     OW11469   4.683   4.774   2.860 -0.8602  0.0631  0.0803
 3727SOL    HW111470   4.661   4.737   2.770 -0.6915  0.9682 -0.3399
 3727SOL    HW211471   4.658   4.870   2.864  1.1607  0.6328  0.2369
 3728SOL     OW11472   1.002   0.792   3.280 -0.0654 -0.1874  0.1082
 3728SOL    HW111473   0.975   0.889   3.281 -1.5921 -0.5704 -1.1187
 3728SOL    HW211474   0.999   0.757   3.187 -1.7513 -1.9840  0.7685
 3729SOL     OW11475   1.791   0.865   3.259 -0.4205  0.3264  0.5161
 3729SOL    HW111476   1.822   0.773   3.284 -0.9555 -0.0680 -0.2496
 3729SOL    HW211477   1.738   0.904   3.335 -1.1907 -0.4717  0.4034
 3730SOL     OW11478   3.332   5.787  -0.002  0.2644  0.5437  0.2188
 3730SOL    HW111479   3.258   5.830  -0.054  0.5343  1.2957  0.4596
 3730SOL    HW211480   3.335   5.824   0.090 -1.1784 -1.8442  1.3346
 3731SOL     OW11481   4.756   5.325   3.035 -0.4592 -0.1436  0.3588
 3731SOL    HW111482   4.688   5.388   2.998  2.2576  2.8265  0.0129
 3731SOL    HW211483   4.803   5.279   2.960 -0.0891  0.0695  0.4608
 3732SOL     OW11484   4.424   3.790   0.605 -0.2587  0.8563 -0.8675
 3732SOL    HW111485   4.477   3.763   0.686 -2.0660 -0.7893 -0.1517
 3732SOL    HW211486   4.464   3.872   0.565  1.8708  0.5853  0.5187
 3733SOL     OW11487   2.329   0.464   4.532  0.4779 -0.2722 -0.0211
 3733SOL    HW111488   2.292   0.414   4.454 -0.7367  1.4654 -0.6189
 3733SOL    HW211489   2.408   0.519   4.503 -0.1069  0.5428 -0.1038
 3734SOL     OW11490   5.282   4.108   4.405  0.0090  0.1597  0.0127
 3734SOL    HW111491   5.373   4.087   4.369  0.0233  1.3364 -0.6781
 3734SOL    HW211492   5.256   4.201   4.379 -2.0224 -0.6429 -1.1146
 3735SOL     OW11493   5.257   0.931   4.395  0.4464  0.0580  0.2627
 3735SOL    HW111494   5.321   0.866   4.353 -1.0164 -1.7228  0.6461
 3735SOL    HW211495   5.213   0.888   4.474 -0.2026  1.7294  0.8582
 3736SOL     OW11496   1.190   3.623   1.162  0.0248 -0.0804  0.0204
 3736SOL    HW111497   1.282   3.663   1.168 -0.4812  1.0545  0.4820
 3736SOL    HW211498   1.123   3.690   1.194 -1.1654 -0.1380 -2.1775
 3737SOL     OW11499   5.535   5.922   5.863 -0.1922  0.0751  0.2526
 3737SOL    HW111500   5.490   5.835   5.885 -0.3581  0.0895 -0.0255
 3737SOL    HW211501   5.466   5.993   5.850 -0.0243  0.4203  1.2027
 3738SOL     OW11502   1.300   1.199   4.415  0.2799 -0.3382  0.0402
 3738SOL    HW111503   1.316   1.259   4.337 -0.2495  0.2705  0.3809
 3738SOL    HW211504   1.300   1.254   4.499 -0.6776 -0.7369  0.3131
 3739SOL     OW11505   5.633   3.191   4.761  0.6142  0.7617  0.0477
 3739SOL    HW111506   5.622   3.130   4.840 -0.7489 -0.9482 -1.3843
 3739SOL    HW211507   5.704   3.155   4.701  0.1894  0.8821 -0.5345
 3740SOL     OW11508   3.042   1.995   3.475  0.4957  0.2531 -0.1454
 3740SOL    HW111509   3.119   1.960   3.421  0.4028 -0.3547  0.1042
 3740SOL    HW211510   2.994   1.918   3.517 -0.7622  0.5471 -0.9801
 3741SOL     OW11511   3.253   2.717   0.849 -0.1291  0.6106 -0.1508
 3741SOL    HW111512   3.309   2.755   0.923 -0.3624  0.3836  0.1450
 3741SOL    HW211513   3.311   2.697   0.770  0.1950  0.4369  0.1306
 3742SOL     OW11514   2.390   0.879   3.903 -0.2181 -0.1638 -0.3581
 3742SOL    HW111515   2.319   0.938   3.942  0.7015  0.6243  0.1482
 3742SOL    HW211516   2.420   0.918   3.816  1.2474  0.8167  0.5501
 3743SOL     OW11517   3.696   4.930   2.764 -1.2053  0.0009  0.5963
 3743SOL    HW111518   3.620   4.873   2.795 -0.5703 -0.4400  1.3720
 3743SOL    HW211519   3.668   4.980   2.682 -1.8584 -1.2138  0.0567
 3744SOL     OW11520   0.344   5.204   3.829 -0.2528  1.1064 -0.1921
 3744SOL    HW111521   0.307   5.177   3.740 -1.5781 -0.5488  0.8030
 3744SOL    HW211522   0.443   5.219   3.821 -0.0605 -0.6135 -1.6256
 3745SOL     OW11523   1.942   4.518   3.585 -0.1994 -0.5440 -0.3773
 3745SOL    HW111524   1.864   4.580   3.596 -0.7690 -0.9239 -1.9441
 3745SOL    HW211525   1.909   4.423   3.590  0.4232 -0.7228  0.5036
 3746SOL     OW11526   4.665   1.185   0.155  0.6957 -0.0352  0.1164
 3746SOL    HW111527   4.582   1.139   0.124  2.3183 -1.0162 -3.2257
 3746SOL    HW211528   4.729   1.117   0.192  0.9863  0.3574  0.3418
 3747SOL     OW11529   4.300   5.729   5.570  0.2624  0.3741 -0.9003
 3747SOL    HW111530   4.237   5.666   5.615  0.8970  0.4320  0.0918
 3747SOL    HW211531   4.251   5.780   5.499 -0.2844 -1.1438 -1.6661
 3748SOL     OW11532   5.940   0.810   5.622 -0.4710 -0.6868  0.0962
 3748SOL    HW111533   5.893   0.724   5.644 -1.1639 -0.5316 -0.7510
 3748SOL    HW211534   6.025   0.790   5.575 -0.6915 -0.9062 -0.2119
 3749SOL     OW11535   3.280   4.792   1.240 -0.3370  0.2836  0.4203
 3749SOL    HW111536   3.223   4.758   1.314  0.8389 -1.4985  0.5822
 3749SOL    HW211537   3.275   4.729   1.162 -0.7921  1.6089 -0.6635
 3750SOL     OW11538   0.307   5.716   4.598  0.0475 -0.8078 -0.2419
 3750SOL    HW111539   0.290   5.780   4.523 -2.5710  1.3684  1.9650
 3750SOL    HW211540   0.371   5.757   4.663 -0.1492 -1.2733  0.2519
 3751SOL     OW11541   2.430   0.850   3.378 -0.5234 -0.0277  0.0006
 3751SOL    HW111542   2.503   0.898   3.330 -2.0208  0.4698 -1.9281
 3751SOL    HW211543   2.432   0.753   3.353 -0.3157 -0.0762  0.2088
 3752SOL     OW11544   0.138   1.128   3.799 -0.2935 -0.2803  0.2372
 3752SOL    HW111545   0.091   1.143   3.711  1.5695  0.8822 -0.6254
 3752SOL    HW211546   0.149   1.215   3.846  0.3376 -0.6364  0.7606
 3753SOL     OW11547   1.020   2.668   2.832 -0.4778  0.3578  0.4295
 3753SOL    HW111548   0.966   2.744   2.796 -0.1255 -0.2217 -1.4536
 3753SOL    HW211549   0.994   2.584   2.784  1.5244 -0.0761  0.0255
 3754SOL     OW11550   0.208   5.225   5.918  0.2226 -0.5356 -0.6236
 3754SOL    HW111551   0.243   5.155   5.856  1.1893 -1.2396  0.6695
 3754SOL    HW211552   0.149   5.182   5.986  0.8668 -0.1181  0.2135
 3755SOL     OW11553   5.902   3.642   4.750 -0.3640 -1.0407 -0.4595
 3755SOL    HW111554   5.803   3.656   4.748 -0.6358 -2.5693  0.4613
 3755SOL    HW211555   5.923   3.548   4.723  0.6584 -1.3323  1.2058
 3756SOL     OW11556   2.270   5.268   2.285 -0.4459  0.1928  0.1209
 3756SOL    HW111557   2.340   5.272   2.355 -0.4270 -0.0988  0.1213
 3756SOL    HW211558   2.307   5.303   2.199 -0.0089 -0.7862 -0.1083
 3757SOL     OW11559   5.795   4.272   1.049  0.4538 -0.1256 -0.1118
 3757SOL    HW111560   5.759   4.364   1.031 -2.0764 -0.8955  0.7029
 3757SOL    HW211561   5.836   4.236   0.966  1.0482  1.5250 -0.5858
 3758SOL     OW11562   3.213   5.431   2.291 -0.1103 -0.3158 -0.3042
 3758SOL    HW111563   3.272   5.491   2.238 -1.3696  1.2470 -0.0183
 3758SOL    HW211564   3.141   5.394   2.231  1.0418 -2.1487 -0.6362
 3759SOL     OW11565   1.769   0.188   4.805 -0.3708  0.0743 -0.3908
 3759SOL    HW111566   1.670   0.182   4.790 -0.1765  1.6060 -2.8905
 3759SOL    HW211567   1.817   0.180   4.717  1.5831  1.5327  0.4643
 3760SOL     OW11568   0.562   5.901   2.224 -0.0301 -0.4181 -0.3668
 3760SOL    HW111569   0.545   5.835   2.298 -0.0296 -0.7768 -0.6855
 3760SOL    HW211570   0.481   5.959   2.213 -0.1005 -0.4835 -0.2083
 3761SOL     OW11571   2.356   5.719   3.502 -0.3741  0.0494 -0.2476
 3761SOL    HW111572   2.372   5.724   3.404  0.2077 -0.7778 -0.2022
 3761SOL    HW211573   2.293   5.644   3.522 -0.7094  0.3892 -0.0095
 3762SOL     OW11574   1.368   1.780   5.467 -0.1323 -0.2606 -0.3645
 3762SOL    HW111575   1.318   1.858   5.430 -1.8320 -1.2669 -0.2562
 3762SOL    HW211576   1.428   1.811   5.541 -0.7144  0.9410 -0.3677
 3763SOL     OW11577   3.752   0.844   2.199 -0.1916 -0.1236 -0.2488
 3763SOL    HW111578   3.790   0.850   2.107  0.8201 -2.1812 -0.0167
 3763SOL    HW211579   3.736   0.748   2.222 -1.9742  0.4502  1.1314
 3764SOL     OW11580   5.700   0.482   1.704  0.0088 -0.4798 -0.2214
 3764SOL    HW111581   5.713   0.504   1.608 -0.9688  0.5468 -0.1387
 3764SOL    HW211582   5.788   0.460   1.746  0.5802  0.0804 -1.1014
 3765SOL     OW11583   0.770   3.920   2.927  0.1358  0.4433  0.2893
 3765SOL    HW111584   0.775   3.942   2.830  2.5682 -2.3602 -0.3557
 3765SOL    HW211585   0.857   3.943   2.971  0.5951 -2.0487  0.8128
 3766SOL     OW11586   3.232   0.271   2.935  0.1365 -0.0811  0.9046
 3766SOL    HW111587   3.261   0.320   3.017 -0.3642  0.6335  0.6647
 3766SOL    HW211588   3.193   0.336   2.870 -1.1278 -0.8742  0.8371
 3767SOL     OW11589   4.830   3.556   3.270  0.3090  0.1483  0.5057
 3767SOL    HW111590   4.850   3.466   3.309  2.9835  1.0242  1.3596
 3767SOL    HW211591   4.819   3.623   3.343  1.3107  1.0601 -0.1539
 3768SOL     OW11592   2.602   3.169   3.797  0.3080 -0.1958 -0.3134
 3768SOL    HW111593   2.542   3.105   3.846 -0.0948  0.3886 -0.0336
 3768SOL    HW211594   2.679   3.193   3.856  0.3078 -0.1980 -0.3124
 3769SOL     OW11595   5.233   3.265   3.686 -0.2406 -0.1628  0.2138
 3769SOL    HW111596   5.186   3.231   3.768 -0.8857  0.4630  0.1124
 3769SOL    HW211597   5.217   3.202   3.610 -0.6249 -0.1386  0.2723
 3770SOL     OW11598   5.571   1.348   3.429  0.6032 -0.4157  0.3197
 3770SOL    HW111599   5.615   1.283   3.490  2.1082  1.3690  1.2539
 3770SOL    HW211600   5.640   1.409   3.390 -0.8847  1.9085  1.0861
 3771SOL     OW11601   3.348   1.073   2.615 -0.4184 -0.4412  0.5670
 3771SOL    HW111602   3.438   1.068   2.658  0.3342  0.6324 -0.8161
 3771SOL    HW211603   3.291   1.139   2.664 -0.0370 -0.2295  0.7281
 3772SOL     OW11604   5.834   5.492   1.966 -0.1583 -0.2439 -0.3057
 3772SOL    HW111605   5.801   5.464   1.876 -0.6749  1.7429 -0.7847
 3772SOL    HW211606   5.758   5.491   2.031  0.1073 -1.1811  0.0091
 3773SOL     OW11607   3.979   5.848   3.891  0.4713  0.1577  0.6203
 3773SOL    HW111608   3.921   5.921   3.929  0.6171 -0.5168  2.2158
 3773SOL    HW211609   3.976   5.852   3.791 -0.3999  1.6477  0.6692
 3774SOL     OW11610   3.519   3.908   0.658 -0.0634 -0.0074  0.1181
 3774SOL    HW111611   3.573   3.976   0.706  1.4544 -0.0705 -1.4053
 3774SOL    HW211612   3.482   3.948   0.574 -0.4310 -0.6336 -0.0258
 3775SOL     OW11613   4.718   2.338   4.777  0.5922 -0.1683 -1.0262
 3775SOL    HW111614   4.640   2.372   4.830 -0.2104 -0.7884 -1.7794
 3775SOL    HW211615   4.776   2.415   4.751  2.0990  0.0084  2.3412
 3776SOL     OW11616   4.025   2.579   1.418  0.0514  0.3692  0.6393
 3776SOL    HW111617   4.058   2.618   1.332 -0.4469 -0.5613  0.0022
 3776SOL    HW211618   4.097   2.586   1.487  0.9284  0.0198 -0.2045
 3777SOL     OW11619   2.135   0.240   3.527  0.1157  0.0924 -0.0553
 3777SOL    HW111620   2.143   0.267   3.431  0.5083 -0.4095 -0.1690
 3777SOL    HW211621   2.190   0.158   3.543  0.0665  0.1839  0.6047
 3778SOL     OW11622   5.521   4.801   2.612  0.0821  0.0172  0.4366
 3778SOL    HW111623   5.501   4.861   2.534  4.1615  1.2128  0.0756
 3778SOL    HW211624   5.455   4.818   2.685 -2.0264  1.0922 -1.5766
 3779SOL     OW11625   5.248   4.785   5.182 -0.0372  0.0191 -0.2683
 3779SOL    HW111626   5.334   4.736   5.191  0.4835  1.1210  1.0480
 3779SOL    HW211627   5.237   4.848   5.259 -2.2029 -0.3715 -0.1870
 3780SOL     OW11628   5.115   2.216   3.992  0.0081  0.1594  0.1135
 3780SOL    HW111629   5.096   2.276   4.070  0.1212  0.7997 -0.3448
 3780SOL    HW211630   5.030   2.194   3.945 -0.5739 -2.8494  2.2392
 3781SOL     OW11631   2.636   5.412   5.146  0.5180 -0.3858  0.1185
 3781SOL    HW111632   2.686   5.496   5.126 -3.1015  1.9593 -0.0038
 3781SOL    HW211633   2.659   5.381   5.239 -0.2365  2.5732  1.4088
 3782SOL     OW11634   1.483   0.584   1.401 -0.3025 -0.0279 -0.1937
 3782SOL    HW111635   1.484   0.647   1.323  1.5046 -0.2812 -0.4208
 3782SOL    HW211636   1.476   0.490   1.369 -1.7123 -0.0309  0.0810
 3783SOL     OW11637   0.987   3.804   1.007 -0.2374  0.3529  0.3244
 3783SOL    HW111638   1.062   3.790   0.942 -0.6932 -0.5169 -0.0263
 3783SOL    HW211639   1.010   3.880   1.068  1.8500 -1.1781  1.5610
 3784SOL     OW11640   4.120   0.396   3.794 -0.2992 -0.1696 -0.3044
 3784SOL    HW111641   4.137   0.305   3.757  2.3238  0.0561  0.1209
 3784SOL    HW211642   4.205   0.449   3.791 -1.6838  2.1948 -0.2997
 3785SOL     OW11643   5.081   5.937   5.358  0.0363 -0.1354 -0.4931
 3785SOL    HW111644   5.065   5.903   5.451 -1.4524 -0.3949 -0.8233
 3785SOL    HW211645   5.174   5.912   5.329  0.5945  0.1505  0.9968
 3786SOL     OW11646   0.879   1.492   3.695 -0.4494 -0.0780 -0.1878
 3786SOL    HW111647   0.868   1.560   3.623  0.4461 -0.4830 -0.7202
 3786SOL    HW211648   0.951   1.520   3.758 -1.2378  0.2793  0.5701
 3787SOL     OW11649   5.755   0.819   3.636  0.2429 -0.2131  0.2830
 3787SOL    HW111650   5.715   0.761   3.565  0.3846 -1.4829  1.1994
 3787SOL    HW211651   5.850   0.838   3.614 -0.4830  1.8923 -1.3420
 3788SOL     OW11652   0.629   1.967   2.425 -0.2169 -0.1544 -0.2423
 3788SOL    HW111653   0.611   2.056   2.467 -2.4750 -0.6997  0.0560
 3788SOL    HW211654   0.663   1.904   2.495 -0.1339  0.0368 -0.1087
 3789SOL     OW11655   1.819   2.511   1.007 -0.0194  0.0947  0.1390
 3789SOL    HW111656   1.849   2.598   1.046 -1.3562  0.6772 -0.0914
 3789SOL    HW211657   1.896   2.466   0.963  0.6129  1.3498 -0.0852
 3790SOL     OW11658   0.437   3.017   3.054  0.0706  0.3541  0.3688
 3790SOL    HW111659   0.345   3.008   3.015 -0.1232  0.2506  0.8495
 3790SOL    HW211660   0.485   3.092   3.008 -0.4330  0.7378  0.4701
 3791SOL     OW11661   1.952   3.531   5.174  1.0580  0.0083 -0.7082
 3791SOL    HW111662   1.918   3.437   5.180 -0.5852  0.5956 -0.1183
 3791SOL    HW211663   2.020   3.547   5.245 -0.5875 -0.0207  0.9648
 3792SOL     OW11664   2.384   5.371   5.046  0.4566 -0.1644 -0.0639
 3792SOL    HW111665   2.475   5.400   5.075 -0.0401  0.1790  1.2605
 3792SOL    HW211666   2.324   5.451   5.042 -0.1191 -0.5619  0.4148
 3793SOL     OW11667   4.203   5.874   2.923  0.3295 -0.2409 -0.8192
 3793SOL    HW111668   4.248   5.921   3.000 -0.4401 -0.5030 -0.1942
 3793SOL    HW211669   4.259   5.884   2.841  1.7501 -0.9328  0.0316
 3794SOL     OW11670   4.992   4.728   3.718 -0.0285  0.2070 -0.3372
 3794SOL    HW111671   4.933   4.776   3.654 -1.7909 -0.2842  0.8328
 3794SOL    HW211672   5.032   4.794   3.782 -0.3757  0.4248 -0.3391
 3795SOL     OW11673   2.971   1.858   4.111  0.0562 -0.3822  0.3567
 3795SOL    HW111674   2.999   1.893   4.201 -0.9677  0.9859  0.1661
 3795SOL    HW211675   2.871   1.854   4.106  0.1120 -0.9065 -0.5580
 3796SOL     OW11676   2.052   0.846   1.421  0.1199  0.4084  0.2440
 3796SOL    HW111677   1.954   0.832   1.431  0.0268  0.9201  0.0343
 3796SOL    HW211678   2.101   0.793   1.491 -0.2131 -1.2078 -0.6752
 3797SOL     OW11679   5.720   0.283   3.425 -0.0941 -0.2171  0.0250
 3797SOL    HW111680   5.635   0.307   3.473 -1.0146 -1.7000 -0.7778
 3797SOL    HW211681   5.794   0.272   3.491 -0.3015  1.8153  0.6854
 3798SOL     OW11682   5.913   1.830   1.972  0.4538  0.2941  0.2627
 3798SOL    HW111683   5.824   1.873   1.958 -0.1566 -0.3489  1.9873
 3798SOL    HW211684   5.975   1.896   2.015 -0.4304 -0.3996  2.7472
 3799SOL     OW11685   1.905   2.669   4.853 -0.3194  0.0304 -0.0777
 3799SOL    HW111686   1.865   2.697   4.940  0.2906 -1.4115  0.6990
 3799SOL    HW211687   2.002   2.694   4.852  0.2631 -1.9949  0.6692
 3800SOL     OW11688   4.748   0.352   0.886  0.9364  0.1987  0.3336
 3800SOL    HW111689   4.796   0.283   0.940  2.0836  0.2228 -0.6232
 3800SOL    HW211690   4.770   0.340   0.789 -2.7919 -1.2849 -0.5095
 3801SOL     OW11691   1.278   2.057   5.421  0.2581 -0.2261 -0.5094
 3801SOL    HW111692   1.183   2.076   5.396  0.3060  0.8902  0.0953
 3801SOL    HW211693   1.336   2.062   5.340 -0.3254 -2.0776 -1.1129
 3802SOL     OW11694   2.454   1.506   4.655  0.1743  0.2134  0.7492
 3802SOL    HW111695   2.485   1.412   4.660 -0.7664 -0.1028  0.9496
 3802SOL    HW211696   2.507   1.563   4.718  1.2808 -0.0170  0.0428
 3803SOL     OW11697   1.078   4.950   4.800 -0.1876 -0.2123  0.1017
 3803SOL    HW111698   0.978   4.951   4.809 -0.1109  1.3124  1.2235
 3803SOL    HW211699   1.105   5.006   4.722 -0.1698  0.8445  0.8389
 3804SOL     OW11700   4.852   0.901   4.154  0.3771 -0.6491  0.0079
 3804SOL    HW111701   4.862   0.802   4.166  0.5397 -0.6519 -0.1452
 3804SOL    HW211702   4.906   0.931   4.075  1.4715 -0.2234  0.8820
 3805SOL     OW11703   4.302   0.663   3.034  0.1121 -0.2156  0.3225
 3805SOL    HW111704   4.351   0.611   2.964 -3.0442 -3.2461  0.0871
 3805SOL    HW211705   4.301   0.760   3.008  1.9612 -0.7057 -1.9715
 3806SOL     OW11706   5.295   4.096   1.767 -0.0704 -0.3232  0.0540
 3806SOL    HW111707   5.386   4.135   1.751  1.4513 -3.8639 -0.8008
 3806SOL    HW211708   5.299   4.034   1.845 -1.5126 -1.1775 -0.5189
 3807SOL     OW11709   1.315   5.253   3.872  0.2350 -0.3681 -0.0703
 3807SOL    HW111710   1.310   5.174   3.812 -0.2323 -0.2537 -0.1886
 3807SOL    HW211711   1.410   5.285   3.878  0.2314 -0.1196 -1.0918
 3808SOL     OW11712   5.802   5.071   4.050 -0.3314  0.5003 -0.2497
 3808SOL    HW111713   5.887   5.115   4.019  0.0596  0.4632  0.7382
 3808SOL    HW211714   5.727   5.100   3.991 -0.3445  3.5356  1.0476
 3809SOL     OW11715   3.223   2.541   5.121 -0.1127 -0.0377  0.3354
 3809SOL    HW111716   3.272   2.627   5.106  0.6220 -0.2510  1.3619
 3809SOL    HW211717   3.272   2.467   5.075 -1.1335  0.1757 -1.1470
 3810SOL     OW11718   3.421   0.536   2.285  0.1605 -0.3226 -0.1724
 3810SOL    HW111719   3.392   0.581   2.201  1.0713  1.3921  0.3913
 3810SOL    HW211720   3.419   0.602   2.360  0.4909 -1.5255  0.9145
 3811SOL     OW11721   4.811   2.525   1.248 -0.1388 -0.0703 -0.1028
 3811SOL    HW111722   4.790   2.453   1.181 -0.1867  0.2287 -0.4120
 3811SOL    HW211723   4.727   2.575   1.270  0.0190  0.3268 -0.4005
 3812SOL     OW11724   4.333   4.764   1.700 -0.2821  0.2442  0.2615
 3812SOL    HW111725   4.385   4.732   1.779  1.1565 -0.3923 -0.8803
 3812SOL    HW211726   4.339   4.863   1.694  2.4110  0.0944 -0.8161
 3813SOL     OW11727   5.427   3.231   1.509 -0.1151  0.5779 -0.2711
 3813SOL    HW111728   5.484   3.272   1.438  0.4898 -1.3289 -0.9640
 3813SOL    HW211729   5.371   3.158   1.468 -1.9449  1.3833  0.6853
 3814SOL     OW11730   4.795   1.914   2.525 -0.5506 -0.1351  0.3922
 3814SOL    HW111731   4.892   1.933   2.506 -0.7325  2.5659  1.6604
 3814SOL    HW211732   4.759   1.852   2.456  1.5182  0.5544 -1.4404
 3815SOL     OW11733   3.755   2.358   5.284 -0.6844 -0.1711 -0.3271
 3815SOL    HW111734   3.659   2.349   5.312 -0.2726  1.3289  1.8467
 3815SOL    HW211735   3.810   2.292   5.335 -0.6287 -2.0013 -2.5717
 3816SOL     OW11736   1.724   2.744   3.418 -0.3110 -0.0917  0.1957
 3816SOL    HW111737   1.733   2.843   3.413  0.9897 -0.2182 -2.7839
 3816SOL    HW211738   1.804   2.706   3.464  2.1760  0.1178 -3.5140
 3817SOL     OW11739   2.644  -0.032   2.025  0.2296 -0.5622  0.7546
 3817SOL    HW111740   2.577   0.042   2.025 -1.3531 -1.9016 -0.9056
 3817SOL    HW211741   2.736   0.006   2.023 -0.5517  1.3866 -0.8775
 3818SOL     OW11742   0.339   0.998   4.079 -0.1385 -0.2576  0.3229
 3818SOL    HW111743   0.307   0.953   3.996 -1.6628 -0.1963  0.8371
 3818SOL    HW211744   0.432   1.031   4.066  0.8044 -2.9016 -0.3442
 3819SOL     OW11745   5.249   5.321   2.111 -0.0703  0.0375 -0.3925
 3819SOL    HW111746   5.318   5.264   2.156 -0.6402 -0.3857 -0.0430
 3819SOL    HW211747   5.264   5.321   2.012  1.5749  1.4675 -0.1963
 3820SOL     OW11748   4.120   2.325   5.792 -0.1559 -0.4198  0.4414
 3820SOL    HW111749   4.141   2.308   5.888  0.2313 -0.4675  0.3507
 3820SOL    HW211750   4.205   2.333   5.740 -0.3685 -1.4811 -0.0862
 3821SOL     OW11751   2.492   0.266   5.870 -0.3430 -0.7460 -0.5510
 3821SOL    HW111752   2.470   0.316   5.954 -0.5266 -1.1488 -0.3580
 3821SOL    HW211753   2.570   0.206   5.886  0.2733 -0.0681 -0.9568
 3822SOL     OW11754   2.689   5.757   2.966  0.1208  0.2102 -0.1710
 3822SOL    HW111755   2.662   5.664   2.991  0.3588  0.0177 -0.6163
 3822SOL    HW211756   2.693   5.765   2.866  0.9940  0.4314 -0.1299
 3823SOL     OW11757   1.042   4.044   0.342  0.3089 -0.2852  0.1115
 3823SOL    HW111758   1.097   4.033   0.424 -0.4865 -1.8029  0.4712
 3823SOL    HW211759   0.950   4.009   0.358  0.6265 -2.3761 -1.9551
 3824SOL     OW11760   4.698   1.735   4.222 -0.0691  0.6120 -0.1457
 3824SOL    HW111761   4.646   1.820   4.233 -1.1747 -0.2723  2.0040
 3824SOL    HW211762   4.786   1.756   4.178 -0.4141  2.8145  0.0716
 3825SOL     OW11763   3.087   1.614   1.192  0.3160  0.2170 -0.2719
 3825SOL    HW111764   3.057   1.519   1.200  1.8579 -0.2475  0.3190
 3825SOL    HW211765   3.128   1.644   1.278  0.0507  1.3538 -0.5236
 3826SOL     OW11766   5.809   0.620   1.482  0.0299  0.8103 -0.1482
 3826SOL    HW111767   5.870   0.653   1.553 -0.6647  3.3790 -0.6607
 3826SOL    HW211768   5.862   0.587   1.404  0.8135  2.7361 -0.4721
 3827SOL     OW11769   3.873   4.686   2.209  0.3402 -0.1688  0.3225
 3827SOL    HW111770   3.815   4.767   2.198  2.2182  1.3549  1.1535
 3827SOL    HW211771   3.967   4.709   2.186  1.0309 -1.9673  1.1682
 3828SOL     OW11772   5.408   0.009   1.485 -0.3968  0.2882  0.1746
 3828SOL    HW111773   5.485   0.003   1.549 -1.8135  1.5982  2.1473
 3828SOL    HW211774   5.438   0.050   1.400  1.2112  0.1644  0.6523
 3829SOL     OW11775   1.504   2.627   5.352 -0.3954 -0.6574  0.0308
 3829SOL    HW111776   1.528   2.703   5.412 -0.6138  0.1265 -0.8480
 3829SOL    HW211777   1.571   2.620   5.278 -0.8963 -0.7198 -0.4243
 3830SOL     OW11778   3.427   5.122   0.661  0.0918 -0.6136  0.3314
 3830SOL    HW111779   3.451   5.219   0.652 -1.4754 -0.1663  0.6835
 3830SOL    HW211780   3.495   5.076   0.719  1.3453  0.0505 -0.5692
 3831SOL     OW11781   5.164   2.031   5.698  0.3490 -0.1274 -0.4774
 3831SOL    HW111782   5.217   2.097   5.752  0.5315 -0.1639 -0.6144
 3831SOL    HW211783   5.114   1.971   5.761  1.0769 -0.5974 -0.3297
 3832SOL     OW11784   2.303   2.591   2.010 -0.2897  0.3076 -0.1406
 3832SOL    HW111785   2.235   2.661   1.990 -1.0811 -0.1324  0.9099
 3832SOL    HW211786   2.371   2.628   2.073 -0.6310  0.1854  0.3060
 3833SOL     OW11787   2.055   3.802   1.234  0.3087 -0.3321  0.4618
 3833SOL    HW111788   2.096   3.890   1.255 -1.9850  0.7009  0.9266
 3833SOL    HW211789   2.121   3.729   1.254  2.3528  1.2386 -0.1892
 3834SOL     OW11790   0.302   0.655   3.219  0.0575  0.1602  0.1624
 3834SOL    HW111791   0.252   0.581   3.173  2.2398 -0.8411 -0.7071
 3834SOL    HW211792   0.244   0.694   3.291 -2.6370  0.2956 -1.9074
 3835SOL     OW11793   2.280   5.119   4.646  0.1112 -0.6640 -0.2870
 3835SOL    HW111794   2.251   5.056   4.574 -0.6148 -0.2360 -0.3805
 3835SOL    HW211795   2.315   5.204   4.605  0.4093 -0.7176 -0.1484
 3836SOL     OW11796   5.300   5.795   4.060  0.0220 -0.4626 -0.4978
 3836SOL    HW111797   5.255   5.884   4.062  0.5816 -0.1772 -0.6111
 3836SOL    HW211798   5.240   5.727   4.102  0.6568  0.4508  2.0584
 3837SOL     OW11799   4.502   3.345   5.588  0.3874 -0.3695 -0.5194
 3837SOL    HW111800   4.533   3.438   5.568 -0.5094 -0.2645 -1.4631
 3837SOL    HW211801   4.577   3.295   5.633  0.4278  1.2114  1.3509
 3838SOL     OW11802   3.691   0.897   4.508 -0.8090 -0.0540 -0.0300
 3838SOL    HW111803   3.748   0.954   4.568 -0.5067 -1.1563  0.7600
 3838SOL    HW211804   3.723   0.802   4.512 -1.7236 -0.4120 -0.8102
 3839SOL     OW11805   3.041   2.041   4.301  0.0840 -0.1392  0.4885
 3839SOL    HW111806   2.971   2.021   4.370 -1.7597  0.0606 -1.2431
 3839SOL    HW211807   3.048   2.140   4.288 -1.1238 -0.2297 -1.0734
 3840SOL     OW11808   1.831   4.414   5.405 -0.1510  0.0666 -0.1126
 3840SOL    HW111809   1.784   4.365   5.478  1.2073  0.5399  1.1355
 3840SOL    HW211810   1.845   4.509   5.432 -0.2959  0.4403 -1.3207
 3841SOL     OW11811   2.168   3.248   1.926  0.6193 -0.0014  0.5157
 3841SOL    HW111812   2.096   3.308   1.961  1.1607 -0.3754  2.3953
 3841SOL    HW211813   2.228   3.301   1.866  0.4670  1.0816  1.2717
 3842SOL     OW11814   5.517   5.481   0.066 -0.2644 -0.4847  0.0237
 3842SOL    HW111815   5.615   5.463   0.076 -0.2729 -2.1047 -2.2029
 3842SOL    HW211816   5.466   5.432   0.136  0.4646  0.2594  1.1118
 3843SOL     OW11817   1.052   3.161   1.275  0.1824  0.5764  0.0831
 3843SOL    HW111818   0.975   3.103   1.249  0.6961  0.3679 -1.0610
 3843SOL    HW211819   1.030   3.257   1.255  0.2615  0.5047 -0.3532
 3844SOL     OW11820   1.075   2.899   2.562  0.0514  0.3690  0.2916
 3844SOL    HW111821   1.053   2.820   2.505 -0.4089 -0.4165  1.5288
 3844SOL    HW211822   0.999   2.918   2.624  1.1091  0.2936  1.6593
 3845SOL     OW11823   3.829   5.741   4.641  0.1694 -0.6196  0.1803
 3845SOL    HW111824   3.863   5.677   4.710 -0.2005 -0.1136  0.8451
 3845SOL    HW211825   3.841   5.835   4.674  1.6528 -0.2765 -1.2080
 3846SOL     OW11826   3.528   5.380   0.617  0.0056 -0.1623  0.1237
 3846SOL    HW111827   3.461   5.452   0.602 -0.9247 -0.8663  0.7791
 3846SOL    HW211828   3.605   5.392   0.554 -1.2764 -0.0228 -1.4762
 3847SOL     OW11829   3.291   1.604   1.667  0.1446  0.2334 -0.4117
 3847SOL    HW111830   3.311   1.634   1.761  2.9749  1.4700 -1.3004
 3847SOL    HW211831   3.225   1.665   1.626 -0.1750  0.4265  0.3698
 3848SOL     OW11832   0.192   2.325   5.905  0.8187 -0.1566  0.1856
 3848SOL    HW111833   0.222   2.230   5.915  1.9983  0.1854 -0.0231
 3848SOL    HW211834   0.093   2.330   5.920  0.7087 -1.4456  0.0104
 3849SOL     OW11835   1.470   3.477   3.359 -0.0223  0.4964 -0.4544
 3849SOL    HW111836   1.434   3.408   3.422  0.3027  0.2403 -0.5462
 3849SOL    HW211837   1.556   3.513   3.394  0.2086  0.2856 -0.7888
 3850SOL     OW11838   2.299   3.442   5.403 -0.0459 -0.3148  0.0950
 3850SOL    HW111839   2.280   3.427   5.306  0.9651 -1.8234  0.0945
 3850SOL    HW211840   2.301   3.540   5.422  3.6256  0.2935 -2.3049
 3851SOL     OW11841   4.239   0.380   0.972  0.0501 -0.1631  0.5479
 3851SOL    HW111842   4.227   0.449   0.902 -1.7742  0.1544  1.1376
 3851SOL    HW211843   4.332   0.386   1.009  0.3424  1.0508 -0.3349
 3852SOL     OW11844   5.006   1.680   3.211 -0.3134  0.5581  0.0550
 3852SOL    HW111845   5.030   1.636   3.298  0.1249  1.0420  0.1836
 3852SOL    HW211846   5.046   1.628   3.135 -0.3427  0.3749  0.1634
 3853SOL     OW11847   3.331   3.547   2.276  0.3384 -0.1568 -0.3298
 3853SOL    HW111848   3.350   3.643   2.293  0.0763  0.0566 -1.1738
 3853SOL    HW211849   3.380   3.518   2.193 -0.2665 -0.5103 -0.5699
 3854SOL     OW11850   5.152   5.354   5.338  0.4427 -0.0098  0.3674
 3854SOL    HW111851   5.106   5.347   5.426 -0.7374 -0.7150 -0.2865
 3854SOL    HW211852   5.171   5.450   5.317  1.0923  0.1452  1.5427
 3855SOL     OW11853   0.919   5.503   1.664  0.1535  0.6056 -0.4084
 3855SOL    HW111854   1.003   5.478   1.713  0.4414  1.0863 -0.6364
 3855SOL    HW211855   0.862   5.559   1.723 -0.9892 -1.3985  0.4792
 3856SOL     OW11856   0.680   4.342   3.623 -0.8006 -0.3225 -0.0940
 3856SOL    HW111857   0.720   4.268   3.569  1.4380 -0.9200  2.1604
 3856SOL    HW211858   0.600   4.308   3.672 -0.9270 -0.6945 -0.5507
 3857SOL     OW11859   5.027   0.339   4.275 -0.1994  0.4512 -0.0505
 3857SOL    HW111860   4.943   0.392   4.265 -0.4723  0.2992  1.2979
 3857SOL    HW211861   5.083   0.349   4.192 -1.4885  0.6308 -0.9250
 3858SOL     OW11862   2.525   0.978   5.728 -0.1185  0.2181  0.2729
 3858SOL    HW111863   2.468   1.036   5.787  1.9235  0.4190  2.1821
 3858SOL    HW211864   2.543   0.892   5.775  2.0246  0.6048  0.2447
 3859SOL     OW11865   4.234   4.468   2.305  0.0662 -0.3009  0.1418
 3859SOL    HW111866   4.236   4.368   2.315  1.3817 -0.1763  1.3431
 3859SOL    HW211867   4.304   4.509   2.363  2.0251  1.1294 -2.9580
 3860SOL     OW11868   0.687   2.578   1.050  0.4492 -1.0715 -0.4065
 3860SOL    HW111869   0.635   2.576   1.135 -0.6052 -0.9384 -1.0220
 3860SOL    HW211870   0.784   2.563   1.069  0.4212  0.2542  0.9549
 3861SOL     OW11871   4.759   3.208   5.638  0.4201  0.2766  0.1139
 3861SOL    HW111872   4.782   3.290   5.586  3.4064 -0.8404 -0.5004
 3861SOL    HW211873   4.800   3.128   5.595 -0.4883 -1.2718  1.9475
 3862SOL     OW11874   2.821   3.874   5.804  0.4900 -0.5063  0.3014
 3862SOL    HW111875   2.788   3.849   5.895  1.6602 -0.4959  0.7500
 3862SOL    HW211876   2.917   3.849   5.796  0.6695  0.4102 -0.5746
 3863SOL     OW11877   0.926   0.425   2.364 -0.1351  0.1742 -0.4654
 3863SOL    HW111878   0.965   0.375   2.286 -0.3739  1.2274 -1.2829
 3863SOL    HW211879   1.000   0.468   2.416  0.0138 -0.3889 -0.2081
 3864SOL     OW11880   3.225   5.948   4.634  0.5036  0.8027  0.6612
 3864SOL    HW111881   3.304   5.965   4.693  0.1717  1.6689  0.8679
 3864SOL    HW211882   3.140   5.964   4.685  0.1438 -1.1163  0.7568
 3865SOL     OW11883   3.320   2.177   3.627 -0.5159 -0.0237  0.0520
 3865SOL    HW111884   3.226   2.209   3.620 -1.3563 -2.1757  0.6674
 3865SOL    HW211885   3.381   2.255   3.640 -2.4534  1.2832  1.9469
 3866SOL     OW11886   1.002   4.368   2.484  0.3082 -0.6749 -0.1049
 3866SOL    HW111887   1.062   4.292   2.461  1.2303  0.7547 -3.0109
 3866SOL    HW211888   1.042   4.421   2.558  0.8115 -1.7348  0.4015
 3867SOL     OW11889   1.203   0.678   5.624 -0.3684 -0.0941  0.0828
 3867SOL    HW111890   1.236   0.675   5.530 -0.4127  0.1018  0.0597
 3867SOL    HW211891   1.240   0.601   5.676  0.2465  0.2062  0.0979
 3868SOL     OW11892   4.650   4.443   1.686  1.0757  0.5644  0.2129
 3868SOL    HW111893   4.594   4.509   1.736  1.1329  0.7706  0.0080
 3868SOL    HW211894   4.726   4.413   1.743 -0.1243 -0.9572  1.1220
 3869SOL     OW11895   0.246   5.201   1.771  0.6787 -0.1763  0.3732
 3869SOL    HW111896   0.205   5.290   1.792 -0.0621 -0.4728  0.2024
 3869SOL    HW211897   0.337   5.196   1.813  0.2079  0.1741  1.4797
 3870SOL     OW11898   3.731   5.565   4.233  0.2770 -0.0696 -0.3307
 3870SOL    HW111899   3.741   5.467   4.216 -2.5678 -0.2978 -1.3042
 3870SOL    HW211900   3.792   5.616   4.172  3.2134 -1.1583  1.4990
 3871SOL     OW11901   2.150   1.959   2.096  0.4160  0.1606  0.1029
 3871SOL    HW111902   2.090   1.887   2.130  1.2671 -0.7975 -0.3485
 3871SOL    HW211903   2.117   2.048   2.126 -2.2739 -0.1433 -1.6554
 3872SOL     OW11904   4.958   2.853   4.645  0.0641  0.1552 -0.5006
 3872SOL    HW111905   5.003   2.776   4.600 -0.7235  0.2622 -1.5256
 3872SOL    HW211906   4.886   2.889   4.584 -1.4952 -0.0970  1.1082
 3873SOL     OW11907   4.342   5.059   5.281 -0.3553  0.1106  0.2234
 3873SOL    HW111908   4.372   4.964   5.290 -2.1068 -0.4548  0.5656
 3873SOL    HW211909   4.369   5.111   5.362  0.8685 -0.0077 -0.0954
 3874SOL     OW11910   0.623   4.734   0.126  0.3028  0.2140 -0.2371
 3874SOL    HW111911   0.563   4.805   0.165  0.8313  0.2082  0.6210
 3874SOL    HW211912   0.580   4.695   0.045 -0.7053  0.4468  0.1669
 3875SOL     OW11913   4.333   4.943   4.446 -0.5595  0.0072  0.6064
 3875SOL    HW111914   4.305   4.933   4.542  0.2000  0.3107  0.8676
 3875SOL    HW211915   4.386   5.027   4.436  0.9436 -0.9347  0.3061
 3876SOL     OW11916   0.816   1.940   2.244 -0.0957  0.0968  0.3112
 3876SOL    HW111917   0.877   2.004   2.290  0.2346  1.2817 -1.6398
 3876SOL    HW211918   0.729   1.935   2.293  0.6998  0.2015  1.7944
 3877SOL     OW11919   5.278   5.861   5.583 -0.0573 -0.1718  0.5067
 3877SOL    HW111920   5.199   5.804   5.607 -0.0776  0.9162  3.4502
 3877SOL    HW211921   5.359   5.803   5.576 -0.4532 -0.8505  1.3110
 3878SOL     OW11922   3.822   3.913   4.543  0.1514 -0.3543 -0.1415
 3878SOL    HW111923   3.863   3.823   4.531  3.9645  0.7101  2.7808
 3878SOL    HW211924   3.804   3.929   4.640 -3.2411  1.0481 -0.8534
 3879SOL     OW11925   5.919   3.173   2.993  0.0537  0.0418  0.4079
 3879SOL    HW111926   5.820   3.163   2.989 -0.1023  1.3495  0.4079
 3879SOL    HW211927   5.953   3.140   3.081 -0.7862  2.3374  1.6733
 3880SOL     OW11928   0.710   5.575   5.871  0.3990 -0.1083 -0.5713
 3880SOL    HW111929   0.635   5.639   5.855  0.7035 -0.0336 -1.8031
 3880SOL    HW211930   0.691   5.489   5.825  1.0051 -0.1311 -0.7846
 3881SOL     OW11931   4.931   4.554   4.141 -0.5702  0.6294  0.7827
 3881SOL    HW111932   4.988   4.571   4.221 -1.0584  0.1685  1.2351
 3881SOL    HW211933   4.989   4.550   4.059  0.0105  0.4429  1.1967
 3882SOL     OW11934   0.535   2.377   4.146  0.0466  0.5537 -0.1895
 3882SOL    HW111935   0.502   2.283   4.139  0.9832  0.2441 -0.6309
 3882SOL    HW211936   0.472   2.431   4.203 -0.8521 -0.1643 -0.4857
 3883SOL     OW11937   3.172   4.743   2.744  0.6224  0.7584  0.0096
 3883SOL    HW111938   3.216   4.653   2.752 -0.0467  0.3817 -0.4519
 3883SOL    HW211939   3.127   4.766   2.830  2.2546  1.4439  0.7128
 3884SOL     OW11940   3.668   2.383   5.004 -0.0217  0.0256 -0.6663
 3884SOL    HW111941   3.681   2.402   5.101  0.6888 -1.3209 -0.4740
 3884SOL    HW211942   3.586   2.327   4.992  0.2437 -0.3515 -0.7572
 3885SOL     OW11943   1.781   5.133   1.588 -0.1612  0.1731 -0.1664
 3885SOL    HW111944   1.727   5.065   1.636  0.1791  0.2187  0.2868
 3885SOL    HW211945   1.875   5.100   1.576 -0.1495  0.3095 -0.4843
 3886SOL     OW11946   5.511   5.896   2.500  0.2963 -0.4135 -0.8188
 3886SOL    HW111947   5.557   5.983   2.481  0.1352 -0.2877 -0.6402
 3886SOL    HW211948   5.568   5.820   2.468  1.6346 -0.3727  1.2648
 3887SOL     OW11949   1.870   5.751   5.952  0.3785  0.3965  0.1181
 3887SOL    HW111950   1.783   5.751   5.903  0.2309  2.6307  0.2514
 3887SOL    HW211951   1.944   5.726   5.890 -0.2913 -1.1853 -0.0800
 3888SOL     OW11952   1.408   5.129   2.509  0.0867  0.5538 -0.6171
 3888SOL    HW111953   1.330   5.071   2.533  0.3104 -0.3551 -1.9857
 3888SOL    HW211954   1.388   5.224   2.534 -1.4273  0.3246 -0.8751
 3889SOL     OW11955   3.713   4.243   2.069 -0.0682 -0.2164  0.2657
 3889SOL    HW111956   3.705   4.316   2.002  0.3762 -0.4862 -0.0934
 3889SOL    HW211957   3.742   4.159   2.023  0.3254 -0.3835  0.8025
 3890SOL     OW11958   2.766   4.536   5.586  0.6219  0.2267 -0.1238
 3890SOL    HW111959   2.818   4.472   5.642  2.2621  1.0669 -0.5925
 3890SOL    HW211960   2.830   4.599   5.541 -0.7868  0.8676 -1.3023
 3891SOL     OW11961   4.564   2.414   3.065  0.1257 -0.3536  0.5674
 3891SOL    HW111962   4.555   2.510   3.092 -0.8189 -0.0347 -0.8130
 3891SOL    HW211963   4.651   2.378   3.100  0.2501  0.8277  1.5607
 3892SOL     OW11964   2.097   1.377   0.890 -0.6834 -0.3986 -0.3873
 3892SOL    HW111965   2.121   1.281   0.873 -0.0036 -0.2758 -0.1407
 3892SOL    HW211966   2.179   1.433   0.888 -1.0656  0.1718 -0.4224
 3893SOL     OW11967   2.332   1.908   0.702  0.1398  0.0628 -0.1958
 3893SOL    HW111968   2.424   1.912   0.741 -0.2378  2.9808  0.6284
 3893SOL    HW211969   2.334   1.938   0.607  0.1203 -0.5658 -0.3989
 3894SOL     OW11970   0.744   0.242   5.617  0.2193  0.6116 -0.1078
 3894SOL    HW111971   0.838   0.247   5.649  0.2221  0.7203 -0.1327
 3894SOL    HW211972   0.743   0.216   5.520  0.1634 -1.1141  0.3304
 3895SOL     OW11973   3.002   5.142   2.315  0.1351  0.0487 -0.8796
 3895SOL    HW111974   2.913   5.108   2.346 -0.0631  0.0970 -1.3724
 3895SOL    HW211975   3.028   5.092   2.232  0.8717 -0.4094 -0.3796
 3896SOL     OW11976   2.284   2.529   5.401 -0.4382 -0.2920  0.4856
 3896SOL    HW111977   2.378   2.536   5.435 -0.2819  3.8488 -0.2651
 3896SOL    HW211978   2.285   2.505   5.304 -0.1425 -0.1351  0.4486
 3897SOL     OW11979   1.383   0.644   4.412  0.1192  0.3613  0.3581
 3897SOL    HW111980   1.313   0.710   4.438 -1.4981 -1.7671  1.8054
 3897SOL    HW211981   1.418   0.666   4.321 -1.9224  1.9172 -0.1258
 3898SOL     OW11982   1.362   5.087   1.682  0.0607  0.0265 -0.2151
 3898SOL    HW111983   1.452   5.044   1.693 -0.3368 -0.5939  0.7631
 3898SOL    HW211984   1.343   5.146   1.760 -0.3033  0.3047 -0.5108
 3899SOL     OW11985   2.094   1.090   2.314  0.7906  0.0161  0.3643
 3899SOL    HW111986   2.181   1.138   2.305  1.9278 -1.8507  0.6551
 3899SOL    HW211987   2.077   1.037   2.231  0.5232 -0.5070  0.7453
 3900SOL     OW11988   0.539   4.944   5.623  0.2035  0.3384 -0.2089
 3900SOL    HW111989   0.602   4.867   5.616 -2.4459 -1.9427 -1.3103
 3900SOL    HW211990   0.518   4.978   5.531  0.2903  1.4807  0.1780
 3901SOL     OW11991   2.819   4.199   4.461  0.2747 -0.1970  0.4060
 3901SOL    HW111992   2.855   4.184   4.553  0.1890 -0.3279  0.4187
 3901SOL    HW211993   2.720   4.190   4.463  0.3283 -0.8702  0.1713
 3902SOL     OW11994   2.935   0.550   3.305 -0.7639 -0.3642  0.0503
 3902SOL    HW111995   2.935   0.579   3.400  1.1776 -0.1767  0.0423
 3902SOL    HW211996   2.872   0.473   3.293 -1.8903  0.3447  1.2148
 3903SOL     OW11997   1.454   1.357   3.997  0.1372 -0.3272 -0.0601
 3903SOL    HW111998   1.418   1.384   3.908 -0.5484 -0.9420  0.0143
 3903SOL    HW211999   1.470   1.258   3.997  0.8312 -0.2214  0.2651
 3904SOL     OW12000   3.213   2.239   4.744 -0.2371  0.4137 -0.2910
 3904SOL    HW112001   3.138   2.233   4.678 -0.5239  0.8728 -0.0174
 3904SOL    HW212002   3.271   2.316   4.722 -0.2543  0.4855 -0.0910
 3905SOL     OW12003   1.983   2.282   0.981  0.3470  0.4719  0.1645
 3905SOL    HW112004   1.988   2.306   1.078  1.9303 -1.2433  0.5716
 3905SOL    HW212005   2.048   2.208   0.962 -0.4765  0.2523 -2.0602
 3906SOL     OW12006   4.490   2.970   5.861 -0.2021  0.6281 -0.2022
 3906SOL    HW112007   4.583   3.005   5.872 -0.4314  1.5117 -1.0236
 3906SOL    HW212008   4.448   3.010   5.780 -0.2458 -2.0465 -1.6200
 3907SOL     OW12009   4.456   5.506   5.552  0.1438  0.4056  0.1744
 3907SOL    HW112010   4.456   5.415   5.509  0.5284  0.7390 -0.5527
 3907SOL    HW212011   4.377   5.558   5.517 -1.0786 -0.2266  1.8810
 3908SOL     OW12012   1.258   4.890   3.999 -0.1194 -0.1678 -0.1793
 3908SOL    HW112013   1.295   4.939   3.920  0.7196  0.3448  0.5128
 3908SOL    HW212014   1.160   4.909   4.008  0.0386  0.7928 -0.3597
 3909SOL     OW12015   0.174   4.049   1.019 -0.1128 -0.0858 -0.1193
 3909SOL    HW112016   0.090   3.995   1.023  0.0155 -0.2896 -0.1857
 3909SOL    HW212017   0.173   4.108   0.938 -0.2273 -0.0300 -0.0766
 3910SOL     OW12018   1.195   5.850   1.254  0.0370  0.0869  0.8698
 3910SOL    HW112019   1.171   5.938   1.293 -1.3071  0.2058 -0.1478
 3910SOL    HW212020   1.142   5.777   1.298 -0.5280  0.0676  0.1660
 3911SOL     OW12021   4.702   0.534   1.316 -0.2046  0.5767  0.4220
 3911SOL    HW112022   4.761   0.609   1.346  0.4368  0.1921  0.1487
 3911SOL    HW212023   4.662   0.556   1.227  0.3135  0.4304  0.1458
 3912SOL     OW12024   2.188   1.396   4.362  0.0035  0.5141 -0.1244
 3912SOL    HW112025   2.287   1.389   4.349 -0.1386  1.1711 -1.9233
 3912SOL    HW212026   2.148   1.305   4.366  0.5091  0.2278 -1.1694
 3913SOL     OW12027   0.694   3.776   3.328 -0.5895 -0.5471  0.5388
 3913SOL    HW112028   0.786   3.747   3.355 -0.5696 -0.3117  0.7322
 3913SOL    HW212029   0.630   3.759   3.403 -0.9600 -1.8903 -0.0529
 3914SOL     OW12030   2.219   3.005   5.382  0.3346 -0.1146  0.0973
 3914SOL    HW112031   2.298   3.019   5.441  1.0716  1.2197 -1.1469
 3914SOL    HW212032   2.150   3.075   5.402  0.2070 -0.2107 -0.0056
 3915SOL     OW12033   3.168   5.573   1.961 -0.2029  0.0363  0.1382
 3915SOL    HW112034   3.196   5.619   2.046  0.9613  1.7730 -1.1336
 3915SOL    HW212035   3.194   5.628   1.882 -1.2332 -1.5517 -1.3980
 3916SOL     OW12036   0.211   2.765   5.979  0.1563  0.3801  0.1335
 3916SOL    HW112037   0.141   2.831   6.007  0.8481  1.5222 -0.7634
 3916SOL    HW212038   0.187   2.725   5.891  0.4421  0.4799  0.0092
 3917SOL     OW12039   0.094   1.591   1.541  0.3490 -0.2375  0.0826
 3917SOL    HW112040   0.008   1.610   1.493 -0.0446 -4.9626 -1.6129
 3917SOL    HW212041   0.085   1.622   1.636 -1.3910  3.4034 -1.0731
 3918SOL     OW12042   5.855   5.255   1.466 -0.4920 -0.5559  0.1075
 3918SOL    HW112043   5.824   5.244   1.371  1.3878 -0.6015 -0.5430
 3918SOL    HW212044   5.885   5.349   1.480  1.3383 -1.0780 -0.0514
 3919SOL     OW12045   2.263   4.063   4.026 -0.0374  0.6011 -0.0559
 3919SOL    HW112046   2.323   3.987   4.000 -0.7288  0.4070 -1.1605
 3919SOL    HW212047   2.314   4.128   4.083  0.3998 -0.9763  1.4249
 3920SOL     OW12048   3.185   4.574   2.357 -0.1713 -0.4687  0.7857
 3920SOL    HW112049   3.188   4.514   2.437 -0.4393 -1.4395  0.0871
 3920SOL    HW212050   3.155   4.522   2.277  1.0789  0.2223 -0.1781
 3921SOL     OW12051   0.760   0.029   1.757 -0.0866 -0.5420 -0.0094
 3921SOL    HW112052   0.707   0.049   1.675 -0.4989 -0.0744  0.3636
 3921SOL    HW212053   0.729   0.088   1.832 -0.2300 -1.4876  0.6879
 3922SOL     OW12054   3.861   2.018   0.309 -0.0234  0.0919 -0.1268
 3922SOL    HW112055   3.811   2.008   0.395 -0.3882  2.3257 -0.0148
 3922SOL    HW212056   3.881   1.928   0.271 -3.0019 -0.9314  0.4723
 3923SOL     OW12057   0.965   4.005   2.305 -0.2188 -0.1481  0.1332
 3923SOL    HW112058   0.965   3.908   2.279  1.3788 -0.0419 -0.3863
 3923SOL    HW212059   0.876   4.045   2.281 -0.2370 -1.0275 -1.4917
 3924SOL     OW12060   1.731   0.068   3.655  0.1549 -0.0264  0.3444
 3924SOL    HW112061   1.826   0.081   3.685  0.6039  0.3805 -1.1985
 3924SOL    HW212062   1.698  -0.020   3.689  1.4113 -0.6066  0.1170
 3925SOL     OW12063   1.737   1.414   2.822 -0.5864  0.2227 -0.1635
 3925SOL    HW112064   1.695   1.362   2.896  0.7829 -0.6118  0.0523
 3925SOL    HW212065   1.801   1.356   2.772 -0.2168  1.2605 -0.9455
 3926SOL     OW12066   0.418   2.056   5.314  0.1681  0.1594  0.0613
 3926SOL    HW112067   0.361   1.976   5.334  1.3210 -0.6504  0.1961
 3926SOL    HW212068   0.388   2.097   5.228 -0.6247 -0.2482  0.1334
 3927SOL     OW12069   1.795   3.295   0.772  0.3349 -0.4572  0.1307
 3927SOL    HW112070   1.708   3.266   0.732 -0.3428 -1.3612  2.1467
 3927SOL    HW212071   1.806   3.255   0.863  2.1480  0.9121  0.5884
 3928SOL     OW12072   0.333   1.240   0.140  0.3039  0.8516 -0.0905
 3928SOL    HW112073   0.337   1.248   0.041 -0.7942 -0.6713 -0.2832
 3928SOL    HW212074   0.256   1.182   0.166  1.7656 -0.4501  1.5599
 3929SOL     OW12075   2.138   4.525   5.035 -0.5550 -0.1972 -0.2427
 3929SOL    HW112076   2.206   4.542   5.107 -0.5154 -0.0058 -0.3233
 3929SOL    HW212077   2.050   4.503   5.077 -1.5270  3.4833  0.0138
 3930SOL     OW12078   0.356   4.216   5.903 -0.3077  0.1605  0.2116
 3930SOL    HW112079   0.300   4.229   5.821  1.4784  0.7483 -0.9808
 3930SOL    HW212080   0.336   4.127   5.944 -0.4450 -0.6425 -1.5116
 3931SOL     OW12081   1.129   1.456   4.879 -0.0566  0.1099 -0.3761
 3931SOL    HW112082   1.200   1.386   4.880 -0.7059 -0.6199 -2.0068
 3931SOL    HW212083   1.125   1.501   4.968 -0.1942 -2.5002  1.0377
 3932SOL     OW12084   5.818   0.710   5.915 -0.1678  0.7228  0.0183
 3932SOL    HW112085   5.774   0.671   5.833 -0.1699  1.1634 -0.1936
 3932SOL    HW212086   5.897   0.654   5.940 -1.5050 -0.7982  1.1137
 3933SOL     OW12087   2.717   1.821   4.055  0.5265 -0.2987  0.3606
 3933SOL    HW112088   2.650   1.879   4.102  0.2532 -1.3002  1.2353
 3933SOL    HW212089   2.721   1.847   3.958 -0.7604  0.1228  0.4021
 3934SOL     OW12090   3.647   5.640   2.903  0.1336  0.2884  0.1978
 3934SOL    HW112091   3.596   5.555   2.896  1.2464 -0.5397  1.6286
 3934SOL    HW212092   3.677   5.669   2.812 -1.6781  0.0934 -0.5123
 3935SOL     OW12093   5.825   3.154   3.779 -0.2216 -0.0353 -0.0855
 3935SOL    HW112094   5.912   3.156   3.732  0.2564  0.4374  0.7836
 3935SOL    HW212095   5.827   3.085   3.851 -0.7388 -0.3608 -0.3742
 3936SOL     OW12096   4.896   0.036   5.176  0.2051 -0.4209 -0.1318
 3936SOL    HW112097   4.948   0.014   5.258 -1.6055  0.2467  1.2831
 3936SOL    HW212098   4.917   0.129   5.147  1.2768 -0.8575 -0.7942
 3937SOL     OW12099   4.036   1.190   2.630 -0.0525  0.4024  0.3284
 3937SOL    HW112100   3.957   1.227   2.581  0.3360  1.8070  0.6897
 3937SOL    HW212101   4.041   1.231   2.721  0.6176 -0.3072  0.6267
 3938SOL     OW12102   5.044   2.190   4.649 -0.3944 -0.0325 -0.4313
 3938SOL    HW112103   4.966   2.132   4.672  0.6491 -0.8842  1.1895
 3938SOL    HW212104   5.084   2.160   4.562 -0.1057 -1.5290  0.1907
 3939SOL     OW12105   0.923   2.003   1.136  0.2342  0.1950  0.4051
 3939SOL    HW112106   0.953   2.090   1.098 -1.3986  0.4286 -0.4517
 3939SOL    HW212107   0.934   2.003   1.235 -0.0263  1.4921  0.4410
 3940SOL     OW12108   3.768   0.535   1.089 -0.7742 -0.1417  0.0763
 3940SOL    HW112109   3.691   0.491   1.044 -1.7672  1.1529  0.4727
 3940SOL    HW212110   3.822   0.586   1.022  0.6258 -2.1764 -0.4673
 3941SOL     OW12111   0.875   2.926   0.164  0.2346 -0.2255  0.3194
 3941SOL    HW112112   0.902   2.871   0.085  2.5870  1.3416 -0.0865
 3941SOL    HW212113   0.831   2.868   0.232 -1.5819 -1.6968 -1.9619
 3942SOL     OW12114   5.406   2.683   0.476 -0.2795 -0.0890 -0.3375
 3942SOL    HW112115   5.379   2.762   0.419  0.9981  0.5335 -0.1089
 3942SOL    HW212116   5.353   2.684   0.560  1.8622  2.4447  1.1578
 3943SOL     OW12117   1.572   1.245   5.791  0.3892 -0.1478  0.3610
 3943SOL    HW112118   1.538   1.164   5.743  0.5105  0.0528 -0.0702
 3943SOL    HW212119   1.596   1.221   5.885  0.5805 -0.6446  0.1862
 3944SOL     OW12120   4.212   2.497   3.054  0.5639  0.1715  0.0764
 3944SOL    HW112121   4.280   2.569   3.070  0.1097  1.0281 -1.5841
 3944SOL    HW212122   4.158   2.519   2.973 -1.6168 -0.5550  1.2203
 3945SOL     OW12123   2.830   0.564   4.363  0.6343 -0.4458 -0.1864
 3945SOL    HW112124   2.782   0.477   4.372  0.4713 -0.2303  1.3551
 3945SOL    HW212125   2.843   0.605   4.454  3.7397 -0.4921 -0.4900
 3946SOL     OW12126   3.581   5.740   4.825 -0.5016 -0.1598  0.0737
 3946SOL    HW112127   3.648   5.746   4.898 -0.5197 -0.5590  0.1206
 3946SOL    HW212128   3.618   5.687   4.749  0.3166  1.9375 -1.0722
 3947SOL     OW12129   4.796   5.808   0.209  0.1152  0.1957 -0.1910
 3947SOL    HW112130   4.730   5.825   0.282  0.2980  1.3939 -0.2749
 3947SOL    HW212131   4.751   5.759   0.134 -0.0228 -1.2177  0.7872
 3948SOL     OW12132   3.954   3.421   1.157 -0.1471 -0.0132 -0.1200
 3948SOL    HW112133   3.968   3.499   1.096  0.9968 -0.9550 -1.0990
 3948SOL    HW212134   4.024   3.352   1.140 -1.3005 -1.3954  0.5181
 3949SOL     OW12135   3.938   5.561   4.796  0.1196 -0.0540  0.0836
 3949SOL    HW112136   4.038   5.567   4.806 -0.0137  0.3788  1.4108
 3949SOL    HW212137   3.912   5.469   4.766  0.9162 -0.1407 -0.3652
 3950SOL     OW12138   3.311   3.855   0.851  0.2406  0.1938 -0.0464
 3950SOL    HW112139   3.384   3.889   0.791  0.4665  2.2574  1.2960
 3950SOL    HW212140   3.276   3.930   0.907 -2.0195 -1.0422  0.3201
 3951SOL     OW12141   5.812   3.141   1.115 -0.3148  0.5041 -0.1123
 3951SOL    HW112142   5.850   3.231   1.137 -0.5257  0.5398  0.1133
 3951SOL    HW212143   5.788   3.094   1.200  0.5924 -0.1138 -0.1881
 3952SOL     OW12144   3.012   4.156   1.615  0.1493 -0.2773  0.4070
 3952SOL    HW112145   3.053   4.212   1.543  0.1136 -2.0193 -1.0357
 3952SOL    HW212146   3.080   4.091   1.649 -0.3771 -0.7731  0.5340
 3953SOL     OW12147   5.644   3.930   3.595 -0.2057  0.0663  0.2985
 3953SOL    HW112148   5.564   3.894   3.643 -0.0998 -0.2499  0.2361
 3953SOL    HW212149   5.665   3.873   3.515  1.4096 -1.2133  1.5440
 3954SOL     OW12150   2.121   2.407   1.977  0.0303 -0.5090 -0.2035
 3954SOL    HW112151   2.181   2.486   1.986 -0.9671  0.2160  0.2256
 3954SOL    HW212152   2.115   2.381   1.880  0.9410 -0.5282 -0.2636
 3955SOL     OW12153   1.565   4.670   1.489  0.6530 -0.3415 -0.0410
 3955SOL    HW112154   1.559   4.709   1.397  0.5878  0.9905  0.5130
 3955SOL    HW212155   1.499   4.595   1.498  0.2439 -0.0942 -0.8841
 3956SOL     OW12156   1.436   5.190   3.429 -0.4442 -0.1623  0.5225
 3956SOL    HW112157   1.478   5.100   3.417  0.7944  0.6029 -1.2127
 3956SOL    HW212158   1.464   5.229   3.516 -2.8368 -2.3441  2.4409
 3957SOL     OW12159   4.921   4.441   5.156 -0.6185 -0.2767 -0.0282
 3957SOL    HW112160   4.873   4.497   5.224 -0.6426  0.7324 -0.8553
 3957SOL    HW212161   4.855   4.379   5.112 -0.9854  0.4262 -0.4814
 3958SOL     OW12162   0.535   2.496   0.105 -0.1577 -0.6187  0.8431
 3958SOL    HW112163   0.440   2.508   0.077 -0.1609  0.2835  1.1995
 3958SOL    HW212164   0.553   2.552   0.186  1.3589  1.2988 -0.7317
 3959SOL     OW12165   2.428   3.159   4.830 -0.3006 -0.5038 -0.1247
 3959SOL    HW112166   2.348   3.157   4.770 -0.8398 -2.3329  0.5725
 3959SOL    HW212167   2.409   3.105   4.912  2.0362 -1.9874 -0.4793
 3960SOL     OW12168   4.343   2.838   0.663  0.3043  0.1755 -0.1067
 3960SOL    HW112169   4.380   2.849   0.755  0.2859  0.9533 -0.1884
 3960SOL    HW212170   4.418   2.844   0.597  0.3171 -0.3771 -0.1504
 3961SOL     OW12171   1.001   4.949   4.207  0.1799  0.3050 -0.3858
 3961SOL    HW112172   1.043   4.927   4.295 -0.4628 -1.3799 -0.4639
 3961SOL    HW212173   1.040   5.035   4.172  0.6970  0.8224  1.3527
 3962SOL     OW12174   4.384   1.985   1.212  0.2370  0.6969  0.0055
 3962SOL    HW112175   4.418   1.891   1.215  1.2980  1.0733  0.8532
 3962SOL    HW212176   4.462   2.048   1.216 -0.4789  1.6076 -0.1317
 3963SOL     OW12177   1.454   1.450   4.618 -0.0465 -0.5869 -0.9411
 3963SOL    HW112178   1.437   1.353   4.635  2.4457 -1.2631 -1.7622
 3963SOL    HW212179   1.498   1.460   4.528 -0.0403  1.2735 -0.7624
 3964SOL     OW12180   3.788   1.453   4.216  0.4102 -0.0324  0.0581
 3964SOL    HW112181   3.768   1.519   4.144 -0.4207 -1.3261 -0.9516
 3964SOL    HW212182   3.831   1.500   4.293  0.7448  1.4978 -1.0059
 3965SOL     OW12183   4.497   0.256   4.659 -0.0023 -0.0252  0.1634
 3965SOL    HW112184   4.526   0.349   4.639  0.7864 -0.2314  0.3021
 3965SOL    HW212185   4.424   0.258   4.727 -0.0928  0.4943  0.0566
 3966SOL     OW12186   4.103   0.166   1.067 -0.6196  0.0399 -0.2142
 3966SOL    HW112187   4.044   0.183   1.146  0.4751 -0.8119  0.8370
 3966SOL    HW212188   4.136   0.252   1.030 -0.8628  0.4474  0.4978
 3967SOL     OW12189   1.168   3.093   4.808 -1.0139  0.0387 -0.0937
 3967SOL    HW112190   1.187   3.070   4.904  0.0276 -3.3839 -0.9832
 3967SOL    HW212191   1.077   3.059   4.783  0.3814 -3.1669 -1.3271
 3968SOL     OW12192   2.532   1.846   2.814 -0.2156 -0.1687  0.1404
 3968SOL    HW112193   2.462   1.892   2.760 -0.0576  0.6804  0.6425
 3968SOL    HW212194   2.529   1.879   2.908  0.2446 -0.8097  0.3852
 3969SOL     OW12195   1.435   0.218   4.493  0.1160 -0.0019  0.0600
 3969SOL    HW112196   1.367   0.280   4.454 -0.1310 -0.0557  0.4007
 3969SOL    HW212197   1.503   0.194   4.423  0.3016  0.7758 -0.0291
 3970SOL     OW12198   4.475   1.924   0.064  0.4177 -0.0013  0.3138
 3970SOL    HW112199   4.413   2.003   0.057  1.4415  0.8364  0.4702
 3970SOL    HW212200   4.555   1.950   0.118  1.7069 -0.5715 -1.2750
 3971SOL     OW12201   2.318   4.188   3.149  0.4630  1.1479 -0.2133
 3971SOL    HW112202   2.242   4.229   3.201  0.1195  2.0815 -1.4094
 3971SOL    HW212203   2.344   4.249   3.074  1.8202  0.4266 -0.3565
 3972SOL     OW12204   0.592   2.495   3.679 -0.1023  0.0627 -0.0624
 3972SOL    HW112205   0.620   2.421   3.618  1.4640  0.1720  0.4911
 3972SOL    HW212206   0.514   2.544   3.638 -2.2861 -2.8539  0.3258
 3973SOL     OW12207   1.291   4.504   3.437 -0.4637  0.3138  0.4411
 3973SOL    HW112208   1.225   4.429   3.448  0.4402 -0.5669  0.0038
 3973SOL    HW212209   1.367   4.490   3.501  0.7101 -0.2796 -1.0200
 3974SOL     OW12210   5.213   2.434   3.396  0.5287 -0.3892 -0.5058
 3974SOL    HW112211   5.190   2.341   3.368  1.4806 -1.1569  1.1163
 3974SOL    HW212212   5.194   2.446   3.493  1.1516  0.8689 -0.5103
 3975SOL     OW12213   3.825   4.267   2.740  0.3871 -0.1396 -0.0638
 3975SOL    HW112214   3.815   4.337   2.811 -0.1674 -0.5423  0.2635
 3975SOL    HW212215   3.918   4.232   2.740  0.0627 -1.0901  1.3812
 3976SOL     OW12216   2.474   1.029   2.677 -0.9413 -0.8081 -0.6418
 3976SOL    HW112217   2.552   0.974   2.649  0.4408  0.3327  0.7732
 3976SOL    HW212218   2.458   1.102   2.611  0.8732  0.5163  0.3079
 3977SOL     OW12219   2.934   0.414   2.368 -0.1028 -0.1907 -0.4130
 3977SOL    HW112220   3.027   0.415   2.406 -0.7107  0.2088  1.1440
 3977SOL    HW212221   2.868   0.411   2.443 -1.3526 -0.8229 -1.5089
 3978SOL     OW12222   1.136   4.605   5.058 -0.1275  0.5363 -0.1614
 3978SOL    HW112223   1.113   4.630   4.964 -1.8217  2.1284  0.6242
 3978SOL    HW212224   1.230   4.571   5.061  0.1310  0.9088 -2.3352
 3979SOL     OW12225   4.611   4.310   3.890  0.4178 -0.1331 -0.9589
 3979SOL    HW112226   4.654   4.391   3.929  0.8219 -0.4422 -0.7557
 3979SOL    HW212227   4.607   4.320   3.790 -0.5524  0.6203 -0.8493
 3980SOL     OW12228   4.747   1.869   1.843  0.6704  0.0407 -0.4761
 3980SOL    HW112229   4.747   1.918   1.755  1.9555  0.5259 -0.2199
 3980SOL    HW212230   4.700   1.925   1.912  1.4704  0.5879 -0.3671
 3981SOL     OW12231   0.924   5.513   3.307  0.9370  0.4141  0.3166
 3981SOL    HW112232   0.882   5.603   3.320  1.1430  0.8234 -1.5160
 3981SOL    HW212233   0.879   5.467   3.230  2.5860  0.0781 -0.4809
 3982SOL     OW12234   5.199   3.773   5.211  0.2410  0.0914 -0.0482
 3982SOL    HW112235   5.204   3.867   5.177  2.1785  0.2435  0.5549
 3982SOL    HW212236   5.183   3.774   5.310 -0.9143 -0.2730 -0.2076
 3983SOL     OW12237   0.127   2.412   4.749  0.0146  0.3874 -0.6403
 3983SOL    HW112238   0.163   2.320   4.760  2.1065  1.0114 -1.7313
 3983SOL    HW212239   0.150   2.467   4.829  0.5073  0.4705 -0.8346
 3984SOL     OW12240   5.793   1.469   0.613  0.5218  0.1332 -0.1698
 3984SOL    HW112241   5.695   1.481   0.600  0.7288  1.2279 -0.9507
 3984SOL    HW212242   5.834   1.435   0.528  0.7382 -0.9357  0.3518
 3985SOL     OW12243   3.962   2.111   3.335  0.2725 -0.3590 -0.9182
 3985SOL    HW112244   3.890   2.162   3.287 -0.5953 -0.7848 -0.1039
 3985SOL    HW212245   3.979   2.154   3.424 -0.0442 -1.1106 -0.4798
 3986SOL     OW12246   1.163   4.162   5.307  0.4795 -0.2522  0.8226
 3986SOL    HW112247   1.257   4.146   5.338  1.5266  0.7187 -1.6366
 3986SOL    HW212248   1.145   4.260   5.305  0.7228 -0.1823 -2.0937
 3987SOL     OW12249   4.917   3.173   2.650  0.3441  0.1200  0.1720
 3987SOL    HW112250   4.968   3.098   2.692  2.0578  0.8070 -0.5893
 3987SOL    HW212251   4.951   3.189   2.558 -1.8327  0.1116 -0.6952
 3988SOL     OW12252   4.527   5.885   1.994  0.1237 -0.4531  0.1545
 3988SOL    HW112253   4.624   5.876   1.972  0.3516  0.0226  0.9404
 3988SOL    HW212254   4.509   5.977   2.029 -1.1203  0.4196 -2.5123
 3989SOL     OW12255   1.426   2.733   0.032  0.0928 -0.6413  0.2177
 3989SOL    HW112256   1.443   2.819   0.080  2.1224 -0.2588 -1.0983
 3989SOL    HW212257   1.329   2.710   0.039 -0.2451  1.0123  1.7587
 3990SOL     OW12258   3.550   4.862   3.990  0.0502 -0.1146  0.4529
 3990SOL    HW112259   3.564   4.890   4.085 -0.0543  0.2637  0.3560
 3990SOL    HW212260   3.512   4.769   3.989  1.7636 -0.8523  0.7278
 3991SOL     OW12261   1.844   3.099   0.408  0.0710  0.3549 -0.2247
 3991SOL    HW112262   1.864   3.046   0.326  1.5608  0.2093  0.1949
 3991SOL    HW212263   1.881   3.052   0.488 -0.9413  0.7270  0.4847
 3992SOL     OW12264   2.996   4.308   3.375 -0.0928 -0.1547  0.0322
 3992SOL    HW112265   2.917   4.331   3.319  1.9572  1.6342 -2.3475
 3992SOL    HW212266   2.998   4.368   3.455  0.4062  2.0191 -1.5036
 3993SOL     OW12267   2.298   3.653   4.460  0.2442 -0.4141 -0.3726
 3993SOL    HW112268   2.375   3.682   4.403  1.0565 -2.2425 -0.2736
 3993SOL    HW212269   2.319   3.670   4.556  0.3019 -0.4413 -0.3804
 3994SOL     OW12270   4.650   0.940   2.041  0.2583  0.1411 -0.0457
 3994SOL    HW112271   4.604   0.930   1.953 -1.8022 -1.0585  1.0740
 3994SOL    HW212272   4.715   0.865   2.053 -1.8985 -1.7264  0.7512
 3995SOL     OW12273   0.597   2.789   3.998  0.4237  0.2083 -0.5559
 3995SOL    HW112274   0.632   2.795   4.092 -0.5971 -0.0213 -0.1498
 3995SOL    HW212275   0.602   2.693   3.967 -1.0030 -0.0525 -0.0275
 3996SOL     OW12276   4.337   2.216   3.120  0.2855  0.3110 -0.0608
 3996SOL    HW112277   4.422   2.263   3.144 -0.5020  0.7408  2.0063
 3996SOL    HW212278   4.275   2.280   3.075  0.1256  0.6454  0.6255
 3997SOL     OW12279   0.841   1.778   4.073 -0.2428 -0.3035  0.6736
 3997SOL    HW112280   0.768   1.737   4.018 -0.3787 -0.7176  1.1516
 3997SOL    HW212281   0.801   1.832   4.147 -0.0631  1.1314 -0.2546
 3998SOL     OW12282   0.736   0.318   1.538 -0.2101 -0.2848 -0.4966
 3998SOL    HW112283   0.792   0.330   1.456 -0.5558  1.5434 -0.5009
 3998SOL    HW212284   0.645   0.288   1.511  0.1398 -1.2579 -0.6413
 3999SOL     OW12285   3.404   3.195   5.875 -0.3996 -0.1477  0.6782
 3999SOL    HW112286   3.330   3.130   5.892 -1.9218  0.5543 -2.4492
 3999SOL    HW212287   3.492   3.149   5.888 -1.3858 -2.8743 -1.2816
 4000SOL     OW12288   2.965   2.009   3.833  0.1449  0.0309 -0.3973
 4000SOL    HW112289   3.058   1.991   3.800  0.5883  1.2979  0.0921
 4000SOL    HW212290   2.955   1.975   3.926  0.2359  0.2230 -0.3173
 4001SOL     OW12291   0.195   0.878   3.854 -0.9200  0.0001 -0.3184
 4001SOL    HW112292   0.122   0.842   3.912 -1.9942 -0.2577 -1.7702
 4001SOL    HW212293   0.187   0.977   3.849 -0.8381  0.0216 -0.0509
 4002SOL     OW12294   1.104   2.652   3.097 -0.2769  0.1482 -0.0948
 4002SOL    HW112295   1.032   2.607   3.150  1.8364 -2.4181  0.8682
 4002SOL    HW212296   1.082   2.649   3.000 -1.6520 -0.1855  0.2122
 4003SOL     OW12297   5.664   5.581   3.695 -0.3616  0.2621 -0.1603
 4003SOL    HW112298   5.587   5.641   3.673 -0.5425 -0.1865 -0.7547
 4003SOL    HW212299   5.727   5.630   3.755 -2.4203 -0.2663  2.6147
 4004SOL     OW12300   3.235   5.555   5.022  0.2098 -0.6352 -0.2015
 4004SOL    HW112301   3.236   5.637   4.965 -0.4015 -0.0274  0.6236
 4004SOL    HW212302   3.143   5.514   5.021  0.7477 -1.8939 -1.3779
 4005SOL     OW12303   1.442   5.225   1.950 -0.2925  0.1225  0.1842
 4005SOL    HW112304   1.445   5.321   1.923  0.5104 -0.4264 -1.8126
 4005SOL    HW212305   1.395   5.217   2.038  1.3708  2.5553  1.3976
 4006SOL     OW12306   0.657   5.238   2.561 -0.0223 -0.5468 -0.2489
 4006SOL    HW112307   0.667   5.188   2.475 -0.2099 -1.1525  0.0808
 4006SOL    HW212308   0.710   5.323   2.556  2.2777 -1.8848  0.0555
 4007SOL     OW12309   1.638   3.613   5.434 -0.6014 -0.2472 -0.1219
 4007SOL    HW112310   1.574   3.673   5.482  1.3834  1.7013  0.2810
 4007SOL    HW212311   1.668   3.657   5.349 -0.7941 -1.7323 -1.0012
 4008SOL     OW12312   3.922   4.945   2.389 -0.2014 -0.3857 -0.5506
 4008SOL    HW112313   3.886   5.012   2.453  0.0478 -0.7506 -0.0147
 4008SOL    HW212314   3.846   4.900   2.342 -0.5499 -1.7398  1.1681
 4009SOL     OW12315   0.157   3.538   0.040  0.1309  0.4317 -0.0058
 4009SOL    HW112316   0.187   3.464   0.101 -0.6844  0.2824  0.2172
 4009SOL    HW212317   0.094   3.502  -0.028 -1.4862  1.1882  1.0465
 4010SOL     OW12318   0.372   3.562   1.324  0.0100  0.7429 -0.3109
 4010SOL    HW112319   0.353   3.658   1.306 -1.9934  0.3781 -0.4108
 4010SOL    HW212320   0.415   3.552   1.414  2.5515  1.8906 -1.3205
 4011SOL     OW12321   1.322   3.799   1.716 -0.2459 -0.0810  0.3052
 4011SOL    HW112322   1.285   3.776   1.625  1.9172  2.6394 -1.4209
 4011SOL    HW212323   1.251   3.844   1.770 -0.8708  0.7325 -1.1137
 4012SOL     OW12324   2.419   3.272   1.092  0.1342 -0.5140  0.0689
 4012SOL    HW112325   2.392   3.295   1.185  0.5536  2.7603 -0.5222
 4012SOL    HW212326   2.449   3.176   1.089 -1.9163 -1.3712  2.7742
 4013SOL     OW12327   2.034   1.604   4.254 -0.4179 -0.2966 -0.1971
 4013SOL    HW112328   1.995   1.648   4.335  1.6016  2.6696 -0.6787
 4013SOL    HW212329   2.105   1.540   4.282  0.2469  0.6837  0.4340
 4014SOL     OW12330   3.518   1.506   5.524  0.1825 -0.2039 -0.5211
 4014SOL    HW112331   3.543   1.423   5.473 -1.3633 -0.6142 -0.6605
 4014SOL    HW212332   3.559   1.585   5.479  1.7365 -0.8701 -0.3568
 4015SOL     OW12333   4.096   4.772   2.713  0.0562  0.9017  0.0416
 4015SOL    HW112334   4.116   4.810   2.623 -0.6734 -0.7750 -0.8676
 4015SOL    HW212335   4.182   4.755   2.762  0.5972 -0.3481 -1.2848
 4016SOL     OW12336   5.679   5.860   5.646  0.3841  0.3184  0.3769
 4016SOL    HW112337   5.620   5.792   5.601 -0.5380  2.6681 -2.2517
 4016SOL    HW212338   5.636   5.890   5.731 -1.3447  0.6256 -0.5615
 4017SOL     OW12339   0.793   1.144   2.251  0.5345 -0.7068 -0.2100
 4017SOL    HW112340   0.699   1.164   2.279  1.0201  2.0479 -0.2953
 4017SOL    HW212341   0.798   1.146   2.151  0.8486  0.1419 -0.1844
 4018SOL     OW12342   5.487   0.034   0.335 -0.0284  0.1331 -0.4426
 4018SOL    HW112343   5.582   0.062   0.324 -0.6764  2.9629  0.1956
 4018SOL    HW212344   5.427   0.100   0.288 -1.7575 -0.0153  1.3910
 4019SOL     OW12345   2.253   1.337   0.191 -0.0181  0.2997  0.0491
 4019SOL    HW112346   2.352   1.345   0.181  0.0975  0.4956  1.2476
 4019SOL    HW212347   2.232   1.282   0.272 -0.8771 -2.5826 -1.9598
 4020SOL     OW12348   4.708   3.895   5.066  0.2995 -0.3346 -0.8233
 4020SOL    HW112349   4.627   3.838   5.049 -0.3388  0.7864 -1.5811
 4020SOL    HW212350   4.790   3.845   5.038 -0.0821 -1.6040  0.2284
 4021SOL     OW12351   0.938   1.318   2.835  0.1079  0.5190  0.0284
 4021SOL    HW112352   0.918   1.226   2.801 -0.4531  0.6583 -0.0275
 4021SOL    HW212353   0.871   1.383   2.798 -0.8285  0.5970  1.7790
 4022SOL     OW12354   0.597   1.021   1.335  0.2048 -0.0350  0.4308
 4022SOL    HW112355   0.634   1.085   1.268  0.4628 -0.2858  0.3327
 4022SOL    HW212356   0.615   0.928   1.305 -1.3587 -0.1815 -0.1113
 4023SOL     OW12357   5.081   1.737   2.369  0.2081 -0.0527 -0.1481
 4023SOL    HW112358   5.113   1.647   2.398 -0.5637 -0.4289 -0.4365
 4023SOL    HW212359   5.135   1.808   2.415 -0.4714 -0.6348  1.6647
 4024SOL     OW12360   4.213   0.481   1.274 -0.7549  0.0345 -0.4021
 4024SOL    HW112361   4.280   0.552   1.297 -2.0545  1.3117 -0.4068
 4024SOL    HW212362   4.172   0.502   1.185 -1.6588 -0.3456 -0.0810
 4025SOL     OW12363   1.804   5.686   2.799 -0.1181 -0.3899 -0.4328
 4025SOL    HW112364   1.728   5.740   2.763 -1.9231 -1.6147  1.3528
 4025SOL    HW212365   1.890   5.719   2.759 -1.2600  2.7931 -0.5449
 4026SOL     OW12366   4.662   0.380   5.884 -0.2807 -0.0073  0.3739
 4026SOL    HW112367   4.675   0.319   5.806  2.3796  0.6005  0.2398
 4026SOL    HW212368   4.668   0.328   5.969 -1.7656 -0.4522  0.2321
 4027SOL     OW12369   4.865   2.234   5.001 -0.2663 -0.3215 -0.3842
 4027SOL    HW112370   4.886   2.318   5.052 -0.4388 -0.2171 -0.4826
 4027SOL    HW212371   4.820   2.258   4.915  0.7147 -0.4573 -0.9490
 4028SOL     OW12372   0.054   5.738   2.070 -0.1324  0.2105  0.1661
 4028SOL    HW112373  -0.020   5.793   2.107  0.0850  1.0529 -0.6197
 4028SOL    HW212374   0.021   5.645   2.054 -0.7178  0.3020  0.7835
 4029SOL     OW12375   1.593   4.780   5.220 -0.0067  0.5683 -0.1132
 4029SOL    HW112376   1.632   4.828   5.142 -0.1574  1.2952  0.2593
 4029SOL    HW212377   1.572   4.685   5.193  0.1906  0.7357 -0.8724
 4030SOL     OW12378   5.477   5.256   3.101  0.4581  0.1585  0.4023
 4030SOL    HW112379   5.474   5.156   3.098  3.6383 -0.2383  3.5953
 4030SOL    HW212380   5.555   5.289   3.047 -0.7918  1.0333 -0.9521
 4031SOL     OW12381   5.623   0.304   0.472 -0.0679  0.2042 -0.1809
 4031SOL    HW112382   5.679   0.257   0.403 -0.7094 -1.0066  0.0809
 4031SOL    HW212383   5.548   0.352   0.426 -0.2895 -0.3063 -0.3651
 4032SOL     OW12384   1.436   1.496   5.886 -0.1210 -0.2448  0.7662
 4032SOL    HW112385   1.342   1.471   5.908 -1.0519  0.9357 -1.4973
 4032SOL    HW212386   1.481   1.420   5.839 -1.0778  0.2497 -1.0578
 4033SOL     OW12387   2.437   0.308   1.238  0.2586 -0.1710 -0.1799
 4033SOL    HW112388   2.460   0.405   1.238  1.1972 -0.3619  0.8238
 4033SOL    HW212389   2.379   0.286   1.160 -0.7115  1.3689  0.0895
 4034SOL     OW12390   0.056   2.384   3.384 -0.4515 -0.0143 -0.6504
 4034SOL    HW112391   0.030   2.293   3.352  1.6209 -0.5297 -0.9976
 4034SOL    HW212392  -0.001   2.453   3.339 -1.9061 -1.0965 -0.5403
 4035SOL     OW12393   2.827   3.623   2.035 -0.0692 -0.3314 -0.0194
 4035SOL    HW112394   2.821   3.527   2.007  0.1889 -0.1723 -0.6493
 4035SOL    HW212395   2.806   3.682   1.956 -1.0039  0.1292  0.5562
 4036SOL     OW12396   4.884   4.026   2.484 -0.4072  0.4332 -0.3075
 4036SOL    HW112397   4.908   3.935   2.451  2.1248  1.2218 -0.8292
 4036SOL    HW212398   4.926   4.042   2.573 -1.0114  1.0331 -0.1153
 4037SOL     OW12399   1.698   3.041   3.652 -0.2123  0.1979 -0.0005
 4037SOL    HW112400   1.691   3.049   3.752 -0.5723  2.3455 -0.1532
 4037SOL    HW212401   1.621   3.088   3.610  1.1807  1.3615 -1.3267
 4038SOL     OW12402   5.099   3.906   4.314 -0.0032 -0.0456 -0.4148
 4038SOL    HW112403   5.145   3.973   4.373  1.1817  0.5548 -1.9533
 4038SOL    HW212404   5.092   3.943   4.221 -0.2614 -1.6538 -1.0566
 4039SOL     OW12405   4.652   3.830   4.171  0.2381  0.3245 -0.2252
 4039SOL    HW112406   4.740   3.802   4.134  0.5248  1.4283 -0.4349
 4039SOL    HW212407   4.627   3.920   4.133 -1.3001 -0.2715 -0.6919
 4040SOL     OW12408   0.658   2.212   2.579 -0.4292 -0.3808 -0.4590
 4040SOL    HW112409   0.730   2.240   2.515  0.0713  0.2758  0.3579
 4040SOL    HW212410   0.602   2.292   2.603 -1.5375 -0.9134 -1.1949
 4041SOL     OW12411   0.359   4.420   0.737  0.1689  0.2652  0.3990
 4041SOL    HW112412   0.316   4.330   0.750 -1.1513  0.9029  0.6439
 4041SOL    HW212413   0.345   4.475   0.819  1.0357  0.6829  0.2738
 4042SOL     OW12414   0.648   2.291   2.251 -0.0038 -0.1166  0.1131
 4042SOL    HW112415   0.642   2.197   2.218  2.2839  0.2509 -1.5976
 4042SOL    HW212416   0.710   2.295   2.330  1.3877  0.1543 -0.9566
 4043SOL     OW12417   2.103   1.113   1.376  0.1803 -0.7357 -0.6292
 4043SOL    HW112418   2.078   1.180   1.446  1.3207 -0.1711 -0.7371
 4043SOL    HW212419   2.067   1.023   1.402  0.8141 -0.5981  0.8605
 4044SOL     OW12420   2.323   1.301   5.149  0.0473  0.0218  0.0770
 4044SOL    HW112421   2.400   1.311   5.212  0.5973  0.4729 -0.6485
 4044SOL    HW212422   2.323   1.208   5.111 -0.2297 -0.2202  0.6703
 4045SOL     OW12423   3.510   1.893   1.994 -0.6253  0.2343 -0.5497
 4045SOL    HW112424   3.595   1.864   1.950 -1.7825 -0.0832 -2.7209
 4045SOL    HW212425   3.480   1.822   2.058  1.4405  1.0071  1.4013
 4046SOL     OW12426   3.107   2.338   5.492  0.4669  0.5092  0.8857
 4046SOL    HW112427   3.196   2.300   5.517  0.6917 -0.5421 -1.2746
 4046SOL    HW212428   3.034   2.284   5.535  0.8484 -0.2308  0.6210
 4047SOL     OW12429   5.399   5.716   5.942  0.1431 -0.3167 -0.6625
 4047SOL    HW112430   5.439   5.625   5.950  0.4223 -0.0210  2.2793
 4047SOL    HW212431   5.303   5.708   5.913  0.0123 -1.5891  0.0459
 4048SOL     OW12432   1.519   4.599   2.169  0.0434  0.0601  0.0041
 4048SOL    HW112433   1.565   4.568   2.086  0.4544 -0.8342  0.5531
 4048SOL    HW212434   1.571   4.569   2.249  0.1119  1.6576  0.5787
 4049SOL     OW12435   3.463   3.041   4.862 -0.1121  0.2279  0.1887
 4049SOL    HW112436   3.534   2.987   4.907  1.1196  2.3148  0.8899
 4049SOL    HW212437   3.497   3.074   4.774 -0.8292 -0.0861 -0.2126
 4050SOL     OW12438   5.890   0.802   4.752  0.0259  0.0111 -0.4325
 4050SOL    HW112439   5.828   0.769   4.681 -1.0754  1.8981 -0.4363
 4050SOL    HW212440   5.837   0.825   4.834  0.8532  0.7259 -0.0877
 4051SOL     OW12441   0.051   4.668   3.504  0.5208  0.4469  0.0865
 4051SOL    HW112442   0.106   4.703   3.429  0.0301 -0.1958 -0.5831
 4051SOL    HW212443   0.088   4.700   3.591  1.9628 -0.0134 -0.3425
 4052SOL     OW12444   5.111   4.294   5.660  0.3691  0.4319  0.6222
 4052SOL    HW112445   5.026   4.242   5.659 -0.3518  1.4830 -2.2078
 4052SOL    HW212446   5.105   4.367   5.728 -1.9922  1.8559 -0.9502
 4053SOL     OW12447   1.412   0.959   3.221  0.1745 -0.2028  1.2138
 4053SOL    HW112448   1.361   0.907   3.289 -1.1108  0.2775  0.6578
 4053SOL    HW212449   1.490   0.905   3.189 -1.3246 -1.9867  0.3698
 4054SOL     OW12450   3.977   4.614   0.117  0.4831  0.1450  0.0364
 4054SOL    HW112451   4.004   4.671   0.194  0.9522 -0.8840  0.6617
 4054SOL    HW212452   4.017   4.522   0.128 -1.9859 -0.9941  0.1988
 4055SOL     OW12453   4.453   0.533   3.365  0.4931 -0.5760 -0.3780
 4055SOL    HW112454   4.476   0.628   3.342  2.5227 -0.5425  1.4357
 4055SOL    HW212455   4.363   0.511   3.329 -0.9504  2.6948  0.7952
 4056SOL     OW12456   2.869   2.414   3.290 -0.4049 -0.1084 -0.0338
 4056SOL    HW112457   2.967   2.411   3.307 -0.3570  2.2656  0.3449
 4056SOL    HW212458   2.820   2.391   3.375 -0.2278 -1.6405 -0.3102
 4057SOL     OW12459   1.895   3.661   3.568  0.2156 -0.1572 -0.0742
 4057SOL    HW112460   1.832   3.586   3.544 -0.1248 -0.1196  0.6473
 4057SOL    HW212461   1.852   3.748   3.546  0.0083 -0.1320  0.4076
 4058SOL     OW12462   1.275   3.961   1.030  0.3550 -0.1708  0.3048
 4058SOL    HW112463   1.335   3.970   1.109 -0.7748 -4.4113  1.9379
 4058SOL    HW212464   1.188   4.007   1.048  0.3762 -0.4865  1.2686
 4059SOL     OW12465   0.713   3.451   4.665 -0.2689 -0.3852  0.3865
 4059SOL    HW112466   0.699   3.356   4.638 -0.0181  0.0188 -1.2648
 4059SOL    HW212467   0.811   3.469   4.677 -0.3344 -0.3968  0.9813
 4060SOL     OW12468   5.463   3.090   0.316  0.0705 -0.1203  0.0926
 4060SOL    HW112469   5.559   3.116   0.311  0.0099 -0.0826 -1.4025
 4060SOL    HW212470   5.455   2.991   0.304 -0.1045 -0.0437 -0.4834
 4061SOL     OW12471   5.089   4.628   4.683  0.5627  0.6186 -0.0756
 4061SOL    HW112472   5.091   4.538   4.727 -0.6579 -0.5029 -2.1665
 4061SOL    HW212473   5.063   4.697   4.751  1.0897 -0.6268  1.4781
 4062SOL     OW12474   5.837   3.890   5.302  0.2854  0.0948  0.9860
 4062SOL    HW112475   5.857   3.930   5.213  1.1817 -3.2236 -0.4652
 4062SOL    HW212476   5.738   3.878   5.312  0.2297 -0.3149  0.0234
 4063SOL     OW12477   0.210   5.519   3.180  0.7322 -0.1082  0.2742
 4063SOL    HW112478   0.283   5.584   3.201  2.3273 -1.0497 -1.9978
 4063SOL    HW212479   0.215   5.493   3.084 -2.1619 -0.8210  0.2245
 4064SOL     OW12480   4.304   4.647   5.134  0.0274  0.2924  0.2980
 4064SOL    HW112481   4.360   4.584   5.188  1.5641  1.2602 -0.0925
 4064SOL    HW212482   4.349   4.664   5.046 -1.1332  0.7389 -0.2208
 4065SOL     OW12483   4.186   0.129   1.876  0.6981 -0.3583  0.3149
 4065SOL    HW112484   4.138   0.216   1.887  1.1004 -0.3864  2.7758
 4065SOL    HW212485   4.239   0.131   1.791 -1.6101  0.6266 -1.2044
 4066SOL     OW12486   3.043   2.554   1.141  0.5141 -0.6180  0.2642
 4066SOL    HW112487   2.976   2.491   1.180  0.3013 -0.0438  0.8403
 4066SOL    HW212488   2.996   2.630   1.096  0.7553  0.3665  1.6187
 4067SOL     OW12489   0.617   2.448   4.834 -0.3815  0.0804 -0.5055
 4067SOL    HW112490   0.583   2.418   4.745 -2.2582  0.5559  0.0200
 4067SOL    HW212491   0.579   2.538   4.856  0.3517  0.1369  0.6252
 4068SOL     OW12492   1.284   0.390   4.354  0.2404  0.2926 -0.4079
 4068SOL    HW112493   1.185   0.379   4.353  0.3444 -1.1025  0.8554
 4068SOL    HW212494   1.307   0.485   4.374 -0.7846  1.2023 -3.0544
 4069SOL     OW12495   5.583   3.971   2.701 -0.3386 -0.0343  0.5685
 4069SOL    HW112496   5.605   3.894   2.642  0.3850 -0.2276  1.0768
 4069SOL    HW212497   5.551   3.937   2.790 -1.7145  0.2510  0.2106
 4070SOL     OW12498   2.698   4.945   0.834  0.4881 -0.0818 -0.1302
 4070SOL    HW112499   2.778   4.999   0.861  1.5608 -1.4949 -0.4050
 4070SOL    HW212500   2.655   4.987   0.754 -0.1053  1.6442  1.0268
 4071SOL     OW12501   2.124   5.177   3.224  0.4061 -0.2346  0.0527
 4071SOL    HW112502   2.207   5.142   3.180  1.0003  0.2654  0.7515
 4071SOL    HW212503   2.134   5.275   3.240 -0.3943 -0.1368  0.0041
 4072SOL     OW12504   1.381   2.386   0.277 -0.0784  0.4856 -0.1737
 4072SOL    HW112505   1.445   2.440   0.222  0.7541 -0.8168 -0.5154
 4072SOL    HW212506   1.361   2.435   0.362  1.9733  0.5899  0.3013
 4073SOL     OW12507   0.512   1.026   1.780 -0.2689  0.3103 -0.1826
 4073SOL    HW112508   0.465   1.110   1.753 -1.1339 -0.2498 -0.4706
 4073SOL    HW212509   0.569   0.993   1.705 -0.7142  0.1032 -0.4322
 4074SOL     OW12510   4.587   2.007   3.128 -0.3565  0.3892  0.2886
 4074SOL    HW112511   4.634   1.941   3.069  0.3927  1.6862 -0.6238
 4074SOL    HW212512   4.521   2.059   3.074  1.4705  2.7143  0.1320
 4075SOL     OW12513   5.326   4.540   5.705  0.5678 -0.1631  0.1420
 4075SOL    HW112514   5.354   4.467   5.768  1.5275 -0.4219 -0.5595
 4075SOL    HW212515   5.399   4.555   5.638 -0.5067 -0.0188 -1.0239
 4076SOL     OW12516   3.045   5.164   0.421  0.6318  0.2220  0.0690
 4076SOL    HW112517   3.102   5.160   0.339  0.1596 -0.2652 -0.2352
 4076SOL    HW212518   2.992   5.080   0.430  0.7251  0.2425  0.9104
 4077SOL     OW12519   0.512   0.331   2.217  0.8707 -0.7128 -0.2097
 4077SOL    HW112520   0.568   0.385   2.155  1.3298 -1.4315 -0.4352
 4077SOL    HW212521   0.466   0.259   2.166  0.3279 -0.5867  0.0994
 4078SOL     OW12522   4.043   5.055   4.214  0.8176 -0.3000 -0.2888
 4078SOL    HW112523   4.096   4.980   4.253  1.8049  0.7312  0.4374
 4078SOL    HW212524   3.962   5.019   4.167 -0.5681 -1.6157  2.8572
 4079SOL     OW12525   3.806   0.553   1.831 -0.2131 -0.1057  0.0551
 4079SOL    HW112526   3.759   0.641   1.829 -1.5025 -0.7752 -2.1770
 4079SOL    HW212527   3.902   0.565   1.806 -0.2046  0.7422  0.4805
 4080SOL     OW12528   1.134   0.108   1.367  0.1313 -0.6384  0.2514
 4080SOL    HW112529   1.087   0.169   1.431 -0.3921 -0.6998 -0.0673
 4080SOL    HW212530   1.228   0.138   1.355  0.0641 -0.2805  0.6009
 4081SOL     OW12531   5.123   4.763   3.034 -0.1388 -0.1511 -0.2019
 4081SOL    HW112532   5.193   4.806   2.976 -0.5089  1.9983  0.8777
 4081SOL    HW212533   5.164   4.685   3.082  1.4511  0.8449  0.1412
 4082SOL     OW12534   4.063   2.298   5.094 -0.4467  0.3219 -0.1438
 4082SOL    HW112535   4.163   2.292   5.093 -0.4310 -0.6969  2.0290
 4082SOL    HW212536   4.032   2.309   5.188 -2.4404 -0.6438 -0.6493
 4083SOL     OW12537   0.823   3.224   3.532 -0.8554 -0.4416  0.1415
 4083SOL    HW112538   0.842   3.263   3.623  1.6754 -0.3580 -0.3538
 4083SOL    HW212539   0.811   3.126   3.541 -0.4346 -0.4643  0.5806
 4084SOL     OW12540   4.294   4.972   2.752  0.5891 -0.1693  0.9232
 4084SOL    HW112541   4.322   4.880   2.778  0.8048 -0.8196 -1.3544
 4084SOL    HW212542   4.347   5.001   2.672 -0.8605  1.1225  0.3842
 4085SOL     OW12543   1.410   4.308   1.202  0.1631  0.3430  0.4403
 4085SOL    HW112544   1.475   4.349   1.138  2.4979 -2.1340  1.0396
 4085SOL    HW212545   1.326   4.362   1.203  1.9773  3.4767 -0.7347
 4086SOL     OW12546   5.903   0.940   4.412 -0.8249  0.1558  0.5984
 4086SOL    HW112547   5.851   1.023   4.392 -0.7199  0.4368  1.4238
 4086SOL    HW212548   5.840   0.866   4.434 -1.0545 -0.7851 -2.7792
 4087SOL     OW12549   0.401   1.409   3.494 -0.6261  0.1080  0.3327
 4087SOL    HW112550   0.375   1.376   3.404 -2.1302 -1.9118  1.4264
 4087SOL    HW212551   0.345   1.488   3.519  0.1782  1.0240 -0.6771
 4088SOL     OW12552   1.542   0.704   0.408  0.5268  0.3776 -0.2326
 4088SOL    HW112553   1.622   0.663   0.364  0.4575 -0.1586  0.1407
 4088SOL    HW212554   1.467   0.638   0.410 -0.0803  1.0263 -0.9868
 4089SOL     OW12555   0.341   4.082   3.120  1.0956  0.3417 -0.4276
 4089SOL    HW112556   0.295   4.154   3.171  0.3381 -0.9110  0.7561
 4089SOL    HW212557   0.438   4.080   3.144  0.6550 -0.5644  1.4565
 4090SOL     OW12558   0.122   2.403   2.734 -0.2229 -0.4024 -0.3592
 4090SOL    HW112559   0.165   2.390   2.824 -0.0675 -0.6206 -0.4629
 4090SOL    HW212560   0.152   2.330   2.672 -1.3636 -1.0239 -0.2071
 4091SOL     OW12561   5.341   3.939   1.251  0.0474 -0.1145 -0.6388
 4091SOL    HW112562   5.394   3.867   1.295 -0.3293 -0.5281 -0.8401
 4091SOL    HW212563   5.260   3.960   1.306 -0.8418 -1.1902 -1.4882
 4092SOL     OW12564   0.122   4.667   1.107 -0.0507  0.2586 -0.2609
 4092SOL    HW112565   0.046   4.726   1.079  1.3297  1.7350 -1.0210
 4092SOL    HW212566   0.194   4.669   1.038  1.3851  0.1854  1.1697
 4093SOL     OW12567   1.558   0.068   1.439  0.3201 -0.2872 -0.1421
 4093SOL    HW112568   1.533  -0.012   1.384  0.7451 -0.3416 -0.2612
 4093SOL    HW212569   1.555   0.150   1.381 -0.4345 -0.1644  0.0591
 4094SOL     OW12570   3.351   5.088   5.695  0.1216  0.2159 -0.3525
 4094SOL    HW112571   3.405   5.111   5.776  0.0029 -0.8675  0.0471
 4094SOL    HW212572   3.377   4.997   5.663 -2.5679 -1.0638  0.8318
 4095SOL     OW12573   0.614   0.867   2.618 -0.3719 -0.3046 -0.1375
 4095SOL    HW112574   0.647   0.790   2.673 -1.2775 -0.3262  0.3923
 4095SOL    HW212575   0.612   0.841   2.521  0.2622 -0.6092 -0.0748
 4096SOL     OW12576   2.879   5.421   5.591 -0.5213 -0.1004 -0.6391
 4096SOL    HW112577   2.891   5.407   5.690 -2.3752  0.0565 -0.3523
 4096SOL    HW212578   2.963   5.458   5.552 -0.1285  0.9332  1.0913
 4097SOL     OW12579   3.100   0.639   4.489 -0.4832  0.4520 -0.2690
 4097SOL    HW112580   3.109   0.737   4.474 -0.1272  0.6403  1.0180
 4097SOL    HW212581   3.012   0.620   4.532 -0.4493  0.2303 -0.2982
 4098SOL     OW12582   3.569   4.665   5.418  0.2675 -0.5305  0.4056
 4098SOL    HW112583   3.611   4.617   5.494  0.9341  0.7421  0.8639
 4098SOL    HW212584   3.635   4.728   5.377 -0.0610 -1.2173 -1.2688
 4099SOL     OW12585   2.861   2.580   4.081 -0.7363  0.2691  0.1635
 4099SOL    HW112586   2.810   2.615   4.002 -0.6032 -1.3003 -0.6640
 4099SOL    HW212587   2.800   2.573   4.160 -1.1963  0.6838 -0.1502
 4100SOL     OW12588   0.361   1.477   4.276 -0.4142  0.0360 -0.2154
 4100SOL    HW112589   0.305   1.504   4.354 -0.2591 -0.4884  0.0808
 4100SOL    HW212590   0.329   1.389   4.240 -0.4991  0.2830 -0.7602
 4101SOL     OW12591   5.300   1.729   0.663 -0.5692  0.3426  0.3433
 4101SOL    HW112592   5.242   1.780   0.600 -1.4265 -1.1712 -0.1264
 4101SOL    HW212593   5.386   1.705   0.618 -0.5665  0.5286  0.2497
 4102SOL     OW12594   1.423   0.884   4.687  0.0180  0.4691  0.3342
 4102SOL    HW112595   1.358   0.958   4.709  0.0842  0.1914  1.5232
 4102SOL    HW212596   1.438   0.882   4.589 -0.9990  1.2010  0.1425
 4103SOL     OW12597   0.289   1.089   2.192 -0.1271 -0.3489  0.0944
 4103SOL    HW112598   0.280   1.146   2.111 -0.2217 -2.5292 -1.5352
 4103SOL    HW212599   0.225   1.120   2.262 -1.8487  0.1418 -1.5975
 4104SOL     OW12600   5.590   2.427   1.360  0.1016 -0.1044 -0.0425
 4104SOL    HW112601   5.643   2.461   1.282  1.0537  3.5637  1.9858
 4104SOL    HW212602   5.647   2.366   1.416  1.3153  1.5558  0.5983
 4105SOL     OW12603   1.745   1.559   1.749  0.1169 -0.1096 -0.3092
 4105SOL    HW112604   1.687   1.548   1.668 -2.2252  1.3409  1.0509
 4105SOL    HW212605   1.751   1.656   1.772  0.5326 -0.5079  1.3855
 4106SOL     OW12606   5.038   4.831   0.858 -0.3631  0.5875  0.5436
 4106SOL    HW112607   5.055   4.738   0.893  0.0974  0.8194  0.9505
 4106SOL    HW212608   5.036   4.829   0.758 -1.2275 -0.0072  0.5561
 4107SOL     OW12609   2.538   1.314   5.318 -0.1349  0.8657  0.2123
 4107SOL    HW112610   2.595   1.396   5.317  0.7684  0.2454 -0.9634
 4107SOL    HW212611   2.519   1.289   5.413  0.9592  1.4928  0.6198
 4108SOL     OW12612   2.880   0.708   3.076  0.3635  0.8137 -0.7090
 4108SOL    HW112613   2.912   0.647   3.148  0.3892  0.4820 -0.9998
 4108SOL    HW212614   2.783   0.726   3.088  0.7216  2.2060  0.4606
 4109SOL     OW12615   4.407   4.265   1.827 -0.1946  0.5394  0.9136
 4109SOL    HW112616   4.497   4.246   1.864 -0.1274 -0.8355  0.1056
 4109SOL    HW212617   4.339   4.263   1.900 -0.4457 -4.4806  0.9050
 4110SOL     OW12618   2.640   1.650   5.357  0.6015 -0.2234 -0.2605
 4110SOL    HW112619   2.699   1.632   5.279  0.3801  1.9280 -0.9826
 4110SOL    HW212620   2.618   1.747   5.360 -3.2905 -0.9722 -0.2838
 4111SOL     OW12621   0.818   2.562   5.240 -0.3354 -0.5054  0.0936
 4111SOL    HW112622   0.898   2.591   5.186 -0.1582 -0.8222  0.1862
 4111SOL    HW212623   0.759   2.503   5.184 -0.7862  0.1635 -0.1521
 4112SOL     OW12624   3.948   5.740   2.239  0.5148 -0.5221  0.3522
 4112SOL    HW112625   3.866   5.736   2.297 -0.3455 -1.6717 -0.8932
 4112SOL    HW212626   3.990   5.831   2.247 -1.5226  0.4814  0.1518
 4113SOL     OW12627   0.060   0.925   5.159  0.0676  0.3420 -0.2153
 4113SOL    HW112628   0.074   0.903   5.062 -0.8930 -1.9818  0.1040
 4113SOL    HW212629  -0.023   0.979   5.169  0.5631  1.2261 -0.7239
 4114SOL     OW12630   3.101   4.397   2.195  0.0917  0.8679  0.0171
 4114SOL    HW112631   3.156   4.318   2.224  3.8632  2.8099 -1.2181
 4114SOL    HW212632   3.012   4.365   2.162  0.2523 -2.4886  2.3227
 4115SOL     OW12633   2.568   4.783   4.777 -0.3480 -0.1975 -0.2143
 4115SOL    HW112634   2.612   4.842   4.845 -0.9393  1.7486 -1.4253
 4115SOL    HW212635   2.620   4.787   4.692 -0.5520 -1.2640 -0.3984
 4116SOL     OW12636   1.196   1.266   1.076 -0.2459 -0.1436 -0.0240
 4116SOL    HW112637   1.256   1.329   1.027  1.2921 -1.9942 -0.6505
 4116SOL    HW212638   1.251   1.200   1.127 -1.7957 -0.5551  1.2171
 4117SOL     OW12639   3.249   4.915   0.465 -0.2452  0.0992 -0.1512
 4117SOL    HW112640   3.292   4.934   0.376 -1.5523  1.0433 -0.6150
 4117SOL    HW212641   3.151   4.934   0.459 -0.3590  0.1437  1.4965
 4118SOL     OW12642   2.309   2.917   2.584 -0.0011 -0.4860  0.2330
 4118SOL    HW112643   2.250   2.927   2.664  1.1606 -0.4894  1.1152
 4118SOL    HW212644   2.336   2.821   2.575 -1.0489 -0.7049 -0.8648
 4119SOL     OW12645   3.763   2.384   1.235  0.4906  0.1252  0.0248
 4119SOL    HW112646   3.781   2.472   1.280 -0.9055  1.1476 -1.3109
 4119SOL    HW212647   3.848   2.331   1.232  2.4139  2.9503 -2.3121
 4120SOL     OW12648   0.060   4.573   0.420  0.0398  0.1991 -0.9342
 4120SOL    HW112649   0.032   4.651   0.365  1.7291  2.9233  1.7003
 4120SOL    HW212650   0.148   4.539   0.387  1.7953  2.7747  0.6470
 4121SOL     OW12651   5.258   4.490   4.514  0.7193  0.9606 -0.2984
 4121SOL    HW112652   5.321   4.445   4.578 -0.7244 -0.1677  0.4088
 4121SOL    HW212653   5.205   4.559   4.563  0.9793  1.4901 -0.7530
 4122SOL     OW12654   4.627   4.349   1.241 -0.3185 -0.1160  0.1802
 4122SOL    HW112655   4.617   4.304   1.330 -2.6860 -0.6301 -0.2690
 4122SOL    HW212656   4.678   4.434   1.252  0.5002 -0.7711  1.7989
 4123SOL     OW12657   0.075   0.529   1.909  0.5313  0.0726  0.2332
 4123SOL    HW112658   0.109   0.605   1.965  1.6491 -0.1294 -0.1550
 4123SOL    HW212659  -0.007   0.491   1.952  0.4758  0.9110  0.9118
 4124SOL     OW12660   2.184   0.983   3.312 -0.3486  0.7583 -0.4170
 4124SOL    HW112661   2.098   0.933   3.296  0.0697  0.0272 -0.4104
 4124SOL    HW212662   2.247   0.925   3.364  0.1302  1.3175 -0.3673
 4125SOL     OW12663   3.108   3.046   5.162  0.2168 -0.5874 -0.0847
 4125SOL    HW112664   3.024   3.078   5.119  1.1584 -1.0308 -2.4015
 4125SOL    HW212665   3.089   3.020   5.257 -2.2776 -0.7714 -0.5611
 4126SOL     OW12666   1.361   5.608   5.054 -0.5597  0.2381 -0.6774
 4126SOL    HW112667   1.388   5.704   5.046  0.1533  0.1598  0.4866
 4126SOL    HW212668   1.383   5.560   4.969  0.7651  0.7319 -0.6458
 4127SOL     OW12669   2.999   1.307   1.998 -0.0118  0.0250 -0.1381
 4127SOL    HW112670   2.931   1.371   2.032 -0.9538 -1.1080  0.1878
 4127SOL    HW212671   3.083   1.356   1.975 -0.2577  1.1962  1.2980
 4128SOL     OW12672   5.559   4.759   1.057 -0.0679 -0.0220  0.2191
 4128SOL    HW112673   5.518   4.680   1.103  1.9808 -1.8028 -0.8419
 4128SOL    HW212674   5.489   4.804   1.001 -1.1056 -1.6584  0.1299
 4129SOL     OW12675   0.682   1.250   1.221  0.0466 -0.2289  0.9618
 4129SOL    HW112676   0.658   1.307   1.300  1.9411  1.2418  0.5452
 4129SOL    HW212677   0.780   1.256   1.204  0.2698 -3.3010  0.5711
 4130SOL     OW12678   0.240   2.709   4.729 -0.8273  0.3363  0.3644
 4130SOL    HW112679   0.214   2.711   4.632  0.6652  0.3199 -0.0558
 4130SOL    HW212680   0.172   2.760   4.782 -2.1306 -0.3846 -0.5540
 4131SOL     OW12681   1.748   2.147   0.382  0.2123 -0.0958  0.2737
 4131SOL    HW112682   1.708   2.233   0.414 -0.9096  0.1463 -1.6246
 4131SOL    HW212683   1.679   2.094   0.333  1.5533 -0.9005 -0.8362
 4132SOL     OW12684   3.139   3.526   4.129 -0.1561  0.2653 -0.3061
 4132SOL    HW112685   3.042   3.513   4.148 -0.9135  2.6973 -2.0289
 4132SOL    HW212686   3.171   3.452   4.070 -0.2772 -1.8098  2.0487
 4133SOL     OW12687   3.955   3.734   1.709 -0.8471  0.1233  0.2116
 4133SOL    HW112688   4.001   3.657   1.665 -1.0368  0.5592 -0.7800
 4133SOL    HW212689   3.938   3.712   1.805  0.0224 -0.6555  0.2037
 4134SOL     OW12690   0.748   0.331   3.416 -0.0017  0.4351  0.7068
 4134SOL    HW112691   0.837   0.336   3.369 -1.1201  1.8429 -1.3935
 4134SOL    HW212692   0.758   0.275   3.499  2.4858 -0.6928 -0.2399
 4135SOL     OW12693   1.306   0.462   5.719 -0.6523  0.2079 -0.3035
 4135SOL    HW112694   1.282   0.487   5.813 -0.6564  2.4100 -0.8247
 4135SOL    HW212695   1.394   0.414   5.719 -0.7681 -0.0307  0.8341
 4136SOL     OW12696   1.684   5.860   3.043  0.1314 -0.2123 -0.2565
 4136SOL    HW112697   1.614   5.822   2.982 -0.3696 -1.4612  1.0173
 4136SOL    HW212698   1.640   5.913   3.116  0.5212 -0.5866  0.2650
 4137SOL     OW12699   4.235   3.858   4.480  0.0044 -0.8716 -0.0148
 4137SOL    HW112700   4.241   3.882   4.383 -2.5510  2.6201  0.4679
 4137SOL    HW212701   4.276   3.931   4.535 -1.1509 -1.3525  1.5556
 4138SOL     OW12702   1.644   0.620   1.729  0.5400 -0.0048 -0.6417
 4138SOL    HW112703   1.550   0.643   1.706  0.5155  1.7170  0.9235
 4138SOL    HW212704   1.649   0.525   1.759 -0.7622 -0.0219 -0.4433
 4139SOL     OW12705   1.846   2.524   5.148 -0.1754  0.3336  0.5237
 4139SOL    HW112706   1.901   2.444   5.171 -0.6747 -0.5615 -1.2338
 4139SOL    HW212707   1.758   2.495   5.110 -0.0636  1.6702 -0.8651
 4140SOL     OW12708   5.091   3.189   3.893  0.2691  0.3721  0.7684
 4140SOL    HW112709   5.024   3.257   3.922 -0.3023  0.1814 -0.0671
 4140SOL    HW212710   5.116   3.131   3.971 -0.5360  0.4438  1.0870
 4141SOL     OW12711   4.265   3.999   4.932 -0.1761 -0.3026  0.3571
 4141SOL    HW112712   4.326   3.931   4.972  0.7430 -1.1011 -2.1701
 4141SOL    HW212713   4.170   3.976   4.953  0.2248 -1.1208  1.3286
 4142SOL     OW12714   5.764   4.845   2.750  0.2446  0.3863 -0.0663
 4142SOL    HW112715   5.776   4.916   2.819 -1.1149 -1.0031  1.7083
 4142SOL    HW212716   5.668   4.843   2.720  0.0676 -1.1661  0.5051
 4143SOL     OW12717   1.073   4.809   5.229 -0.5331 -0.2376  0.1976
 4143SOL    HW112718   1.062   4.730   5.168  0.4255 -0.3048  0.1052
 4143SOL    HW212719   1.169   4.821   5.252 -0.7194  0.6648  0.5501
 4144SOL     OW12720   1.354   4.527   0.780  0.4195 -0.3538  0.5127
 4144SOL    HW112721   1.282   4.594   0.795 -0.6261 -1.6137  1.3019
 4144SOL    HW212722   1.410   4.555   0.701 -0.0457  1.3515  0.7548
 4145SOL     OW12723   0.595   3.435   3.579 -0.3302  0.0893  0.3649
 4145SOL    HW112724   0.667   3.367   3.575 -0.3134  0.1619 -2.2697
 4145SOL    HW212725   0.533   3.415   3.655  0.2430 -2.2504  0.2662
 4146SOL     OW12726   5.214   1.215   3.748  0.1994 -0.1277  0.2955
 4146SOL    HW112727   5.248   1.287   3.688  2.6453 -0.7537  0.8203
 4146SOL    HW212728   5.141   1.165   3.702  0.6257  0.6836 -1.3358
 4147SOL     OW12729   0.641   2.010   3.062  0.1049  0.1441 -0.0563
 4147SOL    HW112730   0.695   2.085   3.099 -1.0874  0.5876  0.8618
 4147SOL    HW212731   0.598   2.038   2.976  0.0813  0.3313  0.0166
 4148SOL     OW12732   5.128   2.023   0.490  0.1989  0.0520  1.0233
 4148SOL    HW112733   5.051   2.087   0.486  0.6280  0.6063  1.5019
 4148SOL    HW212734   5.200   2.061   0.547  0.1558 -1.1961  1.9522
 4149SOL     OW12735   2.537   1.835   3.085 -0.1446  0.1505 -0.4977
 4149SOL    HW112736   2.454   1.889   3.071  0.1572  0.2647 -1.9670
 4149SOL    HW212737   2.601   1.887   3.141 -1.3702 -0.2834  1.4023
 4150SOL     OW12738   4.179   3.708   0.589 -0.5000 -0.5575 -0.4903
 4150SOL    HW112739   4.274   3.737   0.594 -0.3162 -1.2878  0.5172
 4150SOL    HW212740   4.120   3.782   0.622 -0.0866 -0.9996  1.3304
 4151SOL     OW12741   3.762   4.221   4.720 -0.2594 -0.1125 -0.1158
 4151SOL    HW112742   3.855   4.238   4.687 -0.5815  0.1541 -0.8918
 4151SOL    HW212743   3.761   4.136   4.772  0.5218  0.1406  0.3487
 4152SOL     OW12744   5.739   4.972   3.384 -0.3811 -0.1450  0.3642
 4152SOL    HW112745   5.795   5.036   3.331  1.0887 -2.1502 -0.6489
 4152SOL    HW212746   5.686   4.914   3.321 -1.7458  0.0824  1.2563
 4153SOL     OW12747   5.049   1.457   0.872 -0.0498  0.5649  0.7649
 4153SOL    HW112748   5.014   1.510   0.795 -1.2018 -0.9414  0.1958
 4153SOL    HW212749   5.138   1.418   0.847  0.3586  1.4203  0.8413
 4154SOL     OW12750   4.214   2.615   2.605  0.0786 -0.0796  0.4061
 4154SOL    HW112751   4.180   2.708   2.589 -0.3852 -0.0649  1.3709
 4154SOL    HW212752   4.313   2.614   2.597  0.0147  0.2762 -0.6025
 4155SOL     OW12753   1.102   0.668   1.472 -0.5683 -0.4008 -0.2758
 4155SOL    HW112754   1.102   0.603   1.396  1.1131 -0.6966 -0.0572
 4155SOL    HW212755   1.188   0.719   1.472 -1.3265  0.9356  0.3273
 4156SOL     OW12756   0.881   4.746   2.597 -0.2776 -0.3988 -0.1835
 4156SOL    HW112757   0.862   4.758   2.500 -1.3491 -1.0928 -0.0759
 4156SOL    HW212758   0.812   4.795   2.651 -1.2356 -2.1268  0.2162
 4157SOL     OW12759   1.478   0.256   1.718 -0.1164  0.1760 -0.3025
 4157SOL    HW112760   1.493   0.241   1.620 -1.0769  0.7585 -0.5529
 4157SOL    HW212761   1.409   0.193   1.751 -0.1128  0.2778 -0.0957
 4158SOL     OW12762   2.632   1.601   1.794 -0.7116 -0.3400  0.1795
 4158SOL    HW112763   2.705   1.667   1.780 -0.3209 -0.9599 -0.8658
 4158SOL    HW212764   2.671   1.513   1.822 -1.0234 -0.7338 -0.5898
 4159SOL     OW12765   3.851   0.114   1.220 -0.3128 -0.4673 -0.3827
 4159SOL    HW112766   3.910   0.042   1.256  0.8378  0.5995 -0.0884
 4159SOL    HW212767   3.822   0.090   1.127  1.4772 -0.5048 -0.9522
 4160SOL     OW12768   4.873   5.379   1.221  0.0241 -0.4820 -0.2174
 4160SOL    HW112769   4.971   5.361   1.214  0.1389  0.4236 -1.1115
 4160SOL    HW212770   4.823   5.292   1.219  0.7748 -0.9265 -0.1774
 4161SOL     OW12771   0.686   4.068   5.809 -0.3581 -0.2389 -0.0489
 4161SOL    HW112772   0.633   4.102   5.731 -0.8948  1.6790  1.0768
 4161SOL    HW212773   0.627   4.014   5.868 -0.9348  1.3228  0.8490
 4162SOL     OW12774   1.343   4.346   4.361 -0.1883  0.1893 -0.1555
 4162SOL    HW112775   1.315   4.289   4.284 -1.8253  2.0344 -1.0180
 4162SOL    HW212776   1.320   4.301   4.446  0.0271 -1.1190 -0.7686
 4163SOL     OW12777   1.842   1.516   3.804 -0.0558 -0.0297  0.7491
 4163SOL    HW112778   1.912   1.586   3.817  0.2984 -0.1451 -0.3853
 4163SOL    HW212779   1.881   1.440   3.752 -1.1295  0.1267 -0.3423
 4164SOL     OW12780   2.769   2.320   0.985 -0.5734 -0.0596  0.1158
 4164SOL    HW112781   2.784   2.340   0.888  0.6715  0.5250  0.4041
 4164SOL    HW212782   2.748   2.223   0.997 -0.0737 -0.2693 -0.6676
 4165SOL     OW12783   4.434   1.288   0.774 -0.4658  0.0382 -0.7160
 4165SOL    HW112784   4.428   1.288   0.874 -1.0132  0.7546 -0.7325
 4165SOL    HW212785   4.475   1.202   0.742 -0.0244 -0.0747  0.1323
 4166SOL     OW12786   2.254   2.110   3.205 -0.3003  0.3277  0.0780
 4166SOL    HW112787   2.165   2.153   3.216  0.3661  2.2456 -1.4950
 4166SOL    HW212788   2.249   2.015   3.237 -2.9957  0.2243 -0.4136
 4167SOL     OW12789   1.038   4.019   4.235  0.5639 -0.0456  0.0482
 4167SOL    HW112790   1.118   4.079   4.232  0.0862  0.5876 -0.3534
 4167SOL    HW212791   0.960   4.066   4.194  0.2744 -1.1004 -0.6369
 4168SOL     OW12792   4.801   3.203   5.048  0.4154  0.3444  0.2174
 4168SOL    HW112793   4.860   3.265   4.996  0.2673 -0.3450 -0.8031
 4168SOL    HW212794   4.727   3.255   5.090 -1.4898  0.5780 -3.0965
 4169SOL     OW12795   2.699   1.569   5.590 -0.1509 -0.2179 -0.5337
 4169SOL    HW112796   2.671   1.590   5.497  0.0695  1.2769 -0.2844
 4169SOL    HW212797   2.627   1.598   5.654  0.5764  0.7210 -0.1120
 4170SOL     OW12798   2.858   2.099   2.864 -0.2029  0.1330  0.2030
 4170SOL    HW112799   2.927   2.063   2.801  0.5788  0.4739  0.8427
 4170SOL    HW212800   2.892   2.093   2.958 -0.7103  1.0434  0.4598
 4171SOL     OW12801   4.287   2.306   1.956  0.0160  0.0779  0.5467
 4171SOL    HW112802   4.270   2.255   2.040 -0.4347 -0.2529  0.2597
 4171SOL    HW212803   4.370   2.270   1.912 -0.0874 -0.1488  0.5388
 4172SOL     OW12804   4.153   2.788   4.297  0.0013  0.3563  0.4522
 4172SOL    HW112805   4.106   2.847   4.362 -0.4496  0.8890 -0.3393
 4172SOL    HW212806   4.093   2.712   4.273 -0.3758  0.8980 -0.3642
 4173SOL     OW12807   1.101   2.893   3.264 -0.0374  0.4369 -0.5238
 4173SOL    HW112808   1.004   2.896   3.288  0.3018  0.0490  1.0174
 4173SOL    HW212809   1.125   2.800   3.234 -0.2366  0.6545 -1.3721
 4174SOL     OW12810   0.016   1.221   4.621 -0.4462 -0.1239 -0.3563
 4174SOL    HW112811  -0.027   1.223   4.531  0.3291  2.0332 -0.7311
 4174SOL    HW212812   0.111   1.190   4.613 -0.3419  0.1777 -0.3031
 4175SOL     OW12813   4.335   1.866   2.509  0.3270 -0.1288 -0.0040
 4175SOL    HW112814   4.348   1.927   2.431  2.4918 -0.9192 -0.3355
 4175SOL    HW212815   4.246   1.820   2.500 -0.3046  1.2089 -0.9643
 4176SOL     OW12816   3.439   0.490   4.183 -0.9402 -0.5977 -0.5651
 4176SOL    HW112817   3.345   0.517   4.204 -0.7228 -0.2112 -0.0729
 4176SOL    HW212818   3.493   0.492   4.267 -0.4687 -0.7261 -0.8666
 4177SOL     OW12819   0.463   5.504   4.144 -0.3586  0.4100 -0.0872
 4177SOL    HW112820   0.527   5.573   4.111 -0.1904  0.0069 -0.6128
 4177SOL    HW212821   0.469   5.499   4.244  1.0053 -0.1616 -0.1767
 4178SOL     OW12822   3.300   2.385   1.484  0.0724 -0.4297 -0.2723
 4178SOL    HW112823   3.250   2.334   1.413 -3.0797  0.5323  1.1029
 4178SOL    HW212824   3.262   2.477   1.492  1.5346  0.0774  1.4891
 4179SOL     OW12825   1.087   1.008   4.295  0.0491  0.4798  0.2175
 4179SOL    HW112826   1.025   1.020   4.217 -2.4552 -0.1254  1.9796
 4179SOL    HW212827   1.112   1.098   4.330  0.0194  0.7364 -0.3921
 4180SOL     OW12828   5.382   2.230   2.735  0.2382 -0.0995 -0.4160
 4180SOL    HW112829   5.355   2.231   2.639 -1.8588 -1.0354  0.0909
 4180SOL    HW212830   5.313   2.181   2.788  2.0856 -0.8931  1.3803
 4181SOL     OW12831   2.256   0.793   4.819 -0.3075  0.3548 -0.5105
 4181SOL    HW112832   2.199   0.818   4.897  0.2500  0.6801 -0.2070
 4181SOL    HW212833   2.199   0.784   4.737 -1.0371 -0.8200  0.0913
 4182SOL     OW12834   2.274   1.474   1.516 -0.2382  0.1022 -0.3154
 4182SOL    HW112835   2.179   1.484   1.545 -0.7593 -2.5410 -0.8836
 4182SOL    HW212836   2.278   1.476   1.416  0.8040  3.3402 -0.3426
 4183SOL     OW12837   2.487   1.176   2.431 -0.1239 -0.0992  0.4972
 4183SOL    HW112838   2.494   1.189   2.332  1.0039  1.8152  0.7634
 4183SOL    HW212839   2.509   1.262   2.477 -1.9457 -0.5705  2.4006
 4184SOL     OW12840   1.478   2.367   5.547  0.4259  0.0192 -0.0952
 4184SOL    HW112841   1.472   2.454   5.498  2.5128  1.0877  1.3715
 4184SOL    HW212842   1.409   2.364   5.619 -0.8001 -0.3405 -1.2485
 4185SOL     OW12843   4.436   0.793   3.288 -0.5970 -0.4866  0.1960
 4185SOL    HW112844   4.517   0.803   3.231  0.5252 -0.4338  1.7209
 4185SOL    HW212845   4.354   0.814   3.235  0.0524 -3.5385 -2.2696
 4186SOL     OW12846   3.690   4.893   2.239 -0.4232 -0.5352 -0.0562
 4186SOL    HW112847   3.658   4.921   2.148 -0.3832  1.4170  0.4903
 4186SOL    HW212848   3.637   4.939   2.309  0.1809 -1.2898  0.9216
 4187SOL     OW12849   2.571   4.643   5.425  0.2979  0.1067  0.0009
 4187SOL    HW112850   2.627   4.685   5.354  2.3143 -0.3836  1.2061
 4187SOL    HW212851   2.625   4.573   5.473 -1.8819 -1.5143  0.2371
 4188SOL     OW12852   3.035   5.055   1.082 -0.0520  0.0746 -0.3675
 4188SOL    HW112853   2.992   5.032   0.994  0.2032  0.2648 -0.5446
 4188SOL    HW212854   3.082   4.974   1.118 -2.2247 -0.7388  0.8249
 4189SOL     OW12855   4.950   5.016   5.775 -0.2954  0.3913  0.2865
 4189SOL    HW112856   4.910   5.101   5.809 -0.6913  0.0950  0.5655
 4189SOL    HW212857   5.037   5.037   5.730 -0.9717  1.1060 -0.7526
 4190SOL     OW12858   1.126   5.021   2.840 -0.5863  0.1091 -0.1342
 4190SOL    HW112859   1.165   4.983   2.756 -1.9513 -1.5602 -0.0774
 4190SOL    HW212860   1.038   4.977   2.858  0.4965 -1.0092  3.1482
 4191SOL     OW12861   2.912   5.199   1.903 -0.0408 -0.3769 -0.1485
 4191SOL    HW112862   2.918   5.100   1.893 -1.7618 -0.4413 -0.7871
 4191SOL    HW212863   2.822   5.224   1.937 -0.1879  1.0567 -1.4896
 4192SOL     OW12864   3.340   3.161   5.105  0.6022  0.0542  0.4877
 4192SOL    HW112865   3.369   3.145   5.011  0.4052 -0.8920  0.5775
 4192SOL    HW212866   3.255   3.111   5.122  0.9968 -0.3435  1.3611
 4193SOL     OW12867   5.522   0.466   2.466 -0.1537  0.2043 -0.5383
 4193SOL    HW112868   5.523   0.514   2.379 -0.0940  1.6906  0.2413
 4193SOL    HW212869   5.611   0.424   2.483  0.3974  1.3739 -0.4371
 4194SOL     OW12870   0.676   3.711   4.565 -0.1636  0.1035 -0.2607
 4194SOL    HW112871   0.669   3.618   4.603  1.2590  0.3002  0.5904
 4194SOL    HW212872   0.756   3.717   4.506 -0.1412  0.8361 -0.1675
 4195SOL     OW12873   0.957   0.445   3.642  0.1259 -0.2514 -0.2211
 4195SOL    HW112874   0.907   0.482   3.564  0.4446  1.1840  0.2176
 4195SOL    HW212875   1.054   0.439   3.619  1.1434  4.9180  1.4993
 4196SOL     OW12876   1.099   4.564   3.963  0.1508  0.3737 -0.1332
 4196SOL    HW112877   1.036   4.638   3.939  0.1292 -0.2790 -2.2365
 4196SOL    HW212878   1.147   4.588   4.048 -0.5146  2.3739 -0.2684
 4197SOL     OW12879   5.021   5.197   0.578  0.1525 -0.5380 -0.2720
 4197SOL    HW112880   5.059   5.236   0.662  0.6774 -0.4312 -0.5558
 4197SOL    HW212881   4.921   5.194   0.585 -0.1801  3.2667 -1.2594
 4198SOL     OW12882   3.754   2.620   0.856 -0.0333 -0.2595  0.1408
 4198SOL    HW112883   3.691   2.613   0.933 -0.1683 -1.1371 -0.0380
 4198SOL    HW212884   3.785   2.714   0.847 -1.6675  0.2942 -0.0427
 4199SOL     OW12885   3.682   1.744   3.195 -0.0832  0.1777  0.5064
 4199SOL    HW112886   3.764   1.786   3.235 -0.2440  1.0847 -0.0791
 4199SOL    HW212887   3.691   1.743   3.095 -0.4642 -0.4236  0.4705
 4200SOL     OW12888   3.075   2.626   2.536  0.1467 -0.3856 -0.0189
 4200SOL    HW112889   3.046   2.664   2.624  2.9852  1.2734  0.3582
 4200SOL    HW212890   3.107   2.701   2.477  0.6323 -1.7106 -1.4956
 4201SOL     OW12891   4.889   2.070   2.134 -0.2303 -0.3263  0.0352
 4201SOL    HW112892   4.890   2.169   2.138 -0.5192 -0.3447  0.7987
 4201SOL    HW212893   4.797   2.038   2.109 -0.3891 -0.4133  0.6923
 4202SOL     OW12894   3.159   3.925   2.092 -0.1221 -0.1838 -0.4502
 4202SOL    HW112895   3.153   3.976   2.006 -3.9301  2.7632  1.3052
 4202SOL    HW212896   3.089   3.854   2.093  0.6965 -1.0038 -0.1886
 4203SOL     OW12897   1.756   0.385   4.345 -0.6360  0.1454  0.2122
 4203SOL    HW112898   1.813   0.311   4.310 -0.5960  0.7470 -1.0616
 4203SOL    HW212899   1.732   0.447   4.270 -0.4312  1.5730  1.2811
 4204SOL     OW12900   3.574   4.174   0.139  0.4193 -0.1577  0.3558
 4204SOL    HW112901   3.665   4.176   0.096  0.3141  0.7420  0.1441
 4204SOL    HW212902   3.531   4.264   0.129 -0.4802 -0.5599  0.4926
 4205SOL     OW12903   4.311   2.329   2.833 -0.1366  0.5793 -0.1378
 4205SOL    HW112904   4.234   2.391   2.846  1.1837  2.1729  0.4281
 4205SOL    HW212905   4.372   2.334   2.912  1.0317  0.0833 -0.9660
 4206SOL     OW12906   3.744   4.872   3.795  0.2332 -0.4567  0.5387
 4206SOL    HW112907   3.675   4.856   3.866  1.4705 -0.1173  1.8601
 4206SOL    HW212908   3.765   4.786   3.749 -1.5454 -0.4487 -0.3597
 4207SOL     OW12909   0.946   4.103   1.387 -0.0324  0.5491  0.0465
 4207SOL    HW112910   0.905   4.015   1.410 -1.1603  1.0719  0.0665
 4207SOL    HW212911   1.028   4.116   1.443  0.1792 -0.5068  0.0008
 4208SOL     OW12912   5.025   5.762   0.357 -0.4026  0.8976 -0.1535
 4208SOL    HW112913   4.959   5.766   0.281  1.1188  0.1629 -1.5906
 4208SOL    HW212914   5.112   5.800   0.327  0.3727  0.1792  1.0932
 4209SOL     OW12915   1.104   2.576   4.772 -0.0322  0.2325 -0.2591
 4209SOL    HW112916   1.113   2.477   4.759 -0.6243  0.0578  0.5561
 4209SOL    HW212917   1.051   2.615   4.696  0.2576 -0.0605 -0.6172
 4210SOL     OW12918   5.866   5.924   2.914 -0.2342 -0.0850 -0.0528
 4210SOL    HW112919   5.863   6.016   2.875  0.0296 -0.3828 -0.8110
 4210SOL    HW212920   5.843   5.927   3.011  0.2088  0.8358  0.0325
 4211SOL     OW12921   4.498   3.847   1.016  0.6182 -0.4117 -0.0255
 4211SOL    HW112922   4.566   3.829   1.086  0.1553 -0.7457  0.3460
 4211SOL    HW212923   4.511   3.940   0.980  1.5643 -0.6479 -0.3078
 4212SOL     OW12924   5.450   1.175   1.428 -1.0153  0.3688 -0.7365
 4212SOL    HW112925   5.468   1.136   1.518  0.7298 -1.0560 -1.6405
 4212SOL    HW212926   5.528   1.231   1.400 -0.6791 -0.7078 -2.0918
 4213SOL     OW12927   2.414   4.037   2.420  0.2662 -0.3743  0.0872
 4213SOL    HW112928   2.446   4.089   2.499 -0.5689  0.7056 -0.2456
 4213SOL    HW212929   2.403   3.941   2.444  1.5294 -0.3546  0.8239
 4214SOL     OW12930   4.776   3.265   5.901 -0.2121  0.8228 -0.2422
 4214SOL    HW112931   4.876   3.268   5.892  0.0144 -0.9176  1.1914
 4214SOL    HW212932   4.736   3.238   5.813  0.4501  2.6348 -1.1573
 4215SOL     OW12933   3.481   2.548   1.632 -0.8255 -0.6326 -0.4876
 4215SOL    HW112934   3.425   2.489   1.573 -3.0238  0.2623  0.5672
 4215SOL    HW212935   3.529   2.615   1.576  0.4946 -2.4129 -1.5681
 4216SOL     OW12936   2.609   2.519   4.968 -0.3588  0.4040  0.0165
 4216SOL    HW112937   2.685   2.454   4.968  0.3030  1.1309  1.5901
 4216SOL    HW212938   2.537   2.486   5.029 -0.0975  1.0601  0.6831
 4217SOL     OW12939   2.675   2.896   4.337 -0.0403 -0.0745  0.6083
 4217SOL    HW112940   2.623   2.844   4.269  0.6470  0.1917 -0.1314
 4217SOL    HW212941   2.625   2.980   4.360 -0.4632 -0.3579  0.7400
 4218SOL     OW12942   3.280   4.712   5.410 -0.1606  0.1362 -0.7084
 4218SOL    HW112943   3.238   4.629   5.446  0.8494 -1.2324 -2.4856
 4218SOL    HW212944   3.329   4.759   5.483  0.7530 -1.8088  0.0229
 4219SOL     OW12945   2.066   4.796   3.768 -0.3448 -0.0136  0.3112
 4219SOL    HW112946   2.082   4.884   3.813 -3.1543  0.3828  0.7104
 4219SOL    HW212947   2.020   4.810   3.681  0.1244 -1.0624 -0.1245
 4220SOL     OW12948   4.506   1.768   0.721 -0.2841  0.1376  0.2052
 4220SOL    HW112949   4.594   1.751   0.765  0.0692 -1.2785 -0.9563
 4220SOL    HW212950   4.448   1.687   0.730 -1.1223  0.7123  0.1501
 4221SOL     OW12951   5.866   5.927   1.586  0.2553  0.3211  0.4872
 4221SOL    HW112952   5.961   5.958   1.583  0.4424 -0.3307 -1.0223
 4221SOL    HW212953   5.819   5.975   1.660  1.2060  2.2298 -0.0542
 4222SOL     OW12954   2.798   4.056   2.446 -0.0815  0.4080  0.6641
 4222SOL    HW112955   2.886   4.020   2.416 -0.6631  0.5914 -1.4919
 4222SOL    HW212956   2.741   4.075   2.365 -2.2667 -0.1418  1.9767
 4223SOL     OW12957   5.441   5.417   1.189  0.1391  0.0660  0.1226
 4223SOL    HW112958   5.523   5.473   1.198  0.7090 -0.6716 -0.3577
 4223SOL    HW212959   5.391   5.417   1.276  0.2403  1.1216  0.1927
 4224SOL     OW12960   5.748   3.010   0.187 -0.3608  0.5486 -0.0498
 4224SOL    HW112961   5.763   3.108   0.202 -0.7780  0.3539  1.8077
 4224SOL    HW212962   5.679   2.998   0.115 -1.8054  1.6684  1.0924
 4225SOL     OW12963   2.131   5.779   0.179  0.2048  0.0610  0.4166
 4225SOL    HW112964   2.031   5.786   0.181  0.0055 -1.7967 -0.8948
 4225SOL    HW212965   2.162   5.784   0.084  1.3464  0.2693  0.7944
 4226SOL     OW12966   1.209   5.505   3.840  0.3199  1.0987 -0.5575
 4226SOL    HW112967   1.226   5.406   3.844  1.7595  1.3200 -0.8801
 4226SOL    HW212968   1.127   5.521   3.784 -1.1677  0.0049  1.1631
 4227SOL     OW12969   1.289   2.499   3.866  0.4370  0.5789 -0.0768
 4227SOL    HW112970   1.359   2.434   3.895 -1.2364 -0.3326  2.1967
 4227SOL    HW212971   1.254   2.548   3.945 -0.2063  2.3863 -1.4054
 4228SOL     OW12972   1.454   3.087   5.357 -0.0969 -0.5748  0.2651
 4228SOL    HW112973   1.426   3.181   5.372 -0.7730 -0.5955 -0.7989
 4228SOL    HW212974   1.377   3.026   5.376  0.4321 -0.9554  1.2802
 4229SOL     OW12975   2.902   4.569   0.967 -0.3337 -0.1406 -0.6008
 4229SOL    HW112976   2.909   4.499   0.895  3.0019 -0.4284 -0.1401
 4229SOL    HW212977   2.954   4.650   0.940 -1.1494  0.7589  0.4441
 4230SOL     OW12978   0.276   2.201   0.831 -0.1905 -0.5324  0.3151
 4230SOL    HW112979   0.198   2.184   0.892  0.2126  0.5494  1.1592
 4230SOL    HW212980   0.244   2.246   0.748 -0.7391 -1.9668 -0.2694
 4231SOL     OW12981   1.862   3.810   2.109  0.7874  0.1678  0.2960
 4231SOL    HW112982   1.945   3.780   2.156  0.0273  0.1827  1.6791
 4231SOL    HW212983   1.839   3.902   2.139 -0.0537 -0.0580  0.3551
 4232SOL     OW12984   1.514   5.376   5.706  0.0168  0.5552 -0.1468
 4232SOL    HW112985   1.578   5.449   5.681  0.6529  0.0699  0.0459
 4232SOL    HW212986   1.485   5.327   5.624 -0.4957  1.0773 -0.2911
 4233SOL     OW12987   5.767   5.655   2.583  0.2395 -0.1908  0.1449
 4233SOL    HW112988   5.712   5.598   2.522  0.1192  0.2888 -0.1973
 4233SOL    HW212989   5.740   5.638   2.678 -0.5174  0.0606 -0.0218
 4234SOL     OW12990   3.500   1.603   3.823  0.1755 -0.7007 -0.5157
 4234SOL    HW112991   3.439   1.677   3.850  0.5380  0.1664 -1.9402
 4234SOL    HW212992   3.567   1.586   3.895 -0.7990 -0.6419  0.4263
 4235SOL     OW12993   1.035  -0.035   5.625  0.1302  0.7692 -0.1014
 4235SOL    HW112994   0.994   0.008   5.705 -0.9557  2.1478 -1.3471
 4235SOL    HW212995   1.036   0.030   5.548  1.7112 -0.2986 -1.0465
 4236SOL     OW12996   5.596   1.718   3.273 -0.0648  0.1697  0.4024
 4236SOL    HW112997   5.677   1.659   3.266 -0.5527 -0.4790  0.1577
 4236SOL    HW212998   5.591   1.756   3.366 -1.5655 -2.8943  1.7333
 4237SOL     OW12999   0.973   3.928   3.659  0.0013 -0.3010 -0.2366
 4237SOL    HW113000   0.950   3.832   3.675 -2.5613  0.0944 -1.0672
 4237SOL    HW213001   1.061   3.934   3.613  0.9319 -2.1403  1.1892
 4238SOL     OW13002   1.899   0.652   4.496  0.3603 -0.4845  0.3799
 4238SOL    HW113003   1.825   0.713   4.525 -0.0315 -0.2573 -0.9834
 4238SOL    HW213004   1.875   0.557   4.516 -0.1638 -0.3845  0.2426
 4239SOL     OW13005   4.562   0.613   1.093  0.8047 -0.4222  0.1385
 4239SOL    HW113006   4.617   0.626   1.010 -0.9429 -1.8782 -1.3524
 4239SOL    HW213007   4.479   0.669   1.086  1.2235  0.4203  1.5440
 4240SOL     OW13008   5.808   0.230   1.343 -0.6751  0.2250 -0.2235
 4240SOL    HW113009   5.717   0.212   1.379 -0.1451 -2.4884  0.0091
 4240SOL    HW213010   5.823   0.174   1.262  0.4976  1.2889 -0.7707
 4241SOL     OW13011   3.171   0.361   0.766  0.0660 -0.0061  0.0088
 4241SOL    HW113012   3.211   0.313   0.844 -0.4441 -0.3820  0.0443
 4241SOL    HW213013   3.111   0.434   0.799 -2.3064 -1.8744  0.0670
 4242SOL     OW13014   3.864   0.622   0.034 -0.8138  0.3044  0.2928
 4242SOL    HW113015   3.928   0.545   0.043  0.3183  1.4288  2.5970
 4242SOL    HW213016   3.771   0.587   0.037 -0.3681 -1.2206 -1.5891
 4243SOL     OW13017   4.899   3.119   1.994  0.6078 -0.0328  0.7991
 4243SOL    HW113018   4.828   3.067   1.947 -0.5916 -0.9618  3.4529
 4243SOL    HW213019   4.941   3.063   2.066  3.6022  0.7355 -0.1962
 4244SOL     OW13020   2.045   3.168   3.421 -0.3701  0.5347  0.3799
 4244SOL    HW113021   2.071   3.173   3.518  0.1817  1.7715  0.1932
 4244SOL    HW213022   2.118   3.207   3.365 -1.2228  1.0086 -0.4292
 4245SOL     OW13023   3.920   1.197   1.429  0.0276  0.0561 -0.2269
 4245SOL    HW113024   3.885   1.201   1.335 -1.8986  1.4912  0.4882
 4245SOL    HW213025   3.959   1.285   1.454  0.1900 -0.1982  0.4346
 4246SOL     OW13026   1.321   5.164   5.041 -0.0968 -0.2053 -0.1995
 4246SOL    HW113027   1.405   5.218   5.047  0.2704 -0.7243 -0.6301
 4246SOL    HW213028   1.268   5.195   4.962 -0.2988  0.0992  0.0525
 4247SOL     OW13029   5.754   2.314   1.536 -0.2696  0.1695  0.1031
 4247SOL    HW113030   5.852   2.298   1.524 -0.0251  0.4162  1.5667
 4247SOL    HW213031   5.712   2.231   1.572 -0.5515  0.1599 -0.2455
 4248SOL     OW13032   0.423   2.772   0.295 -0.1588 -0.1001 -0.5622
 4248SOL    HW113033   0.324   2.759   0.296 -0.4079  1.6217  0.6623
 4248SOL    HW213034   0.449   2.823   0.213 -0.9789  3.6639  1.3104
 4249SOL     OW13035   1.810   5.398   2.370 -0.1071 -0.1804 -0.3026
 4249SOL    HW113036   1.794   5.303   2.345  0.6494 -0.2022 -0.7398
 4249SOL    HW213037   1.903   5.424   2.343 -0.2499  0.6298 -0.0342
 4250SOL     OW13038   2.973   1.030   0.293 -0.2933  0.4624 -0.1314
 4250SOL    HW113039   3.054   0.991   0.339  0.0495  2.2606  0.8979
 4250SOL    HW213040   2.997   1.118   0.254 -1.2655  0.0844 -1.6467
 4251SOL     OW13041   1.962   1.976   0.398  0.6280 -0.2812  0.3118
 4251SOL    HW113042   1.892   2.043   0.422  0.8449  0.4999 -1.1191
 4251SOL    HW213043   2.040   2.023   0.355  1.3076 -1.3202  0.3626
 4252SOL     OW13044   2.677   4.044   2.981  0.2548  0.8595  0.6233
 4252SOL    HW113045   2.665   4.010   2.888  1.6637  0.2028  0.6690
 4252SOL    HW213046   2.714   4.137   2.979 -2.7937  2.2272  0.5195
 4253SOL     OW13047   1.391   2.062   3.965  0.0405 -0.5803  0.3371
 4253SOL    HW113048   1.430   2.150   3.990  0.1044 -0.8366  1.1818
 4253SOL    HW213049   1.386   2.054   3.865  0.3512  0.2311  0.2527
 4254SOL     OW13050   4.762   1.646   1.659 -0.3363 -0.1247 -0.5661
 4254SOL    HW113051   4.786   1.690   1.573 -1.0346  1.9074  0.2298
 4254SOL    HW213052   4.744   1.715   1.729  0.9427 -1.7200  1.4566
 4255SOL     OW13053   4.691   5.234   5.233 -0.2824  0.4060 -0.3567
 4255SOL    HW113054   4.754   5.306   5.206  0.3923 -0.0203  0.0463
 4255SOL    HW213055   4.633   5.209   5.155 -1.2496  2.0806 -0.2253
 4256SOL     OW13056   1.660   5.334   4.853 -0.4854  0.6129 -0.0303
 4256SOL    HW113057   1.673   5.261   4.786 -1.3850  0.4514 -0.0370
 4256SOL    HW213058   1.748   5.378   4.871  0.0153 -0.2701 -0.2484
 4257SOL     OW13059   0.602   4.296   1.241 -0.3380  0.5298 -0.2690
 4257SOL    HW113060   0.566   4.360   1.173  0.9289  1.0337 -0.4746
 4257SOL    HW213061   0.689   4.328   1.276 -0.2700 -0.4664  0.5420
 4258SOL     OW13062   1.199   4.260   1.850  0.1562  0.1197  0.5729
 4258SOL    HW113063   1.278   4.265   1.788 -0.5116  1.7012 -0.2143
 4258SOL    HW213064   1.206   4.334   1.917  1.0286 -1.7354  2.6757
 4259SOL     OW13065   3.478   5.183   5.922 -0.7774 -0.1033  0.0359
 4259SOL    HW113066   3.487   5.282   5.913 -0.9372 -0.0033  0.9685
 4259SOL    HW213067   3.509   5.154   6.012  4.7172 -1.5681 -1.9001
 4260SOL     OW13068   3.669   3.136   0.247 -0.0564  0.7747 -0.0711
 4260SOL    HW113069   3.616   3.058   0.279  0.9277  0.2299  0.2723
 4260SOL    HW213070   3.617   3.220   0.259 -1.1795  0.1664 -0.5551
 4261SOL     OW13071   1.435   5.845   3.595 -0.3428  0.4766 -0.1397
 4261SOL    HW113072   1.361   5.857   3.661 -1.5277 -1.7357 -0.9457
 4261SOL    HW213073   1.410   5.773   3.530  2.3715 -0.0803 -0.6882
 4262SOL     OW13074   5.342   3.547   5.538  0.3674  0.2026 -0.1999
 4262SOL    HW113075   5.335   3.547   5.438  2.9681 -5.1245 -0.7409
 4262SOL    HW213076   5.281   3.477   5.575  0.5405  1.0763  1.8455
 4263SOL     OW13077   0.314   1.101   1.408 -0.1319 -0.2603 -0.1878
 4263SOL    HW113078   0.412   1.081   1.414 -0.3655 -1.7906 -1.1124
 4263SOL    HW213079   0.278   1.068   1.320 -1.8814 -1.5079  0.9465
 4264SOL     OW13080   1.238   3.520   4.515 -0.6196  0.3772  0.2603
 4264SOL    HW113081   1.332   3.512   4.484 -0.1682  3.5839  0.4348
 4264SOL    HW213082   1.232   3.500   4.613 -0.1153  0.2099  0.2552
 4265SOL     OW13083   2.400   3.823   4.736  0.0092  0.1112 -0.4463
 4265SOL    HW113084   2.485   3.775   4.755  1.1531  1.3193 -2.1437
 4265SOL    HW213085   2.322   3.762   4.751  1.1662 -1.0747  0.9609
 4266SOL     OW13086   3.344   0.200   4.054 -0.2096  0.2829 -0.2791
 4266SOL    HW113087   3.273   0.258   4.014 -0.3039  0.3159 -0.0667
 4266SOL    HW213088   3.391   0.250   4.127 -0.4760 -0.0009  0.0900
 4267SOL     OW13089   4.700   2.178   3.326  0.2323  0.2961  0.2424
 4267SOL    HW113090   4.773   2.136   3.380  0.8516  0.9466 -0.0752
 4267SOL    HW213091   4.657   2.108   3.268 -0.3471 -0.3789  1.4498
 4268SOL     OW13092   4.142   3.971   1.566  0.1024  0.7505  0.0315
 4268SOL    HW113093   4.061   3.928   1.526 -0.5138  1.6347  0.2875
 4268SOL    HW213094   4.145   3.953   1.664 -1.1872  2.7347  0.5139
 4269SOL     OW13095   5.215   3.272   0.861  0.2932 -0.0384  0.5361
 4269SOL    HW113096   5.132   3.318   0.892 -0.1140 -0.4793  0.0987
 4269SOL    HW213097   5.266   3.334   0.800  1.2007  0.9135  2.1769
 4270SOL     OW13098   1.553   5.962   0.404 -0.1593 -0.0578 -0.0246
 4270SOL    HW113099   1.505   6.024   0.342 -0.9360  0.2044  0.8168
 4270SOL    HW213100   1.550   5.869   0.368 -2.1225 -0.2151  0.4423
 4271SOL     OW13101   4.234   1.970   0.431 -0.7377 -0.5712  0.2584
 4271SOL    HW113102   4.172   1.892   0.435  0.0379 -1.5036 -3.0630
 4271SOL    HW213103   4.328   1.938   0.425 -0.2942  0.6804  0.2309
 4272SOL     OW13104   0.954   4.436   5.190  0.0438  0.0930 -0.4155
 4272SOL    HW113105   0.976   4.355   5.136 -0.1800  0.4426 -1.0548
 4272SOL    HW213106   1.017   4.510   5.166 -0.2303  0.3349 -0.4075
 4273SOL     OW13107   3.456   5.946   0.745 -0.0580  0.5648  0.2417
 4273SOL    HW113108   3.400   5.870   0.712 -0.2359  0.0217  1.7136
 4273SOL    HW213109   3.539   5.952   0.691 -0.7057  0.2410 -0.8164
 4274SOL     OW13110   0.942   3.469   1.646 -0.3391  0.6094 -0.4103
 4274SOL    HW113111   0.936   3.397   1.716 -1.8154 -0.6804 -1.7912
 4274SOL    HW213112   0.935   3.559   1.690  0.6964 -0.0773  1.2706
 4275SOL     OW13113   4.281   2.383   3.455 -0.0645 -1.0030  0.2940
 4275SOL    HW113114   4.260   2.336   3.540 -0.1066 -0.8131  0.3879
 4275SOL    HW213115   4.210   2.361   3.387 -1.2750  0.6096  0.9769
 4276SOL     OW13116   4.192   0.772   4.391  0.3146  0.2430 -0.5538
 4276SOL    HW113117   4.152   0.851   4.438  0.4228  1.2315 -2.0554
 4276SOL    HW213118   4.203   0.793   4.294 -3.8916 -3.1510 -2.1040
 4277SOL     OW13119   2.156   5.391   0.291  0.1710 -0.1935  0.3137
 4277SOL    HW113120   2.150   5.388   0.191  1.8421  0.8212  0.1480
 4277SOL    HW213121   2.110   5.472   0.325  3.1554  1.8515 -0.0760
 4278SOL     OW13122   1.300   3.379   3.544 -0.2279 -0.4200 -0.2439
 4278SOL    HW113123   1.206   3.349   3.557 -0.5663  0.4084 -0.6537
 4278SOL    HW213124   1.358   3.339   3.615 -0.7939 -1.3223 -0.2720
 4279SOL     OW13125   2.864   1.666   2.420  0.4639  0.1552  0.2507
 4279SOL    HW113126   2.817   1.750   2.445  0.3448 -0.1175  0.9890
 4279SOL    HW213127   2.802   1.588   2.430  0.5260 -0.0055 -0.5749
 4280SOL     OW13128   2.204   2.548   1.127 -0.3825 -0.0364  0.5950
 4280SOL    HW113129   2.302   2.537   1.139 -0.4237  1.0111  2.1761
 4280SOL    HW213130   2.182   2.550   1.030  1.0206 -1.2991  0.2293
 4281SOL     OW13131   5.007   4.231   0.554  0.3619  0.2395 -0.5500
 4281SOL    HW113132   5.015   4.208   0.457 -2.2097 -2.9582 -0.1879
 4281SOL    HW213133   5.074   4.178   0.606  0.6658  0.7444 -0.4167
 4282SOL     OW13134   0.984   3.698   1.370  0.0639  0.1304 -0.1478
 4282SOL    HW113135   0.957   3.760   1.444 -0.9208  0.7372 -0.9794
 4282SOL    HW213136   0.922   3.619   1.369  0.7746 -0.4409  0.3667
 4283SOL     OW13137   0.724   2.348   5.067  0.3336 -0.0577  0.0749
 4283SOL    HW113138   0.675   2.405   5.001  1.5639  0.8340 -0.1058
 4283SOL    HW213139   0.811   2.318   5.027  1.3636  0.9501  1.4555
 4284SOL     OW13140   4.636   4.066   2.382  0.3239  0.4851  0.4995
 4284SOL    HW113141   4.597   3.992   2.327 -0.2657  0.7012  0.6192
 4284SOL    HW213142   4.732   4.047   2.401  0.0073 -0.5768  1.0892
 4285SOL     OW13143   5.267   0.483   2.552 -0.0334 -0.7944 -0.7754
 4285SOL    HW113144   5.261   0.578   2.582  0.7929 -0.8830 -0.3223
 4285SOL    HW213145   5.359   0.465   2.518  0.7222 -2.1871  1.7741
 4286SOL     OW13146   3.554   1.482   1.686  0.5112 -0.0788  0.3577
 4286SOL    HW113147   3.634   1.528   1.648 -0.6832  0.1143 -2.1681
 4286SOL    HW213148   3.474   1.542   1.677 -0.1435 -0.7002  1.7852
 4287SOL     OW13149   1.806   4.667   4.780  0.3476 -0.2225  0.0345
 4287SOL    HW113150   1.769   4.595   4.721  1.3916  0.0601 -1.0248
 4287SOL    HW213151   1.757   4.752   4.763  0.9819 -0.0160 -0.8490
 4288SOL     OW13152   1.221   3.694   3.874 -0.2309  0.3304  0.5663
 4288SOL    HW113153   1.161   3.767   3.906  0.0756  0.8495 -0.0291
 4288SOL    HW213154   1.220   3.692   3.774 -0.3856 -0.6077  0.5710
 4289SOL     OW13155   2.059   3.252   5.437  0.1571 -0.2987  0.2370
 4289SOL    HW113156   2.134   3.314   5.414  0.1400 -0.8299 -1.3668
 4289SOL    HW213157   2.019   3.279   5.525 -0.4730  2.5402 -0.8324
 4290SOL     OW13158   2.976   4.680   5.492  0.7258 -0.2763  0.2260
 4290SOL    HW113159   2.983   4.776   5.462 -1.4461 -0.3789 -0.8126
 4290SOL    HW213160   2.950   4.623   5.414  0.0065 -1.3859  1.2365
 4291SOL     OW13161   1.645   1.263   1.767  0.6381 -0.0406 -0.8395
 4291SOL    HW113162   1.672   1.357   1.783 -0.6896  0.0195  1.4083
 4291SOL    HW213163   1.721   1.202   1.789  1.1594  0.4356 -1.2925
 4292SOL     OW13164   0.447   1.848   4.857  0.0997  0.3291  0.0269
 4292SOL    HW113165   0.391   1.899   4.922 -0.7564 -0.1470 -0.3208
 4292SOL    HW213166   0.390   1.782   4.809  0.6965  0.7767 -1.3262
 4293SOL     OW13167   1.980   2.118   3.256 -0.1556 -0.0809  0.0957
 4293SOL    HW113168   1.888   2.080   3.256 -0.0012 -0.4663 -0.3263
 4293SOL    HW213169   1.978   2.209   3.213 -0.2795 -0.2327 -0.2194
 4294SOL     OW13170   2.836   4.550   3.957 -0.1666  0.0580  0.1581
 4294SOL    HW113171   2.769   4.476   3.965 -0.1101  0.1449  1.6425
 4294SOL    HW213172   2.856   4.587   4.048 -2.1260  3.6522 -0.6772
 4295SOL     OW13173   4.805   5.359   2.592 -0.2343  0.6808 -0.2285
 4295SOL    HW113174   4.815   5.396   2.499 -1.2957 -1.6336 -1.3573
 4295SOL    HW213175   4.885   5.303   2.614 -0.7849 -0.2791 -0.5586
 4296SOL     OW13176   0.584   5.754   1.986 -0.0499 -0.4020  0.2157
 4296SOL    HW113177   0.560   5.827   2.049  0.7808  0.4828 -0.4589
 4296SOL    HW213178   0.672   5.714   2.012 -0.7254 -1.5086  0.8626
 4297SOL     OW13179   4.538   4.894   2.410 -0.3106  0.0737 -0.5630
 4297SOL    HW113180   4.609   4.953   2.372  0.2573 -0.9725 -1.1871
 4297SOL    HW213181   4.501   4.836   2.338 -0.6647 -0.5138  0.0757
 4298SOL     OW13182   0.051   2.068   2.094 -1.0016 -0.3556 -0.0896
 4298SOL    HW113183   0.150   2.062   2.096 -0.9369  0.5572 -0.0124
 4298SOL    HW213184   0.023   2.148   2.040 -1.7575 -1.7426 -1.8281
 4299SOL     OW13185   2.288   1.175   0.802 -0.1099  0.2981 -0.2586
 4299SOL    HW113186   2.214   1.134   0.749 -1.2052  0.6743  0.9320
 4299SOL    HW213187   2.350   1.103   0.832 -0.4500 -0.1292 -0.5546
 4300SOL     OW13188   0.074   5.523   1.426 -0.7564  0.3412  0.0723
 4300SOL    HW113189   0.133   5.542   1.505 -1.0388 -0.8484  0.5973
 4300SOL    HW213190   0.017   5.603   1.407  1.3616  1.7347 -0.7977
 4301SOL     OW13191   2.437   1.155   5.893  0.7291  0.0964  0.2213
 4301SOL    HW113192   2.376   1.109   5.958  2.2747 -1.0684  0.8960
 4301SOL    HW213193   2.525   1.174   5.937  2.2467 -1.7680 -1.7799
 4302SOL     OW13194   0.421   4.357   2.657 -0.4293 -0.1779  0.4215
 4302SOL    HW113195   0.453   4.325   2.745  0.4107  2.4467  1.1555
 4302SOL    HW213196   0.498   4.363   2.593 -0.2858  1.4662  0.6978
 4303SOL     OW13197   3.478   2.109   0.138  0.5693 -0.4570 -0.2726
 4303SOL    HW113198   3.484   2.123   0.237 -0.0959  1.3597 -0.4579
 4303SOL    HW213199   3.563   2.139   0.095 -0.7286  3.1595 -0.6334
 4304SOL     OW13200   1.252   1.813   0.653 -0.3555 -0.5245 -0.0341
 4304SOL    HW113201   1.264   1.910   0.675 -2.2135 -0.1596 -0.4864
 4304SOL    HW213202   1.220   1.804   0.558 -1.8468 -1.4385  0.5203
 4305SOL     OW13203   3.009   4.650   3.761  0.1090 -0.6394 -0.2716
 4305SOL    HW113204   3.075   4.704   3.813 -0.1902 -0.3706 -0.1650
 4305SOL    HW213205   2.931   4.628   3.819 -0.3897 -0.0366 -0.6947
 4306SOL     OW13206   1.574   3.329   2.908 -0.0213  0.0968  0.4565
 4306SOL    HW113207   1.487   3.281   2.914 -1.0916  1.6675 -1.4448
 4306SOL    HW213208   1.641   3.272   2.861 -0.7907 -0.1413 -0.3496
 4307SOL     OW13209   1.121   5.317   0.164  0.6317 -0.6378  0.1409
 4307SOL    HW113210   1.035   5.294   0.209  0.3230 -0.9383 -0.5839
 4307SOL    HW213211   1.195   5.313   0.230 -0.0866  0.9573  1.0752
 4308SOL     OW13212   2.594   5.771   4.986  0.5079 -0.5858  0.8857
 4308SOL    HW113213   2.603   5.870   4.985  1.8162 -0.6492 -1.9603
 4308SOL    HW213214   2.498   5.746   4.999 -0.2742  1.1562 -1.1246
 4309SOL     OW13215   3.928   5.277   2.593 -0.1347 -0.0850  0.1604
 4309SOL    HW113216   3.835   5.299   2.622 -0.4246 -0.2033 -0.6439
 4309SOL    HW213217   3.953   5.186   2.627 -0.1155  0.1637  0.8165
 4310SOL     OW13218   3.307   4.817   0.716 -0.4731  0.3163 -0.2373
 4310SOL    HW113219   3.379   4.875   0.754 -0.0973 -0.2915 -0.0030
 4310SOL    HW213220   3.283   4.848   0.624  1.8607 -0.9793 -1.3553
 4311SOL     OW13221   0.736   3.208   2.695  0.1803 -0.1960 -0.7437
 4311SOL    HW113222   0.691   3.230   2.781  1.2470  0.8245 -0.4288
 4311SOL    HW213223   0.756   3.292   2.645  1.8886 -0.5935 -0.7913
 4312SOL     OW13224   1.246   4.900   5.941 -0.2059 -0.2183  0.3523
 4312SOL    HW113225   1.314   4.857   5.882  0.4986  0.6524  0.5037
 4312SOL    HW213226   1.182   4.831   5.974  0.8824 -1.1571  0.5787
 4313SOL     OW13227   2.671   2.111   5.774 -0.5336 -0.2356  0.1089
 4313SOL    HW113228   2.725   2.082   5.853 -0.5500 -2.3076 -0.5952
 4313SOL    HW213229   2.688   2.208   5.756  1.4127 -0.3538  1.0921
 4314SOL     OW13230   1.778   0.575   0.326  0.2267 -0.4237  0.3743
 4314SOL    HW113231   1.812   0.665   0.351 -0.0832 -0.8418  2.4718
 4314SOL    HW213232   1.804   0.555   0.232  0.4390  1.7652 -0.0914
 4315SOL     OW13233   5.231   2.111   2.909  0.7202 -0.7034 -0.7162
 4315SOL    HW113234   5.212   2.195   2.960 -3.5973 -1.5361 -0.5544
 4315SOL    HW213235   5.259   2.039   2.972  0.5205 -0.3960 -0.2732
 4316SOL     OW13236   3.500   0.550   3.928  0.2727 -0.1283 -0.1643
 4316SOL    HW113237   3.485   0.647   3.906 -0.2477 -0.3736 -0.9385
 4316SOL    HW213238   3.470   0.532   4.021 -1.3399  0.0871 -0.6071
 4317SOL     OW13239   2.397   3.682   0.266 -0.4230  0.1531 -0.3890
 4317SOL    HW113240   2.437   3.767   0.231  0.9075 -0.4063 -0.3064
 4317SOL    HW213241   2.309   3.701   0.308 -0.2801  1.4423 -0.6327
 4318SOL     OW13242   5.563   1.115   0.666 -0.4380 -0.2308 -0.0827
 4318SOL    HW113243   5.595   1.041   0.607 -0.1842  1.3762 -2.0776
 4318SOL    HW213244   5.636   1.142   0.729  0.4635  0.1502 -1.2584
 4319SOL     OW13245   0.641   5.173   3.816  0.5605 -0.7007 -0.5587
 4319SOL    HW113246   0.687   5.173   3.905  1.2426  1.0014 -0.8760
 4319SOL    HW213247   0.685   5.239   3.756 -0.4314 -1.2158 -1.8923
 4320SOL     OW13248   4.412   5.303   2.576  0.0860  0.3922  0.2191
 4320SOL    HW113249   4.427   5.361   2.495  0.5707 -0.3677 -0.2497
 4320SOL    HW213250   4.324   5.325   2.617 -0.0560  0.9652 -0.3731
 4321SOL     OW13251   3.958   5.595   5.429  0.4007  0.0327  0.0473
 4321SOL    HW113252   4.028   5.575   5.498  0.6536 -0.2820 -0.2998
 4321SOL    HW213253   3.905   5.512   5.412 -0.0687  0.2714  0.3159
 4322SOL     OW13254   2.559   2.335   2.206 -0.4103 -0.0218  0.3562
 4322SOL    HW113255   2.545   2.242   2.242 -2.1869 -0.0139 -0.2158
 4322SOL    HW213256   2.522   2.341   2.114  0.7230  0.9817 -0.0637
 4323SOL     OW13257   0.303   4.843   4.334 -0.3899  0.0356  0.1410
 4323SOL    HW113258   0.394   4.802   4.322 -0.4018  0.5009 -1.9931
 4323SOL    HW213259   0.313   4.941   4.352 -0.4581  0.1965 -0.6592
 4324SOL     OW13260   5.374   0.760   4.968  0.4715 -0.2673 -0.7675
 4324SOL    HW113261   5.350   0.830   5.036  1.3041 -0.4718 -0.2478
 4324SOL    HW213262   5.300   0.693   4.963 -0.4073  0.7145 -1.3852
 4325SOL     OW13263   2.708   2.752   2.010  0.3907 -0.1111 -0.2647
 4325SOL    HW113264   2.762   2.751   1.925  1.5250 -0.2998  0.4315
 4325SOL    HW213265   2.747   2.686   2.075 -0.4176  0.0825  0.4365
 4326SOL     OW13266   5.410   3.573   3.167  0.1550  0.1391 -0.4070
 4326SOL    HW113267   5.339   3.502   3.169 -1.2678  1.4714 -1.5552
 4326SOL    HW213268   5.499   3.530   3.148 -0.5706 -1.3881 -0.5296
 4327SOL     OW13269   1.657   0.381   1.877 -0.1535 -0.2825 -0.1455
 4327SOL    HW113270   1.594   0.338   1.812 -0.7324  1.6212 -0.9146
 4327SOL    HW213271   1.751   0.355   1.855 -0.3500  0.2634 -1.7245
 4328SOL     OW13272   4.351   2.957   1.270  0.6962  0.1769  0.0732
 4328SOL    HW113273   4.447   2.963   1.299  0.9254 -0.2934 -0.5608
 4328SOL    HW213274   4.344   2.975   1.172  0.1696 -0.0641  0.0616
 4329SOL     OW13275   3.446   3.269   0.994  0.4626  0.3375  0.7791
 4329SOL    HW113276   3.400   3.255   1.081 -0.2091  0.1597  0.4016
 4329SOL    HW213277   3.538   3.305   1.010  0.1085  0.9267  1.5383
 4330SOL     OW13278   4.407   2.967   5.254 -0.0323 -0.3198 -0.1441
 4330SOL    HW113279   4.475   3.037   5.274 -0.0576  0.0924 -1.3843
 4330SOL    HW213280   4.332   2.972   5.321  0.4377  0.1873  0.3504
 4331SOL     OW13281   2.799   1.188   5.487  0.1421  0.2520  0.5126
 4331SOL    HW113282   2.700   1.183   5.497 -0.0219  0.8082 -0.6518
 4331SOL    HW213283   2.830   1.111   5.432  0.0255  1.3746 -1.1936
 4332SOL     OW13284   0.209   1.620   3.477 -0.0727  0.6718 -0.7293
 4332SOL    HW113285   0.223   1.624   3.378 -0.9311  0.5988 -0.8620
 4332SOL    HW213286   0.140   1.551   3.498  1.3715 -0.5879  0.0709
 4333SOL     OW13287   5.778   3.969   5.787 -0.1369 -0.8762 -0.3356
 4333SOL    HW113288   5.739   3.913   5.713 -1.1324  1.1348 -1.4187
 4333SOL    HW213289   5.875   3.984   5.770 -0.3177 -0.5877 -1.1679
 4334SOL     OW13290   5.784   0.192   2.783 -0.1497 -0.6818 -0.0864
 4334SOL    HW113291   5.850   0.204   2.708  0.7619 -1.4155  0.5717
 4334SOL    HW213292   5.693   0.216   2.751  0.3113 -0.4188 -1.2636
 4335SOL     OW13293   1.732   5.007   0.153  0.2200  0.0360 -0.1667
 4335SOL    HW113294   1.726   4.963   0.242 -0.7129 -0.6849 -0.5713
 4335SOL    HW213295   1.744   5.105   0.165  0.3969 -0.0917  0.7474
 4336SOL     OW13296   2.247   3.420   5.140  0.5942  0.3609  0.2435
 4336SOL    HW113297   2.329   3.413   5.084  1.9770 -1.0622  2.3114
 4336SOL    HW213298   2.181   3.350   5.112  1.4796 -0.6690  0.6830
 4337SOL     OW13299   2.354   2.243   2.851  0.0023  0.2083 -0.1257
 4337SOL    HW113300   2.345   2.341   2.865  0.6416  0.0110  1.9641
 4337SOL    HW213301   2.439   2.211   2.893  0.5022 -1.0562 -1.9506
 4338SOL     OW13302   0.581   1.159   0.207 -0.1622  0.2619 -0.6694
 4338SOL    HW113303   0.581   1.094   0.131  0.8121  0.4849 -0.8683
 4338SOL    HW213304   0.516   1.232   0.189  0.5478  0.6776 -1.6152
 4339SOL     OW13305   4.115   5.075   0.229 -0.3809  0.0959 -0.7340
 4339SOL    HW113306   4.169   4.991   0.241 -0.5200  0.0666 -0.2549
 4339SOL    HW213307   4.018   5.051   0.224 -0.4468  0.2496 -0.2623
 4340SOL     OW13308   4.759   3.075   4.011 -0.4375  0.0168  0.0028
 4340SOL    HW113309   4.666   3.095   4.039 -1.2109 -1.4765 -1.3627
 4340SOL    HW213310   4.811   3.038   4.089 -0.8242  1.2260  0.8674
 4341SOL     OW13311   4.042   2.261   4.684  0.2104  0.6647  0.3486
 4341SOL    HW113312   3.970   2.228   4.623 -1.2626  0.9203  1.8982
 4341SOL    HW213313   4.002   2.294   4.769  2.0891  1.6790  0.9047
 4342SOL     OW13314   1.364   3.477   5.614 -0.3584  0.6748  0.0421
 4342SOL    HW113315   1.381   3.443   5.521 -0.4721 -2.3864  1.0373
 4342SOL    HW213316   1.451   3.495   5.659 -0.0654 -1.6766  0.5643
 4343SOL     OW13317   2.151   3.564   2.597 -1.0477  0.4016  0.4139
 4343SOL    HW113318   2.159   3.557   2.696 -2.5608  0.0411  0.5361
 4343SOL    HW213319   2.207   3.640   2.564 -0.9521  0.8655  1.6096
 4344SOL     OW13320   1.373   4.259   1.575 -0.0793  0.4969 -0.4034
 4344SOL    HW113321   1.408   4.293   1.662  0.0836  1.2286 -0.7527
 4344SOL    HW213322   1.439   4.196   1.534 -0.9007 -1.2652  0.8267
 4345SOL     OW13323   0.295   5.657   5.758  0.2808  0.1255 -0.5844
 4345SOL    HW113324   0.389   5.666   5.790 -0.2889  2.3439  0.6083
 4345SOL    HW213325   0.287   5.694   5.666  0.9146 -1.8892 -1.5236
 4346SOL     OW13326   3.018   0.017   0.721 -0.4610 -0.3989  0.1294
 4346SOL    HW113327   3.011   0.088   0.651 -0.9422 -0.5524  0.0169
 4346SOL    HW213328   3.059  -0.065   0.680 -3.1245 -1.4087 -0.7154
 4347SOL     OW13329   0.320   5.689   3.619  0.3447 -0.9598  0.0003
 4347SOL    HW113330   0.223   5.715   3.621  1.0618  2.1234 -0.3624
 4347SOL    HW213331   0.344   5.644   3.705 -1.2158 -1.0616  0.4265
 4348SOL     OW13332   3.719   4.204   1.009  0.5295  0.6331 -0.0240
 4348SOL    HW113333   3.770   4.125   1.044  1.2045  1.1581  0.2088
 4348SOL    HW213334   3.783   4.280   0.994 -0.0516  1.0172 -0.5978
 4349SOL     OW13335  -0.010   3.600   1.417 -0.5117 -0.2822  0.2935
 4349SOL    HW113336   0.072   3.584   1.472  0.1518 -0.6713 -0.7858
 4349SOL    HW213337   0.004   3.678   1.356 -1.1329 -0.0401  0.4448
 4350SOL     OW13338   3.343   0.003   1.915 -0.5221  0.6356  0.2058
 4350SOL    HW113339   3.442   0.004   1.902 -0.5926  0.7133 -0.3736
 4350SOL    HW213340   3.307   0.096   1.908 -0.9357  0.3835 -2.2702
 4351SOL     OW13341   4.803   5.429   2.333  0.7340  0.5893  0.7806
 4351SOL    HW113342   4.820   5.363   2.260 -0.4978  1.5778 -0.4443
 4351SOL    HW213343   4.845   5.517   2.308  0.6123  0.8357  1.4332
 4352SOL     OW13344   2.695   4.278   1.275 -0.0850 -0.0814 -0.1516
 4352SOL    HW113345   2.646   4.210   1.329 -0.1108  1.0925  1.4005
 4352SOL    HW213346   2.632   4.350   1.247  0.6667  1.6134  2.1437
 4353SOL     OW13347   2.335   3.895   2.048  0.1160 -0.0655  0.1649
 4353SOL    HW113348   2.261   3.860   2.106  1.0336 -0.1776  1.3166
 4353SOL    HW213349   2.361   3.826   1.981 -1.0802  0.1263 -0.5140
 4354SOL     OW13350   0.570   0.743   2.374  0.2049 -0.5112  0.5152
 4354SOL    HW113351   0.500   0.786   2.317  1.1973  0.6247  0.1270
 4354SOL    HW213352   0.647   0.715   2.317  0.5183 -0.8189  1.0809
 4355SOL     OW13353   0.654   5.597   0.837  0.3279 -0.0127  0.4354
 4355SOL    HW113354   0.593   5.590   0.758 -0.2338 -0.6592  0.9156
 4355SOL    HW213355   0.710   5.515   0.843  2.0491  1.0165 -0.6195
 4356SOL     OW13356   1.566   3.247   2.540  0.4265  0.0175  0.0862
 4356SOL    HW113357   1.636   3.241   2.469  1.2292 -0.5451  0.9004
 4356SOL    HW213358   1.610   3.249   2.630 -0.6144 -1.1308  0.6503
 4357SOL     OW13359   3.792   3.979   4.837  0.5165  0.2987 -0.8134
 4357SOL    HW113360   3.706   3.965   4.885  0.3235 -0.8390 -1.4598
 4357SOL    HW213361   3.867   3.941   4.892  0.3981 -0.2315 -1.0118
 4358SOL     OW13362   0.890   2.510   0.697 -0.3869 -0.5620 -0.4641
 4358SOL    HW113363   0.915   2.516   0.600  1.3317 -1.0087 -0.0825
 4358SOL    HW213364   0.863   2.416   0.718 -1.1941 -0.3641 -0.5981
 4359SOL     OW13365   4.125   2.160   5.511  0.0154  0.1869  1.1568
 4359SOL    HW113366   4.169   2.082   5.556 -1.2819 -2.0133 -1.1104
 4359SOL    HW213367   4.194   2.222   5.475  1.1507 -1.1110  1.0367
 4360SOL     OW13368   3.901   4.042   3.893  0.6918  0.0725 -0.0005
 4360SOL    HW113369   3.835   4.015   3.823  1.6375 -0.1980 -0.8138
 4360SOL    HW213370   3.953   4.121   3.860  0.7329  0.3193  0.6547
 4361SOL     OW13371   4.252   1.613   1.245 -0.5401  0.2175  0.2957
 4361SOL    HW113372   4.258   1.606   1.345  1.9347  2.3998  0.4032
 4361SOL    HW213373   4.173   1.668   1.220 -0.8780  0.1049  1.0735
 4362SOL     OW13374   5.131   2.687   5.456  0.4215 -0.1539 -0.2654
 4362SOL    HW113375   5.070   2.637   5.517  0.0443  1.8100  1.0777
 4362SOL    HW213376   5.225   2.660   5.473  0.1884 -0.7803  0.0562
 4363SOL     OW13377   3.816   5.170   1.347 -0.4969 -0.0338  0.3673
 4363SOL    HW113378   3.854   5.162   1.439  0.6034  0.4209 -0.0296
 4363SOL    HW213379   3.764   5.255   1.339  1.1370  0.9743 -0.0016
 4364SOL     OW13380   3.317   1.683   1.929 -0.0916 -0.2539 -0.3187
 4364SOL    HW113381   3.228   1.714   1.960 -0.3296 -1.8725  0.7754
 4364SOL    HW213382   3.380   1.760   1.924 -0.9818  0.5979  0.9723
 4365SOL     OW13383   0.070   5.804   3.641  0.1955 -0.2080  0.0991
 4365SOL    HW113384   0.041   5.784   3.547 -0.5835 -2.4085  0.7594
 4365SOL    HW213385   0.009   5.760   3.706  0.5723  1.4871  1.6957
 4366SOL     OW13386   4.982   4.592   0.031 -0.0033 -0.4454  0.1325
 4366SOL    HW113387   4.947   4.509  -0.012 -0.3175  0.1637 -0.8250
 4366SOL    HW213388   5.063   4.624  -0.019  0.6824 -0.6727  1.0588
 4367SOL     OW13389   2.427   2.214   0.670  0.0118 -0.0641  0.0122
 4367SOL    HW113390   2.430   2.168   0.582  0.2734 -0.8621  0.4330
 4367SOL    HW213391   2.466   2.155   0.741  0.5639  0.8826  0.5289
 4368SOL     OW13392   5.169   1.128   0.254  0.4554  0.0263  0.1038
 4368SOL    HW113393   5.079   1.117   0.211  1.2668 -1.3625 -1.3120
 4368SOL    HW213394   5.158   1.130   0.354 -0.9146 -3.3289  0.1418
 4369SOL     OW13395   1.985   3.725   2.415 -0.8146  0.3431  0.2438
 4369SOL    HW113396   2.003   3.726   2.513 -2.1812  2.2415  0.5467
 4369SOL    HW213397   1.886   3.714   2.400 -0.7672  1.2178 -0.8422
 4370SOL     OW13398   0.028   1.820   2.945  0.9748  0.5215 -0.0193
 4370SOL    HW113399   0.122   1.851   2.953  0.9636  0.9179 -1.2198
 4370SOL    HW213400   0.015   1.772   2.858 -0.5284  2.7703 -1.1344
 4371SOL     OW13401   4.252   1.913   1.456 -0.5616  0.5633  0.3659
 4371SOL    HW113402   4.303   1.928   1.372  1.4064 -0.1848  1.3671
 4371SOL    HW213403   4.267   1.820   1.489  1.5832  1.7850  3.3154
 4372SOL     OW13404   3.564   0.572   5.065 -0.3706  0.2953 -0.0643
 4372SOL    HW113405   3.597   0.509   5.135  0.8692 -1.0820 -1.7949
 4372SOL    HW213406   3.578   0.666   5.097  3.1375 -0.2084  0.3700
 4373SOL     OW13407   3.373   2.939   2.330  0.5620  0.8647 -0.0115
 4373SOL    HW113408   3.450   2.966   2.273 -0.4959  2.1149 -0.8970
 4373SOL    HW213409   3.326   3.021   2.363 -1.9474  0.1913 -1.6645
 4374SOL     OW13410   4.033   1.248   1.855 -0.5201 -0.0654  0.2772
 4374SOL    HW113411   3.968   1.199   1.797  0.4741  0.3535 -1.2468
 4374SOL    HW213412   4.008   1.235   1.951 -3.6289  1.1423 -0.2433
 4375SOL     OW13413   0.212   0.717   5.484  0.0425 -0.3882 -0.3363
 4375SOL    HW113414   0.311   0.725   5.492 -0.0572 -1.1007  2.6535
 4375SOL    HW213415   0.187   0.701   5.388  2.9343 -1.9174 -0.9295
 4376SOL     OW13416   3.707   3.005   1.844  0.2258 -0.1732  0.3858
 4376SOL    HW113417   3.786   3.063   1.824 -0.6249  0.5422 -1.0822
 4376SOL    HW213418   3.730   2.941   1.918  2.5398 -0.7721 -0.7786
 4377SOL     OW13419   3.347   2.027   5.512  0.2042 -0.1490 -0.0311
 4377SOL    HW113420   3.260   1.978   5.508  0.9298 -1.6150  1.3404
 4377SOL    HW213421   3.329   2.124   5.528 -1.1790 -0.4281  0.2818
 4378SOL     OW13422   3.699   0.924   0.782 -0.2472 -0.0648  0.0546
 4378SOL    HW113423   3.657   0.877   0.860 -2.2171  1.4452 -0.0314
 4378SOL    HW213424   3.699   0.864   0.702 -1.0618 -0.5407  0.4073
 4379SOL     OW13425   3.952   4.801   0.331 -0.0813  0.2065  0.1942
 4379SOL    HW113426   3.884   4.774   0.399 -0.7933 -2.0467 -1.3060
 4379SOL    HW213427   3.914   4.870   0.270 -1.3264 -1.4811 -1.0143
 4380SOL     OW13428   2.758   5.758   2.701  0.1408 -0.5069 -0.1800
 4380SOL    HW113429   2.837   5.702   2.724 -0.9983 -1.9326  0.4706
 4380SOL    HW213430   2.759   5.780   2.604  0.9176 -1.1687 -0.3304
 4381SOL     OW13431   2.213   3.556   2.860  0.2276 -0.8414  0.4972
 4381SOL    HW113432   2.169   3.591   2.943  0.2265 -2.7357  1.3373
 4381SOL    HW213433   2.306   3.594   2.853 -0.2052  0.2886  0.6775
 4382SOL     OW13434   3.080   1.601   0.166  0.2799  0.2376  0.5644
 4382SOL    HW113435   3.161   1.629   0.219  1.3165 -1.3189 -0.1444
 4382SOL    HW213436   3.072   1.659   0.085  0.5740  0.5088  0.7237
 4383SOL     OW13437   0.981   3.075   0.909  0.2224 -0.5269  0.6497
 4383SOL    HW113438   0.883   3.057   0.916 -0.0727  0.5647 -0.3719
 4383SOL    HW213439   1.008   3.075   0.813  0.6211  1.9680  0.6793
 4384SOL     OW13440   0.004   1.878   4.826 -0.1025 -0.2686  0.5902
 4384SOL    HW113441   0.030   1.864   4.731 -0.0801 -3.6622  0.9779
 4384SOL    HW213442   0.081   1.917   4.876  1.1923 -1.7688 -0.1222
 4385SOL     OW13443   2.225   0.062   1.973  0.5365 -0.2851 -0.5487
 4385SOL    HW113444   2.210   0.066   2.072 -0.4672 -0.3396 -0.6831
 4385SOL    HW213445   2.174  -0.015   1.935  0.2424  0.2221 -1.2103
 4386SOL     OW13446   2.447   0.930   5.463 -0.3461  0.0227  0.0029
 4386SOL    HW113447   2.496   0.844   5.447 -1.1992 -0.7500  1.3596
 4386SOL    HW213448   2.454   0.955   5.560 -1.0290  0.9112 -0.1631
 4387SOL     OW13449   4.105   2.832   0.995 -0.1216  0.6917  0.2076
 4387SOL    HW113450   4.061   2.813   0.907 -0.2444 -0.9520  0.5877
 4387SOL    HW213451   4.035   2.853   1.063 -0.1405  0.4645  0.2585
 4388SOL     OW13452   1.469   4.299   1.832  0.0502 -0.1006 -0.0224
 4388SOL    HW113453   1.547   4.236   1.839 -2.2506 -3.1525  0.1417
 4388SOL    HW213454   1.423   4.305   1.921  0.3703  2.1722  0.0522
 4389SOL     OW13455   4.531   3.759   4.447  0.6315 -0.4132 -0.3529
 4389SOL    HW113456   4.435   3.786   4.444  0.2419 -1.7179 -0.4201
 4389SOL    HW213457   4.581   3.803   4.373 -0.3892 -1.4010 -1.6692
 4390SOL     OW13458   3.289   5.783   4.879 -0.0559 -0.0552  0.0990
 4390SOL    HW113459   3.387   5.765   4.868 -0.1354 -0.3200 -0.1797
 4390SOL    HW213460   3.276   5.867   4.932  0.3453  1.1748 -1.6564
 4391SOL     OW13461   1.917   4.424   2.968 -0.0270  0.1652  1.0113
 4391SOL    HW113462   1.847   4.367   2.927 -0.0855  1.0333 -0.1475
 4391SOL    HW213463   1.879   4.471   3.048 -0.4099 -0.2598  1.0832
 4392SOL     OW13464   2.609   3.992   5.707  0.5734  0.1405 -0.5595
 4392SOL    HW113465   2.632   4.078   5.660  0.7456  1.5547  1.9647
 4392SOL    HW213466   2.692   3.949   5.742  0.2389  0.6090  0.8774
 4393SOL     OW13467   2.191   2.122   5.000  0.5538  0.1952  0.3258
 4393SOL    HW113468   2.129   2.094   5.073  0.5741 -1.8308 -0.3757
 4393SOL    HW213469   2.273   2.163   5.040 -0.4855  1.3683  1.3167
 4394SOL     OW13470   4.252   3.432   4.488 -0.2417 -0.2325  0.6225
 4394SOL    HW113471   4.266   3.340   4.452 -0.5124 -0.3650  0.8539
 4394SOL    HW213472   4.340   3.477   4.502 -0.0611 -0.8930  1.6596
 4395SOL     OW13473   3.527   5.311   4.487  0.5562  0.0463  0.2306
 4395SOL    HW113474   3.505   5.331   4.583  3.2921  0.0901  0.9299
 4395SOL    HW213475   3.478   5.228   4.459 -0.3780  0.0871  1.6302
 4396SOL     OW13476   4.666   4.175   1.906 -0.2902  0.0694  0.3164
 4396SOL    HW113477   4.749   4.161   1.852  0.0467  3.3004 -0.1939
 4396SOL    HW213478   4.691   4.198   2.000 -0.4094  2.6913 -0.2163
 4397SOL     OW13479   1.979   0.210   2.383 -0.1221  0.0117  0.3051
 4397SOL    HW113480   2.024   0.299   2.378 -1.6148  0.8101  0.6321
 4397SOL    HW213481   1.888   0.215   2.343 -0.5807 -1.1325  1.1247
 4398SOL     OW13482   1.068   3.334   4.395  0.1003  0.2718  0.1554
 4398SOL    HW113483   1.067   3.339   4.295 -0.1086  1.6580  0.2114
 4398SOL    HW213484   1.110   3.417   4.432  1.0328 -0.6313  1.2071
 4399SOL     OW13485   0.442   2.371   2.742  0.2510 -0.1960  0.2733
 4399SOL    HW113486   0.402   2.382   2.833  0.5439  2.3762  0.1472
 4399SOL    HW213487   0.520   2.433   2.731 -0.4868  0.4375 -2.1173
 4400SOL     OW13488   3.914   0.600   0.844  0.5478 -0.1572 -0.0339
 4400SOL    HW113489   3.898   0.698   0.837  2.6928  0.1103 -3.0062
 4400SOL    HW213490   3.856   0.552   0.779 -1.1484 -1.0690  2.0166
 4401SOL     OW13491   5.145   2.428   0.540  0.1022  0.2281  0.0135
 4401SOL    HW113492   5.191   2.400   0.623  1.5870  0.3855 -0.7290
 4401SOL    HW213493   5.046   2.413   0.550  0.3767 -0.8973  1.3320
 4402SOL     OW13494   1.198   5.655   5.711 -0.1845 -0.5236  0.3219
 4402SOL    HW113495   1.128   5.611   5.767  0.9886 -1.8812  0.8143
 4402SOL    HW213496   1.288   5.638   5.752  0.6657 -1.0553 -1.6218
 4403SOL     OW13497   0.749   5.376   3.641 -0.4055  0.4733  0.1845
 4403SOL    HW113498   0.782   5.468   3.620 -1.8346  0.7769 -0.9228
 4403SOL    HW213499   0.764   5.316   3.563  2.3706 -0.8552  1.5942
 4404SOL     OW13500   2.080   3.700   3.852  0.7926 -0.1864 -0.7255
 4404SOL    HW113501   2.085   3.709   3.951  1.6224  0.0438 -0.7811
 4404SOL    HW213502   2.036   3.614   3.828  0.1200 -0.0067 -0.1629
 4405SOL     OW13503   0.237   5.080   5.217 -0.8755  0.0579 -0.3193
 4405SOL    HW113504   0.142   5.110   5.216 -0.7770  0.3945  0.1951
 4405SOL    HW213505   0.290   5.137   5.280  0.1072  1.2076 -2.1059
 4406SOL     OW13506   1.287   1.974   4.374 -0.1918 -0.3420  0.2186
 4406SOL    HW113507   1.255   1.943   4.285 -1.1025  2.8761 -0.7072
 4406SOL    HW213508   1.382   2.003   4.368 -0.5519  0.8265  0.0042
 4407SOL     OW13509   4.564   2.822   4.881  0.3872  0.2266 -0.1188
 4407SOL    HW113510   4.636   2.866   4.935 -0.1352 -1.4365  2.0872
 4407SOL    HW213511   4.551   2.728   4.913 -1.7432 -0.0113 -1.4784
 4408SOL     OW13512   3.823   0.993   5.132 -0.5444 -0.2878 -0.0385
 4408SOL    HW113513   3.820   0.937   5.049  0.1072  0.2115 -0.4055
 4408SOL    HW213514   3.785   0.941   5.209  1.3205 -1.7948 -0.0502
 4409SOL     OW13515   5.912   3.354   2.666  0.4798 -0.1420 -0.5453
 4409SOL    HW113516   5.852   3.391   2.595  0.2175 -0.7180 -0.6306
 4409SOL    HW213517   5.923   3.255   2.652  0.5517 -0.2326  0.1223
 4410SOL     OW13518   4.248   2.141   2.169  0.4699  0.2747 -0.5074
 4410SOL    HW113519   4.193   2.061   2.192 -0.2651 -0.4235 -4.0261
 4410SOL    HW213520   4.272   2.190   2.252 -1.7000 -1.8468  1.5447
 4411SOL     OW13521   2.670   4.672   1.490 -0.6849 -0.1527  0.2640
 4411SOL    HW113522   2.619   4.617   1.424  0.2525 -0.3783 -0.2895
 4411SOL    HW213523   2.750   4.620   1.522  1.0460  1.3446 -1.3359
 4412SOL     OW13524   5.295   4.394   0.059 -0.0830 -0.2473 -0.3773
 4412SOL    HW113525   5.374   4.406  -0.000 -0.7723  2.2249 -0.9234
 4412SOL    HW213526   5.325   4.392   0.155  0.7299 -0.7374 -0.6324
 4413SOL     OW13527   0.802   3.189   0.254 -0.1234 -0.0022 -0.3114
 4413SOL    HW113528   0.847   3.108   0.215  0.9200  0.4652 -0.1300
 4413SOL    HW213529   0.844   3.272   0.216  0.1536  0.4617  0.9547
 4414SOL     OW13530   3.067   0.934   5.888  0.5660  0.4498  0.0779
 4414SOL    HW113531   3.061   0.965   5.793  0.4591 -0.1464 -0.1141
 4414SOL    HW213532   2.996   0.978   5.942 -0.0173  0.0360 -0.3368
 4415SOL     OW13533   3.366   5.354   3.988  0.4702 -0.2491 -0.6062
 4415SOL    HW113534   3.440   5.289   3.998 -0.9224 -1.8489 -0.2500
 4415SOL    HW213535   3.298   5.318   3.924 -1.4911 -0.2923  1.3823
 4416SOL     OW13536   3.059   5.131   5.650  0.1739  0.0081  0.2713
 4416SOL    HW113537   3.017   5.073   5.580  2.3564 -0.1328 -1.0166
 4416SOL    HW213538   3.147   5.092   5.676  0.8852  1.8108  0.7086
 4417SOL     OW13539   2.381   3.597   3.212  0.2144 -0.5456 -0.0461
 4417SOL    HW113540   2.294   3.630   3.175  0.9226  1.5662  0.0436
 4417SOL    HW213541   2.448   3.587   3.138  0.9311  1.3677  0.3001
 4418SOL     OW13542   2.336   2.906   3.324 -0.0171  0.4590  0.3670
 4418SOL    HW113543   2.432   2.932   3.334 -0.0009 -0.0117  1.6111
 4418SOL    HW213544   2.314   2.900   3.226  1.2454  0.4608  0.0547
 4419SOL     OW13545   1.080   0.799   0.696 -0.2311  0.4021 -0.2537
 4419SOL    HW113546   1.152   0.769   0.758  0.1137  3.0326  0.7386
 4419SOL    HW213547   1.016   0.858   0.745 -0.8263  1.3289 -2.0620
 4420SOL     OW13548   1.005   4.802   3.757 -0.5816  0.8444 -0.2342
 4420SOL    HW113549   0.963   4.799   3.848  0.2396  0.0962  0.1324
 4420SOL    HW213550   0.933   4.804   3.688 -1.2431 -0.6319  0.3688
 4421SOL     OW13551   4.555   1.366   2.331 -0.2602 -0.4562 -0.2786
 4421SOL    HW113552   4.567   1.360   2.232  0.8533  0.7607 -0.2485
 4421SOL    HW213553   4.533   1.276   2.368  0.9969 -1.2641 -1.4158
 4422SOL     OW13554   5.355   4.234   4.106 -0.3340  0.0590  0.5560
 4422SOL    HW113555   5.366   4.140   4.076 -0.8783  0.1927 -0.0734
 4422SOL    HW213556   5.260   4.249   4.136 -0.0985  0.2454  1.2359
 4423SOL     OW13557   5.563   1.327   3.772  0.4785  0.4232  0.6323
 4423SOL    HW113558   5.518   1.400   3.823  0.3368  0.1454  0.9119
 4423SOL    HW213559   5.572   1.353   3.676 -1.2822  0.0344  0.3329
 4424SOL     OW13560   4.464   5.186   5.927  0.4264 -0.8099 -0.4492
 4424SOL    HW113561   4.489   5.124   6.001  0.8008  0.4979  0.5526
 4424SOL    HW213562   4.542   5.197   5.865  1.4755  1.0055  1.0786
 4425SOL     OW13563   5.504   1.519   0.065 -0.1112  0.1881  0.4457
 4425SOL    HW113564   5.425   1.470   0.028 -1.0204  0.3415  2.1187
 4425SOL    HW213565   5.474   1.587   0.131  1.4327 -0.1718  1.5860
 4426SOL     OW13566   0.517   5.240   2.150 -0.3314 -0.2150  0.0021
 4426SOL    HW113567   0.494   5.315   2.211 -0.5013 -0.9172  0.8285
 4426SOL    HW213568   0.599   5.194   2.184  0.3734  0.2235 -1.0719
 4427SOL     OW13569   1.544   5.604   4.458 -0.0799 -0.1551 -0.0886
 4427SOL    HW113570   1.642   5.595   4.439 -0.2238 -1.2084 -0.3869
 4427SOL    HW213571   1.532   5.636   4.552  0.5555 -1.3225  0.4215
 4428SOL     OW13572   3.555   3.961   4.981  0.1516  0.2333 -0.3469
 4428SOL    HW113573   3.473   3.957   4.924  0.3754  0.2680 -0.6757
 4428SOL    HW213574   3.579   4.057   4.998  0.7801  0.2477 -1.2195
 4429SOL     OW13575   4.370   5.598   4.463  0.4006 -0.1537  0.1574
 4429SOL    HW113576   4.442   5.592   4.395 -1.1739 -1.8963 -1.4749
 4429SOL    HW213577   4.288   5.640   4.423  0.0980  0.7563  1.6243
 4430SOL     OW13578   4.466   0.126   3.293  0.1939  0.0307  0.3657
 4430SOL    HW113579   4.539   0.147   3.359  0.1050  0.7040  0.2586
 4430SOL    HW213580   4.468   0.029   3.272  0.0375 -0.2582  1.5904
 4431SOL     OW13581   4.224   2.727   4.957  0.4008 -0.6379  1.0814
 4431SOL    HW113582   4.273   2.670   4.891  1.7633  1.1049  0.5012
 4431SOL    HW213583   4.127   2.705   4.955  0.5287 -1.1869 -0.9280
 4432SOL     OW13584   0.600   1.712   3.945 -0.0100 -0.2373  0.4876
 4432SOL    HW113585   0.594   1.721   3.846 -0.4463  1.0490  0.6174
 4432SOL    HW213586   0.512   1.682   3.982 -0.6565  1.7457  0.6983
 4433SOL     OW13587   4.376   0.504   0.173  0.9923  0.4229 -0.1926
 4433SOL    HW113588   4.331   0.502   0.084 -0.0794  0.4667  0.3291
 4433SOL    HW213589   4.340   0.430   0.230  0.3868  1.4495  0.7939
 4434SOL     OW13590   3.041   2.389   5.228  0.4502  0.0431  0.4883
 4434SOL    HW113591   3.066   2.381   5.325  0.6877  1.8823  0.6044
 4434SOL    HW213592   3.112   2.440   5.179 -0.6706  0.9702 -0.2082
 4435SOL     OW13593   5.319   1.325   4.869 -0.1247 -0.0738  0.6021
 4435SOL    HW113594   5.221   1.341   4.880 -0.3273 -1.5262  1.0655
 4435SOL    HW213595   5.334   1.241   4.817  0.8867  0.2040  0.4048
 4436SOL     OW13596   5.354   4.792   0.890  0.2570  0.0225  0.0838
 4436SOL    HW113597   5.345   4.873   0.832 -0.2956 -0.8531 -1.1007
 4436SOL    HW213598   5.321   4.712   0.840  0.5258 -0.8936  1.3348
 4437SOL     OW13599   2.183   2.803   1.678  0.8073 -0.0045 -0.5282
 4437SOL    HW113600   2.274   2.834   1.650  0.0956  1.2745 -1.5351
 4437SOL    HW213601   2.120   2.881   1.676 -0.3855 -0.9399 -0.1588
 4438SOL     OW13602   4.382   1.016   5.640  0.2111 -0.6404 -0.4469
 4438SOL    HW113603   4.288   1.021   5.608  0.0070  0.4926  0.2677
 4438SOL    HW213604   4.410   0.920   5.649 -0.6620 -0.9767 -1.2347
 4439SOL     OW13605   3.656   2.185   1.630 -0.0778  0.1839 -0.2149
 4439SOL    HW113606   3.630   2.215   1.539 -0.9477  1.5204  0.4445
 4439SOL    HW213607   3.642   2.259   1.695  1.8877 -0.2602  0.8011
 4440SOL     OW13608   1.263   4.623   2.917 -0.3173 -0.1387  0.2431
 4440SOL    HW113609   1.299   4.578   2.999  2.1311  0.4573 -0.4381
 4440SOL    HW213610   1.177   4.579   2.890  0.5486 -2.5872  1.1807
 4441SOL     OW13611   2.034   3.879   3.329 -0.1502 -0.4706 -0.1970
 4441SOL    HW113612   2.115   3.850   3.379 -1.2585 -1.1813  1.2529
 4441SOL    HW213613   1.976   3.800   3.310 -0.4384  0.0022 -1.3496
 4442SOL     OW13614   4.387   3.652   5.411 -0.0496 -0.7262 -0.3595
 4442SOL    HW113615   4.328   3.577   5.442 -0.6844 -0.3478 -0.6403
 4442SOL    HW213616   4.331   3.722   5.367  0.0935  1.2505  2.3213
 4443SOL     OW13617   0.263   2.394   2.971  0.7126 -0.1407 -0.2302
 4443SOL    HW113618   0.295   2.468   3.029 -0.5099  0.0238  0.2712
 4443SOL    HW213619   0.267   2.307   3.021 -1.5302  0.1739  0.6392
 4444SOL     OW13620   3.067   0.569   5.641  0.0689  0.5638  0.3193
 4444SOL    HW113621   3.165   0.586   5.637  0.0611  0.8776  1.2760
 4444SOL    HW213622   3.034   0.584   5.734 -1.0022  1.0989 -0.1316
 4445SOL     OW13623   0.816   2.541   4.200  0.7326  0.7171  0.4616
 4445SOL    HW113624   0.904   2.507   4.168  0.7873  0.9629  0.3467
 4445SOL    HW213625   0.746   2.525   4.131  0.6130  0.2055  0.6959
 4446SOL     OW13626   2.123   0.721   1.168  0.6209 -0.1036 -0.3147
 4446SOL    HW113627   2.144   0.627   1.196  0.6840 -0.1551 -0.5327
 4446SOL    HW213628   2.093   0.774   1.248  0.6542 -0.2896 -0.1786
 4447SOL     OW13629   5.865   0.789   2.165  0.5628  0.5338  0.3745
 4447SOL    HW113630   5.781   0.834   2.133  0.1063  0.2168  1.1109
 4447SOL    HW213631   5.939   0.808   2.100 -0.9178 -2.3305 -2.4198
 4448SOL     OW13632   5.595   3.458   4.739  0.3502 -0.3477  0.2109
 4448SOL    HW113633   5.553   3.490   4.654 -2.6587  0.2420  1.7598
 4448SOL    HW213634   5.621   3.362   4.730  0.5218 -0.1714 -1.4781
 4449SOL     OW13635   2.845   2.901   2.974 -0.3442 -0.0352  0.1433
 4449SOL    HW113636   2.868   2.890   3.070 -0.5210 -1.4937  0.0365
 4449SOL    HW213637   2.918   2.863   2.917  0.1105  1.4701 -0.3418
 4450SOL     OW13638   3.163   4.118   5.430 -0.0712 -1.0707  0.6829
 4450SOL    HW113639   3.226   4.191   5.460 -0.2560  0.2683 -1.9457
 4450SOL    HW213640   3.078   4.124   5.482  0.9738 -1.3059  2.5178
 4451SOL     OW13641   1.320   2.077   0.660 -0.4568 -0.0914 -0.2063
 4451SOL    HW113642   1.419   2.063   0.668 -0.4061  0.7441  0.8613
 4451SOL    HW213643   1.291   2.145   0.728 -1.6010  0.4221 -1.1871
 4452SOL     OW13644   5.468   4.507   1.131  0.9598  1.2426  0.3040
 4452SOL    HW113645   5.432   4.415   1.115  1.3557  1.4372 -1.9197
 4452SOL    HW213646   5.546   4.501   1.193  0.4892  0.1916  0.8339
 4453SOL     OW13647   1.963   5.939   1.878 -0.4470  0.7034 -0.3394
 4453SOL    HW113648   1.997   5.911   1.788 -0.5407  0.3888 -0.2760
 4453SOL    HW213649   1.895   6.011   1.867 -1.0169  0.1373 -0.5687
 4454SOL     OW13650   3.633   1.933   1.654 -0.4284  0.3207 -0.1504
 4454SOL    HW113651   3.671   2.026   1.654 -1.0305  0.5677 -0.4140
 4454SOL    HW213652   3.602   1.910   1.562 -2.0948  0.6152  0.3067
 4455SOL     OW13653   0.659   4.985   1.061 -0.2869 -0.7725  0.1704
 4455SOL    HW113654   0.700   4.993   0.970  2.8901 -2.1132  1.3354
 4455SOL    HW213655   0.664   5.074   1.108  0.1842 -0.6355 -0.1370
 4456SOL     OW13656   3.673   0.224   1.396  0.3036 -0.5152 -0.2731
 4456SOL    HW113657   3.724   0.201   1.313  0.0790 -2.4166  0.0656
 4456SOL    HW213658   3.735   0.264   1.464  0.6774  0.1735 -1.0047
 4457SOL     OW13659   1.216   2.136   5.681  0.0648 -0.3058  0.5515
 4457SOL    HW113660   1.280   2.136   5.758 -0.2006 -0.3323  0.7724
 4457SOL    HW213661   1.258   2.090   5.603  0.5458  0.1993  0.5059
 4458SOL     OW13662   4.762   4.738   1.584 -0.5569  0.6611  0.0295
 4458SOL    HW113663   4.817   4.668   1.539 -3.1095 -1.2416 -0.3332
 4458SOL    HW213664   4.698   4.695   1.647 -1.7025  2.7422  0.3736
 4459SOL     OW13665   4.168   0.725   0.096 -0.2476 -0.1503 -0.5628
 4459SOL    HW113666   4.123   0.780   0.026 -1.0980 -0.0659  0.0410
 4459SOL    HW213667   4.161   0.628   0.072 -0.7492 -0.1367 -0.4708
 4460SOL     OW13668   2.549   5.712   1.371  0.0291 -0.2536 -0.0599
 4460SOL    HW113669   2.574   5.733   1.466 -2.3273 -0.6023  0.6928
 4460SOL    HW213670   2.512   5.794   1.327 -0.3662 -0.4878 -0.1639
 4461SOL     OW13671   1.314   2.586   1.762  0.2303 -0.1459  0.4039
 4461SOL    HW113672   1.413   2.588   1.777  0.3635 -1.5429 -0.1343
 4461SOL    HW213673   1.295   2.589   1.664 -0.2423 -0.3114  0.4875
 4462SOL     OW13674   5.935   2.972   4.665  0.4892 -0.1715 -0.5335
 4462SOL    HW113675   5.889   3.046   4.616  0.9325  1.4987  1.4264
 4462SOL    HW213676   6.029   2.998   4.685  0.1641 -0.4882  1.6785
 4463SOL     OW13677   5.109   3.210   1.821 -0.4470 -0.0993  0.9609
 4463SOL    HW113678   5.028   3.188   1.877  1.3714 -0.4509  3.6611
 4463SOL    HW213679   5.102   3.305   1.789 -1.0664  0.5446  2.8563
 4464SOL     OW13680   2.146   4.124   4.651  0.0339  0.4557 -0.4214
 4464SOL    HW113681   2.135   4.147   4.748 -0.6895 -0.2029 -0.3305
 4464SOL    HW213682   2.059   4.140   4.604  0.2724  0.4027 -0.8785
 4465SOL     OW13683   3.298   4.718   1.879  0.2664 -0.7385  0.3342
 4465SOL    HW113684   3.357   4.768   1.816  0.5674 -1.6968 -0.1761
 4465SOL    HW213685   3.353   4.650   1.928 -0.2898 -1.1921  0.3339
 4466SOL     OW13686   2.937   0.387   4.893 -0.8326 -0.3312 -0.5025
 4466SOL    HW113687   2.959   0.422   4.984  0.8824 -1.1615 -0.5550
 4466SOL    HW213688   2.853   0.430   4.860 -0.7372  1.0084  0.8916
 4467SOL     OW13689   0.550   3.018   5.164 -0.2783  0.1941  0.6512
 4467SOL    HW113690   0.645   3.047   5.177  0.4098 -0.6779 -1.7999
 4467SOL    HW213691   0.537   2.991   5.068 -2.6821 -0.9100  1.2272
 4468SOL     OW13692   5.322   0.122   5.798 -0.3336  0.2483 -0.4028
 4468SOL    HW113693   5.230   0.083   5.806  0.4736 -1.6021  0.7525
 4468SOL    HW213694   5.350   0.124   5.702 -0.8051 -1.2021 -0.5993
 4469SOL     OW13695   2.342   4.878   2.954 -0.4750  0.1513 -1.0311
 4469SOL    HW113696   2.281   4.800   2.952  0.9588 -1.1543  1.3516
 4469SOL    HW213697   2.435   4.847   2.974  0.2207  2.4247 -0.4290
 4470SOL     OW13698   3.134   0.733   3.775  0.0409  0.0362  0.2587
 4470SOL    HW113699   3.110   0.825   3.742 -1.2622  0.2535  1.6803
 4470SOL    HW213700   3.075   0.710   3.853  0.1511 -2.1410 -0.2539
 4471SOL     OW13701   3.636   3.864   2.529 -0.1094 -0.3686  0.0624
 4471SOL    HW113702   3.715   3.922   2.546 -1.1057  1.2046 -0.4480
 4471SOL    HW213703   3.584   3.853   2.614 -0.6171  0.5902 -0.1131
 4472SOL     OW13704   1.504   4.781   3.689 -0.1200 -0.0022  0.1861
 4472SOL    HW113705   1.413   4.742   3.683  0.5540 -1.5648 -0.4675
 4472SOL    HW213706   1.544   4.760   3.778 -0.1604  0.1514  0.2414
 4473SOL     OW13707   3.344   2.154   1.102 -0.3921 -0.4599 -0.0177
 4473SOL    HW113708   3.286   2.185   1.027  0.1786 -1.7215 -1.0009
 4473SOL    HW213709   3.440   2.172   1.081 -0.2211 -0.8819  0.3720
 4474SOL     OW13710   1.176   5.878   0.441 -0.0504 -0.1685 -0.0796
 4474SOL    HW113711   1.093   5.847   0.488  0.0037  4.1558  3.4983
 4474SOL    HW213712   1.255   5.865   0.501  0.8752  1.0866 -0.9730
 4475SOL     OW13713   4.604   0.957   3.450 -0.1959  0.1444 -0.3329
 4475SOL    HW113714   4.651   0.869   3.445 -2.5582 -1.4333  2.3505
 4475SOL    HW213715   4.595   0.995   3.358 -0.2174 -3.0348 -1.7880
 4476SOL     OW13716   2.731   0.927   2.613 -0.1331 -0.2997  0.1264
 4476SOL    HW113717   2.752   1.022   2.591  0.7490 -0.1848  1.3630
 4476SOL    HW213718   2.816   0.877   2.630 -0.6440 -1.0133  0.6234
 4477SOL     OW13719   5.125   4.685   1.375 -0.1614  0.5721 -0.1875
 4477SOL    HW113720   5.040   4.732   1.352 -0.6912 -0.5977 -0.6682
 4477SOL    HW213721   5.174   4.662   1.291 -0.3161 -0.4560 -0.0096
 4478SOL     OW13722   3.946   0.015   5.043 -0.2151  0.3104 -0.3818
 4478SOL    HW113723   4.019  -0.050   5.062 -1.3057 -1.4652 -1.9444
 4478SOL    HW213724   3.986   0.105   5.024  1.5443 -0.5129 -0.8234
 4479SOL     OW13725   2.075   4.820   1.644  0.2638 -0.4737 -0.4412
 4479SOL    HW113726   2.063   4.920   1.640  1.5068 -0.3119 -3.5641
 4479SOL    HW213727   1.995   4.776   1.603 -0.2261 -0.8003  0.8210
 4480SOL     OW13728   1.401   3.236   4.202  0.4634 -0.1365 -0.1807
 4480SOL    HW113729   1.365   3.176   4.274  1.8638  0.5300  1.1132
 4480SOL    HW213730   1.340   3.231   4.122  0.4495 -3.2159 -0.1255
 4481SOL     OW13731   4.920   0.210   3.311  0.3641 -0.0187 -0.2051
 4481SOL    HW113732   4.980   0.131   3.322  0.3479 -0.1857 -1.2121
 4481SOL    HW213733   4.976   0.293   3.303  0.4455 -0.1025 -0.5406
 4482SOL     OW13734   0.612   3.576   2.763 -0.1647  0.5266 -0.1061
 4482SOL    HW113735   0.710   3.558   2.774 -0.4015 -0.2922  0.9111
 4482SOL    HW213736   0.562   3.536   2.840 -1.3442  0.6143 -0.7934
 4483SOL     OW13737   1.897   0.827   3.873  0.6366  0.1031 -0.4827
 4483SOL    HW113738   1.893   0.757   3.944  0.6105 -0.3890 -0.9641
 4483SOL    HW213739   1.905   0.917   3.916  0.1617 -0.1456  0.1544
 4484SOL     OW13740   5.867   4.035   4.054  0.2284  0.0507 -0.6663
 4484SOL    HW113741   5.892   4.036   4.151 -0.4091 -0.3744 -0.4873
 4484SOL    HW213742   5.855   4.129   4.022  0.1434  0.1873 -0.2443
 4485SOL     OW13743   5.494   2.646   0.872  0.4131 -0.1353 -0.5201
 4485SOL    HW113744   5.516   2.721   0.935  1.7741 -0.2569 -0.8184
 4485SOL    HW213745   5.434   2.680   0.799  1.9066  0.9655 -1.2761
 4486SOL     OW13746   5.133   0.215   4.494 -0.1711  0.5504 -0.5901
 4486SOL    HW113747   5.089   0.240   4.581  0.9728  0.8500 -0.0729
 4486SOL    HW213748   5.091   0.267   4.420  0.8166  2.6161  0.2083
 4487SOL     OW13749   4.513   0.621   0.607 -0.0009  0.2280 -0.3463
 4487SOL    HW113750   4.422   0.659   0.588 -0.1318  1.2263  1.9994
 4487SOL    HW213751   4.504   0.522   0.622 -0.8188  0.4114  0.4703
 4488SOL     OW13752   4.637   2.386   1.035 -0.2358 -0.4718  0.1815
 4488SOL    HW113753   4.689   2.306   1.004  2.1665  0.5802  1.1720
 4488SOL    HW213754   4.542   2.361   1.048 -0.0393 -2.5694 -1.6814
 4489SOL     OW13755   5.640   4.102   0.182  0.1854 -0.0081 -0.0318
 4489SOL    HW113756   5.547   4.067   0.194  0.1678 -0.8275 -2.0780
 4489SOL    HW213757   5.704   4.026   0.172  0.9594  0.5503  0.5487
 4490SOL     OW13758   3.834   0.357   1.563  0.5696 -0.9548  0.3069
 4490SOL    HW113759   3.925   0.393   1.545 -1.0449  2.3222 -2.6134
 4490SOL    HW213760   3.791   0.411   1.636 -0.9750  1.7546 -2.3909
 4491SOL     OW13761   3.715   1.678   0.600 -0.5685  0.4397  0.0426
 4491SOL    HW113762   3.725   1.774   0.574 -0.3130  0.8770  1.6110
 4491SOL    HW213763   3.712   1.672   0.700  0.0786 -1.2572 -0.0179
 4492SOL     OW13764   5.647   3.549   0.195 -0.7917 -0.0777 -0.8586
 4492SOL    HW113765   5.742   3.568   0.223 -0.8426 -1.0460  0.0360
 4492SOL    HW213766   5.588   3.548   0.276 -1.4371 -0.2613 -1.3241
 4493SOL     OW13767   5.649   0.993   1.772 -0.2791  0.4122  0.3525
 4493SOL    HW113768   5.589   1.073   1.779 -0.7459 -0.0165  1.4316
 4493SOL    HW213769   5.607   0.926   1.710 -0.1509  0.7720 -0.1262
 4494SOL     OW13770   4.153   5.832   4.324 -0.0047 -0.2005  0.7786
 4494SOL    HW113771   4.109   5.921   4.341 -1.9687 -0.9866  0.1346
 4494SOL    HW213772   4.247   5.847   4.294 -0.2062  1.6490  0.9140
 4495SOL     OW13773   5.611   4.758   2.071  0.1652  0.2219 -0.0928
 4495SOL    HW113774   5.563   4.846   2.069 -1.5338 -0.6228  1.1402
 4495SOL    HW213775   5.706   4.772   2.097 -0.9242  1.4212  3.9051
 4496SOL     OW13776   0.680   1.492   5.298  0.2198  0.0473 -0.5462
 4496SOL    HW113777   0.744   1.495   5.221 -0.7245 -1.3957 -1.4145
 4496SOL    HW213778   0.591   1.525   5.269 -0.1093 -0.3702 -0.0232
 4497SOL     OW13779   5.850   3.426   2.932  0.2762  0.4496 -0.0506
 4497SOL    HW113780   5.874   3.332   2.956  0.5827  0.8749  1.4341
 4497SOL    HW213781   5.856   3.439   2.833 -0.3095 -1.2298 -0.3274
 4498SOL     OW13782   2.813   5.820   3.253 -0.0822 -0.4165 -0.2978
 4498SOL    HW113783   2.822   5.818   3.153 -0.3993  0.8945 -0.3747
 4498SOL    HW213784   2.788   5.730   3.286  1.0270 -1.1263 -1.2979
 4499SOL     OW13785   2.872   1.188   2.664  0.0515  0.3014 -0.0670
 4499SOL    HW113786   2.849   1.268   2.720 -0.5046  0.5704 -0.6728
 4499SOL    HW213787   2.910   1.117   2.723 -2.7583 -0.3549  1.1183
 4500SOL     OW13788   4.099   5.184   1.256 -0.1299  0.3593  0.0709
 4500SOL    HW113789   4.017   5.193   1.313 -0.4481 -0.8539 -0.1529
 4500SOL    HW213790   4.121   5.087   1.245  0.2332  0.5838 -1.4317
 4501SOL     OW13791   0.496   1.611   2.564 -0.4278 -0.0709  0.0627
 4501SOL    HW113792   0.443   1.557   2.629 -0.0726 -0.5481 -0.0357
 4501SOL    HW213793   0.540   1.550   2.498  0.6387  0.2742  0.4338
 4502SOL     OW13794   0.632   0.777   1.226  0.6329 -0.2108 -0.0540
 4502SOL    HW113795   0.696   0.743   1.157  1.3531 -0.0247  0.5088
 4502SOL    HW213796   0.648   0.730   1.313 -0.4974 -0.6933 -0.0940
 4503SOL     OW13797   4.964   1.921   5.513 -0.0164 -0.5121 -0.3402
 4503SOL    HW113798   4.965   1.823   5.493 -0.6492 -0.5363 -0.2800
 4503SOL    HW213799   5.038   1.943   5.577 -0.3660 -1.0855  0.2731
 4504SOL     OW13800   0.427   0.240   5.035  0.0510  0.5912  0.1397
 4504SOL    HW113801   0.441   0.227   5.133  1.0392  0.5718  0.0143
 4504SOL    HW213802   0.463   0.329   5.008  1.0173  0.0622 -0.4096
 4505SOL     OW13803   2.728   5.622   1.768  0.0327  0.1634  0.0264
 4505SOL    HW113804   2.707   5.555   1.696  0.1106  0.4071 -0.2246
 4505SOL    HW213805   2.824   5.649   1.761 -0.1977  0.9038 -0.3768
 4506SOL     OW13806   2.615   2.590   2.882  0.3313  0.2817  0.3042
 4506SOL    HW113807   2.534   2.533   2.870  1.8048 -1.5520 -1.7912
 4506SOL    HW213808   2.666   2.560   2.962 -0.2582  0.4467  0.7471
 4507SOL     OW13809   0.044   2.540   1.339 -0.7453 -0.2388  0.0094
 4507SOL    HW113810   0.105   2.613   1.305 -0.9189 -0.3568 -0.5706
 4507SOL    HW213811  -0.006   2.574   1.418 -1.0216  0.3750 -0.4146
 4508SOL     OW13812   4.639   4.792   5.935 -0.0036  0.5566 -0.4018
 4508SOL    HW113813   4.610   4.696   5.938  1.3216  0.1587  0.3398
 4508SOL    HW213814   4.683   4.811   5.847 -0.8245  0.6699 -0.7990
 4509SOL     OW13815   0.917   2.522   3.313  0.2895  0.3299 -0.0748
 4509SOL    HW113816   0.918   2.541   3.411  2.2269  0.5250 -0.1024
 4509SOL    HW213817   0.985   2.451   3.292  0.8905  1.2708 -1.4432
 4510SOL     OW13818   2.973   3.756   5.455 -0.3117 -0.8429  0.4056
 4510SOL    HW113819   2.976   3.843   5.405 -1.3462 -1.0192  0.0053
 4510SOL    HW213820   2.893   3.704   5.426 -0.4716 -1.3288  1.6453
 4511SOL     OW13821   0.255   4.728   0.096  0.2282  0.1960  0.3032
 4511SOL    HW113822   0.189   4.653   0.087 -0.2830  0.7630 -1.1083
 4511SOL    HW213823   0.304   4.740   0.009  1.1920  0.6870  0.9022
 4512SOL     OW13824   3.046   0.482   3.656  0.2189  0.1040 -0.0742
 4512SOL    HW113825   3.084   0.570   3.684  0.3975 -0.3915  1.2691
 4512SOL    HW213826   3.117   0.412   3.660  0.0987 -0.1079 -1.2265
 4513SOL     OW13827   3.316   3.606   0.361  0.4589  0.6180 -0.3443
 4513SOL    HW113828   3.349   3.676   0.298  1.4551  1.3034  0.8775
 4513SOL    HW213829   3.382   3.596   0.436 -0.4387 -0.5181  0.3188
 4514SOL     OW13830   5.239   4.714   3.437 -0.2612 -0.1544 -0.5310
 4514SOL    HW113831   5.267   4.789   3.498  0.7582  1.0164 -2.3272
 4514SOL    HW213832   5.158   4.742   3.386 -0.5507 -0.7423 -0.3910
 4515SOL     OW13833   3.356   1.368   4.819  0.1874 -0.5361 -0.4856
 4515SOL    HW113834   3.418   1.296   4.787  2.1557  0.5924  0.6146
 4515SOL    HW213835   3.375   1.388   4.915  0.6805  2.3643 -1.0975
 4516SOL     OW13836   0.106   3.307   1.917  0.0238 -0.0486  0.1467
 4516SOL    HW113837   0.182   3.347   1.969 -1.0264  0.9242  1.0028
 4516SOL    HW213838   0.110   3.340   1.822  0.4040  0.3737  0.3028
 4517SOL     OW13839   5.507   3.076   2.266  0.6064 -0.3620 -0.0214
 4517SOL    HW113840   5.601   3.059   2.237  0.5530 -0.2105 -0.2819
 4517SOL    HW213841   5.478   3.003   2.328  0.5085 -1.0202 -0.8299
 4518SOL     OW13842   0.412   2.720   2.168 -0.5628  0.0029  0.1720
 4518SOL    HW113843   0.454   2.632   2.147 -0.8147  0.0659 -0.6279
 4518SOL    HW213844   0.484   2.790   2.176 -0.2937 -0.4082  1.6037
 4519SOL     OW13845   0.993   0.818   0.072  0.0347 -0.2423  0.6028
 4519SOL    HW113846   1.064   0.868   0.120  1.3043  0.8323 -2.1697
 4519SOL    HW213847   0.989   0.849  -0.023 -3.6334 -0.8445  0.4187
 4520SOL     OW13848   2.788   2.672   0.783 -0.4818  0.2569  0.3341
 4520SOL    HW113849   2.694   2.679   0.817 -0.3008  0.9545  0.7211
 4520SOL    HW213850   2.805   2.580   0.749 -0.2630 -0.9813  3.4319
 4521SOL     OW13851   3.138   2.421   3.380  0.2229  0.0810 -0.0729
 4521SOL    HW113852   3.140   2.356   3.456  1.8124 -0.7812 -0.7978
 4521SOL    HW213853   3.231   2.433   3.344 -0.3424  1.2575 -1.2135
 4522SOL     OW13854   2.154   0.049   2.767  0.3450 -0.4431  0.1203
 4522SOL    HW113855   2.075   0.033   2.826 -1.3503  1.3326 -1.5115
 4522SOL    HW213856   2.234   0.069   2.822 -0.8144 -0.2981  1.8076
 4523SOL     OW13857   5.937   5.020   2.040 -0.7175  0.3997  0.2081
 4523SOL    HW113858   5.938   5.050   1.945 -4.1577  0.4265  0.0625
 4523SOL    HW213859   5.948   4.921   2.044 -0.0010  0.4589 -0.1432
 4524SOL     OW13860   5.567   1.973   3.140  0.1055  0.1416 -0.1318
 4524SOL    HW113861   5.571   1.882   3.182  0.1469  0.2623  0.1212
 4524SOL    HW213862   5.561   2.043   3.211 -0.9617  0.2817 -0.3451
 4525SOL     OW13863   1.100   2.866   1.025  0.6995 -0.1478 -0.0969
 4525SOL    HW113864   1.083   2.786   0.967 -0.6950 -1.5874  2.0998
 4525SOL    HW213865   1.051   2.945   0.989  2.4804 -0.0794 -2.5857
 4526SOL     OW13866   3.184   0.523   4.243 -0.0940 -0.1230 -0.0970
 4526SOL    HW113867   3.157   0.591   4.311  0.3657 -0.4621  0.4299
 4526SOL    HW213868   3.105   0.467   4.219 -0.6118  0.9058 -0.9220
 4527SOL     OW13869   3.938   2.619   1.947  0.0596  0.8424 -0.1256
 4527SOL    HW113870   3.962   2.574   2.033  0.5967  0.3069 -0.5528
 4527SOL    HW213871   3.897   2.553   1.884 -1.0528  1.3952 -0.0145
 4528SOL     OW13872   1.398   5.793   2.689  0.3950 -0.2245  0.3817
 4528SOL    HW113873   1.421   5.711   2.637  0.6218  0.0566  0.0325
 4528SOL    HW213874   1.400   5.772   2.787 -1.8274 -1.2220  0.2605
 4529SOL     OW13875   5.388   0.123   3.336  0.3818  0.5789 -0.4779
 4529SOL    HW113876   5.297   0.088   3.356 -0.4654  2.2417 -1.2410
 4529SOL    HW213877   5.423   0.081   3.252  1.0333 -1.2354  0.6385
 4530SOL     OW13878   4.189   1.291   1.151  0.2682  0.1938  0.6077
 4530SOL    HW113879   4.152   1.276   1.060 -2.1902  0.1252  1.5499
 4530SOL    HW213880   4.120   1.336   1.208  0.8368 -1.8400  3.0991
 4531SOL     OW13881   0.288   0.539   4.865  0.2606  0.0425  0.5607
 4531SOL    HW113882   0.357   0.518   4.933  0.6706 -0.3653  0.0283
 4531SOL    HW213883   0.197   0.524   4.904  0.4707  0.4237  1.2092
 4532SOL     OW13884   3.571   0.535   0.860 -0.7676  0.2090  0.0553
 4532SOL    HW113885   3.595   0.442   0.888  2.6435  1.3557  1.5179
 4532SOL    HW213886   3.624   0.560   0.779  0.8746  1.8194  1.5235
 4533SOL     OW13887   5.726   1.374   2.219 -0.1740  0.3660  0.2099
 4533SOL    HW113888   5.741   1.462   2.173  0.1658 -0.5018 -1.3963
 4533SOL    HW213889   5.724   1.389   2.318  0.3876  2.1073  0.0024
 4534SOL     OW13890   0.942   2.961   4.227  0.2438 -0.3922  0.3977
 4534SOL    HW113891   0.872   2.890   4.229  1.6949 -2.0342 -1.9180
 4534SOL    HW213892   1.023   2.929   4.276  0.6870 -0.0735 -0.1201
 4535SOL     OW13893   4.818   5.290   5.877 -0.2419 -0.3893  0.1695
 4535SOL    HW113894   4.784   5.324   5.789  1.7138  3.5645  0.6841
 4535SOL    HW213895   4.776   5.343   5.951  0.7460 -1.1882  1.3346
 4536SOL     OW13896   3.581   4.119   2.714 -0.5236 -0.5152  0.5508
 4536SOL    HW113897   3.678   4.141   2.719 -0.4046 -0.8657 -0.1348
 4536SOL    HW213898   3.540   4.164   2.635 -0.9732 -0.1751  0.9745
 4537SOL     OW13899   4.296   1.897   3.803 -0.0190  0.7696 -0.4431
 4537SOL    HW113900   4.199   1.873   3.796  0.2138 -0.3482  0.0179
 4537SOL    HW213901   4.346   1.855   3.728  0.3602 -0.0244  0.2430
 4538SOL     OW13902   1.889   0.289   5.541 -0.6266  0.2399  0.1403
 4538SOL    HW113903   1.830   0.228   5.488 -0.4391 -0.2679  0.5094
 4538SOL    HW213904   1.924   0.240   5.621 -0.2867  0.7617  0.3134
 4539SOL     OW13905   5.352   0.217   0.188 -0.1701  0.1126 -0.0992
 4539SOL    HW113906   5.345   0.226   0.088 -1.0989 -1.3594 -0.1995
 4539SOL    HW213907   5.287   0.280   0.231  0.5006  1.0273 -0.3927
 4540SOL     OW13908   4.419   1.526   2.953 -0.6584 -0.1921 -0.1682
 4540SOL    HW113909   4.354   1.591   2.913  1.4485  1.2972 -1.4018
 4540SOL    HW213910   4.461   1.471   2.881  1.9164  1.2990  0.0629
 4541SOL     OW13911   0.911   3.591   3.674  0.4870  0.1596  0.3321
 4541SOL    HW113912   0.945   3.513   3.727 -1.4465 -1.4304 -0.6500
 4541SOL    HW213913   0.819   3.614   3.705  0.2381  0.7081 -0.7906
 4542SOL     OW13914   3.764   5.688   1.781  0.6950  0.4238  0.5463
 4542SOL    HW113915   3.800   5.654   1.694  0.0505  1.8751 -0.3247
 4542SOL    HW213916   3.823   5.658   1.855  1.9964  0.2389 -0.5291
 4543SOL     OW13917   2.645   5.905   4.003 -0.0292 -0.2779  0.0356
 4543SOL    HW113918   2.724   5.854   3.968  0.5378 -0.0166  0.9006
 4543SOL    HW213919   2.605   5.960   3.930  0.9116 -0.0203 -0.2911
 4544SOL     OW13920   2.160   3.705   3.113  0.0714 -0.4693 -0.5693
 4544SOL    HW113921   2.212   3.790   3.113  1.1990 -1.1103  0.9432
 4544SOL    HW213922   2.065   3.724   3.139 -0.3640  0.6157 -2.7069
 4545SOL     OW13923   5.683   0.849   0.557 -0.0944  0.4627  0.1622
 4545SOL    HW113924   5.779   0.858   0.583 -0.1053  1.6982 -0.1575
 4545SOL    HW213925   5.640   0.777   0.611  1.5971 -1.8298 -1.4049
 4546SOL     OW13926   4.227   1.278   2.183  0.3840  0.2274 -0.2910
 4546SOL    HW113927   4.191   1.214   2.251 -0.8429 -0.4210 -1.4925
 4546SOL    HW213928   4.293   1.230   2.125 -1.8217 -0.5827 -2.3185
 4547SOL     OW13929   5.583   1.785   5.661  0.0907  0.3303  0.2683
 4547SOL    HW113930   5.598   1.702   5.714  1.6665  0.6131  0.3057
 4547SOL    HW213931   5.658   1.798   5.597  0.1736  2.0266  0.6588
 4548SOL     OW13932   0.381   1.650   4.057 -0.3322  0.7277  0.1172
 4548SOL    HW113933   0.399   1.585   4.130  2.7757  2.4949  1.0754
 4548SOL    HW213934   0.308   1.712   4.085 -0.7081  0.0187  0.7430
 4549SOL     OW13935   2.936   4.971   5.455 -0.3072 -0.5952 -0.4859
 4549SOL    HW113936   2.843   4.942   5.481  0.1851 -1.3689  0.4579
 4549SOL    HW213937   2.933   5.012   5.364 -1.6637 -0.1362 -0.2643
 4550SOL     OW13938   4.640   3.938   5.782  0.2309 -0.2794 -0.1172
 4550SOL    HW113939   4.569   3.989   5.832 -1.0230 -1.6889 -0.3752
 4550SOL    HW213940   4.700   3.892   5.848  1.3943  1.4755  0.1190
 4551SOL     OW13941   1.723   4.835   4.303 -0.4158 -0.2605  0.2513
 4551SOL    HW113942   1.633   4.822   4.344 -0.5094 -0.4104 -0.0007
 4551SOL    HW213943   1.764   4.745   4.284 -1.3331 -0.2470 -2.1190
 4552SOL     OW13944   2.416   4.411   4.549  0.3848 -0.3887  0.2155
 4552SOL    HW113945   2.343   4.463   4.504  1.5685  0.9522 -0.2520
 4552SOL    HW213946   2.382   4.375   4.636 -1.1619 -0.7935 -0.5195
 4553SOL     OW13947   2.006   5.057   0.362 -0.5041  0.6201  0.2372
 4553SOL    HW113948   1.985   5.144   0.316 -0.2200  0.5661  0.0045
 4553SOL    HW213949   1.985   5.066   0.460 -2.9625  0.1322 -0.1729
 4554SOL     OW13950   2.970   4.846   3.551 -0.7570 -0.4122 -0.0302
 4554SOL    HW113951   2.963   4.774   3.619 -0.6040  0.0899  0.5237
 4554SOL    HW213952   2.942   4.933   3.591 -0.8089 -0.1353 -0.6485
 4555SOL     OW13953   5.883   5.896   2.492  0.0448  0.0850 -0.4261
 4555SOL    HW113954   5.874   5.807   2.534 -2.4370  1.7525  3.0014
 4555SOL    HW213955   5.957   5.947   2.536 -0.8857  0.9230  0.2365
 4556SOL     OW13956   3.930   2.137   5.327 -0.1468 -0.3488 -0.5338
 4556SOL    HW113957   4.015   2.150   5.378 -0.0042  0.3095 -0.9341
 4556SOL    HW213958   3.951   2.092   5.240 -0.4880 -2.2692  0.3120
 4557SOL     OW13959   3.859   1.406   2.857  0.6441  0.4459 -0.6836
 4557SOL    HW113960   3.956   1.387   2.867  0.5217  0.8039  1.9354
 4557SOL    HW213961   3.806   1.339   2.909 -0.3280  1.8547  0.2142
 4558SOL     OW13962   3.685   1.044   2.389  0.4281  0.4975  0.3526
 4558SOL    HW113963   3.699   0.973   2.320  1.2981 -0.8562  1.8602
 4558SOL    HW213964   3.589   1.072   2.389  0.2499 -0.0703 -0.8431
 4559SOL     OW13965   2.915   5.226   4.337  0.8831  0.2995 -0.1517
 4559SOL    HW113966   2.956   5.149   4.386 -0.4728 -0.1769  0.2864
 4559SOL    HW213967   2.904   5.303   4.401  0.9445  0.3663 -0.2225
 4560SOL     OW13968   3.065   2.387   0.500 -0.4015 -0.1345 -0.1464
 4560SOL    HW113969   2.989   2.391   0.435 -0.9918  0.6739  0.5669
 4560SOL    HW213970   3.151   2.407   0.452 -0.8812  0.9012 -0.6032
 4561SOL     OW13971   5.410   4.163   1.461  0.3891  0.2939  0.4043
 4561SOL    HW113972   5.322   4.123   1.486  1.3542 -0.6632  2.5326
 4561SOL    HW213973   5.463   4.096   1.407  0.2280  0.4529  0.0497
 4562SOL     OW13974   5.643   3.212   5.379  0.0318  0.4634 -0.0076
 4562SOL    HW113975   5.592   3.277   5.323 -1.6286 -1.8486 -1.3849
 4562SOL    HW213976   5.601   3.204   5.469 -1.3841 -0.5526 -0.7289
 4563SOL     OW13977   3.664   5.777   3.427 -0.2494  0.5611 -0.2584
 4563SOL    HW113978   3.676   5.876   3.419 -1.7131  0.7770  0.0015
 4563SOL    HW213979   3.626   5.740   3.343 -0.2322  0.3035 -0.1557
 4564SOL     OW13980   1.069   0.895   5.764 -0.4373 -0.0554  0.2642
 4564SOL    HW113981   1.167   0.893   5.743 -0.2662  0.0912  0.9957
 4564SOL    HW213982   1.026   0.811   5.732 -0.2259  0.2062 -0.7404
 4565SOL     OW13983   4.615   5.671   5.240  0.6036  0.3127 -0.4626
 4565SOL    HW113984   4.615   5.771   5.242 -0.4719  0.5270 -3.8183
 4565SOL    HW213985   4.526   5.638   5.208  1.5545 -1.5919 -1.3461
 4566SOL     OW13986   0.406   1.283   1.653 -0.0659 -0.2887  0.3394
 4566SOL    HW113987   0.392   1.349   1.579  1.0307 -1.9125 -1.3967
 4566SOL    HW213988   0.318   1.241   1.676 -0.4684  0.4274  0.1465
 4567SOL     OW13989   3.490   2.892   5.558  0.1922  0.5147  0.1839
 4567SOL    HW113990   3.427   2.853   5.491  2.0575  2.4449 -2.9083
 4567SOL    HW213991   3.458   2.983   5.585  1.0215  1.0126 -0.4907
 4568SOL     OW13992   1.091   2.457   5.937  0.2873 -0.0398  0.1092
 4568SOL    HW113993   0.995   2.445   5.962 -0.0651 -1.0716 -1.5674
 4568SOL    HW213994   1.143   2.374   5.960  0.5847  0.1782  0.2290
 4569SOL     OW13995   4.660   3.373   3.544 -0.3833  0.1962 -0.2509
 4569SOL    HW113996   4.663   3.286   3.594  0.2179  0.2423 -0.2019
 4569SOL    HW213997   4.733   3.433   3.577 -1.9683  1.4903  1.1058
 4570SOL     OW13998   4.644   4.749   3.535 -0.2970 -0.1103 -0.5360
 4570SOL    HW113999   4.736   4.787   3.524 -0.8606  0.7457 -3.2811
 4570SOL    HW214000   4.632   4.673   3.470 -2.0357  0.9682 -1.5458
 4571SOL     OW14001   0.446   0.516   5.733 -0.1192 -0.2535  0.0979
 4571SOL    HW114002   0.502   0.471   5.802  1.8988  0.7545 -0.7907
 4571SOL    HW214003   0.410   0.602   5.769 -1.2502 -0.9604  0.7110
 4572SOL     OW14004   1.895   0.315   1.792 -0.5041 -0.0082  0.4193
 4572SOL    HW114005   1.972   0.326   1.855  0.3750 -0.1706 -0.6066
 4572SOL    HW214006   1.927   0.272   1.707 -1.8808 -0.8124  0.2835
 4573SOL     OW14007   2.729   3.703   2.823 -0.1159  0.6440 -0.3850
 4573SOL    HW114008   2.724   3.797   2.790  0.1979  0.4921 -0.8698
 4573SOL    HW214009   2.814   3.660   2.792 -0.3470  0.1392 -0.3415
 4574SOL     OW14010   1.645   2.746   5.839 -0.7978  0.7482 -0.7922
 4574SOL    HW114011   1.572   2.721   5.902 -0.3430  0.2840 -0.4384
 4574SOL    HW214012   1.666   2.843   5.848 -1.1708  0.8211 -0.6941
 4575SOL     OW14013   0.513   1.325   2.645  0.2903  0.1535  0.3728
 4575SOL    HW114014   0.481   1.336   2.739  0.3091 -0.2355  0.4266
 4575SOL    HW214015   0.486   1.235   2.611 -0.9348  0.8030 -0.4755
 4576SOL     OW14016   1.869   0.735   2.675  0.1935  0.4762  0.4453
 4576SOL    HW114017   1.844   0.830   2.654 -0.1346  0.4428  0.6926
 4576SOL    HW214018   1.789   0.677   2.669  0.1056  0.4447  1.6690
 4577SOL     OW14019   3.637   3.938   2.276 -0.0243  0.1259  0.2453
 4577SOL    HW114020   3.662   4.034   2.266  0.6663 -0.0841 -0.1484
 4577SOL    HW214021   3.658   3.907   2.369  1.1220 -0.0173 -0.0461
 4578SOL     OW14022   0.918   1.252   3.968  0.3489 -0.2661  0.4014
 4578SOL    HW114023   0.948   1.201   3.886  0.7327  0.2351  0.2249
 4578SOL    HW214024   0.831   1.297   3.949  0.2601 -0.4389  0.3907
 4579SOL     OW14025   0.184   4.343   4.828 -0.1987  0.3794 -0.1901
 4579SOL    HW114026   0.145   4.424   4.784  0.0234 -0.5201 -2.1686
 4579SOL    HW214027   0.162   4.262   4.773  1.2216 -0.6501  0.6931
 4580SOL     OW14028   1.685   0.890   3.510  0.2131 -0.2673 -0.2991
 4580SOL    HW114029   1.775   0.865   3.544  0.5445  0.5253 -0.5759
 4580SOL    HW214030   1.625   0.914   3.587  0.1094 -1.1770 -0.0858
 4581SOL     OW14031   5.754   0.126   0.340  0.1337  0.3359  0.5516
 4581SOL    HW114032   5.746   0.109   0.241 -2.0272 -1.6582  0.9804
 4581SOL    HW214033   5.790   0.045   0.385 -1.9147 -0.0010  1.7083
 4582SOL     OW14034   1.824   5.535   2.097 -0.4218 -0.1003 -0.0958
 4582SOL    HW114035   1.775   5.461   2.052  3.1529 -2.3886 -0.6541
 4582SOL    HW214036   1.891   5.497   2.161  0.8352  2.7020  0.4191
 4583SOL     OW14037   1.355   4.137   3.347  0.0328  0.0543  0.1577
 4583SOL    HW114038   1.400   4.121   3.259 -0.7946  0.1267 -0.2929
 4583SOL    HW214039   1.263   4.173   3.331 -0.5924 -1.0723  1.0014
 4584SOL     OW14040   4.411   1.097   4.248  0.2402  0.6973 -0.5737
 4584SOL    HW114041   4.316   1.081   4.221  0.0401 -1.3895  1.0959
 4584SOL    HW214042   4.418   1.183   4.298 -0.6625  1.1076 -1.1296
 4585SOL     OW14043   5.746   2.239   0.835  0.4509 -0.2188  0.2702
 4585SOL    HW114044   5.731   2.333   0.805 -1.9061 -0.6924 -0.1732
 4585SOL    HW214045   5.686   2.219   0.912  1.7311 -1.0657  1.0893
 4586SOL     OW14046   3.399   5.198   3.640  0.2576 -0.2813 -0.5818
 4586SOL    HW114047   3.353   5.169   3.556  1.6391 -0.1511 -1.4011
 4586SOL    HW214048   3.491   5.229   3.619 -0.6984  3.7654  0.3397
 4587SOL     OW14049   1.405   2.127   2.946  0.1522 -0.2270  0.5356
 4587SOL    HW114050   1.329   2.192   2.937 -0.6992 -1.3411 -0.7167
 4587SOL    HW214051   1.478   2.152   2.883 -0.1706 -0.4924  0.0591
 4588SOL     OW14052   0.561   0.972   5.447 -0.2803  0.3882  0.5054
 4588SOL    HW114053   0.546   0.873   5.454  1.0592  0.0369 -0.9508
 4588SOL    HW214054   0.521   1.005   5.362  2.0133  0.4446 -0.6417
 4589SOL     OW14055   4.784   1.813   0.735  0.0141 -0.6654  0.6226
 4589SOL    HW114056   4.823   1.844   0.649 -2.0746 -0.5869 -0.3562
 4589SOL    HW214057   4.849   1.829   0.809  1.3663  0.3976 -0.7444
 4590SOL     OW14058   0.080   0.736   3.656  0.7945 -0.0276  0.1566
 4590SOL    HW114059   0.139   0.655   3.648  0.5579 -0.2697  0.7587
 4590SOL    HW214060   0.116   0.795   3.729  0.2731 -0.1974  0.5561
 4591SOL     OW14061   3.216   4.057   1.014  0.0386  0.2767 -0.2485
 4591SOL    HW114062   3.141   4.024   1.071  0.9944 -1.3667  0.0914
 4591SOL    HW214063   3.211   4.157   1.008 -1.5926  0.2779  0.5537
 4592SOL     OW14064   1.314   2.373   2.612  0.4323  0.1108  0.5042
 4592SOL    HW114065   1.397   2.412   2.650  0.6264  1.8360 -1.5065
 4592SOL    HW214066   1.337   2.295   2.555  0.6186  0.2726  0.3568
 4593SOL     OW14067   1.712   4.677   0.863 -0.1986 -0.1161 -0.4902
 4593SOL    HW114068   1.660   4.684   0.778 -0.0631  0.4620 -0.5335
 4593SOL    HW214069   1.809   4.688   0.843 -0.1329 -0.3686 -0.3095
 4594SOL     OW14070   5.328   1.289   0.054 -0.3641 -0.2972 -0.3653
 4594SOL    HW114071   5.287   1.221   0.114  1.6965  0.1659  1.7571
 4594SOL    HW214072   5.340   1.252  -0.037 -0.6404 -2.2447  0.3553
 4595SOL     OW14073   0.904   2.357   3.894 -0.5791 -0.3414  0.0000
 4595SOL    HW114074   0.958   2.315   3.822  3.6127 -1.0790  3.1930
 4595SOL    HW214075   0.835   2.292   3.926  0.9438 -2.0359 -0.0041
 4596SOL     OW14076   0.684   2.349   3.443 -0.3455 -0.1500  0.3782
 4596SOL    HW114077   0.664   2.283   3.370 -1.4110  0.8609 -0.3002
 4596SOL    HW214078   0.747   2.419   3.408 -0.9084  0.3729  0.3763
 4597SOL     OW14079   0.429   1.693   0.668  0.2956 -0.0378 -0.0944
 4597SOL    HW114080   0.371   1.647   0.735 -0.5452  0.7250 -0.2841
 4597SOL    HW214081   0.509   1.636   0.648  0.0364 -0.7229  0.7922
 4598SOL     OW14082   1.216   1.776   0.384 -0.2493 -0.1060 -0.4400
 4598SOL    HW114083   1.160   1.693   0.385  2.9709 -2.5028  1.0222
 4598SOL    HW214084   1.225   1.808   0.289 -2.3725 -0.7796 -0.9331
 4599SOL     OW14085   3.447   5.563   4.165 -0.0444  0.1912 -0.4280
 4599SOL    HW114086   3.457   5.517   4.077  0.0975 -0.4671 -0.0661
 4599SOL    HW214087   3.530   5.550   4.220 -1.0212 -1.3763  0.7303
 4600SOL     OW14088   2.220   4.520   1.534 -0.1218  0.6142  0.2326
 4600SOL    HW114089   2.218   4.611   1.492 -0.7987  1.4486  1.9942
 4600SOL    HW214090   2.312   4.481   1.526 -0.4467  0.2010 -2.9850
 4601SOL     OW14091   1.693   3.235   2.290  0.0845 -1.1354 -0.2722
 4601SOL    HW114092   1.717   3.204   2.197 -2.4093 -0.3433 -1.2637
 4601SOL    HW214093   1.616   3.298   2.285 -0.5102 -1.5277  2.4226
 4602SOL     OW14094   2.419   3.051   3.946  0.4233  0.4881 -0.0522
 4602SOL    HW114095   2.394   2.993   4.024  2.3296 -0.2202  0.1010
 4602SOL    HW214096   2.336   3.083   3.900 -0.7179 -0.7628  1.0297
 4603SOL     OW14097   1.672   4.128   1.937  0.7334 -0.7288 -0.2878
 4603SOL    HW114098   1.753   4.103   1.884  1.5340 -1.5564  1.2547
 4603SOL    HW214099   1.700   4.165   2.025 -0.5715 -1.2234  0.3590
 4604SOL     OW14100   2.056   0.645   0.738 -0.8375  0.1231  0.0821
 4604SOL    HW114101   1.977   0.687   0.692 -0.6457 -0.3227 -0.6693
 4604SOL    HW214102   2.135   0.704   0.729 -0.5270 -0.4317 -1.1137
 4605SOL     OW14103   5.104   1.016   4.856  0.5806 -0.0727  0.4740
 4605SOL    HW114104   5.042   1.090   4.827  2.0179  1.3664  0.8933
 4605SOL    HW214105   5.051   0.943   4.899 -0.8025  1.2401  1.1166
 4606SOL     OW14106   4.857   4.927   4.006  0.3667  0.1517  0.1049
 4606SOL    HW114107   4.935   4.935   3.944  0.4504  1.5593  0.3702
 4606SOL    HW214108   4.779   4.887   3.956  1.5626 -2.4667  0.1540
 4607SOL     OW14109   4.497   2.158   1.838 -0.1535 -0.0528  0.0217
 4607SOL    HW114110   4.563   2.205   1.779 -2.5032  3.0543 -0.3504
 4607SOL    HW214111   4.462   2.077   1.791 -0.6991  1.3895 -2.2089
 4608SOL     OW14112   4.008   3.930   5.033 -0.5249  0.3797 -0.2466
 4608SOL    HW114113   4.014   3.845   5.087  0.4679  0.0886 -0.8031
 4608SOL    HW214114   3.998   4.008   5.095  1.5560  0.1537  0.4506
 4609SOL     OW14115   2.606   3.381   0.909 -0.3277  1.1531  0.0192
 4609SOL    HW114116   2.537   3.330   0.960  2.6294 -1.5100  1.6717
 4609SOL    HW214117   2.663   3.433   0.972  1.0242  0.8944 -0.9494
 4610SOL     OW14118   5.815   2.006   4.272  0.4702 -0.7626  0.5282
 4610SOL    HW114119   5.899   2.033   4.318  1.2401 -0.7717 -0.8058
 4610SOL    HW214120   5.749   2.081   4.275  1.6169  0.3750 -0.8824
 4611SOL     OW14121   1.788   4.886   0.406  0.2974 -0.4671  0.4702
 4611SOL    HW114122   1.879   4.928   0.400  0.7424 -1.4775 -0.0449
 4611SOL    HW214123   1.797   4.787   0.404 -0.9624 -0.6158 -2.4012
 4612SOL     OW14124   5.813   2.392   4.852  0.0262 -0.6462 -0.3014
 4612SOL    HW114125   5.900   2.381   4.805  0.2909  0.1484 -0.0165
 4612SOL    HW214126   5.773   2.302   4.871  1.6475 -1.0976  1.1635
 4613SOL     OW14127   4.486   1.882   5.075 -0.0684  1.0019  0.3935
 4613SOL    HW114128   4.456   1.807   5.014  1.8033 -0.3414  1.0332
 4613SOL    HW214129   4.406   1.921   5.120 -1.2054  0.0085 -0.6487
 4614SOL     OW14130   2.475   5.234   3.006  0.2694 -0.3592 -0.0758
 4614SOL    HW114131   2.535   5.177   2.950  0.9943 -0.4834  0.8003
 4614SOL    HW214132   2.434   5.179   3.078  0.1221  0.0060  0.1240
 4615SOL     OW14133   4.837   1.572   5.245 -0.2234  1.0634 -0.2886
 4615SOL    HW114134   4.780   1.532   5.317  1.8297  1.7550  1.8786
 4615SOL    HW214135   4.873   1.499   5.187  2.2014 -0.2922  2.6291
 4616SOL     OW14136   0.615   1.228   0.961 -0.0845 -0.1564 -0.5507
 4616SOL    HW114137   0.705   1.244   0.920  0.1627  0.0281  0.0421
 4616SOL    HW214138   0.625   1.222   1.060 -0.8034  0.4017 -0.4391
 4617SOL     OW14139   5.718   2.042   3.482 -0.1755 -0.6152 -0.0132
 4617SOL    HW114140   5.773   1.999   3.410  1.1247 -0.3026  0.7480
 4617SOL    HW214141   5.653   1.975   3.518 -2.0010 -0.3383 -2.5022
 4618SOL     OW14142   1.367   3.195   0.695  0.5331  0.2877 -0.4330
 4618SOL    HW114143   1.318   3.186   0.782  3.2003 -0.4506  1.0946
 4618SOL    HW214144   1.361   3.110   0.644 -1.0990  0.7440 -1.0675
 4619SOL     OW14145   4.565   4.647   1.847  0.3443 -0.5290 -0.5087
 4619SOL    HW114146   4.605   4.601   1.927 -1.0959 -1.5242 -0.3165
 4619SOL    HW214147   4.586   4.744   1.851  1.3272 -0.7558  0.4336
 4620SOL     OW14148   1.317   1.817   1.089 -0.3354  0.2591 -0.2207
 4620SOL    HW114149   1.381   1.795   1.163 -0.2414 -2.0607 -0.9123
 4620SOL    HW214150   1.363   1.873   1.020  0.4726 -0.0894  0.0282
 4621SOL     OW14151   0.001   0.294   2.564 -0.1677 -0.1899  0.0314
 4621SOL    HW114152   0.074   0.339   2.615  2.7182 -0.0714 -3.7430
 4621SOL    HW214153   0.027   0.200   2.542 -1.9345 -0.7049 -0.0138
 4622SOL     OW14154   0.729   2.074   5.522 -0.0657 -0.4031  0.4797
 4622SOL    HW114155   0.736   2.099   5.426 -0.5180 -0.5007  0.4197
 4622SOL    HW214156   0.644   2.024   5.538  1.3608 -3.0972  0.3189
 4623SOL     OW14157   4.648  -0.024   5.260 -0.2629 -0.6275 -0.2222
 4623SOL    HW114158   4.601   0.052   5.215 -0.9140 -0.3816  0.8437
 4623SOL    HW214159   4.744  -0.025   5.231 -0.1602  0.8203  0.0102
 4624SOL     OW14160   0.038   2.048   4.500 -0.5197 -0.0997 -0.2647
 4624SOL    HW114161   0.081   1.958   4.494 -1.6824 -0.7998  1.0600
 4624SOL    HW214162   0.105   2.119   4.482  0.7511 -1.1935 -0.0022
 4625SOL     OW14163   2.417   0.767   2.086 -0.6295  0.0729 -0.0400
 4625SOL    HW114164   2.498   0.819   2.060 -1.1099  0.1120 -1.5046
 4625SOL    HW214165   2.398   0.782   2.183 -0.6594  2.4836 -0.3735
 4626SOL     OW14166   3.885   0.181   5.591 -0.2328 -0.0278 -0.2717
 4626SOL    HW114167   3.893   0.086   5.564  0.4633  0.2916 -1.2228
 4626SOL    HW214168   3.926   0.240   5.521 -1.6050  1.0418 -0.2128
 4627SOL     OW14169   2.433   5.493   0.399 -0.4077 -0.3098 -0.7536
 4627SOL    HW114170   2.520   5.445   0.387  0.5466  1.2126 -0.1752
 4627SOL    HW214171   2.359   5.435   0.366  0.9515 -1.0803 -2.6555
 4628SOL     OW14172   5.646   1.927   1.432 -0.0490  0.1141 -0.2388
 4628SOL    HW114173   5.552   1.894   1.438  0.2459 -1.1514 -1.8412
 4628SOL    HW214174   5.682   1.942   1.524 -0.6800 -2.8192  0.6082
 4629SOL     OW14175   4.896   1.774   1.425 -0.1830  0.1430 -0.2269
 4629SOL    HW114176   4.824   1.777   1.356 -0.9611  0.9101  0.5987
 4629SOL    HW214177   4.916   1.867   1.456  1.2716 -0.0423 -0.5327
 4630SOL     OW14178   5.228   5.584   2.228 -0.0726 -0.2865  0.1904
 4630SOL    HW114179   5.251   5.512   2.164  0.3217  1.2598 -1.5004
 4630SOL    HW214180   5.310   5.612   2.278  0.0289 -0.2488  0.0058
 4631SOL     OW14181   0.331   0.810   1.854  0.5580 -0.0137  0.3611
 4631SOL    HW114182   0.396   0.790   1.781  1.0584  1.2941  0.4190
 4631SOL    HW214183   0.325   0.909   1.866  1.3348 -0.2013  2.8373
 4632SOL     OW14184   2.594   1.643   2.130 -0.1534 -0.1839  0.1658
 4632SOL    HW114185   2.560   1.697   2.206  0.4469  0.2959  0.0994
 4632SOL    HW214186   2.571   1.688   2.043 -0.5654 -0.5709  0.0693
 4633SOL     OW14187   3.365   0.505   4.566 -0.4125 -0.1376 -0.2555
 4633SOL    HW114188   3.357   0.424   4.509 -0.7814  0.2377 -0.7508
 4633SOL    HW214189   3.281   0.560   4.557 -0.5127 -0.1133  0.7118
 4634SOL     OW14190   2.815   5.094   3.589  0.9982 -0.2586 -0.4457
 4634SOL    HW114191   2.871   5.171   3.621  1.1408 -0.9682  1.1217
 4634SOL    HW214192   2.750   5.068   3.660  0.5810 -1.2350 -1.1578
 4635SOL     OW14193   3.706   1.730   5.816  0.1646 -0.1653 -0.6276
 4635SOL    HW114194   3.683   1.732   5.913  1.9934  0.0724 -0.1591
 4635SOL    HW214195   3.683   1.641   5.778 -1.2825  0.0009 -0.1778
 4636SOL     OW14196   1.851   0.059   1.230  0.4299 -0.5266  0.2236
 4636SOL    HW114197   1.935   0.005   1.232  0.8484 -0.0884 -2.0822
 4636SOL    HW214198   1.872   0.155   1.250  0.9078 -0.0533 -2.1643
 4637SOL     OW14199   3.563   0.337   1.744  0.1945 -0.0611  0.4012
 4637SOL    HW114200   3.551   0.415   1.684  2.9847 -0.2786 -0.5684
 4637SOL    HW214201   3.603   0.367   1.831  0.7110 -0.3341  0.2596
 4638SOL     OW14202   0.655   5.605   5.556  0.2184 -0.3731 -0.0526
 4638SOL    HW114203   0.638   5.523   5.610  0.9213 -0.1371  0.5359
 4638SOL    HW214204   0.744   5.643   5.579 -0.4635  1.0589  0.3487
 4639SOL     OW14205   1.062   3.183   0.039  0.1258  0.5691 -0.7673
 4639SOL    HW114206   1.082   3.148   0.130 -0.9744  0.7530 -0.4393
 4639SOL    HW214207   1.117   3.133  -0.029 -0.4272 -0.8813 -0.1893
 4640SOL     OW14208   5.811   3.263   1.976  0.3514 -0.4956  0.0448
 4640SOL    HW114209   5.904   3.290   1.952  0.0348  0.6393  0.0382
 4640SOL    HW214210   5.771   3.211   1.901  0.4696  0.3027 -0.5837
 4641SOL     OW14211   3.689   0.413   2.014 -0.3426 -0.0861  0.9800
 4641SOL    HW114212   3.746   0.338   2.049  0.3251  0.0063  0.1303
 4641SOL    HW214213   3.739   0.462   1.943 -1.5051 -0.0085  0.1910
 4642SOL     OW14214   1.282   1.818   2.425 -0.5158  0.5652 -0.0042
 4642SOL    HW114215   1.357   1.827   2.491 -0.4087 -0.0302 -0.0349
 4642SOL    HW214216   1.212   1.887   2.444 -1.4173 -0.7922  1.9877
 4643SOL     OW14217   1.750   3.186   5.443 -0.5983  0.3422 -0.1716
 4643SOL    HW114218   1.809   3.108   5.462 -0.3559  0.3463 -0.8642
 4643SOL    HW214219   1.662   3.154   5.408 -0.4522  0.3691 -0.5812
 4644SOL     OW14220   2.588   2.755   0.455  0.2973  0.2060 -0.4566
 4644SOL    HW114221   2.520   2.817   0.416 -0.3312 -0.9488 -1.2490
 4644SOL    HW214222   2.672   2.761   0.402  0.1648  0.2253 -0.6674
 4645SOL     OW14223   5.565   0.431   3.723 -0.9013  0.4643 -0.0773
 4645SOL    HW114224   5.571   0.531   3.726  0.1374  0.4208 -0.6142
 4645SOL    HW214225   5.503   0.403   3.650 -0.6680  0.6998 -0.3658
 4646SOL     OW14226   2.178   2.702   4.915  0.1858 -0.2795  0.1688
 4646SOL    HW114227   2.201   2.714   5.011 -0.8663  0.3921  0.3561
 4646SOL    HW214228   2.204   2.610   4.885  0.3036 -0.5768  1.1617
 4647SOL     OW14229   5.978   1.469   5.482  0.5089  0.6097  0.1288
 4647SOL    HW114230   6.012   1.399   5.544 -2.5058 -1.0735  0.0720
 4647SOL    HW214231   5.887   1.499   5.512 -0.4283  0.8056 -2.5858
 4648SOL     OW14232   3.616   5.899   1.868  0.2159 -0.1320 -0.4084
 4648SOL    HW114233   3.671   5.980   1.848 -0.5690  0.3721 -0.5489
 4648SOL    HW214234   3.669   5.817   1.846  0.8801  0.3401 -0.6173
 4649SOL     OW14235   5.364   1.557   5.128  0.2048  0.0976 -0.2221
 4649SOL    HW114236   5.389   1.541   5.033 -0.4891  1.3729 -0.6352
 4649SOL    HW214237   5.277   1.606   5.133  0.3768  0.3193  1.0517
 4650SOL     OW14238   1.099   3.177   1.559  0.0857 -0.8417  0.2163
 4650SOL    HW114239   1.091   3.167   1.460  0.4667 -0.5762  0.1559
 4650SOL    HW214240   1.029   3.239   1.593 -0.1310 -1.0400  0.1330
 4651SOL     OW14241   4.056   3.846   2.433  0.1443 -0.4299  0.2152
 4651SOL    HW114242   4.037   3.750   2.456 -1.1423 -0.4335 -0.7121
 4651SOL    HW214243   3.981   3.903   2.464  1.1136  0.3584  1.1482
 4652SOL     OW14244   0.451   2.959   1.850  0.3531  0.2184 -0.0797
 4652SOL    HW114245   0.389   2.894   1.807 -0.3820 -0.5352  2.0090
 4652SOL    HW214246   0.423   3.052   1.828 -1.3783 -0.1110  0.5615
 4653SOL     OW14247   1.259   5.902   0.979 -0.1562  0.3749 -0.4363
 4653SOL    HW114248   1.352   5.867   0.968 -0.7674 -1.0057 -1.5529
 4653SOL    HW214249   1.218   5.862   1.062 -0.8159 -1.6209 -1.6476
 4654SOL     OW14250   5.219   5.679   0.671 -0.1134  0.2136  0.0258
 4654SOL    HW114251   5.289   5.686   0.600 -0.1909  0.6322 -0.0120
 4654SOL    HW214252   5.130   5.664   0.628 -0.1447  0.3598  0.0403
 4655SOL     OW14253   2.654   0.045   3.102  0.3448  0.0238 -0.6814
 4655SOL    HW114254   2.637  -0.032   3.040  2.5486 -0.7613 -0.4109
 4655SOL    HW214255   2.676   0.010   3.193 -1.3238  1.1144  0.1857
 4656SOL     OW14256   2.160   2.144   4.111  0.0250 -0.2688  0.2441
 4656SOL    HW114257   2.105   2.075   4.160 -1.1787  0.5350  0.0623
 4656SOL    HW214258   2.183   2.109   4.020 -0.2996 -0.5692  0.2733
 4657SOL     OW14259   4.965   5.688   1.006  0.2046  0.3434  0.2650
 4657SOL    HW114260   5.005   5.667   1.095  2.0186 -2.0704 -1.0114
 4657SOL    HW214261   4.874   5.648   1.000  0.3273 -0.0279  0.7943
 4658SOL     OW14262   4.467   3.215   5.350 -0.5270 -0.1875  0.0345
 4658SOL    HW114263   4.479   3.244   5.445 -1.3789  0.7865 -0.1351
 4658SOL    HW214264   4.370   3.214   5.327 -0.2751  2.6473 -1.6867
 4659SOL     OW14265   5.921   0.627   0.347 -0.4044 -0.2988  0.1536
 4659SOL    HW114266   5.823   0.646   0.350 -0.5672 -1.0392 -0.1115
 4659SOL    HW214267   5.972   0.701   0.391 -1.1217 -0.1946  0.8182
 4660SOL     OW14268   1.786   0.108   0.017 -0.4194 -0.3692  0.1063
 4660SOL    HW114269   1.690   0.115  -0.010 -0.2511  0.9335 -0.2285
 4660SOL    HW214270   1.817   0.014   0.007 -2.0896 -1.1534  1.7424
 4661SOL     OW14271   5.942   3.381   4.773 -0.0796 -0.2832 -0.0304
 4661SOL    HW114272   5.970   3.356   4.866  0.2729  0.2510  0.0141
 4661SOL    HW214273   5.876   3.314   4.739 -0.7886 -0.0762  0.8834
 4662SOL     OW14274   0.946   5.473   5.458  0.0241 -0.4178 -0.3416
 4662SOL    HW114275   0.998   5.478   5.373 -0.3030 -0.7546 -0.5634
 4662SOL    HW214276   0.949   5.562   5.504 -0.5510  0.0363 -1.1602
 4663SOL     OW14277   1.104   0.872   1.912  0.0738  0.0322 -0.7128
 4663SOL    HW114278   1.154   0.786   1.908 -0.7162 -0.4228 -1.2014
 4663SOL    HW214279   1.020   0.860   1.966 -0.1069  0.4485 -0.8942
 4664SOL     OW14280   4.329   0.806   1.062 -0.3844  0.5637  0.0569
 4664SOL    HW114281   4.245   0.752   1.072 -0.3814  0.2975 -1.1353
 4664SOL    HW214282   4.329   0.881   1.128  0.3122 -1.7344  2.8369
 4665SOL     OW14283   4.740   4.078   0.517 -0.6847  0.2137 -0.2782
 4665SOL    HW114284   4.744   3.980   0.495 -0.1027  0.7013 -2.6920
 4665SOL    HW214285   4.833   4.116   0.513 -0.8295  0.7595  1.2787
 4666SOL     OW14286   5.906   1.913   0.614 -0.3389  0.1995  0.4191
 4666SOL    HW114287   5.912   1.863   0.528  1.4739  1.4514 -0.2604
 4666SOL    HW214288   5.968   1.872   0.681  1.8025  1.8873 -0.4066
 4667SOL     OW14289   2.944   0.916   4.822  0.7724 -0.5902  0.1590
 4667SOL    HW114290   3.025   0.969   4.844  0.5104 -0.3834  0.6462
 4667SOL    HW214291   2.916   0.934   4.728 -1.5253  3.1902  1.3496
 4668SOL     OW14292   2.621   0.507   2.869 -0.2025 -0.6779  0.1015
 4668SOL    HW114293   2.701   0.566   2.856 -1.6488  1.7783  1.6791
 4668SOL    HW214294   2.585   0.480   2.779  0.4536  0.9711 -0.6961
 4669SOL     OW14295   3.316   1.508   5.895  0.3821 -0.6055  0.5887
 4669SOL    HW114296   3.362   1.526   5.809  1.4936 -0.8071  1.1237
 4669SOL    HW214297   3.380   1.466   5.959 -0.1118  0.5694  1.8990
 4670SOL     OW14298   5.036   0.321   1.845  0.7694  0.4560  0.0368
 4670SOL    HW114299   4.954   0.304   1.899  0.4742  1.7088  0.0121
 4670SOL    HW214300   5.015   0.308   1.748  0.3838  1.4544 -0.0313
 4671SOL     OW14301   4.975   5.860   5.604 -0.3945  0.8173 -0.3982
 4671SOL    HW114302   4.912   5.800   5.653 -0.0468  0.7612 -0.0199
 4671SOL    HW214303   5.006   5.933   5.664  1.5344 -0.3239  0.1118
 4672SOL     OW14304   1.748   1.148   3.761  0.3464 -0.1306 -0.3146
 4672SOL    HW114305   1.651   1.157   3.781  0.0381 -2.8300 -0.1418
 4672SOL    HW214306   1.797   1.124   3.845  0.4369 -2.8475 -1.0521
 4673SOL     OW14307   4.408   1.670   4.926  0.1486  0.6804 -0.5009
 4673SOL    HW114308   4.481   1.615   4.885 -1.1083  0.1215 -2.0920
 4673SOL    HW214309   4.321   1.647   4.884 -0.7075  2.6297  0.0744
 4674SOL     OW14310   4.636   4.344   0.481  0.0400 -0.2715  0.2509
 4674SOL    HW114311   4.705   4.403   0.522 -0.1659 -0.1898  0.4818
 4674SOL    HW214312   4.653   4.249   0.507 -1.1208 -0.0342  2.0143
 4675SOL     OW14313   5.112   3.903   2.615  0.6204  0.3311  0.4742
 4675SOL    HW114314   5.133   3.818   2.568  2.6994  1.0628 -0.0272
 4675SOL    HW214315   5.074   3.883   2.706 -0.7424 -1.0781 -0.3611
 4676SOL     OW14316   4.895   2.998   4.212  0.4287  0.1476  0.7483
 4676SOL    HW114317   4.981   2.954   4.187 -0.2719 -0.9484  0.1795
 4676SOL    HW214318   4.861   2.957   4.298 -0.8629 -1.4111 -0.4379
 4677SOL     OW14319   0.425   0.605   3.776  0.0965  0.2678  0.3192
 4677SOL    HW114320   0.378   0.690   3.753 -1.7123 -0.7205  0.1724
 4677SOL    HW214321   0.522   0.623   3.789 -0.0936  2.1837 -0.5945
 4678SOL     OW14322   2.138   1.121   4.362 -0.1817  0.4083 -0.3089
 4678SOL    HW114323   2.146   1.047   4.295 -1.7349  2.1949 -2.6009
 4678SOL    HW214324   2.070   1.097   4.431  2.6443 -2.2073  1.9039
 4679SOL     OW14325   1.994   5.578   3.238 -0.2715 -0.4243  0.0914
 4679SOL    HW114326   2.066   5.518   3.271 -0.3241 -0.1103  0.7961
 4679SOL    HW214327   1.967   5.550   3.145  1.0053 -0.3065 -0.3351
 4680SOL     OW14328   4.612   2.459   2.312 -0.4152 -0.3028  0.2457
 4680SOL    HW114329   4.711   2.473   2.313 -0.5178  0.4493  1.0748
 4680SOL    HW214330   4.591   2.369   2.276  0.5097  0.0394 -1.2315
 4681SOL     OW14331   0.322   0.331   3.291  0.2617  0.7843  0.0891
 4681SOL    HW114332   0.338   0.268   3.367 -0.9321  0.4350  0.0613
 4681SOL    HW214333   0.344   0.285   3.205  1.0633  0.9951  0.1670
 4682SOL     OW14334   5.168   1.913   2.726  0.0763 -0.4070 -0.0226
 4682SOL    HW114335   5.171   1.985   2.795 -1.0965 -0.1564 -0.2151
 4682SOL    HW214336   5.259   1.900   2.687  0.4105  0.5746  0.4115
 4683SOL     OW14337   2.001   3.475   4.589 -0.1298  0.0525 -0.3056
 4683SOL    HW114338   2.002   3.442   4.494  0.6829 -0.4903 -0.1132
 4683SOL    HW214339   2.005   3.397   4.651 -2.1071  0.3144  0.2212
 4684SOL     OW14340   4.654   3.618   2.191 -0.1849  0.2590  0.2298
 4684SOL    HW114341   4.672   3.549   2.262  0.5427 -0.2683 -0.4486
 4684SOL    HW214342   4.583   3.584   2.129 -0.1960  0.3430  0.1973
 4685SOL     OW14343   3.459   2.664   2.293  0.6679  0.0316 -0.0763
 4685SOL    HW114344   3.414   2.749   2.322 -1.3791 -0.2484 -2.1796
 4685SOL    HW214345   3.465   2.602   2.371 -0.5439  0.9607  0.8017
 4686SOL     OW14346   5.087   5.903   4.537  0.5734  0.3460  0.3789
 4686SOL    HW114347   5.106   5.998   4.564  0.4325  0.2950  0.6554
 4686SOL    HW214348   5.039   5.856   4.611 -1.7450  0.8230 -0.7557
 4687SOL     OW14349   5.298   1.754   0.043  1.1890 -0.1475 -0.4110
 4687SOL    HW114350   5.335   1.799   0.124  2.0968 -0.4988 -0.6281
 4687SOL    HW214351   5.224   1.810   0.006 -0.6592 -0.9398  1.8188
 4688SOL     OW14352   1.876   0.218   4.550 -0.2099  0.2476 -0.1577
 4688SOL    HW114353   1.828   0.285   4.494  1.0388  1.0064 -0.3467
 4688SOL    HW214354   1.966   0.200   4.511  0.5468  0.5105  1.3719
 4689SOL     OW14355   0.898   2.618   4.946  0.4892  0.2630 -0.3543
 4689SOL    HW114356   0.983   2.595   4.897  0.7333 -1.0574  0.6428
 4689SOL    HW214357   0.831   2.546   4.931 -0.3649  1.1541 -0.8795
 4690SOL     OW14358   0.061   5.435   5.899 -0.0856 -0.5175 -0.0965
 4690SOL    HW114359   0.066   5.475   5.807 -0.0759  1.0635  0.5507
 4690SOL    HW214360   0.121   5.356   5.905  0.1868 -0.4237 -1.3396
 4691SOL     OW14361   1.273   4.071   2.974 -0.7812 -0.5824  0.1941
 4691SOL    HW114362   1.255   3.985   3.022  1.1804 -0.8325  0.5621
 4691SOL    HW214363   1.358   4.063   2.921 -1.3315  0.6668 -0.9444
 4692SOL     OW14364   4.567   2.187   5.550 -0.1144 -0.3622 -0.5703
 4692SOL    HW114365   4.547   2.226   5.460  1.3417  0.5214 -0.5422
 4692SOL    HW214366   4.610   2.097   5.540  0.9618  0.1628 -0.8172
 4693SOL     OW14367   0.980   5.812   2.946 -0.4294 -0.0246  0.6541
 4693SOL    HW114368   1.060   5.864   2.977 -1.5445  1.1043  1.7433
 4693SOL    HW214369   0.927   5.869   2.882 -0.3643 -0.7717 -0.0776
 4694SOL     OW14370   2.514   3.209   0.490 -0.2230 -0.1110 -0.4864
 4694SOL    HW114371   2.559   3.183   0.405 -0.7657  1.9034 -1.4619
 4694SOL    HW214372   2.423   3.246   0.470  0.3662  2.2017  0.7136
 4695SOL     OW14373   5.399   1.034   0.445 -0.2063  0.0675 -0.2614
 4695SOL    HW114374   5.435   1.040   0.351  1.3749  0.3119  0.3239
 4695SOL    HW214375   5.407   0.940   0.477 -0.0554  0.1262 -0.1239
 4696SOL     OW14376   0.497   3.494   3.014  0.0574  0.3824  0.7467
 4696SOL    HW114377   0.539   3.569   3.063  1.1740  0.5087 -0.3341
 4696SOL    HW214378   0.407   3.521   2.980  0.8735  1.6144 -0.5128
 4697SOL     OW14379   3.466   4.085   1.151  0.0957  0.1570  0.0766
 4697SOL    HW114380   3.537   4.112   1.086 -0.3358  1.7653  0.2056
 4697SOL    HW214381   3.377   4.084   1.105  0.0629 -0.8618  0.1458
 4698SOL     OW14382   4.294   5.515   0.795 -0.0619 -0.1999  0.1989
 4698SOL    HW114383   4.299   5.574   0.875  1.6664 -0.2193  0.1226
 4698SOL    HW214384   4.223   5.446   0.809 -0.1206  0.1094  1.4914
 4699SOL     OW14385   1.822   0.802   2.339 -0.6568  0.0629 -0.2975
 4699SOL    HW114386   1.902   0.789   2.280 -1.9281 -0.4998 -1.9836
 4699SOL    HW214387   1.774   0.885   2.312 -1.8513 -0.7691 -0.7975
 4700SOL     OW14388   3.736   1.027   5.895  0.2136 -0.2601  0.3439
 4700SOL    HW114389   3.670   0.964   5.936 -1.4980  1.6225  0.6687
 4700SOL    HW214390   3.712   1.043   5.799  0.4545  0.1358  0.3469
 4701SOL     OW14391   5.786   5.483   3.485 -0.1750 -0.5478  0.0937
 4701SOL    HW114392   5.711   5.458   3.425 -1.3952  1.1426  0.8245
 4701SOL    HW214393   5.751   5.501   3.577  1.1238  0.2044  0.4739
 4702SOL     OW14394   1.429   5.336   4.347  0.9118 -0.3688  0.5624
 4702SOL    HW114395   1.334   5.327   4.379 -0.0073  1.6925 -1.3269
 4702SOL    HW214396   1.457   5.431   4.353  2.7827 -0.8928  0.7291
 4703SOL     OW14397   1.332   1.235   4.969  0.4087  0.3359 -0.4383
 4703SOL    HW114398   1.416   1.290   4.972  1.7285 -1.5651 -0.2208
 4703SOL    HW214399   1.274   1.259   5.046  0.4853  2.0492 -0.8742
 4704SOL     OW14400   2.903   3.106   1.932 -0.6250 -0.9238 -0.0798
 4704SOL    HW114401   2.974   3.055   1.980 -0.4184 -0.4161  0.1611
 4704SOL    HW214402   2.892   3.070   1.840  0.2513 -0.7247 -0.2715
 4705SOL     OW14403   2.152   4.983   0.158 -0.4549  0.3931 -0.2398
 4705SOL    HW114404   2.081   4.951   0.096 -1.9546  1.3278  0.9286
 4705SOL    HW214405   2.110   5.019   0.241  1.4047  0.9198  0.5268
 4706SOL     OW14406   2.019   4.277   0.127 -0.1599  0.9005 -0.4188
 4706SOL    HW114407   2.066   4.188   0.133 -1.1416  0.4107  0.3260
 4706SOL    HW214408   1.937   4.268   0.072  1.1958  2.0484 -2.7664
 4707SOL     OW14409   4.762   2.943   5.052  0.2105  0.4429  0.3979
 4707SOL    HW114410   4.763   2.915   5.147 -2.6969 -1.0247  0.1085
 4707SOL    HW214411   4.778   3.042   5.046 -1.3077  0.8975  2.6120
 4708SOL     OW14412   2.305   0.277   1.012  0.6636  0.1701 -0.6955
 4708SOL    HW114413   2.387   0.239   0.968  0.6428  0.0379 -0.6203
 4708SOL    HW214414   2.310   0.377   1.011  0.9809  0.1568 -0.3926
 4709SOL     OW14415   4.757   3.858   5.529 -0.1862 -0.5923  0.2131
 4709SOL    HW114416   4.731   3.898   5.617  0.6819 -0.2921  0.3365
 4709SOL    HW214417   4.855   3.868   5.515  0.0346 -2.5634  0.1675
 4710SOL     OW14418   0.561   2.167   4.881  0.3331  0.2730 -0.1658
 4710SOL    HW114419   0.609   2.253   4.864 -0.1664  0.4041 -0.9263
 4710SOL    HW214420   0.597   2.096   4.821  0.8146 -0.0887  0.5300
 4711SOL     OW14421   5.803   1.568   4.058  0.1091  0.2633  0.1908
 4711SOL    HW114422   5.800   1.663   4.027 -0.9636  0.1114 -0.2229
 4711SOL    HW214423   5.841   1.564   4.150 -0.8372  1.2285  0.6479
 4712SOL     OW14424   4.934   2.699   4.919  0.0818 -0.2643  0.2004
 4712SOL    HW114425   4.883   2.785   4.921 -0.7661 -0.7672  0.6935
 4712SOL    HW214426   5.032   2.719   4.930 -0.0999  0.6375  0.2864
 4713SOL     OW14427   3.687   3.421   1.060  0.5055 -0.2414 -0.2484
 4713SOL    HW114428   3.783   3.433   1.085  0.3003 -1.6456  1.4289
 4713SOL    HW214429   3.639   3.509   1.065  1.2639  0.1180  0.9405
 4714SOL     OW14430   0.140   1.396   2.584  0.5360  0.0633  0.4644
 4714SOL    HW114431   0.105   1.454   2.511 -0.2206 -1.1664 -0.1989
 4714SOL    HW214432   0.142   1.446   2.670  2.6806  1.9815 -0.5996
 4715SOL     OW14433   3.960   3.228   2.330  0.1570 -0.7549  0.4442
 4715SOL    HW114434   4.047   3.257   2.370 -0.1930  0.1288  0.5815
 4715SOL    HW214435   3.969   3.225   2.230  0.5045 -1.2184  0.4861
 4716SOL     OW14436   0.477   3.626   2.372  0.3781 -0.0398 -0.0560
 4716SOL    HW114437   0.470   3.717   2.332  1.2468 -0.5668 -1.4647
 4716SOL    HW214438   0.573   3.597   2.374 -0.0180 -1.6532 -1.3889
 4717SOL     OW14439   4.681   0.752   3.150  0.1478  0.4985  0.7316
 4717SOL    HW114440   4.770   0.791   3.173  0.9048 -0.2339 -0.8943
 4717SOL    HW214441   4.689   0.654   3.136 -0.0070  0.9318 -3.4382
 4718SOL     OW14442   3.522   4.953   5.141 -0.1200  1.1365  0.1026
 4718SOL    HW114443   3.497   4.878   5.080 -0.3486  0.9159  0.4598
 4718SOL    HW214444   3.458   5.029   5.127  0.5963  1.5828 -0.8282
 4719SOL     OW14445   2.322   4.694   4.662  0.1282  0.2013 -0.1969
 4719SOL    HW114446   2.404   4.731   4.705 -0.4991  0.7023  0.6023
 4719SOL    HW214447   2.248   4.689   4.729 -0.2291 -1.1567 -0.6503
 4720SOL     OW14448   4.895   4.872   3.507 -0.7913  0.4607  0.0142
 4720SOL    HW114449   4.931   4.829   3.424 -0.1022  0.0714  0.5072
 4720SOL    HW214450   4.922   4.968   3.509  1.2966 -0.0942  0.9515
 4721SOL     OW14451   0.558   4.384   3.153 -0.1029  0.1742  0.1242
 4721SOL    HW114452   0.630   4.324   3.189  0.4824  0.0735 -1.1611
 4721SOL    HW214453   0.590   4.478   3.152 -0.7379  0.4328  1.3989
 4722SOL     OW14454   5.694   3.117   0.646 -0.0323 -0.1545 -0.3256
 4722SOL    HW114455   5.666   3.141   0.739  0.0075 -0.4099 -0.2465
 4722SOL    HW214456   5.646   3.035   0.617 -0.2777  0.1020 -0.6511
 4723SOL     OW14457   0.915   3.761   2.709 -0.2672  0.3217  0.9632
 4723SOL    HW114458   0.869   3.701   2.775 -0.5567 -0.8413 -0.2381
 4723SOL    HW214459   1.014   3.743   2.712 -0.4909 -1.4473 -0.4938
 4724SOL     OW14460   2.037   2.018   5.194 -0.0531 -0.7780  0.4107
 4724SOL    HW114461   2.112   1.969   5.237 -0.9986 -1.5008  1.2895
 4724SOL    HW214462   1.957   1.958   5.187 -0.5041 -0.0981 -0.6882
 4725SOL     OW14463   0.477   4.576   0.559 -0.2326  0.3757  0.4857
 4725SOL    HW114464   0.414   4.523   0.616 -1.7723  0.8681 -0.7041
 4725SOL    HW214465   0.432   4.603   0.474  1.8538  0.0590 -0.8032
 4726SOL     OW14466   2.219   0.442   0.692 -0.3710  0.0450  0.0145
 4726SOL    HW114467   2.145   0.509   0.697 -1.4974 -1.1051 -0.6921
 4726SOL    HW214468   2.181   0.351   0.673  1.1991 -0.6377 -0.0198
 4727SOL     OW14469   5.165   3.051   4.571  0.0061  0.5927  0.0990
 4727SOL    HW114470   5.084   3.083   4.521  0.4120  0.7610 -0.4521
 4727SOL    HW214471   5.160   2.952   4.583 -0.7686  0.7167  0.9456
 4728SOL     OW14472   5.887   2.526   5.102  0.2957  0.2045 -0.1025
 4728SOL    HW114473   5.855   2.490   5.014  0.6035 -0.5953  0.1079
 4728SOL    HW214474   5.977   2.488   5.123  0.1481  0.2535  0.6443
 4729SOL     OW14475   1.972   1.624   1.970 -0.0469  0.4652 -0.0517
 4729SOL    HW114476   1.920   1.634   1.885 -1.2152 -3.7163 -0.0298
 4729SOL    HW214477   1.914   1.647   2.048 -0.0054  1.1986 -0.2296
 4730SOL     OW14478   4.624   4.708   2.607 -0.4008 -0.0818 -0.0686
 4730SOL    HW114479   4.673   4.639   2.553 -1.5965 -0.7292 -0.3717
 4730SOL    HW214480   4.590   4.779   2.545  0.7051  0.7166  0.2255
 4731SOL     OW14481   3.933   5.038   2.721 -0.1372 -0.4936 -0.4538
 4731SOL    HW114482   3.853   4.994   2.760 -0.5124  0.5408 -0.0166
 4731SOL    HW214483   4.016   4.994   2.756 -0.3810  1.5740  3.1656
 4732SOL     OW14484   4.934   4.109   1.855 -0.1105  0.4877 -0.2248
 4732SOL    HW114485   5.012   4.168   1.832  0.3433 -0.5825 -1.4924
 4732SOL    HW214486   4.962   4.043   1.925 -0.7399  1.9680  1.5360
 4733SOL     OW14487   0.424   3.456   2.593 -0.3857 -0.0003 -0.1430
 4733SOL    HW114488   0.420   3.527   2.523 -1.1437 -0.5022 -0.6306
 4733SOL    HW214489   0.499   3.475   2.656 -1.2791  1.8466  0.4195
 4734SOL     OW14490   2.468   2.313   3.143 -0.0743  0.3759 -0.0092
 4734SOL    HW114491   2.378   2.270   3.149  0.0820  0.0014 -0.2603
 4734SOL    HW214492   2.468   2.398   3.195 -0.2809 -0.1146  0.8209
 4735SOL     OW14493   2.814   1.307   3.432 -0.4161 -0.1910  0.3040
 4735SOL    HW114494   2.783   1.401   3.420 -1.1783 -0.5339 -0.5607
 4735SOL    HW214495   2.906   1.296   3.395  0.1181  0.4474  1.3835
 4736SOL     OW14496   4.750   1.841   5.227 -0.4117  0.4090 -0.3315
 4736SOL    HW114497   4.652   1.830   5.211 -0.2884  0.2621 -0.9949
 4736SOL    HW214498   4.796   1.753   5.216 -0.3283  0.2593  0.9786
 4737SOL     OW14499   2.349   1.900   4.850 -0.5751 -0.0785 -0.1930
 4737SOL    HW114500   2.297   1.985   4.855  0.2281  0.3926  0.5387
 4737SOL    HW214501   2.339   1.850   4.936 -0.9089 -0.6421 -0.5566
 4738SOL     OW14502   2.884   5.927   3.751  0.2808 -0.3210  0.0630
 4738SOL    HW114503   2.953   5.964   3.813  2.1662 -2.4662 -0.5927
 4738SOL    HW214504   2.914   5.942   3.656 -0.4070 -0.8480 -0.2464
 4739SOL     OW14505   5.814   1.657   1.430 -0.0824 -0.1392 -0.3656
 4739SOL    HW114506   5.776   1.749   1.432 -1.5232 -0.7174  1.6103
 4739SOL    HW214507   5.787   1.612   1.345 -2.7145 -0.0293  0.3451
 4740SOL     OW14508   2.750   0.320   3.286 -0.4633 -0.1107 -0.0995
 4740SOL    HW114509   2.810   0.250   3.247 -0.3691  0.2674 -0.6416
 4740SOL    HW214510   2.708   0.285   3.370 -0.4110 -0.8149 -0.3616
 4741SOL     OW14511   0.386   5.037   4.991  0.1778  0.3229 -0.1963
 4741SOL    HW114512   0.359   5.066   5.083  3.7171  1.1065  0.7405
 4741SOL    HW214513   0.385   4.938   4.985 -1.3577  0.2887  0.1988
 4742SOL     OW14514   2.678   5.051   2.938  0.2985 -0.4411 -0.7299
 4742SOL    HW114515   2.742   5.112   2.891  0.7918  0.2873  0.8224
 4742SOL    HW214516   2.725   5.003   3.012 -0.8222 -0.2329  0.1465
 4743SOL     OW14517   2.122   5.036   1.945 -0.0959 -0.3601  0.2203
 4743SOL    HW114518   2.151   5.103   1.876  0.5734 -0.5848  0.2738
 4743SOL    HW214519   2.201   4.982   1.973 -0.7782 -1.7546 -0.4437
 4744SOL     OW14520   2.772   2.748   0.258 -0.5086  0.4757  0.0024
 4744SOL    HW114521   2.691   2.720   0.206 -0.3953  0.6370 -0.2610
 4744SOL    HW214522   2.819   2.821   0.209 -0.0453  0.1896  0.0162
 4745SOL     OW14523   1.281   5.500   0.959 -0.0527 -0.0722 -0.3175
 4745SOL    HW114524   1.361   5.515   1.016 -0.6370  1.9482  0.0411
 4745SOL    HW214525   1.297   5.421   0.899  0.9172 -1.6909  1.9460
 4746SOL     OW14526   2.183   0.537   5.265 -0.2171  0.8837 -0.7818
 4746SOL    HW114527   2.274   0.537   5.223  0.3172 -0.3690  0.3003
 4746SOL    HW214528   2.114   0.537   5.193  0.6053  2.2891 -1.6234
 4747SOL     OW14529   3.963   5.648   0.201 -0.0317  0.2370  0.1410
 4747SOL    HW114530   3.874   5.667   0.243  0.3123  0.3055  0.8588
 4747SOL    HW214531   3.979   5.549   0.200 -0.7026  0.1226 -1.2446
 4748SOL     OW14532   0.677   0.229   2.833  0.5028 -0.0420  0.6789
 4748SOL    HW114533   0.693   0.271   2.744 -1.3020  0.5222  0.5739
 4748SOL    HW214534   0.725   0.281   2.904  0.6963  0.4245  0.2088
 4749SOL     OW14535   0.082   3.137   4.316 -0.0768 -0.3131 -0.1651
 4749SOL    HW114536   0.055   3.232   4.334  0.0252 -0.1960 -0.6218
 4749SOL    HW214537   0.168   3.118   4.364  1.1421  0.5449 -1.9030
 4750SOL     OW14538   3.202   5.962   3.711 -0.0447 -0.4449  0.0375
 4750SOL    HW114539   3.167   5.906   3.786 -1.4384 -0.1623 -0.3784
 4750SOL    HW214540   3.292   5.928   3.683 -0.5491 -2.0430  0.2474
 4751SOL     OW14541   0.176   2.934   1.318  0.2001 -0.3293  0.2716
 4751SOL    HW114542   0.241   2.959   1.389 -0.3388  1.4615  0.1964
 4751SOL    HW214543   0.223   2.928   1.230  0.6313 -1.2308  0.5533
 4752SOL     OW14544   4.139   5.391   3.520 -0.2598 -0.5711  0.6146
 4752SOL    HW114545   4.146   5.491   3.520 -2.0988 -0.3757 -0.8238
 4752SOL    HW214546   4.162   5.356   3.430  0.1408 -1.4446  1.0441
 4753SOL     OW14547   4.749   2.963   0.822 -0.4248  0.5975  0.1625
 4753SOL    HW114548   4.840   2.936   0.854 -0.6732 -0.0336  0.3396
 4753SOL    HW214549   4.679   2.925   0.883 -0.8835 -0.2107 -0.8386
 4754SOL     OW14550   3.403   4.968   0.235 -0.3539 -0.3846  0.4487
 4754SOL    HW114551   3.421   4.877   0.200 -1.2886 -0.9620  1.3985
 4754SOL    HW214552   3.319   5.004   0.194  0.3802  0.3501 -0.4458
 4755SOL     OW14553   2.598   2.092   1.349  0.3400  0.0575  0.2135
 4755SOL    HW114554   2.614   2.079   1.447 -0.3546  1.0904  0.4736
 4755SOL    HW214555   2.501   2.112   1.333  0.7319  1.5443 -0.4856
 4756SOL     OW14556   2.601   3.420   1.780  0.2247 -0.0387  0.3682
 4756SOL    HW114557   2.615   3.403   1.877 -0.9338 -0.6567  0.4534
 4756SOL    HW214558   2.687   3.409   1.731  0.4727 -1.5493  1.0929
 4757SOL     OW14559   0.944   5.004   2.398  0.2488 -0.0332 -0.0630
 4757SOL    HW114560   0.958   4.911   2.365  1.6895 -0.1894  0.8863
 4757SOL    HW214561   0.847   5.027   2.394  0.1511 -0.6583 -2.6409
 4758SOL     OW14562   0.362   3.678   5.895 -0.1653  0.1476 -0.0951
 4758SOL    HW114563   0.294   3.614   5.930  1.8419 -1.7613  0.5534
 4758SOL    HW214564   0.453   3.643   5.915  1.0382  2.7554 -0.6548
 4759SOL     OW14565   0.303   1.792   2.087  0.1827  0.2933 -0.1005
 4759SOL    HW114566   0.216   1.757   2.054 -0.4258  0.7035  1.0208
 4759SOL    HW214567   0.342   1.727   2.153 -0.4718  1.2154  1.2355
 4760SOL     OW14568   0.808   1.098   2.671 -0.1069  0.2466  0.3595
 4760SOL    HW114569   0.729   1.065   2.620 -1.6191 -0.8734  3.1877
 4760SOL    HW214570   0.834   1.031   2.740  2.9001  0.9276  0.0454
 4761SOL     OW14571   2.416   2.366   1.481 -0.2196  0.1630  0.6328
 4761SOL    HW114572   2.375   2.444   1.527 -1.4553 -0.5966  0.8625
 4761SOL    HW214573   2.496   2.334   1.533  0.2225  1.1840  0.5938
 4762SOL     OW14574   5.878   5.734   1.369  0.3482 -0.0518  0.1238
 4762SOL    HW114575   5.903   5.778   1.283  0.7826  2.9093  1.6285
 4762SOL    HW214576   5.860   5.804   1.438 -0.7692 -2.2989  2.2679
 4763SOL     OW14577   5.482   2.637   5.144  0.1526 -0.1098  0.6218
 4763SOL    HW114578   5.503   2.555   5.092  0.4926 -0.6752  1.6180
 4763SOL    HW214579   5.535   2.637   5.229 -1.8715 -0.2699  1.9669
 4764SOL     OW14580   0.965   5.222   5.546 -0.5198 -0.0429  0.2231
 4764SOL    HW114581   0.964   5.321   5.534 -1.2166 -0.1176 -0.4059
 4764SOL    HW214582   1.056   5.193   5.576  0.7240  0.4692 -2.7019
 4765SOL     OW14583   0.375   5.863   1.451 -0.1990 -0.3542 -0.1846
 4765SOL    HW114584   0.441   5.931   1.417 -0.7417 -0.7300 -2.1502
 4765SOL    HW214585   0.298   5.909   1.493  0.4518  0.1565  0.4730
 4766SOL     OW14586   2.213   4.665   5.276 -0.7499 -0.0293 -0.3055
 4766SOL    HW114587   2.141   4.732   5.261 -3.3349 -1.9825  2.4155
 4766SOL    HW214588   2.264   4.687   5.359  1.1283  0.6855 -1.5783
 4767SOL     OW14589   5.003   1.802   1.921 -0.1699  0.5342 -0.4839
 4767SOL    HW114590   5.010   1.793   2.020  1.8569 -0.1496 -0.6593
 4767SOL    HW214591   4.906   1.800   1.895 -0.6983 -0.4006  1.3653
 4768SOL     OW14592   2.430   2.063   2.187 -0.2619 -0.5575  0.9035
 4768SOL    HW114593   2.504   2.006   2.152 -0.6467  0.3197 -1.5086
 4768SOL    HW214594   2.348   2.049   2.132 -1.6521 -0.7854  2.9225
 4769SOL     OW14595   4.217   4.224   1.366  0.4050 -0.3018 -0.1080
 4769SOL    HW114596   4.194   4.307   1.418 -0.7212 -1.1726  0.8395
 4769SOL    HW214597   4.265   4.160   1.425  0.7290 -0.5755 -0.6620
 4770SOL     OW14598   1.399   2.800   3.102  0.3909  0.6661  0.5991
 4770SOL    HW114599   1.305   2.775   3.080 -0.2978  2.9766  0.7326
 4770SOL    HW214600   1.431   2.742   3.177 -0.4331 -1.0313 -0.2988
 4771SOL     OW14601   4.627   2.124   1.208 -0.6973 -1.1977 -0.4217
 4771SOL    HW114602   4.712   2.143   1.158 -0.6986 -0.9678 -0.3366
 4771SOL    HW214603   4.589   2.210   1.243  0.4857 -1.5564  1.9450
 4772SOL     OW14604   3.782   3.722   0.623  0.0507  0.1553  0.5656
 4772SOL    HW114605   3.711   3.770   0.675 -1.0195 -0.9685  0.2144
 4772SOL    HW214606   3.812   3.642   0.674 -0.0050 -0.1874  0.0629
 4773SOL     OW14607   5.214   4.952   5.670 -0.0864 -0.3646 -0.1319
 4773SOL    HW114608   5.180   4.883   5.734  0.1041  0.0200  0.3894
 4773SOL    HW214609   5.256   4.906   5.592 -1.8197 -0.8643 -0.8233
 4774SOL     OW14610   0.992   4.483   3.686  0.5226  0.5907  0.0313
 4774SOL    HW114611   1.046   4.518   3.763 -0.1558  2.2331 -0.1892
 4774SOL    HW214612   0.993   4.550   3.612  1.1459 -0.9536 -1.4135
 4775SOL     OW14613   3.039   3.709   1.473 -0.2298 -0.3825  0.0481
 4775SOL    HW114614   2.984   3.788   1.499 -0.5452 -0.8401  0.8308
 4775SOL    HW214615   3.070   3.718   1.379 -0.5243  0.5186  0.0351
 4776SOL     OW14616   0.296   4.023   5.041  0.1165 -0.0213 -0.2101
 4776SOL    HW114617   0.279   4.121   5.051 -2.3493 -0.2659 -1.1891
 4776SOL    HW214618   0.251   3.974   5.116  1.0681 -0.4501  0.0983
 4777SOL     OW14619   5.578   3.098   5.949 -0.3368  0.3552  0.3907
 4777SOL    HW114620   5.528   3.013   5.931  0.8020 -0.0205 -1.2224
 4777SOL    HW214621   5.517   3.176   5.937 -0.8680 -0.1515 -0.2655
 4778SOL     OW14622   2.427   5.644   2.490  0.0291 -0.0534 -0.2287
 4778SOL    HW114623   2.501   5.656   2.424 -0.8439 -0.5887 -1.3361
 4778SOL    HW214624   2.363   5.721   2.483  1.0378  1.0286  1.5448
 4779SOL     OW14625   4.598   3.618   5.662 -0.5295 -0.4383  0.4507
 4779SOL    HW114626   4.613   3.711   5.625 -0.5412 -0.1707  1.1137
 4779SOL    HW214627   4.683   3.585   5.703 -0.3167 -1.0230 -0.4164
 4780SOL     OW14628   2.306   4.753   5.540  0.2657 -0.0879  0.0082
 4780SOL    HW114629   2.287   4.690   5.615  1.3718 -0.2564  0.1650
 4780SOL    HW214630   2.401   4.741   5.509  0.2715  0.9824 -0.4445
 4781SOL     OW14631   2.327   0.393   0.180  0.0170 -0.0538 -0.1277
 4781SOL    HW114632   2.286   0.449   0.108  1.0960  2.0374  0.7865
 4781SOL    HW214633   2.258   0.373   0.250 -0.2772  0.5727 -0.2319
 4782SOL     OW14634   0.784   0.233   5.324 -0.3818  0.3775  0.0325
 4782SOL    HW114635   0.791   0.167   5.250  3.1501  0.2662  0.2988
 4782SOL    HW214636   0.792   0.326   5.288 -0.5215  0.4076  0.0809
 4783SOL     OW14637   0.209   2.929   0.612  1.0531  0.0275 -0.2444
 4783SOL    HW114638   0.302   2.921   0.577  1.1321 -1.2038  0.2034
 4783SOL    HW214639   0.179   2.840   0.648 -0.7130  0.1082 -1.4294
 4784SOL     OW14640   1.887   1.829   0.765 -0.1494  0.0215  0.0993
 4784SOL    HW114641   1.828   1.825   0.685  0.5461 -0.4132 -0.4114
 4784SOL    HW214642   1.951   1.751   0.763  0.3939  0.4410  0.6590
 4785SOL     OW14643   1.669   2.855   0.700 -0.2998  0.0121 -0.1990
 4785SOL    HW114644   1.637   2.896   0.786 -0.7013  0.6195 -0.6297
 4785SOL    HW214645   1.750   2.800   0.718  0.0589  0.7253  0.4577
 4786SOL     OW14646   3.560   1.064   5.669 -0.8260 -0.3176 -0.0372
 4786SOL    HW114647   3.507   1.147   5.688 -0.4607 -0.1218  0.1380
 4786SOL    HW214648   3.604   1.072   5.580 -0.6500 -0.2498  0.0560
 4787SOL     OW14649   1.088   4.511   5.758 -0.1135  0.6343  0.5150
 4787SOL    HW114650   1.184   4.485   5.752 -0.1473  0.6420 -0.0849
 4787SOL    HW214651   1.044   4.498   5.669 -0.6865  0.5549  0.8048
 4788SOL     OW14652   4.920   4.382   5.873 -0.2595  0.1299  0.2081
 4788SOL    HW114653   4.851   4.422   5.813 -1.2778 -1.7862  0.0260
 4788SOL    HW214654   4.931   4.286   5.851 -1.2076 -0.8718  3.5216
 4789SOL     OW14655   1.047   4.440   2.055  0.5273  0.3345 -0.0181
 4789SOL    HW114656   0.988   4.431   2.136  1.1521 -3.2466  0.1923
 4789SOL    HW214657   1.143   4.440   2.084  0.7381 -0.3053 -0.6960
 4790SOL     OW14658   5.233   0.255   1.527  0.5062  0.4367  0.5144
 4790SOL    HW114659   5.256   0.160   1.506  1.4817  0.6572  0.5177
 4790SOL    HW214660   5.300   0.291   1.592  0.2383  1.1749  0.3846
 4791SOL     OW14661   2.430   0.588   4.771 -0.1208  0.5487  0.5151
 4791SOL    HW114662   2.373   0.663   4.802 -0.6795  0.4568 -0.2769
 4791SOL    HW214663   2.382   0.536   4.701  0.0323 -0.8735  1.4100
 4792SOL     OW14664   4.362   5.370   4.677  0.4051 -0.0120  0.5774
 4792SOL    HW114665   4.439   5.415   4.633 -0.0315  0.3751  0.1989
 4792SOL    HW214666   4.323   5.432   4.746  1.7626 -1.0121  2.3339
 4793SOL     OW14667   1.070   4.931   1.878 -0.4258  0.1850 -0.0845
 4793SOL    HW114668   1.105   4.993   1.806 -1.8336  1.0907 -0.0284
 4793SOL    HW214669   0.977   4.957   1.901 -0.3226 -0.6935  1.4331
 4794SOL     OW14670   3.446   5.536   2.138  0.8475  0.5170 -0.4015
 4794SOL    HW114671   3.464   5.451   2.186  1.8177  0.6231 -0.5498
 4794SOL    HW214672   3.477   5.528   2.043 -2.2437 -0.1635 -1.4822
 4795SOL     OW14673   3.345   0.429   5.458 -0.8683  0.3089  0.3610
 4795SOL    HW114674   3.361   0.486   5.539 -0.2040  0.0784  0.4008
 4795SOL    HW214675   3.343   0.333   5.485 -2.2866  0.3159  0.3374
 4796SOL     OW14676   2.287   1.501   1.252 -0.0936 -0.8390 -0.1028
 4796SOL    HW114677   2.218   1.557   1.206 -0.3910 -0.4944  0.7227
 4796SOL    HW214678   2.315   1.426   1.193 -1.7796 -1.4692 -0.1665
 4797SOL     OW14679   2.409   4.271   5.801  0.2509 -0.1071  0.1855
 4797SOL    HW114680   2.347   4.350   5.807  0.9361  0.4190  0.5010
 4797SOL    HW214681   2.361   4.189   5.832 -0.0749  0.4286  1.1476
 4798SOL     OW14682   1.482   0.764   4.960  0.4432 -0.0072 -0.2754
 4798SOL    HW114683   1.460   0.816   4.878 -2.4541  0.7046  0.8504
 4798SOL    HW214684   1.555   0.810   5.011 -1.1124  2.2692  0.0045
 4799SOL     OW14685   4.672   5.066   5.576  0.1658 -0.4111 -0.2498
 4799SOL    HW114686   4.629   4.980   5.601 -1.4747 -0.2115 -2.0751
 4799SOL    HW214687   4.749   5.049   5.514 -0.0410 -0.5900 -0.4589
 4800SOL     OW14688   4.337   2.819   2.170  0.2612  0.6649  0.5094
 4800SOL    HW114689   4.375   2.726   2.173  1.6430  1.1576 -0.6176
 4800SOL    HW214690   4.266   2.824   2.100  1.6183  0.9186 -0.9023
 4801SOL     OW14691   2.683   1.336   4.273  0.2186 -0.4384 -0.2404
 4801SOL    HW114692   2.712   1.382   4.189 -1.3406  0.3249 -0.4091
 4801SOL    HW214693   2.614   1.267   4.251  0.2403 -0.6531  0.3547
 4802SOL     OW14694   3.463   3.977   4.022 -0.6068  0.2747  0.1328
 4802SOL    HW114695   3.438   4.035   4.100  0.6847  1.4183 -0.2506
 4802SOL    HW214696   3.528   3.907   4.052  2.4393  2.6352 -0.3205
 4803SOL     OW14697   3.110   4.032   4.495 -0.0427 -0.3139 -0.2199
 4803SOL    HW114698   3.130   3.942   4.533 -0.5648 -0.2232  0.2823
 4803SOL    HW214699   3.024   4.067   4.534  0.4160  0.6195 -0.0215
 4804SOL     OW14700   2.280   5.946   0.614  0.0479  0.8627 -0.0014
 4804SOL    HW114701   2.323   5.855   0.605 -2.4355 -0.2727 -1.4157
 4804SOL    HW214702   2.255   5.962   0.709 -0.5622 -0.5078  0.0939
 4805SOL     OW14703   5.228   3.481   2.899 -0.2037 -0.2131 -0.5495
 4805SOL    HW114704   5.212   3.580   2.906  0.3149 -0.2029  0.8007
 4805SOL    HW214705   5.234   3.442   2.990  1.5018 -1.1867 -1.0384
 4806SOL     OW14706   0.810   3.405   2.474  0.0071  0.0295 -0.0964
 4806SOL    HW114707   0.750   3.342   2.424 -0.7106 -0.0399  0.8212
 4806SOL    HW214708   0.899   3.362   2.488 -0.4442 -0.7610  0.4347
 4807SOL     OW14709   2.225   3.080   4.662  0.4240  0.7089 -0.2882
 4807SOL    HW114710   2.253   3.130   4.580 -0.2080  1.9558  0.2314
 4807SOL    HW214711   2.174   2.999   4.635  1.9735 -0.0269 -1.1633
 4808SOL     OW14712   3.573   2.030   3.574  0.1386 -0.0094 -0.0827
 4808SOL    HW114713   3.649   2.043   3.638 -0.4234 -2.6236  1.2091
 4808SOL    HW214714   3.499   2.093   3.597  1.3726  1.7286 -0.6202
 4809SOL     OW14715   1.444   0.747   2.034  0.1868  0.0117 -0.1963
 4809SOL    HW114716   1.524   0.716   2.084 -1.2495  0.3501  2.4575
 4809SOL    HW214717   1.415   0.676   1.970  1.3074 -0.9826  0.3709
 4810SOL     OW14718   2.247   0.521   5.913  0.0381  0.5074 -0.7850
 4810SOL    HW114719   2.237   0.461   5.834  1.7587 -0.0740 -0.6015
 4810SOL    HW214720   2.157   0.552   5.944 -0.7756 -0.8346 -1.7522
 4811SOL     OW14721   0.743   4.724   5.015 -0.0683 -0.0736 -0.0781
 4811SOL    HW114722   0.719   4.776   5.097  2.2499 -0.0829  0.6739
 4811SOL    HW214723   0.786   4.638   5.042  0.1281 -0.3776 -1.3171
 4812SOL     OW14724   5.713   2.540   5.692  0.2980 -0.1900  0.0276
 4812SOL    HW114725   5.802   2.577   5.666  0.4894 -0.4083  0.3654
 4812SOL    HW214726   5.673   2.491   5.614  0.8847 -0.8669  0.1463
 4813SOL     OW14727   1.848   2.426   4.480 -0.2943 -0.1872 -0.0737
 4813SOL    HW114728   1.896   2.416   4.567 -0.8364  0.3144  0.2940
 4813SOL    HW214729   1.792   2.509   4.482  2.0721  1.6399 -2.0323
 4814SOL     OW14730   4.934   2.737   3.833  0.1329  0.1376 -0.5422
 4814SOL    HW114731   5.002   2.741   3.906 -0.6128  2.9946  0.1294
 4814SOL    HW214732   4.933   2.825   3.785 -2.3654 -0.2018 -1.2153
 4815SOL     OW14733   1.425   3.007   2.194 -0.2963  0.4202  0.0940
 4815SOL    HW114734   1.327   2.998   2.178 -0.2888 -1.8948  1.0775
 4815SOL    HW214735   1.443   3.002   2.292  0.9181 -0.5619 -0.1618
 4816SOL     OW14736   1.807   5.864   2.342 -0.0536 -0.2810  0.3126
 4816SOL    HW114737   1.858   5.849   2.427  0.3009 -0.1756  0.1223
 4816SOL    HW214738   1.870   5.859   2.265 -0.2810  0.1701  0.0949
 4817SOL     OW14739   5.644   0.157   5.061  0.5815  0.1417 -0.0164
 4817SOL    HW114740   5.725   0.129   5.009  0.2536  1.0885 -1.0787
 4817SOL    HW214741   5.628   0.092   5.135  2.4373  0.0452  0.3634
 4818SOL     OW14742   4.114   1.355   2.851 -0.5339  0.0247  0.3542
 4818SOL    HW114743   4.182   1.301   2.901  0.4116  0.3087 -0.5742
 4818SOL    HW214744   4.160   1.430   2.804 -1.5750  0.5229  0.1058
 4819SOL     OW14745   3.975   4.638   5.665  0.2376  0.3387 -0.7144
 4819SOL    HW114746   4.054   4.601   5.714 -0.1023 -0.5576 -0.8317
 4819SOL    HW214747   4.006   4.698   5.592  0.8914 -1.3025 -1.8340
 4820SOL     OW14748   4.624   4.737   3.234  0.0431 -0.3637  0.2738
 4820SOL    HW114749   4.566   4.814   3.206 -0.7300 -0.9819  0.1601
 4820SOL    HW214750   4.680   4.708   3.157  0.0771 -0.1519  0.2165
 4821SOL     OW14751   5.830   0.408   3.787  0.2030  0.4356  0.0091
 4821SOL    HW114752   5.841   0.506   3.805  0.5882 -0.0688  2.9096
 4821SOL    HW214753   5.734   0.389   3.765 -0.0098  1.3672  0.0870
 4822SOL     OW14754   0.998   3.646   0.234  0.2194  0.9867 -0.3433
 4822SOL    HW114755   1.034   3.729   0.191 -2.6698  1.8205 -1.4231
 4822SOL    HW214756   0.955   3.588   0.165  1.2713 -0.9546  0.5533
 4823SOL     OW14757   1.552   4.409   0.953  0.6367 -0.0425 -0.4375
 4823SOL    HW114758   1.580   4.490   1.006  0.7422 -1.6811  2.2239
 4823SOL    HW214759   1.478   4.434   0.891 -0.4165  1.7989  1.4234
 4824SOL     OW14760   0.611   5.835   4.334 -0.3364 -0.2315 -0.0598
 4824SOL    HW114761   0.639   5.910   4.275  0.6416  0.9069  1.7415
 4824SOL    HW214762   0.518   5.852   4.367  0.4914  1.1904  1.7249
 4825SOL     OW14763   0.743   5.619   4.977  0.1805 -0.3333  0.2178
 4825SOL    HW114764   0.791   5.609   4.890 -0.5134  1.1216 -0.3678
 4825SOL    HW214765   0.796   5.576   5.050  1.7246  0.0993 -0.6026
 4826SOL     OW14766   5.279   0.929   3.475  0.3250  0.4250  0.0648
 4826SOL    HW114767   5.222   1.000   3.434 -0.7007 -1.2002 -1.4771
 4826SOL    HW214768   5.312   0.867   3.403  2.3995  0.1626  1.1808
 4827SOL     OW14769   3.355   3.751   5.715 -0.2672 -0.1434 -0.3658
 4827SOL    HW114770   3.436   3.800   5.749  0.1267 -0.4299 -0.8811
 4827SOL    HW214771   3.345   3.768   5.617 -0.9931  0.1096 -0.2523
 4828SOL     OW14772   0.433   0.047   2.528  0.0836 -0.1217 -0.3752
 4828SOL    HW114773   0.435   0.033   2.628  2.0309  3.0504  0.1656
 4828SOL    HW214774   0.516   0.009   2.488  0.6718  1.0395 -0.3105
 4829SOL     OW14775   5.280   5.345   4.453  0.0487  0.0588 -0.2621
 4829SOL    HW114776   5.186   5.347   4.420  0.6878 -0.8501 -2.2985
 4829SOL    HW214777   5.308   5.436   4.481 -1.8357  0.1021  1.6627
 4830SOL     OW14778   0.383   3.485   0.472  0.7083  0.3089  0.7696
 4830SOL    HW114779   0.466   3.526   0.434  1.0201 -1.0851 -0.1373
 4830SOL    HW214780   0.387   3.490   0.572  1.1098  1.7030  0.7073
 4831SOL     OW14781   4.616   1.624   0.366 -0.3195 -0.0068 -0.1621
 4831SOL    HW114782   4.639   1.639   0.270 -0.5111 -1.4948 -0.4660
 4831SOL    HW214783   4.577   1.708   0.404 -2.2635  0.0139 -1.9825
 4832SOL     OW14784   1.743   5.253   0.581 -0.5171  0.1199  0.2235
 4832SOL    HW114785   1.782   5.311   0.510 -0.0188  0.2858  0.6212
 4832SOL    HW214786   1.817   5.215   0.637 -0.9431  0.6873  1.1944
 4833SOL     OW14787   1.531   0.397   0.323 -0.4492  0.5129  0.0721
 4833SOL    HW114788   1.472   0.397   0.404  0.3270 -0.9530  0.6854
 4833SOL    HW214789   1.620   0.436   0.348 -0.6613  1.3448 -0.4533
 4834SOL     OW14790   3.513   4.530   1.587 -0.3364  0.6143  0.4183
 4834SOL    HW114791   3.516   4.598   1.514 -0.8477  0.7417  0.5168
 4834SOL    HW214792   3.565   4.449   1.558 -2.4653 -0.3082 -1.0752
 4835SOL     OW14793   3.604   4.451   4.751 -0.0072 -0.1968  0.4246
 4835SOL    HW114794   3.641   4.512   4.821 -0.4719 -0.3416  0.8077
 4835SOL    HW214795   3.668   4.376   4.735  0.9468  0.8140 -0.6435
 4836SOL     OW14796   0.742   5.721   3.289 -0.0580  0.2700 -0.2838
 4836SOL    HW114797   0.662   5.717   3.348 -1.2163  0.5691 -1.7608
 4836SOL    HW214798   0.727   5.789   3.217  1.0537 -0.4701 -1.2564
 4837SOL     OW14799   2.025   4.355   1.058  0.0117  0.2013 -0.4890
 4837SOL    HW114800   2.069   4.342   1.147  0.4373 -2.9745 -1.0195
 4837SOL    HW214801   2.081   4.312   0.987 -0.4725  2.3796 -2.3056
 4838SOL     OW14802   0.453   0.584   2.577 -0.8773 -0.4290  0.5096
 4838SOL    HW114803   0.500   0.637   2.507 -0.0920 -0.0162  1.3234
 4838SOL    HW214804   0.447   0.489   2.549  0.6891 -0.5394  0.5021
 4839SOL     OW14805   1.465   1.970   2.212 -0.2624  0.2102  0.0113
 4839SOL    HW114806   1.477   1.872   2.227  1.0275  0.5822  1.6878
 4839SOL    HW214807   1.408   2.009   2.284  0.5633  0.9334  0.3054
 4840SOL     OW14808   5.673   4.960   1.178 -0.7968  0.4632 -0.4999
 4840SOL    HW114809   5.599   4.995   1.236 -0.4346 -1.9440  1.6065
 4840SOL    HW214810   5.636   4.892   1.115 -0.4478 -0.7758  0.5858
 4841SOL     OW14811   3.348   5.778   0.348  0.1964  0.3897 -0.1883
 4841SOL    HW114812   3.409   5.736   0.415 -0.5129  0.1563  0.3190
 4841SOL    HW214813   3.295   5.851   0.393  1.5996  2.0450 -1.1018
 4842SOL     OW14814   3.724   0.031   3.802  0.2037 -0.1031 -0.1579
 4842SOL    HW114815   3.644  -0.026   3.823 -0.6555  0.7388 -1.0477
 4842SOL    HW214816   3.738   0.096   3.877 -0.5116  0.3377 -0.3906
 4843SOL     OW14817   1.786   3.194   1.982 -0.0705  0.3520  0.4551
 4843SOL    HW114818   1.783   3.245   1.896  0.8235  2.0235  1.3501
 4843SOL    HW214819   1.719   3.120   1.980  0.6207 -0.2821 -2.0350
 4844SOL     OW14820   2.062   2.373   5.470 -0.0430 -0.2455 -0.2287
 4844SOL    HW114821   2.150   2.419   5.463 -0.0359 -0.2735 -0.3336
 4844SOL    HW214822   1.989   2.441   5.476 -0.0347 -0.2205 -0.4143
 4845SOL     OW14823   3.116   3.204   5.478  0.2899  0.6663 -0.1492
 4845SOL    HW114824   3.071   3.238   5.561 -0.0635  0.6845 -0.3448
 4845SOL    HW214825   3.094   3.264   5.401  2.2332  1.7901  0.1278
 4846SOL     OW14826   1.665   3.669   3.389 -0.7105  0.5746  0.2203
 4846SOL    HW114827   1.583   3.722   3.411  0.3222  2.4007 -0.1528
 4846SOL    HW214828   1.719   3.718   3.320  1.6581  0.4153  1.8441
 4847SOL     OW14829   1.718   0.402   2.154 -0.0683 -0.1033 -0.6534
 4847SOL    HW114830   1.695   0.404   2.057 -0.3503  1.0923 -0.5792
 4847SOL    HW214831   1.683   0.484   2.199  0.2479 -0.5294  0.4239
 4848SOL     OW14832   1.120   4.282   3.495  0.1662  0.0882 -0.0023
 4848SOL    HW114833   1.052   4.264   3.423  1.8860  2.8522 -2.5563
 4848SOL    HW214834   1.078   4.334   3.569 -1.0584 -0.4812 -0.2706
 4849SOL     OW14835   2.163   1.701   0.728  0.6308  0.0119 -0.6563
 4849SOL    HW114836   2.220   1.647   0.791  1.4545 -0.5754 -1.8545
 4849SOL    HW214837   2.210   1.787   0.707 -1.3825  2.0881  2.4943
 4850SOL     OW14838   0.537   3.882   0.022 -0.1904  0.5358  0.1897
 4850SOL    HW114839   0.565   3.838   0.107  1.7627 -0.6252 -0.9621
 4850SOL    HW214840   0.511   3.813  -0.045 -1.2569  1.4021 -0.3178
 4851SOL     OW14841   1.564   3.403   4.607 -0.3717  0.1515  0.2541
 4851SOL    HW114842   1.652   3.363   4.579  0.6264  1.0412  1.9320
 4851SOL    HW214843   1.577   3.499   4.631 -1.4775 -0.0598  1.9176
 4852SOL     OW14844   2.027   5.223   3.568  0.0892  0.2648 -0.0405
 4852SOL    HW114845   2.100   5.156   3.557 -0.3883 -0.3282  0.3867
 4852SOL    HW214846   1.952   5.202   3.505 -0.5529 -0.2874  0.8826
 4853SOL     OW14847   0.955   3.446   4.813  0.1686  0.2963  0.5883
 4853SOL    HW114848   0.952   3.485   4.905  1.4909  1.2816  0.2355
 4853SOL    HW214849   1.049   3.436   4.783 -0.2136 -0.9746 -0.2833
 4854SOL     OW14850   0.503   4.221   5.360  0.4152 -0.0660  0.5248
 4854SOL    HW114851   0.430   4.279   5.398 -0.4817 -0.2839 -0.7833
 4854SOL    HW214852   0.589   4.272   5.361  0.0727  0.5285  1.2915
 4855SOL     OW14853   0.072   5.364   1.186  0.0200  0.0435 -0.0277
 4855SOL    HW114854  -0.015   5.315   1.192 -0.1703  0.2421 -0.9873
 4855SOL    HW214855   0.089   5.413   1.272 -2.2930  2.4680 -0.8179
 4856SOL     OW14856   0.949   4.717   0.504  0.4497  0.9765 -0.3389
 4856SOL    HW114857   0.921   4.670   0.421 -1.3826 -1.3821  1.4900
 4856SOL    HW214858   0.907   4.808   0.506 -1.1428  0.3020 -1.1034
 4857SOL     OW14859   0.828   1.470   5.675  0.0867  0.7915  0.1707
 4857SOL    HW114860   0.818   1.569   5.668 -0.1434  0.8388  0.9937
 4857SOL    HW214861   0.753   1.425   5.627  1.1282  0.9608 -1.7145
 4858SOL     OW14862   5.702   3.009   3.351  0.2750  0.3910 -0.3047
 4858SOL    HW114863   5.694   2.916   3.317  2.2340  0.0477  0.0700
 4858SOL    HW214864   5.783   3.053   3.311 -0.3419  1.7617 -0.0992
 4859SOL     OW14865   3.591   0.041   4.358  0.1081  0.0963 -0.0939
 4859SOL    HW114866   3.659  -0.018   4.401  0.0338 -0.6511 -0.9822
 4859SOL    HW214867   3.530  -0.014   4.301 -0.4529  0.9283 -0.3111
 4860SOL     OW14868   1.395   1.895   1.692 -0.2397  0.0052 -0.1420
 4860SOL    HW114869   1.462   1.909   1.619 -0.9781  3.7039 -0.2893
 4860SOL    HW214870   1.441   1.900   1.781 -0.1508  1.6950 -0.2608
 4861SOL     OW14871   0.245   1.766   1.115 -0.4436 -0.1141  0.9552
 4861SOL    HW114872   0.165   1.797   1.064  0.4511 -0.7825 -0.9559
 4861SOL    HW214873   0.328   1.806   1.076  0.5695 -3.1151 -0.2961
 4862SOL     OW14874   5.925   4.389   2.554  0.4958  0.0210 -0.1667
 4862SOL    HW114875   5.853   4.458   2.545 -0.3428 -1.0443 -2.3921
 4862SOL    HW214876   5.909   4.336   2.637 -0.7881  0.3925 -0.1505
 4863SOL     OW14877   0.488   3.662   4.140  0.1628 -0.2978 -0.0714
 4863SOL    HW114878   0.582   3.631   4.154  0.6300  1.5389  1.1877
 4863SOL    HW214879   0.474   3.680   4.042  2.0161  1.8633 -0.0470
 4864SOL     OW14880   5.061   5.179   3.785  0.3462  0.0325 -0.6750
 4864SOL    HW114881   5.118   5.260   3.775  0.0002  0.3580 -0.1119
 4864SOL    HW214882   5.005   5.167   3.702  0.6398  0.1778 -0.8952
 4865SOL     OW14883   1.069   1.571   5.336  0.7491  0.2446  0.7724
 4865SOL    HW114884   1.136   1.540   5.403 -0.5847 -0.1082  1.9919
 4865SOL    HW214885   0.992   1.614   5.383  0.0643  0.5463 -0.5747
 4866SOL     OW14886   4.691   5.851   3.059 -0.2952  0.0942  0.1926
 4866SOL    HW114887   4.678   5.836   2.961 -1.2928 -0.3865  0.3777
 4866SOL    HW214888   4.718   5.766   3.103 -2.6106 -0.4516  0.7293
 4867SOL     OW14889   3.955   1.255   4.208 -0.2541  0.1509  0.4580
 4867SOL    HW114890   3.880   1.322   4.211 -2.3977 -2.0490 -0.3149
 4867SOL    HW214891   3.931   1.177   4.266  1.2590 -0.8297 -0.1934
 4868SOL     OW14892   0.581   3.991   3.663 -0.0350  0.1645  0.1410
 4868SOL    HW114893   0.491   4.022   3.632  0.3024 -0.3617 -1.4772
 4868SOL    HW214894   0.583   3.988   3.763 -1.8444  0.0932  0.2114
 4869SOL     OW14895   4.155   1.107   4.131  0.0218 -0.7229  0.4447
 4869SOL    HW114896   4.091   1.168   4.178 -2.5290 -0.8308 -2.5447
 4869SOL    HW214897   4.175   1.144   4.040  0.4535 -3.0437 -0.4655
 4870SOL     OW14898   0.501   1.184   3.570  0.0695  0.0461  0.5360
 4870SOL    HW114899   0.462   1.274   3.549  0.0952 -0.3662 -1.4933
 4870SOL    HW214900   0.586   1.195   3.620  0.2863  1.1822 -0.0590
 4871SOL     OW14901   5.199   2.824   3.109  0.2957 -0.0136  0.0365
 4871SOL    HW114902   5.191   2.768   3.191 -0.8121  1.5184  1.0151
 4871SOL    HW214903   5.117   2.814   3.053 -0.8870  2.1096  1.2456
 4872SOL     OW14904   2.858   4.045   5.352  0.0164 -0.7747 -0.2479
 4872SOL    HW114905   2.909   4.095   5.281  0.6142  0.2395  0.8672
 4872SOL    HW214906   2.764   4.080   5.357  0.6099  0.7507  0.9643
 4873SOL     OW14907   2.188   2.071   0.253 -0.2176  0.7058 -0.3644
 4873SOL    HW114908   2.182   2.128   0.171 -1.0754  0.0802 -0.7572
 4873SOL    HW214909   2.196   1.975   0.226  0.7148  0.5953  0.2916
 4874SOL     OW14910   5.816   5.763   3.857 -0.0010 -0.0895  0.6282
 4874SOL    HW114911   5.884   5.763   3.930 -1.5884 -0.2638  2.1489
 4874SOL    HW214912   5.726   5.781   3.894 -0.9342 -0.6221 -1.2378
 4875SOL     OW14913   3.330   0.418   3.131  0.3055 -0.9070 -0.1398
 4875SOL    HW114914   3.382   0.499   3.104 -0.3875 -0.7414 -1.0448
 4875SOL    HW214915   3.279   0.437   3.214 -0.4249 -0.1487 -0.7402
 4876SOL     OW14916   1.652   4.587   2.853 -0.3646  0.3624  0.1479
 4876SOL    HW114917   1.580   4.656   2.842  0.0831  0.9630  0.9241
 4876SOL    HW214918   1.694   4.596   2.943 -0.0250 -0.6730  0.1034
 4877SOL     OW14919   1.032   0.934   5.017  0.5759  1.0551 -0.3615
 4877SOL    HW114920   0.981   0.939   4.931  1.3912  2.8150 -0.8008
 4877SOL    HW214921   1.100   0.861   5.011 -0.1620  0.3847 -0.7449
 4878SOL     OW14922   2.440   1.741   2.396  0.1787  0.3527 -0.1411
 4878SOL    HW114923   2.409   1.732   2.491  1.3414 -0.9859  0.1486
 4878SOL    HW214924   2.369   1.705   2.334  0.0601 -0.2436  0.3289
 4879SOL     OW14925   3.437   0.483   0.551 -0.3754 -0.1203 -0.2236
 4879SOL    HW114926   3.480   0.396   0.527  0.6091 -0.1876  1.5683
 4879SOL    HW214927   3.337   0.473   0.547 -0.2681 -1.0917 -0.8135
 4880SOL     OW14928   1.043   2.556   0.350 -0.4184  0.4195 -0.2893
 4880SOL    HW114929   1.062   2.471   0.400  1.7698  0.8571 -0.2565
 4880SOL    HW214930   1.073   2.634   0.406 -0.7415  1.1075 -1.0617
 4881SOL     OW14931   4.583   0.479   3.978 -0.1398  0.2665  0.7869
 4881SOL    HW114932   4.558   0.552   4.042  0.9922  1.5889 -0.2107
 4881SOL    HW214933   4.518   0.478   3.903 -0.1387  0.2735  0.7856
 4882SOL     OW14934   4.382   5.662   1.907 -0.6633 -0.6315 -0.4080
 4882SOL    HW114935   4.436   5.741   1.937 -2.8986  0.2178  1.7626
 4882SOL    HW214936   4.330   5.626   1.984 -1.7036 -2.6138 -1.9386
 4883SOL     OW14937   5.093   2.471   1.044  0.8953  0.0271 -0.3913
 4883SOL    HW114938   5.115   2.409   1.119 -1.2123  0.8012  0.9473
 4883SOL    HW214939   5.073   2.562   1.081 -0.1451  0.4373 -1.9015
 4884SOL     OW14940   5.002   0.990   3.947 -0.5209  0.1881  0.5314
 4884SOL    HW114941   5.014   1.088   3.935 -1.8754  0.2637 -0.4368
 4884SOL    HW214942   4.989   0.946   3.858 -0.7305 -0.7485  1.0043
 4885SOL     OW14943   3.632   4.567   4.515  0.1524  0.7182  0.5154
 4885SOL    HW114944   3.599   4.543   4.606 -1.4527  1.0131  0.0448
 4885SOL    HW214945   3.687   4.491   4.479 -0.0855  0.1519  1.3117
 4886SOL     OW14946   5.483   0.695   3.720  0.0590 -0.1585 -0.1123
 4886SOL    HW114947   5.522   0.724   3.633  1.1201 -1.5695 -0.1412
 4886SOL    HW214948   5.384   0.714   3.720  0.4511  2.1601 -0.5935
 4887SOL     OW14949   0.603   4.105   4.688 -0.1513 -0.6073 -0.2972
 4887SOL    HW114950   0.547   4.073   4.765  0.6377 -1.6337 -0.1306
 4887SOL    HW214951   0.567   4.067   4.603 -1.0622  0.5795 -0.4650
 4888SOL     OW14952   1.116   0.560   1.226 -0.1185  0.1537 -0.0771
 4888SOL    HW114953   1.072   0.647   1.203  0.2220  0.5595  0.7498
 4888SOL    HW214954   1.173   0.530   1.150  1.1532  1.5628  0.2592
 4889SOL     OW14955   5.223   3.673   3.472 -0.1399 -0.0730  0.3092
 4889SOL    HW114956   5.218   3.578   3.442 -0.7024 -0.0577  0.3458
 4889SOL    HW214957   5.310   3.712   3.444  0.0544 -0.5702  0.2093
 4890SOL     OW14958   5.757   1.998   4.617  0.4677  0.2905  0.1196
 4890SOL    HW114959   5.843   2.010   4.567  0.6172  0.6288  0.4538
 4890SOL    HW214960   5.774   1.945   4.700  0.3470  0.3427  0.1771
 4891SOL     OW14961   5.548   1.642   5.313 -0.2922 -0.1237 -0.4807
 4891SOL    HW114962   5.527   1.740   5.309 -1.7547 -0.4469 -1.3169
 4891SOL    HW214963   5.484   1.592   5.256  0.0746 -1.6470  0.3951
 4892SOL     OW14964   1.296   2.179   0.932 -0.7198  0.5662 -0.4562
 4892SOL    HW114965   1.354   2.100   0.949  0.7599  1.5449 -0.8080
 4892SOL    HW214966   1.260   2.213   1.020  1.0902  1.2952  0.0426
 4893SOL     OW14967   4.667   3.698   0.023 -0.3057 -0.5469 -0.3530
 4893SOL    HW114968   4.694   3.612  -0.021  0.5335  0.1746 -1.3023
 4893SOL    HW214969   4.740   3.729   0.084 -0.6937 -0.6032  0.1460
 4894SOL     OW14970   2.264   3.319   0.458  0.2375  0.0113 -0.3814
 4894SOL    HW114971   2.238   3.277   0.371  1.4915  0.5378 -1.0280
 4894SOL    HW214972   2.207   3.280   0.531  0.3423 -1.7180 -1.1586
 4895SOL     OW14973   0.636   2.810   4.547  0.5849 -0.0655 -0.2297
 4895SOL    HW114974   0.683   2.832   4.633 -0.3160 -0.8182  0.4756
 4895SOL    HW214975   0.620   2.712   4.541  0.2282  0.0302 -1.0468
 4896SOL     OW14976   5.055   1.244   3.978  0.3275 -0.5416 -0.0161
 4896SOL    HW114977   5.125   1.260   3.908  0.4487 -1.8123 -0.2083
 4896SOL    HW214978   4.995   1.324   3.983  1.0119  0.0473 -0.7445
 4897SOL     OW14979   3.750   1.211   3.048 -0.7395  0.5421 -0.6110
 4897SOL    HW114980   3.715   1.222   3.142  1.0613  0.9717  0.0514
 4897SOL    HW214981   3.707   1.131   3.006 -2.0617  0.7106  0.3373
 4898SOL     OW14982   4.720   2.648   2.695 -0.1234  0.0093 -0.2834
 4898SOL    HW114983   4.703   2.578   2.764 -0.5111 -0.4600 -0.8496
 4898SOL    HW214984   4.688   2.737   2.728  2.8721  0.5278  1.6304
 4899SOL     OW14985   1.206   4.018   0.563 -0.3756  0.2164 -0.1163
 4899SOL    HW114986   1.198   3.933   0.615  0.1245  0.4264  0.3202
 4899SOL    HW214987   1.244   4.089   0.622 -0.1442  0.5594 -0.6712
 4900SOL     OW14988   1.427   4.650   2.521 -0.3166 -0.2139 -0.0293
 4900SOL    HW114989   1.356   4.669   2.453 -0.1225 -0.5559 -0.3333
 4900SOL    HW214990   1.511   4.622   2.474 -0.3580 -1.0397  0.3645
 4901SOL     OW14991   1.972   5.144   5.537 -0.0808 -0.2675  0.4852
 4901SOL    HW114992   1.930   5.122   5.625 -1.7392 -3.2022 -0.9119
 4901SOL    HW214993   2.032   5.069   5.509 -1.0585 -0.2962 -1.7092
 4902SOL     OW14994   1.567   2.471   2.710 -0.2425 -0.2717 -0.0169
 4902SOL    HW114995   1.656   2.485   2.667  1.1689 -2.6578  1.8315
 4902SOL    HW214996   1.535   2.557   2.749  0.0558  1.1599 -2.7394
 4903SOL     OW14997   2.527   4.206   4.407 -0.5844  0.1067  0.3661
 4903SOL    HW114998   2.498   4.289   4.454 -1.6458 -0.9969  1.7650
 4903SOL    HW214999   2.502   4.126   4.462  0.4216 -1.1525 -0.9212
 4904SOL     OW15000   2.096   5.415   0.932  0.5909  0.2682 -0.3349
 4904SOL    HW115001   2.107   5.454   0.841 -0.2194 -1.1210 -1.0625
 4904SOL    HW215002   2.137   5.324   0.935 -0.1663 -0.0651  0.4131
 4905SOL     OW15003   4.554   5.625   4.242  0.4507 -0.3071  0.5745
 4905SOL    HW115004   4.562   5.527   4.258 -1.9489 -0.5744  0.4629
 4905SOL    HW215005   4.584   5.646   4.149 -0.3846 -1.1789  0.0870
 4906SOL     OW15006   0.677   1.131   5.617  0.2516  0.2674 -0.1982
 4906SOL    HW115007   0.597   1.087   5.577 -0.1167  0.6312  0.1248
 4906SOL    HW215008   0.724   1.185   5.547  1.1164 -1.1960 -0.7701
 4907SOL     OW15009   4.074   4.035   3.433  0.1661 -0.3017  0.0543
 4907SOL    HW115010   3.981   4.049   3.401 -0.3998 -1.0446  1.3110
 4907SOL    HW215011   4.090   4.090   3.515  1.2351  0.7226 -0.8009
 4908SOL     OW15012   2.902   4.749   2.296  0.0163  0.5330  0.5829
 4908SOL    HW115013   2.951   4.773   2.213  0.7614 -1.5402  0.3692
 4908SOL    HW215014   2.938   4.803   2.373 -0.7289  2.5133 -0.3935
 4909SOL     OW15015   3.604   2.233   1.057 -0.4257  0.1183  0.5528
 4909SOL    HW115016   3.647   2.143   1.060  0.1348  0.3277 -0.7867
 4909SOL    HW215017   3.659   2.297   1.110  0.8109  0.3182 -0.9126
 4910SOL     OW15018   3.377   5.202   2.510  0.0386 -0.2113  0.1546
 4910SOL    HW115019   3.385   5.109   2.473  0.5217  0.3935 -1.3082
 4910SOL    HW215020   3.281   5.221   2.533 -0.3263 -0.5180 -1.0536
 4911SOL     OW15021   2.658   2.503   1.166  0.2455  0.7814  0.4437
 4911SOL    HW115022   2.699   2.481   1.254  1.3137  2.7586  0.4848
 4911SOL    HW215023   2.697   2.443   1.096  0.5664  0.2534  1.0610
 4912SOL     OW15024   4.545   1.958   4.279 -0.3321 -0.3530  0.4311
 4912SOL    HW115025   4.498   1.915   4.356 -1.8820  1.0667  0.3220
 4912SOL    HW215026   4.488   1.949   4.197 -2.3251  4.3798  0.9752
 4913SOL     OW15027   4.294   4.001   3.899  0.4645 -0.3536  0.0170
 4913SOL    HW115028   4.207   4.048   3.883  0.8590 -0.2762 -2.2266
 4913SOL    HW215029   4.282   3.903   3.886  0.3923 -0.5439  1.3438
 4914SOL     OW15030   1.177   3.574   3.313  0.2736 -0.1805  0.4442
 4914SOL    HW115031   1.271   3.544   3.326 -0.2947 -1.6397  1.3963
 4914SOL    HW215032   1.137   3.523   3.237 -0.6812 -1.9490  2.0396
 4915SOL     OW15033   5.736   3.826   3.853 -0.0931 -0.4459  0.0887
 4915SOL    HW115034   5.781   3.857   3.937 -1.5657 -0.4521  0.9094
 4915SOL    HW215035   5.751   3.892   3.780  1.2365 -0.4578  0.3300
 4916SOL     OW15036   4.683   1.717   2.339 -0.0831 -0.4806 -0.4042
 4916SOL    HW115037   4.700   1.619   2.345  1.0188 -0.3597 -1.2146
 4916SOL    HW215038   4.756   1.760   2.285 -2.1008  0.3239 -2.6896
 4917SOL     OW15039   5.064   3.997   4.072  0.2142 -0.3812 -0.3300
 4917SOL    HW115040   5.013   3.958   3.995 -1.5546 -0.5798  0.8801
 4917SOL    HW215041   5.051   4.096   4.074  0.6146 -0.3214 -0.5140
 4918SOL     OW15042   5.067   3.362   5.178  0.0033 -0.4001 -0.1092
 4918SOL    HW115043   5.123   3.280   5.169 -2.4674 -2.1430 -0.4673
 4918SOL    HW215044   5.015   3.377   5.094  0.1803  1.4094  0.0608
 4919SOL     OW15045   5.765   4.374   1.667 -1.1613  0.4195 -0.4283
 4919SOL    HW115046   5.813   4.382   1.579 -1.0569  1.3685 -0.2900
 4919SOL    HW215047   5.810   4.431   1.735 -1.0032 -0.6259  0.3617
 4920SOL     OW15048   2.711   3.162   4.766 -0.4310 -1.0592 -0.6267
 4920SOL    HW115049   2.615   3.141   4.784 -0.6609 -0.7951 -1.5366
 4920SOL    HW215050   2.733   3.253   4.801 -1.0143 -0.3273 -2.1117
 4921SOL     OW15051   0.592   0.162   3.249  0.4159  0.0038 -0.1112
 4921SOL    HW115052   0.568   0.099   3.323  0.4307 -1.5359 -1.3613
 4921SOL    HW215053   0.658   0.229   3.282  1.3464 -1.3915  0.9754
 4922SOL     OW15054   3.353   0.276   1.536  0.1085 -0.1518  0.5013
 4922SOL    HW115055   3.439   0.298   1.583 -0.2369  2.3711  0.0867
 4922SOL    HW215056   3.373   0.223   1.454  1.1153 -0.8437  1.1701
 4923SOL     OW15057   2.560   4.015   4.941  0.0780 -0.3860  0.1159
 4923SOL    HW115058   2.649   3.976   4.917  0.4492 -0.2581  1.1865
 4923SOL    HW215059   2.490   3.982   4.878  1.0004  0.0991 -1.2068
 4924SOL     OW15060   4.149   5.198   0.460  0.0717 -0.3518  0.0576
 4924SOL    HW115061   4.203   5.137   0.518 -0.9936 -0.2012  1.2553
 4924SOL    HW215062   4.132   5.154   0.372  1.2395 -0.8192  0.0418
 4925SOL     OW15063   1.273   3.660   3.626 -0.3191  0.5434  0.0990
 4925SOL    HW115064   1.258   3.569   3.588 -0.3622  1.0349 -1.1038
 4925SOL    HW215065   1.267   3.728   3.553 -0.5909  1.5440  1.0295
 4926SOL     OW15066   3.576   1.274   5.371 -0.3826 -0.2250 -0.1817
 4926SOL    HW115067   3.528   1.213   5.308 -2.6690 -1.1991  2.3461
 4926SOL    HW215068   3.656   1.227   5.409 -0.8993 -0.8699  0.1259
 4927SOL     OW15069   5.727   4.382   2.287  0.3414  0.2285  0.1859
 4927SOL    HW115070   5.810   4.355   2.237 -0.5805  0.0361 -1.3145
 4927SOL    HW215071   5.678   4.451   2.234 -0.6953  0.0085  0.8389
 4928SOL     OW15072   2.639   3.156   0.728 -0.0043 -0.0012  0.3422
 4928SOL    HW115073   2.624   3.241   0.779 -0.2618  0.4503 -0.4605
 4928SOL    HW215074   2.581   3.157   0.646  1.2611 -0.1710 -0.5797
 4929SOL     OW15075   0.744   5.801   1.404  0.4775 -0.5265 -0.1471
 4929SOL    HW115076   0.775   5.836   1.493  0.1365  1.1770 -0.6612
 4929SOL    HW215077   0.752   5.873   1.336 -3.2923 -0.3469 -0.6068
 4930SOL     OW15078   0.166   0.589   4.526  0.3733  0.4105 -0.1413
 4930SOL    HW115079   0.116   0.630   4.602 -2.1571  0.9665 -1.9711
 4930SOL    HW215080   0.129   0.499   4.506  1.2117  0.1404 -0.5543
 4931SOL     OW15081   2.780   4.857   3.111  0.2390  0.4452  0.4213
 4931SOL    HW115082   2.833   4.796   3.171  1.4658  1.6983  0.6773
 4931SOL    HW215083   2.721   4.803   3.052  4.3935 -1.4041 -2.4896
 4932SOL     OW15084   1.018   0.552   0.582 -0.3315 -0.8044  0.3221
 4932SOL    HW115085   1.082   0.475   0.582  0.9912  0.2199  1.1943
 4932SOL    HW215086   1.064   0.632   0.622 -3.0361 -0.7311  3.7850
 4933SOL     OW15087   0.715   3.820   2.035  0.0236 -0.5619  0.1655
 4933SOL    HW115088   0.731   3.918   2.051 -1.6330 -0.3379  0.5329
 4933SOL    HW215089   0.688   3.807   1.939  1.9903 -0.9243 -0.4019
 4934SOL     OW15090   0.009   2.639   5.582  0.3327 -0.3090 -0.3789
 4934SOL    HW115091  -0.011   2.555   5.531  1.3093 -0.2305 -0.9078
 4934SOL    HW215092   0.008   2.717   5.520  2.0150 -0.2700 -0.4026
 4935SOL     OW15093   5.376   0.150   4.182 -0.4314  0.2925  0.4075
 4935SOL    HW115094   5.458   0.124   4.131 -0.9965 -1.4302  0.2864
 4935SOL    HW215095   5.297   0.153   4.119 -1.1345 -1.8471  1.0940
 4936SOL     OW15096   3.693   1.276   4.985  0.4038  0.2348  0.3962
 4936SOL    HW115097   3.773   1.319   4.943 -0.1089 -0.9573 -1.9867
 4936SOL    HW215098   3.723   1.200   5.044  1.0514  0.1830  0.0081
 4937SOL     OW15099   5.176   4.718   5.832 -1.0042  0.3053  0.1108
 4937SOL    HW115100   5.225   4.746   5.915 -0.1761  0.3003 -0.3708
 4937SOL    HW215101   5.239   4.671   5.771 -1.3957  1.1124 -0.9314
 4938SOL     OW15102   0.230   4.732   3.300  0.2079  0.4416  0.0399
 4938SOL    HW115103   0.143   4.765   3.262  0.1429  2.1799  1.5719
 4938SOL    HW215104   0.280   4.682   3.230 -0.5176  2.3005 -1.9129
 4939SOL     OW15105   5.145   3.121   0.615  0.6960 -0.0433 -0.2282
 4939SOL    HW115106   5.128   3.044   0.553 -1.5747 -0.5381  0.9005
 4939SOL    HW215107   5.167   3.086   0.706  2.4717  0.6820 -0.3418
 4940SOL     OW15108   0.513   3.568   1.547  0.0674  0.2718  0.2400
 4940SOL    HW115109   0.564   3.544   1.630  1.5886 -0.0267 -0.7480
 4940SOL    HW215110   0.504   3.667   1.541 -1.5118  0.2493  1.5767
 4941SOL     OW15111   2.021   4.334   0.400  0.7396 -0.0010  0.2496
 4941SOL    HW115112   1.932   4.294   0.418  0.1515  0.6359 -1.0759
 4941SOL    HW215113   2.040   4.331   0.302  2.8653 -1.5118  0.6339
 4942SOL     OW15114   2.357   0.764   2.997 -0.2160 -1.3091  0.5283
 4942SOL    HW115115   2.269   0.791   3.036 -0.1794  1.2633 -0.9123
 4942SOL    HW215116   2.344   0.734   2.903  0.5528  1.0261 -0.4080
 4943SOL     OW15117   0.220   3.029   4.765  0.2838 -1.0377 -0.1081
 4943SOL    HW115118   0.243   3.072   4.853 -1.5348 -1.3805  0.5657
 4943SOL    HW215119   0.302   3.026   4.708  1.1176  0.7517  0.9006
 4944SOL     OW15120   4.185   3.769   3.422  0.2009  0.0707 -0.1229
 4944SOL    HW115121   4.122   3.846   3.413  0.4917  0.1337 -1.9827
 4944SOL    HW215122   4.273   3.801   3.456 -0.0101  0.3824  0.1273
 4945SOL     OW15123   1.511   2.704   0.538  0.5387  0.3678  0.5950
 4945SOL    HW115124   1.557   2.768   0.600  1.4237 -0.2086  0.5412
 4945SOL    HW215125   1.578   2.642   0.498 -0.4266 -1.2857  1.4523
 4946SOL     OW15126   1.486   0.873   5.364  0.3874 -0.2460 -0.0844
 4946SOL    HW115127   1.431   0.956   5.354  1.4083  0.3835 -0.6101
 4946SOL    HW215128   1.429   0.793   5.345 -1.1339  0.1789  2.3357
 4947SOL     OW15129   5.521   3.558   4.475  0.3028  0.6240 -0.0076
 4947SOL    HW115130   5.438   3.543   4.422  0.8611 -0.9266 -0.4929
 4947SOL    HW215131   5.539   3.657   4.482  1.8611  1.0462 -5.4079
 4948SOL     OW15132   2.524   5.397   3.729 -0.0578 -0.5998  0.3991
 4948SOL    HW115133   2.436   5.402   3.776 -0.2863  0.5377 -0.1089
 4948SOL    HW215134   2.520   5.326   3.658 -1.3833  0.9599 -1.1832
 4949SOL     OW15135   2.810   5.910   1.221  0.3590  0.4985  0.0411
 4949SOL    HW115136   2.756   5.982   1.178  0.4335  1.8853  2.1386
 4949SOL    HW215137   2.765   5.822   1.205 -0.5169  1.1589 -1.3553
 4950SOL     OW15138   3.239   3.661   1.893 -0.0228 -0.5586 -0.3631
 4950SOL    HW115139   3.286   3.583   1.935  1.1702  0.9897  1.3381
 4950SOL    HW215140   3.146   3.634   1.868 -0.3702 -1.9852  2.1465
 4951SOL     OW15141   0.921   3.023   4.712 -1.0142 -0.3993 -0.4738
 4951SOL    HW115142   0.916   3.079   4.630  0.4403 -0.0399 -0.3521
 4951SOL    HW215143   0.850   2.953   4.710 -1.4078  0.0216 -1.7130
 4952SOL     OW15144   0.171   4.794   3.735  0.4985 -0.3394 -0.3241
 4952SOL    HW115145   0.217   4.737   3.803  0.2043 -0.3053 -0.0951
 4952SOL    HW215146   0.122   4.869   3.781 -0.6836 -0.9959 -0.4698
 4953SOL     OW15147   3.997   2.941   0.100  0.3129 -0.0137  0.6638
 4953SOL    HW115148   3.979   2.893   0.014 -0.3172  0.8263  0.3132
 4953SOL    HW215149   4.093   2.969   0.102  0.4182 -0.3442  0.3964
 4954SOL     OW15150   4.631   2.748   0.075  0.1773 -0.3636 -0.8260
 4954SOL    HW115151   4.645   2.713  -0.017  0.3321 -0.0258 -0.9301
 4954SOL    HW215152   4.603   2.673   0.135  0.4684 -0.6606 -1.0569
 4955SOL     OW15153   3.878   1.468   1.947  0.0756  0.2110  0.6939
 4955SOL    HW115154   3.825   1.543   1.907 -1.3024 -0.1687  1.7240
 4955SOL    HW215155   3.921   1.415   1.874 -0.7348  0.7069 -0.1654
 4956SOL     OW15156   3.450   4.089   2.943  0.1707  0.2504  0.0608
 4956SOL    HW115157   3.412   4.181   2.951 -1.0782 -0.1034 -1.4300
 4956SOL    HW215158   3.519   4.088   2.870  0.9464  0.2178  0.7760
 4957SOL     OW15159   2.427   4.939   2.657 -0.7523  0.2486  0.1513
 4957SOL    HW115160   2.412   4.859   2.600  2.0003 -1.1158  1.1398
 4957SOL    HW215161   2.354   4.945   2.725 -0.3992 -2.2503  0.8759
 4958SOL     OW15162   5.393   2.067   3.335  0.6098  0.4087 -0.0584
 4958SOL    HW115163   5.332   2.107   3.403  1.8799  0.4866  1.0758
 4958SOL    HW215164   5.339   2.028   3.260 -1.1925 -3.1244  2.7505
 4959SOL     OW15165   0.173   5.116   4.821 -0.1155  0.5127  0.1179
 4959SOL    HW115166   0.256   5.106   4.876  0.6068  0.1836 -1.0127
 4959SOL    HW215167   0.189   5.182   4.747  0.3963 -2.2212 -2.3783
 4960SOL     OW15168   1.277   5.543   5.473 -0.7169  0.7637  0.0699
 4960SOL    HW115169   1.356   5.582   5.426  0.1449  0.1252  0.9454
 4960SOL    HW215170   1.255   5.600   5.552 -1.2159  0.9973 -0.2301
 4961SOL     OW15171   2.338   2.592   3.702  0.0069  0.5386  0.3034
 4961SOL    HW115172   2.394   2.631   3.629 -0.4602  1.7558  0.5686
 4961SOL    HW215173   2.397   2.562   3.777  0.3740  0.9955  0.2041
 4962SOL     OW15174   2.194   0.030   5.415 -0.4140  0.3354 -0.6871
 4962SOL    HW115175   2.161  -0.040   5.352 -0.9534  1.2179 -1.4106
 4962SOL    HW215176   2.140   0.114   5.403  0.4717  1.0022 -0.1132
 4963SOL     OW15177   0.789   5.819   3.907  0.2671 -0.0092  0.3314
 4963SOL    HW115178   0.882   5.854   3.909  0.4524 -0.4692  0.0337
 4963SOL    HW215179   0.736   5.867   3.837 -0.6997  2.5913  2.6702
 4964SOL     OW15180   3.063   1.316   0.242  0.1150  0.6164  0.2807
 4964SOL    HW115181   3.150   1.322   0.291  0.4098  0.6764 -0.2426
 4964SOL    HW215182   3.050   1.397   0.186  0.4064 -0.0341 -0.7505
 4965SOL     OW15183   2.029   4.617   2.038  0.1366  0.2577 -1.0423
 4965SOL    HW115184   2.041   4.650   1.944  2.9151 -0.0492 -0.8852
 4965SOL    HW215185   2.037   4.693   2.101 -0.3317  0.2497 -0.9666
 4966SOL     OW15186   1.101   3.053   0.298 -0.3727  0.3989  0.6999
 4966SOL    HW115187   1.188   3.008   0.316  0.2022 -0.6466 -3.5829
 4966SOL    HW215188   1.040   2.990   0.251 -1.8657  2.3274 -0.0953
 4967SOL     OW15189   2.529   2.430   4.661  0.1149  0.6298 -0.0833
 4967SOL    HW115190   2.600   2.438   4.591  0.2671  0.1022  0.0060
 4967SOL    HW215191   2.561   2.472   4.746  2.4853 -3.8628  1.5810
 4968SOL     OW15192   1.679   4.061   3.969  0.4971 -0.0496  0.0517
 4968SOL    HW115193   1.583   4.059   3.942  0.5416 -1.4335 -0.0832
 4968SOL    HW215194   1.691   4.006   4.052  1.0391  0.8435  0.5861
 4969SOL     OW15195   3.496   4.216   2.248 -0.4530  0.2846  0.1259
 4969SOL    HW115196   3.558   4.206   2.170 -1.1215 -1.1892 -0.2474
 4969SOL    HW215197   3.473   4.313   2.260  0.1821  0.6052 -1.0869
 4970SOL     OW15198   1.494   1.202   4.707  0.4921 -0.0538 -0.3833
 4970SOL    HW115199   1.561   1.179   4.778 -0.2415 -0.6958  0.1139
 4970SOL    HW215200   1.402   1.180   4.740 -0.0504  1.4733 -0.7660
 4971SOL     OW15201   0.719   0.428   1.096  0.3774 -0.0715 -0.0693
 4971SOL    HW115202   0.740   0.524   1.083  1.2500  0.0012  1.6448
 4971SOL    HW215203   0.659   0.396   1.022  1.6773  1.2589 -1.7712
 4972SOL     OW15204   3.655   1.263   2.032 -0.7426 -0.8968  0.1811
 4972SOL    HW115205   3.648   1.297   1.938  1.4382  0.6615  0.4869
 4972SOL    HW215206   3.744   1.220   2.045  0.4907  1.9574  2.3150
 4973SOL     OW15207   2.716   5.648   5.552  0.2513  0.8510  0.6963
 4973SOL    HW115208   2.625   5.635   5.591 -0.3014  1.3459 -0.3667
 4973SOL    HW215209   2.765   5.561   5.549 -0.4557  0.4553  0.6555
 4974SOL     OW15210   2.076   5.706   5.800 -0.1242  0.5131 -0.1120
 4974SOL    HW115211   2.055   5.614   5.767 -0.4030 -0.0059  1.4416
 4974SOL    HW215212   2.124   5.757   5.728 -3.1990  0.4555 -2.3657
 4975SOL     OW15213   4.335   2.670   3.423 -0.2491  0.6850  0.2416
 4975SOL    HW115214   4.326   2.574   3.449 -1.3083  1.1246  1.6194
 4975SOL    HW215215   4.253   2.720   3.451  1.1782  2.4280  1.5606
 4976SOL     OW15216   1.669   2.179   5.247 -0.4750 -0.0964  0.0873
 4976SOL    HW115217   1.660   2.165   5.345  1.5363 -0.4790  0.2670
 4976SOL    HW215218   1.754   2.229   5.228 -0.3992 -0.7603 -1.4824
 4977SOL     OW15219   1.439   1.501   5.297 -0.4967 -0.0653 -0.7522
 4977SOL    HW115220   1.351   1.548   5.291 -1.0903 -1.0832 -0.2375
 4977SOL    HW215221   1.436   1.435   5.372  0.0321 -1.5342 -1.9992
 4978SOL     OW15222   5.436   1.776   4.546  0.1974  0.4699 -0.4052
 4978SOL    HW115223   5.420   1.747   4.640 -0.2658  0.5405 -0.4590
 4978SOL    HW215224   5.491   1.708   4.498  0.2663  0.3414 -0.1404
 4979SOL     OW15225   5.856   2.745   4.310 -0.6075  0.3787 -0.2294
 4979SOL    HW115226   5.818   2.838   4.316 -1.9935 -0.1947  0.5262
 4979SOL    HW215227   5.785   2.683   4.275 -0.7540 -0.9224  2.1414
 4980SOL     OW15228   0.154   4.218   0.787  0.2961  0.2877  0.1288
 4980SOL    HW115229   0.060   4.249   0.802  0.3766 -0.2639  1.9634
 4980SOL    HW215230   0.157   4.155   0.709 -0.6996  0.9278 -0.4455
 4981SOL     OW15231   4.455   5.101   0.832 -0.5056  0.5047 -0.2394
 4981SOL    HW115232   4.430   5.014   0.789  3.0196 -0.7149 -0.1673
 4981SOL    HW215233   4.442   5.175   0.767 -2.6069 -0.1599 -0.6577
 4982SOL     OW15234   5.132   0.807   1.513  0.1644 -0.1664  0.2721
 4982SOL    HW115235   5.105   0.849   1.426  1.6837  2.0624  0.8096
 4982SOL    HW215236   5.218   0.756   1.500  0.9150  0.9783  0.6410
 4983SOL     OW15237   5.318   1.187   5.390 -0.9415 -0.9616  0.1573
 4983SOL    HW115238   5.395   1.240   5.427  0.5154 -1.8770 -1.4033
 4983SOL    HW215239   5.321   1.095   5.429 -1.9300 -0.6969  0.9031
 4984SOL     OW15240   2.369   0.180   3.195 -0.1818 -0.1077  0.0067
 4984SOL    HW115241   2.285   0.222   3.231 -0.1229 -0.6124  0.7632
 4984SOL    HW215242   2.443   0.246   3.198  0.0790 -0.4231  1.8401
 4985SOL     OW15243   2.927   4.279   2.538 -0.4456  0.4950 -0.7696
 4985SOL    HW115244   2.900   4.360   2.486 -1.1166  0.9898  0.2882
 4985SOL    HW215245   2.876   4.200   2.504  2.6819 -0.3149 -4.1264
 4986SOL     OW15246   2.198   5.253   0.563 -0.2738  0.3728  0.5010
 4986SOL    HW115247   2.197   5.237   0.464  1.2965 -0.3339  0.5692
 4986SOL    HW215248   2.271   5.198   0.604 -1.3760  0.0886  2.1587
 4987SOL     OW15249   2.152   4.176   2.821 -0.4850  0.4658  0.3294
 4987SOL    HW115250   2.159   4.089   2.772 -0.9433  0.1376  0.8401
 4987SOL    HW215251   2.121   4.160   2.914  1.3341  0.9781  1.0710
 4988SOL     OW15252   2.024   1.934   1.599 -0.0328  0.2093  0.0318
 4988SOL    HW115253   1.989   1.958   1.689 -1.5107 -1.2971 -0.0805
 4988SOL    HW215254   2.102   1.871   1.609 -1.3373 -1.4378  0.3133
 4989SOL     OW15255   2.120   0.638   2.627  0.1611  0.0414 -0.2277
 4989SOL    HW115256   2.173   0.723   2.630  0.4676 -0.1538  2.5105
 4989SOL    HW215257   2.025   0.657   2.651  0.1752 -0.3343  0.1405
 4990SOL     OW15258   3.626   5.675   1.385 -0.1657 -0.0519 -0.3204
 4990SOL    HW115259   3.642   5.764   1.428  1.3318 -0.2157 -0.4758
 4990SOL    HW215260   3.654   5.679   1.289 -0.1360 -0.6741 -0.3432
 4991SOL     OW15261   4.297   0.032   0.512 -0.3310  0.5073  0.1218
 4991SOL    HW115262   4.219  -0.030   0.519 -0.1357  0.1404 -0.8327
 4991SOL    HW215263   4.364   0.009   0.583 -0.3582 -0.2375 -0.0853
 4992SOL     OW15264   2.749   2.978   5.965 -0.9492 -0.2152 -0.3530
 4992SOL    HW115265   2.717   2.886   5.985 -0.4884 -0.3433 -0.2071
 4992SOL    HW215266   2.788   2.980   5.873 -0.4042 -0.3114 -0.1274
 4993SOL     OW15267   3.261   1.237   0.052  0.3258  0.4773  0.2237
 4993SOL    HW115268   3.347   1.283   0.075  0.0132  0.5108  1.3770
 4993SOL    HW215269   3.186   1.279   0.103 -0.5272  1.0058 -1.4061
 4994SOL     OW15270   2.679   1.633   4.244 -0.0525  0.4051  0.3300
 4994SOL    HW115271   2.696   1.674   4.334 -1.5375 -0.0612  0.8499
 4994SOL    HW215272   2.691   1.703   4.173 -2.4923  1.8360  1.1977
 4995SOL     OW15273   5.649   4.763   5.174 -0.2400 -0.6561 -0.0727
 4995SOL    HW115274   5.652   4.830   5.100 -2.1914 -1.3613 -0.8478
 4995SOL    HW215275   5.707   4.794   5.249  2.4681 -0.3036 -2.1478
 4996SOL     OW15276   5.240   5.645   4.501 -0.0852 -0.2624  0.7090
 4996SOL    HW115277   5.140   5.645   4.496 -0.0387 -0.8627 -0.6709
 4996SOL    HW215278   5.276   5.727   4.457  0.0419 -0.2629  0.8118
 4997SOL     OW15279   0.447   5.854   0.141 -0.1081 -0.1090 -0.4198
 4997SOL    HW115280   0.504   5.881   0.219 -1.0618  1.7547 -0.3036
 4997SOL    HW215281   0.351   5.848   0.170 -0.6930  2.0539 -1.6759
 4998SOL     OW15282   5.407   5.187   1.034  0.1192 -0.0791  0.2959
 4998SOL    HW115283   5.423   5.261   1.099 -3.5444  1.5907 -0.4690
 4998SOL    HW215284   5.348   5.118   1.075  0.8508 -0.9519 -0.0791
 4999SOL     OW15285   3.612   0.513   0.081 -0.4881 -0.8475 -0.5518
 4999SOL    HW115286   3.594   0.581   0.152  1.1721 -0.5981 -0.3277
 4999SOL    HW215287   3.543   0.520   0.009 -2.5284 -1.4714  1.2617
 5000SOL     OW15288   5.680   4.563   2.522 -0.7474 -0.1267  0.1457
 5000SOL    HW115289   5.612   4.632   2.549 -2.5112 -1.8416  0.2935
 5000SOL    HW215290   5.690   4.564   2.423  0.2271  1.1742  0.2225
 5001SOL     OW15291   5.680   4.376   3.570  0.2278  0.6167  0.4170
 5001SOL    HW115292   5.703   4.439   3.496  0.1514  0.8500  0.5895
 5001SOL    HW215293   5.741   4.297   3.567 -1.6262 -0.8552 -1.7069
 5002SOL     OW15294   0.802   5.507   1.320 -0.6591 -0.2463 -0.8255
 5002SOL    HW115295   0.783   5.524   1.417 -0.0277  0.6260 -0.8431
 5002SOL    HW215296   0.749   5.572   1.265 -0.8659 -0.6108 -1.0570
 5003SOL     OW15297   0.280   3.314   1.137 -0.1780  0.5255 -0.2865
 5003SOL    HW115298   0.192   3.304   1.184 -0.8899  2.9592 -0.9184
 5003SOL    HW215299   0.339   3.375   1.189  1.9641 -2.4906  1.0579
 5004SOL     OW15300   5.867   4.526   5.599 -0.4445  0.3767  0.1026
 5004SOL    HW115301   5.933   4.511   5.525  0.1153 -0.3810  0.7384
 5004SOL    HW215302   5.915   4.551   5.683 -1.0357  0.6855  0.3545
 5005SOL     OW15303   4.683   3.459   2.495 -0.1687 -0.7838 -0.5397
 5005SOL    HW115304   4.779   3.437   2.483 -0.4251 -2.7122  0.6605
 5005SOL    HW215305   4.660   3.463   2.592 -1.0631  0.9184 -0.7685
 5006SOL     OW15306   0.651   4.642   3.037  0.5222 -0.5281 -0.3717
 5006SOL    HW115307   0.748   4.653   3.060  0.9602 -1.2908 -1.7359
 5006SOL    HW215308   0.623   4.715   2.974  0.5305 -0.9829 -0.9053
 5007SOL     OW15309   3.499   3.449   2.513  0.6024 -0.6312 -0.1550
 5007SOL    HW115310   3.453   3.463   2.425  1.3097 -1.7503 -0.7323
 5007SOL    HW215311   3.431   3.435   2.584  0.0015  0.9562 -0.3821
 5008SOL     OW15312   2.639   3.967   4.238 -0.3270 -0.3676 -0.2618
 5008SOL    HW115313   2.633   4.052   4.292 -1.2295 -1.5498  1.5923
 5008SOL    HW215314   2.735   3.946   4.221 -0.0341  0.3142  0.4649
 5009SOL     OW15315   3.940   2.885   3.458 -0.0574  0.2367  0.1682
 5009SOL    HW115316   4.001   2.925   3.389 -0.7500 -0.9190 -1.1675
 5009SOL    HW215317   3.874   2.954   3.487 -0.6162  0.3710 -1.3581
 5010SOL     OW15318   1.930   3.824   1.007 -0.1475 -0.2535 -0.0245
 5010SOL    HW115319   1.984   3.797   1.086 -0.4938 -0.8413  0.0182
 5010SOL    HW215320   1.857   3.757   0.992 -0.5884  0.2905 -0.3465
 5011SOL     OW15321   3.814   3.959   1.689  0.2097  0.7673  0.2184
 5011SOL    HW115322   3.770   3.956   1.779 -0.2171 -1.5468 -0.0165
 5011SOL    HW215323   3.879   3.884   1.681 -0.2318  0.5393 -1.6388
 5012SOL     OW15324   4.690   1.328   3.956  0.5947 -0.1886 -0.5282
 5012SOL    HW115325   4.606   1.294   3.912 -0.6930  1.0251  0.8732
 5012SOL    HW215326   4.713   1.269   4.033  0.2254  0.2407 -0.0817
 5013SOL     OW15327   2.126   4.588   2.909  0.1868 -0.3331 -0.2841
 5013SOL    HW115328   2.044   4.531   2.918 -0.3650  0.3604 -0.7911
 5013SOL    HW215329   2.138   4.612   2.812  1.0895 -0.5642 -0.2381
 5014SOL     OW15330   4.239   3.187   0.743  0.2282  0.0797 -0.0616
 5014SOL    HW115331   4.260   3.164   0.648 -0.3874 -2.1230  0.2609
 5014SOL    HW215332   4.162   3.251   0.746 -1.2812 -1.5829 -1.0799
 5015SOL     OW15333   4.550   5.365   4.331  0.4173 -0.8519 -0.8705
 5015SOL    HW115334   4.483   5.351   4.258 -0.7997 -2.1769  0.4274
 5015SOL    HW215335   4.556   5.282   4.387  1.9092 -0.1592  0.0735
 5016SOL     OW15336   1.675   5.086   0.903 -0.0222 -0.1416 -0.0160
 5016SOL    HW115337   1.751   5.046   0.852 -1.1788 -1.6337 -0.6571
 5016SOL    HW215338   1.599   5.104   0.841 -1.3018 -1.5860  1.0507
 5017SOL     OW15339   5.197   2.375   4.772  0.3344 -0.1691  0.3909
 5017SOL    HW115340   5.194   2.369   4.872  1.2609 -0.2051  0.4244
 5017SOL    HW215341   5.133   2.309   4.733  0.5924 -0.7599  0.9492
 5018SOL     OW15342   1.346   0.169   1.157 -0.7914  0.3028  0.6883
 5018SOL    HW115343   1.416   0.108   1.119 -1.1330  0.4182 -0.1478
 5018SOL    HW215344   1.259   0.153   1.110 -0.6896  2.0049 -0.1443
 5019SOL     OW15345   4.778   4.527   0.597  0.4454 -0.2131  0.7659
 5019SOL    HW115346   4.779   4.521   0.696 -1.1002  0.4878  0.8557
 5019SOL    HW215347   4.851   4.589   0.566  0.3288  0.3186  1.5336
 5020SOL     OW15348   1.070   5.657   2.132 -0.4449  0.0400  0.5062
 5020SOL    HW115349   1.132   5.663   2.209 -0.0309  0.8082  0.1314
 5020SOL    HW215350   1.058   5.749   2.092 -0.5907 -0.3498 -0.3798
 5021SOL     OW15351   4.873   0.552   1.679  0.1591 -0.1687 -0.9914
 5021SOL    HW115352   4.945   0.608   1.721 -0.2614  0.3726 -0.9687
 5021SOL    HW215353   4.911   0.465   1.649  0.8947  0.2512 -1.2869
 5022SOL     OW15354   3.891   4.838   3.456 -0.0272  0.5143  0.8471
 5022SOL    HW115355   3.880   4.936   3.439 -1.4531  0.8526  3.1531
 5022SOL    HW215356   3.988   4.814   3.454  0.2277  1.1814 -3.1474
 5023SOL     OW15357   4.651   3.135   3.686 -0.0319  0.1895 -0.1426
 5023SOL    HW115358   4.655   3.103   3.780 -0.3363  1.2391  0.2495
 5023SOL    HW215359   4.564   3.108   3.645 -0.0698  0.0742  0.0158
 5024SOL     OW15360   4.200   5.671   0.437 -0.3799 -0.0062  0.4006
 5024SOL    HW115361   4.166   5.673   0.342 -2.6948 -0.3802  1.1524
 5024SOL    HW215362   4.147   5.734   0.492  1.5156  0.8421  1.3274
 5025SOL     OW15363   2.829   2.100   4.717 -0.5652  0.5100  0.0758
 5025SOL    HW115364   2.732   2.114   4.696 -0.6520  0.2869  0.3141
 5025SOL    HW215365   2.837   2.062   4.809 -0.4179 -1.8159 -0.8239
 5026SOL     OW15366   5.124   2.708   3.367  1.1518  0.1661  0.4595
 5026SOL    HW115367   5.028   2.712   3.393  1.7419  2.0039  2.7881
 5026SOL    HW215368   5.155   2.613   3.364 -0.4901 -0.3982  0.6720
 5027SOL     OW15369   1.687   3.588   1.493  0.2576  0.7093  0.5913
 5027SOL    HW115370   1.670   3.563   1.397 -0.2701  2.5701  0.1505
 5027SOL    HW215371   1.671   3.686   1.505  1.4450  0.7415  2.3493
 5028SOL     OW15372   0.826   1.441   0.243  0.2171 -0.2441  0.0221
 5028SOL    HW115373   0.830   1.464   0.146  1.3345 -1.0889 -0.1420
 5028SOL    HW215374   0.826   1.342   0.255  1.4600 -0.1642  0.9188
 5029SOL     OW15375   4.435   3.214   2.922 -0.1572 -0.1875 -0.2949
 5029SOL    HW115376   4.438   3.136   2.985  2.0954  1.2620  1.5370
 5029SOL    HW215377   4.518   3.216   2.867 -0.6692  0.3887 -1.0765
 5030SOL     OW15378   2.016   1.334   4.005  0.5786 -0.1368  0.0176
 5030SOL    HW115379   1.978   1.401   3.941 -1.7080 -0.0447  1.3496
 5030SOL    HW215380   2.063   1.381   4.079 -0.7909  0.0215  0.8089
 5031SOL     OW15381   4.708   0.173   0.103 -0.5543 -0.2574 -0.1451
 5031SOL    HW115382   4.806   0.156   0.116 -0.7947 -1.5283  0.2040
 5031SOL    HW215383   4.662   0.086   0.084 -1.6698  0.2745  0.0445
 5032SOL     OW15384   5.671   2.740   2.626 -0.3339  0.4927  0.1574
 5032SOL    HW115385   5.750   2.759   2.684  0.0528  0.7179 -0.4317
 5032SOL    HW215386   5.633   2.651   2.650  0.0435  0.4211  0.5062
 5033SOL     OW15387   3.722   2.536   3.135  0.1025 -0.3362 -0.0769
 5033SOL    HW115388   3.768   2.623   3.116  1.4930 -1.1086 -0.3589
 5033SOL    HW215389   3.640   2.530   3.078  0.3412  0.5100 -0.5421
 5034SOL     OW15390   4.765   1.761   3.192  0.5471 -0.3006  0.0252
 5034SOL    HW115391   4.862   1.739   3.208  0.9319  0.2342 -1.4379
 5034SOL    HW215392   4.716   1.678   3.166  0.3187 -0.8108  1.9186
 5035SOL     OW15393   0.112   0.319   1.436  0.2624  0.2804  0.5232
 5035SOL    HW115394   0.170   0.386   1.390  0.9094 -0.3866  0.3620
 5035SOL    HW215395   0.028   0.305   1.383 -0.9328  2.5519  1.6119
 5036SOL     OW15396   2.874   4.312   5.779  0.9465 -0.3898 -0.3787
 5036SOL    HW115397   2.958   4.325   5.832  1.0438  2.3400 -1.0797
 5036SOL    HW215398   2.890   4.243   5.708  3.6438  2.0937 -2.4084
 5037SOL     OW15399   4.481   5.183   0.577  0.0604 -0.0714  0.0193
 5037SOL    HW115400   4.429   5.263   0.547  0.8536  0.2924 -0.4232
 5037SOL    HW215401   4.528   5.143   0.499  0.1736 -0.5992  0.3539
 5038SOL     OW15402   0.228   1.986   4.988 -0.1621  0.2333 -0.5362
 5038SOL    HW115403   0.261   2.080   4.997  2.8175 -0.7363  0.1460
 5038SOL    HW215404   0.208   1.949   5.078  1.8120 -0.6880 -0.4100
 5039SOL     OW15405   2.657   5.581   2.300 -0.3365  0.1492 -0.1942
 5039SOL    HW115406   2.633   5.617   2.210  0.5616  0.9739 -0.1215
 5039SOL    HW215407   2.708   5.495   2.289 -3.0480 -1.5641 -0.3509
 5040SOL     OW15408   3.626   3.078   1.526 -0.0109  0.3559 -0.1092
 5040SOL    HW115409   3.702   3.106   1.585 -0.5830 -0.6610  1.1797
 5040SOL    HW215410   3.637   3.118   1.435  1.0081  1.8366  0.6235
 5041SOL     OW15411   3.455   4.291   2.496 -0.0365 -0.4130 -0.5324
 5041SOL    HW115412   3.454   4.250   2.405 -1.0361 -1.9517  0.1303
 5041SOL    HW215413   3.545   4.330   2.515  0.4950 -0.9999 -1.7777
 5042SOL     OW15414   3.453   0.091   2.438 -0.1316 -0.1841  0.1313
 5042SOL    HW115415   3.494   0.147   2.367  2.3590  0.7967  2.1759
 5042SOL    HW215416   3.354   0.100   2.434  0.0613  3.2320 -0.6229
 5043SOL     OW15417   0.233   0.884   1.256  0.4694  0.9369 -0.1625
 5043SOL    HW115418   0.253   0.870   1.353 -0.5739 -1.3405 -0.2226
 5043SOL    HW215419   0.293   0.825   1.201  1.1552  2.3112 -0.9615
 5044SOL     OW15420   4.825   4.262   1.029  0.2720  0.6803  0.1082
 5044SOL    HW115421   4.795   4.223   0.942  0.4983  0.6548  0.0396
 5044SOL    HW215422   4.746   4.297   1.080 -0.0157 -0.3562  0.4119
 5045SOL     OW15423   1.048   4.874   5.649  0.9774  0.7840 -0.1256
 5045SOL    HW115424   0.991   4.873   5.731  1.0033 -0.4780 -0.0972
 5045SOL    HW215425   1.099   4.960   5.644  0.3649  1.2095  0.7480
 5046SOL     OW15426   4.910   3.359   1.198 -0.2196  0.7007  0.5442
 5046SOL    HW115427   4.925   3.266   1.165 -1.0592  0.7803 -0.0787
 5046SOL    HW215428   4.935   3.424   1.126  0.8817  0.9877  1.1630
 5047SOL     OW15429   0.955   1.215   0.621 -0.0745 -0.1942 -0.0788
 5047SOL    HW115430   1.031   1.150   0.620 -0.8408 -1.1131 -0.7820
 5047SOL    HW215431   0.888   1.187   0.553 -1.1042  0.5320  0.6239
 5048SOL     OW15432   5.222   0.775   3.679 -0.0264  0.0375 -0.0796
 5048SOL    HW115433   5.232   0.840   3.605 -1.3964  1.5151  0.9596
 5048SOL    HW215434   5.138   0.795   3.730 -1.0438 -3.1378 -0.2733
 5049SOL     OW15435   1.650   0.609   2.884 -0.3071 -0.4113  0.5033
 5049SOL    HW115436   1.614   0.525   2.925 -0.1407 -0.4062  0.6660
 5049SOL    HW215437   1.636   0.607   2.785 -2.9555  0.6491  0.7651
 5050SOL     OW15438   4.422   3.346   0.913  0.6708 -0.4926  0.0373
 5050SOL    HW115439   4.353   3.313   0.849  1.8648 -0.0762 -1.5361
 5050SOL    HW215440   4.447   3.440   0.890  0.5522 -0.0295  1.6619
 5051SOL     OW15441   2.699   2.881   2.413 -0.7436  0.2242  0.4179
 5051SOL    HW115442   2.712   2.799   2.468  0.9709  0.2029  0.0584
 5051SOL    HW215443   2.709   2.962   2.471  1.1095  0.2033  0.2083
 5052SOL     OW15444   5.865   5.135   3.198 -0.0632 -0.5286  0.2204
 5052SOL    HW115445   5.838   5.230   3.186  1.4841 -0.0357  0.3938
 5052SOL    HW215446   5.943   5.130   3.261  0.5001 -1.8155 -0.5314
 5053SOL     OW15447   5.750   0.048   0.093  0.3825 -0.1889  0.0590
 5053SOL    HW115448   5.676   0.006   0.041 -0.9091  2.0387 -0.0242
 5053SOL    HW215449   5.786   0.126   0.042  2.2143 -0.6983  0.5109
 5054SOL     OW15450   3.890   1.793   0.936  0.2919  0.2756  0.3810
 5054SOL    HW115451   3.799   1.767   0.904 -0.3624  1.5033  1.1575
 5054SOL    HW215452   3.936   1.848   0.866  0.7406 -0.9255 -0.2981
 5055SOL     OW15453   3.541   4.638   2.026 -0.2873 -0.0277 -0.3306
 5055SOL    HW115454   3.539   4.737   2.009  1.0519  0.4347  1.7355
 5055SOL    HW215455   3.623   4.599   1.985 -1.1710 -0.4527 -1.7516
 5056SOL     OW15456   5.045   2.022   2.494  0.3056 -0.0931  0.1693
 5056SOL    HW115457   5.084   1.985   2.578  0.5776  0.1158  0.1345
 5056SOL    HW215458   5.110   2.086   2.452 -0.3476  0.7951  0.4784
 5057SOL     OW15459   2.109   1.043   3.684 -0.0462 -0.8368  0.1064
 5057SOL    HW115460   2.027   1.058   3.628 -0.3831 -0.9590  0.5543
 5057SOL    HW215461   2.152   0.957   3.657  0.2291 -0.5177 -0.4813
 5058SOL     OW15462   0.133   1.236   2.374 -0.2759 -0.2517 -0.0059
 5058SOL    HW115463   0.172   1.250   2.465  1.5812  0.0560 -0.7986
 5058SOL    HW215464   0.051   1.292   2.364 -0.2301  0.0892  1.3044
 5059SOL     OW15465   2.075   5.726   4.878  0.0603  0.4531 -0.9907
 5059SOL    HW115466   2.061   5.686   4.788 -0.6329  0.6083 -0.9568
 5059SOL    HW215467   2.070   5.826   4.872 -2.0705  0.4362 -0.4795
 5060SOL     OW15468   5.112   4.409   1.466  1.1523  0.2202 -0.4052
 5060SOL    HW115469   5.127   4.361   1.380  1.7886 -1.5514  0.6476
 5060SOL    HW215470   5.129   4.507   1.453  0.2710  0.1308 -2.5019
 5061SOL     OW15471   4.146   5.435   2.671  0.1694  0.2969 -0.0711
 5061SOL    HW115472   4.113   5.528   2.653 -0.5766  0.1566  0.5404
 5061SOL    HW215473   4.075   5.370   2.645 -0.1758 -0.0006  1.5268
 5062SOL     OW15474   2.016   3.021   1.736 -0.2579 -0.3409 -0.5491
 5062SOL    HW115475   2.017   3.110   1.691 -1.1858 -0.2556 -0.4384
 5062SOL    HW215476   2.004   3.033   1.834 -2.2751 -0.5990 -0.7177
 5063SOL     OW15477   3.221   5.706   5.294 -0.4344 -0.3305 -0.6896
 5063SOL    HW115478   3.240   5.650   5.213 -0.4780 -1.0357 -0.2245
 5063SOL    HW215479   3.173   5.789   5.267  1.2642  0.3912 -1.6163
 5064SOL     OW15480   2.235   4.832   2.331  0.2279 -0.3072  0.4534
 5064SOL    HW115481   2.161   4.765   2.341 -0.7610  0.8911  1.6863
 5064SOL    HW215482   2.200   4.924   2.353  1.4164  0.7220 -1.6087
 5065SOL     OW15483   4.375   4.112   1.576  0.1338 -0.0455 -0.6290
 5065SOL    HW115484   4.384   4.141   1.672  1.4394 -0.0323 -0.7424
 5065SOL    HW215485   4.288   4.065   1.564 -0.7662  1.3285  0.2103
 5066SOL     OW15486   5.776   0.144   1.769  0.5303  0.4460  0.4324
 5066SOL    HW115487   5.832   0.214   1.725  0.5746 -0.4999 -1.1034
 5066SOL    HW215488   5.704   0.188   1.824  0.5767  1.6945 -0.4572
 5067SOL     OW15489   2.207   1.065   3.983 -0.4274 -0.5554  0.0682
 5067SOL    HW115490   2.158   1.047   3.898 -1.2304  1.5107  0.0309
 5067SOL    HW215491   2.229   1.163   3.989  2.1703 -1.1115  0.9145
 5068SOL     OW15492   5.228   3.812   4.695  0.2618 -0.0493 -1.1152
 5068SOL    HW115493   5.214   3.785   4.790  0.0688  0.9523 -0.8476
 5068SOL    HW215494   5.182   3.748   4.634 -0.6447 -0.0210 -0.4757
 5069SOL     OW15495   1.304   0.914   1.217 -0.7455  0.2029 -0.3414
 5069SOL    HW115496   1.367   0.843   1.186 -2.0329 -0.6883 -1.0107
 5069SOL    HW215497   1.339   1.004   1.187  0.8785 -0.1049  0.4936
 5070SOL     OW15498   2.808   4.576   0.080 -0.7592 -0.2321  0.2488
 5070SOL    HW115499   2.758   4.576  -0.007  0.8523 -0.3811 -0.7294
 5070SOL    HW215500   2.814   4.482   0.114 -1.3534 -0.1799  0.5071
 5071SOL     OW15501   1.424   3.743   1.241 -0.6647 -0.4648  0.8764
 5071SOL    HW115502   1.358   3.741   1.316 -0.8321  1.2410  0.8302
 5071SOL    HW215503   1.449   3.838   1.222  2.6052 -1.0553  1.6013
 5072SOL     OW15504   4.902   4.848   1.280 -0.2325  0.0678  0.3290
 5072SOL    HW115505   4.928   4.900   1.198 -0.5693 -1.9808 -1.1534
 5072SOL    HW215506   4.825   4.894   1.325  0.4545  1.6483 -0.0242
 5073SOL     OW15507   1.115   4.025   5.075 -0.1354  0.6113  0.1047
 5073SOL    HW115508   1.040   3.959   5.084 -0.1085  0.3025 -1.6703
 5073SOL    HW215509   1.131   4.069   5.164 -1.0783 -0.7518  0.9915
 5074SOL     OW15510   2.153   1.885   2.713  0.6162 -0.7115 -0.5600
 5074SOL    HW115511   2.155   1.874   2.812  1.0373 -0.1610 -0.5015
 5074SOL    HW215512   2.059   1.901   2.683  0.6258  0.2502 -0.1154
 5075SOL     OW15513   3.448   4.465   5.276 -0.2066  0.6071  0.0086
 5075SOL    HW115514   3.466   4.559   5.307 -1.9957  1.2499 -0.7990
 5075SOL    HW215515   3.502   4.447   5.194  0.5298  0.7437  0.4544
 5076SOL     OW15516   3.481   2.149   0.411 -0.2827  0.2550  0.2535
 5076SOL    HW115517   3.449   2.143   0.505  0.7295  0.8482  0.6529
 5076SOL    HW215518   3.570   2.193   0.409  1.5142 -3.0691 -0.5978
 5077SOL     OW15519   5.523   1.477   0.608 -0.4891 -0.4150 -0.0690
 5077SOL    HW115520   5.447   1.464   0.671 -0.5459  0.8842  0.1575
 5077SOL    HW215521   5.511   1.417   0.529 -1.0423 -1.1834  0.5805
 5078SOL     OW15522   3.600   3.708   5.395 -0.3020  0.0932  0.2306
 5078SOL    HW115523   3.575   3.724   5.300  3.0945 -0.0348 -0.8259
 5078SOL    HW215524   3.607   3.610   5.412  2.0890  0.0942 -0.3941
 5079SOL     OW15525   4.476   1.424   0.469  0.5256 -0.3442 -0.2099
 5079SOL    HW115526   4.534   1.497   0.433  1.5985 -1.0823 -0.0223
 5079SOL    HW215527   4.484   1.421   0.569  0.3627 -0.6068 -0.2019
 5080SOL     OW15528   3.918   4.347   5.013 -0.5459  0.1936 -0.1309
 5080SOL    HW115529   3.989   4.332   5.082  1.1729 -2.2335 -2.2582
 5080SOL    HW215530   3.957   4.397   4.936 -1.5116 -0.0491 -0.7881
 5081SOL     OW15531   2.156   1.427   5.553 -0.1371 -0.0322  0.1496
 5081SOL    HW115532   2.091   1.409   5.627  1.7572 -1.6112  1.5239
 5081SOL    HW215533   2.155   1.349   5.489 -1.1234  0.9305 -1.0712
 5082SOL     OW15534   4.742   2.927   1.880  0.1196  0.3973 -0.1766
 5082SOL    HW115535   4.721   2.887   1.969  0.0184  2.3090  0.7109
 5082SOL    HW215536   4.831   2.894   1.848 -0.4705 -1.3976 -0.0781
 5083SOL     OW15537   1.004   4.069   2.907 -0.5813  0.1208 -0.1672
 5083SOL    HW115538   0.992   4.060   2.808  0.8353 -0.2624 -0.3351
 5083SOL    HW215539   1.101   4.082   2.927 -1.0159  1.6498  1.0879
 5084SOL     OW15540   5.005   3.739   5.812  0.1730  0.0611  0.3026
 5084SOL    HW115541   5.000   3.798   5.893 -1.7123  1.6763 -0.9001
 5084SOL    HW215542   5.081   3.769   5.754  0.4558  0.0004  0.6335
 5085SOL     OW15543   3.493   1.423   2.904 -0.4137  0.1265  1.0976
 5085SOL    HW115544   3.460   1.516   2.893 -0.2293  0.1066  0.2939
 5085SOL    HW215545   3.570   1.407   2.842 -0.9590 -0.8033  0.6358
 5086SOL     OW15546   3.580   1.649   5.102  0.0809  0.0674 -0.5092
 5086SOL    HW115547   3.661   1.691   5.143  0.9120 -1.0993 -0.9235
 5086SOL    HW215548   3.508   1.718   5.095  0.7824  0.9473  0.5137
 5087SOL     OW15549   1.986   3.858   1.582 -0.3715 -0.5294  0.5198
 5087SOL    HW115550   1.917   3.866   1.510 -1.2877 -1.2587  1.2869
 5087SOL    HW215551   1.955   3.792   1.650  0.2328  0.5335  1.8633
 5088SOL     OW15552   2.525   3.360   2.630  0.2749  0.1497 -0.3671
 5088SOL    HW115553   2.436   3.319   2.609  0.0099  0.8299 -0.6145
 5088SOL    HW215554   2.550   3.340   2.724  0.8170 -1.7640 -0.8595
 5089SOL     OW15555   4.520   2.766   3.577  0.4633  0.2152  0.2819
 5089SOL    HW115556   4.507   2.865   3.579 -2.4485 -0.1063  1.5259
 5089SOL    HW215557   4.455   2.725   3.513  1.9440 -0.8975 -0.5640
 5090SOL     OW15558   4.387   5.232   3.390  0.1817  0.0383 -0.3809
 5090SOL    HW115559   4.395   5.235   3.290 -2.2554  0.3342 -0.6203
 5090SOL    HW215560   4.430   5.148   3.424  2.8822  0.8939 -1.4022
 5091SOL     OW15561   5.739   5.388   2.959 -0.0796 -0.5611 -0.0444
 5091SOL    HW115562   5.715   5.479   2.924 -1.1267 -0.8978 -0.2175
 5091SOL    HW215563   5.784   5.398   3.048 -1.0103  0.0937  0.3717
 5092SOL     OW15564   4.753   0.425   4.208  0.4587 -0.1793  0.1392
 5092SOL    HW115565   4.711   0.403   4.120  0.6882 -0.2768  0.0536
 5092SOL    HW215566   4.733   0.520   4.232  0.5431 -0.1005 -0.1019
 5093SOL     OW15567   3.299   1.932   0.338 -0.1700 -0.4238 -0.4207
 5093SOL    HW115568   3.209   1.938   0.381 -1.0772 -1.1064 -2.1470
 5093SOL    HW215569   3.363   1.992   0.387 -1.7420  0.6872  0.3654
 5094SOL     OW15570   2.133   3.523   1.687  0.2155  0.0166  0.1361
 5094SOL    HW115571   2.185   3.506   1.771  1.4528  1.3075 -0.3195
 5094SOL    HW215572   2.191   3.569   1.621  0.0746 -3.1983 -2.4665
 5095SOL     OW15573   4.917   5.573   4.518 -0.0552 -0.5081  0.4008
 5095SOL    HW115574   4.841   5.630   4.487 -0.6840 -1.6095 -0.1642
 5095SOL    HW215575   4.908   5.557   4.616 -0.1421 -0.0396  0.4725
 5096SOL     OW15576   3.501   3.210   1.914 -0.1423  0.0790 -0.2178
 5096SOL    HW115577   3.568   3.281   1.891  0.4463 -0.3101  0.2877
 5096SOL    HW215578   3.547   3.122   1.922 -0.5307 -0.0285  1.1427
 5097SOL     OW15579   3.959   0.508   5.184 -0.7311  0.0166 -0.4084
 5097SOL    HW115580   3.971   0.555   5.271 -0.3626 -0.3751 -0.2433
 5097SOL    HW215581   3.983   0.570   5.109 -0.8528  0.2885 -0.2248
 5098SOL     OW15582   4.704   1.188   1.746  0.3910  0.3001 -0.3760
 5098SOL    HW115583   4.765   1.232   1.812 -1.3506  0.4640  1.1922
 5098SOL    HW215584   4.723   1.224   1.654  0.9813  2.1649  0.4289
 5099SOL     OW15585   1.647   3.756   3.087 -0.1383  0.3221 -0.0885
 5099SOL    HW115586   1.680   3.753   2.993  2.4581  0.0420  0.7568
 5099SOL    HW215587   1.597   3.672   3.108 -1.2271  0.6241 -1.3314
 5100SOL     OW15588   3.211   2.809   1.704  0.3612 -0.3302  0.1352
 5100SOL    HW115589   3.277   2.870   1.661 -0.4846 -0.1287 -0.9049
 5100SOL    HW215590   3.210   2.826   1.803  1.2700  0.2178  0.0617
 5101SOL     OW15591   2.026   2.546   2.449 -0.0277  0.4609 -0.1597
 5101SOL    HW115592   2.030   2.623   2.385  2.0664 -0.0717 -0.7656
 5101SOL    HW215593   2.077   2.468   2.411  0.0592 -0.3592  1.5215
 5102SOL     OW15594   2.830   3.526   1.350  0.0969  0.1595 -0.1414
 5102SOL    HW115595   2.877   3.607   1.386 -0.9788  0.2144  1.2010
 5102SOL    HW215596   2.847   3.448   1.410 -1.8435  0.2897  0.6636
 5103SOL     OW15597   3.214   3.798   2.912 -0.0289  0.0349 -0.3968
 5103SOL    HW115598   3.246   3.869   2.850  2.7744 -1.8838 -1.3354
 5103SOL    HW215599   3.137   3.833   2.966  0.1231  3.1438 -1.9809
 5104SOL     OW15600   1.466   1.220   3.271  0.3191 -0.3748  0.5567
 5104SOL    HW115601   1.554   1.215   3.317  1.1743 -0.9885 -1.0801
 5104SOL    HW215602   1.429   1.127   3.259  0.0326 -0.2181  0.1916
 5105SOL     OW15603   4.390   0.560   3.752  0.2730  0.0573 -0.5731
 5105SOL    HW115604   4.454   0.506   3.698  1.3149  1.1179 -0.4239
 5105SOL    HW215605   4.349   0.631   3.694 -0.7441 -0.5631 -0.6530
 5106SOL     OW15606   4.286   2.297   5.379 -0.7335 -0.3587 -0.5928
 5106SOL    HW115607   4.257   2.389   5.353  2.1198  1.6091  2.4299
 5106SOL    HW215608   4.375   2.277   5.339 -0.4749 -1.0225  0.2863
 5107SOL     OW15609   4.789   3.413   5.462  0.1315  0.0367  0.3357
 5107SOL    HW115610   4.715   3.467   5.421  0.8254  0.3400 -0.5684
 5107SOL    HW215611   4.877   3.448   5.430  0.7040  0.1422  1.9722
 5108SOL     OW15612   3.320   2.000   5.920  0.3468  0.4621  0.0148
 5108SOL    HW115613   3.354   2.059   5.993  1.1123  0.3190 -0.2221
 5108SOL    HW215614   3.339   2.041   5.831 -2.2798  1.5813 -0.1257
 5109SOL     OW15615   5.471   5.192   4.708  0.1505 -0.4328  0.3622
 5109SOL    HW115616   5.400   5.123   4.723 -0.2563  0.3690  2.5493
 5109SOL    HW215617   5.512   5.217   4.796  1.7546  0.6011 -0.6299
 5110SOL     OW15618   1.617   2.443   5.044 -0.4120 -0.6065 -0.1534
 5110SOL    HW115619   1.597   2.355   5.087  0.3809 -1.2304 -1.0266
 5110SOL    HW215620   1.581   2.444   4.951  1.1912 -0.7381 -0.8061
 5111SOL     OW15621   3.178   0.177   4.341 -0.2893  0.3344  0.2542
 5111SOL    HW115622   3.261   0.179   4.397  0.2728  1.1408 -0.5764
 5111SOL    HW215623   3.157   0.083   4.316  0.1646  0.0872  0.7885
 5112SOL     OW15624   5.074   5.245   2.527  0.7949  0.3496 -0.1365
 5112SOL    HW115625   5.079   5.232   2.428  2.2606  2.1698 -0.3420
 5112SOL    HW215626   5.166   5.242   2.566  0.2550 -0.1540  1.1654
 5113SOL     OW15627   1.970   3.361   2.584 -0.4837  0.1294  0.2610
 5113SOL    HW115628   1.963   3.312   2.496 -0.0246  0.2383  0.1607
 5113SOL    HW215629   2.014   3.449   2.569 -0.3423  0.1180  0.6182
 5114SOL     OW15630   0.481   0.705   3.454  0.4287  0.2612 -0.5794
 5114SOL    HW115631   0.469   0.766   3.375  1.7390 -0.3486 -1.2881
 5114SOL    HW215632   0.409   0.636   3.454  0.6859 -0.0298 -1.5561
 5115SOL     OW15633   1.754   1.061   0.558  0.0732 -0.0389  0.5030
 5115SOL    HW115634   1.789   0.993   0.493  0.7907 -0.5604  1.4049
 5115SOL    HW215635   1.679   1.021   0.611  0.1192  0.0603  0.6439
 5116SOL     OW15636   3.093   4.775   1.459 -0.0709 -0.0922 -0.1370
 5116SOL    HW115637   3.041   4.708   1.406  1.5640 -2.5095  1.1293
 5116SOL    HW215638   3.092   4.749   1.555  2.4652  0.4012  0.0906
 5117SOL     OW15639   5.047   0.578   1.076  0.0379  0.1753  0.0798
 5117SOL    HW115640   5.069   0.658   1.131 -0.3766  0.8130 -0.6644
 5117SOL    HW215641   5.011   0.506   1.135  1.2767  0.1920  0.8807
 5118SOL     OW15642   4.683   2.310   1.683  0.2381  0.1810  0.0161
 5118SOL    HW115643   4.748   2.348   1.749  1.8702 -1.5360 -0.5396
 5118SOL    HW215644   4.687   2.363   1.598  0.7911  0.1811  0.0399
 5119SOL     OW15645   5.834   2.036   5.682 -0.1949 -0.0128  0.5566
 5119SOL    HW115646   5.807   1.989   5.766  0.4344 -1.0740  0.1813
 5119SOL    HW215647   5.778   2.118   5.671 -1.2596 -0.6129  1.2827
 5120SOL     OW15648   3.043   4.409   3.632 -0.3215 -0.2240 -0.6251
 5120SOL    HW115649   3.020   4.327   3.685  2.3276 -0.3046  0.6140
 5120SOL    HW215650   3.029   4.490   3.689  0.9677 -0.1887 -0.3080
 5121SOL     OW15651   3.637   4.768   0.228 -0.0620  0.4850  0.3026
 5121SOL    HW115652   3.691   4.852   0.220  2.2913 -1.0392 -1.0503
 5121SOL    HW215653   3.654   4.726   0.317  0.1592  0.5607  0.2970
 5122SOL     OW15654   2.141   1.330   2.063 -0.1097 -0.4506 -0.7577
 5122SOL    HW115655   2.195   1.408   2.029  0.2369 -0.9472 -1.3660
 5122SOL    HW215656   2.045   1.356   2.069 -0.0981 -0.1778 -1.6118
 5123SOL     OW15657   5.737   2.840   1.641  0.1790 -0.0603 -0.2923
 5123SOL    HW115658   5.657   2.856   1.583  1.4856  0.9327 -1.9269
 5123SOL    HW215659   5.793   2.768   1.601  0.9612  0.4372 -0.1094
 5124SOL     OW15660   1.695   3.809   0.667 -0.3123 -0.1726 -0.2832
 5124SOL    HW115661   1.603   3.777   0.643 -0.1927  0.2089 -1.2912
 5124SOL    HW215662   1.749   3.732   0.701 -1.0838 -0.3436  0.5612
 5125SOL     OW15663   0.674   4.867   5.243  0.1981  0.4660 -0.2167
 5125SOL    HW115664   0.764   4.882   5.284 -0.2523 -2.5280  2.2641
 5125SOL    HW215665   0.605   4.915   5.297 -0.0451 -0.6178  0.4723
 5126SOL     OW15666   5.252   0.620   4.168 -0.0318  0.1669 -0.2604
 5126SOL    HW115667   5.233   0.708   4.125 -2.5401 -0.0254  0.3352
 5126SOL    HW215668   5.225   0.546   4.106 -1.7567 -0.1215  0.7760
 5127SOL     OW15669   2.230   1.885   5.323  0.1524  0.3631 -0.3777
 5127SOL    HW115670   2.319   1.893   5.279  0.9342  1.7168  1.3130
 5127SOL    HW215671   2.212   1.790   5.345 -0.0276 -0.2907 -2.9858
 5128SOL     OW15672   0.231   3.300   0.857  0.9747  0.8720 -0.1501
 5128SOL    HW115673   0.229   3.315   0.956  0.3199  0.3495 -0.0826
 5128SOL    HW215674   0.150   3.250   0.829  1.1747  0.9880 -0.9538
 5129SOL     OW15675   5.760   5.693   0.180  0.0689 -0.3204 -0.3389
 5129SOL    HW115676   5.728   5.771   0.127 -0.5579  0.4373  1.1009
 5129SOL    HW215677   5.814   5.726   0.258 -3.3936 -0.9482  2.5720
 5130SOL     OW15678   2.856   3.472   4.111  0.5023 -0.3112  0.3091
 5130SOL    HW115679   2.838   3.417   4.193 -0.2634 -0.3283  0.1354
 5130SOL    HW215680   2.788   3.545   4.104  2.8592  2.2211  1.8243
 5131SOL     OW15681   2.663   0.704   5.482  0.2020  0.3303  0.5539
 5131SOL    HW115682   2.700   0.764   5.411 -2.0707  0.8850 -0.2331
 5131SOL    HW215683   2.641   0.615   5.443 -2.0462  0.9726  0.2136
 5132SOL     OW15684   5.500   3.905   4.233 -0.2897 -0.1249 -0.0981
 5132SOL    HW115685   5.450   3.922   4.148 -2.9116 -0.4032  1.2862
 5132SOL    HW215686   5.522   3.992   4.277 -1.7491 -0.0102  0.4444
 5133SOL     OW15687   0.373   5.626   3.895  0.3096  0.0714  0.0762
 5133SOL    HW115688   0.424   5.595   3.976 -0.9906  0.1213  0.9531
 5133SOL    HW215689   0.381   5.725   3.887  0.0439  0.1265  0.4411
 5134SOL     OW15690   3.975   4.350   1.839  0.0565  0.0169 -0.0599
 5134SOL    HW115691   4.018   4.299   1.913 -0.7231 -0.2975  0.1930
 5134SOL    HW215692   4.037   4.355   1.761  0.4922 -0.5318  0.2445
 5135SOL     OW15693   5.462   3.293   3.338  0.1746 -0.2834  0.2486
 5135SOL    HW115694   5.559   3.304   3.317  0.3630 -0.7503  0.8310
 5135SOL    HW215695   5.452   3.229   3.415 -0.6282 -0.8018 -0.2716
 5136SOL     OW15696   0.082   1.815   0.841 -0.0737 -0.0036  0.2146
 5136SOL    HW115697   0.085   1.731   0.788 -0.5035 -0.9723  1.6545
 5136SOL    HW215698   0.015   1.806   0.915 -1.5615  2.3234 -0.7222
 5137SOL     OW15699   1.081   4.658   0.030 -0.2116 -0.5386 -0.2621
 5137SOL    HW115700   1.018   4.620   0.097  0.1534 -0.2522  0.2496
 5137SOL    HW215701   1.071   4.610  -0.057 -0.7221 -0.8774 -0.0172
 5138SOL     OW15702   5.222   2.305   2.110 -0.1570  0.5062  0.2420
 5138SOL    HW115703   5.303   2.251   2.089 -0.0398  0.4857  0.7184
 5138SOL    HW215704   5.241   2.402   2.095 -0.3929  0.4091 -0.6911
 5139SOL     OW15705   3.417   4.203   5.720  0.0614 -0.0822 -0.3314
 5139SOL    HW115706   3.362   4.140   5.776 -2.4165  0.3145 -2.1449
 5139SOL    HW215707   3.397   4.297   5.746 -1.3369  0.1205 -1.9559
 5140SOL     OW15708   0.271   1.569   3.207 -0.3021  0.1942  0.6512
 5140SOL    HW115709   0.281   1.597   3.111 -1.5911 -1.3848  0.0029
 5140SOL    HW215710   0.278   1.469   3.213  1.7000  0.3621  2.5091
 5141SOL     OW15711   4.342   5.068   2.452  0.2234  0.1481  0.7950
 5141SOL    HW115712   4.380   5.146   2.501 -0.6436  0.1155  1.5453
 5141SOL    HW215713   4.416   5.011   2.416  0.8784  1.4411  0.0017
 5142SOL     OW15714   5.909   2.558   2.187 -0.1060  0.0712 -0.2123
 5142SOL    HW115715   5.865   2.508   2.112 -0.2425 -2.4841  1.4750
 5142SOL    HW215716   5.845   2.570   2.262  0.7507  0.3737  0.4946
 5143SOL     OW15717   3.685   5.907   0.169  0.2719 -0.1249 -0.1313
 5143SOL    HW115718   3.656   5.857   0.087  0.6966 -1.0958  0.3073
 5143SOL    HW215719   3.761   5.967   0.146  1.7985 -1.9416 -0.0387
 5144SOL     OW15720   5.967   0.439   5.136  0.4584  0.0900 -0.8374
 5144SOL    HW115721   6.001   0.394   5.054 -0.8829  0.6385 -1.7162
 5144SOL    HW215722   5.905   0.377   5.185 -0.0693  0.3656 -1.1505
 5145SOL     OW15723   4.524   3.103   0.451 -0.4699  0.3651  0.1463
 5145SOL    HW115724   4.445   3.162   0.469 -0.1221  1.0869 -0.6170
 5145SOL    HW215725   4.512   3.058   0.362  0.0973  0.6942 -0.1010
 5146SOL     OW15726   0.766   1.762   4.556 -0.4530 -0.4002  0.3187
 5146SOL    HW115727   0.865   1.765   4.569 -0.1877  0.0077 -1.4979
 5146SOL    HW215728   0.738   1.667   4.541 -0.0590 -0.3566 -0.8299
 5147SOL     OW15729   3.290   4.707   5.910 -0.6253  0.0322 -0.9619
 5147SOL    HW115730   3.263   4.759   5.991  0.1940 -0.3153 -0.4606
 5147SOL    HW215731   3.210   4.661   5.872 -0.9860  0.0917 -0.2773
 5148SOL     OW15732   5.017   1.918   3.357 -0.8828  0.3742 -0.8804
 5148SOL    HW115733   4.935   1.952   3.403 -1.8255 -0.1388 -2.1568
 5148SOL    HW215734   4.994   1.842   3.297  0.3971  0.7121 -1.8531
 5149SOL     OW15735   0.693   2.290   1.414 -0.6418  0.1972  0.0632
 5149SOL    HW115736   0.630   2.235   1.359  0.9597 -0.9320 -0.7098
 5149SOL    HW215737   0.683   2.264   1.510 -1.3593  0.0467 -0.0416
 5150SOL     OW15738   4.852   5.423   0.449 -0.2242  0.1054 -0.0509
 5150SOL    HW115739   4.840   5.358   0.524  2.4040  1.1171  1.3743
 5150SOL    HW215740   4.802   5.507   0.470 -0.7419 -0.1729 -0.1703
 5151SOL     OW15741   0.577   4.598   5.834  0.5341  0.9527  0.5956
 5151SOL    HW115742   0.637   4.645   5.770 -2.1246  1.8297 -1.4301
 5151SOL    HW215743   0.488   4.582   5.791  0.0675 -2.6261  2.5132
 5152SOL     OW15744   0.961   2.141   1.912 -0.3246 -0.6521  0.4810
 5152SOL    HW115745   1.003   2.131   2.002 -0.0300  1.2130  0.5962
 5152SOL    HW215746   1.031   2.171   1.846 -1.2586  1.9580  0.5571
 5153SOL     OW15747   5.409   4.025   5.386  0.1845 -0.3265  0.2238
 5153SOL    HW115748   5.315   4.047   5.413 -0.2584 -0.8447 -0.8305
 5153SOL    HW215749   5.466   4.018   5.467 -0.4686  0.9650  0.8244
 5154SOL     OW15750   0.036   4.790   2.619 -0.8255 -0.2375  0.3313
 5154SOL    HW115751   0.073   4.698   2.628 -0.0239 -0.1592 -1.5702
 5154SOL    HW215752  -0.044   4.800   2.678 -0.7178 -2.0292  0.8404
 5155SOL     OW15753   4.652   3.540   0.503 -0.5588 -0.1129  0.4675
 5155SOL    HW115754   4.555   3.516   0.506 -1.0112  1.2394 -1.6255
 5155SOL    HW215755   4.698   3.484   0.433 -0.0403 -0.0348  0.7429
 5156SOL     OW15756   2.862   2.472   0.314 -0.2484  0.1523  0.0437
 5156SOL    HW115757   2.841   2.569   0.301 -1.2847 -0.2129 -1.2280
 5156SOL    HW215758   2.777   2.419   0.311  0.4991 -1.0388 -1.6900
 5157SOL     OW15759   1.398   1.273   1.700  0.4646  0.5570 -0.0641
 5157SOL    HW115760   1.493   1.255   1.725  0.3972  1.1254  0.6404
 5157SOL    HW215761   1.337   1.220   1.759  0.3062  1.8573  1.0019
 5158SOL     OW15762   3.758   1.102   5.472 -0.2098 -0.1115  0.0907
 5158SOL    HW115763   3.844   1.149   5.492 -0.4879  1.2518 -1.6914
 5158SOL    HW215764   3.778   1.014   5.429  0.3199  0.6478 -1.2589
 5159SOL     OW15765   1.816   5.135   2.272 -0.5573  0.5326 -0.0572
 5159SOL    HW115766   1.726   5.093   2.287 -0.1374  0.0203  1.1301
 5159SOL    HW215767   1.841   5.124   2.176 -0.7492 -1.4274  0.0582
 5160SOL     OW15768   2.561   3.276   3.288  0.3130 -0.8082  0.2416
 5160SOL    HW115769   2.597   3.267   3.381 -0.2702  0.8018  0.6680
 5160SOL    HW215770   2.633   3.306   3.226  1.1955 -3.7511 -0.2989
 5161SOL     OW15771   3.684   4.567   5.645 -0.3478 -0.2276  0.5593
 5161SOL    HW115772   3.780   4.590   5.633 -0.4105 -0.1596  0.1494
 5161SOL    HW215773   3.642   4.630   5.711 -1.3116  3.1416 -2.8909
 5162SOL     OW15774   4.887   5.085   5.380  0.0237 -0.0964 -0.0186
 5162SOL    HW115775   4.950   5.145   5.429 -2.6039  0.6404  2.8272
 5162SOL    HW215776   4.819   5.141   5.333 -0.4341 -0.8285 -0.2432
 5163SOL     OW15777   2.200   2.453   3.381 -0.9872  0.4665  0.5605
 5163SOL    HW115778   2.176   2.428   3.475 -1.1147 -0.7493  0.2173
 5163SOL    HW215779   2.256   2.536   3.382  0.6563 -0.6050  1.8527
 5164SOL     OW15780   3.736   1.984   1.061  0.3167  0.1616  0.1208
 5164SOL    HW115781   3.754   2.001   1.158  1.3786  0.2624 -0.0818
 5164SOL    HW215782   3.796   1.911   1.028 -1.0934 -0.9382 -0.1054
 5165SOL     OW15783   0.023   0.798   4.034  0.4225 -0.0500  0.4851
 5165SOL    HW115784   0.042   0.763   4.126 -1.6233 -1.3252  0.4766
 5165SOL    HW215785  -0.048   0.742   3.991  0.0817  1.5930 -1.2102
 5166SOL     OW15786   5.486   5.652   5.579 -0.3848 -0.6754 -0.5061
 5166SOL    HW115787   5.495   5.604   5.491  0.4578 -1.9865  0.2613
 5166SOL    HW215788   5.436   5.595   5.643 -0.8797  0.2241 -0.0857
 5167SOL     OW15789   0.785   5.364   0.777  0.1749 -0.5442 -0.0221
 5167SOL    HW115790   0.817   5.302   0.706  0.8396 -1.1800  0.8135
 5167SOL    HW215791   0.704   5.325   0.821  0.4354 -0.6971  0.3259
 5168SOL     OW15792   1.740   5.893   4.554  0.0328  0.2327 -0.1628
 5168SOL    HW115793   1.675   5.925   4.486  1.6484  0.6725 -1.5761
 5168SOL    HW215794   1.781   5.971   4.601 -0.3229 -0.0339  0.6097
 5169SOL     OW15795   5.248   4.956   2.723 -0.0754  0.1186  0.0410
 5169SOL    HW115796   5.165   4.944   2.777  0.1658 -1.2490  0.1371
 5169SOL    HW215797   5.323   4.907   2.766  0.2246 -0.6439 -1.2942
 5170SOL     OW15798   1.152   5.501   5.237 -0.7732  1.0319 -0.2833
 5170SOL    HW115799   1.206   5.492   5.320 -1.4284 -0.8460  0.0007
 5170SOL    HW215800   1.211   5.529   5.161  0.4782 -0.1891  0.1857
 5171SOL     OW15801   5.328   5.215   1.531  0.2687 -0.3404 -0.3789
 5171SOL    HW115802   5.355   5.133   1.582 -1.5190  0.1611  1.4922
 5171SOL    HW215803   5.407   5.274   1.518  0.8906 -0.7089  1.4474
 5172SOL     OW15804   1.405   3.805   0.217 -0.1530  0.0293  0.5677
 5172SOL    HW115805   1.439   3.750   0.293  1.2601 -0.3437 -0.3024
 5172SOL    HW215806   1.447   3.896   0.221 -1.4006  0.6122  1.1886
 5173SOL     OW15807   0.368   0.862   0.689  0.0696  0.1591  0.6850
 5173SOL    HW115808   0.391   0.912   0.773 -0.3499 -0.5733  1.2508
 5173SOL    HW215809   0.404   0.911   0.610 -0.7777  1.6538  1.1726
 5174SOL     OW15810   0.396   1.383   1.049 -0.0403  0.3521 -0.2315
 5174SOL    HW115811   0.409   1.437   1.132 -0.1259  1.3226 -0.8303
 5174SOL    HW215812   0.480   1.332   1.028 -0.2797 -0.5440  0.8743
 5175SOL     OW15813   3.145   4.190   4.272 -0.0890  0.0788 -0.4585
 5175SOL    HW115814   3.119   4.135   4.351 -1.1977 -0.0647 -0.8963
 5175SOL    HW215815   3.064   4.206   4.215  0.7814 -0.2806 -1.8471
 5176SOL     OW15816   5.651   3.659   1.019  0.4168 -0.2029 -0.0678
 5176SOL    HW115817   5.598   3.616   1.092  3.1382 -0.3096  2.0320
 5176SOL    HW215818   5.644   3.759   1.028  0.2064 -0.2149 -0.0904
 5177SOL     OW15819   5.070   4.525   3.908 -0.5638  0.7669  0.3970
 5177SOL    HW115820   5.168   4.510   3.893 -0.5796 -0.7801  1.5839
 5177SOL    HW215821   5.039   4.602   3.853  1.2936  1.2013 -0.1028
 5178SOL     OW15822   2.175   3.046   3.827  0.2001  0.1198  0.2770
 5178SOL    HW115823   2.100   3.090   3.778 -0.5596 -0.7856  0.5966
 5178SOL    HW215824   2.213   2.972   3.771  0.3348  0.0634  0.4421
 5179SOL     OW15825   1.820   3.898   1.368 -0.5332 -0.3347 -0.1606
 5179SOL    HW115826   1.755   3.946   1.308 -3.2450 -2.8723  0.5392
 5179SOL    HW215827   1.879   3.839   1.312 -0.5283  0.0745 -0.5966
 5180SOL     OW15828   4.289   2.264   2.397  0.0653  0.0801  0.4857
 5180SOL    HW115829   4.294   2.221   2.487  1.0628  0.3831  0.5896
 5180SOL    HW215830   4.379   2.301   2.373 -0.4362  0.8805 -0.2046
 5181SOL     OW15831   0.244   0.608   0.642 -0.4564  0.0768  1.1117
 5181SOL    HW115832   0.258   0.707   0.650  0.2671  0.2235 -1.3364
 5181SOL    HW215833   0.303   0.571   0.571 -2.7772 -1.6174 -0.0820
 5182SOL     OW15834   5.855   2.440   5.444  0.4590  0.0137 -0.1381
 5182SOL    HW115835   5.877   2.366   5.381  2.5491  1.2948 -1.0199
 5182SOL    HW215836   5.766   2.479   5.420  1.0224  0.2086 -2.0904
 5183SOL     OW15837   1.152   4.096   1.542 -0.1451 -0.7066  0.5679
 5183SOL    HW115838   1.228   4.158   1.556  0.4106 -1.3658  0.5178
 5183SOL    HW215839   1.093   4.096   1.623  0.3593 -0.8101  0.9396
 5184SOL     OW15840   1.377   5.262   0.324 -0.1803  0.3307 -0.3409
 5184SOL    HW115841   1.366   5.193   0.253 -1.1074  0.0277  0.0745
 5184SOL    HW215842   1.359   5.221   0.413 -0.7751  1.1061 -0.0894
 5185SOL     OW15843   4.519   4.835   5.624  0.5278 -0.1824 -0.0542
 5185SOL    HW115844   4.592   4.772   5.651 -0.7937 -1.8009 -0.1421
 5185SOL    HW215845   4.501   4.826   5.527  0.6035  0.6697 -0.1577
 5186SOL     OW15846   4.224   5.234   3.763  0.3194  0.0146  0.4891
 5186SOL    HW115847   4.245   5.136   3.772 -2.2359 -0.6091  0.3338
 5186SOL    HW215848   4.203   5.255   3.668  1.5881  0.9225  0.3833
 5187SOL     OW15849   0.201   4.980   0.517  0.6543 -0.0766 -0.3645
 5187SOL    HW115850   0.220   4.956   0.422  1.3086  0.2642 -0.3232
 5187SOL    HW215851   0.246   5.066   0.539 -0.1824  0.2757  0.0140
 5188SOL     OW15852   3.161   4.083   0.683  0.3315 -0.0841 -0.0252
 5188SOL    HW115853   3.204   4.002   0.644  0.4602  0.6144 -1.3861
 5188SOL    HW215854   3.231   4.143   0.722  0.4719  0.3867 -0.9758
 5189SOL     OW15855   4.629   4.235   5.827 -0.0366  0.2172  0.6093
 5189SOL    HW115856   4.660   4.196   5.914  0.9589 -0.0573  0.1476
 5189SOL    HW215857   4.551   4.182   5.793 -0.9606  0.8286  1.7236
 5190SOL     OW15858   4.896   2.479   3.758  1.0628  0.3038 -0.3011
 5190SOL    HW115859   4.813   2.498   3.706 -0.3040 -0.5787  1.4727
 5190SOL    HW215860   4.931   2.565   3.797  0.5451  0.5669 -0.4136
 5191SOL     OW15861   0.549   0.508   5.292 -0.3204 -0.0740 -0.2900
 5191SOL    HW115862   0.491   0.434   5.328 -0.8808  1.1708  1.4960
 5191SOL    HW215863   0.644   0.476   5.287 -0.2981 -0.5408  1.8538
 5192SOL     OW15864   5.419   5.453   5.770  0.2472  0.3757  0.0669
 5192SOL    HW115865   5.377   5.363   5.757  0.4946  0.3255 -0.3947
 5192SOL    HW215866   5.459   5.457   5.862  0.5966 -0.1406 -0.0549
 5193SOL     OW15867   1.998   1.743   3.823 -0.4446  0.1403 -0.3875
 5193SOL    HW115868   1.973   1.817   3.760  2.1361  0.8346 -0.7192
 5193SOL    HW215869   1.969   1.766   3.916 -0.8760  0.9317 -0.7165
 5194SOL     OW15870   1.806   1.483   5.023  0.1934 -0.0338 -0.3357
 5194SOL    HW115871   1.849   1.503   5.110 -0.9063 -1.4568  0.5892
 5194SOL    HW215872   1.789   1.568   4.973  2.1354  0.6915  0.1728
 5195SOL     OW15873   4.235   0.530   0.744  0.1442  0.1494 -0.2610
 5195SOL    HW115874   4.174   0.508   0.668 -0.6633  0.0333  0.4051
 5195SOL    HW215875   4.233   0.629   0.761  0.8846  0.2771 -0.8404
 5196SOL     OW15876   2.017   5.206   1.295  0.5487  0.0658 -0.5281
 5196SOL    HW115877   1.924   5.215   1.330  0.5415  0.2294 -0.5879
 5196SOL    HW215878   2.020   5.132   1.228  0.8291 -1.1212  0.7433
 5197SOL     OW15879   2.700   2.797   3.656 -0.0747 -0.2255 -0.3254
 5197SOL    HW115880   2.652   2.884   3.643 -1.6500 -1.0578 -0.3799
 5197SOL    HW215881   2.790   2.802   3.614  0.5368  1.9027  1.0634
 5198SOL     OW15882   2.022   3.139   4.041  0.3277 -0.0231 -0.0356
 5198SOL    HW115883   2.074   3.102   3.964 -2.0989  0.7470 -2.2138
 5198SOL    HW215884   2.053   3.232   4.060  1.2143 -0.3622  0.2197
 5199SOL     OW15885   0.260   1.224   4.214 -0.0676 -0.3838  0.3273
 5199SOL    HW115886   0.299   1.136   4.184  0.2764 -0.1526  0.0897
 5199SOL    HW215887   0.170   1.236   4.174  0.2396 -0.2425 -0.3231
 5200SOL     OW15888   3.151   0.138   5.382 -0.6483  0.1623  0.5448
 5200SOL    HW115889   3.098   0.064   5.341 -0.4691  0.8017 -0.8691
 5200SOL    HW215890   3.090   0.194   5.439 -1.3358  0.4290 -0.4334
 5201SOL     OW15891   1.434   2.362   0.758 -0.3313 -0.3623 -0.3427
 5201SOL    HW115892   1.529   2.360   0.790  0.7658 -0.1913 -3.2091
 5201SOL    HW215893   1.377   2.307   0.818  1.4950 -0.2339  1.6459
 5202SOL     OW15894   4.100   4.840   0.730  0.3626  0.0095 -0.5363
 5202SOL    HW115895   4.066   4.934   0.719 -1.4338 -0.7136 -1.6122
 5202SOL    HW215896   4.199   4.839   0.717  0.2261  1.5333 -2.0524
 5203SOL     OW15897   5.563   5.324   4.951  0.2247  0.3479 -0.3990
 5203SOL    HW115898   5.509   5.408   4.943 -0.5389 -0.2868 -2.9310
 5203SOL    HW215899   5.514   5.259   5.009 -0.6420  0.6161 -0.8028
 5204SOL     OW15900   5.199   3.704   4.936  0.5519 -0.3866  0.2187
 5204SOL    HW115901   5.212   3.700   5.035 -1.0789 -0.4223  0.4428
 5204SOL    HW215902   5.244   3.625   4.894  0.5377 -0.8194  1.0022
 5205SOL     OW15903   5.143   5.963   3.388  0.2845 -0.1954  0.6601
 5205SOL    HW115904   5.108   5.907   3.313 -1.7709 -0.7538  1.9670
 5205SOL    HW215905   5.142   5.910   3.473  3.0591  0.2389  1.0670
 5206SOL     OW15906   0.572   3.616   0.918 -0.1297  0.2656 -0.4034
 5206SOL    HW115907   0.656   3.666   0.897 -0.3739  0.4297 -1.0130
 5206SOL    HW215908   0.595   3.522   0.944  0.3763  0.8266  1.3302
 5207SOL     OW15909   4.871   0.624   4.419  0.1454 -0.0848 -0.1042
 5207SOL    HW115910   4.907   0.549   4.475 -0.7095 -1.3312 -1.1374
 5207SOL    HW215911   4.803   0.675   4.471  0.2684 -0.4393  0.4115
 5208SOL     OW15912   2.821   3.351   1.573  0.1612 -0.1798 -0.0634
 5208SOL    HW115913   2.806   3.256   1.546 -2.0762  0.2735 -0.6441
 5208SOL    HW215914   2.916   3.363   1.602  0.5658 -2.5077 -0.2260
 5209SOL     OW15915   5.560   5.387   3.349 -0.4710 -0.2336  0.3661
 5209SOL    HW115916   5.526   5.328   3.276 -0.1086 -0.7932  0.6499
 5209SOL    HW215917   5.495   5.463   3.363 -1.0523 -0.6860  0.1568
 5210SOL     OW15918   1.244   4.706   3.686  0.8991 -0.0418  0.0198
 5210SOL    HW115919   1.156   4.737   3.721  1.6088  1.9005  0.2132
 5210SOL    HW215920   1.230   4.651   3.604 -0.5047 -0.3266  0.4264
 5211SOL     OW15921   2.877   1.974   1.341 -0.3480 -0.5774  0.3603
 5211SOL    HW115922   2.796   1.995   1.395  0.1479  0.2764  0.7996
 5211SOL    HW215923   2.957   1.972   1.401  0.1072 -0.3796 -0.2323
 5212SOL     OW15924   5.474   0.768   2.385  0.2108 -0.0143 -0.0168
 5212SOL    HW115925   5.548   0.802   2.443 -1.4517 -1.0357  2.9093
 5212SOL    HW215926   5.390   0.819   2.404 -0.3267 -0.1202 -1.8819
 5213SOL     OW15927   3.569   0.866   0.073  0.3096 -0.1806  0.0830
 5213SOL    HW115928   3.470   0.865   0.059 -0.0357  2.8161  1.6665
 5213SOL    HW215929   3.593   0.798   0.142 -0.5288 -1.2479 -0.6317
 5214SOL     OW15930   2.033   1.748   1.197  0.4736 -0.6858  0.5473
 5214SOL    HW115931   2.038   1.695   1.282  0.9859  0.0488  0.9830
 5214SOL    HW215932   1.945   1.732   1.153 -0.1770 -0.3776  1.6918
 5215SOL     OW15933   0.103   5.092   3.970 -0.4513  0.4203  0.6977
 5215SOL    HW115934   0.178   5.151   3.939 -0.2369 -0.7808 -1.2723
 5215SOL    HW215935   0.140   5.018   4.026  0.1497 -0.9786 -1.4050
 5216SOL     OW15936   5.753   4.552   5.037  0.2814 -0.0984  1.3954
 5216SOL    HW115937   5.755   4.584   4.942  1.7607  0.2538  1.5239
 5216SOL    HW215938   5.708   4.621   5.093  0.8247  0.4333  1.1937
 5217SOL     OW15939   1.616   5.105   4.442  0.4267 -0.1785 -0.0582
 5217SOL    HW115940   1.599   5.042   4.366 -1.9447 -1.3280  1.2972
 5217SOL    HW215941   1.532   5.157   4.460  1.0902  0.3934  1.4619
 5218SOL     OW15942   4.655   5.931   0.686  0.4894  0.5625 -0.1844
 5218SOL    HW115943   4.649   5.855   0.750 -1.3419  1.7242  1.1222
 5218SOL    HW215944   4.595   6.005   0.716  1.1140  1.9726 -2.1793
 5219SOL     OW15945   3.730   2.868   2.863 -0.2655 -0.2890  0.4293
 5219SOL    HW115946   3.663   2.942   2.879  0.2832  0.2196  0.4055
 5219SOL    HW215947   3.687   2.796   2.809 -0.8269 -0.0044  0.4878
 5220SOL     OW15948   4.022   5.302   1.820  0.8715  0.0070 -0.2749
 5220SOL    HW115949   4.038   5.205   1.838  0.5984  0.1381  0.7406
 5220SOL    HW215950   3.961   5.339   1.890  0.6475  0.8195 -0.8883
 5221SOL     OW15951   5.403   2.477   4.345 -0.2226 -0.1803 -0.2991
 5221SOL    HW115952   5.419   2.474   4.444 -0.5284  1.5370 -0.1776
 5221SOL    HW215953   5.401   2.383   4.309  0.6034 -0.8079  1.1929
 5222SOL     OW15954   4.597   4.915   1.859 -0.0867 -0.2254  0.0464
 5222SOL    HW115955   4.508   4.957   1.844 -0.1538 -0.0653  0.8232
 5222SOL    HW215956   4.655   4.929   1.779 -1.0170 -1.0385 -0.7875
 5223SOL     OW15957   5.117   2.978   0.339 -0.2914  0.0392 -0.0295
 5223SOL    HW115958   5.093   2.999   0.244 -1.7756 -2.4205 -0.2894
 5223SOL    HW215959   5.033   2.976   0.395  0.7486  4.3764  2.1259
 5224SOL     OW15960   3.912   2.357   4.881 -0.2058  0.3263  0.1236
 5224SOL    HW115961   3.815   2.375   4.898  0.1346  2.0964  0.3511
 5224SOL    HW215962   3.958   2.336   4.967 -0.5957 -1.8938 -0.1364
 5225SOL     OW15963   0.697   5.071   2.339  0.6146  0.1908 -0.0327
 5225SOL    HW115964   0.639   4.993   2.363  1.7815 -0.6694  0.0670
 5225SOL    HW215965   0.731   5.061   2.246  0.4193  0.8072 -0.1748
 5226SOL     OW15966   1.698   5.782   3.996 -0.4263  0.7508  0.5890
 5226SOL    HW115967   1.685   5.751   3.901 -2.5639  0.5747  0.8810
 5226SOL    HW215968   1.746   5.711   4.047 -1.1381 -0.1074  0.1209
 5227SOL     OW15969   5.326   4.071   3.777 -0.2396  0.1197 -0.3236
 5227SOL    HW115970   5.345   4.131   3.700 -1.6245 -0.4861 -1.1585
 5227SOL    HW215971   5.364   3.980   3.759  0.5128  0.2982  0.2727
 5228SOL     OW15972   5.321   0.928   5.513 -0.2359 -0.2018 -0.0487
 5228SOL    HW115973   5.234   0.882   5.493 -0.7122  0.5798  0.1808
 5228SOL    HW215974   5.362   0.888   5.595 -0.2475 -0.7469 -0.3052
 5229SOL     OW15975   1.176   0.295   2.933 -0.2978 -0.2883  0.4847
 5229SOL    HW115976   1.257   0.266   2.882 -0.6579 -1.3719  0.4966
 5229SOL    HW215977   1.125   0.363   2.879  0.1474 -0.2587  0.0955
 5230SOL     OW15978   3.134   0.748   1.770 -0.1715  0.4282 -0.0136
 5230SOL    HW115979   3.147   0.805   1.851 -0.6415  0.5566 -0.0271
 5230SOL    HW215980   3.188   0.787   1.694  3.3136 -1.7335  1.1280
 5231SOL     OW15981   3.504   4.691   2.527  0.2947 -0.6552 -0.3561
 5231SOL    HW115982   3.502   4.651   2.619 -0.1203 -1.1704 -0.5849
 5231SOL    HW215983   3.487   4.619   2.459  2.7699 -0.7268 -0.9845
 5232SOL     OW15984   0.681   4.003   4.326 -0.5306  0.3019 -0.0451
 5232SOL    HW115985   0.738   4.085   4.325  0.2738 -0.2404 -0.4066
 5232SOL    HW215986   0.740   3.922   4.333 -1.2065 -0.3119 -1.0780
 5233SOL     OW15987   0.497   4.910   0.251  0.1729  0.3397 -0.2579
 5233SOL    HW115988   0.400   4.907   0.228  0.5277 -1.6869 -1.7386
 5233SOL    HW215989   0.537   4.994   0.213 -0.7191  0.5084 -0.8614
 5234SOL     OW15990   4.982   3.368   4.909  0.1922  0.3658  0.3258
 5234SOL    HW115991   4.931   3.443   4.866 -1.0797 -0.1131  0.9456
 5234SOL    HW215992   5.061   3.344   4.852  0.6404  2.1733  0.1257
 5235SOL     OW15993   2.021   4.800   3.077  0.1741 -0.0553 -0.1631
 5235SOL    HW115994   2.050   4.711   3.041 -0.0600  0.0782 -0.6792
 5235SOL    HW215995   2.004   4.863   3.002 -2.9799 -0.5652 -0.0189
 5236SOL     OW15996   5.538   2.142   1.045 -0.6528  0.7614 -0.3187
 5236SOL    HW115997   5.518   2.240   1.036 -1.4311  0.5909 -0.5642
 5236SOL    HW215998   5.622   2.130   1.097 -1.9542  1.5144  2.1404
 5237SOL     OW15999   1.060   5.974   3.357 -0.1715  0.3587 -0.2588
 5237SOL    HW116000   1.052   5.890   3.411  0.4423  1.8755  2.3359
 5237SOL    HW216001   1.145   5.973   3.305  1.2752  0.5168  1.9856
 5238SOL     OW16002   3.278   5.300   1.465 -0.5663 -0.2951  0.1441
 5238SOL    HW116003   3.332   5.251   1.398 -0.0238 -1.8905  1.6893
 5238SOL    HW216004   3.277   5.398   1.442 -0.1700 -0.7414 -1.9716
 5239SOL     OW16005   3.912   2.220   1.485  0.0322  0.3913 -0.3002
 5239SOL    HW116006   3.873   2.312   1.483  1.0799  0.8388 -1.7150
 5239SOL    HW216007   4.012   2.226   1.491  0.1216 -0.6537 -0.4968
 5240SOL     OW16008   4.386   5.819   1.036 -0.6206  0.5873  0.0273
 5240SOL    HW116009   4.386   5.866   1.123  3.1755 -0.0279  0.5185
 5240SOL    HW216010   4.330   5.736   1.043  0.1646  0.1839  2.1142
 5241SOL     OW16011   3.314   1.943   1.292  0.3332  0.4120  0.1203
 5241SOL    HW116012   3.350   2.023   1.243 -1.1776  1.4955  0.6912
 5241SOL    HW216013   3.236   1.971   1.348  0.1240 -1.3808  0.7877
 5242SOL     OW16014   3.253   1.115   4.475  0.8514  0.5689  0.0291
 5242SOL    HW116015   3.203   1.163   4.547  1.0440 -0.4202  0.8499
 5242SOL    HW216016   3.342   1.086   4.510  1.7723  1.7517 -1.2190
 5243SOL     OW16017   4.668   4.450   2.901 -0.6903  0.5042  0.3346
 5243SOL    HW116018   4.709   4.519   2.961  0.2166 -1.2429  1.8254
 5243SOL    HW216019   4.695   4.468   2.807  0.4886  1.5111  0.8320
 5244SOL     OW16020   4.346   0.144   1.645 -0.2942 -0.4422  0.1501
 5244SOL    HW116021   4.405   0.077   1.600 -0.1429 -0.6512  0.6524
 5244SOL    HW216022   4.261   0.154   1.594  0.9756  1.4008 -1.7824
 5245SOL     OW16023   4.130   0.331   3.033 -0.3530  0.9752 -0.3188
 5245SOL    HW116024   4.040   0.292   3.053 -0.6611  1.6947 -0.2620
 5245SOL    HW216025   4.161   0.301   2.943 -1.2031  1.6893 -0.8689
 5246SOL     OW16026   5.483   1.297   0.411  0.4165  0.5502  0.4354
 5246SOL    HW116027   5.474   1.201   0.439 -0.5727  0.7313  0.7690
 5246SOL    HW216028   5.541   1.302   0.330 -0.1667 -0.4108 -0.0603
 5247SOL     OW16029   1.864   0.273   0.270 -0.1573  0.2211 -0.2572
 5247SOL    HW116030   1.836   0.223   0.188  0.4380 -1.4918  0.5248
 5247SOL    HW216031   1.836   0.221   0.351  1.8354  0.3444  0.5810
 5248SOL     OW16032   1.391   3.248   3.767  0.3063  0.3300 -0.0772
 5248SOL    HW116033   1.361   3.166   3.815  2.5351  0.3527  1.5257
 5248SOL    HW216034   1.396   3.324   3.831  0.7675  1.0687 -0.9687
 5249SOL     OW16035   4.443   4.780   0.843 -0.4040 -0.0614 -0.7424
 5249SOL    HW116036   4.459   4.731   0.757 -1.4343 -0.9988 -0.4279
 5249SOL    HW216037   4.531   4.804   0.884  0.1551 -1.7600 -0.8546
 5250SOL     OW16038   5.163   4.348   4.293  0.4727 -0.0524  0.4219
 5250SOL    HW116039   5.180   4.418   4.362 -1.1654  0.0504  0.7656
 5250SOL    HW216040   5.069   4.357   4.259  0.9148 -0.7597 -1.0753
 5251SOL     OW16041   0.293   1.616   3.784 -0.6385 -0.1532 -0.4420
 5251SOL    HW116042   0.338   1.637   3.871 -0.5509 -0.1772 -0.4817
 5251SOL    HW216043   0.361   1.609   3.711 -0.9184  2.6699 -1.0967
 5252SOL     OW16044   4.766   4.582   1.249  0.0823 -0.6126  0.0178
 5252SOL    HW116045   4.827   4.537   1.314 -1.1330 -0.4285  1.3262
 5252SOL    HW216046   4.792   4.678   1.241  1.0699 -0.9318 -0.8196
 5253SOL     OW16047   5.269   2.660   0.710  0.1639  0.3283 -0.3454
 5253SOL    HW116048   5.185   2.714   0.720 -1.4465 -1.6160 -2.5043
 5253SOL    HW216049   5.257   2.571   0.754  1.1121  0.0394 -0.6496
 5254SOL     OW16050   1.963   2.452   0.389 -0.2734 -0.6035 -0.7207
 5254SOL    HW116051   1.962   2.419   0.295 -0.1585 -2.4152 -0.1311
 5254SOL    HW216052   1.980   2.375   0.451 -0.4259  0.5326  0.7928
 5255SOL     OW16053   5.288   0.167   1.011 -0.5199  0.2283  0.0391
 5255SOL    HW116054   5.331   0.243   1.061 -2.8945  1.4428  0.3665
 5255SOL    HW216055   5.284   0.190   0.913  0.2968 -0.2789 -0.1282
 5256SOL     OW16056   5.133   3.036   2.271  0.1055 -0.0865  0.2229
 5256SOL    HW116057   5.068   2.963   2.251  0.8406 -0.9282  0.8156
 5256SOL    HW216058   5.226   2.999   2.270  0.4784  0.8103  0.6919
 5257SOL     OW16059   3.818   2.854   2.045 -0.0895  0.2359 -0.3985
 5257SOL    HW116060   3.799   2.864   2.143 -2.7361 -2.2043 -0.5338
 5257SOL    HW216061   3.865   2.768   2.029 -1.0805 -0.1377 -1.3971
 5258SOL     OW16062   2.511   1.936   4.193  0.3731 -0.3133 -0.0362
 5258SOL    HW116063   2.470   2.020   4.228  1.5552 -0.2213  1.2021
 5258SOL    HW216064   2.447   1.860   4.204  0.3052 -0.0742  1.3419
 5259SOL     OW16065   2.309   5.665   1.995  0.1665 -0.5004  0.4223
 5259SOL    HW116066   2.368   5.743   2.016 -2.2895  0.9847  2.4216
 5259SOL    HW216067   2.243   5.652   2.069 -1.1754 -2.8947 -1.0567
 5260SOL     OW16068   0.992   5.549   5.847 -0.2495  0.3420  0.0971
 5260SOL    HW116069   0.893   5.537   5.856 -0.2148 -0.9796 -1.0261
 5260SOL    HW216070   1.026   5.603   5.925 -1.7400  0.2551  0.8430
 5261SOL     OW16071   0.746   4.877   0.439 -0.0943 -0.0810  0.3586
 5261SOL    HW116072   0.661   4.838   0.403  0.7578 -2.0095  0.2978
 5261SOL    HW216073   0.782   4.944   0.374 -1.1839  0.2050  0.0375
 5262SOL     OW16074   4.508   4.113   3.370 -0.3133  0.0708  0.5599
 5262SOL    HW116075   4.596   4.100   3.326 -2.2093 -1.4287 -3.2820
 5262SOL    HW216076   4.473   4.025   3.401 -1.3849  0.2599 -0.0435
 5263SOL     OW16077   5.711   2.661   4.801 -0.6931 -0.0182 -0.6453
 5263SOL    HW116078   5.730   2.566   4.825  1.2633  0.1844 -1.1501
 5263SOL    HW216079   5.743   2.678   4.707 -1.0378  1.1316 -0.5700
 5264SOL     OW16080   2.248   1.717   3.959 -0.6800  0.1541  0.3497
 5264SOL    HW116081   2.240   1.684   4.053 -0.4674  0.4494  0.4734
 5264SOL    HW216082   2.158   1.743   3.925 -0.6896  0.4870  0.6337
 5265SOL     OW16083   0.157   2.732   3.129 -0.0365  0.0756 -0.0468
 5265SOL    HW116084   0.132   2.819   3.170  2.5336  1.1358 -0.5192
 5265SOL    HW216085   0.146   2.738   3.029 -0.5727 -0.4402 -0.0295
 5266SOL     OW16086   5.257   0.046   2.581 -0.0767 -0.0346 -0.2979
 5266SOL    HW116087   5.243   0.100   2.497  1.8594  0.9401 -0.0442
 5266SOL    HW216088   5.343  -0.003   2.575 -0.1856 -0.3924  0.9059
 5267SOL     OW16089   5.431   1.469   1.641 -0.0119 -0.1317  0.4751
 5267SOL    HW116090   5.415   1.506   1.550  0.9767 -1.3408 -0.2246
 5267SOL    HW216091   5.508   1.516   1.684 -0.5064  0.4685  0.7287
 5268SOL     OW16092   0.770   0.640   4.863  0.2133  0.4834  0.0860
 5268SOL    HW116093   0.832   0.574   4.904 -1.1208 -1.6857 -1.2007
 5268SOL    HW216094   0.821   0.721   4.834  1.8422  0.2399  2.0353
 5269SOL     OW16095   0.846   2.837   0.567  0.0528  0.0538 -0.0252
 5269SOL    HW116096   0.814   2.822   0.661  1.6758  0.6022  0.6472
 5269SOL    HW216097   0.808   2.923   0.533  0.7057  0.6772  0.7506
 5270SOL     OW16098   5.482   4.245   0.569 -0.4331 -0.3031  0.3946
 5270SOL    HW116099   5.427   4.161   0.577 -0.9293  0.1533  2.2225
 5270SOL    HW216100   5.472   4.299   0.652 -0.3785  1.7593 -0.8907
 5271SOL     OW16101   4.302   2.579   0.144 -0.3295 -1.0941 -0.7842
 5271SOL    HW116102   4.315   2.638   0.065 -0.6995  2.0058  1.2839
 5271SOL    HW216103   4.391   2.547   0.176 -0.0231 -0.9047 -1.4212
 5272SOL     OW16104   0.347   1.495   1.494  0.1524  0.7937  0.2054
 5272SOL    HW116105   0.353   1.513   1.396 -0.3891 -1.5234 -0.3169
 5272SOL    HW216106   0.250   1.490   1.520  0.2937  0.8662  0.7486
 5273SOL     OW16107   2.915   4.145   4.700 -0.1471  0.2484  0.0298
 5273SOL    HW116108   2.871   4.068   4.745 -1.7470  0.9659 -0.2464
 5273SOL    HW216109   2.912   4.225   4.761 -2.5877  1.3116 -1.3340
 5274SOL     OW16110   3.553   0.218   0.479  0.5548 -0.5552  0.7046
 5274SOL    HW116111   3.597   0.263   0.401  0.1366  1.5413  1.6206
 5274SOL    HW216112   3.614   0.147   0.515  0.9845 -1.1782 -1.1487
 5275SOL     OW16113   1.076   0.401   5.412 -0.0809 -0.0565 -0.3811
 5275SOL    HW116114   1.170   0.374   5.392 -0.1636 -0.0381 -0.7892
 5275SOL    HW216115   1.039   0.454   5.336 -0.6065 -0.5169 -0.4546
 5276SOL     OW16116   1.327   3.142   1.191  1.2060  0.0460  0.3139
 5276SOL    HW116117   1.362   3.054   1.158  0.9435  0.0985 -0.1307
 5276SOL    HW216118   1.243   3.126   1.244  1.4813 -0.0180  0.7311
 5277SOL     OW16119   3.299   4.308   3.848 -0.0679  0.1024  0.7159
 5277SOL    HW116120   3.341   4.325   3.938  1.8478  0.5796 -0.2151
 5277SOL    HW216121   3.200   4.322   3.855  0.1224  0.9328  2.5631
 5278SOL     OW16122   0.282   3.434   2.292  0.2916  0.2448  0.4048
 5278SOL    HW116123   0.189   3.467   2.277  0.0754 -0.9961 -1.2226
 5278SOL    HW216124   0.336   3.506   2.336 -1.9068  0.3389  3.2978
 5279SOL     OW16125   0.603   5.086   4.834  0.1363  0.3700 -0.2512
 5279SOL    HW116126   0.684   5.045   4.875 -0.6315  0.0394  1.0027
 5279SOL    HW216127   0.524   5.069   4.893 -0.8101  0.8607 -1.3411
 5280SOL     OW16128   3.659   3.414   5.420  0.9630  0.0466  0.0095
 5280SOL    HW116129   3.624   3.455   5.504 -0.4299  0.9891 -1.0032
 5280SOL    HW216130   3.598   3.341   5.390  2.2256 -1.2992  0.5601
 5281SOL     OW16131   1.893   4.027   3.100  0.0160  0.5554  0.2804
 5281SOL    HW116132   1.976   3.989   3.143 -0.2421  0.7997  1.0077
 5281SOL    HW216133   1.860   4.104   3.154 -1.3125 -0.2235  0.6262
 5282SOL     OW16134   5.928   2.161   3.960  0.0151  0.3730 -0.2354
 5282SOL    HW116135   5.920   2.146   3.861 -2.3933 -0.0410 -0.0516
 5282SOL    HW216136   5.867   2.236   3.987  0.2866  0.1788  0.9881
 5283SOL     OW16137   5.754   3.392   2.213 -0.1389 -0.2514  0.2545
 5283SOL    HW116138   5.776   3.311   2.158 -1.7800 -0.7805  0.3120
 5283SOL    HW216139   5.709   3.460   2.156 -1.1412 -0.4820  0.7378
 5284SOL     OW16140   5.598   2.998   5.199  0.1375 -0.3620 -0.2309
 5284SOL    HW116141   5.502   3.019   5.187  0.3504  0.1698 -1.0993
 5284SOL    HW216142   5.642   3.069   5.255  0.3331  0.2046 -1.0895
 5285SOL     OW16143   1.299   3.381   2.553  0.0613  0.7287 -0.1573
 5285SOL    HW116144   1.265   3.391   2.647  0.0642 -1.2230  0.0793
 5285SOL    HW216145   1.391   3.343   2.555  0.0379  0.6240 -0.9561
 5286SOL     OW16146   1.056   2.664   5.679 -0.0141  0.2443 -0.3691
 5286SOL    HW116147   1.015   2.689   5.767 -0.0381 -1.3370  0.1037
 5286SOL    HW216148   0.985   2.632   5.617 -0.1479  2.3575 -1.3788
 5287SOL     OW16149   2.160   3.445   4.363 -0.3171  0.5436  0.0499
 5287SOL    HW116150   2.173   3.431   4.265 -2.3489  0.2882 -0.2261
 5287SOL    HW216151   2.209   3.527   4.392 -0.5816  1.2660 -1.4244
 5288SOL     OW16152   1.945   3.219   1.279 -0.0864 -0.4549 -0.4433
 5288SOL    HW116153   2.012   3.293   1.273  0.8528 -1.3093 -0.8259
 5288SOL    HW216154   1.894   3.227   1.365 -0.3989  0.9384 -0.7208
 5289SOL     OW16155   4.964   3.561   2.687 -0.1243  0.2902 -0.1546
 5289SOL    HW116156   4.916   3.621   2.751  0.8543  0.6704  0.2443
 5289SOL    HW216157   4.989   3.476   2.734  2.1813  1.2822  0.5761
 5290SOL     OW16158   3.487   4.608   1.099 -0.0839 -0.1039 -0.4949
 5290SOL    HW116159   3.562   4.671   1.075  0.7624  0.4657  3.1064
 5290SOL    HW216160   3.525   4.520   1.126 -0.6298  0.2337  1.5037
 5291SOL     OW16161   1.480   4.456   0.366  0.0023 -0.4145 -0.1652
 5291SOL    HW116162   1.477   4.362   0.401 -0.3209 -0.5547 -0.5618
 5291SOL    HW216163   1.403   4.470   0.303 -0.7493  0.5291  0.9208
 5292SOL     OW16164   0.382   1.206   5.363 -0.0160 -0.0711 -0.7701
 5292SOL    HW116165   0.284   1.227   5.367  0.1058  0.3668  0.0764
 5292SOL    HW216166   0.431   1.265   5.427  0.6901 -0.9506 -0.4875
 5293SOL     OW16167   0.827   4.694   1.162 -0.5375 -0.3612  0.2201
 5293SOL    HW116168   0.876   4.767   1.115  0.1283 -0.2998  0.9949
 5293SOL    HW216169   0.729   4.714   1.162 -0.5452 -0.3278 -1.0676
 5294SOL     OW16170   5.593   1.848   0.950  0.6714 -0.3906 -0.1636
 5294SOL    HW116171   5.621   1.900   0.870  0.3304 -0.5616 -0.3985
 5294SOL    HW216172   5.616   1.898   1.033  0.8765 -0.1378 -0.3759
 5295SOL     OW16173   0.278   5.540   5.185  0.7055  0.1157 -0.4656
 5295SOL    HW116174   0.352   5.525   5.250  0.7356  0.5983 -0.3815
 5295SOL    HW216175   0.283   5.472   5.112  0.7740 -0.3254 -0.0580
 5296SOL     OW16176   0.034   2.988   2.347 -0.6051  0.0614  0.5587
 5296SOL    HW116177   0.081   3.070   2.317 -2.4669  1.3715  1.0269
 5296SOL    HW216178   0.081   2.907   2.311 -0.3156  1.3916 -2.3432
 5297SOL     OW16179   0.856   1.065   4.132  0.1317 -0.3903  1.0530
 5297SOL    HW116180   0.883   1.127   4.059 -0.7216 -1.0205  0.1853
 5297SOL    HW216181   0.785   1.108   4.188 -0.9495 -0.8163  0.0441
 5298SOL     OW16182   2.361   1.616   0.467  0.5790 -0.4941 -0.2291
 5298SOL    HW116183   2.292   1.573   0.525  0.3822 -1.2140 -0.9740
 5298SOL    HW216184   2.325   1.625   0.374  1.4723 -0.8651 -0.6211
 5299SOL     OW16185   3.954   1.810   0.196  0.0945  0.2208  0.0768
 5299SOL    HW116186   3.944   1.718   0.235  0.7361 -0.2493 -0.8123
 5299SOL    HW216187   4.049   1.823   0.168  0.3602  1.7440  1.5776
 5300SOL     OW16188   1.119   3.317   5.711  0.1535  0.1270  0.2050
 5300SOL    HW116189   1.155   3.386   5.648 -1.7910 -0.0803 -1.2290
 5300SOL    HW216190   1.193   3.280   5.766  1.8836  0.6194 -1.6855
 5301SOL     OW16191   3.814   1.097   4.679 -0.5983 -0.2737 -0.5718
 5301SOL    HW116192   3.883   1.091   4.751 -2.2774 -1.5161  1.0068
 5301SOL    HW216193   3.810   1.191   4.644 -1.0936  0.8750  2.3556
 5302SOL     OW16194   2.719   0.072   4.943  0.4979  0.0311 -0.5042
 5302SOL    HW116195   2.717   0.126   5.026 -1.0183 -0.9057  0.1127
 5302SOL    HW216196   2.794   0.005   4.948  0.1509 -0.3106  0.3141
 5303SOL     OW16197   1.207   4.999   3.124 -0.0417  0.2297 -0.2813
 5303SOL    HW116198   1.164   5.087   3.142 -0.8231 -0.1626 -0.1535
 5303SOL    HW216199   1.218   4.986   3.026  0.6810  0.7437 -0.2731
 5304SOL     OW16200   4.043   0.814   5.700  0.2555  0.5622  0.7345
 5304SOL    HW116201   3.980   0.737   5.699  0.7615  0.1303  1.5803
 5304SOL    HW216202   4.040   0.859   5.789 -0.7346  2.1282 -0.0446
 5305SOL     OW16203   3.906   3.299   2.013  0.0704 -0.3479 -0.4353
 5305SOL    HW116204   3.982   3.363   2.028 -0.4047  0.2975 -0.7311
 5305SOL    HW216205   3.928   3.239   1.936  0.9847 -1.2828  0.5311
 5306SOL     OW16206   0.461   1.300   0.655  0.0194 -0.1025  0.0539
 5306SOL    HW116207   0.410   1.272   0.574  0.5079  0.0402 -0.3129
 5306SOL    HW216208   0.460   1.227   0.723  0.7875 -0.7940 -0.6537
 5307SOL     OW16209   0.257   0.022   3.176 -0.7691 -0.0608 -0.5090
 5307SOL    HW116210   0.301   0.044   3.089 -0.2786 -0.4339 -0.3636
 5307SOL    HW216211   0.174   0.076   3.186  1.1184  2.9646  0.4904
 5308SOL     OW16212   4.816   3.400   0.318  0.4234  0.3748 -0.2917
 5308SOL    HW116213   4.862   3.346   0.389  0.2453 -0.5390 -0.8613
 5308SOL    HW216214   4.755   3.342   0.265 -1.2029  1.5075  0.2593
 5309SOL     OW16215   1.115   5.195   2.329 -0.4476 -0.0978  0.3753
 5309SOL    HW116216   1.078   5.104   2.311 -1.9361  0.5630 -0.1237
 5309SOL    HW216217   1.058   5.242   2.397  0.0341  0.6197  0.3032
 5310SOL     OW16218   1.226   4.333   0.616 -0.2006  0.1995  0.6745
 5310SOL    HW116219   1.127   4.339   0.629 -0.1091  0.8402  1.1445
 5310SOL    HW216220   1.272   4.397   0.677  0.5065 -0.0360  0.4093
 5311SOL     OW16221   0.877   4.068   4.762  0.0141  0.5660 -0.6234
 5311SOL    HW116222   0.899   4.162   4.737 -0.2649  0.6950 -0.3847
 5311SOL    HW216223   0.780   4.051   4.746  0.2745 -0.0063 -1.6852
 5312SOL     OW16224   1.673   1.202   4.460  0.6023 -0.8921  0.0153
 5312SOL    HW116225   1.753   1.251   4.495 -0.0531 -0.3572  0.7865
 5312SOL    HW216226   1.604   1.195   4.532 -1.2582  1.2543 -1.4331
 5313SOL     OW16227   3.845   4.039   2.534 -0.6893  0.2396  0.6590
 5313SOL    HW116228   3.844   4.109   2.462 -1.7519  0.3333  0.7445
 5313SOL    HW216229   3.904   4.069   2.609 -0.2963  0.5609  0.2223
 5314SOL     OW16230   2.631   1.574   0.097  0.1033  0.1804  0.0426
 5314SOL    HW116231   2.690   1.557   0.018 -2.7049 -0.0395 -2.1250
 5314SOL    HW216232   2.577   1.493   0.117 -0.9040  0.9869  0.7121
 5315SOL     OW16233   4.454   2.660   3.179  0.0314 -0.0041  0.2319
 5315SOL    HW116234   4.428   2.649   3.275  1.2631  0.9108  0.7041
 5315SOL    HW216235   4.404   2.736   3.139 -0.7401 -0.6062  0.0399
 5316SOL     OW16236   4.351   2.392   1.108  0.5856 -0.4377  0.3044
 5316SOL    HW116237   4.290   2.468   1.133  1.3948  0.2051  0.3602
 5316SOL    HW216238   4.321   2.355   1.020  1.8232  1.8294 -1.1812
 5317SOL     OW16239   2.167   3.871   4.218 -0.0030  0.7358 -0.1491
 5317SOL    HW116240   2.143   3.889   4.313  1.3143  0.9515  0.1611
 5317SOL    HW216241   2.161   3.955   4.165 -1.8534  0.3945 -0.5323
 5318SOL     OW16242   1.014   0.560   0.016 -0.1407  0.1780  0.4671
 5318SOL    HW116243   0.938   0.530  -0.042  1.8100 -0.3058 -2.0059
 5318SOL    HW216244   0.999   0.655   0.043 -1.0530  0.5045 -1.0282
 5319SOL     OW16245   1.513   4.040   2.825 -0.4275  0.0477  0.2676
 5319SOL    HW116246   1.511   4.109   2.754 -0.1258  2.8085  2.7473
 5319SOL    HW216247   1.604   3.998   2.828  0.2297  1.4336  0.3571
 5320SOL     OW16248   3.761   4.827   5.315  0.3511  0.5330  0.2383
 5320SOL    HW116249   3.690   4.884   5.272 -0.6211 -0.0847  0.9629
 5320SOL    HW216250   3.828   4.886   5.360 -0.6976  1.1213  1.0776
 5321SOL     OW16251   5.837   4.783   4.120  0.7117 -0.3751  0.2912
 5321SOL    HW116252   5.884   4.871   4.123  2.3014 -1.1668 -0.2336
 5321SOL    HW216253   5.887   4.716   4.174 -0.7116 -0.8782  1.0356
 5322SOL     OW16254   1.313   0.726   3.423  0.2808  0.1717  0.2146
 5322SOL    HW116255   1.266   0.681   3.499 -0.0006 -1.0232 -0.6507
 5322SOL    HW216256   1.280   0.690   3.336  2.7178 -0.6491 -0.4423
 5323SOL     OW16257   5.600   0.380   0.106 -0.1976 -0.1596 -0.1830
 5323SOL    HW116258   5.532   0.348   0.172 -0.0527 -0.3552 -0.1306
 5323SOL    HW216259   5.555   0.442   0.040 -0.1415  0.8536  0.7001
 5324SOL     OW16260   0.596   4.361   5.940 -0.0610  0.2846 -0.2248
 5324SOL    HW116261   0.502   4.330   5.924 -0.2968 -0.0117  1.4984
 5324SOL    HW216262   0.606   4.456   5.910 -1.0425  0.4571 -0.0358
 5325SOL     OW16263   0.657   2.870   5.795  0.1018 -0.5707 -0.8270
 5325SOL    HW116264   0.735   2.819   5.832 -0.7051 -0.9896  0.3542
 5325SOL    HW216265   0.672   2.968   5.807  0.2171 -0.6734 -0.1320
 5326SOL     OW16266   1.879   2.589   1.961  0.6710  0.4051  0.3430
 5326SOL    HW116267   1.933   2.507   1.976  0.1367 -0.0042  0.0700
 5326SOL    HW216268   1.938   2.670   1.966  0.9426  0.1440  2.2900
 5327SOL     OW16269   1.757   2.198   2.395  0.9341  0.4181 -0.4578
 5327SOL    HW116270   1.846   2.153   2.390  1.7456  1.4010  2.5468
 5327SOL    HW216271   1.693   2.140   2.445 -0.1537 -0.2139 -2.4683
 5328SOL     OW16272   2.884   0.768   3.489 -0.1638 -0.6320  0.0385
 5328SOL    HW116273   2.819   0.749   3.415  0.2714 -1.5112 -0.1394
 5328SOL    HW216274   2.835   0.784   3.574 -0.6280 -1.3749 -0.0789
 5329SOL     OW16275   5.771   1.010   4.988 -0.2961 -0.4020 -0.6333
 5329SOL    HW116276   5.728   1.097   5.010 -1.2097 -1.0978  0.4937
 5329SOL    HW216277   5.702   0.948   4.951  0.3307 -0.6758 -1.3721
 5330SOL     OW16278   0.192   5.646   0.053  0.1931  0.1720 -0.4995
 5330SOL    HW116279   0.225   5.672  -0.037 -0.2699 -1.9302 -1.3419
 5330SOL    HW216280   0.126   5.571   0.044  0.4925 -0.4057  1.6161
 5331SOL     OW16281   2.570   0.613   3.607 -0.6464  0.0798 -0.3236
 5331SOL    HW116282   2.509   0.640   3.533  1.4001  2.5575 -1.2158
 5331SOL    HW216283   2.627   0.536   3.577 -0.2356  0.6851 -1.1136
 5332SOL     OW16284   0.400   3.979   0.534 -0.3309 -0.6000 -0.1444
 5332SOL    HW116285   0.458   4.000   0.613 -1.1682  1.7822 -0.0926
 5332SOL    HW216286   0.304   3.995   0.558 -0.6121  0.0065 -1.5965
 5333SOL     OW16287   4.449   0.933   2.244 -0.3007 -0.0385  0.4769
 5333SOL    HW116288   4.516   0.922   2.170 -1.4734  1.4266 -0.8724
 5333SOL    HW216289   4.359   0.902   2.212 -0.3789 -1.6835  2.1567
 5334SOL     OW16290   4.329   1.415   5.631 -0.3361  0.3340 -0.0353
 5334SOL    HW116291   4.331   1.486   5.560  1.3711  0.2045 -0.1731
 5334SOL    HW216292   4.422   1.401   5.666 -1.0458 -0.0653  1.7864
 5335SOL     OW16293   1.786   1.815   1.052 -0.3857 -0.3221  0.2774
 5335SOL    HW116294   1.715   1.746   1.039 -2.2872  1.6133 -0.1301
 5335SOL    HW216295   1.849   1.814   0.975 -1.7816 -0.0717 -0.9067
 5336SOL     OW16296   3.248   4.450   5.708  0.6431  0.2583 -0.6483
 5336SOL    HW116297   3.185   4.519   5.743 -0.6925 -1.4046  0.3807
 5336SOL    HW216298   3.249   4.452   5.608  0.3756  1.5269 -0.6347
 5337SOL     OW16299   1.474   1.960   0.920 -0.4397 -0.1132  0.1806
 5337SOL    HW116300   1.520   2.000   0.841 -2.7843  1.3063 -0.5875
 5337SOL    HW216301   1.520   1.988   1.004 -1.2158  3.3760 -0.3910
 5338SOL     OW16302   4.074   1.852   4.986 -0.2036 -0.0987  0.1527
 5338SOL    HW116303   4.063   1.840   5.085 -0.0273 -0.9265  0.0797
 5338SOL    HW216304   4.115   1.770   4.947  0.1236  0.3891 -0.5506
 5339SOL     OW16305   5.442   0.447   4.783 -0.6215  0.1060  0.2340
 5339SOL    HW116306   5.457   0.382   4.709  0.2490 -2.0149  2.1496
 5339SOL    HW216307   5.512   0.518   4.780  0.0306 -0.5447 -0.3809
 5340SOL     OW16308   5.695   5.316   5.312  0.0238 -0.1755  0.1103
 5340SOL    HW116309   5.635   5.393   5.335  0.1516 -0.2058  0.5408
 5340SOL    HW216310   5.750   5.340   5.232 -0.3695 -0.0485 -0.1300
 5341SOL     OW16311   3.230   5.420   2.768  0.2341  0.6350 -0.2178
 5341SOL    HW116312   3.157   5.475   2.810 -1.3998 -0.8476 -1.0165
 5341SOL    HW216313   3.190   5.341   2.722  1.9823  1.6565 -3.8392
 5342SOL     OW16314   2.889   2.887   4.846  0.1641 -0.0015  0.0786
 5342SOL    HW116315   2.964   2.907   4.783  1.1697 -2.2132  0.4954
 5342SOL    HW216316   2.802   2.892   4.796  0.7598  0.3957 -0.9555
 5343SOL     OW16317   4.571   5.685   2.799 -0.0904 -0.0316 -0.2979
 5343SOL    HW116318   4.489   5.743   2.804  0.4390  0.7955 -0.8414
 5343SOL    HW216319   4.557   5.602   2.852 -0.2166  1.3940  2.0068
 5344SOL     OW16320   0.527   1.143   2.334 -0.3234  0.5877  0.1410
 5344SOL    HW116321   0.493   1.117   2.424 -0.5658 -1.0654 -0.3777
 5344SOL    HW216322   0.456   1.127   2.265  0.8976 -1.4398 -0.7515
 5345SOL     OW16323   2.041   5.503   5.465  0.2590  0.1782  0.0256
 5345SOL    HW116324   2.141   5.498   5.470  0.2468 -0.6121 -0.4196
 5345SOL    HW216325   2.008   5.437   5.398 -0.5089  1.0209 -0.4417
 5346SOL     OW16326   5.263   3.055   1.396 -0.0305 -0.1886  0.1361
 5346SOL    HW116327   5.302   3.027   1.308  0.5469  1.6178 -0.2382
 5346SOL    HW216328   5.179   3.108   1.379  0.7512  1.2362  0.5723
 5347SOL     OW16329   2.798   3.745   3.856  0.2303 -0.1838  0.0800
 5347SOL    HW116330   2.709   3.723   3.897  0.2071  1.2235  0.8764
 5347SOL    HW216331   2.868   3.743   3.927  0.5351  0.3426 -0.1987
 5348SOL     OW16332   3.696   0.853   4.086  0.1708 -0.9278  0.1812
 5348SOL    HW116333   3.746   0.940   4.080 -0.8515 -0.0651  2.7133
 5348SOL    HW216334   3.618   0.855   4.024  0.0378  0.0729  0.3565
 5349SOL     OW16335   2.782   1.524   5.163 -0.8814  0.1531 -0.0450
 5349SOL    HW116336   2.796   1.455   5.092  1.5342  0.4185  0.0745
 5349SOL    HW216337   2.830   1.496   5.246  1.8955  2.7638 -0.5812
 5350SOL     OW16338   0.572  -0.002   0.388  0.1358  0.4890 -0.5146
 5350SOL    HW116339   0.645   0.019   0.453 -0.4466  1.1587 -0.0739
 5350SOL    HW216340   0.490   0.050   0.411 -0.8617 -1.1028 -0.3085
 5351SOL     OW16341   1.910   4.860   3.537 -0.4088 -0.1231  0.1255
 5351SOL    HW116342   1.888   4.937   3.477  1.1856  1.0235  0.9326
 5351SOL    HW216343   1.835   4.795   3.536 -2.1005  1.7358 -0.1025
 5352SOL     OW16344   4.380   4.261   3.557 -0.4604  0.1777  0.6697
 5352SOL    HW116345   4.451   4.329   3.576  0.1827 -0.7453  1.6823
 5352SOL    HW216346   4.414   4.196   3.489 -1.1078  0.8906 -0.3662
 5353SOL     OW16347  -0.008   4.897   2.352  0.3618 -0.2897 -0.0839
 5353SOL    HW116348  -0.004   4.840   2.434  2.2653 -0.0659  0.0255
 5353SOL    HW216349   0.084   4.930   2.330 -0.6537  2.9573  0.0181
 5354SOL     OW16350   1.897   0.237   3.972 -0.0216 -0.4700  0.0511
 5354SOL    HW116351   1.931   0.189   3.891 -2.8449 -1.0635 -0.8953
 5354SOL    HW216352   1.877   0.332   3.948 -0.6163 -0.5774  0.1288
 5355SOL     OW16353   3.448   4.355   4.068  0.4079 -0.5266 -0.2085
 5355SOL    HW116354   3.445   4.277   4.131  2.2794 -1.9392 -1.7372
 5355SOL    HW216355   3.503   4.428   4.108 -0.3377 -0.4575  0.7298
 5356SOL     OW16356   3.903   5.276   5.465  0.0024  0.8520 -0.2813
 5356SOL    HW116357   3.822   5.308   5.515 -0.8342 -0.6880 -0.6034
 5356SOL    HW216358   3.971   5.243   5.530 -1.0977 -1.1869 -0.0775
 5357SOL     OW16359   3.508   3.181   4.611 -0.0958  0.1715 -0.2251
 5357SOL    HW116360   3.512   3.261   4.671  2.5033 -1.3801  1.9080
 5357SOL    HW216361   3.580   3.186   4.542  0.9327 -0.8017  0.7176
 5358SOL     OW16362   3.233   4.144   2.249 -0.2597 -0.6688  0.2968
 5358SOL    HW116363   3.331   4.151   2.233 -0.3862 -0.6594 -0.5290
 5358SOL    HW216364   3.194   4.077   2.186 -1.1102  0.8579 -0.8756
 5359SOL     OW16365   5.547   4.132   4.363  0.4537  0.4183 -0.4075
 5359SOL    HW116366   5.630   4.150   4.416  0.4641 -2.0414  0.5288
 5359SOL    HW216367   5.526   4.212   4.307  2.5595  1.6981  0.4889
 5360SOL     OW16368   5.504   5.109   0.404 -0.0395  0.6544  0.0258
 5360SOL    HW116369   5.463   5.180   0.462 -2.3288  0.1153 -0.8296
 5360SOL    HW216370   5.455   5.105   0.317  2.1226  0.1608 -1.2385
 5361SOL     OW16371   5.955   5.748   5.650  0.0896 -0.6409 -0.3827
 5361SOL    HW116372   5.857   5.764   5.647  0.1846  0.1288  0.2523
 5361SOL    HW216373   6.003   5.836   5.660  0.8718 -0.9512 -1.2874
 5362SOL     OW16374   4.864   3.874   3.868  0.7701 -0.0209  0.9724
 5362SOL    HW116375   4.777   3.861   3.820  1.3659 -1.0767  0.1299
 5362SOL    HW216376   4.914   3.950   3.826  1.2864 -0.9374 -0.1350
 5363SOL     OW16377   3.284   3.981   2.707 -0.0131  0.8533 -0.2774
 5363SOL    HW116378   3.272   3.903   2.646  0.8435 -0.2894  0.9395
 5363SOL    HW216379   3.377   4.016   2.699  0.8413 -0.7022  1.8343
 5364SOL     OW16380   3.542   0.750   4.314 -0.2799 -0.1682 -0.5232
 5364SOL    HW116381   3.596   0.811   4.256  2.3916 -1.2781  0.6278
 5364SOL    HW216382   3.591   0.663   4.324 -2.0344 -1.0325  1.1147
 5365SOL     OW16383   0.551   4.610   4.003  0.1095 -0.5225  0.2703
 5365SOL    HW116384   0.607   4.575   3.927  0.2360 -0.3308  0.2757
 5365SOL    HW216385   0.523   4.704   3.983 -1.3314 -1.0523 -0.3491
 5366SOL     OW16386   2.797   4.805   4.499  0.3129 -0.2003  0.0019
 5366SOL    HW116387   2.784   4.787   4.402 -0.0379  1.9066 -0.3649
 5366SOL    HW216388   2.892   4.783   4.524  0.5052 -0.3993 -0.8778
 5367SOL     OW16389   4.078   0.338   0.273  0.0310  0.1241  0.2351
 5367SOL    HW116390   4.167   0.320   0.314 -0.3911 -1.1706  0.6542
 5367SOL    HW216391   4.019   0.382   0.340  0.4518  1.3272 -0.1609
 5368SOL     OW16392   2.245   3.195   4.429  0.2976 -0.0497  0.0354
 5368SOL    HW116393   2.329   3.174   4.379  1.0498 -0.2150  1.3215
 5368SOL    HW216394   2.224   3.293   4.420  0.8156  0.0591 -0.0190
 5369SOL     OW16395   4.653   1.916   1.381 -0.3077 -0.1137  0.3702
 5369SOL    HW116396   4.597   1.837   1.359  2.1288 -1.3784 -1.9416
 5369SOL    HW216397   4.640   1.987   1.312 -1.2635  0.8849  1.5298
 5370SOL     OW16398   4.830   2.433   4.347  0.5178  0.0749 -0.2627
 5370SOL    HW116399   4.918   2.413   4.305  0.1973 -1.0964 -0.4127
 5370SOL    HW216400   4.785   2.348   4.373 -1.3946  0.4872 -1.8885
 5371SOL     OW16401   2.250   3.570   1.159  0.1095  0.1699 -0.2437
 5371SOL    HW116402   2.345   3.540   1.147 -0.4240 -3.5185  2.8051
 5371SOL    HW216403   2.198   3.553   1.076  1.3761 -1.1847 -0.8019
 5372SOL     OW16404   2.488   4.100   2.159  0.2678  0.0363 -0.4323
 5372SOL    HW116405   2.482   4.093   2.258 -1.7744  2.2698 -0.2916
 5372SOL    HW216406   2.450   4.017   2.117 -1.4030  0.1613  0.7163
 5373SOL     OW16407   4.920   2.175   5.414 -0.4156 -0.0084  0.2447
 5373SOL    HW116408   4.936   2.091   5.466 -0.5129  0.5548  1.1992
 5373SOL    HW216409   4.850   2.158   5.345 -0.6553 -0.6306  0.6316
 5374SOL     OW16410   3.892   0.479   2.602 -0.1686 -0.0469 -0.0837
 5374SOL    HW116411   3.950   0.509   2.677  0.7806  0.0397 -0.8269
 5374SOL    HW216412   3.796   0.494   2.625 -0.1178 -2.5145  2.2506
 5375SOL     OW16413   0.574   0.387  -0.003  0.2647  0.2355 -0.1821
 5375SOL    HW116414   0.607   0.398   0.091 -1.0011 -0.5821  0.3828
 5375SOL    HW216415   0.532   0.297  -0.013 -0.5059  0.6979 -1.2603
 5376SOL     OW16416   3.332   5.505   0.277 -0.0148  0.8702  0.2969
 5376SOL    HW116417   3.324   5.604   0.272  2.3603  1.0386 -1.9300
 5376SOL    HW216418   3.244   5.463   0.255 -0.3510  2.5110 -1.8139
 5377SOL     OW16419   2.401   1.733   5.620 -0.2375 -0.4415  0.0309
 5377SOL    HW116420   2.408   1.654   5.681 -0.8473 -0.6258 -0.1312
 5377SOL    HW216421   2.369   1.703   5.530  1.6384 -0.3259 -0.7264
 5378SOL     OW16422   2.340   1.690   2.639 -0.2452 -0.0254  0.6519
 5378SOL    HW116423   2.273   1.751   2.682 -0.3031  0.7853 -0.5228
 5378SOL    HW216424   2.308   1.596   2.644 -0.0730 -0.0292  2.6722
 5379SOL     OW16425   2.073   1.983   5.885  0.5482  0.1372  0.6062
 5379SOL    HW116426   2.131   2.065   5.879  1.1324 -0.2208  1.1685
 5379SOL    HW216427   2.121   1.906   5.845  0.3566 -0.1097  0.8460
 5380SOL     OW16428   0.488   0.679   0.868 -0.9132 -0.1116  0.6661
 5380SOL    HW116429   0.411   0.712   0.814 -0.1810 -2.8004 -2.3533
 5380SOL    HW216430   0.487   0.579   0.868  1.3688 -0.2085  2.4838
 5381SOL     OW16431   0.037   4.226   5.243  0.2266 -0.1748 -0.2176
 5381SOL    HW116432   0.017   4.143   5.191  1.7600 -0.5142 -0.2968
 5381SOL    HW216433   0.081   4.202   5.329  1.6384  0.5844 -0.6953
 5382SOL     OW16434   2.156   0.427   2.884 -0.1921  0.0049 -0.5307
 5382SOL    HW116435   2.075   0.485   2.891  0.2611  0.7815 -1.6014
 5382SOL    HW216436   2.238   0.484   2.874  0.4980 -0.7701  0.4403
 5383SOL     OW16437   0.535   1.041   4.457  0.5651  0.3980 -0.0531
 5383SOL    HW116438   0.519   0.950   4.420 -0.2551  0.5300 -0.0401
 5383SOL    HW216439   0.580   1.034   4.546 -0.5832 -0.0455  0.5112
 5384SOL     OW16440   0.359   2.092   3.886 -0.4589  0.4391 -0.3571
 5384SOL    HW116441   0.401   2.163   3.829  2.5123 -1.0082 -0.1695
 5384SOL    HW216442   0.365   2.119   3.982  0.0106  0.2589 -0.3345
 5385SOL     OW16443   1.259   2.066   1.288 -0.5623  0.2657 -0.6812
 5385SOL    HW116444   1.313   1.999   1.238  0.6192  0.9915 -0.4098
 5385SOL    HW216445   1.224   2.024   1.372  0.1678 -0.0179 -0.5145
 5386SOL     OW16446   3.411   4.889   4.637  0.6273 -0.2954  0.1152
 5386SOL    HW116447   3.496   4.863   4.591 -0.1035 -0.9566 -0.8828
 5386SOL    HW216448   3.343   4.818   4.624 -0.1476  0.3210  0.7409
 5387SOL     OW16449   0.918   3.625   5.538 -0.0883 -0.2813  0.1558
 5387SOL    HW116450   0.891   3.721   5.550  3.2321  0.5150  2.8016
 5387SOL    HW216451   0.840   3.566   5.557 -1.1349  1.8311  3.0900
 5388SOL     OW16452   2.209   4.618   0.342  0.2486 -0.0722  0.0516
 5388SOL    HW116453   2.204   4.520   0.321 -0.9901  0.4639 -2.6332
 5388SOL    HW216454   2.287   4.657   0.294  2.2555 -0.0608  3.0807
 5389SOL     OW16455   2.350   4.260   4.198  0.2983 -0.3027 -0.0109
 5389SOL    HW116456   2.289   4.338   4.214  1.2854  0.4867 -0.0375
 5389SOL    HW216457   2.412   4.250   4.275  0.9844 -0.2992 -0.5547
 5390SOL     OW16458   4.386   4.655   4.598 -0.0643  0.2381  0.1457
 5390SOL    HW116459   4.325   4.733   4.591  0.4802  0.6304 -0.2945
 5390SOL    HW216460   4.473   4.675   4.552 -0.1252 -0.8393 -0.4849
 5391SOL     OW16461   0.844   5.979   5.854  0.2752 -0.2338 -0.2185
 5391SOL    HW116462   0.844   5.910   5.927  1.5371 -0.4206 -0.3668
 5391SOL    HW216463   0.789   5.947   5.777  1.7828 -1.6344 -0.7655
 5392SOL     OW16464   3.505   5.306   0.241  0.0509  0.0559  0.3415
 5392SOL    HW116465   3.457   5.382   0.284 -1.3269 -0.1237 -0.8240
 5392SOL    HW216466   3.542   5.245   0.312 -0.5170  0.7598  1.2631
 5393SOL     OW16467   3.280   4.647   4.206 -0.0070 -0.1201  0.0827
 5393SOL    HW116468   3.217   4.582   4.248 -0.3724  0.1787 -0.0044
 5393SOL    HW216469   3.374   4.616   4.222 -0.1842 -1.2145 -0.8193
 5394SOL     OW16470   1.070   1.470   1.721 -0.2418  0.3566  0.0496
 5394SOL    HW116471   1.036   1.403   1.786  2.0368  0.5246  1.5068
 5394SOL    HW216472   1.166   1.490   1.739 -0.7445  3.9099 -0.3789
 5395SOL     OW16473   4.453   3.806   5.070  0.3839  0.5168  0.4287
 5395SOL    HW116474   4.430   3.724   5.019 -0.8277  0.6144  0.7943
 5395SOL    HW216475   4.449   3.787   5.168  2.1566  0.4763  0.5336
 5396SOL     OW16476   0.731   0.830   0.821  0.2019  0.2040  0.3188
 5396SOL    HW116477   0.643   0.783   0.813  1.1171 -1.4813 -0.5219
 5396SOL    HW216478   0.756   0.869   0.732 -0.7993  2.8674  1.1344
 5397SOL     OW16479   3.497   4.942   0.868  0.3807 -0.1940  0.6339
 5397SOL    HW116480   3.595   4.958   0.873  0.5344 -1.2038  1.2857
 5397SOL    HW216481   3.456   4.962   0.957 -0.2865  1.7676 -0.0596
 5398SOL     OW16482   0.808   2.201   3.189 -0.2769  0.2405 -0.2830
 5398SOL    HW116483   0.876   2.193   3.262 -0.2269 -0.3639 -0.3845
 5398SOL    HW216484   0.840   2.265   3.119  1.9260 -2.6169 -2.1510
 5399SOL     OW16485   4.577   3.753   3.134 -0.3157 -0.1725 -0.6726
 5399SOL    HW116486   4.508   3.770   3.064  0.2665  2.2413 -0.7436
 5399SOL    HW216487   4.665   3.790   3.104  0.0905  0.3692  1.0777
 5400SOL     OW16488   3.096   5.508   5.450  0.7154 -0.8725 -0.4686
 5400SOL    HW116489   3.134   5.429   5.403  1.3215 -0.4760 -0.6599
 5400SOL    HW216490   3.139   5.591   5.415  1.5776 -0.5989  1.1438
 5401SOL     OW16491   4.150   2.901   1.427  0.0626  0.2293 -0.2009
 5401SOL    HW116492   4.077   2.874   1.365  1.1274 -0.0167 -1.3822
 5401SOL    HW216493   4.230   2.931   1.375  0.9639  0.1106  1.0474
 5402SOL     OW16494   4.901   1.213   0.891  0.1443 -0.0044 -0.6014
 5402SOL    HW116495   4.855   1.212   0.802 -0.1997 -0.5990 -0.4193
 5402SOL    HW216496   4.958   1.295   0.898 -1.9856  1.5519 -0.2806
 5403SOL     OW16497   4.752   0.186   1.479 -0.6605 -0.0291  0.1160
 5403SOL    HW116498   4.676   0.239   1.442 -3.5086 -2.7020  1.6634
 5403SOL    HW216499   4.780   0.116   1.413  0.1187  0.6280 -0.2546
 5404SOL     OW16500   2.093   2.998   1.238 -0.4487  0.8983 -0.5895
 5404SOL    HW116501   2.050   3.081   1.271 -0.6232  0.0371  1.5269
 5404SOL    HW216502   2.042   2.918   1.272  1.1934 -0.0980 -0.3507
 5405SOL     OW16503   1.065   1.616   3.878  0.7024 -0.2691 -0.3455
 5405SOL    HW116504   1.161   1.607   3.853  0.2884 -2.3863 -1.4497
 5405SOL    HW216505   1.052   1.590   3.974  1.3991  1.5175  0.2693
 5406SOL     OW16506   2.471   4.575   4.154  0.3141  0.0955 -0.0242
 5406SOL    HW116507   2.488   4.663   4.199 -0.2671  0.9775 -1.4483
 5406SOL    HW216508   2.385   4.537   4.187  0.6607 -0.0281  0.7368
 5407SOL     OW16509   5.442   0.804   1.885 -0.1105 -0.3939 -0.2103
 5407SOL    HW116510   5.392   0.807   1.971  1.8241 -1.4022  1.0347
 5407SOL    HW216511   5.391   0.852   1.815 -2.1616 -0.2743  1.2721
 5408SOL     OW16512   5.311   0.871   0.190  0.2046  0.1260 -0.6196
 5408SOL    HW116513   5.257   0.837   0.267  0.6004  0.1854 -0.3162
 5408SOL    HW216514   5.290   0.967   0.173  0.1958  0.1408 -0.5207
 5409SOL     OW16515   5.295   5.837   5.212 -0.5804  0.2879 -0.3355
 5409SOL    HW116516   5.241   5.873   5.136 -1.2591  2.1233  0.9277
 5409SOL    HW216517   5.392   5.844   5.191 -0.7784 -0.9020 -1.7248
 5410SOL     OW16518   4.441   3.353   0.006 -0.1677  0.8442 -0.0085
 5410SOL    HW116519   4.445   3.448  -0.023  1.1033  1.4336  1.9494
 5410SOL    HW216520   4.519   3.331   0.064 -1.3675 -0.8712  1.0909
 5411SOL     OW16521   2.701   4.527   4.855 -0.0922 -0.0773  0.1868
 5411SOL    HW116522   2.669   4.436   4.881 -1.5331  0.3300 -0.0379
 5411SOL    HW216523   2.681   4.542   4.758 -0.0871  0.5595  0.2830
 5412SOL     OW16524   4.657   5.841   5.727  0.2962 -0.0636 -0.0808
 5412SOL    HW116525   4.617   5.755   5.759  1.5483  0.3482  3.0030
 5412SOL    HW216526   4.600   5.880   5.655 -1.6839 -2.2020  0.2090
 5413SOL     OW16527   2.381   5.210   0.083 -0.2629 -0.1797  0.2834
 5413SOL    HW116528   2.287   5.216   0.116 -0.5896  0.7602 -0.7618
 5413SOL    HW216529   2.389   5.133   0.019 -0.7440  0.7338 -0.9018
 5414SOL     OW16530   0.148   5.373   2.613  0.0869 -0.4070 -0.1863
 5414SOL    HW116531   0.078   5.313   2.572 -0.5805  0.2936 -0.0990
 5414SOL    HW216532   0.125   5.391   2.708  1.7143 -2.1467  0.5993
 5415SOL     OW16533   0.046   4.041   2.870  0.1929 -0.0894 -0.1974
 5415SOL    HW116534  -0.011   3.960   2.884  1.0067 -1.2130 -2.7044
 5415SOL    HW216535   0.134   4.013   2.832  0.0056  2.0423 -2.4697
 5416SOL     OW16536   1.746   0.809   4.154 -0.4149 -0.1156  0.5385
 5416SOL    HW116537   1.842   0.780   4.164 -0.7102 -1.0067  0.8913
 5416SOL    HW216538   1.740   0.908   4.164  0.7682  0.2473 -1.6651
 5417SOL     OW16539   5.164   4.274   5.197 -0.0440  0.8394  0.0954
 5417SOL    HW116540   5.073   4.308   5.173 -0.8129  0.2874  2.0591
 5417SOL    HW216541   5.232   4.344   5.175 -1.0946  1.8514 -0.0427
 5418SOL     OW16542   2.456   4.917   5.046 -0.3747  0.2204 -0.0827
 5418SOL    HW116543   2.543   4.935   5.000 -0.6149  1.5225 -0.0770
 5418SOL    HW216544   2.463   4.940   5.143 -1.0147  1.4198 -0.2969
 5419SOL     OW16545   4.370   5.943   3.571  0.1550  0.1275  0.3783
 5419SOL    HW116546   4.378   5.894   3.484 -4.0254 -1.6539  0.7502
 5419SOL    HW216547   4.333   6.035   3.554 -0.5030 -0.1587  0.2309
 5420SOL     OW16548   2.512   5.645   0.849 -0.2011  0.1124  0.4340
 5420SOL    HW116549   2.436   5.614   0.906  0.3447  0.5910  1.4566
 5420SOL    HW216550   2.477   5.687   0.765 -1.0675  0.4578  0.9619
 5421SOL     OW16551   2.508   3.627   1.362  0.2889  0.3589 -0.4056
 5421SOL    HW116552   2.502   3.664   1.269  0.1875 -0.9298 -0.9343
 5421SOL    HW216553   2.591   3.573   1.371  0.6335  1.0206  0.4703
 5422SOL     OW16554   4.154   4.619   0.531  0.9385 -0.3443  0.0233
 5422SOL    HW116555   4.202   4.570   0.604 -0.3785 -1.7057  0.0295
 5422SOL    HW216556   4.104   4.696   0.569 -0.6851 -1.7263  0.8151
 5423SOL     OW16557   2.858   5.510   4.705 -0.2947  0.2690  0.6468
 5423SOL    HW116558   2.928   5.580   4.722  0.2486  0.2564 -1.3012
 5423SOL    HW216559   2.895   5.420   4.726  0.4975  0.2132 -0.8907
 5424SOL     OW16560   0.030   5.290   2.861  0.1859 -0.0672  0.0124
 5424SOL    HW116561  -0.066   5.308   2.881  0.4545  0.8593  0.4887
 5424SOL    HW216562   0.067   5.229   2.931  0.8817  2.4447  1.9571
 5425SOL     OW16563   2.788   5.794   5.326  0.6524 -0.6484 -0.5042
 5425SOL    HW116564   2.694   5.819   5.303  0.9823 -0.2510 -1.4454
 5425SOL    HW216565   2.788   5.739   5.410 -0.1193  2.2190  1.5258
 5426SOL     OW16566   3.145   2.955   2.009 -0.0616  0.0833  0.1031
 5426SOL    HW116567   3.240   2.982   1.989 -0.3973  0.9547 -0.3558
 5426SOL    HW216568   3.127   2.969   2.106  0.6357 -1.2428  0.4521
 5427SOL     OW16569   0.576   1.704   1.041 -1.0694  0.0603  0.3320
 5427SOL    HW116570   0.620   1.634   0.986 -1.5752 -1.4406  1.7282
 5427SOL    HW216571   0.619   1.792   1.025  2.0684 -1.1821  1.1537
 5428SOL     OW16572   4.423   1.588   4.636 -0.0975  0.0186 -0.0872
 5428SOL    HW116573   4.438   1.489   4.627  0.4326 -0.4324  3.8347
 5428SOL    HW216574   4.343   1.604   4.693  0.8109  1.7685  0.7881
 5429SOL     OW16575   0.050   1.245   0.973 -0.2047  0.2791  0.7530
 5429SOL    HW116576   0.092   1.329   1.007  0.3639  0.4530 -0.3450
 5429SOL    HW216577   0.057   1.174   1.044 -0.4341  1.0516  1.5780
 5430SOL     OW16578   3.030   0.520   0.240  0.2891 -0.3080 -0.1636
 5430SOL    HW116579   2.945   0.479   0.273  1.2343 -3.6067 -1.4109
 5430SOL    HW216580   3.010   0.588   0.170 -1.3215 -1.8068 -1.2304
 5431SOL     OW16581   2.377   0.746   5.853 -0.6305 -0.2872  0.4123
 5431SOL    HW116582   2.331   0.667   5.894  0.1236 -1.2929 -0.6082
 5431SOL    HW216583   2.469   0.719   5.824  0.6244  1.6427  2.3033
 5432SOL     OW16584   5.102   4.370   4.768  0.1135 -0.7156 -0.3382
 5432SOL    HW116585   5.055   4.283   4.782  2.4967 -2.2558 -1.3105
 5432SOL    HW216586   5.201   4.356   4.774  0.5863  2.4983  2.2992
 5433SOL     OW16587   1.054   5.097   0.953  0.9119  0.0621  0.4311
 5433SOL    HW116588   1.012   5.184   0.979 -0.3106  0.3192 -2.1089
 5433SOL    HW216589   1.130   5.113   0.890 -0.1504 -0.7000 -1.1066
 5434SOL     OW16590   4.186   2.329   0.096 -0.2084 -0.1850 -0.0187
 5434SOL    HW116591   4.138   2.284   0.172 -1.8758  0.1893 -0.7978
 5434SOL    HW216592   4.214   2.421   0.125 -0.6571 -0.1185  0.2201
 5435SOL     OW16593   2.205   3.418   4.077  0.4331  0.0385  0.3250
 5435SOL    HW116594   2.240   3.432   3.985  1.3289  0.1073  0.6599
 5435SOL    HW216595   2.125   3.476   4.093 -1.1084 -1.5740 -1.1262
 5436SOL     OW16596   3.224   2.709   1.277 -0.0058  0.3165  0.7899
 5436SOL    HW116597   3.196   2.677   1.368 -1.4313 -1.5595 -0.2376
 5436SOL    HW216598   3.174   2.658   1.207  1.8017  0.9954 -1.0943
 5437SOL     OW16599   5.653   2.274   0.253  0.1175  0.2075 -0.4285
 5437SOL    HW116600   5.689   2.191   0.295 -1.2527 -0.4920 -0.5901
 5437SOL    HW216601   5.647   2.346   0.321 -0.7815 -0.5027  0.2746
 5438SOL     OW16602   5.114   3.085   5.088 -0.0442 -0.3586 -0.2627
 5438SOL    HW116603   5.056   3.069   5.008  0.0849  0.3652 -0.5109
 5438SOL    HW216604   5.060   3.076   5.171 -0.3315 -0.4644 -0.4597
 5439SOL     OW16605   0.213   4.354   1.566  0.2920  0.1557  0.3050
 5439SOL    HW116606   0.284   4.324   1.502 -1.0354 -2.3715 -0.1125
 5439SOL    HW216607   0.225   4.451   1.586  1.5142  0.7340 -2.7459
 5440SOL     OW16608   0.621   5.696   4.067 -0.1551  0.2670  0.0349
 5440SOL    HW116609   0.629   5.745   4.154 -0.6106 -1.7237  1.2543
 5440SOL    HW216610   0.684   5.735   4.000 -0.1990  2.1954  1.0662
 5441SOL     OW16611   0.801   5.474   2.536 -0.3612  0.5822  0.3048
 5441SOL    HW116612   0.807   5.515   2.445  1.2324  0.5260  0.3422
 5441SOL    HW216613   0.785   5.545   2.604  1.0587  1.0121  0.2286
 5442SOL     OW16614   4.634   3.450   2.775 -0.1409 -0.2298 -0.6043
 5442SOL    HW116615   4.642   3.351   2.760  0.7011 -0.1552 -0.6950
 5442SOL    HW216616   4.632   3.468   2.873 -2.1193 -0.4553 -0.5629
 5443SOL     OW16617   4.663   4.899   1.369  0.2358 -0.1430  0.0194
 5443SOL    HW116618   4.671   4.836   1.446 -1.8272 -0.7050 -0.1748
 5443SOL    HW216619   4.600   4.862   1.301  0.0794  1.4845 -0.7786
 5444SOL     OW16620   5.395   2.592   4.663  0.3162  0.2835  0.0500
 5444SOL    HW116621   5.353   2.671   4.708 -4.3782 -1.0069 -1.4902
 5444SOL    HW216622   5.364   2.508   4.707  0.5539 -0.8247 -1.8067
 5445SOL     OW16623   2.560   3.986   3.609 -0.3715 -0.5154  0.5985
 5445SOL    HW116624   2.536   4.068   3.661  1.9246  0.8419 -0.3187
 5445SOL    HW216625   2.529   3.994   3.515  0.7909 -0.1582  0.2228
 5446SOL     OW16626   2.753   5.818   2.434  0.4679 -0.3183 -0.4710
 5446SOL    HW116627   2.722   5.908   2.405  1.2834 -0.2046 -1.0408
 5446SOL    HW216628   2.720   5.749   2.369 -1.1758 -0.6130  0.6159
 5447SOL     OW16629   0.130   5.217   5.548  0.8408 -0.0884  0.7953
 5447SOL    HW116630   0.206   5.244   5.488  1.6619 -3.8860 -0.0866
 5447SOL    HW216631   0.055   5.282   5.537  1.4378  0.1351 -3.3863
 5448SOL     OW16632   0.032   4.043   5.527  0.2459 -0.2717  0.1623
 5448SOL    HW116633   0.125   4.013   5.549  1.6753  2.9046 -0.9555
 5448SOL    HW216634  -0.012   3.974   5.469  2.2283 -1.4368 -0.0644
 5449SOL     OW16635   0.203   4.297   4.425  0.4601 -0.5535  0.0336
 5449SOL    HW116636   0.158   4.235   4.489  1.0928 -1.7891 -0.6775
 5449SOL    HW216637   0.198   4.391   4.460 -0.6365 -0.9695  1.0663
 5450SOL     OW16638   3.866   1.618   3.409 -0.1745 -0.2642 -0.0292
 5450SOL    HW116639   3.776   1.577   3.425 -0.3877 -0.2565 -1.1623
 5450SOL    HW216640   3.856   1.717   3.394 -0.2397 -0.5460 -2.1331
 5451SOL     OW16641   3.993   3.904   0.673  0.6148  0.2491 -0.2101
 5451SOL    HW116642   3.993   3.971   0.599 -0.1591 -0.4844 -0.8867
 5451SOL    HW216643   3.916   3.842   0.662  0.0540  0.5612  1.6106
 5452SOL     OW16644   5.274   1.407   4.439 -0.3227 -0.4357  0.3630
 5452SOL    HW116645   5.288   1.309   4.453 -0.9007 -0.4260  1.1007
 5452SOL    HW216646   5.221   1.422   4.355 -0.9034 -0.8087  0.6557
 5453SOL     OW16647   3.716   0.269   4.250  0.1229  0.1554  0.0142
 5453SOL    HW116648   3.725   0.223   4.162 -1.0575  0.8188 -0.4705
 5453SOL    HW216649   3.637   0.232   4.299 -0.2039  0.9148  0.0738
 5454SOL     OW16650   1.727   4.903   2.708 -0.1051 -0.1873 -0.3672
 5454SOL    HW116651   1.690   4.996   2.708 -0.5026 -0.3363 -1.3741
 5454SOL    HW216652   1.652   4.838   2.716  0.0771 -0.4548 -0.8665
 5455SOL     OW16653   3.492   3.244   0.634  0.1135 -0.8557 -0.1693
 5455SOL    HW116654   3.415   3.284   0.684 -0.9403 -0.4996 -1.9813
 5455SOL    HW216655   3.472   3.149   0.612 -1.1123 -0.0631 -2.9543
 5456SOL     OW16656   2.178   3.751   2.250  0.1846 -0.0434 -0.2549
 5456SOL    HW116657   2.219   3.661   2.234  0.3992  0.0838 -0.4385
 5456SOL    HW216658   2.101   3.742   2.313 -1.1866 -0.6785 -1.9368
 5457SOL     OW16659   5.873   4.940   4.478  0.0434 -0.3866 -0.4917
 5457SOL    HW116660   5.862   5.021   4.421 -1.1446 -1.1380 -1.3774
 5457SOL    HW216661   5.914   4.866   4.423 -1.6394 -1.3021 -0.5859
 5458SOL     OW16662   5.394   0.177   5.516  0.0152 -0.1204 -0.0006
 5458SOL    HW116663   5.370   0.083   5.490 -1.2423  0.1599  0.0687
 5458SOL    HW216664   5.338   0.241   5.463 -0.0674  0.5548  0.8830
 5459SOL     OW16665   1.821   5.021   5.748 -0.4341 -0.1424 -0.0623
 5459SOL    HW116666   1.786   4.962   5.675 -0.0110 -0.4108 -0.0520
 5459SOL    HW216667   1.853   4.965   5.824 -0.3888  0.1181  0.1133
 5460SOL     OW16668   4.123   1.839   2.943  0.5244 -0.0140  0.2860
 5460SOL    HW116669   4.156   1.889   3.023  1.6983  1.1932 -0.8975
 5460SOL    HW216670   4.201   1.806   2.890 -0.2306 -0.6534 -0.4571
 5461SOL     OW16671   4.089   2.177   0.317  0.2798  0.8359  0.5743
 5461SOL    HW116672   4.167   2.118   0.335  0.6145 -0.7971 -4.6582
 5461SOL    HW216673   4.006   2.122   0.309  0.2937  1.1037 -2.6407
 5462SOL     OW16674   3.598   3.025   2.169  0.2250 -0.0936  0.4517
 5462SOL    HW116675   3.656   3.034   2.250  0.2928  0.8825  0.3135
 5462SOL    HW216676   3.637   3.081   2.095 -0.1591 -0.5073 -0.0702
 5463SOL     OW16677   5.398   5.751   3.371 -0.5634  0.0364  0.2641
 5463SOL    HW116678   5.476   5.731   3.311 -1.5407 -0.5640 -0.8316
 5463SOL    HW216679   5.336   5.815   3.327 -1.5490 -0.7938  0.3965
 5464SOL     OW16680   0.881   4.419   2.257 -0.0195 -0.2235  0.5404
 5464SOL    HW116681   0.784   4.439   2.267  0.0725 -0.9091  4.1548
 5464SOL    HW216682   0.917   4.385   2.344  3.4492 -0.1283 -0.7115
 5465SOL     OW16683   3.172   2.233   1.678  0.3879 -0.2259 -0.0510
 5465SOL    HW116684   3.222   2.296   1.619 -1.0291  0.9814 -0.0157
 5465SOL    HW216685   3.224   2.220   1.763  1.2726 -0.0632 -0.5485
 5466SOL     OW16686   1.638   4.688   3.255  0.1184  0.6167  0.0533
 5466SOL    HW116687   1.561   4.635   3.218  1.6104 -0.9546 -0.9824
 5466SOL    HW216688   1.642   4.777   3.210  0.1332 -0.1093 -1.4368
 5467SOL     OW16689   2.834   5.309   0.946 -0.0541  0.2202 -0.5166
 5467SOL    HW116690   2.846   5.391   1.002 -1.6592 -0.5678  1.1189
 5467SOL    HW216691   2.761   5.253   0.986 -0.4615 -0.9700 -2.8015
 5468SOL     OW16692   1.318   0.082   0.756  0.2733 -0.1811  0.1961
 5468SOL    HW116693   1.270   0.057   0.840  1.4012  0.8181  1.1787
 5468SOL    HW216694   1.359  -0.000   0.716 -1.3844 -0.8813 -0.1289
 5469SOL     OW16695   2.173   4.649   2.652  0.3745 -0.2709 -0.1091
 5469SOL    HW116696   2.162   4.748   2.645 -0.1095 -0.2578  0.7383
 5469SOL    HW216697   2.115   4.604   2.585  0.0950  0.0052 -0.0550
 5470SOL     OW16698   1.105   3.033   3.020  0.5939 -0.4539 -0.6162
 5470SOL    HW116699   1.081   2.996   3.110  1.6954 -1.6143 -0.7691
 5470SOL    HW216700   1.023   3.040   2.964 -0.2091  0.8563  0.6602
 5471SOL     OW16701   2.748   0.567   1.930 -0.3064 -0.3059 -0.4225
 5471SOL    HW116702   2.751   0.663   1.903  2.1061 -0.0630  0.4550
 5471SOL    HW216703   2.770   0.558   2.027  2.9205 -1.8570 -1.1437
 5472SOL     OW16704   1.227   0.622   1.811 -0.0736  0.0512  0.7751
 5472SOL    HW116705   1.290   0.665   1.746  0.7284 -1.7806  0.2780
 5472SOL    HW216706   1.149   0.583   1.762 -1.1140  1.3862  1.2834
 5473SOL     OW16707   4.256   3.708   1.434 -0.4342 -0.3369 -0.1449
 5473SOL    HW116708   4.205   3.760   1.503  0.2426  0.7405 -0.4339
 5473SOL    HW216709   4.242   3.750   1.344  0.3913 -0.4450 -0.3325
 5474SOL     OW16710   2.133   4.472   1.776 -0.2506 -0.2467  0.3168
 5474SOL    HW116711   2.149   4.479   1.678  1.1389  0.7390  0.5935
 5474SOL    HW216712   2.185   4.542   1.824  1.2262 -2.3303  1.9766
 5475SOL     OW16713   2.860   2.108   5.960  0.4940  0.7318 -0.4304
 5475SOL    HW116714   2.907   2.183   6.007  1.4626  0.0593 -0.2872
 5475SOL    HW216715   2.922   2.065   5.895  0.5787 -1.0944  0.7685
 5476SOL     OW16716   4.558   2.552   5.202 -0.2765 -0.4215  0.0046
 5476SOL    HW116717   4.625   2.600   5.259 -0.3828  1.0095 -1.0183
 5476SOL    HW216718   4.480   2.612   5.184 -1.2202 -1.5907  0.0510
 5477SOL     OW16719   4.086   2.367   3.242 -0.1979 -0.7317 -0.2393
 5477SOL    HW116720   4.125   2.422   3.169  1.0451 -0.9397  0.2516
 5477SOL    HW216721   4.039   2.287   3.203 -0.5189 -0.2511 -0.8506
 5478SOL     OW16722   4.689   3.923   4.626  0.2684 -0.3684 -0.0756
 5478SOL    HW116723   4.642   3.954   4.709 -0.1513  0.7268 -0.7011
 5478SOL    HW216724   4.636   3.852   4.581  0.5370 -1.0300  0.6211
 5479SOL     OW16725   4.851   1.563   1.061  0.8603 -0.0190 -0.5288
 5479SOL    HW116726   4.809   1.653   1.053 -3.4582 -1.6992  0.3733
 5479SOL    HW216727   4.886   1.535   0.972 -1.1261  1.1119 -1.7361
 5480SOL     OW16728   2.237   1.335   3.326 -0.7725 -0.3324  0.1228
 5480SOL    HW116729   2.330   1.313   3.356 -1.0471  0.6356  1.8144
 5480SOL    HW216730   2.186   1.250   3.312 -0.1216 -0.8450  0.7936
 5481SOL     OW16731   4.871   1.299   3.666  0.2150  0.4988 -0.1197
 5481SOL    HW116732   4.798   1.304   3.735 -2.0292  0.1845 -2.3162
 5481SOL    HW216733   4.925   1.216   3.681 -0.5218  0.1993  0.9742
 5482SOL     OW16734   1.759   1.332   2.499  0.3005  0.1150  0.2013
 5482SOL    HW116735   1.832   1.322   2.567 -0.1911  0.4157  0.7839
 5482SOL    HW216736   1.796   1.315   2.408  0.5055 -2.7026  0.6962
 5483SOL     OW16737   2.704   4.471   2.644 -0.4593 -0.3345  0.2507
 5483SOL    HW116738   2.684   4.569   2.645 -0.0208 -0.2222  2.0704
 5483SOL    HW216739   2.770   4.451   2.572 -0.5764  0.6950 -0.1645
 5484SOL     OW16740   3.242   5.277   1.900  0.1750 -0.7950  0.3314
 5484SOL    HW116741   3.265   5.238   1.810  0.0921 -0.6049  0.2279
 5484SOL    HW216742   3.191   5.362   1.888  0.9812 -0.2635  0.5471
 5485SOL     OW16743   3.984   2.964   2.785 -0.0748 -0.4066  0.5252
 5485SOL    HW116744   3.888   2.945   2.806 -0.7412  1.2723 -0.8091
 5485SOL    HW216745   4.037   2.963   2.870 -1.3612 -0.8505  1.3500
 5486SOL     OW16746   5.420   1.697   4.799 -1.2843 -0.2880 -0.3825
 5486SOL    HW116747   5.449   1.603   4.820  1.0007  0.1239 -1.3329
 5486SOL    HW216748   5.456   1.759   4.868  0.1543  0.2428 -1.5669
 5487SOL     OW16749   2.621   0.052   3.739  0.4297 -0.3404  0.1125
 5487SOL    HW116750   2.560  -0.022   3.715 -0.3431 -0.2517  1.6978
 5487SOL    HW216751   2.716   0.021   3.731  0.1157 -1.5709  0.9846
 5488SOL     OW16752   4.683   2.358   0.033 -0.5123 -0.2617  0.5354
 5488SOL    HW116753   4.680   2.261   0.011 -0.7209 -0.7033  2.3179
 5488SOL    HW216754   4.779   2.386   0.043 -0.4691 -0.8981  2.3082
 5489SOL     OW16755   2.412   3.944   1.161 -0.1521 -0.1561 -0.3070
 5489SOL    HW116756   2.347   3.978   1.228 -1.1336 -1.1981 -0.6977
 5489SOL    HW216757   2.385   3.972   1.069 -0.2557 -0.8813 -0.5061
 5490SOL     OW16758   0.468   4.699   1.999  0.0364 -0.2602 -0.1216
 5490SOL    HW116759   0.481   4.702   2.098  0.7816 -0.4646 -0.2149
 5490SOL    HW216760   0.416   4.780   1.971  0.7896  0.3881  0.2954
 5491SOL     OW16761   3.835   0.018   4.768 -0.3961  0.2807  0.1832
 5491SOL    HW116762   3.837   0.100   4.711 -0.7132 -0.1005 -0.3785
 5491SOL    HW216763   3.885   0.035   4.853  0.6586  0.6223 -0.5006
 5492SOL     OW16764   1.600   1.501   3.649 -0.0622  0.2178  0.1151
 5492SOL    HW116765   1.683   1.494   3.705 -1.8407 -0.2308  2.8969
 5492SOL    HW216766   1.625   1.518   3.554  3.1942 -0.2060  0.7879
 5493SOL     OW16767   1.846   4.275   3.882  0.0809 -0.3355  0.3755
 5493SOL    HW116768   1.802   4.189   3.907  0.1438 -0.3995  0.2664
 5493SOL    HW216769   1.874   4.272   3.786  0.2830 -0.2764  0.4325
 5494SOL     OW16770   3.084   1.507   5.622 -0.0783 -0.3517  0.1596
 5494SOL    HW116771   3.088   1.410   5.597  0.0121 -0.4766  0.6531
 5494SOL    HW216772   3.145   1.559   5.561 -1.4388 -0.3375 -1.2662
 5495SOL     OW16773   0.923   0.303   4.287 -0.1311  0.0119  0.1310
 5495SOL    HW116774   0.863   0.296   4.366 -0.1131  4.1548  0.7541
 5495SOL    HW216775   0.869   0.324   4.205  0.0810 -1.8517 -0.5465
 5496SOL     OW16776   1.645   4.076   0.646 -0.1289 -0.7338 -0.0425
 5496SOL    HW116777   1.639   4.103   0.742  0.9096 -1.6016  0.2947
 5496SOL    HW216778   1.654   3.976   0.640  2.1103 -0.5467 -0.8692
 5497SOL     OW16779   1.265   1.113   5.649  0.0752  0.0206  0.0501
 5497SOL    HW116780   1.174   1.148   5.670  0.1858 -0.2256  0.9648
 5497SOL    HW216781   1.269   1.088   5.552 -0.9260 -0.2398  0.0618
 5498SOL     OW16782   5.730   5.590   0.536 -0.1929 -0.3870 -0.4626
 5498SOL    HW116783   5.707   5.580   0.633  1.7147 -0.3780  0.0210
 5498SOL    HW216784   5.741   5.499   0.495 -0.6183 -0.3877 -0.5772
 5499SOL     OW16785   4.139   0.284   5.809 -0.4128 -0.0715 -0.1868
 5499SOL    HW116786   4.156   0.185   5.805 -1.5028 -0.3988  2.1134
 5499SOL    HW216787   4.131   0.320   5.716 -0.5986 -2.2507 -1.0685
 5500SOL     OW16788   4.240   1.633   0.967 -0.0245 -0.0910  0.1208
 5500SOL    HW116789   4.234   1.592   1.058 -1.7046  0.2552  0.2017
 5500SOL    HW216790   4.282   1.568   0.904 -1.0911 -1.3144  0.6209
 5501SOL     OW16791   2.915   4.675   4.905  0.1378  0.3435 -0.0179
 5501SOL    HW116792   2.824   4.646   4.873 -0.0881  0.6110  0.3673
 5501SOL    HW216793   2.973   4.695   4.827  0.0992 -0.5493 -0.2835
 5502SOL     OW16794   4.963   3.389   1.602 -0.6978 -0.4082  0.1351
 5502SOL    HW116795   4.870   3.396   1.566  0.0525  0.9889 -1.7107
 5502SOL    HW216796   4.970   3.441   1.687 -1.4229  0.1315 -0.1282
 5503SOL     OW16797   3.061   3.976   2.451 -0.3153  0.1610 -0.2702
 5503SOL    HW116798   3.097   4.033   2.377 -0.9077  2.2761  0.9796
 5503SOL    HW216799   3.137   3.928   2.495  0.2761  0.3804 -1.0131
 5504SOL     OW16800   1.630   4.946   3.151  0.2007 -0.2853  0.2146
 5504SOL    HW116801   1.727   4.973   3.152 -0.0572  0.6844  0.7354
 5504SOL    HW216802   1.576   5.020   3.112 -0.3892 -0.6153  0.4023
 5505SOL     OW16803   5.428   1.630   2.469  0.1147 -0.3345  0.0881
 5505SOL    HW116804   5.345   1.578   2.447 -0.8590  1.0986  0.1754
 5505SOL    HW216805   5.469   1.665   2.385 -1.6479  2.2413  0.1927
 5506SOL     OW16806   3.537   2.254   1.368  0.5277  0.7776 -0.0772
 5506SOL    HW116807   3.456   2.287   1.416 -1.2230 -0.9510 -1.6445
 5506SOL    HW216808   3.572   2.327   1.309  0.3464  1.6740  0.9084
 5507SOL     OW16809   3.145   2.228   4.067 -0.2934 -0.0318 -0.6606
 5507SOL    HW116810   3.191   2.298   4.122  0.1966 -1.3929  0.7438
 5507SOL    HW216811   3.053   2.259   4.043  0.5416  1.8218 -1.6263
 5508SOL     OW16812   5.250   5.855   0.224 -0.0359 -0.2936  0.4660
 5508SOL    HW116813   5.333   5.802   0.209  0.1937 -0.3398  1.7254
 5508SOL    HW216814   5.274   5.951   0.239 -0.3733  0.0202 -0.8826
 5509SOL     OW16815   2.271   4.577   0.767 -0.0130 -0.6824 -0.6120
 5509SOL    HW116816   2.274   4.501   0.703 -0.5857 -0.6709 -0.6512
 5509SOL    HW216817   2.187   4.572   0.821 -0.0523 -0.0780 -0.6144
 5510SOL     OW16818   1.738   2.656   4.125 -0.2475  0.6121  0.2026
 5510SOL    HW116819   1.812   2.722   4.138  0.1567  0.1491  0.3139
 5510SOL    HW216820   1.706   2.624   4.215 -0.6956  0.9371  0.1569
 5511SOL     OW16821   3.726   5.800   2.411  0.4721  0.4224 -0.6788
 5511SOL    HW116822   3.680   5.769   2.328 -0.0812  0.7543 -0.5047
 5511SOL    HW216823   3.726   5.900   2.413  1.3967  0.4273 -0.7784
 5512SOL     OW16824   3.706   4.219   0.524 -0.3184  0.5153  0.2142
 5512SOL    HW116825   3.621   4.170   0.507 -0.2127  0.6530 -0.7304
 5512SOL    HW216826   3.712   4.299   0.463  0.3249  0.7060  0.5128
 5513SOL     OW16827   3.111   0.887   4.428 -0.8755  0.0490 -0.0345
 5513SOL    HW116828   3.023   0.905   4.383 -1.0221 -0.2185  0.1373
 5513SOL    HW216829   3.156   0.974   4.450 -0.8713  0.1799 -0.5585
 5514SOL     OW16830   4.419   3.772   2.917 -0.3984  0.0924  0.5279
 5514SOL    HW116831   4.328   3.732   2.904  0.4003 -1.3050 -1.3355
 5514SOL    HW216832   4.472   3.761   2.833  1.3493  1.3044  1.4086
 5515SOL     OW16833   5.033   4.870   0.572  0.0390  0.7044  0.5382
 5515SOL    HW116834   5.113   4.903   0.522  0.7253 -1.1562  0.3456
 5515SOL    HW216835   4.985   4.802   0.517 -0.5249  0.3160  1.4822
 5516SOL     OW16836   0.843   1.702   3.506  0.4168 -0.0666  0.5657
 5516SOL    HW116837   0.900   1.765   3.557  3.0028 -0.0628 -2.0883
 5516SOL    HW216838   0.832   1.734   3.412 -2.0373 -1.3104  0.3345
 5517SOL     OW16839   3.531   2.346   3.633 -0.0501  0.2754 -0.1387
 5517SOL    HW116840   3.580   2.316   3.551  1.6106  0.2027  0.8332
 5517SOL    HW216841   3.576   2.428   3.670 -1.2992  0.8106  0.2239
 5518SOL     OW16842   1.601   0.091   2.461  0.1003  0.3795  0.8920
 5518SOL    HW116843   1.512   0.066   2.424  0.8345  0.3837 -0.9891
 5518SOL    HW216844   1.673   0.065   2.396  1.6130 -0.9000  2.9408
 5519SOL     OW16845   4.230   0.218   3.548 -0.4303  0.5268  0.4129
 5519SOL    HW116846   4.137   0.188   3.527 -0.0804  0.0614 -0.5212
 5519SOL    HW216847   4.262   0.281   3.478  0.9681 -1.4870 -0.8686
 5520SOL     OW16848   2.831   1.526   2.111  0.5624 -0.6745 -0.7994
 5520SOL    HW116849   2.887   1.604   2.083  0.4404 -0.9597 -1.9043
 5520SOL    HW216850   2.736   1.555   2.124  0.2422 -0.8430 -2.4801
 5521SOL     OW16851   0.283   3.193   4.980 -0.4004  0.5198 -0.0637
 5521SOL    HW116852   0.186   3.187   5.007 -1.0591 -0.5769 -2.3711
 5521SOL    HW216853   0.313   3.288   4.982 -1.8354  1.0019 -0.1840
 5522SOL     OW16854   1.077   5.307   3.202 -0.2730  0.1617  0.1900
 5522SOL    HW116855   1.052   5.349   3.290 -1.5970  0.5697 -0.3600
 5522SOL    HW216856   1.149   5.361   3.159  1.4412 -0.8421  1.6584
 5523SOL     OW16857   3.014   0.099   1.596 -0.0925  0.5688  0.1250
 5523SOL    HW116858   3.077   0.079   1.672  1.7454 -1.3659 -1.7942
 5523SOL    HW216859   3.034   0.039   1.519 -1.8629  2.4975 -1.9684
 5524SOL     OW16860   4.318   5.802   0.752 -0.2111 -0.1757 -0.6239
 5524SOL    HW116861   4.274   5.720   0.717  1.4756 -0.3412 -2.5642
 5524SOL    HW216862   4.395   5.776   0.810 -0.8439  0.0858  0.3621
 5525SOL     OW16863   1.150   3.583   0.890 -0.0968 -0.2524 -0.1651
 5525SOL    HW116864   1.197   3.498   0.863 -0.4736  0.1041 -2.0589
 5525SOL    HW216865   1.148   3.589   0.990  2.4482 -1.0707  0.0178
 5526SOL     OW16866   0.771   4.812   3.598 -0.0889  0.7443 -0.2032
 5526SOL    HW116867   0.689   4.849   3.641  0.5647  2.6948 -0.5350
 5526SOL    HW216868   0.745   4.739   3.535 -1.5192  0.9640  0.0938
 5527SOL     OW16869   3.464   4.120   5.206  0.3232  0.2734  0.2265
 5527SOL    HW116870   3.561   4.139   5.188  1.0942 -0.3298  3.2059
 5527SOL    HW216871   3.452   4.096   5.303 -2.3280 -2.9260 -0.7225
 5528SOL     OW16872   0.126   5.450   4.203 -0.3037 -0.1381  0.1284
 5528SOL    HW116873   0.097   5.474   4.110 -0.7500  0.0875  0.3246
 5528SOL    HW216874   0.225   5.437   4.204 -0.3384 -0.4609 -0.4462
 5529SOL     OW16875   3.842   1.870   3.386  0.2401  0.0715  0.0482
 5529SOL    HW116876   3.869   1.944   3.324 -0.4860  0.3434  0.0455
 5529SOL    HW216877   3.843   1.904   3.480 -0.1953  0.1128  0.0372
 5530SOL     OW16878   5.770   1.697   2.324 -0.2908 -0.4406 -0.3088
 5530SOL    HW116879   5.817   1.645   2.253 -0.2960 -0.3526 -0.3765
 5530SOL    HW216880   5.801   1.792   2.321 -0.6766 -0.3231 -0.5282
 5531SOL     OW16881   4.093   5.600   5.662  0.1588  0.4341  0.0045
 5531SOL    HW116882   4.025   5.672   5.680 -0.3592 -0.0860  0.1735
 5531SOL    HW216883   4.071   5.519   5.717  1.3976  0.5368  0.6864
 5532SOL     OW16884   4.063   4.601   1.104  0.0005 -0.1060 -0.6729
 5532SOL    HW116885   4.156   4.634   1.088 -0.2739  0.7792 -0.4709
 5532SOL    HW216886   4.029   4.638   1.190 -0.3324 -0.8952 -0.4581
 5533SOL     OW16887   1.819   2.089   2.965  0.3467  0.1020 -0.3571
 5533SOL    HW116888   1.802   2.083   3.063  0.1991  0.6503 -0.3447
 5533SOL    HW216889   1.914   2.118   2.949  0.3165  0.1920 -0.3734
 5534SOL     OW16890   0.283   3.820   2.467 -0.1683  0.3291  0.0906
 5534SOL    HW116891   0.281   3.917   2.443  0.2766 -0.2999 -2.7821
 5534SOL    HW216892   0.364   3.802   2.523 -0.7467  1.7299  1.4588
 5535SOL     OW16893   0.207   1.007   3.161 -0.4760 -0.1316 -0.2521
 5535SOL    HW116894   0.225   1.001   3.259 -1.1327  0.2702 -0.1038
 5535SOL    HW216895   0.127   1.065   3.145 -0.8973 -0.8929 -0.9755
 5536SOL     OW16896   5.634   3.808   2.484  0.8358  0.5999  0.0823
 5536SOL    HW116897   5.591   3.724   2.518 -0.2330  1.4717  0.9454
 5536SOL    HW216898   5.640   3.803   2.384  1.1381 -0.6608  0.1447
 5537SOL     OW16899   3.811   2.984   5.779  0.1430 -0.1973  0.1918
 5537SOL    HW116900   3.869   3.017   5.704 -0.4022  0.7077  0.1568
 5537SOL    HW216901   3.828   2.886   5.793 -0.2070 -0.5337 -1.5185
 5538SOL     OW16902   2.125   2.895   0.374 -0.7908 -0.1687  0.4809
 5538SOL    HW116903   2.108   2.798   0.355 -0.3587 -0.1533  0.0126
 5538SOL    HW216904   2.062   2.926   0.446 -0.6776 -0.8898  0.9009
 5539SOL     OW16905   5.459   3.321   2.523  0.3554  0.1275  0.0100
 5539SOL    HW116906   5.407   3.320   2.438 -0.2879  2.2356  0.3143
 5539SOL    HW216907   5.396   3.316   2.601  0.7228  0.8124  0.3660
 5540SOL     OW16908   2.424   1.664   1.633 -0.3777  0.4259  0.4067
 5540SOL    HW116909   2.505   1.638   1.686 -1.0985  1.8729  2.3160
 5540SOL    HW216910   2.381   1.582   1.596 -0.7326 -0.9024  3.4251
 5541SOL     OW16911   0.465   0.974   0.466 -0.2764  0.3802  0.1482
 5541SOL    HW116912   0.422   1.061   0.442  0.3935  0.6614 -0.0588
 5541SOL    HW216913   0.512   0.937   0.385 -0.2100  0.0281  0.3452
 5542SOL     OW16914   2.139   5.489   0.666 -0.5021 -0.0801  0.0255
 5542SOL    HW116915   2.108   5.543   0.588  0.7528 -1.0483 -1.2187
 5542SOL    HW216916   2.147   5.393   0.638 -0.9672 -0.6196  1.6500
 5543SOL     OW16917   3.935   0.697   0.300 -0.3329  0.8324 -0.6224
 5543SOL    HW116918   3.935   0.710   0.201  0.1627  0.2321 -0.7078
 5543SOL    HW216919   3.964   0.782   0.345 -2.4585  1.7324 -0.8784
 5544SOL     OW16920   0.356   4.605   3.073  0.2877  0.2140 -0.2624
 5544SOL    HW116921   0.451   4.577   3.089  0.5832  2.1843  1.8410
 5544SOL    HW216922   0.353   4.702   3.051 -1.1457 -0.2158 -2.2859
 5545SOL     OW16923   5.473   3.611   1.213 -0.1568  0.6903  0.7901
 5545SOL    HW116924   5.390   3.609   1.158  0.5066  1.3769 -0.2637
 5545SOL    HW216925   5.453   3.649   1.303 -1.7180 -2.3747  1.8901
 5546SOL     OW16926   4.504   1.037   0.673  0.2428  0.0671 -0.1581
 5546SOL    HW116927   4.571   0.964   0.686 -1.5877 -1.9813 -1.6746
 5546SOL    HW216928   4.488   1.052   0.576 -0.0181  1.9992  0.1322
 5547SOL     OW16929   1.916   5.657   1.497  0.4647 -0.4421 -0.3348
 5547SOL    HW116930   1.854   5.735   1.497  0.1631 -0.6825  0.1283
 5547SOL    HW216931   1.892   5.595   1.571  1.2340 -0.5541 -0.1674
 5548SOL     OW16932   5.825   0.518   2.137 -0.2962 -0.2665 -0.1910
 5548SOL    HW116933   5.844   0.607   2.177 -0.8255  1.2118 -2.9976
 5548SOL    HW216934   5.749   0.526   2.072 -0.2942 -2.7475 -0.5915
 5549SOL     OW16935   3.193   4.373   1.937 -0.2353  0.1409  0.2326
 5549SOL    HW116936   3.240   4.285   1.944  0.5737  0.6752  2.3556
 5549SOL    HW216937   3.145   4.391   2.023  1.3511  2.7154  0.6745
 5550SOL     OW16938   4.114   4.483   4.880  0.9469 -0.1302 -0.0047
 5550SOL    HW116939   4.112   4.523   4.972  0.3771 -1.5881  0.6399
 5550SOL    HW216940   4.180   4.409   4.877 -0.1462 -1.1323 -0.2979
 5551SOL     OW16941   0.068   1.074   1.160  0.2845 -0.1577 -0.3060
 5551SOL    HW116942  -0.012   1.030   1.121 -0.2402  0.1518  0.3979
 5551SOL    HW216943   0.131   1.003   1.194 -0.6529 -0.3904  1.0147
 5552SOL     OW16944   0.121   5.413   1.894 -0.2085  0.0985 -0.6270
 5552SOL    HW116945   0.031   5.454   1.909  0.4780  1.1512  0.7478
 5552SOL    HW216946   0.162   5.389   1.981 -0.1944 -2.8371 -1.3015
 5553SOL     OW16947   4.518   0.208   5.124  0.0036 -0.1404  0.0596
 5553SOL    HW116948   4.521   0.292   5.069  1.5492  0.6297  1.2399
 5553SOL    HW216949   4.430   0.163   5.110 -1.0188  1.8453 -0.3607
 5554SOL     OW16950   3.450   1.108   1.113 -0.8108  0.4639 -0.0027
 5554SOL    HW116951   3.414   1.016   1.122 -1.4072  0.8013  1.2179
 5554SOL    HW216952   3.483   1.122   1.019  0.0630 -1.2518  0.0138
 5555SOL     OW16953   5.592   4.552   5.554 -0.1971 -0.4561  0.1395
 5555SOL    HW116954   5.687   4.581   5.550 -0.5167  0.6741  0.4519
 5555SOL    HW216955   5.586   4.464   5.602  0.6042 -0.1719  0.7782
 5556SOL     OW16956   0.550   5.648   1.087  0.3498  0.0663 -0.1501
 5556SOL    HW116957   0.578   5.636   0.991  0.2962  0.3352 -0.2008
 5556SOL    HW216958   0.523   5.559   1.125  0.7274 -0.1037 -0.2698
 5557SOL     OW16959   5.227   5.035   3.290  0.3806 -0.4595 -0.1536
 5557SOL    HW116960   5.133   5.066   3.279  0.4788  0.3253  1.0353
 5557SOL    HW216961   5.277   5.099   3.348  2.2118  0.2362 -2.3190
 5558SOL     OW16962   1.495   1.363   2.590 -0.2262 -0.1605  0.0885
 5558SOL    HW116963   1.592   1.350   2.569 -0.6449 -2.4398 -0.6757
 5558SOL    HW216964   1.444   1.377   2.505 -0.7144 -0.0335  0.3957
 5559SOL     OW16965   1.275   4.898   4.996 -0.1488 -0.4235 -0.3365
 5559SOL    HW116966   1.323   4.984   5.018 -1.5000 -0.0437  1.3939
 5559SOL    HW216967   1.184   4.919   4.961 -0.1947 -1.1457 -0.6625
 5560SOL     OW16968   2.951   0.116   3.222  0.4602 -0.0484 -0.2441
 5560SOL    HW116969   2.900   0.040   3.262 -1.4424  0.7653 -1.0130
 5560SOL    HW216970   3.047   0.090   3.211  0.4725 -1.2914  2.1509
 5561SOL     OW16971   3.196   2.035   4.900 -0.0776  0.4012 -0.1119
 5561SOL    HW116972   3.222   2.121   4.857  0.4182 -0.1068 -0.8683
 5561SOL    HW216973   3.097   2.028   4.906 -0.1192  0.9706 -0.1656
 5562SOL     OW16974   1.622   2.130   5.498  0.2758  0.0157 -0.4572
 5562SOL    HW116975   1.582   2.047   5.538  0.7900 -0.3914 -0.7717
 5562SOL    HW216976   1.579   2.211   5.539  0.9715 -0.3822  1.1274
 5563SOL     OW16977   2.118   3.630   0.292 -0.3946 -0.4654  0.3543
 5563SOL    HW116978   2.049   3.677   0.237  1.3306  1.3326 -0.3669
 5563SOL    HW216979   2.126   3.535   0.261  0.4787  0.4525 -2.5253
 5564SOL     OW16980   5.621   3.561   3.652  0.0254  0.3805 -0.7471
 5564SOL    HW116981   5.524   3.578   3.670  0.0676 -1.5143  1.8404
 5564SOL    HW216982   5.637   3.462   3.648  1.9273  0.6537 -0.6229
 5565SOL     OW16983   4.127   0.461   0.035 -0.3975  0.1746  0.1695
 5565SOL    HW116984   4.121   0.411   0.122 -0.3270  0.4600  0.3387
 5565SOL    HW216985   4.147   0.397  -0.038 -1.3111 -0.2038  0.2267
 5566SOL     OW16986   0.424   1.794   0.304  0.1585  0.2142  0.1049
 5566SOL    HW116987   0.463   1.705   0.324  0.2339  0.6002  1.7615
 5566SOL    HW216988   0.497   1.857   0.275 -0.2383 -1.0374 -4.4724
 5567SOL     OW16989   2.218   1.804   2.962  0.2708  0.1549  0.3029
 5567SOL    HW116990   2.232   1.705   2.951 -0.9055 -0.0948  0.9180
 5567SOL    HW216991   2.182   1.823   3.053  0.5400  1.1641  0.2102
 5568SOL     OW16992   0.731   4.157   1.059  0.5329  0.2255  0.2475
 5568SOL    HW116993   0.766   4.067   1.087  2.5092  0.2544 -1.8424
 5568SOL    HW216994   0.673   4.193   1.131  1.4033 -1.7849  2.0907
 5569SOL     OW16995   3.642   5.696   0.762 -0.0133 -0.3477 -0.1465
 5569SOL    HW116996   3.724   5.743   0.795  1.7585 -2.2794 -1.5647
 5569SOL    HW216997   3.614   5.628   0.830  0.1277 -0.3588 -0.0992
 5570SOL     OW16998   5.126   4.614   5.026  0.0070 -0.0101  0.2228
 5570SOL    HW116999   5.068   4.560   5.087 -3.6046  1.5666 -1.5220
 5570SOL    HW217000   5.177   4.681   5.079 -1.0064 -0.3829  1.7406
 5571SOL     OW17001   4.849   3.703   3.496  0.2680  0.5350  0.0030
 5571SOL    HW117002   4.842   3.797   3.530  0.5900  0.2578  0.8763
 5571SOL    HW217003   4.943   3.672   3.503  0.3410  0.4692 -1.1967
 5572SOL     OW17004   2.755   5.517  -0.014 -1.0896 -0.4505 -0.0334
 5572SOL    HW117005   2.808   5.433  -0.026  1.7679  1.3139 -0.9308
 5572SOL    HW217006   2.785   5.563   0.070 -1.5599  0.3631 -0.2998
 5573SOL     OW17007   2.450   3.744   5.201 -0.4524  0.0329 -0.2599
 5573SOL    HW117008   2.364   3.756   5.150 -0.1578  0.0263 -0.7700
 5573SOL    HW217009   2.430   3.722   5.296 -1.0307 -1.1762 -0.6489
 5574SOL     OW17010   3.932   5.501   0.811  0.2824  0.0330 -0.1320
 5574SOL    HW117011   3.916   5.507   0.713 -3.4146 -0.0024  0.3567
 5574SOL    HW217012   4.012   5.442   0.828  1.5619  0.7430 -3.0589
 5575SOL     OW17013   0.264   1.840   1.643  0.1022 -0.2665  0.6828
 5575SOL    HW117014   0.212   1.754   1.643  1.5183 -1.1685  1.2577
 5575SOL    HW217015   0.209   1.913   1.684 -1.4692 -0.6553 -0.6192
 5576SOL     OW17016   0.324   2.447   1.540 -0.6881  0.1479  0.2607
 5576SOL    HW117017   0.291   2.517   1.476 -0.7777 -0.3594 -0.2566
 5576SOL    HW217018   0.410   2.478   1.582 -0.5256  0.4067 -0.2542
 5577SOL     OW17019   4.877   0.327   0.638 -0.4406 -0.0145 -0.3743
 5577SOL    HW117020   4.900   0.371   0.551  1.8630 -2.7238 -1.2871
 5577SOL    HW217021   4.867   0.229   0.625 -2.5411 -0.2512  2.0589
 5578SOL     OW17022   2.755   2.490   4.511 -0.0085 -0.1795 -0.0721
 5578SOL    HW117023   2.787   2.583   4.496 -2.3712  0.5390 -1.1347
 5578SOL    HW217024   2.808   2.447   4.584  1.2680  1.8991  0.2825
 5579SOL     OW17025   2.018   3.295   0.578 -0.0264  0.3244 -0.2743
 5579SOL    HW117026   1.980   3.244   0.501 -0.7440  0.9674 -0.3543
 5579SOL    HW217027   1.960   3.284   0.658 -0.2861  1.1581 -0.3421
 5580SOL     OW17028   2.771   2.030   2.201 -0.0381 -0.6120 -0.0843
 5580SOL    HW117029   2.754   1.985   2.288 -0.4104 -1.7402 -0.7180
 5580SOL    HW217030   2.787   2.127   2.216  0.3535 -0.8707  1.2767
 5581SOL     OW17031   0.099   2.023   5.519  0.3932 -0.4881  0.4364
 5581SOL    HW117032   0.168   2.093   5.538 -1.3059  2.5491 -3.2763
 5581SOL    HW217033   0.021   2.036   5.579 -0.2852  1.6088 -0.7765
 5582SOL     OW17034   2.149   5.856   4.147  0.0511 -0.4252  0.2664
 5582SOL    HW117035   2.082   5.876   4.219  1.5075 -0.2924  1.6480
 5582SOL    HW217036   2.217   5.929   4.143 -0.8048  0.3323 -2.3229
 5583SOL     OW17037   2.186   4.881   4.529  0.2592 -0.2418 -0.5491
 5583SOL    HW117038   2.100   4.834   4.513 -0.0395  0.5725 -1.4396
 5583SOL    HW217039   2.251   4.818   4.571  0.0385 -1.6230 -2.1507
 5584SOL     OW17040   5.760   2.412   3.011  0.3167  0.1023  0.3026
 5584SOL    HW117041   5.684   2.451   3.063 -0.8208 -0.6919 -0.7054
 5584SOL    HW217042   5.846   2.446   3.048 -0.5042  0.8375  1.6391
 5585SOL     OW17043   2.997   4.454   5.287 -0.4834  0.1500 -0.3072
 5585SOL    HW117044   3.060   4.462   5.210  0.1653  3.0799  0.4144
 5585SOL    HW217045   2.902   4.454   5.253 -0.2041 -1.4989 -1.2101
 5586SOL     OW17046   3.338   3.511   4.303  0.5007  0.3675  0.4436
 5586SOL    HW117047   3.304   3.437   4.361 -0.3032  0.0861 -0.3562
 5586SOL    HW217048   3.274   3.525   4.227  1.1602  1.2132  0.0314
 5587SOL     OW17049   5.390   0.384   5.838 -0.8870  0.0480 -0.3436
 5587SOL    HW117050   5.442   0.418   5.760 -0.2607  0.6899  0.3364
 5587SOL    HW217051   5.365   0.288   5.823 -0.5315  0.0841 -1.1966
 5588SOL     OW17052   4.477   5.105   4.022  0.2059 -0.2154  0.4244
 5588SOL    HW117053   4.506   5.123   3.928 -0.8143  1.4763  0.3981
 5588SOL    HW217054   4.386   5.063   4.021 -0.1275  0.4795  0.6463
 5589SOL     OW17055   0.198   4.391   4.044 -0.0003  0.2094  0.0374
 5589SOL    HW117056   0.264   4.344   4.101  0.2311 -0.6376 -0.8871
 5589SOL    HW217057   0.184   4.338   3.959 -0.3858  1.3702 -0.6463
 5590SOL     OW17058   5.346   2.855   0.249 -0.3133  0.4279  0.1210
 5590SOL    HW117059   5.250   2.876   0.265 -0.6922 -1.5208  0.6346
 5590SOL    HW217060   5.364   2.852   0.150 -0.4888  1.8599  0.0204
 5591SOL     OW17061   5.925   2.272   4.321  0.3248 -0.0505 -0.0070
 5591SOL    HW117062   5.942   2.332   4.399 -2.0807 -0.0994  0.6233
 5591SOL    HW217063   5.827   2.253   4.313  0.7771 -2.1975 -1.4651
 5592SOL     OW17064   3.447   3.619   0.615 -0.1394 -0.2262  0.1729
 5592SOL    HW117065   3.477   3.709   0.646 -2.2521  1.1407 -1.4741
 5592SOL    HW217066   3.442   3.557   0.693  0.8445  1.1917  1.4403
 5593SOL     OW17067   3.975   5.264   5.208  0.1632 -0.0523  0.2289
 5593SOL    HW117068   3.946   5.256   5.303  0.3900  0.8509  0.3903
 5593SOL    HW217069   3.897   5.291   5.151 -0.7222 -3.5177 -0.3991
 5594SOL     OW17070   0.596   1.473   1.693 -0.1260 -0.6378 -0.1338
 5594SOL    HW117071   0.582   1.531   1.774 -2.2291  0.3942 -1.1496
 5594SOL    HW217072   0.523   1.403   1.690 -0.2077 -0.5169 -1.2391
 5595SOL     OW17073   0.944   2.422   2.727 -0.4257  0.3600 -0.6084
 5595SOL    HW117074   1.003   2.456   2.654  2.0970  2.5385  2.1688
 5595SOL    HW217075   0.969   2.327   2.748 -1.0722 -0.2366 -2.3710
 5596SOL     OW17076   4.534   2.624   1.740 -0.1337 -0.0638 -0.0243
 5596SOL    HW117077   4.519   2.604   1.643  2.1604 -0.9629 -0.2821
 5596SOL    HW217078   4.459   2.680   1.775 -0.9894  0.3556 -2.3189
 5597SOL     OW17079   1.297   0.035   2.539 -0.0506 -0.5633  0.0328
 5597SOL    HW117080   1.328  -0.051   2.581 -0.6918 -1.1480 -0.6460
 5597SOL    HW217081   1.202   0.051   2.562 -0.6170 -1.2342 -1.6463
 5598SOL     OW17082   5.519   3.550   1.870 -0.0427  0.0801  0.1516
 5598SOL    HW117083   5.502   3.563   1.968  0.8375 -0.1248  0.3356
 5598SOL    HW217084   5.478   3.463   1.841 -1.6547  0.8518 -0.0183
 5599SOL     OW17085   1.830   1.581   5.616  0.2125 -0.1641 -0.3038
 5599SOL    HW117086   1.819   1.538   5.705  0.2932  1.0777  0.3181
 5599SOL    HW217087   1.831   1.510   5.545 -1.3160 -1.0777  0.5334
 5600SOL     OW17088   0.228   4.182   3.837 -0.0278  0.2603  0.2258
 5600SOL    HW117089   0.223   4.131   3.751  0.0805  0.9199 -0.1762
 5600SOL    HW217090   0.245   4.118   3.912 -2.8555 -0.7139  0.1719
 5601SOL     OW17091   0.414   4.573   3.430 -0.3584 -0.0104 -0.3533
 5601SOL    HW117092   0.346   4.635   3.390 -0.1922  1.1026  1.0328
 5601SOL    HW217093   0.389   4.478   3.409 -1.8575  0.4132 -0.5920
 5602SOL     OW17094   3.783   4.505   1.961  0.0049 -0.0999  0.2257
 5602SOL    HW117095   3.810   4.531   2.053 -0.1301 -0.6536  0.4289
 5602SOL    HW217096   3.858   4.456   1.917  0.4172  0.9817 -0.3106
 5603SOL     OW17097   5.020   0.865   2.553 -0.3005 -0.4528 -0.2198
 5603SOL    HW117098   5.016   0.772   2.587 -0.0889  0.4388  2.4865
 5603SOL    HW217099   4.953   0.922   2.602  2.4806  1.6779  1.4225
 5604SOL     OW17100   0.692   3.854   1.131 -0.6513  0.0768  0.2765
 5604SOL    HW117101   0.699   3.834   1.034  1.7195  1.4257  0.0761
 5604SOL    HW217102   0.753   3.794   1.182  0.4373  1.3505  0.5403
 5605SOL     OW17103   0.380   3.343   1.561  0.2398 -0.0765 -0.6396
 5605SOL    HW117104   0.450   3.407   1.528  0.3757  0.5147  0.7361
 5605SOL    HW217105   0.371   3.352   1.660 -2.1009  0.1696 -0.8369
 5606SOL     OW17106   0.989   0.161   3.041 -0.2947  0.0523  0.4402
 5606SOL    HW117107   1.033   0.073   3.057  0.1933  0.1276 -0.4204
 5606SOL    HW217108   1.058   0.228   3.012 -0.6593  0.7182  1.0654
 5607SOL     OW17109   5.343   5.042   0.801 -0.1594  0.4163  0.3462
 5607SOL    HW117110   5.375   5.092   0.881  1.4869  0.2262 -0.1508
 5607SOL    HW217111   5.278   5.098   0.750  0.0467  1.1957  0.9174
 5608SOL     OW17112   0.256   1.873   5.745  0.3091 -0.4641  0.2048
 5608SOL    HW117113   0.181   1.877   5.679  1.7094 -1.2855 -1.5094
 5608SOL    HW217114   0.248   1.790   5.800 -0.0189 -0.5852 -0.0222
 5609SOL     OW17115   3.817   0.089   2.932  0.2597 -1.0216 -0.5977
 5609SOL    HW117116   3.723   0.095   2.897  0.1862 -1.5851 -0.5063
 5609SOL    HW217117   3.816   0.044   3.021  0.3497  1.0648  0.5384
 5610SOL     OW17118   5.979   1.715   5.696  0.2142  0.1793 -0.0529
 5610SOL    HW117119   5.924   1.735   5.777  1.2208  0.8337  0.4849
 5610SOL    HW217120   5.946   1.771   5.620  0.7686  1.3450  0.5381
 5611SOL     OW17121   2.061   2.549   1.342 -0.0739 -0.1277  0.0873
 5611SOL    HW117122   2.127   2.562   1.268  1.6134  0.4402  1.6181
 5611SOL    HW217123   2.008   2.466   1.325  1.7066 -1.1527 -0.7397
 5612SOL     OW17124   4.676   1.125   3.168 -0.1879  0.1963 -0.9503
 5612SOL    HW117125   4.601   1.157   3.227 -0.3623  0.3914 -1.2743
 5612SOL    HW217126   4.641   1.061   3.101  0.5463 -2.5944  1.1642
 5613SOL     OW17127   2.864   2.426   5.033  0.2011 -0.3144  0.0159
 5613SOL    HW117128   2.943   2.398   5.088 -0.3265 -0.1520  0.8857
 5613SOL    HW217129   2.850   2.525   5.043  0.7569 -0.0781 -1.3122
 5614SOL     OW17130   3.707   5.272   4.270  0.3768  0.5214 -0.0823
 5614SOL    HW117131   3.797   5.256   4.310  0.1126 -0.0830  0.2826
 5614SOL    HW217132   3.643   5.299   4.342  0.3229  1.2043 -0.3794
 5615SOL     OW17133   4.220   1.228   3.908  0.3102  0.0980 -0.3740
 5615SOL    HW117134   4.160   1.272   3.842 -1.0381 -0.5074  0.3972
 5615SOL    HW217135   4.315   1.234   3.877 -0.0508  1.7323 -1.2620
 5616SOL     OW17136   5.183   3.013   0.877 -0.3461  0.3181  0.1331
 5616SOL    HW117137   5.196   3.112   0.867  0.5788  0.2224  0.3164
 5616SOL    HW217138   5.225   2.983   0.963 -2.6779  0.1353  1.2785
 5617SOL     OW17139   4.638   4.392   3.608  0.1172  0.4146 -0.1530
 5617SOL    HW117140   4.725   4.346   3.592  1.2457  2.9778 -2.1169
 5617SOL    HW217141   4.605   4.431   3.522 -2.1858  0.8948  0.8740
 5618SOL     OW17142   3.452   5.330   5.518 -0.5198  0.0746 -0.0034
 5618SOL    HW117143   3.501   5.269   5.456 -1.5509  0.2341 -1.0113
 5618SOL    HW217144   3.411   5.277   5.592  1.9521  0.0527  1.4344
 5619SOL     OW17145   1.720   4.318   5.688  0.4941 -0.3188  0.0126
 5619SOL    HW117146   1.639   4.259   5.681  1.0051 -0.9350 -1.0556
 5619SOL    HW217147   1.693   4.414   5.678  0.0737 -0.6210 -2.1663
 5620SOL     OW17148   2.545   2.732   4.161 -0.0259  0.4185  0.1713
 5620SOL    HW117149   2.565   2.639   4.194  0.2228  0.5708  0.4611
 5620SOL    HW217150   2.578   2.742   4.067  0.3176  0.3408  0.2821
 5621SOL     OW17151   3.198   3.466   1.349 -0.8045  0.0431  0.2886
 5621SOL    HW117152   3.157   3.437   1.435 -0.6023  1.3652  0.8562
 5621SOL    HW217153   3.159   3.554   1.321 -0.3372 -0.0156 -0.5871
 5622SOL     OW17154   1.103   0.169   1.054 -0.6912  0.7387  0.4891
 5622SOL    HW117155   1.081   0.072   1.047 -0.3311  0.7371 -0.7831
 5622SOL    HW217156   1.060   0.207   1.136 -0.2900 -0.6327  1.3823
 5623SOL     OW17157   4.327   2.626   4.162 -0.5271 -0.1648 -0.0117
 5623SOL    HW117158   4.275   2.692   4.217  1.3024  0.4757  1.0555
 5623SOL    HW217159   4.341   2.663   4.070 -0.0500  0.6868  0.3870
 5624SOL     OW17160   2.433   2.363   1.195 -0.0084 -0.7975 -0.2099
 5624SOL    HW117161   2.435   2.342   1.293  0.2955 -0.0608 -0.0505
 5624SOL    HW217162   2.508   2.425   1.173 -1.0842  0.4008 -0.5857
 5625SOL     OW17163   4.321   1.733   2.808  0.5340  0.3865 -0.5318
 5625SOL    HW117164   4.403   1.780   2.777  0.5928  0.6665  0.0439
 5625SOL    HW217165   4.292   1.668   2.738  0.6440  1.0324 -1.1885
 5626SOL     OW17166   4.943   5.935   1.354  0.9956  0.1138 -0.1934
 5626SOL    HW117167   5.020   5.922   1.415  1.1059  3.4975  0.5353
 5626SOL    HW217168   4.966   6.002   1.284 -1.3007  1.4049  0.1889
 5627SOL     OW17169   1.843   5.052   4.581 -0.5791  0.0236 -0.7439
 5627SOL    HW117170   1.887   5.135   4.615 -1.4397  0.1352  0.1268
 5627SOL    HW217171   1.769   5.076   4.519  0.0891 -0.1474 -1.6350
 5628SOL     OW17172   0.114   4.259   3.138 -0.0073  0.2834  0.0661
 5628SOL    HW117173   0.162   4.313   3.068 -0.3323  0.1471 -0.2675
 5628SOL    HW217174   0.091   4.170   3.100  1.7215 -0.6215  1.0479
 5629SOL     OW17175   2.539   5.031   2.085  0.2160 -0.7231  0.5975
 5629SOL    HW117176   2.586   4.970   2.148  0.7787 -2.1514 -1.1471
 5629SOL    HW217177   2.582   5.122   2.088  2.6686 -1.7861 -0.4278
 5630SOL     OW17178   4.624   0.819   3.891  0.2922  0.3054  0.4387
 5630SOL    HW117179   4.703   0.762   3.869 -0.8401 -1.6953  1.3207
 5630SOL    HW217180   4.618   0.831   3.990  0.6677  2.2635  0.2665
 5631SOL     OW17181   1.851   5.518   2.998  0.5819  0.0812 -0.3838
 5631SOL    HW117182   1.808   5.590   2.944  1.7862  1.4129  0.3629
 5631SOL    HW217183   1.908   5.461   2.938  0.6845  0.5852 -0.7739
 5632SOL     OW17184   0.215   1.232   5.030 -0.8694  0.0068 -0.1001
 5632SOL    HW117185   0.136   1.186   4.989 -0.9307  0.3699 -0.3961
 5632SOL    HW217186   0.291   1.231   4.965 -1.1268  1.0341 -0.4282
 5633SOL     OW17187   2.381   2.983   5.018  0.1080 -0.4748  0.3369
 5633SOL    HW117188   2.300   2.948   5.065  0.1201 -0.3139  0.4766
 5633SOL    HW217189   2.445   2.907   5.003  0.2672 -0.4644  0.9149
 5634SOL     OW17190   5.550   1.293   5.539  0.0385 -0.0779  0.2931
 5634SOL    HW117191   5.590   1.225   5.601 -0.2488 -0.8985 -0.3959
 5634SOL    HW217192   5.603   1.377   5.543  0.3056 -0.2812  1.2937
 5635SOL     OW17193   3.924   4.371   1.027 -0.4720  0.3126  1.2078
 5635SOL    HW117194   3.952   4.450   1.081  1.8372 -0.1818  0.8570
 5635SOL    HW217195   4.002   4.338   0.974 -1.8602 -1.0937 -0.0687
 5636SOL     OW17196   0.809   4.427   2.796 -0.5150 -0.3919  0.1691
 5636SOL    HW117197   0.772   4.342   2.759 -1.5122 -0.2908  0.8914
 5636SOL    HW217198   0.832   4.414   2.893 -1.6446  0.4147  0.5730
 5637SOL     OW17199   5.327   3.445   0.700  0.0754  0.4750 -0.4671
 5637SOL    HW117200   5.350   3.383   0.625  2.0384 -0.9601  1.2273
 5637SOL    HW217201   5.391   3.522   0.701  0.7280 -0.0717  0.3586
 5638SOL     OW17202   5.121   5.295   0.806  0.2583  0.0227 -0.0047
 5638SOL    HW117203   5.160   5.387   0.809  3.0099 -1.0811  0.0802
 5638SOL    HW217204   5.109   5.261   0.900  0.3457 -0.1662 -0.0625
 5639SOL     OW17205   2.492   5.173   4.865  0.1922  0.2650  0.1949
 5639SOL    HW117206   2.444   5.242   4.919  0.3286 -0.7804  1.7263
 5639SOL    HW217207   2.427   5.129   4.802 -0.3045  0.5382  0.5117
 5640SOL     OW17208   0.817   0.509   5.248  0.2873  0.6938  0.3397
 5640SOL    HW117209   0.842   0.599   5.285  0.5864  1.3451 -1.3844
 5640SOL    HW217210   0.809   0.515   5.149 -0.7590 -0.9530  0.2993
 5641SOL     OW17211   5.366   0.492   0.910 -0.5270  0.8893  0.7466
 5641SOL    HW117212   5.299   0.522   0.842 -1.1821 -1.1264  0.4528
 5641SOL    HW217213   5.402   0.572   0.959 -0.9762  2.2668 -1.0704
 5642SOL     OW17214   2.077   1.914   4.302  0.2707  0.2121 -0.1392
 5642SOL    HW117215   2.116   2.001   4.333 -1.8202  1.1980 -0.1315
 5642SOL    HW217216   2.023   1.873   4.375  0.4051 -0.6084 -0.4820
 5643SOL     OW17217   2.089   1.545   2.598  0.0626  0.4970  0.7236
 5643SOL    HW117218   2.043   1.602   2.666  1.3315  0.1114  1.9334
 5643SOL    HW217219   2.059   1.450   2.609 -3.0265  0.9586 -2.0992
 5644SOL     OW17220   2.131   1.115   4.944  0.0918 -0.1349 -0.7114
 5644SOL    HW117221   2.222   1.109   4.903  0.6055  0.1582  0.3541
 5644SOL    HW217222   2.096   1.023   4.959  0.4210 -0.2604 -0.6883
 5645SOL     OW17223   5.482   0.104   1.253 -0.1528 -0.0192  0.0722
 5645SOL    HW117224   5.559   0.078   1.195  0.5180  0.8393  0.5509
 5645SOL    HW217225   5.455   0.198   1.231  0.2402  0.3925  1.2744
 5646SOL     OW17226   3.556   4.940   4.254 -0.1462 -0.1638  0.0834
 5646SOL    HW117227   3.591   4.911   4.343 -1.2981 -0.6342  0.4078
 5646SOL    HW217228   3.476   4.998   4.267  0.3627  0.7308 -0.6394
 5647SOL     OW17229   5.639   3.278   0.897 -0.0266 -0.1535 -0.0819
 5647SOL    HW117230   5.563   3.324   0.942  0.8114  0.2262  0.9930
 5647SOL    HW217231   5.719   3.279   0.957  1.1170  0.2885 -1.5584
 5648SOL     OW17232   3.910   0.857   2.661 -0.0092 -0.1616  0.5663
 5648SOL    HW117233   3.930   0.941   2.611 -0.0552  0.4120  1.4810
 5648SOL    HW217234   3.986   0.793   2.649  0.0391  0.0109 -0.1164
 5649SOL     OW17235   3.702   3.043   5.208  0.1871 -0.0758 -0.0217
 5649SOL    HW117236   3.671   3.130   5.247 -1.5853 -0.7194  0.1416
 5649SOL    HW217237   3.699   2.972   5.279  0.3055 -0.5457 -0.4804
 5650SOL     OW17238   5.503   3.175   5.604 -1.0601  0.1848 -0.8240
 5650SOL    HW117239   5.500   3.224   5.691 -1.3256  1.1790 -1.3751
 5650SOL    HW217240   5.417   3.126   5.590 -1.0288  0.0478 -0.5468
 5651SOL     OW17241   0.559   5.274   0.898 -0.3887  0.6250 -0.3133
 5651SOL    HW117242   0.509   5.335   0.960  0.9639  1.7842 -0.3160
 5651SOL    HW217243   0.525   5.180   0.909 -2.6331  1.3759 -0.4293
 5652SOL     OW17244   0.547   2.968   2.114  0.4154 -0.1586 -0.3550
 5652SOL    HW117245   0.504   2.961   2.025 -0.7070 -3.0534  0.3113
 5652SOL    HW217246   0.494   3.030   2.173  0.6065  0.9708 -1.3297
 5653SOL     OW17247   1.514   5.167   0.683  0.1535  0.1135 -0.0481
 5653SOL    HW117248   1.594   5.212   0.643  0.3364 -0.5251 -0.4097
 5653SOL    HW217249   1.494   5.083   0.633  0.0468 -0.4136  0.8624
 5654SOL     OW17250   3.490   4.937   3.181  0.5910  0.3042  0.3789
 5654SOL    HW117251   3.535   4.851   3.154  0.1456 -0.0063  0.6255
 5654SOL    HW217252   3.550   5.014   3.157  1.3092 -0.1071  0.7971
 5655SOL     OW17253   2.315   4.877   2.064  0.4237 -0.1053  0.0238
 5655SOL    HW117254   2.400   4.930   2.067  0.9969 -0.9885 -0.2696
 5655SOL    HW217255   2.289   4.852   2.158  2.2720 -2.5662 -0.0298
 5656SOL     OW17256   2.730   3.090   2.610 -0.0232 -0.5341 -0.1042
 5656SOL    HW117257   2.660   3.051   2.669 -0.9437 -1.3126 -1.6405
 5656SOL    HW217258   2.693   3.170   2.563  0.2790 -0.6693 -0.5763
 5657SOL     OW17259   4.709   1.502   1.886  0.6076 -1.0033 -0.1274
 5657SOL    HW117260   4.769   1.537   1.958 -0.5655  1.3861 -0.2089
 5657SOL    HW217261   4.744   1.527   1.797  0.6551 -1.6015 -0.2823
 5658SOL     OW17262   3.717   3.647   5.952 -0.4191 -0.2210  0.1189
 5658SOL    HW117263   3.814   3.671   5.957 -0.0329 -1.3751 -1.1767
 5658SOL    HW217264   3.708   3.553   5.919 -1.9840  0.1879 -0.7068
 5659SOL     OW17265   1.594   5.736   4.723  0.0206  0.4272 -0.8069
 5659SOL    HW117266   1.619   5.768   4.815 -1.0622  0.3192 -0.4634
 5659SOL    HW217267   1.641   5.792   4.655  1.1829  0.2255 -0.1925
 5660SOL     OW17268   5.880   3.746   1.725  0.5219  0.1474 -0.0627
 5660SOL    HW117269   5.833   3.824   1.767 -2.5592 -0.9224 -1.2186
 5660SOL    HW217270   5.881   3.670   1.790  0.3552  0.0733 -0.1463
 5661SOL     OW17271   2.392   5.938   5.887 -0.0966  0.0491 -0.1603
 5661SOL    HW117272   2.489   5.922   5.873 -0.1669 -2.1636  1.3215
 5661SOL    HW217273   2.378   5.990   5.972 -0.2324 -0.5430  0.1841
 5662SOL     OW17274   2.385   1.056   4.823 -0.0632  0.2405  0.3033
 5662SOL    HW117275   2.472   1.051   4.872  0.0000  0.6739  0.2424
 5662SOL    HW217276   2.365   0.967   4.782  0.1338  0.0174  0.6839
 5663SOL     OW17277   5.774   5.136   4.325  0.2974  0.4802 -0.1763
 5663SOL    HW117278   5.743   5.111   4.233  1.0655  0.3758 -0.4134
 5663SOL    HW217279   5.714   5.208   4.362 -0.1119  0.4101 -0.6879
 5664SOL     OW17280   5.658   0.125   4.094 -0.1939  0.0719 -0.1690
 5664SOL    HW117281   5.712   0.136   4.011  1.0034 -1.1088  0.4241
 5664SOL    HW217282   5.672   0.205   4.154  0.1914  0.1911 -0.4146
 5665SOL     OW17283   3.768   5.014   0.555 -0.1309  0.2484  0.1629
 5665SOL    HW117284   3.734   4.921   0.554  0.0644  0.1752  0.2361
 5665SOL    HW217285   3.701   5.075   0.512 -0.4308  0.1364  0.4728
 5666SOL     OW17286   5.610   2.100   2.215 -0.3429 -0.2168 -0.5190
 5666SOL    HW117287   5.530   2.060   2.259 -0.0149  0.4517  0.7355
 5666SOL    HW217288   5.673   2.135   2.285 -1.0238  3.3264 -1.4801
 5667SOL     OW17289   5.183   3.238   4.791 -0.0476  0.2716  0.5609
 5667SOL    HW117290   5.126   3.162   4.823 -0.5419  0.7714  0.8709
 5667SOL    HW217291   5.205   3.225   4.694 -0.7592  0.1195  0.4174
 5668SOL     OW17292   5.696   5.163   2.816  0.9495  0.5966 -0.1103
 5668SOL    HW117293   5.701   5.256   2.851  0.6874  0.6660 -0.2565
 5668SOL    HW217294   5.720   5.098   2.888 -1.0028  0.6440  0.6181
 5669SOL     OW17295   2.387   3.268   1.378  0.0546  0.0014 -0.3995
 5669SOL    HW117296   2.380   3.170   1.362  2.2786 -0.2382 -0.1362
 5669SOL    HW217297   2.436   3.285   1.463  0.7854  1.3353 -1.0430
 5670SOL     OW17298   3.467   4.572   0.749 -0.0349 -0.0419  0.4725
 5670SOL    HW117299   3.422   4.519   0.677  1.3038  1.3972 -1.5304
 5670SOL    HW217300   3.434   4.666   0.746  1.0847  0.3750  0.7867
 5671SOL     OW17301   3.245   1.847   3.365 -0.0369  0.0117 -0.4990
 5671SOL    HW117302   3.335   1.887   3.378  0.2734 -1.1076  0.9855
 5671SOL    HW217303   3.245   1.793   3.281  1.2553 -1.4346  0.3794
 5672SOL     OW17304   2.589   1.881   4.696 -0.1275  0.1313 -0.3457
 5672SOL    HW117305   2.598   1.979   4.711 -0.7494  0.3194 -1.0941
 5672SOL    HW217306   2.498   1.851   4.724 -0.9956  0.3317 -2.6812
 5673SOL     OW17307   1.007   0.692   3.768  0.1347 -0.1497  0.5534
 5673SOL    HW117308   1.020   0.599   3.732  1.3531  0.3550 -0.3799
 5673SOL    HW217309   0.958   0.747   3.700 -0.2419  0.0006  0.9436
 5674SOL     OW17310   1.316   2.414   3.353 -0.0027 -0.1355 -0.1801
 5674SOL    HW117311   1.274   2.410   3.444 -0.9706  1.5979 -0.5101
 5674SOL    HW217312   1.392   2.480   3.354 -0.6109  0.5880 -0.8406
 5675SOL     OW17313   0.834   3.436   3.090 -0.2800  0.2306 -0.2340
 5675SOL    HW117314   0.797   3.528   3.084 -0.8823  0.0509  0.5177
 5675SOL    HW217315   0.797   3.390   3.172 -0.9749 -1.1215 -1.2659
 5676SOL     OW17316   1.872   0.760   1.846  0.6235  0.3789 -0.3184
 5676SOL    HW117317   1.957   0.744   1.796  1.8186 -1.4437  2.0891
 5676SOL    HW217318   1.796   0.718   1.797  1.7055 -1.2245 -0.6986
 5677SOL     OW17319   4.867   2.194   1.093  0.2213  0.4122 -0.2207
 5677SOL    HW117320   4.927   2.206   1.172 -0.4245 -0.6763  0.4614
 5677SOL    HW217321   4.922   2.173   1.013  0.7287 -2.5522  0.7889
 5678SOL     OW17322   0.175   3.653   1.629  0.3730 -0.0904 -0.1848
 5678SOL    HW117323   0.082   3.681   1.652  1.3333  1.2566  2.5033
 5678SOL    HW217324   0.226   3.731   1.595  0.6308 -0.7460 -1.3347
 5679SOL     OW17325   0.934   4.422   3.061  0.4480  0.0760 -0.3167
 5679SOL    HW117326   0.923   4.520   3.049 -0.8358 -0.2664 -2.3827
 5679SOL    HW217327   1.009   4.389   3.003 -0.3530 -0.4272 -1.0767
 5680SOL     OW17328   4.612   5.845   0.412  0.4938  0.1264 -0.1055
 5680SOL    HW117329   4.556   5.914   0.366 -1.1844 -1.8263 -1.1362
 5680SOL    HW217330   4.620   5.868   0.509 -1.4136  0.9285 -0.0966
 5681SOL     OW17331   5.064   1.617   1.257 -0.6984  0.2082 -0.2882
 5681SOL    HW117332   5.013   1.668   1.327 -2.1638 -2.3939  0.6826
 5681SOL    HW217333   5.000   1.576   1.193  0.4679  0.0879 -1.4051
 5682SOL     OW17334   0.199   3.490   3.489  0.4495  0.2278 -0.2187
 5682SOL    HW117335   0.188   3.489   3.588  4.0050  0.7857  0.3240
 5682SOL    HW217336   0.231   3.580   3.459 -1.4071  0.3602 -2.0667
 5683SOL     OW17337   5.849   3.665   3.498 -0.0544  0.0283  0.3793
 5683SOL    HW117338   5.790   3.611   3.557  2.3092 -2.4470  0.6715
 5683SOL    HW217339   5.893   3.737   3.552 -0.1064 -0.3679  0.9584
 5684SOL     OW17340   3.534   5.331   1.691 -0.3935 -0.2558  0.1850
 5684SOL    HW117341   3.581   5.337   1.604  0.0868 -0.5235  0.4259
 5684SOL    HW217342   3.456   5.269   1.683  0.3616 -1.2338  0.2617
 5685SOL     OW17343   1.436   1.453   0.463 -0.7701  0.1147  0.1538
 5685SOL    HW117344   1.374   1.458   0.385  0.5718  0.4916 -0.9197
 5685SOL    HW217345   1.504   1.381   0.448 -0.2603  0.4542  0.7825
 5686SOL     OW17346   0.273   5.439   4.894  0.0292  0.2000 -0.2654
 5686SOL    HW117347   0.240   5.390   4.813 -0.5561 -1.1081  0.7225
 5686SOL    HW217348   0.373   5.440   4.893  0.0325  0.0608 -0.9273
 5687SOL     OW17349   1.398   5.231   1.120  0.2467 -0.2891 -0.2431
 5687SOL    HW117350   1.344   5.200   1.198  1.2759 -2.3598 -0.2865
 5687SOL    HW217351   1.457   5.307   1.149 -1.6434  1.1019  0.1326
 5688SOL     OW17352   4.667   2.546   3.599  0.6008 -0.0542  0.5341
 5688SOL    HW117353   4.614   2.466   3.570  0.6983 -0.0939  0.4634
 5688SOL    HW217354   4.618   2.630   3.576  1.4711 -0.0234 -1.3780
 5689SOL     OW17355   4.394   4.328   0.372  0.6842  0.7447  0.6834
 5689SOL    HW117356   4.398   4.278   0.286  2.4676  0.2819  0.9987
 5689SOL    HW217357   4.486   4.352   0.401 -0.0225  3.2797  1.1210
 5690SOL     OW17358   2.961   5.299   3.729 -0.2500  0.2558 -0.0683
 5690SOL    HW117359   3.056   5.319   3.751 -1.0340  0.8356  3.1949
 5690SOL    HW217360   2.921   5.375   3.677  0.3748  1.1968  0.8047
 5691SOL     OW17361   1.206   2.362   1.846 -0.1335  0.2927 -0.4571
 5691SOL    HW117362   1.261   2.443   1.825  1.1522  0.3239  2.4408
 5691SOL    HW217363   1.130   2.387   1.906 -0.7007 -0.4184 -0.8572
 5692SOL     OW17364   2.197   4.026   1.338  0.0223  0.2767  0.0699
 5692SOL    HW117365   2.204   3.990   1.431  0.2232  2.8478  1.1452
 5692SOL    HW217366   2.166   4.121   1.341  2.2412  1.2144 -2.3217
 5693SOL     OW17367   5.435   2.824   1.329  0.2029  0.8533 -0.0306
 5693SOL    HW117368   5.482   2.901   1.373 -0.1220  1.4587 -0.7194
 5693SOL    HW217369   5.358   2.796   1.386  1.1964  0.0438  0.9646
 5694SOL     OW17370   3.015   5.655   4.257 -0.2859 -0.2172 -0.5123
 5694SOL    HW117371   2.948   5.602   4.310  0.0381  0.1093  0.2332
 5694SOL    HW217372   3.052   5.728   4.314  2.2555 -1.6310 -0.2123
 5695SOL     OW17373   0.749   1.843   2.658 -0.2053 -0.5319  0.3288
 5695SOL    HW117374   0.703   1.787   2.727 -1.2296  0.4600  0.4756
 5695SOL    HW217375   0.848   1.832   2.667 -0.3696 -1.7317  0.8329
 5696SOL     OW17376   0.758   2.941   5.533  0.5928 -0.8407 -0.3329
 5696SOL    HW117377   0.718   2.903   5.616  2.2550 -1.1843  0.3363
 5696SOL    HW217378   0.731   2.884   5.455 -0.8200 -0.6255 -0.0224
 5697SOL     OW17379   4.185   1.639   4.789  0.4591 -0.1113  0.0624
 5697SOL    HW117380   4.157   1.707   4.722  0.5696 -0.2679 -0.1472
 5697SOL    HW217381   4.140   1.552   4.769 -0.9285  0.2989  1.2879
 5698SOL     OW17382   2.391   2.398   0.157  0.3268  0.1658 -0.0880
 5698SOL    HW117383   2.349   2.311   0.130  1.2933 -0.0390 -0.9924
 5698SOL    HW217384   2.386   2.462   0.081 -0.2052  0.8576  0.5114
 5699SOL     OW17385   0.770   5.072   4.031  0.5324  0.5162  0.5630
 5699SOL    HW117386   0.850   5.086   3.973 -0.3408  1.6650 -0.4312
 5699SOL    HW217387   0.796   5.080   4.127  1.5505  1.2275  0.2455
 5700SOL     OW17388   2.335   0.398   2.250 -0.2439  0.0880 -0.3149
 5700SOL    HW117389   2.319   0.453   2.168  0.5336  1.4390  0.4130
 5700SOL    HW217390   2.263   0.415   2.317 -0.3373 -0.2568 -0.3249
 5701SOL     OW17391   2.175   5.685   2.231  0.4035 -0.2681 -0.0074
 5701SOL    HW117392   2.110   5.742   2.182  1.5821  1.3960  0.2723
 5701SOL    HW217393   2.160   5.694   2.329  0.5769 -0.4489  0.0356
 5702SOL     OW17394   5.881   0.039   5.002  0.2392 -0.0905  0.1308
 5702SOL    HW117395   5.939   0.011   5.078 -0.6762 -1.6266  0.2996
 5702SOL    HW217396   5.936   0.089   4.934  1.8576 -1.8830  0.0601
 5703SOL     OW17397   3.909   2.333   5.583  0.7867 -0.1231 -0.1849
 5703SOL    HW117398   3.961   2.380   5.654 -1.4555 -2.0570  3.0146
 5703SOL    HW217399   3.963   2.256   5.547  1.1024 -0.6179  1.2833
 5704SOL     OW17400   1.550   5.642   0.049  0.4002  0.5647  0.2134
 5704SOL    HW117401   1.566   5.544   0.058  0.3596  0.4924 -0.4189
 5704SOL    HW217402   1.581   5.673  -0.041  2.1969  1.5151  1.1106
 5705SOL     OW17403   4.730   5.334   5.620  0.3392  0.3123  0.0174
 5705SOL    HW117404   4.648   5.381   5.589  0.7521  1.1886  0.1942
 5705SOL    HW217405   4.717   5.235   5.616 -1.8650  0.3408  2.9087
 5706SOL     OW17406   4.001   0.698   5.007 -0.0852  0.5949 -0.1120
 5706SOL    HW117407   4.051   0.724   4.924 -1.2393 -0.5181 -1.1992
 5706SOL    HW217408   3.903   0.713   4.993 -0.3519 -0.1413  0.8467
 5707SOL     OW17409   5.929   4.987   1.526  0.0841  0.5245 -0.5076
 5707SOL    HW117410   6.012   4.963   1.475 -0.7839  1.8152 -2.6837
 5707SOL    HW217411   5.906   5.083   1.507 -1.5125  0.3944  0.6275
 5708SOL     OW17412   3.889   3.227   2.720  0.0582  0.2133 -0.7029
 5708SOL    HW117413   3.933   3.137   2.724 -0.6608 -0.2373 -2.2327
 5708SOL    HW217414   3.804   3.220   2.669 -0.6437  1.5429  0.2157
 5709SOL     OW17415   2.522   3.634   2.316 -0.2816  0.2173  0.2739
 5709SOL    HW117416   2.608   3.671   2.281 -2.0268  3.1384 -1.3166
 5709SOL    HW217417   2.523   3.638   2.416  0.3291  3.2051  0.2539
 5710SOL     OW17418   1.644   2.297   0.932  0.0736  0.7758  0.3646
 5710SOL    HW117419   1.690   2.208   0.923 -0.7602  0.4454 -0.9813
 5710SOL    HW217420   1.708   2.364   0.969  1.2759  0.0461 -0.3039
 5711SOL     OW17421   5.312   0.730   2.691 -0.2538  0.0835  0.9100
 5711SOL    HW117422   5.269   0.745   2.780  0.6854  0.7740  1.2638
 5711SOL    HW217423   5.298   0.812   2.634 -1.7576 -0.7527  0.0214
 5712SOL     OW17424   1.512   0.147   3.501  0.1402 -0.7966 -0.7541
 5712SOL    HW117425   1.435   0.084   3.514  0.4766 -0.8001  1.5054
 5712SOL    HW217426   1.587   0.121   3.562  1.0170  0.6835 -1.1555
 5713SOL     OW17427   1.992   5.097   0.629  0.3033  0.0927  0.3528
 5713SOL    HW117428   2.073   5.154   0.640 -0.4996  1.1216  1.2185
 5713SOL    HW217429   1.965   5.059   0.717 -1.9180  2.3356  0.7657
 5714SOL     OW17430   0.432   0.229   3.046 -0.4627  0.2786  0.2962
 5714SOL    HW117431   0.495   0.188   3.112 -1.6194 -1.9930  0.0880
 5714SOL    HW217432   0.482   0.292   2.986  0.9575  0.9541  2.0954
 5715SOL     OW17433   5.687   5.789   4.878 -0.0938  0.6233  0.4716
 5715SOL    HW117434   5.696   5.752   4.786 -0.2785  0.0247  0.6919
 5715SOL    HW217435   5.752   5.864   4.890  1.3019 -0.5469  0.4890
 5716SOL     OW17436   3.332   0.623   0.780 -0.2288  0.4793  0.1105
 5716SOL    HW117437   3.297   0.583   0.696 -0.6536 -1.6696  1.2355
 5716SOL    HW217438   3.415   0.574   0.809 -0.1231  1.1418  0.9873
 5717SOL     OW17439   0.656   1.935   0.301 -0.7331  0.2814  0.2942
 5717SOL    HW117440   0.612   2.022   0.280 -2.1470 -0.4673 -0.0053
 5717SOL    HW217441   0.752   1.939   0.276 -0.6930  1.8673  0.6275
 5718SOL     OW17442   0.284   0.784   2.686  0.3498 -0.0784  0.4083
 5718SOL    HW117443   0.310   0.797   2.781 -3.2482 -2.2271  1.9034
 5718SOL    HW217444   0.317   0.695   2.654  0.1153 -0.1054  0.2345
 5719SOL     OW17445   1.154   5.703   4.543  0.2975 -0.1329  0.4095
 5719SOL    HW117446   1.121   5.687   4.450 -0.3628 -0.3596  0.6796
 5719SOL    HW217447   1.208   5.788   4.545  0.2151 -0.0641 -0.1519
 5720SOL     OW17448   0.975   5.938   5.181 -0.7025  1.0800  0.2457
 5720SOL    HW117449   1.021   5.884   5.111 -2.5335  1.0235 -0.9802
 5720SOL    HW217450   0.878   5.914   5.183 -1.2876  3.2622  0.6970
 5721SOL     OW17451   2.568   2.262   4.058  0.3319  0.0523 -0.2343
 5721SOL    HW117452   2.624   2.194   4.012 -0.0497 -0.7632  0.4772
 5721SOL    HW217453   2.526   2.222   4.140 -0.4496  0.9413 -0.1742
 5722SOL     OW17454   4.038   3.311   0.183  0.1848 -0.1817 -0.3551
 5722SOL    HW117455   4.039   3.233   0.247  1.3995  1.6272  2.0178
 5722SOL    HW217456   3.963   3.373   0.207  0.8173  0.6581 -0.4820
 5723SOL     OW17457   0.897   2.699   1.966 -0.2250 -0.7056 -0.2989
 5723SOL    HW117458   0.855   2.715   1.877 -0.3680  1.0796  0.0477
 5723SOL    HW217459   0.862   2.765   2.032  0.3675 -1.5686  0.9354
 5724SOL     OW17460   5.027   4.913   2.194 -0.1031  0.4494 -0.4877
 5724SOL    HW117461   4.983   4.881   2.278  0.7261  1.0067  0.1785
 5724SOL    HW217462   5.053   5.009   2.205  1.5400  0.0517 -0.7370
 5725SOL     OW17463   0.171   0.225   2.220  0.2654 -0.0325 -0.2593
 5725SOL    HW117464   0.096   0.224   2.154 -1.3565 -0.0324  1.4712
 5725SOL    HW217465   0.178   0.316   2.261 -0.1300 -0.5423  0.9972
 5726SOL     OW17466   1.757   2.378   3.540 -0.5362  0.3370  0.0602
 5726SOL    HW117467   1.683   2.425   3.588 -0.4577  0.6405 -0.1123
 5726SOL    HW217468   1.834   2.441   3.528  0.0478 -0.2066  0.9129
 5727SOL     OW17469   1.599   2.420   5.850 -0.1761 -0.3028  0.3884
 5727SOL    HW117470   1.501   2.422   5.830 -0.3843  0.5965  1.4172
 5727SOL    HW217471   1.649   2.454   5.771 -0.6126 -1.5705 -0.4731
 5728SOL     OW17472   1.700   0.891   5.043 -0.1459 -0.1857  0.3607
 5728SOL    HW117473   1.726   0.880   5.139 -0.3436  1.1683  0.5844
 5728SOL    HW217474   1.757   0.831   4.987  0.0088 -0.9553  1.3063
 5729SOL     OW17475   2.165   1.223   5.376 -0.2922 -0.2126  0.0519
 5729SOL    HW117476   2.086   1.205   5.317 -0.2054 -1.8698  0.3953
 5729SOL    HW217477   2.248   1.225   5.321 -0.4572  0.4989 -0.1743
 5730SOL     OW17478   0.422   2.790   2.573  0.6112 -0.5547 -0.2557
 5730SOL    HW117479   0.388   2.874   2.531  0.7141  0.0775  0.8884
 5730SOL    HW217480   0.344   2.734   2.602  0.4982  0.3462  1.2914
 5731SOL     OW17481   3.402   4.592   3.324  0.5178  0.1474 -0.4668
 5731SOL    HW117482   3.314   4.606   3.277 -0.6148  0.5739  1.6651
 5731SOL    HW217483   3.444   4.680   3.343 -1.0444  0.3125  2.8274
 5732SOL     OW17484   2.788   3.775   1.826 -0.5381 -0.0666 -0.2503
 5732SOL    HW117485   2.730   3.793   1.746  0.9172  0.5852 -1.1981
 5732SOL    HW217486   2.840   3.857   1.848  1.3500 -1.1356 -0.5523
 5733SOL     OW17487   3.235   3.835   0.549  0.1777  0.3543 -0.1895
 5733SOL    HW117488   3.205   3.828   0.454 -2.9152 -1.3319  0.7916
 5733SOL    HW217489   3.304   3.766   0.567 -0.8186 -0.8140 -0.7109
 5734SOL     OW17490   2.563   0.469   5.399  0.6943  0.3765  0.4449
 5734SOL    HW117491   2.542   0.387   5.452  0.5532  0.6951  0.8872
 5734SOL    HW217492   2.506   0.471   5.317  0.5756  0.1219  0.5202
 5735SOL     OW17493   4.527   5.005   3.731 -0.4464 -0.0210  0.4883
 5735SOL    HW117494   4.562   5.098   3.736 -1.0585  0.1659  2.3552
 5735SOL    HW217495   4.577   4.946   3.795 -1.2546 -0.5337  0.6764
 5736SOL     OW17496   5.475   1.650   1.986  0.2155  0.6126  0.1533
 5736SOL    HW117497   5.469   1.672   2.084  0.4332 -1.5470  0.7083
 5736SOL    HW217498   5.501   1.554   1.976  1.6771  1.1771 -2.0510
 5737SOL     OW17499   2.430   2.943   2.352 -0.2482 -0.0001 -0.1532
 5737SOL    HW117500   2.380   2.940   2.438 -0.2613  1.4039 -0.0871
 5737SOL    HW217501   2.527   2.956   2.369 -0.1949 -0.1320 -0.3468
 5738SOL     OW17502   1.254   3.125   4.403  0.4291  0.0180  0.9127
 5738SOL    HW117503   1.266   3.126   4.502 -0.1650 -0.5660  0.9914
 5738SOL    HW217504   1.200   3.204   4.375  1.1120  0.5230  0.9765
 5739SOL     OW17505   2.174   1.797   5.740 -0.2075 -0.0585 -0.1162
 5739SOL    HW117506   2.262   1.774   5.696 -0.3360  1.0557 -1.0138
 5739SOL    HW217507   2.108   1.823   5.669 -1.2723 -0.8552  0.5571
 5740SOL     OW17508   4.888   1.821   2.217  0.2366  0.5436 -0.2588
 5740SOL    HW117509   4.893   1.920   2.210  2.4587  0.3900 -2.7652
 5740SOL    HW217510   4.961   1.787   2.276  1.4821  0.3475 -1.8179
 5741SOL     OW17511   5.112   0.411   3.322 -0.3299  0.1262  0.0029
 5741SOL    HW117512   5.137   0.458   3.407  0.1007 -2.5099  1.4665
 5741SOL    HW217513   5.181   0.428   3.252 -0.7639  2.4631  0.0775
 5742SOL     OW17514   3.632   3.642   1.941  0.1497  0.1646  0.4365
 5742SOL    HW117515   3.683   3.664   2.024  1.0431  0.4562 -0.1729
 5742SOL    HW217516   3.676   3.564   1.894 -0.8298 -0.5425  0.6567
 5743SOL     OW17517   1.656   5.876   2.677  0.2675 -0.1061 -0.1515
 5743SOL    HW117518   1.557   5.859   2.675  0.2711 -0.2394  0.6839
 5743SOL    HW217519   1.678   5.952   2.615 -0.4620  0.4605  0.2765
 5744SOL     OW17520   4.111   0.640   1.068  0.4938 -0.2061 -0.1076
 5744SOL    HW117521   4.061   0.674   1.147 -0.2429  1.9108 -1.4090
 5744SOL    HW217522   4.048   0.600   1.002  1.1725 -2.6180  0.5967
 5745SOL     OW17523   3.662   0.859   2.569 -0.1816 -0.6524  0.1318
 5745SOL    HW117524   3.651   0.922   2.492 -1.3205 -1.7602 -0.6540
 5745SOL    HW217525   3.756   0.864   2.603 -0.4042  1.9364  0.5613
 5746SOL     OW17526   4.966   3.344   2.842 -0.1080 -0.2512  0.1196
 5746SOL    HW117527   4.956   3.294   2.755 -1.9471  0.1426  0.0561
 5746SOL    HW217528   4.916   3.295   2.914 -1.2390  1.0043  0.2350
 5747SOL     OW17529   0.195   1.500   5.101 -0.6347  0.7391  0.3071
 5747SOL    HW117530   0.142   1.546   5.029 -2.1910  0.5128  1.2725
 5747SOL    HW217531   0.192   1.401   5.086  0.5107  0.7735 -0.2761
 5748SOL     OW17532   1.517   1.054   1.996 -0.3384 -0.1270 -0.5573
 5748SOL    HW117533   1.485   0.962   2.020 -0.2991 -0.2114 -0.8230
 5748SOL    HW217534   1.610   1.048   1.961 -0.6432 -0.0985 -1.3968
 5749SOL     OW17535   1.742   0.353   5.250  0.6144  0.6438  0.0242
 5749SOL    HW117536   1.738   0.269   5.305  0.4848 -0.2387 -1.2917
 5749SOL    HW217537   1.728   0.432   5.310 -0.2277 -0.3171  1.1541
 5750SOL     OW17538   1.547   5.706   0.317 -0.3567  0.2433  0.0607
 5750SOL    HW117539   1.481   5.652   0.368  0.7160 -0.3691  0.8546
 5750SOL    HW217540   1.548   5.678   0.222 -1.3697  0.4081 -0.0106
 5751SOL     OW17541   5.678   1.564   5.812  0.3917  0.6161 -0.1733
 5751SOL    HW117542   5.598   1.553   5.872  0.0569  2.0636 -0.3099
 5751SOL    HW217543   5.761   1.542   5.863  0.0132  0.4980  0.4053
 5752SOL     OW17544   5.225   0.739   4.650 -0.4287  0.1386 -0.3220
 5752SOL    HW117545   5.251   0.675   4.577  1.0012  0.3771 -0.0661
 5752SOL    HW217546   5.139   0.710   4.691  0.4244 -1.9452  0.1317
 5753SOL     OW17547   2.078   5.214   4.360  0.1272  0.1754 -0.2460
 5753SOL    HW117548   2.025   5.265   4.428  0.5810  1.9491 -1.1843
 5753SOL    HW217549   2.174   5.241   4.365  0.4604 -0.9177 -0.4860
 5754SOL     OW17550   0.116   0.644   2.490 -0.5870  0.3549 -0.2080
 5754SOL    HW117551   0.153   0.593   2.412 -0.4637  0.0034  0.0765
 5754SOL    HW217552   0.147   0.601   2.575 -0.7961  0.6819  0.0338
 5755SOL     OW17553   0.563   3.856   5.559  0.1499  0.3216 -0.1479
 5755SOL    HW117554   0.539   3.777   5.616  0.8970  0.9257  1.0335
 5755SOL    HW217555   0.663   3.867   5.557  0.1684  0.1314 -1.8483
 5756SOL     OW17556   3.456   5.252   2.259  0.2067 -0.3180 -0.2199
 5756SOL    HW117557   3.412   5.180   2.205  1.7407 -1.6299  0.1704
 5756SOL    HW217558   3.415   5.255   2.350  1.4801 -2.2187  0.4800
 5757SOL     OW17559   5.011   2.327   2.527  0.3591  0.1433  0.8047
 5757SOL    HW117560   4.953   2.247   2.517  1.6004 -0.8596  1.3904
 5757SOL    HW217561   4.980   2.381   2.606 -0.1093 -0.0741  0.7744
 5758SOL     OW17562   2.723   2.104   3.908  0.1146 -0.0615 -0.3763
 5758SOL    HW117563   2.662   2.041   3.861  1.1378 -0.7912 -0.7615
 5758SOL    HW217564   2.818   2.086   3.881  0.6104  0.3487  0.9879
 5759SOL     OW17565   2.031   0.227   3.035 -0.2162  0.6692  0.4126
 5759SOL    HW117566   2.076   0.293   2.974 -0.3194  0.7284  0.4009
 5759SOL    HW217567   2.007   0.145   2.983 -0.8951  0.9838  0.2252
 5760SOL     OW17568   1.362   4.492   1.448 -0.2145 -0.6360 -0.5366
 5760SOL    HW117569   1.359   4.398   1.482  0.8167 -0.8845 -1.1122
 5760SOL    HW217570   1.302   4.500   1.368 -1.1743 -0.5146  0.1786
 5761SOL     OW17571   3.780   4.380   3.887  0.1418  0.0681  0.5896
 5761SOL    HW117572   3.740   4.291   3.909  0.5806  0.0232  1.2412
 5761SOL    HW217573   3.714   4.435   3.835 -0.0474 -0.7148 -0.0071
 5762SOL     OW17574   4.932   1.554   0.242  0.2330 -0.3153 -0.4914
 5762SOL    HW117575   4.916   1.523   0.335  2.0627  0.6509  0.1927
 5762SOL    HW217576   4.982   1.485   0.191 -0.4092 -0.6715 -0.6547
 5763SOL     OW17577   5.459   2.408   3.297  0.1337 -0.5601 -0.0898
 5763SOL    HW117578   5.378   2.456   3.332 -0.5659 -0.0716 -2.2395
 5763SOL    HW217579   5.476   2.327   3.353 -0.4680  0.5257  1.7778
 5764SOL     OW17580   1.229   0.462   3.649  0.0201 -0.0477  0.1124
 5764SOL    HW117581   1.276   0.481   3.735  0.7081  1.5824 -0.5797
 5764SOL    HW217582   1.296   0.439   3.579 -0.2195  1.6785 -0.7297
 5765SOL     OW17583   4.814   2.568   4.689  0.5997 -0.0959  0.5756
 5765SOL    HW117584   4.765   2.615   4.615  0.5017 -1.0199  0.0364
 5765SOL    HW217585   4.863   2.636   4.744  1.3797  0.5699 -0.8477
 5766SOL     OW17586   0.904   5.687   5.619 -0.3136  0.2284 -0.1543
 5766SOL    HW117587   0.945   5.777   5.610  0.8675 -0.3596 -0.9068
 5766SOL    HW217588   0.925   5.648   5.709  0.6042  0.0247 -0.4512
 5767SOL     OW17589   3.643   5.316   1.190 -0.4735 -0.1549 -0.5390
 5767SOL    HW117590   3.639   5.372   1.107 -0.6891  1.5763  0.5687
 5767SOL    HW217591   3.551   5.289   1.217 -0.3964 -0.7929 -0.8944
 5768SOL     OW17592   2.747   3.194   5.565 -0.1992 -0.2295  0.3372
 5768SOL    HW117593   2.653   3.213   5.534  0.3137  0.6218 -0.7741
 5768SOL    HW217594   2.787   3.278   5.601  0.6337 -0.2138 -0.5938
 5769SOL     OW17595   1.316   3.554   2.328  0.5083 -0.0087 -0.0091
 5769SOL    HW117596   1.306   3.490   2.404 -0.5841  0.3274  0.1585
 5769SOL    HW217597   1.307   3.505   2.241  1.3913 -0.3368  0.0767
 5770SOL     OW17598   3.338   2.507   1.848 -0.0178 -0.0161  0.3966
 5770SOL    HW117599   3.404   2.544   1.913 -0.2257  0.2991  0.4286
 5770SOL    HW217600   3.371   2.523   1.755 -0.0795  0.1947  0.4115
 5771SOL     OW17601   0.463   5.220   3.418  0.6861 -0.0253 -0.4663
 5771SOL    HW117602   0.427   5.310   3.443  1.2903  0.1723 -0.3007
 5771SOL    HW217603   0.411   5.149   3.466  1.7664  0.3352  1.3316
 5772SOL     OW17604   5.426   4.480   1.498  0.1162 -0.0544  0.2148
 5772SOL    HW117605   5.398   4.386   1.480 -0.7463  0.1932  0.2020
 5772SOL    HW217606   5.469   4.518   1.416 -1.1793  0.1356 -0.4102
 5773SOL     OW17607   3.513   3.666   0.893 -0.0487  0.4566 -0.2990
 5773SOL    HW117608   3.570   3.673   0.974  0.5182  1.1961 -0.7438
 5773SOL    HW217609   3.425   3.710   0.910 -0.1181  0.1649  0.0810
 5774SOL     OW17610   1.252   0.463   2.082  0.1884  0.2497  0.5527
 5774SOL    HW117611   1.254   0.516   2.167 -2.8925 -1.3300  1.7504
 5774SOL    HW217612   1.256   0.526   2.004  0.0961  1.9526  1.8686
 5775SOL     OW17613   1.923   2.954   0.960 -0.0792 -0.6403 -0.2505
 5775SOL    HW117614   1.906   3.052   0.950 -0.2237 -0.8797 -2.8971
 5775SOL    HW217615   2.021   2.938   0.966 -0.0692 -0.3271  0.5548
 5776SOL     OW17616   5.371   2.819   1.782  0.3140 -0.7707 -0.7688
 5776SOL    HW117617   5.316   2.880   1.725  0.5748  0.5644  0.3704
 5776SOL    HW217618   5.426   2.872   1.846  2.0157 -2.1185 -1.0117
 5777SOL     OW17619   2.994   0.978   2.327 -0.7437 -0.2801 -0.4136
 5777SOL    HW117620   2.931   0.918   2.278  2.1336 -3.4447 -0.5644
 5777SOL    HW217621   3.071   1.001   2.269 -0.0142  0.5551  0.8323
 5778SOL     OW17622   1.873   1.287   2.259 -0.0281  1.0706 -0.2075
 5778SOL    HW117623   1.789   1.244   2.225  0.1583  0.3406  0.2269
 5778SOL    HW217624   1.947   1.220   2.258  0.6009  1.7678 -0.7615
 5779SOL     OW17625   3.486   0.835   3.902 -0.1851 -0.4233 -0.0756
 5779SOL    HW117626   3.492   0.856   3.804 -0.5184  0.5463  0.0964
 5779SOL    HW217627   3.397   0.865   3.937  0.2085 -0.0870  0.6728
 5780SOL     OW17628   0.381   5.279   5.450 -0.4746  0.0505  0.3092
 5780SOL    HW117629   0.372   5.295   5.548 -0.8200 -1.4596  0.5547
 5780SOL    HW217630   0.404   5.365   5.404  2.0555  0.3916  1.9809
 5781SOL     OW17631   0.650   0.177   1.978 -0.1977  0.1918  0.0121
 5781SOL    HW117632   0.695   0.138   2.058 -1.4817 -0.6442  0.3520
 5781SOL    HW217633   0.550   0.171   1.988 -0.4259 -1.3054 -2.2912
 5782SOL     OW17634   5.612   2.994   1.453  0.5275 -0.1599  0.0424
 5782SOL    HW117635   5.708   2.989   1.424  0.7235  1.2610  0.4189
 5782SOL    HW217636   5.574   3.083   1.428 -0.4143 -0.3461  0.7762
 5783SOL     OW17637   3.011   3.132   4.167 -0.0766 -0.0029  0.3871
 5783SOL    HW117638   2.998   3.035   4.190  1.6595 -0.2638  0.4066
 5783SOL    HW217639   2.949   3.158   4.093 -3.4863 -0.0214  2.9948
 5784SOL     OW17640   0.579   4.746   0.929 -0.2953 -0.3811 -0.0491
 5784SOL    HW117641   0.572   4.750   0.829  0.7931  1.1117 -0.1012
 5784SOL    HW217642   0.607   4.835   0.964  0.0612 -1.0844  1.5392
 5785SOL     OW17643   5.390   4.966   4.298  0.0081  0.1247  0.3753
 5785SOL    HW117644   5.298   4.952   4.261 -0.5472 -2.7917  2.4798
 5785SOL    HW217645   5.458   4.937   4.230 -0.6754  0.6712 -0.5600
 5786SOL     OW17646   2.272   5.201   3.852  0.0851 -0.1760 -0.2923
 5786SOL    HW117647   2.190   5.144   3.850  0.4953 -0.8879  1.2189
 5786SOL    HW217648   2.353   5.142   3.852  0.5556  0.4612 -0.0305
 5787SOL     OW17649   3.643   0.306   0.234 -0.0117 -0.4245  0.6587
 5787SOL    HW117650   3.626   0.393   0.188  0.6798 -0.0944  1.0019
 5787SOL    HW217651   3.703   0.249   0.178  0.7239 -0.0756  1.0729
 5788SOL     OW17652   3.789   5.044   0.864 -0.2272  0.0368 -0.1147
 5788SOL    HW117653   3.797   5.102   0.945  0.5909 -0.4007  0.1243
 5788SOL    HW217654   3.869   5.057   0.805 -0.5272 -0.0968 -0.5609
 5789SOL     OW17655   1.963   3.275   1.589  0.3320  0.6058  0.3714
 5789SOL    HW117656   2.004   3.336   1.521  0.0415 -0.6779 -1.0113
 5789SOL    HW217657   1.874   3.311   1.617 -0.3705  0.2969 -1.3067
 5790SOL     OW17658   5.174   2.291   1.237  0.5036  0.1789  0.2449
 5790SOL    HW117659   5.239   2.342   1.294  0.1368  0.1433  0.6952
 5790SOL    HW217660   5.175   2.195   1.264 -0.6893  0.4029  1.1469
 5791SOL     OW17661   3.049   3.753   5.735  0.0872 -1.2011  0.3734
 5791SOL    HW117662   3.020   3.731   5.642  0.6315 -1.2746  0.2149
 5791SOL    HW217663   3.145   3.781   5.734 -0.5978  1.3524  0.5465
 5792SOL     OW17664   2.471   2.333   5.649  0.3110  0.1216 -0.2091
 5792SOL    HW117665   2.501   2.419   5.607 -0.1255 -0.3557 -1.5503
 5792SOL    HW217666   2.422   2.278   5.582  0.0842 -0.9431  0.7862
 5793SOL     OW17667   5.545   2.024   0.509  0.5770  0.1700  0.5892
 5793SOL    HW117668   5.601   2.002   0.590 -0.0620  1.1917  1.3246
 5793SOL    HW217669   5.455   2.056   0.538  0.3763  0.6625 -0.5302
 5794SOL     OW17670   2.216   1.092   3.050 -0.4487 -0.0094  0.4605
 5794SOL    HW117671   2.301   1.066   3.005 -0.5853  0.9169 -0.3476
 5794SOL    HW217672   2.216   1.057   3.144  1.1668  0.6656  0.7346
 5795SOL     OW17673   1.196   1.414   5.944  0.2060  0.1880 -0.3125
 5795SOL    HW117674   1.139   1.474   5.888 -1.6651 -0.3107  0.9981
 5795SOL    HW217675   1.162   1.320   5.939  0.4017  0.0163  1.1355
 5796SOL     OW17676   4.487   4.981   1.128  0.3087 -0.2646  0.2231
 5796SOL    HW117677   4.473   4.947   1.035  0.2853  0.7522 -0.1517
 5796SOL    HW217678   4.405   5.028   1.159  1.5083  2.6542 -0.6769
 5797SOL     OW17679   1.560   4.081   1.498 -0.9396  0.0604 -0.0637
 5797SOL    HW117680   1.626   4.150   1.525 -1.0329 -0.0297  0.3999
 5797SOL    HW217681   1.582   3.994   1.542 -1.1406 -0.0696 -0.2130
 5798SOL     OW17682   5.984   3.280   5.035  0.6052 -0.0020  0.2958
 5798SOL    HW117683   5.921   3.202   5.045 -0.9702  1.2530  0.4962
 5798SOL    HW217684   5.971   3.343   5.111  1.3312  0.8312 -0.2605
 5799SOL     OW17685   5.709   3.499   1.436 -0.3355  0.4608 -0.2649
 5799SOL    HW117686   5.670   3.551   1.512 -0.6260  0.2867 -0.2952
 5799SOL    HW217687   5.797   3.540   1.410  0.9876 -0.8673  1.7546
 5800SOL     OW17688   2.954   2.009   5.404  0.2529  0.5568  0.1276
 5800SOL    HW117689   3.011   1.930   5.426 -0.2379 -0.1042 -0.9114
 5800SOL    HW217690   2.943   2.066   5.485  0.4151 -0.5672  0.9551
 5801SOL     OW17691   4.961   3.109   5.315  0.1705  0.0493  0.4562
 5801SOL    HW117692   4.890   3.175   5.293 -0.6299 -1.1397 -0.6574
 5801SOL    HW217693   4.935   3.056   5.395 -0.1633 -0.3302  0.0972
 5802SOL     OW17694   1.569   5.178   5.367 -0.1170 -0.0924  0.1030
 5802SOL    HW117695   1.559   5.197   5.269 -1.9796 -3.2497 -0.4664
 5802SOL    HW217696   1.483   5.196   5.414  0.1092 -0.6146  0.7334
 5803SOL     OW17697   0.957   3.684   3.426 -0.0198  0.0368  0.1401
 5803SOL    HW117698   1.037   3.632   3.397  0.9575  0.6240  1.7048
 5803SOL    HW217699   0.925   3.651   3.514  1.1467  2.5129  1.6092
 5804SOL     OW17700   2.939   5.305   5.836  0.0988 -0.0197  0.3259
 5804SOL    HW117701   2.978   5.239   5.771  0.5035  0.8678 -0.3615
 5804SOL    HW217702   3.012   5.343   5.892 -0.3467 -1.3501  1.8772
 5805SOL     OW17703   1.785   0.393   3.185  0.5887 -0.0192  0.0138
 5805SOL    HW117704   1.702   0.376   3.132 -0.3086 -0.2025  1.4127
 5805SOL    HW217705   1.815   0.307   3.228  0.2724  0.4400  1.1990
 5806SOL     OW17706   1.749   4.244   1.589  0.1758 -0.2401  0.3343
 5806SOL    HW117707   1.780   4.333   1.623 -0.8005  0.6070 -0.9295
 5806SOL    HW217708   1.784   4.172   1.650 -0.5819  1.1151  2.5021
 5807SOL     OW17709   0.080   2.571   3.911  0.1897 -0.1342  0.7132
 5807SOL    HW117710   0.038   2.544   3.998 -2.3980 -2.9133 -1.2048
 5807SOL    HW217711   0.128   2.493   3.872 -1.3519  0.0611 -1.7542
 5808SOL     OW17712   1.586   1.293   1.294  0.3049  0.5138 -0.0505
 5808SOL    HW117713   1.664   1.254   1.246  0.5730  1.3119 -0.2686
 5808SOL    HW217714   1.571   1.387   1.264 -0.7154  0.3859  0.0181
 5809SOL     OW17715   4.016   5.799   3.111 -0.6654  0.0227 -0.2520
 5809SOL    HW117716   3.991   5.703   3.096 -2.4277  0.7293 -2.3842
 5809SOL    HW217717   4.090   5.824   3.049 -2.6452  0.8945 -2.4201
 5810SOL     OW17718   3.846   0.178   2.554 -0.4922  0.0177  0.5081
 5810SOL    HW117719   3.759   0.176   2.603 -0.3672  0.7099  0.7666
 5810SOL    HW217720   3.895   0.263   2.576 -0.0706 -0.0399 -0.1844
 5811SOL     OW17721   2.266   4.444   0.048 -0.1252  0.2624  0.3593
 5811SOL    HW117722   2.196   4.388   0.093 -0.0414  0.3915  0.6526
 5811SOL    HW217723   2.353   4.432   0.096 -0.1708  0.8653  0.5973
 5812SOL     OW17724   5.406   4.397   4.726 -0.0880 -0.9075  0.3812
 5812SOL    HW117725   5.382   4.473   4.787 -2.3404 -1.3830  0.1488
 5812SOL    HW217726   5.504   4.400   4.708  0.1566  0.9763  1.6720
 5813SOL     OW17727   0.613   2.890   1.620 -0.0776 -0.0071  0.0976
 5813SOL    HW117728   0.568   2.811   1.663  0.3147 -0.6440 -0.6214
 5813SOL    HW217729   0.549   2.934   1.557 -0.8969  1.3714  1.8072
 5814SOL     OW17730   5.205   1.158   4.230 -0.0067 -0.3186  0.3052
 5814SOL    HW117731   5.233   1.073   4.275  1.9651 -0.0948 -0.4422
 5814SOL    HW217732   5.189   1.141   4.133  1.1259  0.2990 -0.0007
 5815SOL     OW17733   4.740   4.314   3.154  0.1313 -0.1011 -0.2978
 5815SOL    HW117734   4.729   4.314   3.055 -0.5807 -0.6539 -0.2295
 5815SOL    HW217735   4.736   4.220   3.188  1.8761 -0.0538  0.1125
 5816SOL     OW17736   1.523   0.528   3.803  0.1887  0.0402  0.2132
 5816SOL    HW117737   1.583   0.453   3.772 -0.3332 -0.6021  0.7304
 5816SOL    HW217738   1.578   0.610   3.817  1.3838 -1.0634  2.7348
 5817SOL     OW17739   0.019   5.536   2.262  0.1272 -0.1981  0.3457
 5817SOL    HW117740   0.039   5.614   2.322 -0.6396  1.5593 -1.5783
 5817SOL    HW217741   0.104   5.502   2.222  0.2465  1.9610 -1.4627
 5818SOL     OW17742   0.501   2.691   4.847  0.4129 -0.1909 -0.0425
 5818SOL    HW117743   0.426   2.700   4.781 -0.1951 -3.4943  0.0253
 5818SOL    HW217744   0.465   2.698   4.940  0.1158 -1.8335 -0.0088
 5819SOL     OW17745   0.395   0.634   4.434  0.2459 -0.0075  0.0312
 5819SOL    HW117746   0.304   0.629   4.475  0.8156 -0.5635  1.3044
 5819SOL    HW217747   0.462   0.651   4.506  1.1339  0.6501 -0.9199
 5820SOL     OW17748   2.056   5.093   1.573  0.0040 -0.5962 -0.1243
 5820SOL    HW117749   2.107   5.086   1.487 -0.6269  0.0356 -0.5604
 5820SOL    HW217750   2.091   5.171   1.625 -0.0081 -0.6211 -0.0794
 5821SOL     OW17751   0.408   3.790   3.190 -0.0342  0.6826  0.3483
 5821SOL    HW117752   0.436   3.886   3.180 -0.1089  0.6036 -0.8163
 5821SOL    HW217753   0.387   3.753   3.099  2.2507 -1.1362  0.5004
 5822SOL     OW17754   5.515   3.058   3.553 -0.1864  0.2242 -0.4928
 5822SOL    HW117755   5.583   3.045   3.481 -0.9719  0.9439 -1.3886
 5822SOL    HW217756   5.443   2.989   3.542 -0.6450  0.7440 -0.8200
 5823SOL     OW17757   4.620   1.142   4.758  0.1310 -0.5419 -0.8584
 5823SOL    HW117758   4.657   1.233   4.737  0.1170 -0.2174  0.4704
 5823SOL    HW217759   4.526   1.136   4.723  0.2858 -0.2166 -1.3501
 5824SOL     OW17760   3.895   0.695   4.197  0.2525  0.1586 -0.3772
 5824SOL    HW117761   3.812   0.737   4.160 -0.4608  0.2795  1.2609
 5824SOL    HW217762   3.975   0.728   4.146 -0.5865  1.0296 -1.1696
 5825SOL     OW17763   1.394   4.304   5.596 -0.3098  0.5207  0.2628
 5825SOL    HW117764   1.427   4.210   5.590 -1.7997  0.0533 -1.5029
 5825SOL    HW217765   1.386   4.330   5.692  0.0745 -1.1718  0.7956
 5826SOL     OW17766   1.758   2.202   3.948 -0.6148 -0.1831  0.1956
 5826SOL    HW117767   1.711   2.280   3.906  4.0283  1.4696 -2.6703
 5826SOL    HW217768   1.759   2.125   3.884 -0.2934 -0.5311  0.6133
 5827SOL     OW17769   5.743   0.722   4.545  0.3354 -0.1998 -0.1962
 5827SOL    HW117770   5.723   0.630   4.514  1.6644  0.1724 -2.3978
 5827SOL    HW217771   5.660   0.765   4.581 -0.7379 -1.5591 -0.9897
 5828SOL     OW17772   4.147   1.496   0.631 -0.2506  0.2976  0.0241
 5828SOL    HW117773   4.138   1.398   0.613  0.3195  0.2176  0.1398
 5828SOL    HW217774   4.076   1.525   0.695 -0.4470 -0.0315 -0.0387
 5829SOL     OW17775   1.942   4.175   5.400  0.1698 -0.2918  0.5973
 5829SOL    HW117776   1.909   4.268   5.385  0.7865 -0.0318  0.8041
 5829SOL    HW217777   2.042   4.176   5.408  0.2297 -1.0487  0.0609
 5830SOL     OW17778   0.155   3.528   3.755 -0.0221  0.3669 -0.3977
 5830SOL    HW117779   0.195   3.459   3.815 -1.1690 -0.1104 -0.1639
 5830SOL    HW217780   0.061   3.548   3.785  0.1978  1.8499 -0.6083
 5831SOL     OW17781   0.361   3.140   4.372 -1.0542 -0.0437  0.4108
 5831SOL    HW117782   0.363   3.237   4.396 -4.2290 -0.1006  1.3268
 5831SOL    HW217783   0.393   3.128   4.278 -1.3860  1.9962 -0.0014
 5832SOL     OW17784   3.441   4.839   5.596 -0.0193  0.1189  0.3199
 5832SOL    HW117785   3.502   4.829   5.516 -1.8740 -1.0387 -1.0370
 5832SOL    HW217786   3.486   4.799   5.676  1.4725  0.3333 -0.3629
 5833SOL     OW17787   4.984   2.690   2.639 -0.2522  0.0770 -0.3030
 5833SOL    HW117788   5.019   2.640   2.560 -0.1951  0.0148 -0.2375
 5833SOL    HW217789   4.884   2.682   2.641 -0.1264 -1.7724  0.8665
 5834SOL     OW17790   4.130   5.307   0.844 -0.1576  0.1416 -0.7306
 5834SOL    HW117791   4.069   5.232   0.817 -0.6846  0.3488 -0.1651
 5834SOL    HW217792   4.168   5.287   0.934 -0.9909  0.9412 -0.1834
 5835SOL     OW17793   0.883   4.797   4.009 -0.4081  0.7410  0.5763
 5835SOL    HW117794   0.790   4.822   3.981 -0.9474  0.4001  1.9836
 5835SOL    HW217795   0.911   4.855   4.086 -0.9290 -1.6030  2.6292
 5836SOL     OW17796   1.187   1.079   2.808 -0.0879 -0.6670 -0.1106
 5836SOL    HW117797   1.174   1.068   2.907 -1.0421 -0.7017 -0.2289
 5836SOL    HW217798   1.225   1.169   2.789 -2.4753  0.4744  0.1256
 5837SOL     OW17799   3.801   4.368   4.422 -0.0106 -0.0857 -0.1626
 5837SOL    HW117800   3.798   4.305   4.345 -1.0175  1.6201 -1.5915
 5837SOL    HW217801   3.874   4.340   4.485 -1.7254 -3.8245  0.3947
 5838SOL     OW17802   2.776   3.283   3.112 -0.0756 -0.2380  1.4869
 5838SOL    HW117803   2.838   3.207   3.131  1.1477  0.4087  0.2582
 5838SOL    HW217804   2.826   3.369   3.114 -0.4561  0.1477 -1.4170
 5839SOL     OW17805   2.894   2.869   1.367  0.3369  0.3043  0.2986
 5839SOL    HW117806   2.871   2.857   1.271  0.7061 -0.1434  0.2643
 5839SOL    HW217807   2.976   2.816   1.389 -0.0837 -0.0699  0.9979
 5840SOL     OW17808   0.382   2.388   1.184  0.4057  0.3857  0.5386
 5840SOL    HW117809   0.303   2.399   1.124  1.0347  0.4042 -0.2990
 5840SOL    HW217810   0.382   2.296   1.222  0.6256 -0.0213 -0.4137
 5841SOL     OW17811   5.381   4.050   0.192  0.1743 -0.0011  0.0472
 5841SOL    HW117812   5.326   4.099   0.124 -0.5865 -1.1327 -0.1704
 5841SOL    HW217813   5.363   3.952   0.185 -0.4165 -0.0917  2.3184
 5842SOL     OW17814   3.113   4.852   0.169  0.0154 -0.4549  0.0265
 5842SOL    HW117815   3.079   4.769   0.212 -0.1051 -0.9136 -0.9237
 5842SOL    HW217816   3.037   4.917   0.156  0.5017  0.8533  2.9590
 5843SOL     OW17817   0.929   5.044   5.170  0.6094  0.0085  0.0701
 5843SOL    HW117818   0.967   4.956   5.198 -0.0468 -0.4548 -0.4408
 5843SOL    HW217819   1.003   5.109   5.155  1.2125 -0.8573 -0.8734
 5844SOL     OW17820   0.174   0.245   2.941  0.8470  0.3798  0.4022
 5844SOL    HW117821   0.265   0.238   2.982  1.4322  1.2958 -0.7025
 5844SOL    HW217822   0.107   0.207   3.004  1.8694  0.5697  1.6493
 5845SOL     OW17823   2.008   2.287   1.276  1.1284  1.1058  0.4218
 5845SOL    HW117824   1.990   2.190   1.288 -0.3279  1.2016 -0.6715
 5845SOL    HW217825   2.103   2.307   1.300  1.2686 -0.4573  1.2677
 5846SOL     OW17826   4.390   3.966   5.539  0.6060 -0.0912 -0.8330
 5846SOL    HW117827   4.387   4.029   5.617 -1.6429 -1.3848  0.2328
 5846SOL    HW217828   4.454   3.892   5.558 -0.9815 -1.2010  0.5526
 5847SOL     OW17829   0.179   2.804   4.006 -0.8876 -0.3792  0.0074
 5847SOL    HW117830   0.245   2.830   3.936 -0.6973 -1.6063 -0.2901
 5847SOL    HW217831   0.126   2.725   3.974 -1.2856 -0.5089  0.9617
 5848SOL     OW17832   0.593   3.251   2.380 -0.6600 -0.2644 -0.1716
 5848SOL    HW117833   0.544   3.294   2.456  0.4622 -0.3265  0.6143
 5848SOL    HW217834   0.601   3.153   2.397 -1.9872 -0.5896 -1.2789
 5849SOL     OW17835   4.803   2.714   5.304 -0.1150  0.1680  0.1159
 5849SOL    HW117836   4.811   2.705   5.404  0.2051 -0.4083  0.0479
 5849SOL    HW217837   4.886   2.756   5.268 -0.2090  0.3281  0.0899
 5850SOL     OW17838   5.143   0.600   5.272 -0.5879  0.1260  0.2702
 5850SOL    HW117839   5.174   0.687   5.311  1.3143  0.0634 -1.0092
 5850SOL    HW217840   5.161   0.599   5.174 -2.3462 -0.9949 -0.0897
 5851SOL     OW17841   5.177   2.418   3.665  0.6886  0.7779  0.3473
 5851SOL    HW117842   5.096   2.452   3.712  1.6145 -1.2070  3.6868
 5851SOL    HW217843   5.259   2.462   3.703  1.3738  1.4968 -1.7841
 5852SOL     OW17844   2.538   1.584   2.983 -0.2633  0.3228 -0.1558
 5852SOL    HW117845   2.598   1.528   3.039  1.0848 -0.6451 -2.4012
 5852SOL    HW217846   2.557   1.681   3.000  0.7548  0.0442  0.3911
 5853SOL     OW17847   0.162   4.202   5.727  0.2399 -0.4671 -0.3273
 5853SOL    HW117848   0.129   4.196   5.633 -1.1707 -0.4073  0.1342
 5853SOL    HW217849   0.136   4.120   5.777  1.0639 -0.5429 -0.0081
 5854SOL     OW17850   0.013   2.251   1.907 -0.4949 -0.1867 -0.3261
 5854SOL    HW117851  -0.062   2.313   1.928 -1.6728 -1.6331 -0.1094
 5854SOL    HW217852   0.087   2.302   1.863 -0.1072  1.9590  2.5286
 5855SOL     OW17853   1.279   0.527   0.030 -0.1028 -0.0786 -0.5731
 5855SOL    HW117854   1.308   0.530   0.126  1.2638  2.2289 -0.9770
 5855SOL    HW217855   1.180   0.542   0.024 -0.2831 -0.7558  0.4666
 5856SOL     OW17856   3.355   4.528   0.230  0.8801 -0.0888  0.0778
 5856SOL    HW117857   3.389   4.508   0.138 -0.9823 -1.3163 -0.4128
 5856SOL    HW217858   3.256   4.538   0.228  0.6229 -1.3731  2.1043
 5857SOL     OW17859   1.386   5.046   4.237 -0.1959 -0.2750  0.5181
 5857SOL    HW117860   1.370   5.145   4.235 -1.8543 -0.5036 -0.8868
 5857SOL    HW217861   1.329   5.003   4.167 -0.0634 -2.3121  1.6082
 5858SOL     OW17862   1.380   5.538   0.467 -0.0430  0.1857 -0.3511
 5858SOL    HW117863   1.298   5.511   0.516  0.3777  0.8891  0.7870
 5858SOL    HW217864   1.421   5.458   0.422 -1.0780 -0.2475 -0.5357
 5859SOL     OW17865   1.529   1.287   3.000  0.5759 -0.3921 -0.7239
 5859SOL    HW117866   1.509   1.385   2.997 -0.2988 -0.5647 -0.6562
 5859SOL    HW217867   1.501   1.250   3.088 -1.4840 -1.1907 -1.6430
 5860SOL     OW17868   0.678   2.162  -0.012  0.5748 -0.0769  0.3307
 5860SOL    HW117869   0.623   2.173   0.070  0.4338 -1.6487  0.4743
 5860SOL    HW217870   0.774   2.152   0.013  0.3792 -2.1270  0.4940
 5861SOL     OW17871   5.722   3.377   3.358  0.5802  0.0701  0.1967
 5861SOL    HW117872   5.692   3.472   3.361  1.5077  0.3456  1.7415
 5861SOL    HW217873   5.821   3.374   3.349  0.6547 -0.7139  1.0941
 5862SOL     OW17874   3.713   4.427   2.548  0.9391  0.0693 -0.0242
 5862SOL    HW117875   3.773   4.506   2.559 -1.7585  1.9260  3.7601
 5862SOL    HW217876   3.747   4.351   2.603  0.1205  1.0508  1.9490
 5863SOL     OW17877   0.931   4.688   3.110  0.1966 -0.6316 -0.1850
 5863SOL    HW117878   0.911   4.762   3.173  1.3707  0.7256 -1.3189
 5863SOL    HW217879   1.028   4.666   3.113 -0.3993 -3.7227  1.7088
 5864SOL     OW17880   3.790   0.827   5.367  0.3809 -0.1953  0.0080
 5864SOL    HW117881   3.692   0.811   5.356  0.2660  0.7479 -0.4169
 5864SOL    HW217882   3.834   0.742   5.397 -0.1724 -1.3383 -2.2176
 5865SOL     OW17883   1.627   1.724   3.844  0.4714  0.0814  0.3266
 5865SOL    HW117884   1.607   1.694   3.937  0.4133 -0.7064  0.0658
 5865SOL    HW217885   1.658   1.646   3.789  2.0181  0.8343  0.0969
 5866SOL     OW17886   2.207   0.321   4.306  0.2845  0.1193  0.4419
 5866SOL    HW117887   2.274   0.249   4.287 -0.6460 -0.6258 -0.1104
 5866SOL    HW217888   2.202   0.382   4.227  0.6026  0.4059  0.6446
 5867SOL     OW17889   1.008   2.132   4.279 -0.2883  0.3251 -0.0846
 5867SOL    HW117890   1.062   2.074   4.219 -0.0892 -1.0399  1.3481
 5867SOL    HW217891   1.053   2.139   4.368 -0.3402  2.6616 -0.1721
 5868SOL     OW17892   2.648   0.053   0.026 -0.2670  0.3597  0.2367
 5868SOL    HW117893   2.594   0.089   0.102  0.5929  0.4479  0.8228
 5868SOL    HW217894   2.739   0.027   0.060 -0.2273 -0.5864 -0.5513
 5869SOL     OW17895   1.107   2.410   3.545 -0.4538  0.8134  0.4055
 5869SOL    HW117896   1.127   2.360   3.629 -1.1576 -1.7225 -0.8437
 5869SOL    HW217897   1.043   2.485   3.565 -0.3920  0.4339  2.1535
 5870SOL     OW17898   4.643   5.701   4.010  0.4212  0.7538  0.3069
 5870SOL    HW117899   4.575   5.746   3.953  0.0133  0.4869  0.5756
 5870SOL    HW217900   4.697   5.770   4.059 -0.9570  0.9727  1.6087
 5871SOL     OW17901   5.017   1.121   2.842  0.1314 -0.1958 -0.0965
 5871SOL    HW117902   5.038   1.052   2.912 -0.6286 -0.2123  0.1193
 5871SOL    HW217903   4.960   1.080   2.771  1.9031 -0.5283 -1.4114
 5872SOL     OW17904   5.277   1.469   2.884 -0.3956 -0.0464  0.1758
 5872SOL    HW117905   5.280   1.459   2.983  0.1518  0.8324  0.2581
 5872SOL    HW217906   5.364   1.508   2.852 -0.9378  0.6026 -0.5351
 5873SOL     OW17907   4.623   4.839   3.926  0.1103 -0.4886 -0.1016
 5873SOL    HW117908   4.610   4.827   4.024  1.5477  1.0256  0.3151
 5873SOL    HW217909   4.612   4.751   3.880  2.1804 -1.8385  1.7720
 5874SOL     OW17910   3.450   3.870   1.972 -0.0347  0.1488  0.4933
 5874SOL    HW117911   3.523   3.801   1.972  0.9812  1.0818 -2.4088
 5874SOL    HW217912   3.363   3.826   1.951  0.4250 -0.4145 -0.2729
 5875SOL     OW17913   3.856   1.747   1.391 -0.2361 -0.3140 -0.2076
 5875SOL    HW117914   3.760   1.774   1.388 -0.1694 -0.0851 -0.2749
 5875SOL    HW217915   3.910   1.815   1.440 -0.1595 -0.6033  0.1135
 5876SOL     OW17916   2.770   1.459   4.017  0.1489 -0.4547  0.2096
 5876SOL    HW117917   2.866   1.436   4.029 -0.0489 -1.2147  0.4038
 5876SOL    HW217918   2.745   1.534   4.078  0.9436  0.6949 -0.8184
 5877SOL     OW17919   1.993   1.010   2.065 -0.3438 -0.0441  0.3485
 5877SOL    HW117920   1.991   0.912   2.082  1.1670  0.2488  2.6015
 5877SOL    HW217921   2.073   1.032   2.008  0.0990 -0.0025  0.9728
 5878SOL     OW17922   2.722   4.910   4.950 -0.2156 -0.2129  0.6771
 5878SOL    HW117923   2.787   4.888   5.023 -2.1905 -1.0064  2.2911
 5878SOL    HW217924   2.727   5.007   4.929  0.9192 -0.1102  1.3305
 5879SOL     OW17925   0.119   4.555   4.582 -0.0350  0.1833 -0.1835
 5879SOL    HW117926   0.142   4.636   4.635  1.6025  0.1262 -0.7471
 5879SOL    HW217927   0.023   4.560   4.552 -0.1789  1.5197  0.4366
 5880SOL     OW17928   4.923   3.318   3.361 -0.2873 -0.4279 -0.3139
 5880SOL    HW117929   4.966   3.347   3.447  0.9924  0.3964 -1.1780
 5880SOL    HW217930   4.880   3.229   3.373  0.8063 -0.8317  0.9108
 5881SOL     OW17931   2.757   4.031   2.169 -0.3206 -0.1581  0.1806
 5881SOL    HW117932   2.820   4.017   2.092 -1.1260  1.9212 -0.9591
 5881SOL    HW217933   2.677   4.081   2.136 -1.5750 -0.8647  2.0395
 5882SOL     OW17934   2.748   1.685   1.325 -0.5549  0.2253 -0.0962
 5882SOL    HW117935   2.762   1.682   1.226 -0.4813 -0.3921 -0.0689
 5882SOL    HW217936   2.650   1.678   1.345 -0.6112  0.7948 -0.1348
 5883SOL     OW17937   3.325   5.170   4.382  0.4131  0.4290  0.1784
 5883SOL    HW117938   3.269   5.253   4.383  0.8097  0.6987  1.4373
 5883SOL    HW217939   3.277   5.098   4.332 -0.1215  1.2725 -0.5757
 5884SOL     OW17940   4.927   3.839   0.236  0.0151 -0.2636  0.2233
 5884SOL    HW117941   4.962   3.748   0.213 -0.7266 -0.4924 -0.0546
 5884SOL    HW217942   4.858   3.831   0.308  0.1894  0.1142  0.4303
 5885SOL     OW17943   5.554   5.345   1.489 -0.3149  0.1116 -0.1816
 5885SOL    HW117944   5.614   5.266   1.476  0.2022  0.6065 -0.8470
 5885SOL    HW217945   5.578   5.417   1.424 -1.8109  0.2279 -0.6427
 5886SOL     OW17946   2.319   3.858   0.564  0.6809 -0.4511 -0.2087
 5886SOL    HW117947   2.220   3.875   0.572  0.7573 -0.6434  1.4057
 5886SOL    HW217948   2.335   3.760   0.558  0.8396 -0.5016  0.8936
 5887SOL     OW17949   0.162   2.909   3.357 -0.7741 -0.4549  0.0924
 5887SOL    HW117950   0.253   2.946   3.341 -1.3957  0.9099 -0.4133
 5887SOL    HW217951   0.170   2.819   3.400  0.8103 -0.7958 -0.8391
 5888SOL     OW17952   3.546   0.533   4.785 -0.0741 -0.4421 -0.0874
 5888SOL    HW117953   3.448   0.542   4.763  0.0843  0.2375 -0.5734
 5888SOL    HW217954   3.560   0.555   4.881 -0.3249  0.0543 -0.1594
 5889SOL     OW17955   4.097   0.653   1.984 -0.0897  0.2044  0.1921
 5889SOL    HW117956   4.178   0.643   1.926 -0.7382 -0.4076 -0.6313
 5889SOL    HW217957   4.084   0.569   2.037 -1.1005 -0.3709 -0.9111
 5890SOL     OW17958   0.339   0.786   4.754  0.1896  0.1877  0.4366
 5890SOL    HW117959   0.277   0.830   4.688  0.2645 -0.5386 -0.1346
 5890SOL    HW217960   0.296   0.703   4.790 -0.4857  1.3435  2.4682
 5891SOL     OW17961   5.742   5.777   1.025 -0.4447  0.2968  0.8026
 5891SOL    HW117962   5.746   5.697   0.965  1.1396  0.5561  0.4992
 5891SOL    HW217963   5.832   5.792   1.066 -0.8177  1.6685  1.1851
 5892SOL     OW17964   0.381   0.144   2.072 -0.3442 -0.1748  0.9704
 5892SOL    HW117965   0.294   0.169   2.114 -1.2110  0.5721 -1.1363
 5892SOL    HW217966   0.371   0.057   2.024 -0.0077  0.0401  0.5056
 5893SOL     OW17967   1.397   4.561   3.191  0.1379 -0.5079 -0.2418
 5893SOL    HW117968   1.456   4.485   3.163 -0.1799 -1.1503  0.7523
 5893SOL    HW217969   1.337   4.530   3.265 -0.2835  0.6085 -0.1023
 5894SOL     OW17970   4.462   5.289   5.397  0.4207  0.2198  0.5180
 5894SOL    HW117971   4.545   5.236   5.383  1.4462  1.5225  1.4727
 5894SOL    HW217972   4.414   5.298   5.309  1.0440 -0.8887  0.0348
 5895SOL     OW17973   3.842   4.176   1.555 -0.1519 -0.3385  0.1487
 5895SOL    HW117974   3.834   4.098   1.618 -0.2695  1.9467  3.2206
 5895SOL    HW217975   3.935   4.213   1.559  0.0191 -0.5302 -1.5837
 5896SOL     OW17976   3.641   1.840   0.125  0.1441 -0.0928 -0.4877
 5896SOL    HW117977   3.574   1.914   0.132 -0.0040 -0.3490  1.1855
 5896SOL    HW217978   3.733   1.879   0.123  0.0473  0.1654 -0.0373
 5897SOL     OW17979   5.728   3.834   3.338  0.1463  0.0263 -0.3311
 5897SOL    HW117980   5.799   3.881   3.286 -0.4084  1.4222  0.1337
 5897SOL    HW217981   5.769   3.763   3.394  1.1395  0.6287 -0.2720
 5898SOL     OW17982   4.309   1.456   0.134 -0.4209 -0.2144 -0.0463
 5898SOL    HW117983   4.290   1.447   0.232 -0.9625 -0.6219 -0.1789
 5898SOL    HW217984   4.407   1.450   0.119 -0.1298  2.0381  0.6759
 5899SOL     OW17985   0.783  -0.010   2.787  0.6100 -0.5505 -0.0716
 5899SOL    HW117986   0.768  -0.029   2.691 -0.1114 -2.0071  0.2969
 5899SOL    HW217987   0.764   0.086   2.806 -1.7901 -0.7949 -0.9017
 5900SOL     OW17988   2.509   5.613   5.928 -0.8821 -0.6351  0.4309
 5900SOL    HW117989   2.605   5.587   5.930 -1.0457 -1.2480  0.8664
 5900SOL    HW217990   2.486   5.662   6.012 -0.9699 -0.5828  0.3762
 5901SOL     OW17991   5.664   4.150   3.184  0.4937  0.0878  0.1522
 5901SOL    HW117992   5.577   4.123   3.225  1.4904 -2.3033  0.8464
 5901SOL    HW217993   5.652   4.235   3.133 -2.1968 -0.1189  0.3162
 5902SOL     OW17994   4.861   3.453   4.364  0.0666 -0.3513  0.4974
 5902SOL    HW117995   4.943   3.503   4.335  1.3067 -2.4188  0.2638
 5902SOL    HW217996   4.834   3.486   4.455 -0.7856  2.5474 -0.6791
 5903SOL     OW17997   4.368   5.446   0.544  0.4756  0.1850  0.0979
 5903SOL    HW117998   4.326   5.510   0.480 -0.2181 -0.1221  0.2391
 5903SOL    HW217999   4.343   5.470   0.638  0.6571  0.0280  0.1896
 5904SOL     OW18000   2.377   3.087   5.600  0.0269  0.5985 -0.4607
 5904SOL    HW118001   2.413   3.016   5.661 -0.2499  1.6853  1.0242
 5904SOL    HW218002   2.443   3.161   5.592 -0.4430  1.0224 -0.4968
 5905SOL     OW18003   1.827   4.029   2.248  0.9717  0.0364 -0.0597
 5905SOL    HW118004   1.837   4.115   2.198 -0.4178  1.0786  1.3467
 5905SOL    HW218005   1.833   4.047   2.347  2.0369 -1.7132  0.2300
 5906SOL     OW18006   3.117   0.623   2.690 -0.3825 -0.2057 -0.7800
 5906SOL    HW118007   3.197   0.628   2.750 -0.3960  0.5563 -0.8158
 5906SOL    HW218008   3.107   0.530   2.656  0.0576 -0.4783 -0.1839
 5907SOL     OW18009   5.501   4.199   5.185 -0.3175 -0.2944  0.2978
 5907SOL    HW118010   5.452   4.147   5.255 -0.9548 -0.4971 -0.2827
 5907SOL    HW218011   5.441   4.271   5.149 -0.1021 -0.3705 -0.2326
 5908SOL     OW18012   2.716   1.988   2.661  0.2801 -0.3096  0.5189
 5908SOL    HW118013   2.640   1.952   2.715 -0.2858  0.5552  0.3252
 5908SOL    HW218014   2.766   2.056   2.715 -0.8165  1.2074 -0.3024
 5909SOL     OW18015   5.807   4.885   5.362 -0.2910  0.0620  0.1989
 5909SOL    HW118016   5.833   4.901   5.457 -0.0072 -1.6000  0.4309
 5909SOL    HW218017   5.888   4.891   5.304  1.2010 -5.8476  1.0098
 5910SOL     OW18018   0.157   1.498   1.185 -0.3115 -0.6160  0.2505
 5910SOL    HW118019   0.233   1.441   1.154  1.0742 -0.0386  2.3613
 5910SOL    HW218020   0.186   1.593   1.189 -1.5269 -0.2247  0.0167
 5911SOL     OW18021   1.924   4.991   0.852 -0.6176  0.0542 -0.2699
 5911SOL    HW118022   1.920   4.896   0.820  0.5288 -0.0472 -0.1842
 5911SOL    HW218023   1.949   4.992   0.949  3.0889  0.4197 -1.0547
 5912SOL     OW18024   0.673   1.527   1.413  0.6445  0.3368 -0.3582
 5912SOL    HW118025   0.750   1.586   1.389  0.1275  1.4745  0.6695
 5912SOL    HW218026   0.649   1.541   1.509  0.1040 -1.1179 -0.2538
 5913SOL     OW18027   4.332   4.434   3.953 -0.3146 -0.3989 -0.4735
 5913SOL    HW118028   4.323   4.533   3.949 -1.9673 -0.3840  1.8358
 5913SOL    HW218029   4.429   4.409   3.955  0.1723  1.3857  2.0151
 5914SOL     OW18030   2.489   1.308   3.434 -0.3263 -0.7234  0.1888
 5914SOL    HW118031   2.556   1.282   3.366 -0.0086 -2.1489  1.0168
 5914SOL    HW218032   2.524   1.386   3.487  0.7285 -1.5017  0.6692
 5915SOL     OW18033   1.276   4.429   2.646 -0.9642  0.3474 -0.5015
 5915SOL    HW118034   1.330   4.486   2.585  1.2694 -0.3468  0.7072
 5915SOL    HW218035   1.195   4.480   2.677 -0.8499  1.5595 -2.0932
 5916SOL     OW18036   2.793   3.168   5.285  0.0046  0.4891 -0.7887
 5916SOL    HW118037   2.778   3.154   5.383  0.2412 -0.1227 -0.8382
 5916SOL    HW218038   2.704   3.170   5.239 -0.1349  1.2309 -0.5113
 5917SOL     OW18039   0.154   0.055   2.568  0.2407 -0.2779 -0.5383
 5917SOL    HW118040   0.242   0.087   2.532  0.0465 -0.7009 -1.4092
 5917SOL    HW218041   0.169   0.001   2.650  0.8583 -0.9488 -1.0859
 5918SOL     OW18042   5.916   4.008   2.302 -0.2696  0.0663  0.0446
 5918SOL    HW118043   5.960   4.093   2.331  0.1149  0.1574 -0.7700
 5918SOL    HW218044   5.823   4.027   2.273 -0.5858  0.0079  0.9895
 5919SOL     OW18045   2.656   4.255   5.947  0.2481 -0.0497 -0.5183
 5919SOL    HW118046   2.737   4.281   5.894 -1.0071 -0.3342 -2.7256
 5919SOL    HW218047   2.579   4.240   5.884 -1.7847  1.1113  1.5242
 5920SOL     OW18048   4.949   5.733   0.615  0.4052 -0.3229  0.1239
 5920SOL    HW118049   4.994   5.771   0.696 -0.4845 -0.5866  0.7582
 5920SOL    HW218050   4.986   5.777   0.533  1.2655  0.0024  0.6739
 5921SOL     OW18051   2.392   2.193   4.247 -0.0901  0.4175  0.6840
 5921SOL    HW118052   2.305   2.221   4.206  0.8914  1.5978 -0.7152
 5921SOL    HW218053   2.387   2.202   4.346 -2.3861 -2.0267  0.9212
 5922SOL     OW18054   1.105   4.295   0.225  0.4158  0.2081 -0.0991
 5922SOL    HW118055   1.030   4.309   0.160 -1.1258 -0.6582  1.4166
 5922SOL    HW218056   1.109   4.198   0.250  0.5687  0.6041  1.5233
 5923SOL     OW18057   4.972   3.900   0.608 -0.0794  0.2259 -0.3053
 5923SOL    HW118058   4.970   3.824   0.542 -1.5139 -0.0132 -0.0172
 5923SOL    HW218059   5.060   3.948   0.601  0.1567 -0.3665 -1.7264
 5924SOL     OW18060   4.922   2.991   3.785  0.0520 -0.3913  0.4240
 5924SOL    HW118061   4.994   3.060   3.789 -3.3551  3.6845 -0.9062
 5924SOL    HW218062   4.860   3.003   3.862 -1.2171 -1.2529 -0.4355
 5925SOL     OW18063   3.599   1.571   3.392 -0.2225  0.1250  0.4776
 5925SOL    HW118064   3.607   1.623   3.306  0.8388  1.8728  1.5753
 5925SOL    HW218065   3.561   1.629   3.463 -2.0024 -1.5930  1.0176
 5926SOL     OW18066   1.195   2.909   5.678 -0.5250  0.5684  0.0205
 5926SOL    HW118067   1.172   2.812   5.681 -1.3824  0.7796  0.5484
 5926SOL    HW218068   1.206   2.938   5.583 -0.7148  0.0555 -0.1593
 5927SOL     OW18069   0.657   3.215   4.580  0.2255 -0.1171 -0.0864
 5927SOL    HW118070   0.587   3.159   4.624  0.4607  0.4532  1.0512
 5927SOL    HW218071   0.722   3.156   4.532  0.4527 -0.8377  1.0667
 5928SOL     OW18072   2.811   3.956   2.732 -0.2620  0.5057  0.2059
 5928SOL    HW118073   2.835   3.948   2.635  1.6415  2.5219  0.4355
 5928SOL    HW218074   2.884   4.005   2.780 -0.7882 -1.1330  2.8405
 5929SOL     OW18075   2.728   1.007   1.206  0.0071  0.2975 -0.0717
 5929SOL    HW118076   2.731   0.948   1.287  0.0531 -0.0912 -0.3547
 5929SOL    HW218077   2.748   1.101   1.233 -0.9028  0.3346  0.5144
 5930SOL     OW18078   1.024   4.055   1.117 -0.8567 -0.3631  0.1404
 5930SOL    HW118079   1.030   4.127   1.049  1.7394  0.6857  1.3623
 5930SOL    HW218080   0.989   4.093   1.203 -0.1638 -0.6912  0.5798
 5931SOL     OW18081   5.601   2.076   2.652  0.3803  0.2398 -0.3128
 5931SOL    HW118082   5.637   2.033   2.735 -1.0808 -1.8799 -0.6903
 5931SOL    HW218083   5.526   2.137   2.677  1.8783  1.9636  0.1480
 5932SOL     OW18084   1.605   4.377   3.835  0.1320 -0.0776  0.5919
 5932SOL    HW118085   1.542   4.299   3.845  0.5852 -0.2395  2.6467
 5932SOL    HW218086   1.699   4.347   3.854  0.4344  0.7688  0.4849
 5933SOL     OW18087   3.841   2.325   2.347 -0.1669  0.3518  0.6249
 5933SOL    HW118088   3.928   2.371   2.366  1.3704 -1.4032 -1.7171
 5933SOL    HW218089   3.819   2.334   2.251 -1.8124 -0.5401  0.8946
 5934SOL     OW18090   0.802   2.836   2.408  0.4341  0.3638  0.3884
 5934SOL    HW118091   0.759   2.913   2.455 -0.1072 -0.0595  0.6030
 5934SOL    HW218092   0.800   2.851   2.309  1.4618  1.1988  0.4787
 5935SOL     OW18093   1.173   4.239   4.540  0.1111 -0.1930 -0.2325
 5935SOL    HW118094   1.147   4.154   4.586  0.2185  0.0431  0.2712
 5935SOL    HW218095   1.174   4.313   4.607 -0.1490  0.2356 -0.7078
 5936SOL     OW18096   2.103   2.208   2.167  0.5259 -0.6483 -0.2345
 5936SOL    HW118097   2.144   2.245   2.251 -1.8690 -0.1394  0.8128
 5936SOL    HW218098   2.109   2.276   2.094 -0.5295  0.3680  0.5975
 5937SOL     OW18099   4.824   3.555   5.798  0.1531 -0.1882  0.3289
 5937SOL    HW118100   4.883   3.476   5.816  0.3752  0.4583  2.8557
 5937SOL    HW218101   4.876   3.639   5.812 -0.9858  0.3900  1.2402
 5938SOL     OW18102   0.834   4.246   0.055  0.4160 -0.2751 -0.0713
 5938SOL    HW118103   0.755   4.300   0.026  0.8122 -0.4306 -1.5207
 5938SOL    HW218104   0.837   4.160   0.004  1.0279 -0.6749  0.6181
 5939SOL     OW18105   4.286   3.934   4.216 -0.2259  0.1431 -0.4843
 5939SOL    HW118106   4.375   3.938   4.171 -0.1998  0.0281 -0.4456
 5939SOL    HW218107   4.247   4.025   4.223  0.2255  0.2985  0.1638
 5940SOL     OW18108   4.878   3.906   1.123  0.2907  0.4165  0.1133
 5940SOL    HW118109   4.789   3.878   1.159  0.0804  0.6508 -0.2198
 5940SOL    HW218110   4.885   3.881   1.027  0.3946  0.8285  0.0115
 5941SOL     OW18111   0.158   5.873   2.783 -0.5052  0.7951  0.2658
 5941SOL    HW118112   0.080   5.873   2.845 -0.2023  0.1534  0.6604
 5941SOL    HW218113   0.227   5.938   2.816 -1.1056  1.8207 -0.4146
 5942SOL     OW18114   0.994   3.478   2.192  0.0360 -0.4094 -0.0854
 5942SOL    HW118115   1.075   3.459   2.136  0.9401 -0.9620  1.3459
 5942SOL    HW218116   0.993   3.416   2.270 -1.3553  0.1350  0.3481
 5943SOL     OW18117   0.937   1.158   5.135 -0.4741 -0.0830  0.6913
 5943SOL    HW118118   0.980   1.075   5.100  3.0090  1.7240  0.1404
 5943SOL    HW218119   0.905   1.214   5.059  1.4349  1.0565  0.6531
 5944SOL     OW18120   0.916   5.799   0.529 -0.4184 -0.3432 -0.4220
 5944SOL    HW118121   0.944   5.726   0.592  0.5310 -0.8024 -1.3362
 5944SOL    HW218122   0.855   5.862   0.576  0.1210 -0.7680  0.8994
 5945SOL     OW18123   1.842   4.257   3.575 -0.1155  0.0096 -0.0323
 5945SOL    HW118124   1.897   4.178   3.547 -0.0483  0.0868 -0.1188
 5945SOL    HW218125   1.746   4.239   3.555 -0.3951 -0.9336  1.8841
 5946SOL     OW18126   1.092   1.412   3.245  0.0309 -0.1108 -0.0666
 5946SOL    HW118127   1.163   1.377   3.307  0.8655 -1.6740 -1.8169
 5946SOL    HW218128   1.102   1.511   3.237  2.1059 -0.2907 -0.3320
 5947SOL     OW18129   5.044   1.134   1.243  0.2647  0.7004 -0.1339
 5947SOL    HW118130   4.985   1.081   1.182  1.7004  1.1399 -1.9866
 5947SOL    HW218131   4.991   1.161   1.324 -1.4591 -0.6365 -0.7253
 5948SOL     OW18132   5.759   3.019   2.189 -0.4806 -0.1266 -0.1081
 5948SOL    HW118133   5.761   2.945   2.122  0.2073  1.0683 -1.4634
 5948SOL    HW218134   5.841   3.016   2.246 -1.5250 -1.7369  1.4162
 5949SOL     OW18135   3.341   3.077   0.298  0.4086  0.1717 -0.3099
 5949SOL    HW118136   3.263   3.122   0.340  0.4832 -0.2479  0.2937
 5949SOL    HW218137   3.390   3.023   0.367 -0.5395 -2.0619 -1.2992
 5950SOL     OW18138   5.380   1.827   3.796 -0.6119  0.0824  0.1411
 5950SOL    HW118139   5.346   1.919   3.816 -0.3164 -0.1400  1.7835
 5950SOL    HW218140   5.472   1.816   3.834 -0.8826 -1.0798  0.5134
 5951SOL     OW18141   1.620   2.590   4.376 -0.5261  0.8989  0.7079
 5951SOL    HW118142   1.540   2.646   4.397 -0.8155  0.4850  0.7052
 5951SOL    HW218143   1.592   2.498   4.351 -0.0572  0.7874  0.5712
 5952SOL     OW18144   2.926   1.140   3.086  0.6287  0.0052 -0.1541
 5952SOL    HW118145   2.850   1.150   3.022  0.8892  1.2634 -0.2816
 5952SOL    HW218146   2.989   1.070   3.051 -0.1711 -0.6540 -0.3197
 5953SOL     OW18147   4.749   4.500   0.859  0.4867 -0.1019  0.3407
 5953SOL    HW118148   4.656   4.511   0.894  0.7937  0.9017  0.8930
 5953SOL    HW218149   4.807   4.457   0.929  0.5902 -0.1044  0.2543
 5954SOL     OW18150   4.105   5.953   0.858  0.2367  0.4893 -0.2277
 5954SOL    HW118151   4.184   5.895   0.879 -0.7555  0.0344  2.7415
 5954SOL    HW218152   4.101   6.029   0.923 -1.3141  0.9929 -0.8634
 5955SOL     OW18153   3.504   1.379   0.101  0.1548 -0.1353  0.5730
 5955SOL    HW118154   3.591   1.353   0.059  0.1017 -0.0642  0.4194
 5955SOL    HW218155   3.517   1.463   0.155 -0.4714  1.7112 -1.9505
 5956SOL     OW18156   2.713   2.024   3.636 -0.4205  0.0302 -1.1213
 5956SOL    HW118157   2.706   1.987   3.544 -0.4656 -0.1447 -1.0489
 5956SOL    HW218158   2.785   1.975   3.686 -1.7764 -1.3352 -0.3847
 5957SOL     OW18159   4.524   1.000   3.723  0.1648  0.0488 -0.1459
 5957SOL    HW118160   4.565   0.943   3.794  0.4360  1.5803  0.9917
 5957SOL    HW218161   4.562   0.975   3.634  1.4871 -0.4353  0.5286
 5958SOL     OW18162   4.636   3.450   4.065  0.2895 -0.2505  0.3112
 5958SOL    HW118163   4.609   3.401   4.148 -0.2079  1.4548  1.1909
 5958SOL    HW218164   4.699   3.524   4.089 -0.1605  0.5061 -0.7783
 5959SOL     OW18165   1.138   2.795   1.850  0.0302  0.0216  0.6702
 5959SOL    HW118166   1.203   2.720   1.837  0.3955  0.2137  1.3770
 5959SOL    HW218167   1.057   2.761   1.898 -0.1650 -0.0960  0.2658
 5960SOL     OW18168   0.116   0.679   5.236 -0.7299  0.0931 -0.1614
 5960SOL    HW118169   0.087   0.757   5.181  4.0344  1.4565 -1.2173
 5960SOL    HW218170   0.079   0.594   5.197 -1.4853  1.4044 -2.4478
 5961SOL     OW18171   0.051   5.832   4.374  0.6064 -0.5091 -0.0348
 5961SOL    HW118172   0.032   5.739   4.406 -0.1818 -0.1148  0.6891
 5961SOL    HW218173   0.067   5.830   4.275 -0.2918 -1.3073 -0.1820
 5962SOL     OW18174   3.895   3.764   1.351 -0.5843 -0.2674 -0.4707
 5962SOL    HW118175   3.912   3.801   1.259 -0.8899 -0.4118 -0.5870
 5962SOL    HW218176   3.819   3.812   1.393 -1.4105 -1.1892 -0.8830
 5963SOL     OW18177   1.596   2.886   1.343  0.3021  0.5935  0.2884
 5963SOL    HW118178   1.550   2.802   1.370  0.2887  1.0292  1.7300
 5963SOL    HW218179   1.649   2.870   1.260 -2.0418 -0.0342 -1.1544
 5964SOL     OW18180   0.337   2.154   5.548 -0.2046 -0.1756  0.1888
 5964SOL    HW118181   0.406   2.186   5.613 -0.3050 -0.3288  0.3752
 5964SOL    HW218182   0.382   2.111   5.470 -0.0168  1.6015 -0.7242
 5965SOL     OW18183   1.172   2.638   4.084 -0.2341  0.6157  0.0177
 5965SOL    HW118184   1.135   2.562   4.138  2.1103 -0.7391 -0.1254
 5965SOL    HW218185   1.166   2.722   4.138 -1.5008  0.0535  0.8044
 5966SOL     OW18186   5.846   1.111   2.550 -0.2585  0.1596 -0.3072
 5966SOL    HW118187   5.878   1.043   2.484 -0.8044 -0.1269 -0.2903
 5966SOL    HW218188   5.896   1.102   2.636  0.7500  0.8096 -0.8092
 5967SOL     OW18189   0.022   3.377   4.461 -0.1277 -0.3378 -0.1290
 5967SOL    HW118190  -0.040   3.441   4.416 -1.6412 -0.1747  2.0274
 5967SOL    HW218191   0.116   3.407   4.450 -0.7421  1.7472  0.0309
 5968SOL     OW18192   2.318   1.744   4.261 -0.1045 -0.1500 -0.1567
 5968SOL    HW118193   2.240   1.804   4.246 -0.4604 -1.1274 -2.6931
 5968SOL    HW218194   2.335   1.735   4.359 -2.8330  0.5218  0.4512
 5969SOL     OW18195   2.364   0.630   1.255  0.0349  0.0916 -0.0074
 5969SOL    HW118196   2.458   0.611   1.227 -0.3227  0.2258 -1.3692
 5969SOL    HW218197   2.322   0.694   1.190 -0.8958  0.3040  0.7710
 5970SOL     OW18198   3.049   3.162   1.313 -0.0911  0.3927 -0.5414
 5970SOL    HW118199   2.978   3.143   1.382  1.3644 -1.3492  0.5603
 5970SOL    HW218200   3.006   3.202   1.232 -1.8972  2.4932  1.2986
 5971SOL     OW18201   3.365   1.294   4.132  0.0903 -0.5773 -0.7477
 5971SOL    HW118202   3.453   1.270   4.173  1.0718  0.6491 -2.0459
 5971SOL    HW218203   3.350   1.239   4.049  0.9016  1.0008 -1.9944
 5972SOL     OW18204   2.323   0.515   2.016  0.1081  0.5866 -0.1638
 5972SOL    HW118205   2.394   0.499   1.948  1.0902  1.2091  0.6808
 5972SOL    HW218206   2.337   0.605   2.058 -0.4693  0.2100  0.8604
 5973SOL     OW18207   1.761   3.962   5.438 -0.1920  0.4106  0.5208
 5973SOL    HW118208   1.837   4.021   5.411  1.2229 -0.3984  2.4738
 5973SOL    HW218209   1.762   3.878   5.384  0.7005  0.1562  0.9077
 5974SOL     OW18210   4.640   5.149   3.251  0.6354  0.0085 -0.0271
 5974SOL    HW118211   4.577   5.078   3.221  0.2362  0.7401 -0.9657
 5974SOL    HW218212   4.669   5.203   3.172  0.6683  1.0928  0.7107
 5975SOL     OW18213   1.038   3.867   4.022 -0.0749 -0.6117  0.0703
 5975SOL    HW118214   1.049   3.926   4.103  1.1930  0.4452 -0.8339
 5975SOL    HW218215   0.943   3.868   3.993 -0.1239  0.7987  0.2335
 5976SOL     OW18216   1.822   0.880   0.386 -0.0182 -0.4361  0.6221
 5976SOL    HW118217   1.747   0.873   0.321  0.1484 -1.6900  0.5324
 5976SOL    HW218218   1.908   0.889   0.336 -0.0476  0.5329  0.7189
 5977SOL     OW18219   1.347   5.932   4.251 -0.3092 -0.4338 -0.2787
 5977SOL    HW118220   1.368   5.940   4.153 -1.4889 -1.5597 -0.6483
 5977SOL    HW218221   1.259   5.977   4.270  0.8379  1.5423  0.6706
 5978SOL     OW18222   4.654   4.164   0.129 -0.1742  0.0710 -0.2086
 5978SOL    HW118223   4.593   4.105   0.183  1.4265 -0.7354  0.7810
 5978SOL    HW218224   4.663   4.252   0.175 -0.1674 -0.0037 -0.0631
 5979SOL     OW18225   1.559   5.531   1.096 -0.1889  0.0798 -0.0220
 5979SOL    HW118226   1.570   5.520   1.194  1.7285  0.1648 -0.1962
 5979SOL    HW218227   1.648   5.543   1.053 -0.7864 -1.8629 -2.0136
 5980SOL     OW18228   5.372   4.224   2.873  0.6254 -0.2107 -0.3171
 5980SOL    HW118229   5.343   4.186   2.784  0.8897 -0.2616 -0.3822
 5980SOL    HW218230   5.463   4.264   2.864  0.7179 -0.3514 -0.0332
 5981SOL     OW18231   5.735   1.774   4.363  0.1586  0.3887 -0.2841
 5981SOL    HW118232   5.759   1.857   4.313  1.1511  0.2695 -0.0222
 5981SOL    HW218233   5.733   1.794   4.461  1.9539 -0.2283 -0.0861
 5982SOL     OW18234   5.337   4.816   0.089 -0.2563 -0.6433  0.0338
 5982SOL    HW118235   5.406   4.874   0.044 -0.4922  0.7245  1.3439
 5982SOL    HW218236   5.383   4.754   0.153  0.1000 -2.7416 -2.1465
 5983SOL     OW18237   5.196   1.486   2.403 -0.6911 -0.2831  0.3101
 5983SOL    HW118238   5.145   1.419   2.456 -2.6506  0.6322 -0.2947
 5983SOL    HW218239   5.207   1.453   2.309 -1.0358 -0.0832  0.1956
 5984SOL     OW18240   3.042   1.643   4.806 -0.5095  0.1379  0.1583
 5984SOL    HW118241   3.080   1.633   4.898  2.6581 -0.0401 -1.0669
 5984SOL    HW218242   3.009   1.554   4.774  0.9673 -0.4332  0.1294
 5985SOL     OW18243   0.820   4.342   1.387 -0.7486 -0.0523  0.4560
 5985SOL    HW118244   0.879   4.419   1.414  0.8342 -0.2560 -2.0689
 5985SOL    HW218245   0.874   4.258   1.386 -1.2046 -0.3500 -1.3593
 5986SOL     OW18246   5.794   0.592   2.674  0.2260 -1.1512  0.1349
 5986SOL    HW118247   5.893   0.582   2.682  0.3299 -1.9961 -1.7685
 5986SOL    HW218248   5.773   0.657   2.602 -0.6332  0.1477  1.5057
 5987SOL     OW18249   3.817   4.973   4.093  0.7471  0.0053 -0.0702
 5987SOL    HW118250   3.720   4.965   4.114  0.9384 -0.9454  0.4882
 5987SOL    HW218251   3.828   5.015   4.003 -0.1473  1.1309  0.3211
 5988SOL     OW18252   1.099   1.635   0.848 -0.3693 -0.2133 -0.5448
 5988SOL    HW118253   1.156   1.696   0.792  1.1668  0.2132  1.3688
 5988SOL    HW218254   1.070   1.683   0.930 -2.1733 -0.9777 -0.6986
 5989SOL     OW18255   2.240   0.957   0.048 -0.2949  0.4398  0.4252
 5989SOL    HW118256   2.145   0.980   0.030  0.1654  1.5870 -0.6428
 5989SOL    HW218257   2.275   0.900  -0.026 -0.4127 -0.8364  1.3137
 5990SOL     OW18258   2.347   5.399   5.843 -0.2839  0.0086 -0.6098
 5990SOL    HW118259   2.387   5.483   5.880 -1.0133  0.6762 -1.2680
 5990SOL    HW218260   2.366   5.322   5.904  0.3300  0.6659  0.0463
 5991SOL     OW18261   5.382   0.266   4.437 -0.2278 -0.4628 -0.2947
 5991SOL    HW118262   5.397   0.224   4.348 -0.3658 -1.0324 -0.0538
 5991SOL    HW218263   5.287   0.254   4.464  0.4701 -3.1078  1.3325
 5992SOL     OW18264   0.672   5.528   2.911  0.1407  0.6188 -0.1637
 5992SOL    HW118265   0.651   5.436   2.877 -0.0017  0.5735  0.0439
 5992SOL    HW218266   0.769   5.532   2.936  0.3545  0.7874 -0.9935
 5993SOL     OW18267   5.641   5.172   3.585 -0.2834 -0.4230 -0.0198
 5993SOL    HW118268   5.666   5.257   3.540 -0.9853 -0.5067 -0.5989
 5993SOL    HW218269   5.692   5.096   3.545 -1.5407 -0.6207 -1.3256
 5994SOL     OW18270   3.805   2.688   4.534  0.4336  0.1414  0.1615
 5994SOL    HW118271   3.883   2.731   4.489  0.6666 -0.1817  0.2546
 5994SOL    HW218272   3.795   2.725   4.626  0.8394 -0.2515  0.3626
 5995SOL     OW18273   4.475   1.090   1.426  0.2387 -0.2290 -0.1945
 5995SOL    HW118274   4.464   1.103   1.525 -0.2191 -1.4588 -0.0744
 5995SOL    HW218275   4.548   1.024   1.409 -0.1829 -0.5779 -0.6570
 5996SOL     OW18276   4.540   4.764   4.173  0.1418 -0.2624 -0.3370
 5996SOL    HW118277   4.441   4.781   4.165  0.2260 -0.6061 -3.1434
 5996SOL    HW218278   4.568   4.779   4.267 -2.5971 -0.2364  0.5813
 5997SOL     OW18279  -0.012   0.343   1.720  0.6008  0.3798 -0.1328
 5997SOL    HW118280   0.043   0.395   1.785  1.4229 -0.9400  0.2852
 5997SOL    HW218281   0.042   0.324   1.638  0.9111 -1.1209  0.3750
 5998SOL     OW18282   5.154   2.798   1.397  0.1045  0.2214  0.1304
 5998SOL    HW118283   5.178   2.753   1.483  1.0377 -0.6451 -0.5600
 5998SOL    HW218284   5.201   2.887   1.393 -0.0788  0.3414  0.5907
 5999SOL     OW18285   3.100   0.116   0.968 -0.0493 -0.2918  0.0759
 5999SOL    HW118286   3.198   0.137   0.972 -0.3025  0.8117  0.9492
 5999SOL    HW218287   3.077   0.088   0.875  1.0107 -0.0903 -0.2712
 6000SOL     OW18288   3.789   3.080   4.184  0.1848 -0.1814 -0.0901
 6000SOL    HW118289   3.725   3.128   4.244  0.4704 -0.8123  0.7460
 6000SOL    HW218290   3.747   3.066   4.095 -0.5242  0.1467  0.1850
 6001SOL     OW18291   5.907   3.722   4.101 -0.4163  0.1045  0.5157
 6001SOL    HW118292   5.842   3.790   4.137 -0.2402  0.4115  0.2613
 6001SOL    HW218293   6.000   3.757   4.110 -0.3998  0.4154 -0.7072
 6002SOL     OW18294   5.097   3.640   4.494  0.0988 -0.2036 -0.3481
 6002SOL    HW118295   5.005   3.642   4.534  0.4041 -0.7715  0.4252
 6002SOL    HW218296   5.103   3.704   4.418 -0.6668  0.5154  0.1897
 6003SOL     OW18297   4.595   3.243   1.702  0.8101 -0.6006 -0.1631
 6003SOL    HW118298   4.596   3.144   1.686  0.5896 -1.1757  2.8402
 6003SOL    HW218299   4.661   3.287   1.641  1.0981 -2.5962 -1.4023
 6004SOL     OW18300   3.140   3.610   0.785  0.2122 -0.3922  0.6911
 6004SOL    HW118301   3.196   3.688   0.811 -0.8775  0.4642  0.5747
 6004SOL    HW218302   3.132   3.606   0.686 -0.1009 -0.3636  0.7118
 6005SOL     OW18303   2.662   0.221   3.521 -0.4720  0.7048 -0.3004
 6005SOL    HW118304   2.621   0.153   3.460 -0.6698  0.2085  0.3593
 6005SOL    HW218305   2.682   0.178   3.609 -0.1751  1.3968 -0.0208
 6006SOL     OW18306   3.724   4.132   5.137 -0.4236  0.1522  0.7996
 6006SOL    HW118307   3.794   4.149   5.068 -0.6762  1.3205  0.8108
 6006SOL    HW218308   3.748   4.180   5.222 -1.8017  1.5557  0.4333
 6007SOL     OW18309   2.023   0.612   0.088  0.2685 -0.1864 -0.2975
 6007SOL    HW118310   2.056   0.665   0.166 -1.4366 -0.1165  0.4221
 6007SOL    HW218311   1.998   0.675   0.014  1.1795 -0.2066 -0.6331
 6008SOL     OW18312   3.631   4.047   3.163 -0.1509  0.1870 -0.1854
 6008SOL    HW118313   3.555   4.041   3.098  0.6280  3.0094 -1.5288
 6008SOL    HW218314   3.716   4.062   3.113  0.4928  2.4059  1.4223
 6009SOL     OW18315   0.594   5.214   0.435  0.1190  0.3366  0.0341
 6009SOL    HW118316   0.617   5.308   0.409  2.2296 -0.1647 -0.0278
 6009SOL    HW218317   0.569   5.163   0.352 -2.9505  1.2595  0.2623
 6010SOL     OW18318   5.107   0.785   5.556  0.4507  0.0072  0.7726
 6010SOL    HW118319   5.011   0.765   5.537  0.1786  0.8605  1.1908
 6010SOL    HW218320   5.151   0.704   5.595 -0.0474 -0.4441  0.4057
 6011SOL     OW18321   5.003   4.251   2.216 -0.0845 -0.3728  0.3091
 6011SOL    HW118322   5.024   4.261   2.313  0.0221  0.7699  0.1761
 6011SOL    HW218323   5.086   4.229   2.166 -0.1897 -1.2655  0.5006
 6012SOL     OW18324   1.148   3.792   0.701 -0.1523 -0.2378  0.2501
 6012SOL    HW118325   1.063   3.787   0.650 -0.4253  0.7839  0.5829
 6012SOL    HW218326   1.145   3.725   0.776 -0.0184 -1.2710 -0.6340
 6013SOL     OW18327   5.297   2.172   5.896  0.6407  0.1508 -0.5609
 6013SOL    HW118328   5.349   2.210   5.972 -0.1522  0.2396 -0.0462
 6013SOL    HW218329   5.355   2.110   5.842  1.5195  0.9329 -0.5353
 6014SOL     OW18330   3.893   5.092   3.344 -0.3363 -0.0200  0.9353
 6014SOL    HW118331   3.978   5.124   3.387  0.6250 -0.5162 -0.5060
 6014SOL    HW218332   3.843   5.170   3.308 -0.9591  0.3655  2.5178
 6015SOL     OW18333   0.015   2.438   4.514  0.5823  0.2426  0.6534
 6015SOL    HW118334  -0.030   2.527   4.512  0.9470  0.4255  0.4753
 6015SOL    HW218335   0.048   2.419   4.606 -0.2718 -0.1033  0.8918
 6016SOL     OW18336   0.257   4.396   2.939  0.3269  0.1347  0.4495
 6016SOL    HW118337   0.288   4.475   2.993  1.8091  1.1597 -1.7751
 6016SOL    HW218338   0.336   4.344   2.908 -0.4894 -0.4313 -0.7232
 6017SOL     OW18339   0.074   0.310   4.912 -0.1557  0.5784  0.1818
 6017SOL    HW118340   0.039   0.305   4.818 -0.3646  2.0506  0.1560
 6017SOL    HW218341   0.157   0.255   4.919 -1.0265 -0.8834 -0.4209
 6018SOL     OW18342   4.907   1.468   4.074  1.0582 -0.4338  0.2229
 6018SOL    HW118343   4.829   1.433   4.022  1.7539 -1.6255 -0.0609
 6018SOL    HW218344   4.903   1.568   4.077 -0.8929 -0.4902  0.8926
 6019SOL     OW18345   1.874   0.134   3.234  0.4644 -0.1882 -0.0930
 6019SOL    HW118346   1.895   0.042   3.268 -1.4072 -0.7277 -0.3074
 6019SOL    HW218347   1.924   0.150   3.149  0.5289 -1.1624 -0.2513
 6020SOL     OW18348   5.363   1.704   0.950 -0.1298 -0.2374 -0.6107
 6020SOL    HW118349   5.424   1.783   0.941  2.4244 -1.9894  0.2776
 6020SOL    HW218350   5.317   1.688   0.862  1.8011  0.3310 -1.8042
 6021SOL     OW18351   5.851   0.370   4.074  0.2069  0.1794  0.3227
 6021SOL    HW118352   5.893   0.379   3.984 -0.2251 -0.3116  0.0604
 6021SOL    HW218353   5.775   0.435   4.082 -2.8780 -2.8020 -1.5492
 6022SOL     OW18354   1.223   3.823   1.421  0.1499 -0.4323  0.3116
 6022SOL    HW118355   1.242   3.919   1.441  1.9864 -0.3506 -1.5872
 6022SOL    HW218356   1.127   3.814   1.395  0.0936  1.0056 -0.0867
 6023SOL     OW18357   4.279   5.927   1.315 -0.0521 -0.1786  0.5328
 6023SOL    HW118358   4.329   5.897   1.397  0.7721 -0.1487  0.0518
 6023SOL    HW218359   4.325   6.006   1.275 -0.5158 -0.1213  0.0971
 6024SOL     OW18360   0.811   0.498   5.817 -0.4709  0.2056  0.0096
 6024SOL    HW118361   0.861   0.422   5.776  2.0979  1.1061  1.2950
 6024SOL    HW218362   0.735   0.462   5.872  0.4429 -1.3936  0.2759
 6025SOL     OW18363   1.179   1.490   2.959 -0.2382 -0.0009  0.1237
 6025SOL    HW118364   1.106   1.438   3.003 -0.7250  0.2227 -0.4160
 6025SOL    HW218365   1.197   1.452   2.868 -0.2460  0.4550 -0.0689
 6026SOL     OW18366   0.236   3.739   3.414 -0.4948 -0.1963  0.0660
 6026SOL    HW118367   0.291   3.748   3.331  0.9811 -0.8048  0.9546
 6026SOL    HW218368   0.176   3.819   3.422 -0.5319 -0.0252 -1.4577
 6027SOL     OW18369   0.155   4.762   4.773 -0.4836 -0.0941 -0.6779
 6027SOL    HW118370   0.186   4.785   4.866  0.7545  0.3408 -1.1799
 6027SOL    HW218371   0.062   4.797   4.759  0.0962  1.6807 -0.2939
 6028SOL     OW18372   5.647   0.323   0.925 -0.0250  0.6026 -0.1478
 6028SOL    HW118373   5.575   0.312   0.993 -1.3718  1.3566 -1.3929
 6028SOL    HW218374   5.619   0.278   0.839  1.5404 -0.1575 -0.3014
 6029SOL     OW18375   5.324   5.201   5.471 -0.3761  0.2108 -0.0697
 6029SOL    HW118376   5.405   5.179   5.416 -1.4613 -2.3273 -0.8005
 6029SOL    HW218377   5.261   5.257   5.417  0.2434  0.9768 -0.0107
 6030SOL     OW18378   0.183   2.443   0.996  0.3288  0.1233 -0.5894
 6030SOL    HW118379   0.218   2.442   0.902  1.0275 -0.1633 -0.3269
 6030SOL    HW218380   0.119   2.367   1.008 -0.1345  0.4442 -0.9666
 6031SOL     OW18381   4.854   1.202   1.456  0.7246 -0.0268 -0.4623
 6031SOL    HW118382   4.897   1.287   1.486  0.2508  0.3026 -0.7070
 6031SOL    HW218383   4.795   1.220   1.377  0.5190 -0.5559 -0.4335
 6032SOL     OW18384   5.746   0.323   5.270 -0.3783 -0.3598 -0.5769
 6032SOL    HW118385   5.694   0.398   5.230 -0.2175  0.3033  0.4277
 6032SOL    HW218386   5.717   0.237   5.229 -0.7898  0.2140 -1.5155
 6033SOL     OW18387   1.224   3.805   2.423  0.4528 -0.6934  0.6409
 6033SOL    HW118388   1.248   3.712   2.398  1.4908 -0.3590  0.3533
 6033SOL    HW218389   1.181   3.851   2.344  0.7353 -0.6629  0.5029
 6034SOL     OW18390   1.032   1.758   4.600  0.0544 -0.5398  0.4722
 6034SOL    HW118391   1.011   1.750   4.698  0.4673  0.4862  0.6568
 6034SOL    HW218392   1.126   1.787   4.588  0.2144 -1.3136 -0.2639
 6035SOL     OW18393   3.845   5.511   2.368  0.3132  0.2463  0.1851
 6035SOL    HW118394   3.938   5.489   2.397  0.8616  0.9173 -0.9948
 6035SOL    HW218395   3.795   5.427   2.348  1.6917 -0.0930 -2.2135
 6036SOL     OW18396   3.610   5.100   3.418  0.1408 -0.1807 -0.0815
 6036SOL    HW118397   3.653   5.189   3.405 -1.3871  0.6124  0.0869
 6036SOL    HW218398   3.681   5.030   3.431  1.3599  1.2523  1.3863
 6037SOL     OW18399   2.968   3.520   5.857  0.4335  0.3414 -0.5113
 6037SOL    HW118400   3.035   3.509   5.931 -1.7116  0.9612  1.6844
 6037SOL    HW218401   2.999   3.591   5.794  2.5149 -0.4635 -0.4629
 6038SOL     OW18402   0.088   4.242   2.346  0.2766  0.0852  0.4786
 6038SOL    HW118403   0.101   4.294   2.262 -0.5022  0.5434  0.6361
 6038SOL    HW218404   0.033   4.294   2.411 -1.4394 -1.3123  0.2388
 6039SOL     OW18405   2.717   3.549   5.470 -0.0186 -0.2706 -0.3497
 6039SOL    HW118406   2.707   3.580   5.376  0.3309  2.3235  0.3863
 6039SOL    HW218407   2.649   3.593   5.528  1.3797  0.2062  1.0166
 6040SOL     OW18408   2.454   0.062   1.358  0.4708 -0.1525 -0.2684
 6040SOL    HW118409   2.434   0.155   1.329  0.1070 -0.9166 -2.6852
 6040SOL    HW218410   2.415   0.046   1.449 -0.0852  1.8126 -0.1308
 6041SOL     OW18411   3.889   0.082   4.321 -0.4768 -0.2282 -0.4093
 6041SOL    HW118412   3.850  -0.010   4.323 -1.7467  0.2887 -0.4720
 6041SOL    HW218413   3.819   0.147   4.295  0.3476  0.8024 -0.1179
 6042SOL     OW18414   2.919   2.147   5.170 -0.0090  0.0471 -0.7714
 6042SOL    HW118415   2.935   2.086   5.248 -1.1872  0.5586 -0.1059
 6042SOL    HW218416   2.958   2.237   5.189  0.1874  0.0098 -1.0022
 6043SOL     OW18417   0.728   2.789   4.268  0.6312  0.1871  0.6474
 6043SOL    HW118418   0.772   2.700   4.258 -1.9253 -1.0269 -1.1451
 6043SOL    HW218419   0.691   2.797   4.360  1.8070 -0.1184  1.1638
 6044SOL     OW18420   5.625   2.583   4.198 -0.2261  0.2442 -0.1658
 6044SOL    HW118421   5.557   2.532   4.251  1.3992  0.8998  2.7904
 6044SOL    HW218422   5.580   2.656   4.146 -1.7405  1.5088  2.7111
 6045SOL     OW18423   3.163   0.369   3.953  0.1515 -0.4521  0.0842
 6045SOL    HW118424   3.105   0.416   4.020 -0.5952 -1.1052 -0.0824
 6045SOL    HW218425   3.185   0.432   3.878  0.1028 -0.0368  0.4156
 6046SOL     OW18426   0.179   2.728   4.275 -0.1124  0.5167 -0.7123
 6046SOL    HW118427   0.186   2.754   4.179 -2.3837  0.1085 -1.0403
 6046SOL    HW218428   0.092   2.760   4.312 -0.5364 -1.6911  0.3964
 6047SOL     OW18429   2.310   4.380   2.930 -0.4178 -0.2752  0.8089
 6047SOL    HW118430   2.272   4.304   2.876  0.6461 -0.1663 -0.1291
 6047SOL    HW218431   2.251   4.460   2.921 -0.4659 -0.3822  0.1300
 6048SOL     OW18432   3.818   1.410   3.864  0.1364  0.1210 -0.0446
 6048SOL    HW118433   3.731   1.361   3.855  0.4233 -0.5665  0.7344
 6048SOL    HW218434   3.800   1.507   3.882 -0.5793 -0.3958  2.5073
 6049SOL     OW18435   3.218   4.937   4.255 -0.3946  0.1962 -0.7481
 6049SOL    HW118436   3.242   4.840   4.249 -0.0261  0.2478 -0.1616
 6049SOL    HW218437   3.195   4.971   4.164  1.6190  0.1105 -1.3328
 6050SOL     OW18438   2.124   2.657   0.286  0.4349 -0.0758 -0.4871
 6050SOL    HW118439   2.066   2.587   0.328  0.0571  0.9100  0.6785
 6050SOL    HW218440   2.220   2.637   0.307  0.5580 -1.5048 -2.1142
 6051SOL     OW18441   3.423   0.366   1.174  0.4959  0.2114  0.3328
 6051SOL    HW118442   3.390   0.280   1.214  1.3865 -0.3724 -0.1660
 6051SOL    HW218443   3.348   0.432   1.171 -0.3825 -0.7772  0.0862
 6052SOL     OW18444   1.582   5.196   5.912 -0.1019 -0.1649 -0.5548
 6052SOL    HW118445   1.581   5.258   5.834  1.6483 -0.0216 -0.4932
 6052SOL    HW218446   1.637   5.115   5.890 -1.3009 -1.1301 -0.1778
 6053SOL     OW18447   0.466   4.482   5.162  0.0046  0.5999 -0.2565
 6053SOL    HW118448   0.395   4.416   5.139  0.3818 -1.2491  3.2717
 6053SOL    HW218449   0.554   4.451   5.125 -0.2479  0.5632 -0.8442
 6054SOL     OW18450   3.323   5.588   1.395  0.8609 -0.8206  0.4638
 6054SOL    HW118451   3.403   5.637   1.432 -1.1039  4.0715 -0.8926
 6054SOL    HW218452   3.247   5.596   1.460 -0.7033  2.0266 -1.4614
 6055SOL     OW18453   1.609   3.012   2.013 -0.1183  0.3839  0.3520
 6055SOL    HW118454   1.576   2.950   1.943 -0.2919  0.6124  0.2312
 6055SOL    HW218455   1.534   3.035   2.076 -0.3253  1.2966 -0.2127
 6056SOL     OW18456   4.853   4.637   3.029  0.2368  0.3681  0.1156
 6056SOL    HW118457   4.945   4.622   2.993 -0.0490  0.7719 -0.8223
 6056SOL    HW218458   4.817   4.723   2.993 -1.6906 -1.2248 -2.1483
 6057SOL     OW18459   5.626   0.284   3.162 -0.2520  0.1664  0.1192
 6057SOL    HW118460   5.689   0.337   3.106  2.9619 -2.9279  0.4418
 6057SOL    HW218461   5.651   0.294   3.258  1.0715 -2.4072  0.1416
 6058SOL     OW18462   3.700   3.888   0.408 -0.3555 -0.7102 -0.1944
 6058SOL    HW118463   3.736   3.848   0.492  0.2387 -0.7924 -0.4820
 6058SOL    HW218464   3.614   3.935   0.427 -0.7195 -1.5409  0.2813
 6059SOL     OW18465   0.508   3.709   5.052 -0.5907  0.2203  0.4567
 6059SOL    HW118466   0.554   3.729   5.139  0.0135 -0.0994  0.2147
 6059SOL    HW218467   0.570   3.660   4.992 -0.7794  1.0376 -0.4284
 6060SOL     OW18468   0.668   0.557   4.191  0.6008  0.1937 -0.1614
 6060SOL    HW118469   0.625   0.575   4.279 -0.5464  0.0467 -0.6703
 6060SOL    HW218470   0.735   0.628   4.171  1.6465 -0.3528  1.3006
 6061SOL     OW18471   4.056   1.563   1.662  0.3261 -0.0137 -0.3330
 6061SOL    HW118472   4.031   1.650   1.705 -0.2804  0.4257 -1.5342
 6061SOL    HW218473   4.120   1.514   1.722  0.3205  1.0348  0.5760
 6062SOL     OW18474   4.117   5.008   5.161  0.2245 -0.1150  0.0995
 6062SOL    HW118475   4.063   5.091   5.145  1.1167  0.4307 -0.2079
 6062SOL    HW218476   4.201   5.032   5.208  0.4603 -0.8624  0.0730
 6063SOL     OW18477   4.666   0.809   0.761  0.1956  0.0979  0.1390
 6063SOL    HW118478   4.625   0.763   0.682  0.1943  0.0339  0.1764
 6063SOL    HW218479   4.734   0.748   0.802 -0.2489 -0.1210  0.5618
 6064SOL     OW18480   1.755   4.240   2.824 -0.4682 -0.1553  0.1223
 6064SOL    HW118481   1.753   4.141   2.810 -0.1691 -0.0818 -0.4444
 6064SOL    HW218482   1.670   4.280   2.789  0.6970  0.1553 -2.5725
 6065SOL     OW18483   2.584   2.789   4.995  0.2300 -0.2437 -0.0894
 6065SOL    HW118484   2.610   2.693   4.982  2.4166  0.2711  0.1761
 6065SOL    HW218485   2.593   2.839   4.909  0.2369 -0.0284  0.0346
 6066SOL     OW18486   2.810   3.924   0.120 -0.4508  0.1241 -0.1580
 6066SOL    HW118487   2.833   3.850   0.184  1.1359  1.3743  0.7904
 6066SOL    HW218488   2.890   3.983   0.107 -1.4615  1.2807 -1.4613
 6067SOL     OW18489   0.580   2.189   0.240 -0.1722 -0.0139 -0.2477
 6067SOL    HW118490   0.518   2.248   0.291  0.5320  0.0551  0.5515
 6067SOL    HW218491   0.675   2.213   0.262  0.2143  1.0492 -2.7223
 6068SOL     OW18492   3.117   0.779   1.125  0.0406 -0.2791 -0.2754
 6068SOL    HW118493   3.024   0.759   1.095  0.5119 -2.3927 -0.5344
 6068SOL    HW218494   3.154   0.699   1.174  1.9468  0.2332 -0.7882
 6069SOL     OW18495   5.015   5.590   3.729 -0.1456  0.4321  0.8839
 6069SOL    HW118496   4.943   5.564   3.793 -0.7104  1.2359  0.5934
 6069SOL    HW218497   5.095   5.531   3.743 -0.8129 -0.4071  1.2771
 6070SOL     OW18498   5.336   2.531   0.246  0.4060  0.3534  0.2556
 6070SOL    HW118499   5.384   2.605   0.291 -1.0328  1.4661  0.0544
 6070SOL    HW218500   5.281   2.481   0.313 -1.2635  1.6322 -0.0954
 6071SOL     OW18501   0.487   3.826   2.188 -0.0085 -0.2930 -0.4235
 6071SOL    HW118502   0.578   3.828   2.144  0.1032 -1.3952 -0.2722
 6071SOL    HW218503   0.435   3.907   2.160  0.7357 -0.0430 -1.1385
 6072SOL     OW18504   1.227   4.413   5.419 -0.0635 -0.2026  0.0957
 6072SOL    HW118505   1.295   4.368   5.476  0.6875  0.7796 -0.0116
 6072SOL    HW218506   1.214   4.507   5.449  0.2289  0.2906 -1.2376
 6073SOL     OW18507   2.886   1.793   5.094 -0.8271 -0.1982  0.1812
 6073SOL    HW118508   2.984   1.773   5.096 -0.2039  2.4643  0.3517
 6073SOL    HW218509   2.835   1.711   5.120  1.3927 -1.2480  1.5901
 6074SOL     OW18510   5.186   4.972   5.379 -0.2887  0.0771  0.1994
 6074SOL    HW118511   5.087   4.980   5.369 -0.2298  1.6687  0.6209
 6074SOL    HW218512   5.222   5.057   5.418  1.6039  0.7021 -2.6402
 6075SOL     OW18513   2.718   3.757   5.277  0.6847  0.2748  0.2887
 6075SOL    HW118514   2.763   3.847   5.274  0.8322  0.2085  0.4601
 6075SOL    HW218515   2.629   3.763   5.232  1.8884 -0.1850 -2.3771
 6076SOL     OW18516   2.591   1.672   0.933  0.5756  0.2659  0.1814
 6076SOL    HW118517   2.537   1.736   0.987  0.2793  0.7171 -0.6365
 6076SOL    HW218518   2.648   1.722   0.869  1.8811 -0.2094  0.9352
 6077SOL     OW18519   4.972   5.761   2.927 -0.1640 -0.5387 -0.3943
 6077SOL    HW118520   5.007   5.816   2.851  0.1380 -1.9752 -1.3495
 6077SOL    HW218521   4.922   5.682   2.891 -0.6783 -0.8488  0.9222
 6078SOL     OW18522   5.228   3.414   3.443 -0.2694 -0.1342  0.4840
 6078SOL    HW118523   5.224   3.383   3.538 -0.9921 -0.4906  0.3504
 6078SOL    HW218524   5.315   3.388   3.403 -0.7117 -1.7235  0.4843
 6079SOL     OW18525   4.515   5.920   5.525 -0.5203 -0.6019  0.0925
 6079SOL    HW118526   4.553   5.929   5.433  1.9450 -0.6121  1.0305
 6079SOL    HW218527   4.439   5.854   5.524  0.9374 -2.3893 -1.5625
 6080SOL     OW18528   0.135   2.184   0.343 -0.4494 -1.0917 -0.4694
 6080SOL    HW118529   0.224   2.228   0.353  0.1846 -2.2582 -0.7469
 6080SOL    HW218530   0.082   2.196   0.426  0.7520 -2.0245  0.4815
 6081SOL     OW18531   2.417   0.452   3.781  0.2444 -0.2301 -0.6154
 6081SOL    HW118532   2.470   0.520   3.731  1.1875 -0.4811  0.0169
 6081SOL    HW218533   2.479   0.388   3.827 -0.6103 -0.6732 -0.0471
 6082SOL     OW18534   0.072   4.309   3.562 -0.7225  0.0137  0.1260
 6082SOL    HW118535   0.004   4.239   3.541 -0.9633 -0.4270  2.1820
 6082SOL    HW218536   0.047   4.356   3.646 -0.3098  2.2943 -0.9639
 6083SOL     OW18537   3.994   5.652   2.556  0.3543 -0.4448 -0.7365
 6083SOL    HW118538   3.917   5.613   2.505 -0.1380 -0.2088 -0.1891
 6083SOL    HW218539   3.964   5.735   2.603  0.4216 -1.3917  1.0489
 6084SOL     OW18540   5.118   0.968   3.062  0.0546 -0.0443  0.0118
 6084SOL    HW118541   5.195   0.939   3.005  0.6973 -2.5556  1.9792
 6084SOL    HW218542   5.135   1.060   3.096  1.5547 -0.0472 -0.6382
 6085SOL     OW18543   0.507   1.720   1.574 -0.1135  0.0697  0.2890
 6085SOL    HW118544   0.428   1.775   1.598  0.1479 -0.0897  1.5728
 6085SOL    HW218545   0.484   1.623   1.581  0.4228  0.0096  1.5838
 6086SOL     OW18546   2.134   4.321   1.327 -0.0098  0.2340  0.5101
 6086SOL    HW118547   2.034   4.317   1.332 -0.2108  0.0133 -2.3266
 6086SOL    HW218548   2.166   4.405   1.369 -1.5557  1.1656 -0.0906
 6087SOL     OW18549   4.101   1.744   0.534  0.0115 -0.3566  0.4429
 6087SOL    HW118550   4.035   1.706   0.469 -0.1052  0.9202 -0.2307
 6087SOL    HW218551   4.146   1.670   0.584 -0.9554 -1.3017 -0.0548
 6088SOL     OW18552   3.790   3.384   1.596 -0.0183  0.3546 -0.1348
 6088SOL    HW118553   3.705   3.414   1.554  0.0491  0.6808 -0.0450
 6088SOL    HW218554   3.867   3.425   1.548  0.0665  0.5669  0.1775
 6089SOL     OW18555   3.032   0.896   0.655 -0.0437 -1.0448  0.3175
 6089SOL    HW118556   2.998   0.975   0.706 -2.4349 -1.5158 -0.4364
 6089SOL    HW218557   3.119   0.867   0.694  0.4648  1.3866  1.1836
 6090SOL     OW18558   3.120   3.916   5.263  0.1384  0.5788  0.1765
 6090SOL    HW118559   3.125   3.978   5.341  0.4058 -0.4693  1.0138
 6090SOL    HW218560   3.213   3.885   5.240  0.0006  0.4515 -0.2119
 6091SOL     OW18561   1.251   4.533   0.208 -0.3264 -0.4501 -0.5281
 6091SOL    HW118562   1.192   4.452   0.212 -1.4820  0.4175  0.4487
 6091SOL    HW218563   1.233   4.583   0.123 -1.1864 -0.0710 -0.1354
 6092SOL     OW18564   4.698   5.522   1.040 -0.0715 -0.1587  0.4899
 6092SOL    HW118565   4.644   5.443   1.013  1.3486 -1.0510  0.1462
 6092SOL    HW218566   4.764   5.495   1.110 -0.4160  1.0251  1.3054
 6093SOL     OW18567   0.938   2.315   1.540 -0.1322 -0.4455  0.6293
 6093SOL    HW118568   0.893   2.354   1.621 -1.0795 -1.2556  0.5124
 6093SOL    HW218569   0.872   2.309   1.465  0.8250  0.6181 -0.3366
 6094SOL     OW18570   1.315   0.755   0.891  0.3837 -0.1792 -0.0462
 6094SOL    HW118571   1.371   0.743   0.973  1.1301 -1.3003 -0.6927
 6094SOL    HW218572   1.269   0.844   0.894  0.6736 -0.0666  1.4119
 6095SOL     OW18573   3.007   2.322   0.111  0.0113 -0.1393 -0.4782
 6095SOL    HW118574   3.051   2.238   0.143 -1.8244 -0.8929  0.1828
 6095SOL    HW218575   2.981   2.378   0.190 -0.2788  0.2501 -0.8459
 6096SOL     OW18576   0.651   1.030   4.689  0.1023 -0.5038  0.1790
 6096SOL    HW118577   0.701   1.117   4.701  0.1825 -0.3378 -1.2289
 6096SOL    HW218578   0.591   1.016   4.767 -0.9712  1.5385 -0.1965
 6097SOL     OW18579   5.183   4.090   0.721  0.2357 -0.0599  0.3051
 6097SOL    HW118580   5.188   4.003   0.772 -0.9285 -1.1801 -1.3962
 6097SOL    HW218581   5.224   4.078   0.631 -2.7761  0.1039 -1.2238
 6098SOL     OW18582   3.395   3.711   0.116  0.2083 -0.4029  0.0519
 6098SOL    HW118583   3.397   3.614   0.093  1.4224 -0.2090 -0.7369
 6098SOL    HW218584   3.463   3.760   0.062  0.7851  0.6264  1.6183
 6099SOL     OW18585  -0.009   4.511   2.098 -0.4005  0.1363  0.3870
 6099SOL    HW118586  -0.061   4.500   2.013 -0.1476  0.1730  0.2249
 6099SOL    HW218587   0.076   4.458   2.092 -0.6803 -0.3746  0.8733
 6100SOL     OW18588   1.826   2.954   4.791  0.7643 -0.0519 -0.5667
 6100SOL    HW118589   1.793   2.893   4.719 -1.2320  1.4142 -0.9931
 6100SOL    HW218590   1.820   3.049   4.760 -1.0055  0.7059  1.7516
 6101SOL     OW18591   4.874   4.827   2.630 -0.1337 -0.4123 -0.1318
 6101SOL    HW118592   4.852   4.912   2.581 -0.9149  1.5121  3.2416
 6101SOL    HW218593   4.789   4.784   2.660  0.2656  0.4197  2.4486
 6102SOL     OW18594   3.955   2.439   3.472  0.2227  0.3489 -0.3585
 6102SOL    HW118595   3.979   2.359   3.527  0.2172  0.4663 -0.1849
 6102SOL    HW218596   3.986   2.425   3.378  1.5323  0.7427 -0.0132
 6103SOL     OW18597   5.181   0.473   0.226  0.3264  0.1688  0.1615
 6103SOL    HW118598   5.178   0.509   0.133 -0.7179 -0.6667 -0.1515
 6103SOL    HW218599   5.113   0.520   0.282 -1.5675 -1.7155 -0.4365
 6104SOL     OW18600   2.334   3.698   5.493 -0.5721  0.2747 -0.2909
 6104SOL    HW118601   2.275   3.778   5.504 -0.7708  0.0906 -0.0142
 6104SOL    HW218602   2.420   3.712   5.541 -1.1569 -0.2415  0.9525
 6105SOL     OW18603   2.691   3.239   1.231  0.4208 -0.3633 -0.5116
 6105SOL    HW118604   2.645   3.169   1.177 -1.6998  0.2582  0.3691
 6105SOL    HW218605   2.721   3.313   1.170  0.4037 -0.8544 -1.1329
 6106SOL     OW18606   1.901   5.255   0.197 -0.3989  0.1998 -0.5070
 6106SOL    HW118607   1.894   5.305   0.111 -3.2876 -1.6540 -1.4815
 6106SOL    HW218608   1.871   5.314   0.272 -0.8463  0.8638 -1.2007
 6107SOL     OW18609   5.829   3.840   2.937  0.3902  0.4609  0.0581
 6107SOL    HW118610   5.734   3.811   2.928  0.9493 -2.1591  1.6141
 6107SOL    HW218611   5.883   3.800   2.863  0.9196 -1.5728  1.4458
 6108SOL     OW18612   5.378   5.199   5.723 -0.1167  0.7345  0.1539
 6108SOL    HW118613   5.389   5.109   5.763 -2.2629  0.3785  0.0403
 6108SOL    HW218614   5.358   5.190   5.625 -0.6321  1.3085  0.2006
 6109SOL     OW18615   4.993   1.647   5.474 -0.5231  0.2352  0.0905
 6109SOL    HW118616   4.931   1.617   5.402 -0.1551 -1.5523  0.4654
 6109SOL    HW218617   5.085   1.615   5.456  0.0878  1.8217  0.1695
 6110SOL     OW18618   1.568   3.614   2.793 -0.6518  0.0664  0.6458
 6110SOL    HW118619   1.538   3.525   2.827 -0.7460  0.5602  1.9062
 6110SOL    HW218620   1.495   3.680   2.804 -0.7262  0.2368 -0.6631
 6111SOL     OW18621   5.647   3.127   2.585 -0.1321  0.0028 -0.3689
 6111SOL    HW118622   5.598   3.041   2.598  0.4732 -0.2216  0.5323
 6111SOL    HW218623   5.581   3.199   2.562 -0.4681 -0.9903 -2.7696
 6112SOL     OW18624   1.518   2.699   1.098  0.1063 -0.2426 -0.4871
 6112SOL    HW118625   1.618   2.711   1.100  0.1275 -0.0194 -1.9526
 6112SOL    HW218626   1.497   2.608   1.063 -0.2076  0.4485 -2.1827
 6113SOL     OW18627   1.865   2.933   5.480  0.1532  0.5945  0.2393
 6113SOL    HW118628   1.774   2.903   5.510  1.0644 -0.9272  1.7068
 6113SOL    HW218629   1.894   2.879   5.402  0.4954 -0.1971  0.8951
 6114SOL     OW18630   5.150   2.033   3.773  0.3315 -0.8960  0.4062
 6114SOL    HW118631   5.139   2.097   3.849  2.1473 -0.8484  0.6679
 6114SOL    HW218632   5.065   1.980   3.761 -1.1376  1.3583  0.3164
 6115SOL     OW18633   1.658   5.046   3.693  0.2286 -0.0504  0.3734
 6115SOL    HW118634   1.618   5.022   3.604 -0.2197  0.0559  0.5400
 6115SOL    HW218635   1.643   4.970   3.756  0.9688 -0.3219  0.2305
 6116SOL     OW18636   2.412   0.244   5.624 -0.3150 -0.1894  0.3987
 6116SOL    HW118637   2.462   0.274   5.705  1.6196  1.4734 -1.2870
 6116SOL    HW218638   2.319   0.282   5.626  0.1037  0.8294  1.2746
 6117SOL     OW18639   1.107   2.454   1.366  0.0364  0.4022  0.0179
 6117SOL    HW118640   1.154   2.521   1.424  1.9131 -0.8920  0.0955
 6117SOL    HW218641   1.054   2.392   1.424 -0.9195  1.2030  0.0233
 6118SOL     OW18642   3.094   4.341   5.949  0.3892  0.0354 -0.1296
 6118SOL    HW118643   3.129   4.407   6.015 -0.2173 -0.3949  0.6355
 6118SOL    HW218644   3.153   4.339   5.868 -0.6343  2.9420 -1.0618
 6119SOL     OW18645   1.766   2.183   4.789 -0.1894  0.4249 -0.2188
 6119SOL    HW118646   1.761   2.129   4.873 -0.2581  0.4610 -0.1997
 6119SOL    HW218647   1.676   2.186   4.746 -0.2809  0.8507 -0.0145
 6120SOL     OW18648   4.316   2.233   5.017 -0.2288 -0.0261 -0.0982
 6120SOL    HW118649   4.283   2.213   4.925 -0.4477  1.0143 -0.2691
 6120SOL    HW218650   4.336   2.148   5.065 -1.9791 -0.6598 -0.4234
 6121SOL     OW18651   4.178   2.693   1.597  0.1164  0.1195 -0.5647
 6121SOL    HW118652   4.165   2.717   1.694 -0.7545  0.2378 -0.7082
 6121SOL    HW218653   4.162   2.774   1.541  2.7727  0.6525 -0.6962
 6122SOL     OW18654   2.335   5.929   0.334 -0.0649  0.8500 -0.3034
 6122SOL    HW118655   2.265   5.883   0.280  1.0309  0.4098 -1.4118
 6122SOL    HW218656   2.301   5.943   0.427 -1.6339  0.7411 -0.8265
 6123SOL     OW18657   2.789   1.821   0.808 -0.4197 -0.4238 -0.3335
 6123SOL    HW118658   2.839   1.814   0.722 -1.7941 -0.2599 -1.1923
 6123SOL    HW218659   2.852   1.818   0.885  1.0967  1.6580 -1.3863
 6124SOL     OW18660   3.696   2.493   2.104 -1.0123 -0.1131 -0.3256
 6124SOL    HW118661   3.670   2.397   2.091 -4.0982  0.5669  0.1377
 6124SOL    HW218662   3.642   2.551   2.043  1.0270  1.3958 -0.8374
 6125SOL     OW18663   3.273   5.267   3.194 -0.4761  0.4166 -0.2367
 6125SOL    HW118664   3.190   5.312   3.229 -0.4374  0.3622 -0.0744
 6125SOL    HW218665   3.250   5.216   3.111 -0.9944 -1.0375  0.7630
 6126SOL     OW18666   5.238   4.259   2.064  0.1285  0.3601 -0.5038
 6126SOL    HW118667   5.283   4.310   2.137  1.9392 -1.0967 -0.5255
 6126SOL    HW218668   5.260   4.300   1.975  1.7042 -0.4649 -0.5331
 6127SOL     OW18669   4.377   1.531   0.736 -0.5592 -0.3046  0.3390
 6127SOL    HW118670   4.289   1.524   0.689 -0.4244 -1.4891  0.2419
 6127SOL    HW218671   4.407   1.440   0.765 -0.8892  0.3776  3.1921
 6128SOL     OW18672   2.658   5.118   1.617  0.1408 -0.0135  0.5938
 6128SOL    HW118673   2.729   5.047   1.618 -0.0465 -0.2308 -0.3267
 6128SOL    HW218674   2.583   5.091   1.677 -1.2805 -2.0670 -1.8984
 6129SOL     OW18675   3.957   4.327   5.814 -0.1906 -0.0195 -0.1373
 6129SOL    HW118676   3.952   4.264   5.737 -3.2420 -0.0151 -0.0561
 6129SOL    HW218677   3.906   4.410   5.793  1.4426  1.2930  0.8118
 6130SOL     OW18678   0.027   3.376   3.311 -0.6757  0.6419 -0.0006
 6130SOL    HW118679   0.080   3.420   3.384  0.2910 -0.2319 -0.1469
 6130SOL    HW218680   0.041   3.426   3.225 -1.4073  1.3703  0.2909
 6131SOL     OW18681   2.432   3.491   1.589 -0.4342 -0.5981  0.2976
 6131SOL    HW118682   2.475   3.534   1.509 -1.7055  1.1007  0.4737
 6131SOL    HW218683   2.499   3.483   1.662  0.4125 -0.9886 -0.4962
 6132SOL     OW18684   0.214   4.450   0.019  0.4651 -0.0403 -0.2786
 6132SOL    HW118685   0.276   4.381  -0.019  0.4827 -0.2404  0.1028
 6132SOL    HW218686   0.190   4.425   0.113  0.3720  0.4123 -0.1793
 6133SOL     OW18687   5.656   1.023   3.806  0.1012  0.3674 -0.0329
 6133SOL    HW118688   5.728   1.060   3.865 -0.0446  0.7020 -0.0652
 6133SOL    HW218689   5.671   0.924   3.794 -0.7761 -0.0456  1.8771
 6134SOL     OW18690   2.640   2.490   4.260 -0.3417  0.2371  0.2795
 6134SOL    HW118691   2.696   2.490   4.344  0.3225 -0.4337 -0.1537
 6134SOL    HW218692   2.604   2.398   4.245  1.8151 -0.3829 -1.6343
 6135SOL     OW18693   3.182   0.495   1.570  0.6391  0.3663  1.0920
 6135SOL    HW118694   3.238   0.420   1.536 -2.9989 -1.0577 -2.7223
 6135SOL    HW218695   3.114   0.459   1.634 -0.6158  0.3985 -0.1547
 6136SOL     OW18696   1.825   3.600   1.961 -0.6958  0.1626 -0.1231
 6136SOL    HW118697   1.851   3.604   1.864  1.6568 -0.7616  0.4171
 6136SOL    HW218698   1.825   3.693   1.999 -1.4638  0.5144 -0.9448
 6137SOL     OW18699   4.093   4.912   1.556  0.4682  0.2212  0.5702
 6137SOL    HW118700   4.188   4.902   1.527  0.0708 -3.2029  0.0141
 6137SOL    HW218701   4.081   4.868   1.645 -0.5003  1.1423  0.9144
 6138SOL     OW18702   0.814   3.491   1.399 -0.2778  0.5576 -0.1676
 6138SOL    HW118703   0.724   3.447   1.401  0.9360 -2.1671 -1.6995
 6138SOL    HW218704   0.858   3.480   1.488 -1.3721  1.9067  0.5928
 6139SOL     OW18705   2.897   0.078   1.985  0.5701  0.2898 -0.6902
 6139SOL    HW118706   2.984   0.039   2.014  1.3243  1.9243 -0.5999
 6139SOL    HW218707   2.897   0.176   2.004 -1.1955  0.3758 -0.9529
 6140SOL     OW18708   5.797   1.079   5.327  0.1645  0.1775 -0.0850
 6140SOL    HW118709   5.738   1.116   5.399 -1.5467 -1.8017 -0.3634
 6140SOL    HW218710   5.749   1.086   5.239  1.1708  0.2795 -0.6309
 6141SOL     OW18711   3.625   1.231   1.724  0.7213 -0.5031  0.7999
 6141SOL    HW118712   3.556   1.163   1.703 -0.1819  0.5723  0.1903
 6141SOL    HW218713   3.586   1.322   1.715  2.5044  0.1681 -0.6743
 6142SOL     OW18714   4.038   1.023   3.816 -0.0697  0.1891  0.3883
 6142SOL    HW118715   4.066   1.107   3.861 -0.6303  1.1633 -0.9933
 6142SOL    HW218716   3.938   1.021   3.808 -0.0919 -0.8316  0.8000
 6143SOL     OW18717   5.231   5.449   3.710  0.3348 -0.4495 -0.6560
 6143SOL    HW118718   5.292   5.501   3.769 -1.1220 -1.1576  1.5946
 6143SOL    HW218719   5.250   5.471   3.614  1.4480  2.2640  0.1091
 6144SOL     OW18720   2.756   2.015   1.949  0.1952 -0.6766  0.3290
 6144SOL    HW118721   2.777   2.013   2.047  1.0531 -2.3505  0.1504
 6144SOL    HW218722   2.841   2.025   1.897 -0.0982 -1.2386 -0.2701
 6145SOL     OW18723   3.911   5.347   4.638  0.7147 -0.0011  0.2061
 6145SOL    HW118724   3.871   5.273   4.692 -0.9147  1.0514  0.5178
 6145SOL    HW218725   3.921   5.317   4.543  0.1804 -0.6636  0.3515
 6146SOL     OW18726   0.125   1.251   5.313 -0.0322 -0.4944 -0.3064
 6146SOL    HW118727   0.067   1.329   5.338 -0.5743 -1.2358  0.8664
 6146SOL    HW218728   0.094   1.214   5.225 -1.2826 -0.7800  0.2211
 6147SOL     OW18729   1.516   0.987   5.696  0.1244 -0.1481  0.0231
 6147SOL    HW118730   1.485   0.904   5.744 -0.4937 -0.1156 -0.3116
 6147SOL    HW218731   1.437   1.037   5.661  0.5361  0.1480 -0.5031
 6148SOL     OW18732   2.517   4.940   3.578 -0.1347  0.1927  0.4157
 6148SOL    HW118733   2.432   4.896   3.607  0.0884  0.2316  1.1572
 6148SOL    HW218734   2.523   4.939   3.479 -1.0227  0.2258  0.3557
 6149SOL     OW18735   0.222   5.348   0.774 -0.2542  0.0510  0.9853
 6149SOL    HW118736   0.241   5.328   0.870  2.7027  0.2041  0.5142
 6149SOL    HW218737   0.268   5.280   0.716 -0.7505  0.8257 -0.3569
 6150SOL     OW18738   5.100   1.660   5.098 -0.0268 -0.4067  0.1038
 6150SOL    HW118739   5.027   1.728   5.106 -0.7521 -0.9815 -1.3559
 6150SOL    HW218740   5.061   1.572   5.073  1.0105 -1.1463  1.0162
 6151SOL     OW18741   3.477   3.731   1.652 -0.8179  0.6218 -0.2148
 6151SOL    HW118742   3.435   3.655   1.603 -0.6555  0.7804 -0.6065
 6151SOL    HW218743   3.519   3.698   1.736 -1.2227  0.3698 -0.1076
 6152SOL     OW18744   3.640   0.491   4.371  0.4742 -0.0146 -0.0478
 6152SOL    HW118745   3.682   0.418   4.317 -2.4404 -1.6243 -0.3459
 6152SOL    HW218746   3.658   0.477   4.468 -0.5769 -1.6120 -0.0376
 6153SOL     OW18747   1.802   4.175   4.226  0.1780  0.3043 -0.1055
 6153SOL    HW118748   1.739   4.253   4.222 -0.0483  0.1892  0.9334
 6153SOL    HW218749   1.879   4.191   4.164 -1.1537  0.1730 -1.8569
 6154SOL     OW18750   2.759   3.485   1.105  0.7622 -0.1319  0.5332
 6154SOL    HW118751   2.770   3.490   1.204 -0.4122  0.1999  0.6591
 6154SOL    HW218752   2.812   3.558   1.061  1.3498 -0.3301  0.9005
 6155SOL     OW18753   4.242   3.384   4.778 -1.0125 -0.7442 -0.4820
 6155SOL    HW118754   4.201   3.457   4.723  0.8602  0.5976 -0.1937
 6155SOL    HW218755   4.275   3.312   4.717 -1.6798 -0.7180 -0.8836
 6156SOL     OW18756   5.053   3.824   3.245 -0.2411  0.7695 -0.4257
 6156SOL    HW118757   5.031   3.750   3.308  0.0107  0.3974 -0.7665
 6156SOL    HW218758   5.133   3.799   3.191 -1.7539  0.1140 -2.4835
 6157SOL     OW18759   3.229   1.532   3.777  0.2085 -0.0051  0.2045
 6157SOL    HW118760   3.323   1.554   3.800  0.2806 -0.0129 -0.0777
 6157SOL    HW218761   3.169   1.556   3.854  0.4407 -0.0124  0.3866
 6158SOL     OW18762   5.633   2.225   4.343  0.3521  0.2781 -0.6061
 6158SOL    HW118763   5.548   2.220   4.291  0.7731  0.1200 -1.2945
 6158SOL    HW218764   5.615   2.204   4.439 -0.3905  0.2917 -0.7393
 6159SOL     OW18765   1.444   5.641   3.323 -0.9775  0.3740  0.3415
 6159SOL    HW118766   1.512   5.607   3.259 -1.9920 -1.4384  0.1646
 6159SOL    HW218767   1.401   5.564   3.371 -1.2399  1.5980  2.1854
 6160SOL     OW18768   0.800   0.697   1.037  0.0262  0.4641 -0.1764
 6160SOL    HW118769   0.890   0.714   1.077 -2.0785  2.4537  4.5052
 6160SOL    HW218770   0.796   0.738   0.946  2.5139  4.8461  1.3532
 6161SOL     OW18771   4.896   5.815   2.480 -0.1642  0.1415 -0.1743
 6161SOL    HW118772   4.923   5.888   2.417  2.0357 -0.2850  0.1983
 6161SOL    HW218773   4.918   5.726   2.439 -2.0213 -0.3088 -0.2626
 6162SOL     OW18774   4.305   3.857   5.844 -0.0167  0.2587  0.3380
 6162SOL    HW118775   4.349   3.769   5.826 -0.0759  0.5822 -1.5313
 6162SOL    HW218776   4.238   3.846   5.917  1.2101 -0.8351  1.3603
 6163SOL     OW18777   5.757   5.442   1.701 -0.2038 -0.3904  0.1226
 6163SOL    HW118778   5.734   5.540   1.698 -0.8468 -0.5596 -0.8290
 6163SOL    HW218779   5.699   5.392   1.637  1.2961 -1.1719 -0.6749
 6164SOL     OW18780   2.423   5.204   3.552  0.5756  0.5476  0.0740
 6164SOL    HW118781   2.491   5.132   3.542 -0.1407 -0.3625  1.5022
 6164SOL    HW218782   2.332   5.167   3.535  0.3732  1.7282 -1.7027
 6165SOL     OW18783   2.767   2.418   3.542 -0.1427 -0.2798  0.4328
 6165SOL    HW118784   2.689   2.359   3.565 -1.1007  1.1662  1.0343
 6165SOL    HW218785   2.849   2.384   3.589 -0.4744 -1.6054  0.0898
 6166SOL     OW18786   3.888   2.801   3.133 -0.1134  0.5127  0.1296
 6166SOL    HW118787   3.965   2.763   3.184  0.4129 -0.0345 -1.0273
 6166SOL    HW218788   3.913   2.808   3.036 -0.7519  2.3784  0.0632
 6167SOL     OW18789   3.151   3.716   1.225  0.1019 -0.1871 -0.3864
 6167SOL    HW118790   3.124   3.650   1.155  0.3605 -1.2730  0.5125
 6167SOL    HW218791   3.102   3.802   1.210 -2.2614 -1.4044 -0.0594
 6168SOL     OW18792   4.549   3.632   1.631  0.5209 -0.3164  0.0051
 6168SOL    HW118793   4.604   3.715   1.620  0.6533 -0.4671 -0.5071
 6168SOL    HW218794   4.501   3.612   1.546  0.0493 -0.4577  0.3015
 6169SOL     OW18795   0.908   0.730   4.448 -0.4027  0.0866  0.1352
 6169SOL    HW118796   0.865   0.649   4.489 -0.3294 -0.1976 -0.3463
 6169SOL    HW218797   0.862   0.752   4.362 -0.2167  0.3708  0.1074
 6170SOL     OW18798   1.802   0.721   1.489 -0.5328  0.4277 -0.2517
 6170SOL    HW118799   1.769   0.654   1.423  1.1530 -0.5299 -0.1935
 6170SOL    HW218800   1.769   0.696   1.581 -0.2552 -0.0823 -0.2901
 6171SOL     OW18801   0.620   2.495   0.407 -0.2190 -0.3953  0.4484
 6171SOL    HW118802   0.642   2.591   0.390 -1.6532 -0.0979  0.1453
 6171SOL    HW218803   0.605   2.481   0.505 -1.7619  0.1090  0.3098
 6172SOL     OW18804   3.772   0.039   5.278  0.3627  0.1417 -0.1817
 6172SOL    HW118805   3.675   0.048   5.256  0.3654 -1.3815 -0.9486
 6172SOL    HW218806   3.827   0.048   5.195  0.9848  1.9877  0.3890
 6173SOL     OW18807   4.271   3.174   4.387  0.0730  0.1911  0.7164
 6173SOL    HW118808   4.193   3.155   4.327 -0.5188  0.8611  1.2517
 6173SOL    HW218809   4.333   3.096   4.387  0.8280  0.6927 -1.8630
 6174SOL     OW18810   0.159   3.062   4.050 -0.1746 -0.5345  0.4250
 6174SOL    HW118811   0.107   3.081   4.133 -1.2288 -0.0354 -0.3295
 6174SOL    HW218812   0.159   2.964   4.032 -0.1186 -0.6212  0.8977
 6175SOL     OW18813   2.038   1.063   0.682  0.3672 -0.5699 -0.1162
 6175SOL    HW118814   1.953   1.063   0.631  1.5257 -0.4868 -2.1696
 6175SOL    HW218815   2.056   0.971   0.718  0.9336 -1.4300 -2.4565
 6176SOL     OW18816   2.061   0.181   0.031  0.2805  0.7683 -0.6028
 6176SOL    HW118817   2.094   0.244   0.100 -0.5063 -0.8461  1.3408
 6176SOL    HW218818   1.963   0.168   0.042  0.3295 -0.3432 -1.3181
 6177SOL     OW18819   2.381   4.046   0.914 -0.4005 -0.0485  0.5601
 6177SOL    HW118820   2.302   4.106   0.899 -0.4817  0.8301  3.6893
 6177SOL    HW218821   2.358   3.953   0.886 -1.5443  0.6689 -1.0602
 6178SOL     OW18822   4.855   5.049   2.492 -0.2184 -0.0295 -0.0710
 6178SOL    HW118823   4.934   5.104   2.521 -0.0352 -1.2287  1.9398
 6178SOL    HW218824   4.800   5.101   2.427  0.7683  1.9177  0.5588
 6179SOL     OW18825   0.843   5.735   1.804 -0.2881 -0.5520 -1.0492
 6179SOL    HW118826   0.923   5.747   1.863 -0.3987 -1.0993 -0.7781
 6179SOL    HW218827   0.798   5.823   1.790 -0.2056 -0.3967 -0.3832
 6180SOL     OW18828   5.158   1.209   0.527  0.4836 -0.1997  0.3838
 6180SOL    HW118829   5.182   1.303   0.506  0.0036  0.3237  2.0847
 6180SOL    HW218830   5.235   1.164   0.572 -0.1724  0.2011  1.9663
 6181SOL     OW18831   0.712   4.175   3.309 -0.5136 -0.1173 -0.5139
 6181SOL    HW118832   0.665   4.106   3.254  3.0958 -2.5339 -0.8892
 6181SOL    HW218833   0.746   4.133   3.393  1.0292  1.4132 -0.3180
 6182SOL     OW18834   0.871   4.441   1.693 -0.1369 -0.7458  0.4654
 6182SOL    HW118835   0.919   4.519   1.732 -0.9310 -1.0841  2.2270
 6182SOL    HW218836   0.909   4.419   1.604  1.1216  0.6831  0.6209
 6183SOL     OW18837   3.703   0.285   5.758  0.4167 -0.3770 -0.3310
 6183SOL    HW118838   3.643   0.225   5.811  0.9130 -0.7874 -0.2324
 6183SOL    HW218839   3.750   0.232   5.687 -0.3299  0.1903 -1.2773
 6184SOL     OW18840   5.087   2.578   4.622  0.4458 -0.2328 -0.0640
 6184SOL    HW118841   5.170   2.534   4.657  0.7451  0.9186  0.6990
 6184SOL    HW218842   5.009   2.517   4.638  0.7805 -0.3052  1.3992
 6185SOL     OW18843   2.867   4.908   2.741  0.7802  1.2546 -0.1441
 6185SOL    HW118844   2.914   4.919   2.653 -0.6753 -1.1541 -1.3144
 6185SOL    HW218845   2.916   4.840   2.796 -0.3918 -0.1236 -0.7413
 6186SOL     OW18846   4.318   3.105   4.660  0.3561 -0.0666 -0.4438
 6186SOL    HW118847   4.296   3.114   4.563  1.8792 -1.5236 -0.9790
 6186SOL    HW218848   4.234   3.084   4.711 -0.2633 -0.6616 -1.6585
 6187SOL     OW18849   1.519   5.360   3.623  0.5215 -0.0944  0.0454
 6187SOL    HW118850   1.532   5.294   3.697  1.0420 -2.4344 -2.0192
 6187SOL    HW218851   1.608   5.393   3.591  0.3417  0.1524 -0.2077
 6188SOL     OW18852   4.264   1.006   3.669  0.3419 -0.7029  0.5156
 6188SOL    HW118853   4.358   1.020   3.700  0.5749  3.4770 -1.3232
 6188SOL    HW218854   4.201   1.027   3.744  0.9047 -0.4175  0.9174
 6189SOL     OW18855   5.024   1.492   3.011 -0.3936  0.6208 -0.5579
 6189SOL    HW118856   5.105   1.454   2.967 -0.5711 -0.1808 -0.2037
 6189SOL    HW218857   4.952   1.423   3.014 -1.2866  1.4706 -1.3363
 6190SOL     OW18858   5.146   0.460   2.875 -0.1824  0.1298  0.5522
 6190SOL    HW118859   5.131   0.438   2.779  0.2332 -0.7637  0.6731
 6190SOL    HW218860   5.228   0.412   2.907 -0.9706 -0.5193  1.6550
 6191SOL     OW18861   4.045   0.354   1.910 -0.0421  0.0033 -0.2120
 6191SOL    HW118862   3.992   0.410   1.846 -0.9109 -1.1631 -0.5665
 6191SOL    HW218863   3.982   0.303   1.969  0.6054 -2.1462 -1.2759
 6192SOL     OW18864   1.423   0.937   0.427  0.2381  0.0242 -0.0783
 6192SOL    HW118865   1.470   1.011   0.379  1.6015 -0.8684 -0.1835
 6192SOL    HW218866   1.470   0.850   0.408 -1.9915 -1.0893 -0.9369
 6193SOL     OW18867   2.198   2.939   1.006 -0.2287  0.3079  0.2888
 6193SOL    HW118868   2.254   2.856   1.019 -1.9938 -1.0926 -0.5842
 6193SOL    HW218869   2.163   2.969   1.094 -0.6811 -0.7249  0.4829
 6194SOL     OW18870   2.281   4.789   3.576 -0.0463  0.0829  0.2060
 6194SOL    HW118871   2.235   4.764   3.661  2.1199  0.4103  1.5667
 6194SOL    HW218872   2.317   4.706   3.532 -2.2613 -0.2338 -1.1411
 6195SOL     OW18873   5.859   4.017   5.017  0.0257  0.5457 -0.0833
 6195SOL    HW118874   5.805   4.100   5.004 -2.4388 -1.0529 -0.7287
 6195SOL    HW218875   5.934   4.015   4.950 -0.4314  1.7852 -0.6674
 6196SOL     OW18876   1.732   1.962   2.184 -0.0517 -0.0890  0.0632
 6196SOL    HW118877   1.781   2.048   2.171 -0.2951 -0.1081 -1.1199
 6196SOL    HW218878   1.634   1.980   2.194 -0.2174 -0.2717 -1.1020
 6197SOL     OW18879   1.030   1.257   5.654 -0.3051  0.4507  0.3105
 6197SOL    HW118880   0.969   1.193   5.607 -0.8810 -0.9689  2.8120
 6197SOL    HW218881   0.980   1.340   5.676 -0.6367  0.2763  0.2278
 6198SOL     OW18882   0.699   1.109   3.767 -0.0754 -0.6242 -0.2065
 6198SOL    HW118883   0.671   1.024   3.721  2.4333 -1.4416 -0.3975
 6198SOL    HW218884   0.663   1.110   3.860 -2.1413 -0.7165 -0.9625
 6199SOL     OW18885   2.551   3.961   2.700  0.3294  0.0729 -0.0609
 6199SOL    HW118886   2.504   4.049   2.707  2.3279  1.1139  1.3471
 6199SOL    HW218887   2.650   3.977   2.696  0.6629 -1.9870 -3.3689
 6200SOL     OW18888   4.850   4.429   1.854  0.2975  0.0784 -0.1768
 6200SOL    HW118889   4.833   4.376   1.937  0.7585 -0.9975 -0.7470
 6200SOL    HW218890   4.929   4.391   1.806  1.5507  2.1590  0.0968
 6201SOL     OW18891   4.757   5.893   4.155  0.4256 -0.3279 -0.1335
 6201SOL    HW118892   4.684   5.962   4.154  0.3145 -0.4435 -0.6249
 6201SOL    HW218893   4.812   5.903   4.238 -0.2599 -0.3502  0.3330
 6202SOL     OW18894   3.164   4.372   3.148  0.3212  0.0669 -0.2927
 6202SOL    HW118895   3.164   4.470   3.129  0.0662  0.2122  0.4150
 6202SOL    HW218896   3.103   4.353   3.225  1.8247 -0.3893  0.8248
 6203SOL     OW18897   5.700   0.089   1.100 -0.3823  0.1373  0.4703
 6203SOL    HW118898   5.742   0.154   1.036 -1.7451  0.3755 -0.2196
 6203SOL    HW218899   5.716  -0.004   1.067  1.8091  0.0451  1.6020
 6204SOL     OW18900   0.467   3.071   4.113  0.4917 -0.0775  0.2375
 6204SOL    HW118901   0.385   3.092   4.059  0.9579  1.1103 -0.0459
 6204SOL    HW218902   0.515   2.994   4.071 -0.2152 -0.4727  0.1301
 6205SOL     OW18903   2.454   3.712   1.869  0.2158  0.2420 -0.0565
 6205SOL    HW118904   2.553   3.705   1.883  0.2963  0.1799 -0.6322
 6205SOL    HW218905   2.435   3.720   1.771 -0.3962 -0.6683 -0.0252
 6206SOL     OW18906   1.499   4.349   2.819  0.6018  0.4109 -0.0117
 6206SOL    HW118907   1.542   4.440   2.818  1.5140  0.0093 -1.5723
 6206SOL    HW218908   1.425   4.347   2.752 -0.8327  0.5984  1.5117
 6207SOL     OW18909   5.618   0.595   0.266 -0.2751 -0.2779  0.3629
 6207SOL    HW118910   5.658   0.527   0.204 -0.3996  0.8956 -1.0651
 6207SOL    HW218911   5.540   0.555   0.313 -0.7261 -0.9527 -0.9215
 6208SOL     OW18912   2.916   2.781   5.708  0.1420  0.3004 -0.1483
 6208SOL    HW118913   2.969   2.737   5.635 -0.4453 -1.5821  0.5306
 6208SOL    HW218914   2.819   2.765   5.693 -0.1865  2.1620 -0.3522
 6209SOL     OW18915   1.124   1.236   1.566  0.5941  0.2909  0.0513
 6209SOL    HW118916   1.207   1.275   1.526  0.3353  1.1279  0.3116
 6209SOL    HW218917   1.044   1.286   1.534  0.2575  0.0124  0.4375
 6210SOL     OW18918   1.502   0.501   4.854  0.2172  0.2102 -0.1797
 6210SOL    HW118919   1.488   0.594   4.888 -2.7968 -0.1447 -0.2055
 6210SOL    HW218920   1.527   0.504   4.758 -3.5944  1.0462 -1.2874
 6211SOL     OW18921   1.451   3.912   3.827  0.3460  0.5505  0.1798
 6211SOL    HW118922   1.388   3.986   3.851 -1.3884 -1.1702  1.2195
 6211SOL    HW218923   1.402   3.844   3.771  1.0939 -1.0737  1.4279
 6212SOL     OW18924   3.754   3.276   0.732  0.1439  0.6141  0.0510
 6212SOL    HW118925   3.665   3.275   0.686  0.1349  1.2908  0.0425
 6212SOL    HW218926   3.744   3.316   0.823  0.1529 -0.7536  0.6835
 6213SOL     OW18927   1.590   5.275   3.863  0.2058  0.3972 -0.3529
 6213SOL    HW118928   1.589   5.287   3.963  0.7917  0.1730 -0.3176
 6213SOL    HW218929   1.639   5.191   3.840  1.5297  1.2772 -0.9029
 6214SOL     OW18930   5.187   1.774   3.998 -0.4422 -0.4180 -0.2229
 6214SOL    HW118931   5.250   1.802   3.926 -1.3136 -1.5669 -1.5002
 6214SOL    HW218932   5.232   1.707   4.057  0.3370  0.6642  0.4411
 6215SOL     OW18933   5.244   2.484   1.807 -0.1238  0.3258 -0.2195
 6215SOL    HW118934   5.255   2.387   1.785 -1.6736  0.1413 -0.2999
 6215SOL    HW218935   5.147   2.503   1.824  0.2627  1.7131  0.5316
 6216SOL     OW18936   5.046   3.683   1.119 -0.7102 -0.2708  0.0669
 6216SOL    HW118937   5.013   3.777   1.107 -0.3390 -0.2858 -1.3753
 6216SOL    HW218938   5.022   3.650   1.210  1.8684  2.3447  1.8977
 6217SOL     OW18939   2.400   2.073   0.447 -0.5990  0.5755  0.1285
 6217SOL    HW118940   2.458   1.998   0.415 -0.3967  0.5642  0.5070
 6217SOL    HW218941   2.337   2.101   0.374 -0.6057  0.1089 -0.0462
 6218SOL     OW18942   5.530   2.480   1.915  0.0520 -0.0481 -0.6312
 6218SOL    HW118943   5.446   2.508   1.868 -0.4741  0.2304  0.4502
 6218SOL    HW218944   5.514   2.395   1.966  0.6095 -0.3369 -0.9238
 6219SOL     OW18945   5.121   5.329   1.085 -0.1859  0.3108 -0.3577
 6219SOL    HW118946   5.194   5.335   1.153 -0.0162 -0.0654 -0.5073
 6219SOL    HW218947   5.117   5.415   1.033 -0.5793  0.7589  0.3894
 6220SOL     OW18948   5.915   0.957   1.825 -0.0869  0.0825 -0.3243
 6220SOL    HW118949   5.815   0.952   1.821 -0.1540 -0.4657  1.2266
 6220SOL    HW218950   5.946   1.035   1.771 -1.5084  1.3736  0.6071
 6221SOL     OW18951   5.122   5.485   0.429  0.5446  0.8244  0.1532
 6221SOL    HW118952   5.068   5.461   0.510  0.7758 -0.4500 -0.0567
 6221SOL    HW218953   5.073   5.554   0.376 -1.8271 -1.5519 -0.9862
 6222SOL     OW18954   0.658   2.759   5.361 -0.6197 -0.3763 -0.0727
 6222SOL    HW118955   0.722   2.684   5.345  1.2048  0.1155  3.8810
 6222SOL    HW218956   0.564   2.722   5.364 -0.1737 -1.8072 -1.6614
 6223SOL     OW18957   1.657   1.537   3.363 -0.4172 -0.0529  0.1339
 6223SOL    HW118958   1.589   1.573   3.299  0.5432 -0.9265 -1.4433
 6223SOL    HW218959   1.739   1.595   3.361  0.0272 -0.6854 -0.2478
 6224SOL     OW18960   4.878   4.158   5.700 -0.5443 -0.7365  0.5905
 6224SOL    HW118961   4.785   4.191   5.716 -1.1514 -2.1099  0.0680
 6224SOL    HW218962   4.894   4.076   5.754  0.3612 -0.5298  0.6485
 6225SOL     OW18963   4.786   4.980   1.689 -0.0064  0.2560  0.7103
 6225SOL    HW118964   4.807   4.890   1.650 -2.1731 -0.4178  0.9448
 6225SOL    HW218965   4.855   5.004   1.757  1.0974 -0.8054  0.0192
 6226SOL     OW18966   2.458   1.009   2.936  0.2281  0.0255  0.3144
 6226SOL    HW118967   2.463   1.027   2.838  3.2522  0.2632  0.4224
 6226SOL    HW218968   2.440   0.912   2.951  0.2729 -0.1136 -0.4793
 6227SOL     OW18969   5.421   3.746   1.440 -0.4648  0.2474  0.1082
 6227SOL    HW118970   5.331   3.716   1.470  0.1522 -1.9927 -0.1254
 6227SOL    HW218971   5.488   3.728   1.512  0.1693 -0.3442 -0.6184
 6228SOL     OW18972   1.333   1.406   4.234 -0.2663 -0.0104  0.0769
 6228SOL    HW118973   1.379   1.378   4.149 -0.5541  0.6212 -0.2939
 6228SOL    HW218974   1.242   1.440   4.212 -0.2949  0.2717  0.6340
 6229SOL     OW18975   1.525   0.167   4.756  0.2129  0.2851  0.0030
 6229SOL    HW118976   1.444   0.134   4.805 -0.0198  1.6753  0.5960
 6229SOL    HW218977   1.499   0.195   4.663  0.5671 -1.8997 -0.8138
 6230SOL     OW18978   0.955   1.971   5.640  0.2091  0.1318 -0.5242
 6230SOL    HW118979   0.885   2.018   5.587 -0.2985  0.7953  0.7008
 6230SOL    HW218980   1.037   2.029   5.646  0.3468 -0.0374 -0.7687
 6231SOL     OW18981   0.032   5.836   1.139  0.2652 -0.0998  0.9864
 6231SOL    HW118982   0.124   5.795   1.138  0.2479 -0.1341  0.7589
 6231SOL    HW218983   0.037   5.930   1.106 -0.1499 -0.8975 -1.5819
 6232SOL     OW18984   2.319   3.457  -0.001 -0.1768  0.5910 -0.1231
 6232SOL    HW118985   2.223   3.436   0.021 -0.1421  0.5635 -0.0005
 6232SOL    HW218986   2.359   3.512   0.072 -0.6542  2.2331 -1.0455
 6233SOL     OW18987   0.628   2.562   4.504  0.0545  0.3620  0.1671
 6233SOL    HW118988   0.586   2.485   4.552  0.4492  1.0253  1.6455
 6233SOL    HW218989   0.565   2.597   4.436 -0.2185 -1.1194 -0.3880
 6234SOL     OW18990   2.232   5.944   3.562  0.2919 -0.3124 -0.3520
 6234SOL    HW118991   2.297   5.868   3.559  0.3991 -0.3615  1.6332
 6234SOL    HW218992   2.161   5.924   3.630  2.7539  3.1038  3.7386
 6235SOL     OW18993   0.445   4.452   4.823  0.2951  0.1661 -0.1966
 6235SOL    HW118994   0.478   4.415   4.736  0.2032  0.8057 -0.5045
 6235SOL    HW218995   0.356   4.411   4.844  0.1882  0.2184 -0.5387
 6236SOL     OW18996   3.837   0.555   5.722  0.0144 -0.5197 -0.5483
 6236SOL    HW118997   3.861   0.597   5.809  1.7302  0.0827 -1.2728
 6236SOL    HW218998   3.774   0.479   5.738 -0.7159  0.3772  1.0745
 6237SOL     OW18999   4.853   5.004   3.098  0.7739 -0.4778  0.2042
 6237SOL    HW119000   4.819   5.068   3.029  1.3467 -0.4904 -0.0993
 6237SOL    HW219001   4.780   4.983   3.164 -0.3351 -1.7759 -1.3522
 6238SOL     OW19002   3.543   1.189   4.754 -0.0121 -0.0222 -0.1846
 6238SOL    HW119003   3.632   1.220   4.789 -0.6173 -0.0249  1.4064
 6238SOL    HW219004   3.554   1.160   4.659  1.7763 -0.4160  0.1007
 6239SOL     OW19005   2.649   1.914   5.355 -0.2694  0.3661  0.4568
 6239SOL    HW119006   2.748   1.921   5.366 -0.2306  2.5634 -0.6927
 6239SOL    HW219007   2.604   1.961   5.431 -0.3747  0.5587  0.2779
 6240SOL     OW19008   4.665   0.446   3.209 -0.2051  0.3506  1.1660
 6240SOL    HW119009   4.577   0.472   3.250 -0.0862 -1.9014  2.9990
 6240SOL    HW219010   4.653   0.363   3.154  0.4666  1.0727 -0.1356
 6241SOL     OW19011   4.949   3.172   4.446 -0.5569 -0.3161 -0.1401
 6241SOL    HW119012   4.968   3.269   4.431 -4.0692  0.5744  0.4871
 6241SOL    HW219013   4.907   3.133   4.364  0.9380 -1.4439 -0.4380
 6242SOL     OW19014   0.511   5.752   5.846  1.2804 -0.5282 -0.1058
 6242SOL    HW119015   0.518   5.822   5.776  1.4294 -0.9460 -0.5157
 6242SOL    HW219016   0.490   5.794   5.934 -1.5226 -0.2148 -0.8425
 6243SOL     OW19017   0.587   3.095   1.281 -0.3136  0.0180 -0.3905
 6243SOL    HW119018   0.680   3.059   1.278 -0.3429 -0.0387 -0.6592
 6243SOL    HW219019   0.590   3.195   1.279 -0.2543  0.0167 -0.3345
 6244SOL     OW19020   1.564   5.870   5.422 -0.6406 -0.1363  0.7790
 6244SOL    HW119021   1.554   5.776   5.390  0.6404  0.1660 -0.6312
 6244SOL    HW219022   1.473   5.909   5.438 -1.2929 -0.9559 -0.6833
 6245SOL     OW19023   3.298   3.303   4.473  0.0971 -0.5573  0.1105
 6245SOL    HW119024   3.350   3.236   4.527  0.5502 -1.7629 -1.7432
 6245SOL    HW219025   3.278   3.265   4.383 -1.5600  0.9992 -0.2293
 6246SOL     OW19026   4.742   0.272   4.900 -0.3268  0.0120 -0.1035
 6246SOL    HW119027   4.686   0.198   4.937 -0.5958  0.7100  0.9601
 6246SOL    HW219028   4.683   0.348   4.873 -0.0254  0.0296 -0.7149
 6247SOL     OW19029   4.106   4.676   4.326 -0.5642  0.6162  0.5162
 6247SOL    HW119030   4.084   4.649   4.420 -0.3552  0.5205  0.5398
 6247SOL    HW219031   4.151   4.599   4.279 -1.7473  0.2472 -0.0411
 6248SOL     OW19032   4.165   2.467   4.018  0.4298  0.3953 -0.2611
 6248SOL    HW119033   4.172   2.511   3.928 -2.1284  1.4348 -0.0539
 6248SOL    HW219034   4.208   2.524   4.087 -0.6791  1.3963 -0.3633
 6249SOL     OW19035   4.219   4.305   5.507 -0.2854 -0.5418 -0.2333
 6249SOL    HW119036   4.136   4.255   5.529 -0.1225 -1.3658 -1.4436
 6249SOL    HW219037   4.282   4.246   5.457 -0.3126  0.9997 -2.2138
 6250SOL     OW19038   5.881   4.449   3.135  0.0833 -0.1754 -0.4075
 6250SOL    HW119039   5.787   4.415   3.125 -0.5836  1.0877  1.1531
 6250SOL    HW219040   5.944   4.371   3.138 -1.0303 -1.1051 -0.3892
 6251SOL     OW19041   0.929   0.547   0.333  0.1794  0.7341  0.1620
 6251SOL    HW119042   0.958   0.556   0.428  0.1972  2.7403  0.0190
 6251SOL    HW219043   0.899   0.636   0.299 -1.8756 -0.3581 -1.0839
 6252SOL     OW19044   5.744   4.515   0.844 -0.0184 -0.2926  0.3694
 6252SOL    HW119045   5.765   4.477   0.755 -1.0273 -1.0162  0.4244
 6252SOL    HW219046   5.774   4.611   0.848  1.5806 -0.7509 -0.1289
 6253SOL     OW19047   4.471   0.009   3.835 -0.5771 -0.4031 -0.0446
 6253SOL    HW119048   4.444   0.010   3.739 -1.7568 -3.0043  0.1542
 6253SOL    HW219049   4.570  -0.005   3.842 -0.5395 -0.6288 -0.8884
 6254SOL     OW19050   2.568   0.732   0.690 -0.1176  0.2801 -0.2792
 6254SOL    HW119051   2.655   0.750   0.645  0.5516  0.1947  0.9302
 6254SOL    HW219052   2.532   0.644   0.660  1.1027 -0.5163  0.4799
 6255SOL     OW19053   3.658   0.383   3.489  0.1679  0.5014 -0.0236
 6255SOL    HW119054   3.737   0.412   3.544  0.3971  1.4008 -0.7856
 6255SOL    HW219055   3.584   0.354   3.549  1.9371 -2.9868  0.7552
 6256SOL     OW19056   2.939   5.387   1.707 -0.2358  0.4571  0.3136
 6256SOL    HW119057   2.957   5.323   1.782 -0.0323 -1.0136 -0.9382
 6256SOL    HW219058   2.841   5.395   1.693 -0.2702 -1.3601 -0.9131
 6257SOL     OW19059   5.596   3.130   3.112 -0.3097 -0.4802  0.2891
 6257SOL    HW119060   5.600   3.096   3.206  0.5092  0.8189  0.7559
 6257SOL    HW219061   5.504   3.160   3.090 -0.3239 -0.0201  0.9686
 6258SOL     OW19062   1.275   5.748   2.292 -0.0672 -0.5587 -0.1849
 6258SOL    HW119063   1.354   5.725   2.235  1.1078  0.2866  1.0547
 6258SOL    HW219064   1.258   5.846   2.287 -1.1008 -0.7376 -0.4829
 6259SOL     OW19065   2.542   5.095   5.517  0.3008 -0.0412 -0.6536
 6259SOL    HW119066   2.477   5.134   5.452 -0.4396 -0.6074 -0.2707
 6259SOL    HW219067   2.565   5.163   5.586 -2.1799 -0.6290  0.9221
 6260SOL     OW19068   4.680   4.451   4.609  0.2701 -0.1368 -0.4706
 6260SOL    HW119069   4.771   4.413   4.593  0.1078 -1.1388  0.7958
 6260SOL    HW219070   4.624   4.442   4.527  1.8736  2.3172 -1.9610
 6261SOL     OW19071   2.528   5.207   4.505  0.0290  1.0771 -0.0635
 6261SOL    HW119072   2.582   5.147   4.564 -0.0461 -0.1018 -1.1534
 6261SOL    HW219073   2.562   5.202   4.411 -1.5248  0.8080 -0.6494
 6262SOL     OW19074   0.278   2.343   2.077 -0.3678 -0.4291  0.5496
 6262SOL    HW119075   0.234   2.356   1.988 -0.8143  1.2345  0.9761
 6262SOL    HW219076   0.296   2.246   2.091  0.0544 -0.6931 -1.5097
 6263SOL     OW19077   4.314   1.752   3.293 -0.6418 -0.1719  0.5412
 6263SOL    HW119078   4.258   1.833   3.274  0.0915  0.4345  0.8972
 6263SOL    HW219079   4.408   1.780   3.312 -1.0073 -0.7416  4.0021
 6264SOL     OW19080   4.647   0.581   0.377  0.4539  0.0166 -0.1116
 6264SOL    HW119081   4.625   0.486   0.356  0.3944 -0.4302  1.7786
 6264SOL    HW219082   4.609   0.606   0.466  1.6534  1.3826  0.0695
 6265SOL     OW19083   5.320   0.972   1.727  0.4421 -0.8903  0.1668
 6265SOL    HW119084   5.229   0.988   1.767  0.2664 -1.1324 -0.1292
 6265SOL    HW219085   5.314   0.982   1.627  1.8440  4.8068  0.3261
 6266SOL     OW19086   0.842   1.322   1.530  0.0804  0.0818  0.7863
 6266SOL    HW119087   0.783   1.397   1.500 -0.9403 -0.8452  0.3961
 6266SOL    HW219088   0.790   1.259   1.588  1.5352  0.8635  3.0707
 6267SOL     OW19089   5.652   0.162   2.444  0.0772  0.5793  0.0480
 6267SOL    HW119090   5.670   0.242   2.386  0.1013 -0.9399 -2.1267
 6267SOL    HW219091   5.737   0.113   2.460 -0.4490 -1.0043 -1.7309
 6268SOL     OW19092   0.263   4.088   3.574 -0.4971 -0.6408  0.5113
 6268SOL    HW119093   0.225   4.036   3.498  1.4112 -1.5962  0.1564
 6268SOL    HW219094   0.287   4.180   3.542 -1.2058 -0.4812  0.4065
 6269SOL     OW19095   0.431   2.618   5.382  0.4196 -0.6913  0.9330
 6269SOL    HW119096   0.429   2.583   5.476 -0.9748  1.0928  1.6427
 6269SOL    HW219097   0.340   2.654   5.359  1.2665  0.6849 -0.3900
 6270SOL     OW19098   0.209   4.353   0.264  0.0082  0.6185  0.0148
 6270SOL    HW119099   0.111   4.333   0.272  0.2362 -0.2382  0.8848
 6270SOL    HW219100   0.261   4.277   0.303  1.0076  1.3580  0.1487
 6271SOL     OW19101   5.815   1.580   1.164  0.0799  0.1071  0.3687
 6271SOL    HW119102   5.792   1.585   1.067 -1.3498 -0.6496  0.6436
 6271SOL    HW219103   5.913   1.563   1.173 -0.0119 -1.5366 -1.0071
 6272SOL     OW19104   5.968   1.699   2.698 -1.1377 -0.0576 -0.2595
 6272SOL    HW119105   5.885   1.655   2.663 -1.9474  2.3687 -1.5884
 6272SOL    HW219106   6.020   1.739   2.622  0.4617 -0.1592  0.7190
 6273SOL     OW19107   5.134   5.136   1.740  0.3066  0.9405 -0.0357
 6273SOL    HW119108   5.168   5.125   1.647  0.7538  1.1648  0.0995
 6273SOL    HW219109   5.138   5.048   1.789 -0.1933  0.7590 -0.3104
 6274SOL     OW19110   1.731   2.008   3.235 -0.4590 -0.0665  0.0052
 6274SOL    HW119111   1.755   1.912   3.250 -0.3169  0.0182  0.3570
 6274SOL    HW219112   1.677   2.041   3.313  0.6640  0.5115  0.5661
 6275SOL     OW19113   5.155   4.306   1.223  0.2403 -1.1420 -0.1820
 6275SOL    HW119114   5.239   4.256   1.202  0.4300 -0.8993 -0.0039
 6275SOL    HW219115   5.095   4.305   1.143  1.0527 -0.0184 -0.8257
 6276SOL     OW19116   3.459   2.471   2.494  0.4709 -0.5327  0.2195
 6276SOL    HW119117   3.414   2.392   2.453  1.3019 -1.3238  0.7844
 6276SOL    HW219118   3.554   2.448   2.516  0.2146 -0.0099  2.1098
 6277SOL     OW19119   2.417   4.219   3.679 -0.1150 -0.1356 -0.0530
 6277SOL    HW119120   2.415   4.279   3.758  1.1074 -3.0114  2.3856
 6277SOL    HW219121   2.330   4.171   3.671  0.2897 -1.0130  0.6049
 6278SOL     OW19122   5.631   5.174   3.863  0.6017  0.5479 -0.5110
 6278SOL    HW119123   5.570   5.243   3.903 -0.9352 -0.2817 -1.3293
 6278SOL    HW219124   5.624   5.178   3.763 -2.4862 -3.1776 -0.6469
 6279SOL     OW19125   5.280   2.228   1.614  0.2341 -0.1053  0.2245
 6279SOL    HW119126   5.313   2.301   1.555  0.0374 -0.8689 -0.8625
 6279SOL    HW219127   5.180   2.232   1.619  0.0904 -1.2516 -1.1626
 6280SOL     OW19128   2.466   5.048   5.824 -0.6822 -0.4763  0.1544
 6280SOL    HW119129   2.446   5.053   5.726 -1.7760 -0.3807  0.3775
 6280SOL    HW219130   2.450   4.955   5.857 -1.8861 -0.1432  0.5604
 6281SOL     OW19131   4.560   2.970   1.691 -0.0575  0.9695  0.0350
 6281SOL    HW119132   4.474   2.932   1.727 -0.0778  1.1242  0.1491
 6281SOL    HW219133   4.637   2.934   1.744  0.2482 -1.6645 -1.9888
 6282SOL     OW19134   3.389   4.361   2.991  0.0736  0.4832 -0.1486
 6282SOL    HW119135   3.311   4.379   3.051 -0.5817  0.9113 -1.0998
 6282SOL    HW219136   3.473   4.393   3.035 -0.2360 -0.2006  0.9968
 6283SOL     OW19137   5.609   4.797   4.453  0.1766 -0.4594 -0.2960
 6283SOL    HW119138   5.536   4.861   4.430 -0.4738 -1.0397  0.1051
 6283SOL    HW219139   5.697   4.845   4.451 -0.4143  0.7939  1.2498
 6284SOL     OW19140   1.033   0.105   1.768  0.2959  0.1477  0.1672
 6284SOL    HW119141   1.053   0.183   1.709  0.0515  0.9362  1.1043
 6284SOL    HW219142   0.941   0.071   1.749  0.3903  0.1057 -0.2204
 6285SOL     OW19143   5.586   2.655   5.894  0.2288 -0.1307 -0.4527
 6285SOL    HW119144   5.624   2.617   5.978 -0.2186 -0.5409 -0.4291
 6285SOL    HW219145   5.634   2.615   5.815  0.6288  0.2321 -0.3954
 6286SOL     OW19146   1.099   2.739   0.518  0.3099 -0.5118  0.8148
 6286SOL    HW119147   1.015   2.784   0.548  1.7091  1.5278  1.9807
 6286SOL    HW219148   1.163   2.734   0.594  0.9393 -2.9308  0.2161
 6287SOL     OW19149   4.173   3.174   3.778  0.4452  0.0292  0.3617
 6287SOL    HW119150   4.255   3.164   3.834 -0.4913  0.6660  1.9491
 6287SOL    HW219151   4.119   3.089   3.784  0.5636 -0.0702  0.0338
 6288SOL     OW19152   4.508   4.937   4.780  0.7316 -0.2567  0.8740
 6288SOL    HW119153   4.482   5.031   4.757  1.2147 -0.3013  0.1424
 6288SOL    HW219154   4.594   4.914   4.736 -0.6955 -1.9679 -1.2703
 6289SOL     OW19155   1.319   5.483   1.728 -0.0301  0.4061  0.2148
 6289SOL    HW119156   1.288   5.487   1.633 -0.8345  0.3660  0.4644
 6289SOL    HW219157   1.416   5.458   1.731 -0.1300 -0.1020 -0.5733
 6290SOL     OW19158   4.246   4.485   1.693  0.1045  0.3372 -0.0383
 6290SOL    HW119159   4.315   4.421   1.725  1.3385  1.2466 -0.7834
 6290SOL    HW219160   4.270   4.578   1.722  0.3758  0.9629 -2.1007
 6291SOL     OW19161   5.712   1.960   2.911  0.3575 -0.0291 -0.4026
 6291SOL    HW119162   5.644   1.940   2.981 -1.1164  2.6435 -0.9292
 6291SOL    HW219163   5.801   1.923   2.940 -0.7384 -1.3527  1.5337
 6292SOL     OW19164   2.621   2.655   0.047  0.1118 -0.3129 -0.2176
 6292SOL    HW119165   2.695   2.593   0.020 -0.6629 -1.0507 -0.6941
 6292SOL    HW219166   2.533   2.615   0.022 -0.3909  1.2600 -1.1132
 6293SOL     OW19167   1.961   5.241   4.777  0.5239 -0.3062 -0.4510
 6293SOL    HW119168   1.959   5.275   4.871 -1.1048  0.2105 -0.6371
 6293SOL    HW219169   1.982   5.143   4.776 -0.6986 -0.6012  0.5640
 6294SOL     OW19170   4.683   0.356   2.941 -0.5759  0.4185 -0.0735
 6294SOL    HW119171   4.701   0.323   2.848 -1.8039 -0.2240 -0.1027
 6294SOL    HW219172   4.697   0.282   3.006 -0.3525  0.6931  0.1935
 6295SOL     OW19173   1.266   1.105   1.898  0.2879  0.5672  0.1213
 6295SOL    HW119174   1.352   1.095   1.949 -0.6945 -0.4045  1.6702
 6295SOL    HW219175   1.215   1.019   1.901  0.3961  0.2921 -3.0359
 6296SOL     OW19176   0.515   5.743   2.963 -0.4667 -0.8270 -0.3127
 6296SOL    HW119177   0.569   5.817   3.005 -2.0208  0.1809 -0.0279
 6296SOL    HW219178   0.575   5.665   2.945  0.4339 -1.1143  3.2104
 6297SOL     OW19179   5.000   5.187   3.267 -0.7165 -0.2907  0.9854
 6297SOL    HW119180   5.012   5.283   3.241  1.0053 -0.5802  0.6424
 6297SOL    HW219181   4.966   5.135   3.189  1.3160 -0.5229  0.1940
 6298SOL     OW19182   0.618   0.674   2.802  0.4653 -0.4032 -0.2425
 6298SOL    HW119183   0.544   0.654   2.738 -0.1173  0.8679 -0.0033
 6298SOL    HW219184   0.581   0.681   2.895  1.0551 -0.7467  0.0232
 6299SOL     OW19185   2.781   1.481   4.507  0.2581 -0.4117 -0.1388
 6299SOL    HW119186   2.743   1.574   4.504  1.5240  0.1486  0.2555
 6299SOL    HW219187   2.718   1.418   4.461 -1.5670  0.2851  1.2831
 6300SOL     OW19188   1.070   0.074   4.277  0.0196  0.1237 -0.2451
 6300SOL    HW119189   1.013   0.024   4.341 -0.0184 -0.5734 -0.8028
 6300SOL    HW219190   1.041   0.169   4.272  0.5083  0.3749  1.3225
 6301SOL     OW19191   2.928   4.942   5.169  0.9254  0.2780 -0.1624
 6301SOL    HW119192   2.940   5.042   5.168  1.2306  0.2397 -1.2071
 6301SOL    HW219193   3.017   4.898   5.174  0.8307  0.0548 -0.4232
 6302SOL     OW19194   4.307   3.282   1.667  0.3461  0.0865  0.0760
 6302SOL    HW119195   4.294   3.304   1.570  0.3099 -4.1074 -1.0851
 6302SOL    HW219196   4.403   3.292   1.691  0.6741 -0.4881 -0.9252
 6303SOL     OW19197   3.845   2.093   2.691  1.0233 -0.3982  0.0856
 6303SOL    HW119198   3.861   2.186   2.724 -1.2030 -0.7008  2.3566
 6303SOL    HW219199   3.823   2.095   2.594  1.8925  1.3075 -0.1174
 6304SOL     OW19200   0.771   1.528   0.891  0.3123 -0.0833  1.0601
 6304SOL    HW119201   0.831   1.607   0.902  0.8940 -0.3674  0.0658
 6304SOL    HW219202   0.822   1.445   0.913  0.2231 -0.3123  0.4052
 6305SOL     OW19203   0.581   0.882   2.023 -0.2781 -0.3893  0.1106
 6305SOL    HW119204   0.563   0.955   1.957  0.0098 -0.6187 -0.2294
 6305SOL    HW219205   0.503   0.872   2.085 -0.9528 -0.7828 -0.7737
 6306SOL     OW19206   4.059   2.681   3.566  0.3793  0.3272 -0.7535
 6306SOL    HW119207   4.014   2.751   3.511  0.9359 -1.3671 -3.5971
 6306SOL    HW219208   4.035   2.590   3.531  2.8377 -0.7680  0.1551
 6307SOL     OW19209   2.737   3.768   4.587  0.4152 -0.3877 -0.7583
 6307SOL    HW119210   2.763   3.793   4.493  1.8572 -0.5981 -0.4439
 6307SOL    HW219211   2.801   3.699   4.621  0.9209  0.8545  0.9505
 6308SOL     OW19212   0.052   1.237   5.935  0.1917 -0.5028 -0.2773
 6308SOL    HW119213   0.086   1.175   6.006 -0.7437 -0.7941 -0.0815
 6308SOL    HW219214  -0.046   1.224   5.923  0.0484  0.6829 -0.4898
 6309SOL     OW19215   1.951   5.327   5.258  0.1503 -0.1453  0.2160
 6309SOL    HW119216   1.905   5.238   5.264 -0.7877  0.3710  1.0011
 6309SOL    HW219217   2.047   5.314   5.233  0.8723 -1.6583  3.2746
 6310SOL     OW19218   2.208   5.700   3.923  0.3918 -0.4337 -0.1083
 6310SOL    HW119219   2.187   5.758   4.002  0.0338  0.8983 -1.1470
 6310SOL    HW219220   2.188   5.605   3.946 -1.4584  0.1274  0.8219
 6311SOL     OW19221   5.535   1.175   2.183 -0.3462  0.1141  0.3085
 6311SOL    HW119222   5.577   1.092   2.147  0.7336  0.5560  0.5123
 6311SOL    HW219223   5.606   1.237   2.217 -0.9634  1.8410 -1.3278
 6312SOL     OW19224   4.682   1.947   5.586  0.4550 -0.1635 -0.4629
 6312SOL    HW119225   4.693   1.896   5.671  1.2413  1.7829  0.6732
 6312SOL    HW219226   4.754   1.923   5.522  0.0909 -1.3526 -0.4464
 6313SOL     OW19227   5.199   2.404   0.813  0.1740  0.0290  0.0839
 6313SOL    HW119228   5.155   2.436   0.898 -1.3915 -1.7545  0.0239
 6313SOL    HW219229   5.240   2.314   0.829 -0.8272 -0.6904 -1.2224
 6314SOL     OW19230   2.630   0.304   3.853 -0.2218 -0.6472 -0.8331
 6314SOL    HW119231   2.723   0.333   3.830  0.1833 -0.7918  0.5348
 6314SOL    HW219232   2.618   0.208   3.827 -0.1025 -0.5395 -1.3022
 6315SOL     OW19233   0.476   0.327   5.547 -0.0655 -0.1373 -0.4256
 6315SOL    HW119234   0.563   0.306   5.591 -1.2047  0.0719  2.1279
 6315SOL    HW219235   0.432   0.403   5.595 -1.5347 -0.0381 -1.8371
 6316SOL     OW19236   0.895   0.443   4.985 -0.3875 -0.2329  0.4583
 6316SOL    HW119237   0.897   0.345   5.003 -0.1297 -0.4254 -0.5282
 6316SOL    HW219238   0.985   0.482   5.001 -0.0394 -0.4882 -0.7851
 6317SOL     OW19239   1.860   4.262   1.329  0.4096 -0.4385  0.3557
 6317SOL    HW119240   1.812   4.250   1.416 -0.1630  0.4161  0.1687
 6317SOL    HW219241   1.835   4.188   1.267  0.1761 -0.5931  0.6323
 6318SOL     OW19242   1.166   4.860   2.146 -0.0037 -0.5679 -0.3009
 6318SOL    HW119243   1.100   4.798   2.103  1.0070 -1.8015 -0.1484
 6318SOL    HW219244   1.172   4.944   2.093 -0.5653 -1.0610 -1.1778
 6319SOL     OW19245   2.682   4.739   2.622 -0.1778  0.2012 -0.1512
 6319SOL    HW119246   2.732   4.825   2.631  1.9155 -0.6679 -2.4579
 6319SOL    HW219247   2.621   4.743   2.542  0.6212 -0.7083 -0.8406
 6320SOL     OW19248   2.580   5.302   5.673  0.5415 -0.0626 -0.0703
 6320SOL    HW119249   2.491   5.327   5.710  0.0879 -0.1941 -1.0292
 6320SOL    HW219250   2.647   5.371   5.698 -0.2611  1.1008 -1.0014
 6321SOL     OW19251   5.491   1.251   3.154  0.3200 -0.0565  0.1862
 6321SOL    HW119252   5.485   1.246   3.254  1.4604  0.1012  0.2677
 6321SOL    HW219253   5.586   1.247   3.126  0.5278  4.7162 -0.6118
 6322SOL     OW19254   1.879   5.461   4.998  0.2405  0.2282  0.7703
 6322SOL    HW119255   1.920   5.425   5.081 -0.5085 -0.6696  0.7775
 6322SOL    HW219256   1.922   5.548   4.973  1.4937 -0.2390  1.2564
 6323SOL     OW19257   2.431   4.022   3.359 -0.0911 -0.0066 -0.4998
 6323SOL    HW119258   2.403   4.091   3.292 -1.8215  0.0220  0.2252
 6323SOL    HW219259   2.361   3.952   3.366  0.4692 -0.4748  0.6636
 6324SOL     OW19260   2.140   4.412   5.410 -0.0800 -0.4989  0.0916
 6324SOL    HW119261   2.100   4.419   5.501  2.0104 -0.6754  1.0695
 6324SOL    HW219262   2.124   4.497   5.360 -0.3677 -0.0146  0.9847
 6325SOL     OW19263   5.556   1.188   1.030 -0.2235  0.2172 -0.7320
 6325SOL    HW119264   5.492   1.264   1.040 -0.3151  0.0565 -0.0215
 6325SOL    HW219265   5.625   1.211   0.961 -1.8055 -0.1351 -2.5266
 6326SOL     OW19266   0.156   2.821   5.130 -0.3349  0.2846  0.0911
 6326SOL    HW119267   0.130   2.914   5.157  0.9408  0.6030  0.2624
 6326SOL    HW219268   0.078   2.777   5.085 -0.3241  2.1721 -1.9061
 6327SOL     OW19269   4.582   0.394   3.553 -0.6427 -0.8292 -0.1278
 6327SOL    HW119270   4.526   0.446   3.488  1.7057 -0.0711 -1.7060
 6327SOL    HW219271   4.625   0.317   3.505 -0.3482 -1.4091  1.0339
 6328SOL     OW19272   5.803   0.294   5.536 -0.4902  0.2175  0.3765
 6328SOL    HW119273   5.784   0.293   5.438 -1.5260 -0.0604  0.5674
 6328SOL    HW219274   5.901   0.285   5.551 -0.1695  1.6969 -0.6620
 6329SOL     OW19275   3.406   2.107   0.686 -0.3904 -0.2828 -0.4680
 6329SOL    HW119276   3.337   2.061   0.740 -2.0914  1.2210 -1.2520
 6329SOL    HW219277   3.437   2.189   0.734 -1.3271  0.6263 -1.3718
 6330SOL     OW19278   3.356   1.223   5.750 -0.0183 -0.0832  0.7116
 6330SOL    HW119279   3.308   1.227   5.838 -1.2128  0.2730  0.0612
 6330SOL    HW219280   3.290   1.229   5.675  1.1562  2.3228 -0.2327
 6331SOL     OW19281   5.076   1.993   5.264 -0.0606 -0.0287  0.3941
 6331SOL    HW119282   5.019   2.054   5.318 -0.0688 -0.1183  0.4871
 6331SOL    HW219283   5.072   1.901   5.302  0.6928  0.1029  0.8041
 6332SOL     OW19284   1.499   3.796   0.932 -0.0433  0.4137 -0.0007
 6332SOL    HW119285   1.414   3.821   0.977 -0.4283 -0.5667 -0.1611
 6332SOL    HW219286   1.480   3.770   0.837  0.1903 -1.2671  0.3797
 6333SOL     OW19287   4.090   1.782   2.489 -0.3132 -0.4427 -0.1923
 6333SOL    HW119288   4.030   1.703   2.475 -0.7852  0.2108 -2.2898
 6333SOL    HW219289   4.058   1.835   2.566 -1.0385 -1.3554  0.1587
 6334SOL     OW19290   2.505   2.409   3.855  0.2048  0.4166 -0.1307
 6334SOL    HW119291   2.534   2.344   3.785  0.9939  0.4389  0.1656
 6334SOL    HW219292   2.511   2.366   3.946 -2.1309 -0.0830 -0.1394
 6335SOL     OW19293   2.266   3.275   2.585  0.0318  0.2127  0.2392
 6335SOL    HW119294   2.189   3.226   2.545  0.7563  0.6173 -1.7545
 6335SOL    HW219295   2.246   3.373   2.585 -0.1784  0.1867  1.4287
 6336SOL     OW19296   2.534   0.132   0.898 -0.9024 -0.0461  0.4195
 6336SOL    HW119297   2.609   0.102   0.839  0.0153  0.2667  1.4190
 6336SOL    HW219298   2.455   0.073   0.882  0.0600 -1.4023  0.5075
 6337SOL     OW19299   4.660   1.066   5.499 -0.0761 -0.5988  0.0511
 6337SOL    HW119300   4.649   1.121   5.416 -0.0314  1.5533  1.3893
 6337SOL    HW219301   4.569   1.037   5.531 -0.4017  1.3025  0.9553
 6338SOL     OW19302   5.712   4.089   1.247  0.1094  0.0504  0.3742
 6338SOL    HW119303   5.737   4.175   1.201 -1.7832  1.2661  1.5085
 6338SOL    HW219304   5.653   4.035   1.186  1.3186 -0.4973 -0.3490
 6339SOL     OW19305   1.128   2.697   2.376 -0.4240  0.0183 -0.4070
 6339SOL    HW119306   1.222   2.705   2.344  0.0532  0.4379  1.0211
 6339SOL    HW219307   1.067   2.742   2.311  0.5210  1.0697 -0.5948
 6340SOL     OW19308   4.907   0.910   1.103 -0.2143  0.0119 -0.0323
 6340SOL    HW119309   4.847   0.921   1.182 -2.0628 -2.0806 -1.0464
 6340SOL    HW219310   4.870   0.961   1.025 -0.6724 -1.2404 -0.6525
 6341SOL     OW19311   3.185   3.527   2.963 -0.1963 -0.2861 -0.1021
 6341SOL    HW119312   3.118   3.494   2.896 -1.3792 -0.0166  0.9055
 6341SOL    HW219313   3.194   3.626   2.956 -0.0314 -0.3031 -0.1275
 6342SOL     OW19314   1.481   3.129   3.537 -0.0097  0.2981  0.0781
 6342SOL    HW119315   1.442   3.180   3.615 -0.8065 -1.9319  1.2130
 6342SOL    HW219316   1.407   3.093   3.481  0.4216 -1.8165  0.8023
 6343SOL     OW19317   0.126   0.771   4.297  0.0071  0.3719  0.6905
 6343SOL    HW119318   0.076   0.844   4.344 -0.8482 -0.1634  0.6185
 6343SOL    HW219319   0.110   0.684   4.343  0.4896  0.1131  0.3765
 6344SOL     OW19320   1.424   4.687   4.133 -0.0255 -0.3104  0.1424
 6344SOL    HW119321   1.497   4.644   4.079  0.1109  0.2267 -0.0989
 6344SOL    HW219322   1.383   4.761   4.081 -0.4291 -0.3050  0.4687
 6345SOL     OW19323   3.278   1.976   2.945  0.1279 -0.1298  0.9313
 6345SOL    HW119324   3.314   1.882   2.945  1.1878  0.2535  1.7473
 6345SOL    HW219325   3.221   1.989   2.864  3.1420 -0.3347 -1.4474
 6346SOL     OW19326   2.935   1.228   2.419 -0.1032  0.0727  0.3327
 6346SOL    HW119327   2.919   1.214   2.516  0.6813  1.0646  0.6217
 6346SOL    HW219328   2.965   1.142   2.377  1.7856  0.1250  1.4543
 6347SOL     OW19329   4.036   3.542   4.338  0.7114 -0.0752  0.1749
 6347SOL    HW119330   4.059   3.631   4.298  0.2910  0.0488  0.2099
 6347SOL    HW219331   4.121   3.494   4.362  0.9521  0.1119 -0.2848
 6348SOL     OW19332   2.617   3.294   2.874  0.2151 -0.0419 -0.3179
 6348SOL    HW119333   2.685   3.322   2.942  0.1859  1.2572 -0.7947
 6348SOL    HW219334   2.605   3.195   2.878 -1.3988  0.1715  3.0460
 6349SOL     OW19335   3.931   3.481   5.344 -0.5679 -0.1264  0.2779
 6349SOL    HW119336   3.990   3.424   5.286  0.1453 -0.6181  1.4591
 6349SOL    HW219337   3.840   3.439   5.350  0.1375 -1.5227  1.6651
 6350SOL     OW19338   2.670   1.206   3.670  0.2637  0.2812  0.6081
 6350SOL    HW119339   2.617   1.281   3.709  2.4353  2.1946  0.1157
 6350SOL    HW219340   2.704   1.232   3.580 -1.0842 -2.3869 -0.7997
 6351SOL     OW19341   2.757   1.129   5.755  0.2610  0.3969  0.1055
 6351SOL    HW119342   2.777   1.173   5.667 -1.4065  0.1254 -0.4347
 6351SOL    HW219343   2.672   1.077   5.748  0.7020 -0.5752  1.5647
 6352SOL     OW19344   1.836   5.747   0.251 -0.3654  0.5481 -0.2272
 6352SOL    HW119345   1.751   5.787   0.286  0.3179  2.9861 -1.1610
 6352SOL    HW219346   1.836   5.751   0.151  1.5523  2.2588 -0.2083
 6353SOL     OW19347   3.978   5.899   1.673 -0.7288 -0.2339  0.2229
 6353SOL    HW119348   3.903   5.861   1.726 -0.4408 -0.3277  0.5637
 6353SOL    HW219349   4.054   5.834   1.671 -0.6569 -0.1424 -0.1260
 6354SOL     OW19350   4.549   2.334   3.508  0.5288 -0.1094 -0.3946
 6354SOL    HW119351   4.465   2.365   3.464  0.3568  2.0891  1.3075
 6354SOL    HW219352   4.589   2.260   3.454 -2.1818 -0.8757 -1.5511
 6355SOL     OW19353   0.089   2.045   1.713  0.0377 -0.1818  0.4637
 6355SOL    HW119354   0.149   2.103   1.658  1.0591  0.6397  2.3446
 6355SOL    HW219355   0.062   2.094   1.796 -0.8608 -1.6168  1.0601
 6356SOL     OW19356   0.805   3.567   2.012  0.0572 -0.8387 -0.1526
 6356SOL    HW119357   0.796   3.653   2.063  2.8006 -1.1047  0.9575
 6356SOL    HW219358   0.842   3.496   2.072  0.5790 -1.9965 -1.7665
 6357SOL     OW19359   0.408   1.065   2.560  0.1638 -0.1276 -0.4540
 6357SOL    HW119360   0.311   1.044   2.567  0.0841  0.1214 -0.8126
 6357SOL    HW219361   0.461   0.986   2.591 -0.1418 -0.6056 -1.1214
 6358SOL     OW19362   1.992   2.961   0.583 -0.0730  0.7110 -0.0658
 6358SOL    HW119363   2.059   3.014   0.635  0.8041  0.0665 -0.4948
 6358SOL    HW219364   1.968   2.878   0.634  1.5246 -0.4189 -1.0237
 6359SOL     OW19365   1.854   2.143   5.684 -0.4742  0.5020 -0.0843
 6359SOL    HW119366   1.775   2.140   5.623 -2.0125  0.9728  1.8027
 6359SOL    HW219367   1.907   2.058   5.674 -1.3766  0.0361 -1.1327
 6360SOL     OW19368   5.772   1.584   2.584 -0.1951 -0.2913  0.0815
 6360SOL    HW119369   5.769   1.634   2.497 -0.1100 -2.1922 -1.0811
 6360SOL    HW219370   5.732   1.493   2.571 -0.2599 -0.5859  2.0802
 6361SOL     OW19371   0.364   1.365   4.705 -0.1751  0.0235  0.4745
 6361SOL    HW119372   0.314   1.310   4.638  1.3795 -0.4965 -0.2943
 6361SOL    HW219373   0.391   1.307   4.782  1.2445 -0.2941 -0.2192
 6362SOL     OW19374   5.800   1.832   5.486 -0.1645 -0.2360  0.0873
 6362SOL    HW119375   5.789   1.819   5.388  1.7596  0.1830 -0.2315
 6362SOL    HW219376   5.814   1.930   5.505 -0.7595 -0.2816  0.8132
 6363SOL     OW19377   2.675   4.632   5.814 -0.0838  0.0562  0.1365
 6363SOL    HW119378   2.735   4.712   5.811  1.6227 -1.0895  1.5037
 6363SOL    HW219379   2.685   4.580   5.729  1.3807 -0.4363  0.5782
 6364SOL     OW19380   3.323   1.297   0.797 -0.0117  0.1438 -0.0329
 6364SOL    HW119381   3.372   1.211   0.811  2.0305  1.3683  0.9344
 6364SOL    HW219382   3.253   1.285   0.727  0.5656 -2.1517 -0.2923
 6365SOL     OW19383   4.286   4.829   2.016 -0.5150 -0.1542 -0.3530
 6365SOL    HW119384   4.225   4.779   2.079  0.7663  0.3230  1.3495
 6365SOL    HW219385   4.301   4.921   2.051  1.3659 -0.3398 -0.5904
 6366SOL     OW19386   2.009   4.098   4.087  0.4683  0.3911  0.0702
 6366SOL    HW119387   1.981   4.060   3.999 -0.7658  1.0251  0.1640
 6366SOL    HW219388   2.105   4.127   4.082  0.5684 -0.0644 -0.8948
 6367SOL     OW19389   1.075   3.350   4.127 -0.5853  0.2935 -0.0778
 6367SOL    HW119390   1.156   3.393   4.087 -1.3615  2.1253  0.2209
 6367SOL    HW219391   0.993   3.387   4.082 -1.3097 -0.3013  0.7460
 6368SOL     OW19392   0.796   3.142   0.525  0.3955  0.0321  0.9049
 6368SOL    HW119393   0.712   3.181   0.561  0.6372 -0.0608  1.5845
 6368SOL    HW219394   0.807   3.169   0.429  0.4381  1.4348  1.2842
 6369SOL     OW19395   0.147   2.709   0.787 -0.1950 -0.1631  0.4869
 6369SOL    HW119396   0.206   2.765   0.845  0.5960  0.1040 -0.5597
 6369SOL    HW219397   0.052   2.718   0.818  0.0885  0.7451  1.1223
 6370SOL     OW19398   1.473   1.948   3.110 -0.1342  0.3632  0.3999
 6370SOL    HW119399   1.549   1.993   3.156 -0.1371 -1.0597  1.8881
 6370SOL    HW219400   1.436   2.009   3.039  1.0664  1.8781  1.0148
 6371SOL     OW19401   5.536   4.817   4.079  0.2688  0.7340  0.0141
 6371SOL    HW119402   5.629   4.783   4.088  0.3056  0.9692  0.5450
 6371SOL    HW219403   5.472   4.749   4.115  0.3065  1.0060  0.5945
 6372SOL     OW19404   5.451   3.013   2.005  0.1309  0.1988  0.1019
 6372SOL    HW119405   5.482   3.027   2.099 -0.4065  0.8263  0.1979
 6372SOL    HW219406   5.417   3.100   1.969 -0.7387 -0.2908 -0.2713
 6373SOL     OW19407   4.710   5.455   0.159  0.4083  0.1859 -0.0772
 6373SOL    HW119408   4.778   5.402   0.210  1.4406  1.3264 -0.1977
 6373SOL    HW219409   4.641   5.490   0.223  0.9689  0.5205  0.3637
 6374SOL     OW19410   3.829   4.080   0.267 -0.1590 -0.1130 -0.0538
 6374SOL    HW119411   3.810   4.090   0.169  0.4658  0.4030 -0.1212
 6374SOL    HW219412   3.758   4.021   0.308 -0.5853 -0.1010 -0.7533
 6375SOL     OW19413   3.381   1.549   2.601 -0.1255 -0.6445  0.7545
 6375SOL    HW119414   3.464   1.604   2.611  0.2976 -1.0017 -0.5572
 6375SOL    HW219415   3.301   1.607   2.615  0.3258 -0.3410  2.2560
 6376SOL     OW19416   2.244   3.286   3.265  0.0614  0.3829 -0.0766
 6376SOL    HW119417   2.343   3.282   3.265  0.0871  0.0643 -1.7320
 6376SOL    HW219418   2.212   3.311   3.173 -1.3282  2.3624  0.8766
 6377SOL     OW19419   0.650   1.678   2.836  0.1630 -0.0781  0.0994
 6377SOL    HW119420   0.691   1.602   2.787 -1.2670 -0.7424 -0.0882
 6377SOL    HW219421   0.708   1.702   2.915  0.8321 -1.0605 -0.0831
 6378SOL     OW19422   4.771   4.931   0.661  0.3561 -0.0081 -0.2780
 6378SOL    HW119423   4.870   4.945   0.661  0.5822 -1.4302  0.5350
 6378SOL    HW219424   4.739   4.916   0.754 -0.8020  1.3884 -0.4113
 6379SOL     OW19425   4.772   1.110   5.052 -0.0369 -0.2625  0.2127
 6379SOL    HW119426   4.861   1.070   5.031 -0.6602 -0.6478 -1.9578
 6379SOL    HW219427   4.716   1.113   4.969 -1.3167  1.8568  1.0646
 6380SOL     OW19428   2.047   2.104   4.776  0.0789 -0.3151 -0.0639
 6380SOL    HW119429   1.954   2.135   4.794 -0.0846 -1.6061  1.4725
 6380SOL    HW219430   2.107   2.130   4.852  0.5698 -1.1016 -0.1700
 6381SOL     OW19431   2.227   1.622   0.227 -0.4578 -0.6572  0.0221
 6381SOL    HW119432   2.237   1.524   0.211  0.2427 -0.7828  1.1992
 6381SOL    HW219433   2.136   1.640   0.265 -0.5246 -0.8544 -0.0382
 6382SOL     OW19434   4.439   4.455   5.258 -0.0294 -0.2992  0.1892
 6382SOL    HW119435   4.418   4.361   5.285  0.3023 -0.6351 -0.6633
 6382SOL    HW219436   4.495   4.454   5.175 -1.2071  0.6628 -0.6632
 6383SOL     OW19437   3.069   2.245   3.603  0.5459 -0.5993  0.5502
 6383SOL    HW119438   3.050   2.157   3.560  0.4272 -0.6805  0.7670
 6383SOL    HW219439   3.023   2.249   3.692 -0.4389  0.1280  0.0364
 6384SOL     OW19440   1.641   5.866   4.944  0.0926  0.0096 -0.1188
 6384SOL    HW119441   1.549   5.887   4.977  1.0202  0.8910  2.1253
 6384SOL    HW219442   1.679   5.947   4.900 -0.1312 -0.3061 -0.9053
 6385SOL     OW19443   0.836   5.105   5.944 -0.3577 -0.0995 -0.3887
 6385SOL    HW119444   0.907   5.176   5.948  0.7802 -1.1984 -0.4474
 6385SOL    HW219445   0.793   5.106   5.853 -1.1745  1.2579 -0.0147
 6386SOL     OW19446   1.480   2.657   3.346  0.4854 -0.2663 -0.4384
 6386SOL    HW119447   1.429   2.696   3.422  0.8764  1.3067 -0.9583
 6386SOL    HW219448   1.577   2.679   3.356  0.8261 -1.6693 -0.4202
 6387SOL     OW19449   4.848   3.989   0.031  0.0232  0.2709  0.4493
 6387SOL    HW119450   4.872   3.910   0.088 -4.0407 -0.7845  1.0278
 6387SOL    HW219451   4.789   4.051   0.083  0.3729  1.9850 -1.0831
 6388SOL     OW19452   2.374   4.989   1.315 -0.1644 -0.1940 -0.7373
 6388SOL    HW119453   2.444   4.990   1.243  0.2932 -2.4307 -0.4182
 6388SOL    HW219454   2.343   4.894   1.329  0.3476  0.0155  2.5388
 6389SOL     OW19455   5.343   1.671   3.270 -0.5379  0.0062 -0.3969
 6389SOL    HW119456   5.305   1.688   3.361  0.6167  0.1308  0.0836
 6389SOL    HW219457   5.443   1.668   3.276 -0.4877 -2.2452 -1.2711
 6390SOL     OW19458   0.586   3.566   0.311  0.2754 -0.2673  0.3188
 6390SOL    HW119459   0.649   3.539   0.384  0.2803 -0.3814  0.2725
 6390SOL    HW219460   0.619   3.531   0.224  0.9544  0.9391  0.0600
 6391SOL     OW19461   2.909   2.697   5.040  0.5989  0.0435 -0.4487
 6391SOL    HW119462   2.895   2.772   4.975  1.6576  0.0234 -0.7217
 6391SOL    HW219463   2.882   2.727   5.131  0.3127  0.4997 -0.6775
 6392SOL     OW19464   3.013   1.008   2.813  0.3713 -0.1309  0.5225
 6392SOL    HW119465   3.031   0.947   2.890 -1.3154  0.2925  1.3101
 6392SOL    HW219466   3.000   0.954   2.730 -0.6454 -0.8466  1.1226
 6393SOL     OW19467   1.539   3.012   4.115 -0.5572  0.6517  0.1903
 6393SOL    HW119468   1.471   3.036   4.183 -0.5707 -0.1002  0.4531
 6393SOL    HW219469   1.543   2.912   4.105  1.0884  0.6247  0.8048
 6394SOL     OW19470   1.324   0.607   2.323  0.5513  0.1357  1.0439
 6394SOL    HW119471   1.372   0.695   2.320 -1.8641  1.5330 -1.8981
 6394SOL    HW219472   1.246   0.615   2.384 -0.5884  0.6521 -0.4209
 6395SOL     OW19473   0.277   2.186   4.770 -0.6674 -0.1202 -0.0839
 6395SOL    HW119474   0.358   2.158   4.821 -1.4532 -1.4891  0.4727
 6395SOL    HW219475   0.233   2.106   4.730 -2.1400  0.4900  0.2248
 6396SOL     OW19476   5.963   1.190   3.222 -0.5941  0.2859 -0.5783
 6396SOL    HW119477   6.029   1.237   3.163  0.4279  0.9106  0.9879
 6396SOL    HW219478   5.870   1.209   3.190 -0.0686 -0.7809 -2.9532
 6397SOL     OW19479   2.867   5.291   0.574  0.3429 -0.0739 -0.5678
 6397SOL    HW119480   2.916   5.308   0.659 -1.4853 -4.7348  1.7887
 6397SOL    HW219481   2.932   5.265   0.503  1.7502  1.7542 -0.0280
 6398SOL     OW19482   5.631   4.773   3.213  0.2536 -0.5265 -0.0076
 6398SOL    HW119483   5.582   4.706   3.268  2.0932 -0.5186  1.7527
 6398SOL    HW219484   5.644   4.737   3.120  0.0078 -2.0044  0.5005
 6399SOL     OW19485   3.734   2.087   1.320 -0.3920  0.2910  0.6938
 6399SOL    HW119486   3.653   2.145   1.328 -0.8726  0.1006 -1.8230
 6399SOL    HW219487   3.812   2.134   1.361 -1.1180  2.0100  0.2125
 6400SOL     OW19488   0.138   1.526   2.864  0.8968  0.7021 -0.4430
 6400SOL    HW119489   0.085   1.596   2.815  0.8579 -1.1820 -3.3436
 6400SOL    HW219490   0.225   1.565   2.894  1.2957  1.8179 -2.8019
 6401SOL     OW19491   1.774   3.970   2.856  0.2445  0.0009 -0.1943
 6401SOL    HW119492   1.828   3.902   2.806 -2.0481 -2.0726 -0.0671
 6401SOL    HW219493   1.812   3.981   2.948  0.1379 -1.9414  0.1391
 6402SOL     OW19494   5.888   2.099   0.113  0.4073  0.0584 -0.5744
 6402SOL    HW119495   5.817   2.090   0.183  0.0276 -2.8853 -1.2148
 6402SOL    HW219496   5.978   2.106   0.158  0.1379 -1.3780  0.2731
 6403SOL     OW19497   0.594   1.164   4.010  0.2281 -0.2427 -0.5406
 6403SOL    HW119498   0.606   1.254   3.968  2.1719 -0.1411  0.1584
 6403SOL    HW219499   0.611   1.170   4.108  1.9952 -1.6410 -0.7090
 6404SOL     OW19500   2.044   0.478   5.042  0.3313 -0.1808  0.0018
 6404SOL    HW119501   1.995   0.393   5.021  0.1471 -0.2128  0.5393
 6404SOL    HW219502   2.012   0.551   4.981 -0.9100 -0.0212  0.8038
 6405SOL     OW19503   5.216   2.364   5.709 -0.4751 -0.3272  0.4551
 6405SOL    HW119504   5.241   2.298   5.781 -0.3819  0.1456  0.8634
 6405SOL    HW219505   5.235   2.457   5.741 -1.1902 -0.0584  0.1305
 6406SOL     OW19506   1.189   3.722   2.693  0.0725  0.1689 -0.5756
 6406SOL    HW119507   1.194   3.752   2.598  1.4749 -0.5701 -0.7678
 6406SOL    HW219508   1.267   3.758   2.744 -0.3118  0.0220  0.1256
 6407SOL     OW19509   2.496   1.326   0.724 -0.7240 -0.5971  0.0339
 6407SOL    HW119510   2.581   1.282   0.750 -0.3286  1.3911  2.4077
 6407SOL    HW219511   2.419   1.278   0.765 -0.3769  0.1668  1.6492
 6408SOL     OW19512   1.823   2.852   1.608  0.4699 -0.3836  0.6504
 6408SOL    HW119513   1.746   2.908   1.579  0.6750 -1.4154 -2.1821
 6408SOL    HW219514   1.896   2.911   1.644  0.4776  1.1850 -1.7225
 6409SOL     OW19515   4.959   2.877   2.140 -0.1502  0.3989  0.0182
 6409SOL    HW119516   5.021   2.818   2.088 -0.5456 -0.5038  0.5355
 6409SOL    HW219517   4.875   2.826   2.160  0.8916 -0.2122  3.5773
 6410SOL     OW19518   1.222   4.703   1.523  0.1677 -0.1750 -0.2418
 6410SOL    HW119519   1.239   4.781   1.462  1.8859 -0.8780 -0.7300
 6410SOL    HW219520   1.277   4.625   1.492 -0.1054 -1.0172  1.3327
 6411SOL     OW19521   0.767   3.865   4.882  0.0909  0.3345 -0.5366
 6411SOL    HW119522   0.810   3.953   4.863 -0.3418  0.4419 -1.0382
 6411SOL    HW219523   0.671   3.879   4.906  0.4941  0.1698  1.3469
 6412SOL     OW19524   4.962   5.650   2.258 -0.2912 -0.3781  0.0299
 6412SOL    HW119525   5.061   5.635   2.251  0.0318  1.8111 -0.9129
 6412SOL    HW219526   4.930   5.701   2.179 -1.9762  0.0220  0.9156
 6413SOL     OW19527   1.284   5.166   1.410 -0.0271  0.5956 -0.2633
 6413SOL    HW119528   1.290   5.265   1.395  2.3298  0.4659 -0.6213
 6413SOL    HW219529   1.332   5.143   1.495  1.5568 -0.4543 -1.3877
 6414SOL     OW19530   4.058   3.285   5.149 -0.2386 -0.6528  0.0322
 6414SOL    HW119531   4.127   3.281   5.077 -0.7404 -2.0823 -0.4049
 6414SOL    HW219532   3.969   3.257   5.111 -0.6146 -0.9232  1.0833
 6415SOL     OW19533   5.969   4.501   4.220 -0.1421 -0.1908  0.2307
 6415SOL    HW119534   6.028   4.445   4.162 -0.8246 -0.3915 -0.2881
 6415SOL    HW219535   5.882   4.453   4.234 -0.5442  0.5178  0.1955
 6416SOL     OW19536   1.001   3.378   0.626 -0.5874  0.2106 -0.7380
 6416SOL    HW119537   1.038   3.445   0.562  1.0043 -0.5619 -0.6825
 6416SOL    HW219538   1.051   3.292   0.617 -1.2154 -0.3339  0.6176
 6417SOL     OW19539   0.253   1.044   3.439  0.1132  0.3362  0.1474
 6417SOL    HW119540   0.168   1.082   3.473  1.0191  1.2995  1.4279
 6417SOL    HW219541   0.330   1.098   3.472  1.2318 -0.3914 -1.1301
 6418SOL     OW19542   0.233   0.782   1.529 -0.3739  0.1804  0.1956
 6418SOL    HW119543   0.159   0.746   1.585  0.0002 -1.4930 -0.3503
 6418SOL    HW219544   0.321   0.760   1.571 -0.1208  2.2369  0.8934
 6419SOL     OW19545   0.415   2.140   4.154  0.2767  0.7578 -0.5783
 6419SOL    HW119546   0.442   2.056   4.201  1.3273 -0.4557 -3.1476
 6419SOL    HW219547   0.315   2.145   4.150  0.1838  0.3392  0.7560
 6420SOL     OW19548   1.395   3.844   3.418 -0.2180  0.4018  0.1382
 6420SOL    HW119549   1.447   3.912   3.367 -0.9873  0.3205 -0.7755
 6420SOL    HW219550   1.340   3.789   3.355 -2.4944  1.3826  1.1553
 6421SOL     OW19551   0.702   1.940   0.961 -0.1701 -0.0119 -0.6734
 6421SOL    HW119552   0.731   1.945   0.866  0.6282  0.0729 -0.4344
 6421SOL    HW219553   0.782   1.945   1.021 -0.8491  3.1791  0.1328
 6422SOL     OW19554   1.645   5.656   1.924 -0.1794 -0.6368 -0.7411
 6422SOL    HW119555   1.572   5.715   1.959 -1.3551 -1.5615 -1.5477
 6422SOL    HW219556   1.703   5.627   2.000 -0.7956 -0.0903 -0.0388
 6423SOL     OW19557   2.292   2.605   4.253 -0.3877  0.3721 -0.1353
 6423SOL    HW119558   2.200   2.567   4.267 -1.1672  1.8267 -1.0047
 6423SOL    HW219559   2.322   2.586   4.159 -0.4047  1.1017 -0.2927
 6424SOL     OW19560   3.117   2.795   2.335 -0.1317 -0.5357 -0.5168
 6424SOL    HW119561   3.054   2.870   2.315  0.4805 -0.3972 -2.0933
 6424SOL    HW219562   3.210   2.821   2.307  0.8567 -0.4115  2.4935
 6425SOL     OW19563   2.236   1.098   1.888 -0.9216 -0.5439  0.3520
 6425SOL    HW119564   2.222   1.171   1.955  1.1281 -1.4481  1.8829
 6425SOL    HW219565   2.237   1.137   1.796 -2.4118  0.9492  0.9329
 6426SOL     OW19566   2.320   2.113   5.786  0.6409  0.7703 -0.3977
 6426SOL    HW119567   2.271   2.132   5.700  0.1093  0.2488 -0.2201
 6426SOL    HW219568   2.418   2.113   5.769  0.5059 -0.8370 -1.3464
 6427SOL     OW19569   4.031   0.440   4.099 -0.2676  0.3840 -0.4729
 6427SOL    HW119570   4.052   0.455   4.003  3.5311  2.5415  0.4963
 6427SOL    HW219571   3.966   0.511   4.130 -1.7088 -0.4774 -1.4126
 6428SOL     OW19572   5.789   0.423   2.955 -0.3433  0.8019 -0.2471
 6428SOL    HW119573   5.828   0.333   2.939 -0.2499  0.8769 -0.4402
 6428SOL    HW219574   5.779   0.472   2.868  1.4670  1.7529  0.0401
 6429SOL     OW19575   3.757   0.524   4.611 -0.1227 -0.1912 -0.0612
 6429SOL    HW119576   3.690   0.560   4.676 -2.1942  1.0825 -2.6967
 6429SOL    HW219577   3.802   0.600   4.564 -0.1316 -1.0440 -1.4967
 6430SOL     OW19578   4.208   2.543   3.764 -0.1827 -0.0719 -0.0471
 6430SOL    HW119579   4.158   2.604   3.703  0.5885  0.1697 -0.4446
 6430SOL    HW219580   4.213   2.452   3.722  0.2022  0.0507 -0.2681
 6431SOL     OW19581   2.805   0.423   2.610  0.4806 -0.0968 -0.2010
 6431SOL    HW119582   2.785   0.339   2.659 -0.2991  0.5084  0.5577
 6431SOL    HW219583   2.798   0.501   2.673 -1.7956  0.8399 -1.4586
 6432SOL     OW19584   5.211   3.843   0.825 -0.2474 -0.2965 -0.1442
 6432SOL    HW119585   5.126   3.806   0.863 -0.4383  0.4370  0.1637
 6432SOL    HW219586   5.262   3.891   0.896 -0.4500  0.8044 -0.7174
 6433SOL     OW19587   5.474   1.762   2.223  0.5712  0.0933 -0.1561
 6433SOL    HW119588   5.559   1.806   2.253 -1.1759  1.9860  2.5258
 6433SOL    HW219589   5.410   1.832   2.190 -1.2402 -0.6987  1.4505
 6434SOL     OW19590   2.416   1.464   5.757 -0.6328 -0.0796  0.5624
 6434SOL    HW119591   2.483   1.392   5.772 -0.0242  0.4326  0.3268
 6434SOL    HW219592   2.332   1.442   5.807  0.2426  0.0382  2.1699
 6435SOL     OW19593   2.675   5.281   2.038  0.1033 -0.2234  0.3300
 6435SOL    HW119594   2.585   5.325   2.037  0.8654  1.4285  0.8554
 6435SOL    HW219595   2.720   5.300   2.125  0.5722 -1.9040  0.4886
 6436SOL     OW19596   4.667   4.526   4.112  0.0907 -0.1571  0.4513
 6436SOL    HW119597   4.766   4.517   4.120  0.2608 -0.4919 -1.5543
 6436SOL    HW219598   4.641   4.622   4.126  1.1093  0.5793 -2.1053
 6437SOL     OW19599   5.209   4.658   1.661 -0.7867  0.2693 -0.3976
 6437SOL    HW119600   5.173   4.722   1.593 -0.7220 -0.0789 -0.7605
 6437SOL    HW219601   5.289   4.611   1.623 -1.1195 -0.3713 -0.3005
 6438SOL     OW19602   1.834   3.815   4.460  0.1108  0.2650 -0.4259
 6438SOL    HW119603   1.796   3.876   4.529  0.5630 -0.3144  0.3622
 6438SOL    HW219604   1.929   3.793   4.484  1.3760  2.5581 -2.9341
 6439SOL     OW19605   1.294   0.917   4.168 -0.4110  0.4626  0.3575
 6439SOL    HW119606   1.211   0.955   4.210 -1.6313 -0.2566 -1.3297
 6439SOL    HW219607   1.273   0.828   4.127  1.4998 -0.2918  0.9115
 6440SOL     OW19608   5.982   3.553   2.268  0.1679 -0.0778 -0.0818
 6440SOL    HW119609   5.911   3.483   2.269  0.9825 -0.9339  1.9638
 6440SOL    HW219610   5.960   3.624   2.335  0.3769  0.5724 -0.6912
 6441SOL     OW19611   1.484   5.622   5.306  0.9936 -0.2953 -0.2924
 6441SOL    HW119612   1.569   5.571   5.291 -0.7686 -2.8974 -1.9965
 6441SOL    HW219613   1.433   5.630   5.221 -2.0183 -1.7079  1.2293
 6442SOL     OW19614   2.044  -0.007   2.536  0.1940 -0.3928  0.2846
 6442SOL    HW119615   2.092   0.022   2.619  2.2106 -0.1430 -0.9051
 6442SOL    HW219616   2.010   0.074   2.487 -0.5519 -0.5114  0.5909
 6443SOL     OW19617   0.431   5.352   0.085 -0.2534 -0.6368  0.1100
 6443SOL    HW119618   0.349   5.316   0.041 -1.9245 -0.8239  3.0643
 6443SOL    HW219619   0.408   5.432   0.140  1.7376 -0.1336  0.3048
 6444SOL     OW19620   5.119   5.922   0.795  0.4109 -0.3456 -0.3352
 6444SOL    HW119621   5.180   5.867   0.738  2.4730 -0.2393  1.6549
 6444SOL    HW219622   5.164   6.009   0.817 -1.2736  0.5676 -0.3600
 6445SOL     OW19623   2.193   2.818   5.168 -0.0938  0.5298  0.1413
 6445SOL    HW119624   2.132   2.742   5.190  1.4980 -0.6756  0.6406
 6445SOL    HW219625   2.185   2.889   5.238 -0.1183 -0.1385  0.8262
 6446SOL     OW19626   3.133   1.679   5.081 -0.1307  0.5766  0.4099
 6446SOL    HW119627   3.163   1.600   5.134 -0.1875  0.9029  0.9378
 6446SOL    HW219628   3.207   1.747   5.076  0.2208  0.1371 -0.7685
 6447SOL     OW19629   4.122   0.837   4.107  0.0130  0.5560  0.3367
 6447SOL    HW119630   4.118   0.937   4.110 -0.4390  0.5424  0.3316
 6447SOL    HW219631   4.176   0.809   4.027 -0.6693  0.7964 -0.2259
 6448SOL     OW19632   3.284   0.803   4.790  0.0261 -0.4229  0.2847
 6448SOL    HW119633   3.218   0.730   4.807  2.0847 -2.0321  1.8606
 6448SOL    HW219634   3.346   0.776   4.716  0.2631  0.1151  0.2796
 6449SOL     OW19635   4.216   4.301   5.878 -0.0177  0.2255  0.8492
 6449SOL    HW119636   4.247   4.394   5.856 -0.2910 -0.3745 -2.7357
 6449SOL    HW219637   4.118   4.293   5.856  0.5043 -1.4318 -1.2018
 6450SOL     OW19638   4.347   1.473   3.224 -1.2452 -0.0136  0.1583
 6450SOL    HW119639   4.349   1.569   3.253 -0.6678  0.1004 -0.2356
 6450SOL    HW219640   4.360   1.469   3.125  2.5390 -0.6688  0.5510
 6451SOL     OW19641   0.289   3.720   4.900  0.4986 -0.1450  0.1354
 6451SOL    HW119642   0.224   3.781   4.946 -0.4068 -0.9664 -0.0314
 6451SOL    HW219643   0.368   3.706   4.960 -0.4824 -0.8826  1.3172
 6452SOL     OW19644   3.218   4.372   2.564  0.0303 -0.2464 -0.8230
 6452SOL    HW119645   3.302   4.322   2.543 -0.3120 -1.3057  0.2009
 6452SOL    HW219646   3.139   4.312   2.551 -0.3075 -0.4865  1.7548
 6453SOL     OW19647   5.065   5.136   1.400  0.0060 -0.4650 -0.2147
 6453SOL    HW119648   5.137   5.204   1.413 -0.5319 -0.0351  0.6381
 6453SOL    HW219649   4.978   5.172   1.434 -0.7541 -0.7425 -1.7555
 6454SOL     OW19650   1.822   4.182   5.922 -0.3802 -0.5589  0.1652
 6454SOL    HW119651   1.886   4.106   5.910  1.4375  1.0331 -0.8755
 6454SOL    HW219652   1.797   4.218   5.833 -0.9619  0.2629  0.6524
 6455SOL     OW19653   2.023   4.354   5.668  0.0887 -0.2763  0.7100
 6455SOL    HW119654   1.929   4.325   5.655  0.6561 -1.7572 -0.3764
 6455SOL    HW219655   2.084   4.274   5.662  2.1293  1.1535 -5.8901
 6456SOL     OW19656   3.995   3.677   0.053  0.1909 -0.0816 -0.6282
 6456SOL    HW119657   3.954   3.636   0.135  1.6618 -1.0751 -0.3435
 6456SOL    HW219658   4.057   3.750   0.080  0.1654  0.0468 -0.9154
 6457SOL     OW19659   4.385   0.419   1.617  0.4838 -0.3498  0.0511
 6457SOL    HW119660   4.477   0.445   1.645  0.1471 -2.1308  3.2702
 6457SOL    HW219661   4.376   0.320   1.618 -1.8888 -0.2090  1.5145
 6458SOL     OW19662   3.625   2.559   0.627  0.4810  0.0946 -0.1392
 6458SOL    HW119663   3.685   2.570   0.547  2.3039  0.6613  1.2224
 6458SOL    HW219664   3.677   2.581   0.710 -0.9943 -1.6361  1.3239
 6459SOL     OW19665   2.538   3.019   2.779  0.0594 -0.6656 -0.1137
 6459SOL    HW119666   2.543   2.919   2.778 -1.5416 -0.8334  2.0372
 6459SOL    HW219667   2.443   3.049   2.773  0.4490  0.6987  0.0157
 6460SOL     OW19668   2.300   0.552   0.958 -0.5284  0.3517 -0.3075
 6460SOL    HW119669   2.237   0.539   0.881 -0.3325  0.6715 -0.5228
 6460SOL    HW219670   2.390   0.577   0.923 -0.4059  0.3699  0.0229
 6461SOL     OW19671   4.621   0.776   2.769  0.5855  0.0323 -0.8163
 6461SOL    HW119672   4.643   0.752   2.675 -0.4606 -1.3087 -0.7355
 6461SOL    HW219673   4.566   0.704   2.811 -0.5617  1.4488  0.2373
 6462SOL     OW19674   1.167   2.011   4.100  0.0691 -0.0234  0.5160
 6462SOL    HW119675   1.254   2.027   4.055 -0.3730 -0.2530 -0.4337
 6462SOL    HW219676   1.096   1.993   4.032 -0.8239  0.6084  1.2444
 6463SOL     OW19677   5.474   0.082   3.691  0.1631 -0.5124 -0.1853
 6463SOL    HW119678   5.558   0.109   3.737  0.2720  2.5089 -1.9481
 6463SOL    HW219679   5.453   0.146   3.618 -2.3373 -2.6331 -1.5182
 6464SOL     OW19680   2.153   0.509   1.349  0.4952  0.0302 -0.1909
 6464SOL    HW119681   2.151   0.497   1.448  1.0092  0.5930 -0.1058
 6464SOL    HW219682   2.240   0.550   1.322  0.1327  0.4114 -0.8132
 6465SOL     OW19683   2.731   5.187   4.957  0.0672 -0.1020 -0.5625
 6465SOL    HW119684   2.727   5.259   5.026  0.8268 -0.2570 -0.3389
 6465SOL    HW219685   2.643   5.178   4.911  0.2843  1.7487 -1.4087
 6466SOL     OW19686   4.716   1.559   1.297 -0.1294 -0.0716  0.2130
 6466SOL    HW119687   4.682   1.472   1.332 -0.2750 -0.7498 -1.5534
 6466SOL    HW219688   4.785   1.542   1.227 -1.1811  1.2026 -1.1780
 6467SOL     OW19689   3.831   4.138   1.281  0.2486 -0.8568  0.1313
 6467SOL    HW119690   3.841   4.230   1.243 -1.5764 -0.1617  1.2220
 6467SOL    HW219691   3.859   4.138   1.377 -0.3009 -1.3015  0.2970
 6468SOL     OW19692   1.583   3.966   3.233  0.0965  0.1390 -0.2683
 6468SOL    HW119693   1.613   3.889   3.176  0.6664  0.2050 -0.0653
 6468SOL    HW219694   1.660   4.027   3.250  0.7336 -1.3224  2.8978
 6469SOL     OW19695   3.360   3.822   2.297  0.6246  0.4879  0.0002
 6469SOL    HW119696   3.454   3.856   2.302  0.5938  0.9329 -1.8778
 6469SOL    HW219697   3.321   3.845   2.208 -0.7770 -0.9676  0.2025
 6470SOL     OW19698   2.155   5.523   3.601 -0.4654 -0.0646 -0.3851
 6470SOL    HW119699   2.068   5.563   3.572  0.2546  2.3944  0.6288
 6470SOL    HW219700   2.144   5.479   3.690 -0.1429  2.7504  1.1413
 6471SOL     OW19701   5.752   4.570   4.497 -0.4648  0.0681 -0.3815
 6471SOL    HW119702   5.692   4.647   4.474 -0.9192 -0.7455 -2.1327
 6471SOL    HW219703   5.749   4.503   4.423  2.0245 -0.3855 -0.1544
 6472SOL     OW19704   2.478   4.618   5.004  0.3662 -0.3797  0.1637
 6472SOL    HW119705   2.546   4.626   4.931 -1.7162  1.0736 -1.7539
 6472SOL    HW219706   2.450   4.710   5.033 -2.1128 -0.8588 -0.4755
 6473SOL     OW19707   0.345   2.405   4.559 -0.2748  0.4248 -0.1181
 6473SOL    HW119708   0.285   2.473   4.603  0.1310  0.5719  0.2175
 6473SOL    HW219709   0.308   2.313   4.574 -1.5378  0.6454 -1.6928
 6474SOL     OW19710   5.291   2.170   3.586 -0.0435 -0.6862  0.2574
 6474SOL    HW119711   5.273   2.101   3.656  0.4877 -0.2884  0.7962
 6474SOL    HW219712   5.259   2.259   3.617 -1.9376 -0.8905 -0.9817
 6475SOL     OW19713   3.839   3.890   5.430 -0.6830  0.0589 -0.2311
 6475SOL    HW119714   3.908   3.831   5.472 -0.2556  1.3238  0.9154
 6475SOL    HW219715   3.751   3.842   5.429 -0.3971 -0.5421  0.8612
 6476SOL     OW19716   5.139   3.958   5.947  0.7160  0.0329 -0.3255
 6476SOL    HW119717   5.222   3.978   5.894  0.2759  0.2685 -0.9334
 6476SOL    HW219718   5.098   4.043   5.979  0.2543 -0.0319 -0.7317
 6477SOL     OW19719   1.892   0.510   3.947  0.6344  0.3229 -0.2470
 6477SOL    HW119720   1.883   0.544   3.853 -2.0498  3.2052  0.8524
 6477SOL    HW219721   1.802   0.511   3.991  1.7384 -1.3264  2.2789
 6478SOL     OW19722   1.116   2.130   4.518  0.8035  0.6537  0.1589
 6478SOL    HW119723   1.200   2.081   4.495  0.8364  0.2844  1.0271
 6478SOL    HW219724   1.069   2.082   4.592 -0.6344  0.3627 -0.9047
 6479SOL     OW19725   2.085   2.153   2.937 -0.4035 -0.5369 -0.1753
 6479SOL    HW119726   2.184   2.164   2.938 -0.4916  0.3098 -0.0124
 6479SOL    HW219727   2.048   2.192   2.852 -0.4973 -1.8920 -0.7903
 6480SOL     OW19728   1.608   4.581   3.992 -0.1629  0.5123 -0.1710
 6480SOL    HW119729   1.596   4.501   3.935 -1.7549  2.0772 -2.2054
 6480SOL    HW219730   1.702   4.615   3.984 -0.3403  0.6691 -1.8811
 6481SOL     OW19731   5.304   3.981   2.008 -0.1069 -0.4620  0.0031
 6481SOL    HW119732   5.253   3.922   2.071 -1.1294 -0.4981 -0.8399
 6481SOL    HW219733   5.280   4.077   2.026  0.5583 -0.3754  0.4897
 6482SOL     OW19734   2.269   1.203   1.619  0.3878  0.1644  0.0507
 6482SOL    HW119735   2.303   1.126   1.567 -3.3069 -0.5795 -1.5657
 6482SOL    HW219736   2.279   1.287   1.566  1.0484  0.2288  0.2638
 6483SOL     OW19737   5.061   1.289   1.861  0.2885 -0.0928 -0.6046
 6483SOL    HW119738   5.120   1.366   1.837 -0.8899  1.0854  0.1367
 6483SOL    HW219739   5.030   1.299   1.955 -4.9958  2.0930 -2.2316
 6484SOL     OW19740   0.062   1.567   0.728 -0.0013 -0.7647 -0.0651
 6484SOL    HW119741   0.121   1.509   0.785 -0.9406 -1.2840  0.3879
 6484SOL    HW219742  -0.017   1.514   0.697 -1.1707  0.4287  0.8196
 6485SOL     OW19743   4.435   0.356   0.641  0.1288  0.9580 -0.6913
 6485SOL    HW119744   4.457   0.278   0.699 -0.7186  1.3724  0.2210
 6485SOL    HW219745   4.345   0.392   0.667 -0.8413  0.4197 -3.0473
 6486SOL     OW19746   0.488   3.300   0.049  0.0094  0.8138  0.4492
 6486SOL    HW119747   0.513   3.244   0.128 -0.2592 -0.1667 -0.1436
 6486SOL    HW219748   0.389   3.296   0.034  0.0338  1.1365  0.1756
 6487SOL     OW19749   4.595   3.900   3.755  0.6982  0.2485  0.6689
 6487SOL    HW119750   4.542   3.819   3.733  0.6163  0.6111 -0.5634
 6487SOL    HW219751   4.538   3.965   3.805 -0.5609  1.2595 -1.9031
 6488SOL     OW19752   4.326   3.634   1.785  0.3951  0.0482  0.0087
 6488SOL    HW119753   4.403   3.637   1.720 -0.7180 -0.0401 -1.3737
 6488SOL    HW219754   4.246   3.593   1.739 -0.2201 -0.7161  1.6877
 6489SOL     OW19755   2.506   5.729   0.265 -0.4048 -0.3134 -0.4434
 6489SOL    HW119756   2.440   5.795   0.299 -0.6848 -0.4059 -0.8029
 6489SOL    HW219757   2.470   5.636   0.276 -0.0354 -0.4064  0.0130
 6490SOL     OW19758   5.163   0.979   5.803 -0.0729 -0.0999  0.1578
 6490SOL    HW119759   5.147   0.937   5.714  1.6690 -2.4289  0.8565
 6490SOL    HW219760   5.111   0.930   5.873 -1.1335  1.4756  0.5387
 6491SOL     OW19761   4.395   4.196   5.320  0.1333  0.0963  0.0653
 6491SOL    HW119762   4.474   4.155   5.365  0.7612  0.3452 -0.7815
 6491SOL    HW219763   4.327   4.125   5.300  0.9388 -0.4551 -0.8271
 6492SOL     OW19764   3.313   4.528   2.792 -0.3133 -0.0260 -0.1052
 6492SOL    HW119765   3.301   4.491   2.700 -1.2267  0.3155 -0.1345
 6492SOL    HW219766   3.329   4.453   2.856  1.1414 -0.2100 -0.6460
 6493SOL     OW19767   1.774   4.575   2.618 -0.0247  0.4504 -1.0318
 6493SOL    HW119768   1.729   4.581   2.707  0.2336  1.7141 -0.9681
 6493SOL    HW219769   1.871   4.553   2.630 -0.3728 -1.2200 -1.1141
 6494SOL     OW19770   2.486   4.692   2.426 -0.1533 -0.0530 -0.1618
 6494SOL    HW119771   2.402   4.707   2.374  0.7474  1.2922 -1.3564
 6494SOL    HW219772   2.511   4.595   2.424 -0.6368 -0.1716 -1.5100
 6495SOL     OW19773   5.285   5.526   3.443 -0.1936  0.4803 -0.0517
 6495SOL    HW119774   5.265   5.465   3.367  0.1964  1.7342 -1.1966
 6495SOL    HW219775   5.337   5.605   3.410  0.3137  0.8682  1.5839
 6496SOL     OW19776   5.001   2.758   0.680 -0.6652  0.2356  0.5983
 6496SOL    HW119777   4.999   2.803   0.769 -0.4857  0.1576  0.6399
 6496SOL    HW219778   4.933   2.685   0.678 -0.1464 -0.2604  0.9270
 6497SOL     OW19779   5.574   0.691   0.758 -0.3331 -0.3591  0.1419
 6497SOL    HW119780   5.632   0.611   0.741 -1.1499 -0.9158 -0.1170
 6497SOL    HW219781   5.563   0.704   0.857  1.5538  0.7528  0.2425
 6498SOL     OW19782   0.603   5.672   2.658 -0.1413 -0.8296 -0.2784
 6498SOL    HW119783   0.504   5.680   2.671 -0.0881  0.6192 -0.4971
 6498SOL    HW219784   0.645   5.639   2.742 -0.5044  1.8149  1.0599
 6499SOL     OW19785   4.343   0.772   3.536  0.0066 -0.3094  0.3100
 6499SOL    HW119786   4.375   0.793   3.444  1.2785 -2.0193  0.3156
 6499SOL    HW219787   4.323   0.857   3.585 -0.0303  0.6407 -1.2978
 6500SOL     OW19788   0.858   2.857   2.734 -0.3868  0.8844  0.3787
 6500SOL    HW119789   0.871   2.936   2.794  0.4115  1.7725 -0.9114
 6500SOL    HW219790   0.762   2.829   2.736 -0.6897  1.9183  0.8402
 6501SOL     OW19791   4.077   1.949   2.242 -0.4727 -0.3550  0.4244
 6501SOL    HW119792   3.982   1.955   2.213 -0.7417  0.4863  1.4269
 6501SOL    HW219793   4.081   1.914   2.336  0.2463 -0.8274  0.2314
 6502SOL     OW19794   2.557   2.550   5.527  0.1390 -0.0068  0.4455
 6502SOL    HW119795   2.575   2.648   5.525  1.4990 -0.2459 -0.1528
 6502SOL    HW219796   2.620   2.503   5.464 -0.2997 -1.2900  0.9294
 6503SOL     OW19797   3.295   1.009   3.440  0.3976  0.6253  0.6846
 6503SOL    HW119798   3.325   1.104   3.437 -0.9255  1.0378 -0.7917
 6503SOL    HW219799   3.202   1.005   3.477  0.8026 -0.2225  1.6641
 6504SOL     OW19800   0.260   2.502   0.145 -0.3312  0.0607  0.1269
 6504SOL    HW119801   0.249   2.425   0.082 -0.3206 -0.4557  0.7461
 6504SOL    HW219802   0.253   2.588   0.095 -2.6426 -0.2805 -0.2419
 6505SOL     OW19803   1.434   2.899   1.815  0.4789 -0.5073  0.3347
 6505SOL    HW119804   1.490   2.937   1.742  0.5675 -2.5462 -0.7221
 6505SOL    HW219805   1.338   2.918   1.796  0.5848  0.1136  0.3987
 6506SOL     OW19806   0.264   3.067   0.326  0.0137 -0.1242 -0.0865
 6506SOL    HW119807   0.360   3.086   0.306 -0.0438  0.7455  0.4235
 6506SOL    HW219808   0.258   3.003   0.402  0.1844 -0.3527 -0.2623
 6507SOL     OW19809   2.118   2.136   4.501 -0.1313 -0.1331  0.0391
 6507SOL    HW119810   2.030   2.153   4.457  0.1190 -0.5933 -0.6553
 6507SOL    HW219811   2.104   2.124   4.599 -0.9382 -0.9177 -0.1580
 6508SOL     OW19812   1.933   2.320   0.168 -0.1586  0.3651  0.1379
 6508SOL    HW119813   1.979   2.310   0.079 -1.6271 -0.1834 -0.5848
 6508SOL    HW219814   1.897   2.232   0.197 -1.5358  0.9416  0.2359
 6509SOL     OW19815   4.252   3.887   1.847  0.4962  0.0969 -0.4776
 6509SOL    HW119816   4.275   3.791   1.830  0.4062  0.2707 -1.6567
 6509SOL    HW219817   4.336   3.939   1.859  0.5374 -0.2440  1.0222
 6510SOL     OW19818   5.400   2.185   4.821 -0.4609  1.1025  0.1005
 6510SOL    HW119819   5.326   2.251   4.814 -1.3057  0.2356  0.5212
 6510SOL    HW219820   5.432   2.160   4.729 -1.7528  0.3478 -0.1663
 6511SOL     OW19821   2.924   1.755   5.607  0.2451  0.1176 -0.6751
 6511SOL    HW119822   2.957   1.663   5.627  1.4773  0.6834  0.0482
 6511SOL    HW219823   2.825   1.753   5.596 -0.1503 -0.8712  2.1485
 6512SOL     OW19824   4.767   3.835   1.613  0.2267 -0.2154  0.1104
 6512SOL    HW119825   4.762   3.899   1.536  0.0308 -0.1257  0.1961
 6512SOL    HW219826   4.862   3.809   1.629  0.2671 -0.2437 -0.1708
 6513SOL     OW19827   2.279   3.782   0.905  0.2381  0.2653  0.6292
 6513SOL    HW119828   2.289   3.777   1.004 -0.9306  0.9119  0.8075
 6513SOL    HW219829   2.214   3.713   0.874 -0.6799  1.1338  0.5497
 6514SOL     OW19830   5.092   1.182   5.230 -0.3973  0.1023 -0.2588
 6514SOL    HW119831   5.055   1.093   5.253 -0.0248 -0.2733 -1.0474
 6514SOL    HW219832   5.160   1.210   5.298  0.7961 -1.0424 -0.9397
 6515SOL     OW19833   1.041   4.365   4.319 -0.3828  0.2740 -0.2466
 6515SOL    HW119834   1.068   4.425   4.244  0.6944 -1.6174 -1.4565
 6515SOL    HW219835   1.123   4.330   4.364 -1.0024  0.1730  0.8195
 6516SOL     OW19836   1.365   3.344   5.375  0.0492 -0.5021  0.2801
 6516SOL    HW119837   1.280   3.396   5.382 -0.6252 -1.5486  0.1762
 6516SOL    HW219838   1.419   3.379   5.299 -1.1024 -0.9244 -0.7665
 6517SOL     OW19839   5.859   2.370   0.021 -0.6039  0.2536  0.9585
 6517SOL    HW119840   5.796   2.424   0.078 -0.8730  0.1883  0.7257
 6517SOL    HW219841   5.859   2.275   0.052 -1.0674  0.1315  0.5836
 6518SOL     OW19842   0.042   0.348   3.603  0.4656 -0.4662  0.0050
 6518SOL    HW119843  -0.014   0.383   3.678 -2.0219 -1.6064 -1.1822
 6518SOL    HW219844   0.071   0.254   3.624  0.7353 -0.3773  0.0280
 6519SOL     OW19845   2.323   5.332   4.346  0.5151 -0.0978 -0.4599
 6519SOL    HW119846   2.342   5.365   4.253 -1.5306  1.3779 -0.4127
 6519SOL    HW219847   2.409   5.306   4.389  1.9345  2.1273 -1.7059
 6520SOL     OW19848   4.611   5.745   0.905 -0.6405  0.0316 -0.0214
 6520SOL    HW119849   4.537   5.785   0.960  0.2408  2.0108 -0.2094
 6520SOL    HW219850   4.650   5.667   0.955 -2.6174 -0.8664  0.2108
 6521SOL     OW19851   1.817   2.071   0.852 -0.0861 -0.1488  0.5560
 6521SOL    HW119852   1.893   2.135   0.863 -0.9535  1.0290 -0.0687
 6521SOL    HW219853   1.853   1.981   0.827  1.0875  0.5315 -0.3171
 6522SOL     OW19854   3.083   0.823   2.070 -0.3910 -0.5194  0.5123
 6522SOL    HW119855   3.113   0.918   2.069 -0.0398 -0.6192  0.9574
 6522SOL    HW219856   2.983   0.819   2.077 -0.3906 -0.1879  0.7038
 6523SOL     OW19857   4.548   5.688   2.508 -0.4357 -0.7923 -0.1065
 6523SOL    HW119858   4.577   5.673   2.602 -0.9500 -2.3588 -0.1770
 6523SOL    HW219859   4.620   5.737   2.458 -0.0627 -0.1646  1.0189
 6524SOL     OW19860   4.794   4.266   4.230  0.5056 -0.3097 -0.5262
 6524SOL    HW119861   4.828   4.214   4.309  1.0785 -1.4364 -1.4670
 6524SOL    HW219862   4.699   4.292   4.245  1.0663  0.8968  1.1978
 6525SOL     OW19863   5.752   1.944   5.006  0.5648  0.0527 -0.9251
 6525SOL    HW119864   5.831   1.897   4.965  0.3224 -1.4230  0.2205
 6525SOL    HW219865   5.769   1.957   5.104 -0.9295 -1.0683 -0.4771
 6526SOL     OW19866   0.010   1.299   1.318 -0.2005 -0.5761 -0.0626
 6526SOL    HW119867   0.046   1.221   1.268 -0.0338  0.8171 -2.2354
 6526SOL    HW219868   0.066   1.379   1.300 -1.9100  0.6783 -0.0862
 6527SOL     OW19869   1.801   5.601   4.358 -0.5396 -0.0091 -0.0491
 6527SOL    HW119870   1.800   5.563   4.265  2.7979 -0.6776  0.0561
 6527SOL    HW219871   1.869   5.675   4.362 -0.0091 -0.5565  2.0552
 6528SOL     OW19872   3.393   0.125   1.326  0.2632  0.0583  0.0078
 6528SOL    HW119873   3.493   0.122   1.323  0.2356 -0.2561 -0.7431
 6528SOL    HW219874   3.356   0.048   1.273 -0.3743 -0.6873  1.4728
 6529SOL     OW19875   0.694   3.459   5.554 -0.5070 -0.1943 -0.2080
 6529SOL    HW119876   0.662   3.401   5.479  0.4562 -0.4082 -0.4668
 6529SOL    HW219877   0.616   3.506   5.595 -1.1552 -0.7557 -0.7653
 6530SOL     OW19878   4.694   5.267   3.484  0.5147 -0.1758  0.0718
 6530SOL    HW119879   4.654   5.225   3.402  0.3987  1.4889 -0.7668
 6530SOL    HW219880   4.706   5.365   3.469  1.1393  0.0541  1.8183
 6531SOL     OW19881   3.203   3.983   3.935 -0.0047 -0.0627  0.2140
 6531SOL    HW119882   3.301   3.972   3.948 -0.0554  0.0544  0.7120
 6531SOL    HW219883   3.177   4.078   3.951 -0.7947 -0.7565  4.3782
 6532SOL     OW19884   4.339   2.148   2.638  0.1562 -0.0803 -0.6421
 6532SOL    HW119885   4.326   2.204   2.720  1.3625 -0.4456 -0.1817
 6532SOL    HW219886   4.320   2.052   2.659  0.9171 -0.2403 -0.6568
 6533SOL     OW19887   0.366   0.840   2.207  0.2650  0.0194  0.5379
 6533SOL    HW119888   0.300   0.781   2.159  2.1836  0.1176 -2.4779
 6533SOL    HW219889   0.333   0.934   2.206  0.2678  0.0257 -0.6784
 6534SOL     OW19890   4.952   0.075   0.178  0.0446  0.6586  0.3404
 6534SOL    HW119891   4.909  -0.015   0.189  0.5120  0.4454  0.4433
 6534SOL    HW219892   5.030   0.083   0.240  0.0916  1.0822  0.2310
 6535SOL     OW19893   1.699   3.186   3.139 -0.2645 -0.2186  0.3921
 6535SOL    HW119894   1.625   3.122   3.160 -0.1163 -0.7300 -0.5613
 6535SOL    HW219895   1.786   3.136   3.135 -0.2544 -0.1484 -1.1621
 6536SOL     OW19896   0.724   2.944   0.956 -0.0560 -0.3215 -0.4834
 6536SOL    HW119897   0.741   2.851   0.925  0.2998  0.3485 -2.4918
 6536SOL    HW219898   0.649   2.984   0.902  0.1850  0.7346 -0.0725
 6537SOL     OW19899   0.261   0.557   4.183 -0.2872  0.0366  0.2270
 6537SOL    HW119900   0.347   0.539   4.230  0.9912  0.6608 -1.7697
 6537SOL    HW219901   0.230   0.650   4.205  0.0650  0.1597  0.2063
 6538SOL     OW19902   5.585   3.742   2.883 -0.0912 -0.0203 -0.1873
 6538SOL    HW119903   5.556   3.701   2.797  0.4622  0.6444 -0.6964
 6538SOL    HW219904   5.553   3.685   2.959 -3.6122  1.1800 -0.6108
 6539SOL     OW19905   2.092   5.795   1.648 -0.2868  0.8460 -0.1897
 6539SOL    HW119906   2.020   5.758   1.590  0.9046  0.3857 -1.4436
 6539SOL    HW219907   2.153   5.721   1.678 -0.5602  1.1536  1.2355
 6540SOL     OW19908   0.797   2.826   3.817  0.1344 -0.5084  0.1219
 6540SOL    HW119909   0.865   2.762   3.852 -0.4920 -0.1421  2.1478
 6540SOL    HW219910   0.716   2.824   3.876  0.2612  2.4769  0.5210
 6541SOL     OW19911   5.726   5.692   2.855  0.9855 -0.2238  0.5151
 6541SOL    HW119912   5.761   5.785   2.849  0.3323  0.0087  0.2486
 6541SOL    HW219913   5.635   5.693   2.897  0.5802 -0.6404 -0.3212
 6542SOL     OW19914   5.437   3.605   4.169  0.2568 -0.1936  0.2544
 6542SOL    HW119915   5.510   3.545   4.201  2.2049  1.2672 -1.2637
 6542SOL    HW219916   5.435   3.689   4.223  0.1155  0.0418 -0.1073
 6543SOL     OW19917   5.537   3.836   1.964  0.0226 -0.7190  1.0824
 6543SOL    HW119918   5.461   3.892   1.997 -0.0738  0.7038 -1.3192
 6543SOL    HW219919   5.505   3.779   1.887  1.2461 -0.4585  0.3596
 6544SOL     OW19920   3.819   3.019   1.089  0.3235 -0.1488 -0.5318
 6544SOL    HW119921   3.805   3.107   1.134  1.3351 -0.0427 -0.3956
 6544SOL    HW219922   3.731   2.982   1.060 -0.0314  1.6994 -2.1000
 6545SOL     OW19923   1.182   4.349   2.944 -0.5381  0.1536 -0.1280
 6545SOL    HW119924   1.213   4.255   2.959  0.7605  0.1961 -2.2395
 6545SOL    HW219925   1.248   4.398   2.887 -1.3477  2.2748  0.6574
 6546SOL     OW19926   4.751   1.173   5.750 -0.0504 -0.2499  0.2371
 6546SOL    HW119927   4.850   1.188   5.755 -0.1358 -0.0387  2.1670
 6546SOL    HW219928   4.726   1.148   5.657  1.8031 -0.2375 -0.3133
 6547SOL     OW19929   1.180   3.065   2.364  0.4163 -0.1458 -0.5853
 6547SOL    HW119930   1.276   3.075   2.390  0.2312  2.0971 -0.5841
 6547SOL    HW219931   1.133   3.011   2.433  1.3698 -0.0297  0.1873
 6548SOL     OW19932   0.058   5.143   0.160  0.2589  0.5245 -0.0738
 6548SOL    HW119933   0.096   5.203   0.230 -0.3881  0.5885  0.2313
 6548SOL    HW219934  -0.042   5.155   0.156  0.2037 -0.0189 -0.4907
 6549SOL     OW19935   2.004   1.055   0.035 -0.4133 -0.2434 -0.4672
 6549SOL    HW119936   2.021   1.152   0.018  1.2657 -1.0414 -4.7220
 6549SOL    HW219937   1.917   1.029  -0.007 -1.2456 -0.5062  1.3361
 6550SOL     OW19938   1.907   2.622   3.590 -0.3629 -0.3620  0.1578
 6550SOL    HW119939   1.907   2.596   3.686  0.3171  1.0958  0.5779
 6550SOL    HW219940   1.984   2.683   3.572 -1.1311  0.2779 -1.0611
 6551SOL     OW19941   4.438   0.528   2.242  0.9580 -0.1375 -0.6214
 6551SOL    HW119942   4.346   0.533   2.205  0.4401  1.0052  0.7114
 6551SOL    HW219943   4.451   0.602   2.309  1.9894 -1.7735  1.0845
 6552SOL     OW19944   1.427   1.602   4.854  0.0713 -0.1519  0.2098
 6552SOL    HW119945   1.427   1.559   4.764 -1.6145 -0.5006  0.3419
 6552SOL    HW219946   1.475   1.543   4.919  0.0808 -0.5590 -0.1639
 6553SOL     OW19947   5.620   1.757   3.903  0.5001  0.1957 -0.4140
 6553SOL    HW119948   5.658   1.847   3.884 -0.1620  0.4265 -0.6661
 6553SOL    HW219949   5.588   1.754   3.998 -0.0807  0.4478 -0.5985
 6554SOL     OW19950   4.310   4.489   0.713  0.2465 -0.3889 -0.9371
 6554SOL    HW119951   4.380   4.537   0.660  1.8600 -3.7395 -2.0900
 6554SOL    HW219952   4.336   4.490   0.809  0.2758  0.9264 -0.9373
 6555SOL     OW19953   5.352   1.153   5.753 -0.2250 -0.4461  0.0570
 6555SOL    HW119954   5.269   1.098   5.765 -0.0380 -0.8020 -0.2800
 6555SOL    HW219955   5.336   1.224   5.684 -0.5003  0.0011  0.5706
 6556SOL     OW19956   3.839   5.278   3.059 -0.1324  0.1051 -0.6025
 6556SOL    HW119957   3.799   5.329   3.135 -0.5226  0.2655 -0.9138
 6556SOL    HW219958   3.879   5.343   2.994  0.4859 -0.0450 -0.3813
 6557SOL     OW19959   0.073   3.598   0.974  0.4045  0.0852 -0.0650
 6557SOL    HW119960   0.039   3.679   1.024  1.6195  1.0841 -0.8127
 6557SOL    HW219961   0.172   3.592   0.983  0.3074 -1.5308  0.2329
 6558SOL     OW19962   5.084   4.501   0.609 -0.0144 -0.0699 -0.4906
 6558SOL    HW119963   5.069   4.561   0.531 -1.1059  0.5937  0.1954
 6558SOL    HW219964   5.055   4.408   0.587  0.3729 -0.0473 -1.1033
 6559SOL     OW19965   5.518   2.413   4.999 -0.0871  0.0218  0.2116
 6559SOL    HW119966   5.419   2.414   4.986  0.1140  1.0706 -1.7125
 6559SOL    HW219967   5.557   2.331   4.956 -0.0109  0.2595 -0.1777
 6560SOL     OW19968  -0.011   3.070   3.246  0.9161 -0.3293  0.4822
 6560SOL    HW119969   0.003   3.166   3.267 -0.8146  0.0197  0.2013
 6560SOL    HW219970   0.046   3.014   3.306  1.4200  0.8464  1.1282
 6561SOL     OW19971   4.060   0.706   3.179 -0.3343  0.1796 -0.2806
 6561SOL    HW119972   4.138   0.669   3.129 -0.9129 -0.7565 -0.5076
 6561SOL    HW219973   4.080   0.704   3.277 -0.9779 -2.3793 -0.1243
 6562SOL     OW19974   4.055   5.855   0.605  0.0794  0.2988  0.4636
 6562SOL    HW119975   3.987   5.912   0.560  1.7993  1.9384 -0.1885
 6562SOL    HW219976   4.067   5.885   0.700 -0.2080 -0.0994  0.6295
 6563SOL     OW19977   1.384   1.633   2.050  0.5848 -0.1664  0.4992
 6563SOL    HW119978   1.293   1.593   2.061  0.0576  0.7801 -0.2259
 6563SOL    HW219979   1.428   1.642   2.139  0.4521 -1.6851  0.7556
 6564SOL     OW19980   4.950   0.290   5.093 -0.1652  0.2307  0.0243
 6564SOL    HW119981   4.873   0.317   5.035 -0.3805 -0.5448 -0.0617
 6564SOL    HW219982   4.957   0.353   5.170 -2.5791 -1.1775  1.5285
 6565SOL     OW19983   5.628   3.950   1.011  0.6082 -0.2732  0.4472
 6565SOL    HW119984   5.528   3.962   1.014  0.4882 -1.0068 -0.4606
 6565SOL    HW219985   5.661   3.973   0.920  1.2791 -0.0487  0.7446
 6566SOL     OW19986   1.806   4.241   3.233  0.6078  0.0133 -0.2494
 6566SOL    HW119987   1.850   4.324   3.198 -0.9845  1.3780  0.7975
 6566SOL    HW219988   1.797   4.248   3.332  0.3411 -1.3694 -0.1662
 6567SOL     OW19989   1.540   0.426   0.045  0.1006  0.3732 -0.5596
 6567SOL    HW119990   1.584   0.395   0.130  1.1826 -1.2935 -1.6834
 6567SOL    HW219991   1.441   0.413   0.053  0.2830 -0.7572  0.0750
 6568SOL     OW19992   0.686   1.942   4.744  0.0358  0.0310  0.2655
 6568SOL    HW119993   0.738   1.886   4.680  0.0368 -1.1523  1.2654
 6568SOL    HW219994   0.600   1.895   4.767 -0.4476  0.9258  0.3373
 6569SOL     OW19995   4.267   3.842   1.202  0.2871 -0.4674 -0.3445
 6569SOL    HW119996   4.219   3.928   1.183  0.3901  0.4415  2.9634
 6569SOL    HW219997   4.361   3.848   1.167  0.3201  0.8015 -0.0753
 6570SOL     OW19998   5.639   0.938   2.045 -0.3084  0.1682 -0.9045
 6570SOL    HW119999   5.579   0.883   2.103  0.9601  0.1819  0.4860
 6570SOL    HW220000   5.608   0.932   1.950 -1.5638 -1.0712 -0.4548
 6571SOL     OW20001   5.547   2.554   3.108  0.2595 -1.1412  0.0481
 6571SOL    HW120002   5.499   2.530   3.024 -0.4888 -0.4760  0.2777
 6571SOL    HW220003   5.506   2.506   3.185 -1.4479  0.9773  0.5570
 6572SOL     OW20004   4.898   5.837   4.800  0.3611  0.0212 -0.1486
 6572SOL    HW120005   4.866   5.747   4.769 -0.1024  0.6867 -1.7121
 6572SOL    HW220006   4.855   5.908   4.744  1.4475  1.1677  0.4373
 6573SOL     OW20007   2.924   4.424   1.743 -0.4195 -0.3535 -0.0237
 6573SOL    HW120008   2.904   4.413   1.646 -0.4282 -0.7195  0.0175
 6573SOL    HW220009   3.007   4.373   1.766  0.5027  1.0051 -0.1590
 6574SOL     OW20010   5.742   1.607   4.625 -0.0585 -0.1533  0.2400
 6574SOL    HW120011   5.720   1.550   4.705 -0.3806  1.9089  1.7121
 6574SOL    HW220012   5.680   1.584   4.550 -0.4871 -1.4072  0.9426
 6575SOL     OW20013   3.114   4.243   1.394 -0.4875  0.1020  0.3475
 6575SOL    HW120014   3.098   4.216   1.299  0.6275 -0.2833  0.2596
 6575SOL    HW220015   3.148   4.337   1.398 -2.1291  0.7287  0.5003
 6576SOL     OW20016   2.561   3.733   5.651  0.4440 -0.7899  0.0544
 6576SOL    HW120017   2.569   3.831   5.635 -0.5706 -0.9076 -1.3280
 6576SOL    HW220018   2.612   3.708   5.734  0.8879  0.8514  0.2991
 6577SOL     OW20019   3.351   3.145   5.580 -0.0267  0.8341  0.2262
 6577SOL    HW120020   3.377   3.174   5.672 -1.0241  1.4376  0.3276
 6577SOL    HW220021   3.254   3.164   5.564  0.0736  0.5252 -0.8697
 6578SOL     OW20022   2.418   5.324   1.762 -0.4434  0.2629  0.2627
 6578SOL    HW120023   2.457   5.232   1.762 -1.2298 -0.1067 -1.2298
 6578SOL    HW220024   2.430   5.365   1.672 -1.1915  1.1348  0.5457
 6579SOL     OW20025   4.874   5.194   4.907 -0.4367  0.4109  0.9663
 6579SOL    HW120026   4.907   5.109   4.865 -2.4371  0.0082  0.0510
 6579SOL    HW220027   4.943   5.230   4.969  2.5166  0.6963 -2.1547
 6580SOL     OW20028   2.013   2.249   0.580  0.0326  0.0469 -0.5944
 6580SOL    HW120029   2.104   2.207   0.589  0.0736  0.0404 -1.0282
 6580SOL    HW220030   1.950   2.204   0.643  0.4430  0.3787  0.0669
 6581SOL     OW20031   3.064   0.902   3.049 -0.6616 -0.4387  0.2539
 6581SOL    HW120032   3.132   0.885   3.121  0.1531  0.9232 -0.1485
 6581SOL    HW220033   2.999   0.827   3.046  0.8331 -1.7905  0.6474
 6582SOL     OW20034   1.635   5.739   5.778  0.7345 -0.5000  0.6417
 6582SOL    HW120035   1.640   5.831   5.738 -1.8254 -0.4713  0.2178
 6582SOL    HW220036   1.653   5.671   5.707 -1.2845 -0.3721 -0.0680
 6583SOL     OW20037   1.404   0.723   1.615  0.4006 -0.2012 -0.9098
 6583SOL    HW120038   1.454   0.670   1.548  1.9957  1.3643 -1.0361
 6583SOL    HW220039   1.375   0.810   1.575 -0.5203 -0.1442 -0.1807
 6584SOL     OW20040   3.318   5.632   3.872  0.1575 -0.0582 -0.0584
 6584SOL    HW120041   3.315   5.549   3.927 -0.9950  0.2558  0.3692
 6584SOL    HW220042   3.295   5.611   3.777  0.6260 -0.3469 -0.1101
 6585SOL     OW20043   0.119   3.379   1.642  0.2042  0.5283 -0.2572
 6585SOL    HW120044   0.189   3.344   1.579 -0.9499 -0.3000 -1.1188
 6585SOL    HW220045   0.117   3.479   1.638 -0.1250  0.4763 -1.8539
 6586SOL     OW20046   2.959   5.817   4.562 -0.2584  0.1483  0.2098
 6586SOL    HW120047   3.001   5.756   4.629  0.2103  0.5622  0.2974
 6586SOL    HW220048   3.023   5.834   4.487 -1.3450 -1.5988 -1.1858
 6587SOL     OW20049   0.491   5.504   2.233  0.1165  0.2024 -0.0089
 6587SOL    HW120050   0.474   5.588   2.285  0.9257  1.0502 -1.0505
 6587SOL    HW220051   0.540   5.527   2.149 -0.9811 -1.1500 -1.0647
 6588SOL     OW20052   4.209   0.800   2.185 -0.4876 -0.8674 -0.2869
 6588SOL    HW120053   4.133   0.832   2.242 -1.4004 -1.7462 -0.9873
 6588SOL    HW220054   4.180   0.721   2.132  0.6925 -0.7346 -1.1631
 6589SOL     OW20055   3.510   2.359   0.785  0.8017 -0.1918  0.8751
 6589SOL    HW120056   3.545   2.422   0.717 -0.0594 -0.6814 -0.0519
 6589SOL    HW220057   3.437   2.403   0.837 -0.4907 -0.7038 -0.4419
 6590SOL     OW20058   2.811   0.831   2.160 -0.1744 -0.4116 -0.9573
 6590SOL    HW120059   2.731   0.890   2.156 -0.3932 -0.5573  0.5656
 6590SOL    HW220060   2.783   0.736   2.171  0.0931 -0.1981  2.8347
 6591SOL     OW20061   0.332   1.316   3.237  0.6096  0.7838 -0.8008
 6591SOL    HW120062   0.270   1.248   3.197  0.1342  1.3635 -1.0673
 6591SOL    HW220063   0.423   1.305   3.197  0.4393  0.5566 -1.1337
 6592SOL     OW20064   4.115   2.724   5.508 -0.2566  0.2156  0.4483
 6592SOL    HW120065   4.165   2.649   5.465  0.8429  1.0813  0.1795
 6592SOL    HW220066   4.020   2.696   5.523  0.0175 -1.0607 -0.0511
 6593SOL     OW20067   3.464   2.660   2.008  0.2044  0.4790 -0.0607
 6593SOL    HW120068   3.450   2.746   1.959  2.4035  0.0291 -1.5960
 6593SOL    HW220069   3.483   2.679   2.104 -1.6240  1.5259  0.1370
 6594SOL     OW20070   4.902   3.448   3.667  0.1003 -0.3725  0.3008
 6594SOL    HW120071   4.877   3.378   3.734 -1.3444  0.4829  0.6872
 6594SOL    HW220072   4.989   3.490   3.693 -0.4643 -0.0095  1.6983
 6595SOL     OW20073   4.340   2.240   0.587 -0.1205  0.7470 -0.0815
 6595SOL    HW120074   4.440   2.244   0.578  0.0108 -0.3503  0.7026
 6595SOL    HW220075   4.311   2.145   0.596 -1.3283  0.9996 -1.0781
 6596SOL     OW20076   4.929   0.800   5.014  0.0142 -0.1465  0.1414
 6596SOL    HW120077   4.833   0.782   5.036 -0.0898  1.1469  0.8361
 6596SOL    HW220078   4.957   0.744   4.936 -0.6043 -2.3271  1.3929
 6597SOL     OW20079   4.059   4.115   2.734 -0.3277 -0.2792  0.4334
 6597SOL    HW120080   4.119   4.038   2.758  1.1201  0.7275  0.1591
 6597SOL    HW220081   4.103   4.172   2.665 -2.8423 -1.0487 -1.9798
 6598SOL     OW20082   1.970   3.343   5.716  0.0388  0.2733 -0.2385
 6598SOL    HW120083   1.930   3.427   5.752  0.0690  0.1396  0.1150
 6598SOL    HW220084   2.061   3.330   5.757  0.4830  0.6141 -1.0821
 6599SOL     OW20085   2.539   3.185   5.144  0.1850 -0.0818  0.0881
 6599SOL    HW120086   2.482   3.114   5.102 -0.3899  0.0191  0.6761
 6599SOL    HW220087   2.531   3.270   5.092 -2.1094  0.6289  1.4734
 6600SOL     OW20088   0.994   1.815   3.216  0.1695 -0.3480 -0.5590
 6600SOL    HW120089   0.933   1.864   3.278  0.0242  0.0665 -1.0290
 6600SOL    HW220090   1.084   1.807   3.258 -0.2923 -1.2926  0.3051
 6601SOL     OW20091   0.742   2.072   2.785 -0.2211  0.2410  0.2744
 6601SOL    HW120092   0.696   2.143   2.730 -1.1542  0.1088  0.8615
 6601SOL    HW220093   0.739   1.985   2.736  1.3617  0.6722 -0.6742
 6602SOL     OW20094   3.709   5.044   5.574 -0.1002 -0.2389  0.1186
 6602SOL    HW120095   3.662   5.091   5.499  1.8809  1.8142  0.0396
 6602SOL    HW220096   3.800   5.017   5.544  0.3868 -0.2012  1.4872
 6603SOL     OW20097   1.975   5.628   0.491 -0.4900 -0.0774 -0.0371
 6603SOL    HW120098   1.969   5.678   0.578 -0.4835 -0.7019  0.3304
 6603SOL    HW220099   1.934   5.682   0.419 -1.3365  0.0652  0.5323
 6604SOL     OW20100   5.488   3.827   4.542 -0.1771  0.0556 -0.0759
 6604SOL    HW120101   5.518   3.825   4.637 -0.0957  0.7842 -0.0791
 6604SOL    HW220102   5.399   3.872   4.536  0.2997  0.9986 -0.4511
 6605SOL     OW20103   2.897   3.430   5.265  0.4452  0.0906  0.3424
 6605SOL    HW120104   2.863   3.449   5.357  0.9519  0.6904  0.4137
 6605SOL    HW220105   2.869   3.338   5.237 -0.1288  0.0936  0.8977
 6606SOL     OW20106   3.493   0.049   4.753  0.0280 -0.6317 -0.8693
 6606SOL    HW120107   3.556   0.127   4.753  1.3796 -1.6671 -2.2427
 6606SOL    HW220108   3.544  -0.034   4.774 -1.2705 -1.2685 -0.1356
 6607SOL     OW20109   5.618   5.923   5.251  0.1750 -0.1046  0.3552
 6607SOL    HW120110   5.677   5.935   5.332  0.6007  0.3311 -0.0144
 6607SOL    HW220111   5.625   5.829   5.218  0.9153  0.0347  0.1179
 6608SOL     OW20112   1.099   5.583   1.291 -0.0699  0.4256  0.1837
 6608SOL    HW120113   1.102   5.596   1.192 -0.8304  1.0059  0.2300
 6608SOL    HW220114   1.004   5.570   1.321  0.1632  0.1168  0.8196
 6609SOL     OW20115   0.908   0.766   1.618 -0.3601 -0.2726  0.0393
 6609SOL    HW120116   0.939   0.845   1.670 -1.8989  0.1729  0.3283
 6609SOL    HW220117   0.980   0.738   1.554  1.0852 -0.0760  1.5063
 6610SOL     OW20118   4.976   4.662   1.838 -0.3055 -0.1467  0.5520
 6610SOL    HW120119   4.941   4.569   1.845  0.7427 -0.5014  1.4995
 6610SOL    HW220120   5.064   4.660   1.790  0.0663  0.2386  1.1981
 6611SOL     OW20121   5.088   5.757   1.801 -0.0881 -0.0964 -0.4898
 6611SOL    HW120122   5.167   5.757   1.862 -0.1809 -0.6719 -0.3602
 6611SOL    HW220123   5.007   5.787   1.851 -0.1337 -0.4172 -0.3668
 6612SOL     OW20124   2.886   0.291   3.763  0.3096  0.4552  0.0159
 6612SOL    HW120125   2.955   0.352   3.725  0.5185 -0.4769 -1.1737
 6612SOL    HW220126   2.928   0.230   3.831  0.2989  0.9927  0.5086
 6613SOL     OW20127   2.201   2.210   5.993  0.7306 -0.3194  0.6153
 6613SOL    HW120128   2.259   2.155   5.933 -0.9597 -0.3456 -1.0794
 6613SOL    HW220129   2.124   2.245   5.942  0.8982  2.3695  2.0457
 6614SOL     OW20130   5.168   4.406   2.909  0.6863 -0.3030  0.3788
 6614SOL    HW120131   5.231   4.330   2.898  0.9536 -0.2317  1.3111
 6614SOL    HW220132   5.186   4.451   2.997 -0.3619 -0.0038  0.4465
 6615SOL     OW20133   4.426   1.212   3.252 -0.1064 -0.7932  0.2208
 6615SOL    HW120134   4.390   1.304   3.241  1.9099  0.3214  2.2095
 6615SOL    HW220135   4.365   1.160   3.313 -0.4285 -0.2328  0.3825
 6616SOL     OW20136   0.417   5.884   3.864  0.0246  0.0536 -0.0458
 6616SOL    HW120137   0.386   5.979   3.863  0.0334  0.0523 -0.3999
 6616SOL    HW220138   0.513   5.880   3.836  0.9184  0.2585  2.6265
 6617SOL     OW20139   4.745   5.239   0.635 -0.2812 -0.2459  0.3825
 6617SOL    HW120140   4.747   5.321   0.692 -1.4843  0.6084 -0.7360
 6617SOL    HW220141   4.650   5.212   0.619  0.0565 -0.9212 -0.5693
 6618SOL     OW20142   5.497   2.234   2.015  0.7482  0.1445 -0.2718
 6618SOL    HW120143   5.464   2.169   1.946 -1.5734  0.7848  0.1674
 6618SOL    HW220144   5.542   2.184   2.089  0.6170 -0.8057 -0.8197
 6619SOL     OW20145   2.484   1.649   1.357  0.4911 -0.2265  0.0759
 6619SOL    HW120146   2.472   1.681   1.451  1.0452  0.7139 -0.1654
 6619SOL    HW220147   2.403   1.596   1.329 -0.9295  1.7884  0.1619
 6620SOL     OW20148   0.620   2.630   2.475  0.4454  0.0156 -0.1280
 6620SOL    HW120149   0.546   2.687   2.511 -1.0297 -1.3354 -0.9006
 6620SOL    HW220150   0.694   2.689   2.440 -0.5314  1.4121  0.0918
 6621SOL     OW20151   2.717   1.216   0.882 -0.9653  0.0888  0.1883
 6621SOL    HW120152   2.660   1.136   0.864 -2.3438  1.0695  0.0311
 6621SOL    HW220153   2.813   1.194   0.862 -1.5581 -0.9123 -1.8529
 6622SOL     OW20154   5.820   4.966   5.643 -0.1535 -0.2347  0.4959
 6622SOL    HW120155   5.919   4.971   5.631 -0.2111  0.9597  0.3614
 6622SOL    HW220156   5.794   5.018   5.725 -0.7515  0.2046  0.0318
 6623SOL     OW20157   4.364   2.723   5.878  0.0206  0.1823  0.2228
 6623SOL    HW120158   4.438   2.659   5.856 -0.9790  0.1644 -4.0912
 6623SOL    HW220159   4.400   2.816   5.878  0.4254  0.0311  0.2423
 6624SOL     OW20160   1.942   4.166   4.463 -0.9232 -0.6273 -0.2285
 6624SOL    HW120161   1.915   4.173   4.367 -1.7538  0.2228  0.0574
 6624SOL    HW220162   1.870   4.120   4.514 -0.0313 -2.0441 -0.1773
 6625SOL     OW20163   1.179   0.799   4.496 -0.4451  0.2911  0.5599
 6625SOL    HW120164   1.165   0.894   4.469 -0.0619  0.2264  0.1055
 6625SOL    HW220165   1.094   0.748   4.484  0.0852 -0.0955 -2.1351
 6626SOL     OW20166   1.697   1.091   4.837 -0.2520  0.2861  0.0313
 6626SOL    HW120167   1.673   1.009   4.889  0.7026  0.3014  0.5065
 6626SOL    HW220168   1.786   1.125   4.867 -0.5058  1.3354 -0.3635
 6627SOL     OW20169   3.178   1.847   4.702  0.4367  0.2427 -0.1194
 6627SOL    HW120170   3.194   1.908   4.779  3.8319 -0.7184  0.0699
 6627SOL    HW220171   3.135   1.763   4.735  0.6320  0.3813  0.5080
 6628SOL     OW20172   0.048   5.560   4.993 -0.8656  0.2540  0.4217
 6628SOL    HW120173   0.069   5.642   5.046  0.6817 -1.0055  1.8512
 6628SOL    HW220174   0.133   5.517   4.963 -1.6603 -0.6401 -0.6171
 6629SOL     OW20175   4.807   0.964   4.732  0.0483 -0.5391  0.1619
 6629SOL    HW120176   4.741   1.039   4.743 -0.1529 -0.7388  0.3186
 6629SOL    HW220177   4.844   0.967   4.639  1.9086  1.2733  0.8859
 6630SOL     OW20178   3.215   5.341   0.806  1.0594  0.2433 -0.0131
 6630SOL    HW120179   3.243   5.245   0.809  2.8641  0.7509  0.2060
 6630SOL    HW220180   3.145   5.357   0.876 -0.4328 -1.2304 -1.0936
 6631SOL     OW20181   3.279   4.455   0.534  0.1098  0.0658 -0.0784
 6631SOL    HW120182   3.296   4.427   0.440  1.4682 -0.1114  0.1900
 6631SOL    HW220183   3.183   4.476   0.546 -0.2457 -0.7536 -1.2864
 6632SOL     OW20184   4.842   0.862   5.432  0.0119  0.2131  0.0549
 6632SOL    HW120185   4.784   0.937   5.464  0.3982  0.1160  1.0003
 6632SOL    HW220186   4.900   0.894   5.356 -0.8831  0.4511 -0.5431
 6633SOL     OW20187   2.890   2.177   3.123  0.0100  0.0353  0.1035
 6633SOL    HW120188   2.892   2.271   3.155 -0.8563 -0.2414  0.9986
 6633SOL    HW220189   2.845   2.119   3.190 -0.0575 -0.9159 -0.7296
 6634SOL     OW20190   3.018   1.717   2.068 -0.0248  0.6014  0.1761
 6634SOL    HW120191   3.020   1.759   1.977 -0.8549  2.1287  0.8279
 6634SOL    HW220192   3.041   1.785   2.137 -1.2742 -0.0356  1.2700
 6635SOL     OW20193   1.475   2.613   1.376  0.0100  0.1359  0.0806
 6635SOL    HW120194   1.449   2.613   1.280  0.1387  0.9754  0.0386
 6635SOL    HW220195   1.556   2.556   1.388  0.3184  0.4632 -0.4040
 6636SOL     OW20196   3.568   5.708   3.165 -0.0387 -0.1400  0.0899
 6636SOL    HW120197   3.472   5.681   3.161 -0.3813  1.1182 -1.4274
 6636SOL    HW220198   3.613   5.685   3.078  0.0939  2.3288 -0.5770
 6637SOL     OW20199   2.562   5.976   3.372 -0.1202  0.1826  0.3227
 6637SOL    HW120200   2.564   5.876   3.371  0.3953  0.1884  0.7818
 6637SOL    HW220201   2.509   6.009   3.293 -0.4852 -0.4527  0.2965
 6638SOL     OW20202   5.206   2.917   4.820 -0.4921  0.1450  0.4543
 6638SOL    HW120203   5.274   2.971   4.770  1.0041 -2.8320 -1.0315
 6638SOL    HW220204   5.114   2.948   4.797  0.2585  1.0885 -1.5099
 6639SOL     OW20205   1.476  -0.016   3.999  0.5235  0.0452 -0.1533
 6639SOL    HW120206   1.487   0.082   3.980  2.0829  0.0897  0.7854
 6639SOL    HW220207   1.565  -0.056   4.022 -0.2863 -1.2984  0.8117
 6640SOL     OW20208   1.351   1.170   0.232 -0.4161 -0.4386  0.2913
 6640SOL    HW120209   1.312   1.263   0.228 -0.3532 -0.3909  0.7686
 6640SOL    HW220210   1.276   1.103   0.233 -0.4770 -0.3634  0.7668
 6641SOL     OW20211   3.593   2.486   4.511 -0.3024 -0.4582 -0.1378
 6641SOL    HW120212   3.579   2.497   4.413  0.1300 -0.4974 -0.2038
 6641SOL    HW220213   3.666   2.547   4.542 -0.0918 -0.8155  0.0697
 6642SOL     OW20214   5.887   4.576   1.819  0.4184  0.1445 -0.3588
 6642SOL    HW120215   5.857   4.667   1.791  0.6460  0.6080  0.8571
 6642SOL    HW220216   5.982   4.562   1.790 -0.6614 -1.1675 -3.8401
 6643SOL     OW20217   5.290   3.238   0.117 -0.7529 -0.2073  0.0305
 6643SOL    HW120218   5.345   3.191   0.186 -1.0305 -0.7712 -0.1295
 6643SOL    HW220219   5.227   3.173   0.075 -1.3370  0.3700  0.0055
 6644SOL     OW20220   4.117   2.642   0.332  0.5065 -0.1888  0.6470
 6644SOL    HW120221   4.116   2.557   0.386  1.4006  0.8960  2.4752
 6644SOL    HW220222   4.196   2.642   0.271  0.1673 -0.9090  0.1920
 6645SOL     OW20223   2.094   4.937   2.625  0.1954 -0.4649 -0.3806
 6645SOL    HW120224   2.069   4.998   2.550  0.4726 -0.9189 -0.8504
 6645SOL    HW220225   2.066   4.978   2.712  0.0675  0.1681 -0.7115
 6646SOL     OW20226   3.040   5.730   3.470 -0.1943 -0.7739 -0.1390
 6646SOL    HW120227   2.996   5.820   3.478  0.9942 -0.1299 -0.6641
 6646SOL    HW220228   3.065   5.713   3.374 -0.5262 -1.7415 -0.0725
 6647SOL     OW20229   0.837   1.591   2.378  0.0532  0.7618  0.7922
 6647SOL    HW120230   0.764   1.588   2.308 -0.2252  0.8412  1.0756
 6647SOL    HW220231   0.858   1.686   2.399  0.8043  0.7560  0.1365
 6648SOL     OW20232   2.920   5.144   2.850  0.4337  1.0273  0.1749
 6648SOL    HW120233   2.887   5.195   2.771  1.0669  2.1779  0.6338
 6648SOL    HW220234   2.907   5.046   2.834 -0.3929  1.2969 -0.9081
 6649SOL     OW20235   5.528   1.792   4.171 -0.1242  0.3543 -0.0238
 6649SOL    HW120236   5.468   1.869   4.190  1.3074  1.2143  1.2497
 6649SOL    HW220237   5.608   1.796   4.231  1.1410 -0.8187 -1.5311
 6650SOL     OW20238   0.647   0.511   1.740 -0.3571  0.1490 -0.3317
 6650SOL    HW120239   0.641   0.480   1.835 -1.8068 -2.8016 -1.2771
 6650SOL    HW220240   0.667   0.434   1.681  2.0890  2.1878 -2.3671
 6651SOL     OW20241   4.659   5.443   1.622  0.3656 -0.0387 -0.9994
 6651SOL    HW120242   4.673   5.461   1.719  0.7000 -1.7347 -0.6973
 6651SOL    HW220243   4.714   5.506   1.567  1.8527 -0.4571 -0.0291
 6652SOL     OW20244   0.576   0.856   0.239  0.2203  0.1119  0.4192
 6652SOL    HW120245   0.541   0.763   0.226  2.2522 -0.9111  1.7477
 6652SOL    HW220246   0.537   0.916   0.169 -1.0819 -1.7372 -0.5325
 6653SOL     OW20247   4.517   3.109   4.133 -0.2475  0.1399 -0.8174
 6653SOL    HW120248   4.556   3.184   4.187  1.2101 -0.8347 -0.4839
 6653SOL    HW220249   4.467   3.047   4.194 -1.1180  0.5943 -1.0411
 6654SOL     OW20250   4.597   2.699   1.311 -0.1952  0.3303  0.0564
 6654SOL    HW120251   4.534   2.641   1.363  2.1158 -1.3552  1.1660
 6654SOL    HW220252   4.596   2.792   1.349 -0.0099 -0.3771  1.8674
 6655SOL     OW20253   5.706   1.030   1.477 -0.4829  0.0348  0.3960
 6655SOL    HW120254   5.788   1.062   1.525 -0.5555  0.0923  0.4812
 6655SOL    HW220255   5.681   1.096   1.407  0.8595 -1.0371 -1.1768
 6656SOL     OW20256   5.309   1.904   3.112 -0.3795  0.5933  0.1457
 6656SOL    HW120257   5.408   1.899   3.098 -0.4987 -1.3637 -0.2401
 6656SOL    HW220258   5.281   1.836   3.179 -1.5472  0.7298 -0.1770
 6657SOL     OW20259   2.174   1.638   4.906  0.3226  0.0221 -0.1809
 6657SOL    HW120260   2.146   1.589   4.823  0.1502 -1.9864  1.0021
 6657SOL    HW220261   2.269   1.616   4.927 -0.2799 -1.3139  1.3480
 6658SOL     OW20262   0.852   2.299   2.417 -0.3270 -0.6412 -0.0115
 6658SOL    HW120263   0.925   2.238   2.385  0.5004  0.1864  0.2416
 6658SOL    HW220264   0.893   2.382   2.455 -1.4461  0.5273 -1.2417
 6659SOL     OW20265   0.140   0.450   0.207 -0.1024 -0.0718  0.0677
 6659SOL    HW120266   0.148   0.357   0.244  0.6306 -0.0690 -0.0775
 6659SOL    HW220267   0.086   0.506   0.271 -0.3030 -0.5175  0.2963
 6660SOL     OW20268   0.871   2.608   3.565  0.0077 -0.5283  0.3268
 6660SOL    HW120269   0.901   2.699   3.590 -0.1818 -0.5106  0.4955
 6660SOL    HW220270   0.796   2.580   3.625 -0.5667 -0.4158 -0.3321
 6661SOL     OW20271   0.902   4.371   4.857  0.7852  0.2549  0.6708
 6661SOL    HW120272   0.918   4.355   4.760 -0.4178 -0.3864  0.5609
 6661SOL    HW220273   0.981   4.338   4.909  1.1479 -0.0196 -0.0401
 6662SOL     OW20274   0.032   3.803   2.078  0.6727 -0.5182 -0.5056
 6662SOL    HW120275  -0.024   3.886   2.077  1.5324  0.0772 -1.4007
 6662SOL    HW220276   0.043   3.771   2.172 -1.1114 -0.6263 -0.3122
 6663SOL     OW20277   2.660   4.821   2.236 -0.3076  0.9653 -0.1176
 6663SOL    HW120278   2.757   4.798   2.246 -0.0405  2.0274 -0.0469
 6663SOL    HW220279   2.604   4.750   2.279  0.3024 -0.8764 -2.2203
 6664SOL     OW20280   1.371   4.464   5.837  0.4455 -0.1183  0.5416
 6664SOL    HW120281   1.422   4.444   5.921 -1.8114  2.5397  2.7474
 6664SOL    HW220282   1.408   4.548   5.795  0.2392 -0.2723  0.0435
 6665SOL     OW20283   3.308   0.886   4.231  0.6415  0.1874 -0.3289
 6665SOL    HW120284   3.390   0.834   4.254  1.8765  2.3580  0.4392
 6665SOL    HW220285   3.253   0.900   4.313  0.3807  0.2190 -0.5064
 6666SOL     OW20286   2.502   4.839   4.346  0.1531 -0.3079  0.6587
 6666SOL    HW120287   2.442   4.887   4.282 -0.0372 -1.7459 -0.2641
 6666SOL    HW220288   2.492   4.881   4.437 -1.6850 -0.0205  0.3717
 6667SOL     OW20289   3.223   4.839   2.299 -0.3419  0.1227 -0.1809
 6667SOL    HW120290   3.213   4.741   2.313  0.8371 -0.0042 -0.1054
 6667SOL    HW220291   3.191   4.864   2.208 -1.7697 -0.1291  0.2309
 6668SOL     OW20292   5.297   2.317   5.446  0.0802  0.3835 -0.0904
 6668SOL    HW120293   5.257   2.334   5.536 -3.4115 -1.0215 -1.2067
 6668SOL    HW220294   5.238   2.356   5.376  0.0590 -2.6079 -1.9252
 6669SOL     OW20295   5.895   0.545   1.224  0.3631 -0.1028  0.8513
 6669SOL    HW120296   5.813   0.601   1.208  0.6605  0.3635  0.9466
 6669SOL    HW220297   5.971   0.581   1.170  0.1960 -1.2902 -0.2192
 6670SOL     OW20298   4.219   5.646   3.564  0.2782 -0.3976  0.2190
 6670SOL    HW120299   4.260   5.694   3.642 -1.0574  0.4980  0.4018
 6670SOL    HW220300   4.200   5.711   3.491  1.0442 -1.1470 -0.6675
 6671SOL     OW20301   4.357   5.054   1.754  0.0881  0.2006 -0.5197
 6671SOL    HW120302   4.377   5.052   1.656 -0.6400  0.5144 -0.6825
 6671SOL    HW220303   4.396   5.138   1.793  0.1371  0.2152 -0.5985
 6672SOL     OW20304   3.066   1.623   3.977  0.0421 -0.3646  0.2282
 6672SOL    HW120305   3.044   1.554   4.046  1.6441 -0.0657  1.0697
 6672SOL    HW220306   3.073   1.713   4.020  1.2765 -0.2061 -0.2635
 6673SOL     OW20307   2.358   2.712   0.910  0.3601 -0.3906 -0.4105
 6673SOL    HW120308   2.308   2.631   0.883  0.7881 -0.4690 -0.9834
 6673SOL    HW220309   2.394   2.759   0.829 -2.0501  1.8293 -0.3397
 6674SOL     OW20310   1.972   1.724   4.557 -0.4000 -0.8582  0.1539
 6674SOL    HW120311   1.873   1.714   4.544 -0.4058  0.3376 -0.9660
 6674SOL    HW220312   1.990   1.777   4.639 -0.8284  1.2467 -1.0406
 6675SOL     OW20313   4.124   1.852   5.530 -0.2336 -0.4474 -0.1680
 6675SOL    HW120314   4.053   1.835   5.599 -0.3817  2.3655  0.5100
 6675SOL    HW220315   4.208   1.806   5.557 -0.2521  0.6679  2.0190
 6676SOL     OW20316   4.752   2.913   4.488  0.0824  0.5289 -0.2714
 6676SOL    HW120317   4.694   2.978   4.536  1.1676  2.9760 -2.0863
 6676SOL    HW220318   4.705   2.825   4.481 -2.1408  1.5623  0.8180
 6677SOL     OW20319   3.059   5.519   2.515  0.0134  0.0009  0.4200
 6677SOL    HW120320   3.113   5.475   2.443 -1.4892 -0.2959 -0.5771
 6677SOL    HW220321   3.105   5.604   2.543  1.1943 -0.4454 -0.0844
 6678SOL     OW20322   0.749   0.515   4.516 -0.1417  0.1110 -0.8800
 6678SOL    HW120323   0.674   0.571   4.552 -0.2979 -0.4586 -0.2953
 6678SOL    HW220324   0.713   0.431   4.476  0.2848 -1.6183  2.0624
 6679SOL     OW20325   0.671   3.847   1.758 -0.3801 -0.4215 -0.4979
 6679SOL    HW120326   0.666   3.944   1.784  0.1948 -0.3240 -0.7550
 6679SOL    HW220327   0.601   3.828   1.688 -2.4342 -0.8446  1.5265
 6680SOL     OW20328   3.634   0.499   3.236  0.3393 -0.2562 -0.0868
 6680SOL    HW120329   3.646   0.442   3.317 -1.0395  0.7958  0.9069
 6680SOL    HW220330   3.724   0.529   3.202  0.9244  1.0953  2.4030
 6681SOL     OW20331   1.782   0.095   5.359  0.0012  0.0318  0.7047
 6681SOL    HW120332   1.853   0.052   5.304  1.0135  0.9005  1.2984
 6681SOL    HW220333   1.706   0.031   5.371  0.1449 -0.4997 -0.9192
 6682SOL     OW20334   5.346   3.612   3.914  0.0385  0.0956  0.3053
 6682SOL    HW120335   5.368   3.624   4.011  1.3841 -1.4141  0.2187
 6682SOL    HW220336   5.379   3.523   3.883 -0.7012  0.4029 -1.4656
 6683SOL     OW20337   2.657   1.131   0.110 -0.2584  0.5498  0.1540
 6683SOL    HW120338   2.612   1.046   0.137 -1.0056  0.8346 -0.1831
 6683SOL    HW220339   2.753   1.113   0.088 -0.5144 -0.2764 -0.2966
 6684SOL     OW20340   0.996   2.138   3.424  0.5812  0.8584 -0.1932
 6684SOL    HW120341   0.999   2.226   3.472 -2.5080  0.6156  0.6902
 6684SOL    HW220342   1.087   2.097   3.424  1.4964  2.6127  2.1813
 6685SOL     OW20343   0.274   3.859   0.830  0.3171  0.8109  0.1531
 6685SOL    HW120344   0.249   3.903   0.916 -1.3456  1.0492 -0.4052
 6685SOL    HW220345   0.325   3.775   0.848  0.8160  1.3522  1.3275
 6686SOL     OW20346   1.737   4.897   5.017 -0.0255 -0.2843 -0.0572
 6686SOL    HW120347   1.714   4.859   4.928  2.1425  1.5644 -1.5239
 6686SOL    HW220348   1.834   4.881   5.036 -0.3844 -0.4600  1.9100
 6687SOL     OW20349   1.731   4.594   0.009  0.3265 -0.0151  0.0670
 6687SOL    HW120350   1.825   4.561  -0.006 -0.2117 -2.0018  0.7221
 6687SOL    HW220351   1.694   4.552   0.092 -1.3026  0.3750 -0.4221
 6688SOL     OW20352   2.565   1.966   0.816  0.3601 -0.1683  0.0433
 6688SOL    HW120353   2.658   1.932   0.805  0.9063  1.2702 -0.0515
 6688SOL    HW220354   2.544   1.976   0.913 -0.2076 -1.7599  0.1123
 6689SOL     OW20355   2.677   2.329   2.666 -0.4673  0.0147 -0.9219
 6689SOL    HW120356   2.607   2.266   2.702 -0.4160 -0.4477 -1.6146
 6689SOL    HW220357   2.753   2.334   2.730 -1.6243  1.4061  0.4037
 6690SOL     OW20358   2.890   2.284   2.233 -0.0278  0.4057  0.4418
 6690SOL    HW120359   2.870   2.381   2.247 -0.2300  0.4515 -0.1238
 6690SOL    HW220360   2.943   2.249   2.310 -0.5935  0.7797  1.0075
 6691SOL     OW20361   0.230   5.860   2.268  0.3997  0.2228 -0.1575
 6691SOL    HW120362   0.213   5.792   2.198  1.8702  1.1818 -1.5163
 6691SOL    HW220363   0.155   5.926   2.270  0.3053  0.1358 -0.7641
 6692SOL     OW20364   2.212   2.366   2.371  0.5798 -0.0423 -0.1844
 6692SOL    HW120365   2.231   2.300   2.443 -2.0415  1.6604  2.2480
 6692SOL    HW220366   2.283   2.436   2.370  1.3416 -0.7928 -0.2347
 6693SOL     OW20367   3.399   1.404   2.351  0.0955 -0.6673  0.9019
 6693SOL    HW120368   3.303   1.396   2.324 -0.3467  0.4941  2.0638
 6693SOL    HW220369   3.410   1.482   2.413  2.0345  0.0939 -0.3146
 6694SOL     OW20370   4.753   3.212   2.260  0.7507 -0.8442 -0.4187
 6694SOL    HW120371   4.683   3.223   2.330  2.5804  2.5321  1.1413
 6694SOL    HW220372   4.711   3.184   2.174 -2.4688  0.5968  0.5364
 6695SOL     OW20373   2.753   0.844   1.459  0.0744 -0.1958  0.0432
 6695SOL    HW120374   2.815   0.767   1.450  0.2471 -0.2422  1.5136
 6695SOL    HW220375   2.659   0.811   1.467 -0.3241 -0.1045 -3.0637
 6696SOL     OW20376   5.226   5.694   2.813  0.5413 -0.4004  0.5563
 6696SOL    HW120377   5.193   5.756   2.742  1.1170 -1.9225 -1.1125
 6696SOL    HW220378   5.191   5.723   2.902 -1.2233  0.8471 -0.4968
 6697SOL     OW20379   5.602   5.198   2.556 -0.2485 -0.0978 -0.2159
 6697SOL    HW120380   5.639   5.154   2.638 -2.4745 -2.0087 -0.1451
 6697SOL    HW220381   5.641   5.155   2.475  0.5558  0.5493 -0.1918
 6698SOL     OW20382   1.102   3.479   5.373  0.6535 -0.8815  0.4251
 6698SOL    HW120383   1.169   3.552   5.356  0.7990 -0.9487  0.6941
 6698SOL    HW220384   1.031   3.514   5.433  0.6981 -0.9458  0.5160
 6699SOL     OW20385   0.947   0.335   3.225 -0.0257 -0.4108 -0.2807
 6699SOL    HW120386   1.033   0.359   3.269  0.3914 -1.5704 -0.4308
 6699SOL    HW220387   0.963   0.266   3.154 -0.8032  0.7677 -1.6760
 6700SOL     OW20388   1.477   5.574   3.817  0.6634  0.2361 -0.0064
 6700SOL    HW120389   1.489   5.510   3.741  1.0813  1.6213 -1.1614
 6700SOL    HW220390   1.384   5.567   3.852  0.1268  0.2850 -1.3538
 6701SOL     OW20391   2.927   3.587   4.716  0.5413 -0.1931 -0.2624
 6701SOL    HW120392   2.967   3.521   4.653 -0.1067  0.0289 -0.9256
 6701SOL    HW220393   2.923   3.548   4.808 -0.0582 -1.1742 -0.6900
 6702SOL     OW20394   0.707   0.047   4.158 -0.7846  0.0901  0.0381
 6702SOL    HW120395   0.722   0.142   4.134  1.4297  0.5276  2.7129
 6702SOL    HW220396   0.778  -0.010   4.116 -0.7255 -0.0425  0.3148
 6703SOL     OW20397   0.376   0.212   0.417 -0.1007 -0.0602  0.0916
 6703SOL    HW120398   0.455   0.274   0.415  0.9504 -1.3259  1.0659
 6703SOL    HW220399   0.341   0.204   0.511 -1.7483  0.8723 -0.3910
 6704SOL     OW20400   5.700   1.336   2.515  0.4193 -0.2418  0.3306
 6704SOL    HW120401   5.629   1.313   2.581  0.1740 -2.9528 -0.7712
 6704SOL    HW220402   5.765   1.261   2.508  2.1916  1.2659 -0.3042
 6705SOL     OW20403   4.414   5.861   4.286 -0.2139 -0.3187  0.1243
 6705SOL    HW120404   4.398   5.912   4.202  1.0102  1.3485  0.8601
 6705SOL    HW220405   4.461   5.775   4.265  1.9207  0.9896 -0.7766
 6706SOL     OW20406   5.695   2.614   5.307 -0.4057 -0.5046 -0.3189
 6706SOL    HW120407   5.759   2.576   5.241  1.6313  0.5308  0.9701
 6706SOL    HW220408   5.733   2.697   5.348 -1.2365 -1.4589  2.6560
 6707SOL     OW20409   5.609   0.215   4.585 -0.1416  0.0622 -0.4899
 6707SOL    HW120410   5.676   0.165   4.529 -1.8565  0.1692 -2.8022
 6707SOL    HW220411   5.520   0.213   4.538 -1.6821  0.2669  2.2588
 6708SOL     OW20412   4.351   4.274   3.199  0.1469 -0.3269  0.0876
 6708SOL    HW120413   4.377   4.298   3.105  1.0283  2.1321  0.8956
 6708SOL    HW220414   4.411   4.201   3.232 -1.1161 -2.2999 -1.6845
 6709SOL     OW20415   3.898   0.697   4.465 -0.3659 -0.6254 -0.2434
 6709SOL    HW120416   3.993   0.689   4.496  0.4700  4.2564 -0.7095
 6709SOL    HW220417   3.895   0.681   4.366 -0.1696 -1.2689 -0.1541
 6710SOL     OW20418   0.107   3.980   3.373 -0.0717  0.0534 -0.3651
 6710SOL    HW120419   0.044   3.999   3.298 -0.3141 -0.3531 -0.2708
 6710SOL    HW220420   0.057   3.976   3.459  0.0159 -0.6286 -0.3340
 6711SOL     OW20421   2.912   1.738   2.770 -0.2825  0.0581 -0.0958
 6711SOL    HW120422   2.915   1.722   2.868 -1.1086 -1.8463 -0.3358
 6711SOL    HW220423   2.819   1.721   2.736 -0.0600  0.8726 -1.1986
 6712SOL     OW20424   4.278   3.337   3.155  0.1895 -0.6174 -0.0885
 6712SOL    HW120425   4.331   3.415   3.187  0.0218  0.3756 -2.1431
 6712SOL    HW220426   4.322   3.296   3.075 -0.4947 -1.7393  0.0741
 6713SOL     OW20427   0.968   5.160   3.875  0.1130  0.0632  0.0514
 6713SOL    HW120428   1.034   5.233   3.896 -1.0751  1.1010  0.2777
 6713SOL    HW220429   0.969   5.142   3.777  0.8464 -0.0629  0.0725
 6714SOL     OW20430   0.947   1.559   1.264  0.0118 -0.2301 -0.2418
 6714SOL    HW120431   0.986   1.633   1.209 -0.1599  1.1503  1.4134
 6714SOL    HW220432   0.974   1.571   1.360  1.1064 -3.1026 -0.0998
 6715SOL     OW20433   2.969   0.721   4.062 -0.5687 -1.0439 -0.1249
 6715SOL    HW120434   2.994   0.625   4.071  0.2636 -0.9154 -0.9106
 6715SOL    HW220435   2.934   0.755   4.149 -1.2227 -2.1460  0.0699
 6716SOL     OW20436   2.510   2.933   5.373  0.0940  0.3091 -0.7299
 6716SOL    HW120437   2.550   2.856   5.323  1.7760  0.3487  0.4965
 6716SOL    HW220438   2.457   2.989   5.309 -0.5940 -1.4464 -1.7862
 6717SOL     OW20439   1.499   0.349   5.094  0.3249  0.0211 -0.2499
 6717SOL    HW120440   1.519   0.398   5.009  0.7859 -0.0796 -0.2016
 6717SOL    HW220441   1.567   0.372   5.163 -0.3960  0.5754  0.2960
 6718SOL     OW20442   4.330   5.009   5.752  0.8286  0.1227 -0.2351
 6718SOL    HW120443   4.394   4.976   5.682  1.7496  0.0008  0.6420
 6718SOL    HW220444   4.381   5.056   5.824 -0.1337  0.4879  0.2212
 6719SOL     OW20445   1.477   1.102   3.769 -0.0985 -0.1706  0.0120
 6719SOL    HW120446   1.452   1.042   3.693 -1.3563 -0.7049  0.8076
 6719SOL    HW220447   1.434   1.191   3.757 -0.6283 -0.3830  0.2752
 6720SOL     OW20448   1.111   2.036   4.781  0.2275  0.3032 -0.1097
 6720SOL    HW120449   1.169   1.956   4.797  1.0509  0.7888 -0.5959
 6720SOL    HW220450   1.031   2.031   4.841  1.0822 -0.0729  1.0473
 6721SOL     OW20451   5.393   3.930   2.395  0.0282  0.0917  0.5478
 6721SOL    HW120452   5.416   3.995   2.323 -0.9819 -0.4343 -0.2785
 6721SOL    HW220453   5.476   3.884   2.426  0.5354  0.6293  0.0190
 6722SOL     OW20454   4.126   4.215   3.635 -0.3321  0.3076  0.3154
 6722SOL    HW120455   4.120   4.204   3.734 -1.4312  3.5493  0.7203
 6722SOL    HW220456   4.217   4.250   3.611 -0.0784 -0.4428  0.1421
 6723SOL     OW20457   0.021   0.482   5.924 -0.4047 -0.1989 -0.5093
 6723SOL    HW120458  -0.045   0.407   5.929 -0.8942  0.2404 -0.3856
 6723SOL    HW220459   0.068   0.491   6.012  0.6201 -1.2249 -0.9260
 6724SOL     OW20460   3.188   1.747   5.922 -0.5264  0.0559  0.0527
 6724SOL    HW120461   3.234   1.658   5.921 -0.2220  0.2122 -0.7533
 6724SOL    HW220462   3.257   1.820   5.917 -0.8263  0.2926 -1.1979
 6725SOL     OW20463   5.219   0.092   3.778  0.3411 -0.0021  0.2693
 6725SOL    HW120464   5.161   0.024   3.733 -0.8610  1.2448 -0.1761
 6725SOL    HW220465   5.315   0.075   3.755  0.3115 -2.6699  1.7734
 6726SOL     OW20466   3.291   1.588   5.411  0.2631  0.2707  0.2380
 6726SOL    HW120467   3.365   1.554   5.468  0.0221  2.3196  1.8618
 6726SOL    HW220468   3.283   1.530   5.329  3.0913 -0.4830  0.3919
 6727SOL     OW20469   3.529   2.820   5.838 -0.5537 -0.0342 -0.3753
 6727SOL    HW120470   3.604   2.877   5.871  1.1295 -2.3729  0.1209
 6727SOL    HW220471   3.510   2.842   5.742  0.2385  1.1453 -0.2701
 6728SOL     OW20472   1.572   4.253   0.034 -0.2093  0.7021 -0.0072
 6728SOL    HW120473   1.606   4.320   0.100 -0.7751  0.2440  0.7611
 6728SOL    HW220474   1.648   4.196   0.002  0.1078  1.0859  0.0589
 6729SOL     OW20475   1.957   4.959   2.866  1.0160  0.0742  0.4989
 6729SOL    HW120476   1.914   5.047   2.887  2.2506  0.8107  0.0684
 6729SOL    HW220477   1.903   4.912   2.797 -0.8519 -0.5290  2.2666
 6730SOL     OW20478   3.711   5.343   3.314 -0.2981 -0.0218  0.5989
 6730SOL    HW120479   3.641   5.374   3.249 -0.3889 -1.5087 -0.0576
 6730SOL    HW220480   3.731   5.416   3.378 -1.1970  1.0330 -0.2731
 6731SOL     OW20481   2.117   4.103   5.780  0.0657 -0.0073  0.1572
 6731SOL    HW120482   2.208   4.063   5.774  0.1834  0.1347  0.9227
 6731SOL    HW220483   2.057   4.041   5.831  0.2234  0.7398  1.2753
 6732SOL     OW20484   5.413   0.081   3.085  0.4380  0.5510 -0.4914
 6732SOL    HW120485   5.350   0.103   3.010  0.1819  1.1035 -0.1182
 6732SOL    HW220486   5.468   0.161   3.106 -0.6510  0.9315  1.0293
 6733SOL     OW20487   1.409   3.598   0.012  0.1403  0.3689  0.2628
 6733SOL    HW120488   1.391   3.653   0.094  0.5659  2.9228 -1.2386
 6733SOL    HW220489   1.329   3.543  -0.009 -0.1568  0.0335  2.1033
 6734SOL     OW20490   0.622   4.906   1.655  0.3100  0.7835  0.5839
 6734SOL    HW120491   0.590   4.996   1.625 -1.4465 -0.4087 -1.3355
 6734SOL    HW220492   0.722   4.903   1.650  0.4483  2.7686  1.2067
 6735SOL     OW20493   4.662   1.474   5.408 -0.1510  0.3926 -0.0582
 6735SOL    HW120494   4.623   1.394   5.364 -0.2749  0.7006 -0.5139
 6735SOL    HW220495   4.673   1.456   5.506 -1.8036  0.4325  0.1649
 6736SOL     OW20496   3.830   4.661   2.664 -0.1796  0.1103  0.5756
 6736SOL    HW120497   3.781   4.714   2.596  0.7110 -0.9959 -1.0094
 6736SOL    HW220498   3.923   4.696   2.673 -0.3082  0.2797  1.2647
 6737SOL     OW20499   4.383   1.772   5.616 -0.6568 -0.1252 -0.1826
 6737SOL    HW120500   4.463   1.808   5.664 -2.2490  1.5378  1.3909
 6737SOL    HW220501   4.407   1.753   5.521  1.8217 -0.6103  0.4623
 6738SOL     OW20502   2.717   3.071   3.557 -0.0975 -0.4235 -0.3877
 6738SOL    HW120503   2.659   3.121   3.622  0.3547 -0.3469 -0.0418
 6738SOL    HW220504   2.788   3.133   3.522  1.3765 -1.1698  1.1353
 6739SOL     OW20505   0.206   3.738   4.181 -0.0186 -0.1977  0.0513
 6739SOL    HW120506   0.297   3.708   4.151 -0.8402 -1.2900 -1.5024
 6739SOL    HW220507   0.166   3.668   4.240 -0.9339 -1.0619 -1.5354
 6740SOL     OW20508   2.482   1.097   0.394 -0.1854  0.1224 -0.5512
 6740SOL    HW120509   2.573   1.138   0.388  0.1214 -0.7020 -1.9065
 6740SOL    HW220510   2.416   1.168   0.419  0.2630  1.5920 -3.1514
 6741SOL     OW20511   2.835   5.489   4.412  0.1720  0.1380  0.0342
 6741SOL    HW120512   2.762   5.495   4.344 -1.1543 -1.9202  1.1755
 6741SOL    HW220513   2.796   5.487   4.503  1.8486  1.3657  0.8425
 6742SOL     OW20514   0.945   2.294   5.293 -0.4354  0.0260  0.3487
 6742SOL    HW120515   0.848   2.270   5.287 -0.1533 -1.2161  0.4926
 6742SOL    HW220516   0.972   2.299   5.389 -0.4430  0.7545  0.3150
 6743SOL     OW20517   2.055   3.626   5.604  0.0749  0.4673 -0.3735
 6743SOL    HW120518   1.968   3.621   5.653 -0.3238  0.3488 -1.0868
 6743SOL    HW220519   2.130   3.613   5.669 -0.4692 -0.6071  0.0624
 6744SOL     OW20520   1.965   2.196   3.553 -0.2029 -0.3506  0.4775
 6744SOL    HW120521   1.883   2.251   3.564 -1.3862 -1.8357 -0.4742
 6744SOL    HW220522   2.044   2.246   3.587 -1.6582  0.6382  2.5812
 6745SOL     OW20523   5.833   0.524   3.198 -0.0754  0.0604 -0.4699
 6745SOL    HW120524   5.815   0.492   3.105 -0.4395  1.6134 -0.9612
 6745SOL    HW220525   5.894   0.459   3.244 -2.2928 -2.3534 -0.7040
 6746SOL     OW20526   4.725   4.540   5.673  0.3440  0.6388 -0.3481
 6746SOL    HW120527   4.678   4.541   5.761  1.9974 -0.3296  0.5771
 6746SOL    HW220528   4.665   4.497   5.605 -1.2363  2.0272  0.0723
 6747SOL     OW20529   5.505   2.891   5.466 -0.0585  0.0726 -0.4799
 6747SOL    HW120530   5.566   2.966   5.492 -0.5137  0.6002 -0.9225
 6747SOL    HW220531   5.484   2.898   5.369 -1.0076  0.0251 -0.2808
 6748SOL     OW20532   4.151   4.702   2.222  0.2795  0.1199  0.7339
 6748SOL    HW120533   4.203   4.616   2.223  1.1250  0.4834 -2.3582
 6748SOL    HW220534   4.145   4.738   2.316  3.4463 -1.2364  1.6086
 6749SOL     OW20535   3.623   5.665   5.671  0.0025 -0.2646 -0.2811
 6749SOL    HW120536   3.550   5.646   5.606 -0.1418  0.5452 -0.3686
 6749SOL    HW220537   3.583   5.694   5.758  0.1816  2.0786 -0.9025
 6750SOL     OW20538   4.734   4.850   0.914  0.9486 -0.5184 -0.2778
 6750SOL    HW120539   4.775   4.758   0.914  0.4626 -0.7372 -0.0950
 6750SOL    HW220540   4.799   4.915   0.953  0.4425 -1.1746  1.7551
 6751SOL     OW20541   5.945   4.669   1.369 -0.4880 -0.0226  0.0485
 6751SOL    HW120542   5.982   4.707   1.284 -0.6399 -1.3593 -0.6437
 6751SOL    HW220543   5.858   4.713   1.391 -0.9623 -0.3706 -1.0676
 6752SOL     OW20544   3.102   5.583   1.599  0.3661 -0.5960 -0.4086
 6752SOL    HW120545   3.040   5.526   1.655  1.3882 -0.2590  1.1338
 6752SOL    HW220546   3.161   5.636   1.660  0.6752  0.7583 -1.8432
 6753SOL     OW20547   1.263   1.423   0.245 -0.7148 -0.3353 -0.2091
 6753SOL    HW120548   1.249   1.459   0.152  0.7916 -0.7421 -0.6206
 6753SOL    HW220549   1.189   1.454   0.304 -0.3189  2.1842 -0.9058
 6754SOL     OW20550   4.779   3.978   3.554 -0.3169  0.0339  0.4315
 6754SOL    HW120551   4.713   3.952   3.625 -0.2847  1.5648  1.0705
 6754SOL    HW220552   4.803   4.074   3.566 -0.6563  0.4728 -1.9272
 6755SOL     OW20553   0.986   0.410   4.637  0.1618  0.0972  0.8405
 6755SOL    HW120554   0.907   0.445   4.587  0.4441 -0.6952 -0.1993
 6755SOL    HW220555   1.044   0.487   4.665 -1.0554  0.7015  1.7925
 6756SOL     OW20556   0.382   4.624   5.512 -0.4117 -0.0402  0.1355
 6756SOL    HW120557   0.307   4.652   5.451 -0.1073  3.8448  1.2339
 6756SOL    HW220558   0.469   4.629   5.463 -0.5372 -1.0156 -0.1920
 6757SOL     OW20559   1.056   3.312   2.427 -0.5327 -0.2901  0.2462
 6757SOL    HW120560   1.138   3.358   2.461  0.6050 -0.2361 -2.3030
 6757SOL    HW220561   1.079   3.218   2.402 -0.9810 -0.0181 -1.2940
 6758SOL     OW20562   1.840   2.982   3.454  0.4503 -1.1632  0.2241
 6758SOL    HW120563   1.767   3.001   3.520 -2.4196  0.2879 -3.0570
 6758SOL    HW220564   1.898   3.062   3.444  0.0979 -0.9153  0.1284
 6759SOL     OW20565   2.210   4.342   0.590  0.7335 -0.4702  0.1933
 6759SOL    HW120566   2.281   4.279   0.559  0.8863 -0.5751  0.7431
 6759SOL    HW220567   2.128   4.329   0.535  0.5194 -1.6686  0.7481
 6760SOL     OW20568   2.456   1.394   2.772  0.2114  1.0459 -0.5743
 6760SOL    HW120569   2.492   1.393   2.679  0.2879 -0.1859 -0.5459
 6760SOL    HW220570   2.503   1.465   2.824  0.9736  1.0026 -1.1733
 6761SOL     OW20571   5.484   5.777   3.632  0.4320  0.3012 -0.7723
 6761SOL    HW120572   5.440   5.762   3.543  1.1261  1.8804 -1.4197
 6761SOL    HW220573   5.506   5.874   3.642 -1.4116  0.5261  1.9803
 6762SOL     OW20574   5.838   3.428   1.059 -0.0903  0.4104 -0.4610
 6762SOL    HW120575   5.915   3.472   1.014 -0.9773 -0.0314 -2.5036
 6762SOL    HW220576   5.763   3.494   1.070  0.1210  0.5191  0.4274
 6763SOL     OW20577   0.557   1.067   2.917 -0.2831 -0.0031  0.3217
 6763SOL    HW120578   0.570   1.084   2.819 -0.8149 -0.1214  0.2286
 6763SOL    HW220579   0.560   1.153   2.967 -2.3340  0.3453 -0.0706
 6764SOL     OW20580   1.120   1.109   3.487  0.5590 -0.4773  0.3158
 6764SOL    HW120581   1.075   1.152   3.565 -0.0606  0.7491 -0.6697
 6764SOL    HW220582   1.050   1.076   3.423  1.0203  0.6111 -0.7946
 6765SOL     OW20583   1.597   1.167   0.102 -0.1302 -0.1886  0.4574
 6765SOL    HW120584   1.507   1.168   0.146 -0.3909 -0.6418 -0.0537
 6765SOL    HW220585   1.652   1.242   0.137 -0.5213 -0.2264  1.1645
 6766SOL     OW20586   1.582   0.793   3.079 -0.1382 -0.0866  0.4219
 6766SOL    HW120587   1.663   0.804   3.136  0.9085 -0.1505 -1.0114
 6766SOL    HW220588   1.607   0.753   2.991 -1.2482  2.3973 -1.1431
 6767SOL     OW20589   2.711   0.303   0.670  0.0352  0.0034  0.0962
 6767SOL    HW120590   2.799   0.340   0.639 -0.9299  0.1143 -2.8841
 6767SOL    HW220591   2.718   0.204   0.680  0.9155  0.1907  1.6631
 6768SOL     OW20592   2.109   3.940   2.654  0.0002  0.0991  0.1223
 6768SOL    HW120593   2.172   3.900   2.587  0.7925  0.8074  0.4218
 6768SOL    HW220594   2.067   3.867   2.709  0.3590 -0.4009 -0.2631
 6769SOL     OW20595   4.196   4.145   0.139 -0.1977 -0.1484 -0.1416
 6769SOL    HW120596   4.141   4.221   0.172  1.9352  0.5388  2.1465
 6769SOL    HW220597   4.217   4.158   0.042 -1.2703  1.2683 -0.2110
 6770SOL     OW20598   4.594   4.506   3.351  0.0795  0.1540 -0.1562
 6770SOL    HW120599   4.609   4.592   3.302 -0.3671 -0.2172 -0.9547
 6770SOL    HW220600   4.634   4.431   3.300 -0.8526 -0.3101 -0.2236
 6771SOL     OW20601   5.146   4.653   2.105  0.6763 -0.2187  0.4512
 6771SOL    HW120602   5.172   4.654   2.009  0.8403 -1.0912  0.4797
 6771SOL    HW220603   5.110   4.743   2.131  0.2661 -0.0929 -0.5218
 6772SOL     OW20604   1.785   1.495   4.143 -0.4652  0.0766  0.4381
 6772SOL    HW120605   1.809   1.427   4.073 -1.0075 -0.9063  1.1864
 6772SOL    HW220606   1.869   1.525   4.190 -0.2702 -0.4426  0.4265
 6773SOL     OW20607   2.428   1.824   5.108 -0.0364  0.4422  0.2044
 6773SOL    HW120608   2.446   1.729   5.082 -1.8184  0.5492 -1.6997
 6773SOL    HW220609   2.515   1.874   5.115  0.7754 -0.3199 -2.9835
 6774SOL     OW20610   3.292   3.304   2.651  0.1712 -0.5755 -0.5480
 6774SOL    HW120611   3.297   3.271   2.745  0.3152  0.8433 -0.0298
 6774SOL    HW220612   3.233   3.385   2.647  0.5842 -0.3077 -1.5823
 6775SOL     OW20613   2.336   5.657   4.951  0.1117  0.1210 -0.8075
 6775SOL    HW120614   2.238   5.657   4.931  0.0540 -2.3865 -0.9152
 6775SOL    HW220615   2.387   5.661   4.865  0.0370 -0.6864 -0.9009
 6776SOL     OW20616   5.328   2.817   3.780  0.9060 -0.6670 -0.0016
 6776SOL    HW120617   5.413   2.860   3.810  0.2282  0.9200 -0.2995
 6776SOL    HW220618   5.307   2.845   3.686 -0.3341 -0.4337  0.3248
 6777SOL     OW20619   1.365   1.577   3.279 -0.2508  0.2411 -0.1183
 6777SOL    HW120620   1.379   1.510   3.351 -0.6736 -1.0576 -1.2114
 6777SOL    HW220621   1.398   1.541   3.192  0.3836  1.8296 -0.5803
 6778SOL     OW20622   4.873   1.339   3.403  0.7334  0.3217 -0.0156
 6778SOL    HW120623   4.781   1.356   3.367  0.9004  0.7366 -0.2538
 6778SOL    HW220624   4.868   1.318   3.501  0.5756  2.5061  0.4805
 6779SOL     OW20625   3.938   5.353   3.716 -0.3490 -0.6128  0.0602
 6779SOL    HW120626   3.996   5.335   3.637 -0.5622 -2.6434  0.3075
 6779SOL    HW220627   3.992   5.399   3.787 -0.1344  1.1324 -1.1730
 6780SOL     OW20628   5.489   2.037   0.141  0.3257 -0.7005 -0.5377
 6780SOL    HW120629   5.508   2.004   0.048 -1.0002  0.5104 -1.2744
 6780SOL    HW220630   5.519   2.132   0.149 -0.9315 -0.3160 -0.2177
 6781SOL     OW20631   5.551   2.496   2.652  0.1314  0.6311 -0.0160
 6781SOL    HW120632   5.498   2.503   2.737 -3.3270 -0.3413 -1.9285
 6781SOL    HW220633   5.630   2.437   2.667 -0.3208  0.5523  2.5273
 6782SOL     OW20634   5.299   1.090   2.299 -0.1078 -0.6724  0.3779
 6782SOL    HW120635   5.209   1.132   2.286 -0.1126 -0.6348  0.5374
 6782SOL    HW220636   5.367   1.140   2.246 -0.1195 -0.4853  0.5397
 6783SOL     OW20637   4.808   0.732   2.014 -0.6102  0.0539 -0.1472
 6783SOL    HW120638   4.751   0.659   1.976  0.1328 -1.0864  0.8508
 6783SOL    HW220639   4.900   0.696   2.034 -1.4325 -0.0762  4.5485
 6784SOL     OW20640   1.296   1.611   1.423 -0.6968  0.0577 -0.3728
 6784SOL    HW120641   1.198   1.621   1.435 -0.8123 -1.0309 -0.2955
 6784SOL    HW220642   1.317   1.517   1.397  0.3345  0.2544 -0.2969
 6785SOL     OW20643   3.576   0.779   0.978 -1.0560 -0.6620  0.8606
 6785SOL    HW120644   3.565   0.681   0.962  0.4004 -0.9830  1.6753
 6785SOL    HW220645   3.506   0.810   1.043 -1.9490 -0.9945  0.0866
 6786SOL     OW20646   2.263   2.426   5.126 -0.7775  0.2832 -0.0043
 6786SOL    HW120647   2.213   2.426   5.040  0.3681 -0.2039 -0.6959
 6786SOL    HW220648   2.307   2.337   5.139 -0.4877  0.5410  0.8061
 6787SOL     OW20649   3.968   0.176   3.486  0.1214  0.2008  0.0066
 6787SOL    HW120650   3.891   0.232   3.517  0.7433  0.8384  0.4391
 6787SOL    HW220651   3.958   0.083   3.523 -0.1331  0.4417  0.5667
 6788SOL     OW20652   0.441   3.508   5.282 -0.4215 -0.5787 -0.0091
 6788SOL    HW120653   0.485   3.450   5.213  3.1557  1.5857  0.2086
 6788SOL    HW220654   0.398   3.586   5.237  1.1338  0.3597  0.0662
 6789SOL     OW20655   2.900   1.163   4.346 -0.0154  0.6008  0.1240
 6789SOL    HW120656   2.997   1.181   4.331 -0.4668  2.1760 -1.1856
 6789SOL    HW220657   2.846   1.237   4.307 -1.6951  0.8301  2.6546
 6790SOL     OW20658   4.141   2.996   4.896 -1.0251  0.2505 -0.1884
 6790SOL    HW120659   4.231   3.024   4.931 -1.3377  1.9456 -0.6260
 6790SOL    HW220660   4.131   2.897   4.905  0.6767  0.0876  0.3403
 6791SOL     OW20661   0.511   0.217   3.751 -0.4714 -0.0473 -0.5568
 6791SOL    HW120662   0.450   0.248   3.824 -1.2244  0.0011 -1.1876
 6791SOL    HW220663   0.603   0.253   3.766  0.0365 -1.9559  1.6754
 6792SOL     OW20664   1.739   2.804   2.162 -0.6846  0.0963  0.4450
 6792SOL    HW120665   1.692   2.881   2.119 -0.5694 -0.7236 -1.2008
 6792SOL    HW220666   1.727   2.722   2.107  1.4112 -0.4742  0.7509
 6793SOL     OW20667   4.150   5.645   5.223 -0.1933 -0.1053 -0.0708
 6793SOL    HW120668   4.067   5.611   5.267  0.6462 -2.2045 -0.0192
 6793SOL    HW220669   4.195   5.710   5.284  0.8550 -2.7923  2.2353
 6794SOL     OW20670   3.810   2.835   4.763 -0.5028 -0.1727 -0.3852
 6794SOL    HW120671   3.745   2.840   4.839  0.4597 -0.2748  0.4593
 6794SOL    HW220672   3.838   2.927   4.737 -1.4179 -0.0944 -1.1481
 6795SOL     OW20673   5.874   1.215   4.355 -0.2784  0.6761 -0.5745
 6795SOL    HW120674   5.926   1.224   4.270  0.6501  2.3199  0.1244
 6795SOL    HW220675   5.776   1.221   4.336 -0.1145  0.2508 -1.5991
 6796SOL     OW20676   5.175   2.522   2.803  0.1131 -0.3171 -0.0054
 6796SOL    HW120677   5.157   2.607   2.755 -0.3013 -0.3854  0.0270
 6796SOL    HW220678   5.090   2.471   2.814 -0.2578  0.7100  2.7926
 6797SOL     OW20679   4.407   3.040   3.896 -0.2390  0.4827  0.0301
 6797SOL    HW120680   4.443   3.083   3.979 -1.5511 -0.6893  1.2477
 6797SOL    HW220681   4.372   2.949   3.918 -0.1087 -0.0882 -1.9381
 6798SOL     OW20682   2.356   2.523   2.864 -0.5723  0.2536 -0.1175
 6798SOL    HW120683   2.343   2.568   2.775 -1.0520  0.8338  0.2351
 6798SOL    HW220684   2.275   2.539   2.921 -1.0557 -1.6527 -0.2201
 6799SOL     OW20685   0.541   5.652   1.511 -0.5864  0.4265 -0.3565
 6799SOL    HW120686   0.456   5.697   1.484  0.3718  2.0494 -0.7486
 6799SOL    HW220687   0.619   5.708   1.484  0.5582  0.2234  2.2299
 6800SOL     OW20688   5.268   1.563   5.396  0.4303 -0.2893  0.4163
 6800SOL    HW120689   5.286   1.556   5.298  0.8265 -2.8488  0.5949
 6800SOL    HW220690   5.340   1.617   5.440  2.6671 -2.5794 -0.1989
 6801SOL     OW20691   0.313   4.677   0.889 -0.1298  0.3812  0.2030
 6801SOL    HW120692   0.399   4.729   0.891 -1.4032  2.6420 -0.2316
 6801SOL    HW220693   0.265   4.697   0.804 -1.0594 -0.9137  0.4137
 6802SOL     OW20694   4.325   0.289   0.369  0.3537  0.4696 -0.0630
 6802SOL    HW120695   4.295   0.194   0.369 -0.1980  0.6424  0.4219
 6802SOL    HW220696   4.346   0.317   0.463 -1.3585  1.4076  0.0767
 6803SOL     OW20697   0.351   3.378   4.210 -0.4600  0.5450 -0.0707
 6803SOL    HW120698   0.294   3.367   4.129 -0.3127  0.4860 -0.1677
 6803SOL    HW220699   0.363   3.475   4.230  1.0050  0.6309 -1.2032
 6804SOL     OW20700   4.519   2.412   4.955  0.1992  0.4134  0.4836
 6804SOL    HW120701   4.461   2.332   4.970 -0.5312  0.4224 -1.9048
 6804SOL    HW220702   4.539   2.456   5.043 -1.8057 -0.6901  1.5577
 6805SOL     OW20703   4.072   0.979   5.260 -0.3330  0.2732 -0.3723
 6805SOL    HW120704   3.976   0.976   5.232 -0.3177 -1.0294 -0.3139
 6805SOL    HW220705   4.124   0.911   5.209  0.4327  0.5013  0.0892
 6806SOL     OW20706   0.223   1.995   2.672  0.2492 -0.6499  0.1337
 6806SOL    HW120707   0.273   1.944   2.602  1.5052  0.2059  0.3826
 6806SOL    HW220708   0.224   2.092   2.649 -0.4671 -0.5158  0.6588
 6807SOL     OW20709   4.444   5.246   5.058 -0.0981  0.5213  0.3993
 6807SOL    HW120710   4.445   5.161   5.111  2.7516  0.8215  1.0026
 6807SOL    HW220711   4.489   5.232   4.970 -0.9042  1.0562 -0.1045
 6808SOL     OW20712   4.005   4.329   0.257 -0.1459 -0.2219 -0.0780
 6808SOL    HW120713   3.934   4.259   0.264  1.2479 -1.9655 -2.2091
 6808SOL    HW220714   4.047   4.344   0.346 -1.1344 -1.3804  0.6037
 6809SOL     OW20715   4.471   4.069   0.530  0.8413 -0.2742  0.0131
 6809SOL    HW120716   4.570   4.069   0.518  0.7255 -0.6449 -1.1513
 6809SOL    HW220717   4.427   4.084   0.441 -0.1475  0.9378  0.6610
 6810SOL     OW20718   1.508   4.053   0.251 -0.5468  0.0702 -0.5965
 6810SOL    HW120719   1.470   4.113   0.322  0.5917 -0.1636  0.2514
 6810SOL    HW220720   1.525   4.107   0.168  1.3531  1.2173  0.4563
 6811SOL     OW20721   1.374   5.797   0.629  0.0227  0.1593 -0.2723
 6811SOL    HW120722   1.311   5.747   0.689 -0.7359  0.1085 -1.1036
 6811SOL    HW220723   1.438   5.732   0.587 -0.5493 -0.0384 -0.8489
 6812SOL     OW20724   3.959   5.836   2.805 -0.7077 -0.2041  0.4749
 6812SOL    HW120725   4.050   5.838   2.846 -1.4588  0.6867  2.2357
 6812SOL    HW220726   3.902   5.906   2.848 -2.0204 -0.2296 -1.1195
 6813SOL     OW20727   5.993   2.218   0.978  0.1035  0.0090  0.2133
 6813SOL    HW120728   5.905   2.229   0.931  0.1510 -0.4232  0.0094
 6813SOL    HW220729   5.978   2.173   1.066  0.2290 -1.2020 -0.3503
 6814SOL     OW20730   2.951   4.179   0.848  0.7036 -0.8467 -0.0001
 6814SOL    HW120731   3.018   4.128   0.795 -0.1496  0.5326 -2.5859
 6814SOL    HW220732   2.872   4.120   0.867  1.1205 -1.4309 -0.0620
 6815SOL     OW20733   3.787   5.792   4.383 -0.1772 -0.4788  0.0818
 6815SOL    HW120734   3.749   5.703   4.355 -0.0911 -1.1398  1.9614
 6815SOL    HW220735   3.848   5.779   4.460  1.1645  1.0354 -0.6769
 6816SOL     OW20736   5.908   3.956   0.408  0.1273 -0.3463  0.4759
 6816SOL    HW120737   5.971   3.913   0.344 -0.1295  1.5436 -1.1187
 6816SOL    HW220738   5.820   3.910   0.404 -0.0661  0.1211 -1.0104
 6817SOL     OW20739   2.921   1.058   1.561 -1.0768  0.7297 -0.7920
 6817SOL    HW120740   3.004   1.044   1.508 -0.4478  2.7851 -0.4191
 6817SOL    HW220741   2.850   0.995   1.529 -0.5339  1.4427 -3.6648
 6818SOL     OW20742   4.528   3.081   2.478  0.0837 -0.1936 -0.0234
 6818SOL    HW120743   4.481   3.027   2.548  1.4085  0.5836  1.5478
 6818SOL    HW220744   4.491   3.058   2.388  0.0446 -3.1031  0.6330
 6819SOL     OW20745   1.708   5.326   1.990  0.3828 -0.8858  0.2429
 6819SOL    HW120746   1.620   5.285   1.966  0.1928 -0.8861  0.9116
 6819SOL    HW220747   1.779   5.255   1.989 -0.2068 -1.6633  2.9322
 6820SOL     OW20748   0.510   0.378   1.291  0.3130 -0.1506  0.4986
 6820SOL    HW120749   0.465   0.308   1.236  2.2140 -1.6216  0.6952
 6820SOL    HW220750   0.578   0.426   1.235 -0.4341  1.0499  0.5739
 6821SOL     OW20751   5.477   1.156   4.119  0.4731 -0.1686 -0.0359
 6821SOL    HW120752   5.414   1.111   4.056 -1.4425  0.7323  1.1292
 6821SOL    HW220753   5.491   1.250   4.091  0.3125 -0.0186  0.3727
 6822SOL     OW20754   2.861   4.849   4.238 -0.0138 -0.3167  0.1102
 6822SOL    HW120755   2.860   4.916   4.312  0.6100  0.4532 -0.5660
 6822SOL    HW220756   2.832   4.893   4.153  1.9961 -0.4723 -0.6948
 6823SOL     OW20757   3.359   0.654   5.629 -0.2959 -0.3490  0.0103
 6823SOL    HW120758   3.432   0.661   5.561  0.3410  1.1373  0.8057
 6823SOL    HW220759   3.339   0.745   5.667  0.8848 -1.3386  3.3605
 6824SOL     OW20760   1.007   3.230   5.324 -0.1033 -0.3703  0.2949
 6824SOL    HW120761   0.986   3.187   5.412 -2.4143  0.2957  0.1325
 6824SOL    HW220762   1.044   3.321   5.340  0.0221 -0.4735  0.5995
 6825SOL     OW20763   5.352   4.600   4.876  0.2928 -0.3880 -0.3206
 6825SOL    HW120764   5.413   4.675   4.852  1.9355 -1.0579  1.5451
 6825SOL    HW220765   5.260   4.636   4.892  1.1230  1.3473  0.9287
 6826SOL     OW20766   2.531   0.906   0.147 -0.1828 -0.4403 -0.1027
 6826SOL    HW120767   2.452   0.947   0.193 -1.0794 -2.4320  0.2434
 6826SOL    HW220768   2.500   0.841   0.078  1.1437 -1.5729  0.3263
 6827SOL     OW20769   4.224   4.531   2.681  0.7416  0.2548  0.6734
 6827SOL    HW120770   4.296   4.520   2.613 -0.0329 -0.2235 -0.0834
 6827SOL    HW220771   4.157   4.599   2.649 -0.1778 -0.7294  0.4638
 6828SOL     OW20772   2.120   0.743   4.582  0.3805 -0.1505 -0.6100
 6828SOL    HW120773   2.025   0.718   4.566 -0.3513  0.2296  2.5101
 6828SOL    HW220774   2.176   0.717   4.503 -2.1819 -0.9071 -2.2644
 6829SOL     OW20775   4.848   2.078   3.539  0.0818  0.0360 -0.1399
 6829SOL    HW120776   4.759   2.108   3.574 -0.0801 -0.1023 -0.4333
 6829SOL    HW220777   4.906   2.050   3.616 -0.0068  0.4424  0.0813
 6830SOL     OW20778   5.649   5.528   1.306 -0.8762  0.3011 -0.3117
 6830SOL    HW120779   5.737   5.576   1.301 -1.0745  0.5731 -1.4400
 6830SOL    HW220780   5.577   5.594   1.328 -1.2791  0.7552 -2.6944
 6831SOL     OW20781   0.508   2.355   0.907 -0.0029 -0.1770 -0.6092
 6831SOL    HW120782   0.430   2.292   0.904 -0.7245  0.7179 -1.2827
 6831SOL    HW220783   0.503   2.410   0.990 -0.2684  0.0885 -0.7980
 6832SOL     OW20784   0.964   1.017   1.734 -0.1008  0.0135  0.3426
 6832SOL    HW120785   1.032   0.986   1.801 -0.4117  0.2692  0.7753
 6832SOL    HW220786   0.998   1.098   1.687  0.6685 -0.8903 -0.7142
 6833SOL     OW20787   0.127   0.271   4.226 -0.3134  0.3591 -0.1933
 6833SOL    HW120788   0.155   0.186   4.182  1.4459 -0.0334  1.5555
 6833SOL    HW220789   0.102   0.338   4.156 -1.8821 -1.5681 -1.6116
 6834SOL     OW20790   5.142   2.553   2.421  0.1630  0.0885  0.0474
 6834SOL    HW120791   5.101   2.465   2.442 -0.5919  1.0548  3.1812
 6834SOL    HW220792   5.239   2.552   2.446  0.5617 -0.2813 -1.4178
 6835SOL     OW20793   1.012   1.605   1.513  0.2228  0.1099 -0.1476
 6835SOL    HW120794   0.960   1.685   1.542  1.5730  0.7776  0.4922
 6835SOL    HW220795   1.035   1.549   1.593 -0.0704 -0.5424 -0.5052
 6836SOL     OW20796   1.125   1.015   0.214  0.0370  0.3755  0.1670
 6836SOL    HW120797   1.085   0.971   0.295 -2.2375  0.7010 -0.7188
 6836SOL    HW220798   1.057   1.072   0.170  0.7425 -0.8986 -2.8158
 6837SOL     OW20799   4.077   1.516   4.028  0.7606 -0.0818  0.2316
 6837SOL    HW120800   4.015   1.594   4.039  1.6766  0.8737 -1.1199
 6837SOL    HW220801   4.031   1.445   3.975  0.5467  0.3195 -0.1349
 6838SOL     OW20802   1.481   2.420   1.129 -0.3140  0.7093  0.1752
 6838SOL    HW120803   1.537   2.369   1.063 -0.2210  0.2340  0.6132
 6838SOL    HW220804   1.395   2.371   1.145  0.1181  0.2439  1.2076
 6839SOL     OW20805   4.284   0.177   2.148 -0.2602 -0.4958  0.0149
 6839SOL    HW120806   4.241   0.164   2.059  0.5059 -1.2276 -0.2630
 6839SOL    HW220807   4.379   0.203   2.135 -0.9691  2.7561  0.5961
 6840SOL     OW20808   3.228   3.791   2.522 -0.2080 -0.0784 -0.3396
 6840SOL    HW120809   3.267   3.821   2.434  0.4389  0.4039  0.1002
 6840SOL    HW220810   3.228   3.691   2.526  1.3833 -0.0945 -0.1912
 6841SOL     OW20811   4.238   5.591   1.052  0.1829 -0.0948 -0.0261
 6841SOL    HW120812   4.152   5.624   1.092 -0.8451 -0.5762 -1.7288
 6841SOL    HW220813   4.252   5.496   1.078 -0.6444 -0.5030 -1.0251
 6842SOL     OW20814   0.227   1.929   1.362  0.0039 -0.0086  0.2675
 6842SOL    HW120815   0.217   1.887   1.453 -1.4125  0.4739  0.3633
 6842SOL    HW220816   0.241   1.857   1.294 -1.1299 -0.5697  0.5948
 6843SOL     OW20817   3.434   2.512   5.427 -0.5715  0.0124 -0.2655
 6843SOL    HW120818   3.520   2.538   5.471 -1.2877  0.5867  0.8298
 6843SOL    HW220819   3.453   2.449   5.351  0.8564  0.6733 -0.4766
 6844SOL     OW20820   3.093   2.737   0.568 -0.4258  0.1402  0.1484
 6844SOL    HW120821   3.025   2.676   0.527  0.6498 -0.7082 -0.4499
 6844SOL    HW220822   3.162   2.682   0.615  1.0629  0.8085 -1.1575
 6845SOL     OW20823   1.617   2.029   2.562 -0.0780  0.0100  0.2058
 6845SOL    HW120824   1.567   1.943   2.575  2.3402 -1.2736  1.7923
 6845SOL    HW220825   1.600   2.090   2.639  2.3730 -1.3624  1.9793
 6846SOL     OW20826   2.915   2.243   1.225 -0.3932 -0.0569  0.4483
 6846SOL    HW120827   2.872   2.268   1.139  0.3940  0.7673  0.2851
 6846SOL    HW220828   2.894   2.147   1.246  0.3493 -0.6212 -1.2352
 6847SOL     OW20829   4.451   1.201   1.849  0.3971  0.0445 -0.1702
 6847SOL    HW120830   4.407   1.114   1.831 -1.1790  0.9766 -0.9867
 6847SOL    HW220831   4.541   1.203   1.805  1.6923 -2.1599  2.1274
 6848SOL     OW20832   0.119   4.966   1.788 -0.0666 -0.1696  0.1505
 6848SOL    HW120833   0.166   5.053   1.798  0.5338 -0.5152  0.4219
 6848SOL    HW220834   0.065   4.966   1.703  0.3845  0.2537 -0.1379
 6849SOL     OW20835   2.485   0.434   2.620 -0.2669 -0.1393 -0.4432
 6849SOL    HW120836   2.400   0.381   2.619 -1.5462  1.8058 -0.1895
 6849SOL    HW220837   2.542   0.407   2.543 -0.5079 -2.3667  0.0904
 6850SOL     OW20838   2.452   1.803   3.626  0.3469  0.5603  0.1783
 6850SOL    HW120839   2.482   1.881   3.680  0.7550  0.0060  0.7694
 6850SOL    HW220840   2.352   1.801   3.622  0.3212  2.4210 -1.7990
 6851SOL     OW20841   0.447   0.883   3.232 -0.8211 -0.1082  0.5437
 6851SOL    HW120842   0.371   0.941   3.204  0.5392  1.1345 -0.6677
 6851SOL    HW220843   0.459   0.809   3.166 -1.8388 -1.1799  1.4978
 6852SOL     OW20844   5.078   5.857   3.626  0.8096 -0.4153  0.1687
 6852SOL    HW120845   4.992   5.904   3.606  0.0773 -0.6102  2.5278
 6852SOL    HW220846   5.060   5.763   3.656  2.0707 -1.3530 -1.7945
 6853SOL     OW20847   1.289   3.994   5.582  0.4498  0.3043 -0.3102
 6853SOL    HW120848   1.242   4.007   5.669  1.2938  0.8803  0.0746
 6853SOL    HW220849   1.238   4.042   5.510  0.4247  0.8941  0.0913
 6854SOL     OW20850   0.757   2.968   3.573 -0.0600 -0.5008  0.1028
 6854SOL    HW120851   0.701   2.903   3.522  1.7451 -1.7862 -0.3706
 6854SOL    HW220852   0.760   2.940   3.669  0.2274 -0.7807  0.0147
 6855SOL     OW20853   3.911   4.723   4.796 -0.0963  0.0594 -0.5816
 6855SOL    HW120854   3.972   4.758   4.868 -0.0082  0.3715 -0.8061
 6855SOL    HW220855   3.827   4.689   4.838  0.1162 -0.1181 -0.2945
 6856SOL     OW20856   4.804   2.071   4.677 -0.1811  0.4584 -0.4116
 6856SOL    HW120857   4.749   2.149   4.703  0.8784  0.7465  1.0643
 6856SOL    HW220858   4.814   2.009   4.755 -1.4395 -1.4524 -1.6868
 6857SOL     OW20859   2.480   0.478   0.643 -0.0523 -0.2647 -0.5954
 6857SOL    HW120860   2.540   0.400   0.662  0.7575  0.4971  0.0777
 6857SOL    HW220861   2.384   0.448   0.647  0.2553 -1.3939 -1.1933
 6858SOL     OW20862   2.314   5.518   5.440 -0.1173 -0.0684 -0.4713
 6858SOL    HW120863   2.381   5.547   5.508 -1.2726  1.0619  0.2209
 6858SOL    HW220864   2.294   5.594   5.378  0.6653 -0.9810 -1.9079
 6859SOL     OW20865   1.138   0.849   0.432  0.2450  0.0788 -0.1753
 6859SOL    HW120866   1.227   0.892   0.424  0.2979 -0.2522 -1.7102
 6859SOL    HW220867   1.104   0.857   0.526  1.8083  0.3426  0.3808
 6860SOL     OW20868   4.101   1.633   5.827  0.0054  0.4741 -0.1593
 6860SOL    HW120869   4.118   1.671   5.918 -0.7281 -0.1682  0.2580
 6860SOL    HW220870   4.179   1.578   5.799  1.0839  2.2110 -0.7678
 6861SOL     OW20871   3.643   5.785   2.132 -0.0625  0.4384 -0.0400
 6861SOL    HW120872   3.591   5.702   2.115  1.6098 -0.6444 -0.0481
 6861SOL    HW220873   3.636   5.846   2.053  1.1575 -1.0575 -1.3678
 6862SOL     OW20874   2.955   5.221   5.228 -0.9804 -0.3789  0.3201
 6862SOL    HW120875   2.877   5.211   5.289  0.2898 -0.4442  2.0144
 6862SOL    HW220876   3.036   5.247   5.281 -0.4558  2.6746 -1.7036
 6863SOL     OW20877   5.199   3.461   0.213 -0.1783 -0.1934 -0.1318
 6863SOL    HW120878   5.285   3.509   0.231  0.7952 -2.1258  0.6088
 6863SOL    HW220879   5.217   3.364   0.198 -1.9982 -0.2522 -2.4146
 6864SOL     OW20880   3.183   2.276   1.292  0.4289  0.1268 -0.6678
 6864SOL    HW120881   3.091   2.273   1.253  0.1929 -1.7245 -0.0639
 6864SOL    HW220882   3.248   2.238   1.226  0.3138 -1.2329 -0.0151
 6865SOL     OW20883   1.416   4.151   2.594  0.4361  1.1411 -0.6882
 6865SOL    HW120884   1.385   4.057   2.579  0.2582  1.1337 -0.2926
 6865SOL    HW220885   1.349   4.215   2.556  0.6286  1.1083 -1.0885
 6866SOL     OW20886   4.530   3.503   4.488 -0.1342 -0.1239  0.2449
 6866SOL    HW120887   4.522   3.601   4.470  1.1137 -0.2639 -1.2756
 6866SOL    HW220888   4.607   3.486   4.548 -0.8806 -0.1211  1.2224
 6867SOL     OW20889   5.628   0.490   4.392  0.3859 -0.7046 -0.0139
 6867SOL    HW120890   5.538   0.450   4.412 -0.0523  0.8876  1.3708
 6867SOL    HW220891   5.694   0.416   4.378 -0.8820 -1.9066  0.0819
 6868SOL     OW20892   0.529   1.600   3.661 -0.5821 -0.1406  0.2275
 6868SOL    HW120893   0.597   1.650   3.609 -0.5591  0.3033  0.6846
 6868SOL    HW220894   0.523   1.506   3.626  0.5788 -0.3246  0.4724
 6869SOL     OW20895   5.182   4.923   1.499 -0.2948 -0.5705  0.4363
 6869SOL    HW120896   5.128   5.003   1.472  0.7114  0.0928  0.3280
 6869SOL    HW220897   5.155   4.845   1.443 -0.3799  0.0195 -0.3664
 6870SOL     OW20898   1.413   0.165   0.220  0.0417 -0.6715  0.1325
 6870SOL    HW120899   1.314   0.171   0.228  0.1058 -1.1223  1.7414
 6870SOL    HW220900   1.454   0.252   0.248  0.0900 -0.0149 -1.8260
 6871SOL     OW20901   4.250   1.431   1.804 -0.4408 -0.0761 -0.1690
 6871SOL    HW120902   4.333   1.380   1.826 -0.3367 -1.8278 -3.9258
 6871SOL    HW220903   4.172   1.389   1.851  0.3545 -0.2476  1.0576
 6872SOL     OW20904   2.422   2.516   2.345 -0.6317 -0.1610  0.4739
 6872SOL    HW120905   2.434   2.589   2.279  0.5884 -0.1505  0.6911
 6872SOL    HW220906   2.477   2.437   2.318 -1.9822 -1.0394  0.2013
 6873SOL     OW20907   5.240   3.649   2.026  0.4437  0.2354  0.1517
 6873SOL    HW120908   5.218   3.722   2.090  0.7763  0.0036  0.5371
 6873SOL    HW220909   5.326   3.605   2.054  0.5442  0.0742 -0.4004
 6874SOL     OW20910   3.293   5.132   1.678 -0.6802 -0.2418 -0.0265
 6874SOL    HW120911   3.262   5.184   1.598 -0.3602  0.9153  0.5874
 6874SOL    HW220912   3.313   5.038   1.650 -0.7874  0.0806 -1.2601
 6875SOL     OW20913   0.555   2.762   3.062 -0.1063  0.1663  0.2496
 6875SOL    HW120914   0.595   2.755   2.971 -0.8654  0.8475 -0.1500
 6875SOL    HW220915   0.534   2.858   3.082 -0.3719 -0.0312  0.9548
 6876SOL     OW20916   0.370   4.129   0.311  0.1581 -0.7111  0.3322
 6876SOL    HW120917   0.378   4.078   0.396 -0.3950  1.4110  1.7260
 6876SOL    HW220918   0.461   4.157   0.280  0.2919 -0.7203  0.7215
 6877SOL     OW20919   0.012   3.766   2.454 -0.0376 -0.6015  0.0320
 6877SOL    HW120920  -0.024   3.851   2.416 -1.0334 -1.1869 -0.3758
 6877SOL    HW220921   0.112   3.771   2.459 -0.0617  0.4570 -0.2889
 6878SOL     OW20922   3.122   4.881   2.032 -0.0656  0.2030  1.0626
 6878SOL    HW120923   3.058   4.893   1.956  1.1214  0.4752  0.0545
 6878SOL    HW220924   3.179   4.800   2.014  0.3402  0.3714  1.5657
 6879SOL     OW20925   4.005   5.606   3.346  0.5071 -0.0213  0.4356
 6879SOL    HW120926   4.050   5.696   3.350  2.0795 -0.7024 -0.7863
 6879SOL    HW220927   3.927   5.605   3.408  1.9162  1.3921  2.3612
 6880SOL     OW20928   5.519   0.274   2.687 -0.6288 -0.4530  0.4663
 6880SOL    HW120929   5.493   0.370   2.674 -2.8049 -0.9167  1.0956
 6880SOL    HW220930   5.526   0.229   2.598 -0.1955  0.1239  0.2004
 6881SOL     OW20931   4.984   0.396   1.288  0.5241  0.3533 -0.1634
 6881SOL    HW120932   5.065   0.445   1.320  1.4381 -0.0513 -1.7318
 6881SOL    HW220933   4.907   0.416   1.348  1.3322  2.1607  0.3439
 6882SOL     OW20934   4.973   1.575   5.759  0.0888  0.2531 -0.1386
 6882SOL    HW120935   4.967   1.568   5.660 -2.3481 -0.8474  0.0166
 6882SOL    HW220936   5.067   1.557   5.788  0.7874  0.3127 -2.1949
 6883SOL     OW20937   3.716   2.892   5.431  0.2344 -0.1225 -0.3395
 6883SOL    HW120938   3.635   2.893   5.489  0.5178  1.6554  0.0656
 6883SOL    HW220939   3.766   2.806   5.446  0.5104  0.4339  2.4033
 6884SOL     OW20940   0.833   0.803   0.286 -0.0173 -0.1460 -0.5948
 6884SOL    HW120941   0.745   0.838   0.257 -0.4573 -1.8637 -1.5038
 6884SOL    HW220942   0.900   0.814   0.212  0.6582  1.4387  0.2022
 6885SOL     OW20943   5.280   4.956   4.753 -0.0780  0.1524  0.8651
 6885SOL    HW120944   5.250   4.984   4.661 -2.4155  1.8510  2.0240
 6885SOL    HW220945   5.344   4.880   4.745  0.3369  0.6723 -2.1861
 6886SOL     OW20946   1.225   1.080   2.366  0.1349  0.1325  0.3078
 6886SOL    HW120947   1.132   1.099   2.398  0.1891  1.1096 -0.0741
 6886SOL    HW220948   1.280   1.163   2.373  0.6818 -0.1482 -0.4884
 6887SOL     OW20949   5.577   2.943   3.826 -0.2319  0.3228 -0.2746
 6887SOL    HW120950   5.659   2.978   3.872 -0.4326  0.2623  0.1338
 6887SOL    HW220951   5.558   2.999   3.745 -0.8074  1.4822  0.6239
 6888SOL     OW20952   5.048   0.369   5.782  0.1871 -0.3175 -0.6841
 6888SOL    HW120953   5.083   0.312   5.857  1.1629  0.8397 -0.2335
 6888SOL    HW220954   5.029   0.311   5.703  2.9848 -1.0948 -0.8943
 6889SOL     OW20955   0.602   4.142   2.280 -0.6768  0.3856  0.2854
 6889SOL    HW120956   0.623   4.065   2.340  1.2809  1.3668  0.9511
 6889SOL    HW220957   0.638   4.124   2.188 -1.5279 -0.0930  0.0374
 6890SOL     OW20958   3.821   3.216   5.011 -0.2345  0.0148 -0.5187
 6890SOL    HW120959   3.849   3.151   4.940 -1.1532  0.1342 -1.0091
 6890SOL    HW220960   3.753   3.172   5.071 -0.6165  0.4110 -0.6557
 6891SOL     OW20961   2.056   5.006   4.774 -0.3640 -0.3004 -0.1252
 6891SOL    HW120962   2.145   5.030   4.736 -0.4915  0.7624  0.2286
 6891SOL    HW220963   2.006   4.951   4.707  0.3134 -0.3949 -0.5659
 6892SOL     OW20964   4.498   5.555   3.269 -0.0239 -0.3877 -0.3550
 6892SOL    HW120965   4.454   5.488   3.209 -0.2063  0.4218 -1.1504
 6892SOL    HW220966   4.487   5.528   3.364  0.8894 -2.0887 -0.7046
 6893SOL     OW20967   4.447   1.264   3.777 -0.4765 -0.2216 -0.6954
 6893SOL    HW120968   4.404   1.308   3.699  0.7886 -0.3361 -1.4796
 6893SOL    HW220969   4.493   1.180   3.747  1.0248  0.3429 -0.0614
 6894SOL     OW20970   1.698   2.550   0.407 -0.4533  0.4125 -0.1650
 6894SOL    HW120971   1.796   2.533   0.410 -0.4131  0.4105 -1.1888
 6894SOL    HW220972   1.664   2.539   0.314 -1.5991 -0.4840  0.3289
 6895SOL     OW20973   0.963   4.255   3.271 -0.3798  0.5210  0.6765
 6895SOL    HW120974   0.976   4.319   3.195  1.4449 -1.4739 -0.8098
 6895SOL    HW220975   0.873   4.213   3.265  0.3762 -0.9365 -1.5313
 6896SOL     OW20976   0.790   3.930   0.422 -0.4830  0.4123  0.1293
 6896SOL    HW120977   0.720   3.883   0.367 -2.1370  0.1085  2.3360
 6896SOL    HW220978   0.758   4.021   0.446  0.0140  0.3905  0.9108
 6897SOL     OW20979   3.508   3.395   4.777 -0.2160 -0.2792  0.0848
 6897SOL    HW120980   3.410   3.391   4.793 -0.5703  0.3986 -1.6733
 6897SOL    HW220981   3.555   3.413   4.863 -1.3687 -3.1439  1.4552
 6898SOL     OW20982   1.597   0.638   2.264 -0.2607  0.0489 -0.0414
 6898SOL    HW120983   1.547   0.608   2.346  0.0794 -0.3220  0.0377
 6898SOL    HW220984   1.675   0.695   2.292  0.5936 -1.0973 -0.0024
 6899SOL     OW20985   5.385   0.761   3.280  0.0938  0.8158 -0.2085
 6899SOL    HW120986   5.439   0.800   3.205 -0.2222 -0.0603 -0.8984
 6899SOL    HW220987   5.326   0.688   3.245  1.1159 -0.7321  1.1538
 6900SOL     OW20988   3.472   3.238   5.334 -0.0013  0.2353 -0.4621
 6900SOL    HW120989   3.433   3.187   5.411  0.7637 -1.3415 -1.0851
 6900SOL    HW220990   3.414   3.228   5.254  1.5994 -2.1962 -1.4196
 6901SOL     OW20991   5.034   1.357   4.815 -0.2028 -0.3544  0.1483
 6901SOL    HW120992   5.082   1.422   4.756 -0.8401  0.2422  0.2709
 6901SOL    HW220993   4.944   1.336   4.777 -0.7999  0.3754  1.1038
 6902SOL     OW20994   5.743   1.237   0.838 -0.1892  0.1216 -0.0672
 6902SOL    HW120995   5.738   1.296   0.758 -0.3229  3.6554  2.3121
 6902SOL    HW220996   5.836   1.241   0.877 -0.8054  0.7138  1.4341
 6903SOL     OW20997   1.903   3.015   3.170 -0.0209 -0.4372  0.8940
 6903SOL    HW120998   1.884   3.007   3.268  2.3487 -0.3481  1.4035
 6903SOL    HW220999   1.957   2.936   3.140 -0.5184 -0.3407 -0.3194
 6904SOL     OW21000   4.013   5.857   1.330  0.1568 -0.2684 -0.0239
 6904SOL    HW121001   3.982   5.804   1.409  0.8915  1.0413  1.1779
 6904SOL    HW221002   4.111   5.845   1.319 -0.1233 -1.4523 -1.5587
 6905SOL     OW21003   1.851   4.849  -0.015 -0.0612  0.0280 -0.3129
 6905SOL    HW121004   1.808   4.919   0.042  1.3004  0.1098  0.6504
 6905SOL    HW221005   1.807   4.761   0.000  0.3977  0.0137  1.0263
 6906SOL     OW21006   5.544   5.356   1.963  0.1017 -0.5688 -0.0581
 6906SOL    HW121007   5.582   5.265   1.984 -0.0281 -0.6299 -0.0857
 6906SOL    HW221008   5.468   5.346   1.899 -0.5661 -0.5393  0.7096
 6907SOL     OW21009   4.448   2.550   4.410  0.1070 -0.4695 -0.1042
 6907SOL    HW121010   4.430   2.573   4.314  0.2313  3.3336  0.6545
 6907SOL    HW221011   4.388   2.475   4.437 -0.9253 -0.7168 -2.7487
 6908SOL     OW21012   0.600   1.261   3.148  0.2287  0.2417 -0.1776
 6908SOL    HW121013   0.695   1.281   3.127  1.2229 -3.7514 -0.2699
 6908SOL    HW221014   0.595   1.177   3.202 -3.2341  1.0169  0.9749
 6909SOL     OW21015   4.874   2.218   3.846 -0.8139 -0.0449  0.1788
 6909SOL    HW121016   4.894   2.312   3.816 -1.2089 -0.6461 -2.1739
 6909SOL    HW221017   4.786   2.189   3.808 -1.5069 -0.8522  2.2386
 6910SOL     OW21018   3.331   5.089   3.388 -0.6891 -0.7259 -0.5939
 6910SOL    HW121019   3.429   5.074   3.378 -0.6783 -0.0064 -1.7375
 6910SOL    HW221020   3.292   5.117   3.300 -1.6787  0.3087  0.1393
 6911SOL     OW21021   3.565   3.855   5.877 -0.3550 -0.3209 -0.4651
 6911SOL    HW121022   3.618   3.928   5.836 -1.4325  1.7673  1.6253
 6911SOL    HW221023   3.626   3.788   5.919  0.6355  0.3156 -0.8724
 6912SOL     OW21024   3.109   3.136   5.910  0.5102 -0.4264 -0.4478
 6912SOL    HW121025   3.052   3.179   5.980  1.1234 -0.2490 -0.0524
 6912SOL    HW221026   3.054   3.121   5.828  0.4558  1.7956 -0.8760
 6913SOL     OW21027   4.646   4.598   4.866  0.3706 -0.2531 -0.1720
 6913SOL    HW121028   4.569   4.661   4.855 -0.1365 -0.8015  0.1900
 6913SOL    HW221029   4.663   4.550   4.780 -1.2161 -1.8444  0.3409
 6914SOL     OW21030   0.794   0.647   2.253 -0.2161  0.0458  0.2772
 6914SOL    HW121031   0.841   0.710   2.191 -1.6221  0.3954 -0.4686
 6914SOL    HW221032   0.859   0.578   2.286  1.1222  1.3070  0.3643
 6915SOL     OW21033   1.655   4.889   3.922  0.4220 -0.4050 -0.1883
 6915SOL    HW121034   1.713   4.809   3.942 -1.8199 -2.0511  0.0985
 6915SOL    HW221035   1.640   4.940   4.007 -1.0402 -1.7678  0.4220
 6916SOL     OW21036   1.389   5.903   3.218 -0.1280 -0.8048  0.4689
 6916SOL    HW121037   1.475   5.954   3.231 -0.4776 -0.2447  0.6533
 6916SOL    HW221038   1.399   5.811   3.255  0.2779 -0.6279  0.8122
 6917SOL     OW21039   2.794   2.701   1.763 -0.0615 -0.4673  0.3028
 6917SOL    HW121040   2.890   2.725   1.781 -0.7313  3.0328 -0.2022
 6917SOL    HW221041   2.780   2.694   1.664 -0.4036 -0.6514  0.3638
 6918SOL     OW21042   2.142   0.784   5.391 -0.1928  0.4466 -0.4472
 6918SOL    HW121043   2.153   0.790   5.490  0.1253  0.5991 -0.4909
 6918SOL    HW221044   2.168   0.693   5.360  1.5545  0.9651 -0.6174
 6919SOL     OW21045   0.389   5.876   5.544  0.1021  0.0901 -0.4222
 6919SOL    HW121046   0.298   5.895   5.580 -0.7295  0.1112 -2.4577
 6919SOL    HW221047   0.456   5.929   5.596 -1.4138  2.9577 -1.2187
 6920SOL     OW21048   2.506   1.300   2.196 -0.2120  0.4915 -0.0913
 6920SOL    HW121049   2.545   1.275   2.108  0.4748  1.6436 -0.1370
 6920SOL    HW221050   2.574   1.352   2.249 -1.1403  1.1495  0.4796
 6921SOL     OW21051   4.431   1.831   4.501 -0.3227 -0.2279  0.1117
 6921SOL    HW121052   4.406   1.895   4.574  0.2596  0.2275 -0.0737
 6921SOL    HW221053   4.467   1.747   4.541  0.9213  0.4017  0.3631
 6922SOL     OW21054   5.939   4.785   0.241 -0.0314  0.7671  0.0081
 6922SOL    HW121055   5.873   4.841   0.290  0.8169 -0.3971  2.6552
 6922SOL    HW221056   6.024   4.836   0.229 -0.4460  1.2765 -0.9059
 6923SOL     OW21057   5.072   3.555   0.715  0.1876 -0.4687 -0.1880
 6923SOL    HW121058   5.015   3.477   0.688 -0.2286 -0.7560  1.3926
 6923SOL    HW221059   5.168   3.531   0.702  0.0920 -1.4789  0.7396
 6924SOL     OW21060   4.565   5.116   4.483 -0.6810 -0.5425 -0.2513
 6924SOL    HW121061   4.602   5.090   4.394 -0.5242  0.8015 -0.5930
 6924SOL    HW221062   4.636   5.162   4.536 -1.8047  2.2837 -0.9981
 6925SOL     OW21063   1.628   2.120   0.045 -0.1623 -0.5713  0.1838
 6925SOL    HW121064   1.709   2.062   0.050  0.5058 -0.0951 -3.0278
 6925SOL    HW221065   1.653   2.211   0.012 -1.8207  0.1449  0.7492
 6926SOL     OW21066   0.385   3.060   1.473 -0.0185  0.9596 -0.2735
 6926SOL    HW121067   0.440   3.077   1.391  1.2153  1.7581  0.6969
 6926SOL    HW221068   0.382   3.143   1.529 -0.1325  0.1760  0.9126
 6927SOL     OW21069   4.626   2.491   5.556 -0.2031 -0.3598 -0.1846
 6927SOL    HW121070   4.528   2.508   5.557 -0.5464 -1.8756 -2.3133
 6927SOL    HW221071   4.645   2.404   5.512  2.1963  0.5791 -1.1927
 6928SOL     OW21072   4.281   3.250   1.934  0.0305  0.0891 -0.0627
 6928SOL    HW121073   4.228   3.325   1.974 -1.5708 -1.0341 -0.0100
 6928SOL    HW221074   4.257   3.241   1.837 -2.3732 -2.4408  0.6634
 6929SOL     OW21075   1.157   5.305   4.460 -0.4129  0.0340 -0.3302
 6929SOL    HW121076   1.099   5.347   4.390 -0.2053  0.3283 -0.3289
 6929SOL    HW221077   1.194   5.377   4.520 -2.2434 -0.3813  1.3743
 6930SOL     OW21078   2.749   2.379   5.755  0.0706  0.6282  0.2232
 6930SOL    HW121079   2.791   2.446   5.817  0.1432 -0.9118  1.9377
 6930SOL    HW221080   2.657   2.410   5.730  0.9928  2.5389 -1.0780
 6931SOL     OW21081   3.021   5.512   2.912  0.4202 -0.3906  0.0879
 6931SOL    HW121082   2.975   5.457   2.982  0.1714  0.7305  0.8215
 6931SOL    HW221083   3.051   5.599   2.952  2.8758 -0.9241 -0.4492
 6932SOL     OW21084   0.510   3.696   3.506 -0.3254  0.3081 -0.3251
 6932SOL    HW121085   0.535   3.599   3.505  0.4972  0.5022 -1.9637
 6932SOL    HW221086   0.410   3.705   3.503 -0.3913 -0.4941 -0.7216
 6933SOL     OW21087   5.547   0.399   5.071  0.1855  0.2192  0.6334
 6933SOL    HW121088   5.545   0.299   5.071  2.5930  0.1122  0.1941
 6933SOL    HW221089   5.475   0.434   5.012 -0.9694 -1.2234  1.1312
 6934CL      CL21090   4.272   2.922   2.982 -0.0325 -0.3343  0.5427
 6935CL      CL21091   4.866   5.851   2.027  0.3586  0.0231  0.0293
   5.95961   5.95961   5.95961
