Protein in water
17150
    1LEU      N    1   2.476   2.049   0.834  0.3937 -0.4341  0.0808
    1LEU     H1    2   2.388   2.012   0.802  0.5522  0.3938 -1.3810
    1LEU     H2    3   2.552   1.987   0.810  1.0246  0.8214 -1.2897
    1LEU     H3    4   2.469   2.062   0.934 -1.6052 -1.6504  0.1471
    1LEU     CA    5   2.494   2.183   0.784  0.2451  0.5487 -0.1910
    1LEU     HA    6   2.414   2.253   0.807  0.9872  0.8864  1.5684
    1LEU     CB    7   2.630   2.246   0.836  0.4394 -0.0384  0.1875
    1LEU    HB1    8   2.712   2.183   0.801 -0.2401 -0.7436 -0.1595
    1LEU    HB2    9   2.630   2.247   0.945 -1.1095  0.8045  0.2021
    1LEU     CG   10   2.653   2.393   0.791 -0.4954  0.2966  0.1205
    1LEU     HG   11   2.656   2.383   0.682 -1.4487  2.0768 -0.1008
    1LEU    CD1   12   2.528   2.486   0.830 -0.2985  0.3972  0.1486
    1LEU   HD11   13   2.518   2.496   0.938  0.6026 -1.1130  0.3961
    1LEU   HD12   14   2.553   2.587   0.798  0.4876  0.7336  1.6977
    1LEU   HD13   15   2.434   2.460   0.782 -0.5093  0.8796  0.2962
    1LEU    CD2   16   2.792   2.444   0.826 -0.0481  0.5633  0.3624
    1LEU   HD21   17   2.863   2.382   0.771 -0.2723  0.5291  0.1066
    1LEU   HD22   18   2.807   2.544   0.786 -0.6278  0.2944 -0.5832
    1LEU   HD23   19   2.801   2.445   0.934 -1.7638  2.5258  0.5505
    1LEU      C   20   2.491   2.169   0.638  0.2493 -0.2352  0.5533
    1LEU      O   21   2.582   2.114   0.583  0.6560 -0.0171  0.4458
    2ILE      N   22   2.385   2.217   0.568  0.1586  0.0172 -0.2094
    2ILE      H   23   2.309   2.249   0.627 -0.2376 -0.4216 -0.4756
    2ILE     CA   24   2.385   2.237   0.421 -0.6364  0.7336 -0.4340
    2ILE     HA   25   2.441   2.149   0.390  1.1501  0.4349  3.1042
    2ILE     CB   26   2.244   2.245   0.369 -0.4449  0.3012  0.4225
    2ILE     HB   27   2.188   2.321   0.423 -2.2115 -0.2889 -0.5316
    2ILE    CG2   28   2.233   2.285   0.226  0.5867  0.0341 -0.0059
    2ILE   HG21   29   2.302   2.363   0.192  1.9433 -1.1634 -0.1452
    2ILE   HG22   30   2.253   2.197   0.164 -1.5369 -0.0422 -0.6680
    2ILE   HG23   31   2.131   2.318   0.208  0.7492  0.7408  0.3482
    2ILE    CG1   32   2.178   2.102   0.395  0.0097 -0.3430 -0.2015
    2ILE   HG11   33   2.203   2.074   0.498 -0.8980  0.4378  0.2486
    2ILE   HG12   34   2.235   2.034   0.332 -0.0500  1.1836 -1.9630
    2ILE     CD   35   2.023   2.091   0.384  0.0987 -0.1595 -0.1995
    2ILE    HD1   36   1.993   1.987   0.380 -0.6815  0.0885 -1.1834
    2ILE    HD2   37   1.983   2.147   0.469  0.3567 -0.3975  0.0813
    2ILE    HD3   38   1.985   2.144   0.297  0.6902  1.4895  0.4934
    2ILE      C   39   2.472   2.354   0.379  0.4238 -0.0111 -0.0772
    2ILE      O   40   2.543   2.343   0.284  0.0134 -0.2184 -0.1095
    3LEU      N   41   2.475   2.460   0.456  0.2019  0.1037 -0.4109
    3LEU      H   42   2.442   2.450   0.550  0.5355  2.7483  0.0667
    3LEU     CA   43   2.542   2.588   0.427  0.8639 -0.4123 -0.1722
    3LEU     HA   44   2.537   2.609   0.320 -1.0863 -0.5238 -0.1399
    3LEU     CB   45   2.464   2.705   0.494  0.1937  0.6123 -0.5573
    3LEU    HB1   46   2.529   2.792   0.489  0.9223  0.1047 -0.1146
    3LEU    HB2   47   2.447   2.671   0.597  0.2760 -0.7380 -0.9698
    3LEU     CG   48   2.334   2.746   0.431  0.3744  0.4906  0.0877
    3LEU     HG   49   2.333   2.751   0.322 -0.4899  0.2035  0.0692
    3LEU    CD1   50   2.215   2.654   0.481 -0.4355 -0.6289  0.3337
    3LEU   HD11   51   2.211   2.566   0.417 -1.4654  0.9980 -1.9489
    3LEU   HD12   52   2.223   2.626   0.586 -0.0773  0.2337  0.5478
    3LEU   HD13   53   2.122   2.711   0.472 -1.3972 -2.3480 -1.5338
    3LEU    CD2   54   2.291   2.888   0.476  0.0228  0.4478 -0.2016
    3LEU   HD21   55   2.272   2.878   0.583  1.1262 -0.6020 -0.0871
    3LEU   HD22   56   2.374   2.957   0.463  1.3541 -0.5644  2.1897
    3LEU   HD23   57   2.203   2.917   0.418  0.0884  0.3872 -0.3312
    3LEU      C   58   2.685   2.576   0.475  0.3103  0.0763 -0.2896
    3LEU      O   59   2.712   2.635   0.579  0.5711  0.0611  0.1186
    4LEU      N   60   2.776   2.497   0.417 -0.8314 -0.4772  0.6316
    4LEU      H   61   2.751   2.454   0.329  0.3744  0.9848 -0.4951
    4LEU     CA   62   2.911   2.462   0.469 -0.5647  0.4976 -0.1356
    4LEU     HA   63   2.890   2.425   0.569 -0.4583  0.1508 -0.2417
    4LEU     CB   64   2.969   2.344   0.384 -0.0945 -0.2948 -0.1572
    4LEU    HB1   65   3.078   2.343   0.391 -0.0383 -3.6898 -0.2713
    4LEU    HB2   66   2.953   2.365   0.278  0.3078 -0.7667 -0.3123
    4LEU     CG   67   2.909   2.202   0.408 -0.2213 -0.7061 -0.2048
    4LEU     HG   68   2.804   2.197   0.380 -0.9813 -0.7799  2.3739
    4LEU    CD1   69   2.984   2.098   0.333  0.1296  0.1622  0.5773
    4LEU   HD11   70   2.993   2.128   0.229 -1.5356 -0.0981  0.3370
    4LEU   HD12   71   3.080   2.080   0.382  0.9220  0.8321 -0.6761
    4LEU   HD13   72   2.925   2.007   0.343 -0.2192  0.6166  3.5989
    4LEU    CD2   73   2.925   2.166   0.551  0.2727  0.4626 -0.8630
    4LEU   HD21   74   2.862   2.234   0.609  0.4905 -0.0455 -0.0180
    4LEU   HD22   75   2.894   2.063   0.565  2.5106 -0.1822 -0.4119
    4LEU   HD23   76   3.027   2.183   0.583 -0.1106 -1.0967  1.4352
    4LEU      C   77   3.003   2.583   0.495  0.3329 -0.4854 -0.3566
    4LEU      O   78   3.094   2.580   0.580  0.1903  0.0902 -0.0005
    5VAL      N   79   2.974   2.703   0.439  0.1296  0.2229  0.2646
    5VAL      H   80   2.894   2.702   0.377 -1.5079 -0.5401  2.2607
    5VAL     CA   81   3.038   2.833   0.470  0.0135 -0.9442  0.4911
    5VAL     HA   82   3.146   2.824   0.457  0.1471  0.2843  0.7072
    5VAL     CB   83   2.997   2.949   0.380 -0.1345 -0.0783  0.3175
    5VAL     HB   84   3.040   3.041   0.419 -0.2588 -0.3778  1.1789
    5VAL    CG1   85   3.044   2.928   0.235 -0.1404 -0.0401 -0.8457
    5VAL   HG11   86   3.009   3.014   0.177 -2.5799 -1.3264 -1.3960
    5VAL   HG12   87   3.153   2.923   0.228 -0.1320  0.9552 -1.7219
    5VAL   HG13   88   3.001   2.840   0.187 -0.1641 -0.1149 -0.6868
    5VAL    CG2   89   2.850   2.959   0.380  0.1729  0.1333  0.0259
    5VAL   HG21   90   2.826   2.981   0.484  1.0441 -0.3664  0.3440
    5VAL   HG22   91   2.824   3.036   0.308  0.5030 -0.8255 -1.1574
    5VAL   HG23   92   2.801   2.871   0.337 -0.0760  1.5160 -2.7316
    5VAL      C   93   3.022   2.876   0.617 -0.1168 -0.1569  0.4344
    5VAL      O   94   3.095   2.965   0.661  0.7703  0.0124  0.3939
    6LEU      N   95   2.933   2.811   0.693 -0.4179 -0.3845 -0.0711
    6LEU      H   96   2.873   2.740   0.652 -2.0058  1.1197 -0.4751
    6LEU     CA   97   2.905   2.842   0.832 -0.0512  0.2518  0.4648
    6LEU     HA   98   2.939   2.942   0.862  0.5870  0.8956 -2.1734
    6LEU     CB   99   2.756   2.872   0.858  0.8668  0.1541 -0.1298
    6LEU    HB1  100   2.736   2.926   0.950 -1.3588  1.0116 -1.0240
    6LEU    HB2  101   2.700   2.779   0.871 -0.3451  1.1258  2.0248
    6LEU     CG  102   2.698   2.958   0.749  0.7419  0.7051  0.0976
    6LEU     HG  103   2.703   2.902   0.655  0.3342  0.3152  0.3081
    6LEU    CD1  104   2.545   2.979   0.763  0.2860 -0.3082 -0.2786
    6LEU   HD11  105   2.497   3.019   0.673  1.0716  0.6620 -0.2762
    6LEU   HD12  106   2.500   2.879   0.766  0.4782 -0.3669  0.6548
    6LEU   HD13  107   2.532   3.044   0.849  1.0514  1.8861 -1.7175
    6LEU    CD2  108   2.755   3.102   0.726 -0.7377  0.0120 -0.2474
    6LEU   HD21  109   2.861   3.101   0.700 -0.6618 -1.9617 -0.0187
    6LEU   HD22  110   2.693   3.145   0.647 -1.0511  1.4677  0.7554
    6LEU   HD23  111   2.735   3.161   0.815  0.8706 -1.3729  1.1104
    6LEU      C  112   2.958   2.748   0.945 -0.5577  0.3761 -0.0006
    6LEU      O  113   2.936   2.767   1.067  0.1584 -0.1107  0.0335
    7VAL      N  114   3.047   2.658   0.903 -0.0807  0.4456  0.2263
    7VAL      H  115   3.068   2.641   0.805  1.0699  0.9547  0.3624
    7VAL     CA  116   3.089   2.551   1.000  0.1197  0.4992  0.1537
    7VAL     HA  117   2.990   2.518   1.028  0.2484 -0.7010 -0.7245
    7VAL     CB  118   3.157   2.433   0.921 -0.1583 -0.6239  0.3331
    7VAL     HB  119   3.109   2.417   0.824 -1.8799  0.6640  0.9138
    7VAL    CG1  120   3.304   2.467   0.895 -0.6065  0.1016 -0.0622
    7VAL   HG11  121   3.367   2.438   0.980 -0.1354  0.0409 -0.4286
    7VAL   HG12  122   3.337   2.404   0.812 -0.2264 -0.6403  0.6301
    7VAL   HG13  123   3.322   2.571   0.869 -2.1517  0.2261 -0.7394
    7VAL    CG2  124   3.158   2.299   0.991  0.4910 -0.2206  0.4243
    7VAL   HG21  125   3.055   2.281   1.019  0.9046 -2.3281  0.7260
    7VAL   HG22  126   3.191   2.223   0.919 -0.5928  1.3104 -1.8321
    7VAL   HG23  127   3.217   2.304   1.082  2.9707 -1.6239 -0.9751
    7VAL      C  128   3.161   2.592   1.130 -0.5679 -0.5672 -0.0805
    7VAL      O  129   3.138   2.538   1.236  0.3322  0.1494  0.4104
    8LEU      N  130   3.248   2.693   1.129 -0.5913  0.7531  0.5202
    8LEU      H  131   3.258   2.744   1.043  1.6169 -0.4204 -0.0025
    8LEU     CA  132   3.308   2.753   1.252  0.5136 -0.1326 -0.2093
    8LEU     HA  133   3.342   2.682   1.327  1.2500  0.3206 -0.1008
    8LEU     CB  134   3.444   2.816   1.215  0.0126 -0.2239  0.2594
    8LEU    HB1  135   3.490   2.862   1.302  0.9224 -0.3818 -0.1271
    8LEU    HB2  136   3.415   2.903   1.155 -0.5436 -0.6932 -0.1676
    8LEU     CG  137   3.533   2.723   1.139  0.0861 -0.1461  1.2774
    8LEU     HG  138   3.491   2.695   1.043  2.2141 -2.3356  0.8938
    8LEU    CD1  139   3.668   2.778   1.115 -0.6477  0.3293 -0.5755
    8LEU   HD11  140   3.655   2.879   1.075 -2.4878 -0.2768 -1.6543
    8LEU   HD12  141   3.717   2.785   1.212 -1.5162 -2.4491  0.1294
    8LEU   HD13  142   3.724   2.715   1.046  2.3625  1.4461  0.6604
    8LEU    CD2  143   3.551   2.593   1.211 -0.8503  0.1173 -0.2691
    8LEU   HD21  144   3.468   2.526   1.185 -0.5736  0.7650 -3.2218
    8LEU   HD22  145   3.641   2.544   1.173  0.2637  1.1780  0.9468
    8LEU   HD23  146   3.560   2.620   1.316  0.0835 -1.8360  0.2035
    8LEU      C  147   3.213   2.853   1.323 -0.4965  0.0112 -0.0437
    8LEU      O  148   3.252   2.916   1.414  0.3252 -0.4089 -0.3268
    9ILE      N  149   3.091   2.858   1.285  0.0209  0.2858  0.3978
    9ILE      H  150   3.072   2.801   1.204  2.5710  0.7344 -0.6225
    9ILE     CA  151   2.985   2.962   1.330  0.1653 -0.4098 -0.4463
    9ILE     HA  152   3.029   3.035   1.397  0.2137  1.3863 -2.3269
    9ILE     CB  153   2.930   3.048   1.211  0.5539 -0.2487  0.2553
    9ILE     HB  154   2.860   2.991   1.149 -2.2106  2.3244  0.7849
    9ILE    CG2  155   2.861   3.168   1.262  0.2792 -0.3515  0.6427
    9ILE   HG21  156   2.789   3.210   1.192 -1.3101 -0.1432  2.3201
    9ILE   HG22  157   2.819   3.145   1.361  0.7969 -1.3280  0.6557
    9ILE   HG23  158   2.935   3.245   1.281  0.7770 -0.4919 -0.6451
    9ILE    CG1  159   3.051   3.104   1.117  0.1087 -0.0119 -0.0697
    9ILE   HG11  160   3.093   3.013   1.074  2.5661 -0.2217  2.4781
    9ILE   HG12  161   3.116   3.164   1.182 -0.7730 -0.8990  1.6968
    9ILE     CD  162   3.011   3.196   1.005 -0.1384 -0.2957 -0.2127
    9ILE    HD1  163   2.977   3.291   1.044 -0.0249 -0.6818  0.8764
    9ILE    HD2  164   3.092   3.215   0.934 -0.2929 -0.6505 -0.4851
    9ILE    HD3  165   2.917   3.157   0.967 -1.1813  0.0085  1.9199
    9ILE      C  166   2.874   2.895   1.405 -0.4875 -0.3095  0.3381
    9ILE      O  167   2.836   2.934   1.514 -0.3100  0.1069  0.1562
   10VAL      N  168   2.826   2.789   1.344 -0.1430 -0.0767  0.1543
   10VAL      H  169   2.861   2.767   1.252  1.4004  0.4077  0.5941
   10VAL     CA  170   2.724   2.704   1.406 -0.7085 -0.3569  1.0775
   10VAL     HA  171   2.637   2.764   1.430 -0.4729  0.0967  0.8087
   10VAL     CB  172   2.675   2.599   1.306  0.3328  0.2033 -0.2356
   10VAL     HB  173   2.596   2.547   1.361  0.0475 -0.3527 -1.1487
   10VAL    CG1  174   2.622   2.663   1.180  0.1859 -0.4838 -0.5947
   10VAL   HG11  175   2.572   2.594   1.112  1.0080 -1.0992 -0.5925
   10VAL   HG12  176   2.556   2.744   1.211  2.2322  1.1056 -0.1066
   10VAL   HG13  177   2.697   2.725   1.131  0.2530  0.2021  0.3403
   10VAL    CG2  178   2.767   2.492   1.259 -0.4698  0.4375  0.0304
   10VAL   HG21  179   2.843   2.529   1.189  0.2561 -1.6366 -0.3501
   10VAL   HG22  180   2.831   2.457   1.340 -0.3456  0.4724 -0.0512
   10VAL   HG23  181   2.717   2.404   1.218  1.7127 -0.7162 -0.3237
   10VAL      C  182   2.770   2.634   1.540 -0.2254 -0.2813 -0.2413
   10VAL      O  183   2.694   2.609   1.631 -0.2381 -0.1480  0.4887
   11VAL      N  184   2.900   2.643   1.566  0.4149 -0.1422  0.4191
   11VAL      H  185   2.963   2.683   1.498  0.2907 -0.0049  0.3850
   11VAL     CA  186   2.944   2.604   1.697  0.6034 -0.1062 -0.1684
   11VAL     HA  187   2.880   2.523   1.731  2.0093 -1.9062 -1.6456
   11VAL     CB  188   3.078   2.531   1.694  0.0331  0.0401 -0.1705
   11VAL     HB  189   3.099   2.481   1.789  0.9337 -0.1060 -0.4346
   11VAL    CG1  190   3.075   2.425   1.582 -0.1985 -0.1224  0.4351
   11VAL   HG11  191   3.056   2.462   1.482 -0.9614 -1.4574  0.0598
   11VAL   HG12  192   3.174   2.379   1.578 -0.7769 -1.4992  1.0912
   11VAL   HG13  193   3.000   2.352   1.612 -0.6764  0.1545 -0.0811
   11VAL    CG2  194   3.193   2.626   1.675  0.5101 -0.2771 -0.3948
   11VAL   HG21  195   3.184   2.677   1.579  0.0129  0.0096 -0.2024
   11VAL   HG22  196   3.203   2.694   1.760  0.6239 -1.1344  0.2905
   11VAL   HG23  197   3.288   2.573   1.669  0.0288 -1.2372  0.1679
   11VAL      C  198   2.939   2.716   1.798 -0.1057  0.0320 -0.9415
   11VAL      O  199   2.906   2.700   1.917  0.0086 -0.4562 -0.0566
   12VAL      N  200   2.952   2.841   1.757 -0.4082 -0.0395  0.5020
   12VAL      H  201   2.966   2.861   1.659  1.3361  0.2369  0.7880
   12VAL     CA  202   2.945   2.959   1.847  0.1801 -0.9629 -0.1386
   12VAL     HA  203   2.969   2.918   1.944 -0.9126 -1.9572 -0.2651
   12VAL     CB  204   3.043   3.075   1.819 -0.4163 -0.2071 -0.1532
   12VAL     HB  205   3.033   3.147   1.900 -2.3606 -0.8747  0.2714
   12VAL    CG1  206   3.188   3.021   1.821  0.3398 -0.2948 -0.9057
   12VAL   HG11  207   3.193   2.953   1.906 -1.8652  1.7405  1.0233
   12VAL   HG12  208   3.204   2.961   1.732 -0.0402 -2.8395  0.6366
   12VAL   HG13  209   3.253   3.108   1.831 -0.7776  0.3891  1.0593
   12VAL    CG2  210   3.020   3.168   1.695  0.5231 -0.2620 -0.4268
   12VAL   HG21  211   3.100   3.240   1.678 -1.9405  2.5080 -1.1369
   12VAL   HG22  212   3.014   3.109   1.603  0.1070 -0.9429  0.0229
   12VAL   HG23  213   2.931   3.227   1.717  0.8795  0.2690 -0.4167
   12VAL      C  214   2.792   3.006   1.871 -0.1359 -0.7612  0.5500
   12VAL      O  215   2.764   3.080   1.965  0.2187  0.1619 -0.0208
   13LEU      N  216   2.698   2.965   1.778 -0.8321  0.6096 -0.4972
   13LEU      H  217   2.745   2.933   1.695 -0.2453 -2.2248  0.8065
   13LEU     CA  218   2.556   2.998   1.767  0.2546  0.1327 -0.8435
   13LEU     HA  219   2.539   3.100   1.801  1.5463  0.6982 -1.8203
   13LEU     CB  220   2.513   2.998   1.614  0.5901 -0.2393 -0.5268
   13LEU    HB1  221   2.404   2.997   1.606  0.3797 -1.5795  1.7268
   13LEU    HB2  222   2.545   2.900   1.580 -0.1855 -1.6764  2.4854
   13LEU     CG  223   2.572   3.113   1.526 -0.0456  0.0225 -0.1767
   13LEU     HG  224   2.680   3.107   1.540  0.2687  2.2168 -1.2369
   13LEU    CD1  225   2.547   3.069   1.376 -0.2889 -0.0436 -0.0443
   13LEU   HD11  226   2.609   2.982   1.357  1.2192  0.8095  0.7395
   13LEU   HD12  227   2.442   3.042   1.369 -0.4659 -0.1716  2.2409
   13LEU   HD13  228   2.567   3.145   1.300  0.1876 -2.0419 -2.0002
   13LEU    CD2  229   2.523   3.253   1.553  0.4454  0.5908 -0.0185
   13LEU   HD21  230   2.563   3.315   1.472  1.1859  1.3951  0.9388
   13LEU   HD22  231   2.414   3.259   1.547  0.4419  0.4299 -0.1405
   13LEU   HD23  232   2.561   3.284   1.650 -1.2216  1.2990  0.4358
   13LEU      C  233   2.458   2.910   1.849  0.2978  0.0444 -0.5443
   13LEU      O  234   2.343   2.957   1.877 -0.0577 -0.2889  0.2398
   14VAL      N  235   2.483   2.779   1.866  0.1994 -0.7996  0.8572
   14VAL      H  236   2.570   2.749   1.824  0.1548  1.5740 -1.1487
   14VAL     CA  237   2.383   2.684   1.924  0.1905  0.5648  0.5361
   14VAL     HA  238   2.326   2.757   1.982 -0.6632  1.2669 -1.1264
   14VAL     CB  239   2.297   2.627   1.808  0.7927  0.2116 -0.2540
   14VAL     HB  240   2.278   2.707   1.737  1.1817  1.2073  0.7394
   14VAL    CG1  241   2.367   2.518   1.726  0.4655  0.9446 -0.0568
   14VAL   HG11  242   2.459   2.553   1.678 -0.9014  3.6347 -0.8738
   14VAL   HG12  243   2.383   2.435   1.796 -1.8822  0.8253  0.3904
   14VAL   HG13  244   2.298   2.478   1.652 -0.1698  1.1488  0.4161
   14VAL    CG2  245   2.161   2.569   1.858 -0.2304  0.0803 -1.1689
   14VAL   HG21  246   2.090   2.563   1.775 -1.8058 -0.2116  0.1710
   14VAL   HG22  247   2.173   2.469   1.900  0.7868  0.6245 -0.1125
   14VAL   HG23  248   2.113   2.638   1.927 -0.3559  0.0532 -1.2284
   14VAL      C  249   2.428   2.579   2.021 -0.1224  0.2124  0.1320
   14VAL      O  250   2.354   2.528   2.105  0.4252  0.3481 -0.0989
   15LEU      N  251   2.560   2.559   2.024  0.3233 -0.0338  0.4778
   15LEU      H  252   2.619   2.600   1.953 -1.3862 -1.6032 -1.9997
   15LEU     CA  253   2.624   2.460   2.108  0.1512 -0.3016  0.2756
   15LEU     HA  254   2.550   2.382   2.127 -1.7187  0.4818 -2.9611
   15LEU     CB  255   2.733   2.399   2.017  0.3328 -0.4949 -0.0756
   15LEU    HB1  256   2.788   2.324   2.074 -0.7233 -0.8810  0.4589
   15LEU    HB2  257   2.798   2.483   1.992 -1.4542  1.4953  1.5575
   15LEU     CG  258   2.704   2.333   1.885  0.7466 -0.5354  0.1385
   15LEU     HG  259   2.686   2.410   1.810  0.1156 -1.3671 -0.5878
   15LEU    CD1  260   2.822   2.242   1.842 -0.0749 -0.1454 -0.1742
   15LEU   HD11  261   2.845   2.155   1.904  3.0610  0.7533  0.0783
   15LEU   HD12  262   2.802   2.210   1.740  3.9756 -1.7236 -0.6319
   15LEU   HD13  263   2.913   2.301   1.850 -0.2604  0.0723  0.3362
   15LEU    CD2  264   2.578   2.247   1.883  0.2071 -0.2242  0.2365
   15LEU   HD21  265   2.599   2.152   1.932  1.1657  0.7082  1.7340
   15LEU   HD22  266   2.485   2.291   1.918 -0.1078  1.4241 -2.3988
   15LEU   HD23  267   2.567   2.231   1.776  0.1534 -0.6338  0.3029
   15LEU      C  268   2.678   2.504   2.240 -0.2768  0.3958 -0.4869
   15LEU      O  269   2.696   2.417   2.328  0.5435 -0.1185 -0.5614
   16LEU      N  270   2.703   2.637   2.260 -0.5462  0.1817  0.0663
   16LEU      H  271   2.684   2.701   2.184 -0.4999 -1.0196 -0.9897
   16LEU     CA  272   2.748   2.685   2.388  0.2538  0.7011 -0.3805
   16LEU     HA  273   2.829   2.615   2.410  0.8673  1.5293  0.0639
   16LEU     CB  274   2.813   2.818   2.384 -0.1636 -1.5659 -0.1224
   16LEU    HB1  275   2.833   2.854   2.485  0.1974 -0.5713 -0.5322
   16LEU    HB2  276   2.737   2.886   2.346 -0.9078 -0.8258  2.4618
   16LEU     CG  277   2.939   2.832   2.292  0.2841  0.0826 -0.5165
   16LEU     HG  278   2.924   2.775   2.200  0.3387 -0.4911 -0.1739
   16LEU    CD1  279   2.992   2.977   2.261 -0.2374  0.4167  0.6551
   16LEU   HD11  280   2.919   3.027   2.197 -1.7691 -1.0940  1.1648
   16LEU   HD12  281   3.006   3.043   2.347 -1.5621  1.7253 -0.0773
   16LEU   HD13  282   3.087   2.977   2.207 -0.3886 -0.0814  0.3858
   16LEU    CD2  283   3.057   2.752   2.349  0.3370 -0.7787 -0.5799
   16LEU   HD21  284   3.062   2.765   2.457 -0.5653 -0.2470 -0.5964
   16LEU   HD22  285   3.041   2.644   2.345 -1.6889 -0.5303 -0.2248
   16LEU   HD23  286   3.148   2.779   2.295  0.6835  1.2218  0.9260
   16LEU      C  287   2.640   2.657   2.501  0.7963  0.2374  0.2143
   16LEU      O  288   2.686   2.641   2.613  0.0216 -0.3566  0.0426
   17LEU      N  289   2.507   2.636   2.464 -0.0864 -0.0176  0.0863
   17LEU      H  290   2.488   2.672   2.371  3.7142 -1.0500 -1.2587
   17LEU     CA  291   2.394   2.593   2.547  0.2156  0.2205  0.5854
   17LEU     HA  292   2.367   2.665   2.624  0.4319 -0.5161  1.3672
   17LEU     CB  293   2.268   2.588   2.452 -0.2746 -0.6630  0.2404
   17LEU    HB1  294   2.188   2.534   2.502 -0.1587 -1.0462  0.0139
   17LEU    HB2  295   2.298   2.539   2.360  1.8900  2.8008 -1.1130
   17LEU     CG  296   2.208   2.723   2.411  0.2084 -0.0142 -0.2243
   17LEU     HG  297   2.279   2.766   2.340  1.7857 -1.1165  0.6204
   17LEU    CD1  298   2.080   2.683   2.339 -0.5275  0.1120  0.4024
   17LEU   HD11  299   2.022   2.627   2.412  2.1663 -0.2436  2.4415
   17LEU   HD12  300   2.014   2.762   2.302 -2.1650 -1.8612 -1.1200
   17LEU   HD13  301   2.102   2.608   2.262  0.4291  3.1855 -2.5649
   17LEU    CD2  302   2.175   2.810   2.529  0.2116  0.0983 -0.2223
   17LEU   HD21  303   2.265   2.825   2.588 -0.6461 -0.0268  1.1534
   17LEU   HD22  304   2.137   2.905   2.492  2.2359  1.1696  0.3579
   17LEU   HD23  305   2.096   2.767   2.591 -1.5056  0.5237 -1.9963
   17LEU      C  306   2.417   2.457   2.609 -0.3821 -0.3113 -0.1492
   17LEU      O  307   2.355   2.436   2.708  0.4861 -0.2606  0.1452
   18LEU      N  308   2.510   2.373   2.561 -0.5630  0.4373 -0.5155
   18LEU      H  309   2.571   2.400   2.485  0.1806 -0.5034 -0.2655
   18LEU     CA  310   2.548   2.247   2.627 -0.6837  0.3371  0.0665
   18LEU     HA  311   2.458   2.199   2.665 -0.3773  0.0052  0.3831
   18LEU     CB  312   2.604   2.152   2.516  0.4879  0.4727 -0.1192
   18LEU    HB1  313   2.649   2.068   2.570 -0.8718 -0.9384 -1.1035
   18LEU    HB2  314   2.682   2.205   2.462  0.2986  0.0666 -0.8036
   18LEU     CG  315   2.511   2.088   2.416  0.9522  0.7886 -0.3398
   18LEU     HG  316   2.444   2.167   2.383  0.2652  0.2769 -0.1855
   18LEU    CD1  317   2.569   2.038   2.290 -0.2453 -0.2829  0.6689
   18LEU   HD11  318   2.623   2.118   2.240 -0.3340  0.2011  1.3420
   18LEU   HD12  319   2.633   1.951   2.310 -0.0195 -0.2923 -0.0571
   18LEU   HD13  320   2.495   1.998   2.221  0.9754 -0.8941 -0.3385
   18LEU    CD2  321   2.409   1.990   2.473 -1.0216 -0.2735  0.5077
   18LEU   HD21  322   2.352   1.957   2.386 -2.4476  1.7887  0.5864
   18LEU   HD22  323   2.463   1.910   2.523  0.8245  1.1640  0.9166
   18LEU   HD23  324   2.340   2.043   2.538 -1.2272  2.0486 -1.4429
   18LEU      C  325   2.657   2.259   2.743  0.0696 -0.2433 -0.7660
   18LEU      O  326   2.697   2.158   2.806 -0.5766 -0.0766  0.1699
   19LEU      N  327   2.714   2.375   2.772  0.2609  0.0796  0.4629
   19LEU      H  328   2.686   2.449   2.709  1.2337  0.6840  0.7296
   19LEU     CA  329   2.822   2.397   2.869 -0.5197  0.0564 -0.5533
   19LEU     HA  330   2.852   2.297   2.901 -1.3523 -1.2011 -3.3967
   19LEU     CB  331   2.936   2.468   2.796 -0.3941 -0.2611 -0.6253
   19LEU    HB1  332   3.016   2.503   2.861 -0.0111 -1.1044 -0.6242
   19LEU    HB2  333   2.894   2.566   2.771  0.7555  0.6296  0.7780
   19LEU     CG  334   2.997   2.385   2.677 -0.3752  0.7813 -0.1582
   19LEU     HG  335   2.924   2.355   2.602  0.2561 -2.7505  0.4910
   19LEU    CD1  336   3.089   2.481   2.609  0.4222 -0.1736 -0.2897
   19LEU   HD11  337   3.174   2.501   2.673 -0.0066 -2.0200  0.9475
   19LEU   HD12  338   3.121   2.436   2.515  0.6069 -0.6087 -0.0209
   19LEU   HD13  339   3.031   2.570   2.585 -2.4533 -1.4079  1.4684
   19LEU    CD2  340   3.065   2.256   2.715 -0.1919  0.2798  0.3769
   19LEU   HD21  341   3.148   2.278   2.783 -0.0042  0.7876 -0.0105
   19LEU   HD22  342   2.998   2.180   2.755 -1.4027 -0.1886 -2.3681
   19LEU   HD23  343   3.114   2.215   2.627 -0.2273  1.2898 -0.1219
   19LEU      C  344   2.790   2.477   2.997  0.8594  0.0784 -0.3354
   19LEU      O  345   2.872   2.527   3.072 -0.7882  0.1942  0.5447
   20ILE      N  346   2.660   2.497   3.023  0.1418 -0.4494  0.2754
   20ILE      H  347   2.589   2.460   2.962 -0.3073  0.9638 -0.0952
   20ILE     CA  348   2.595   2.562   3.143 -0.4723 -0.4101  0.5185
   20ILE     HA  349   2.666   2.569   3.225 -0.0477  0.5520  0.0864
   20ILE     CB  350   2.551   2.708   3.106 -0.1488 -0.7174 -0.4518
   20ILE     HB  351   2.486   2.743   3.187  0.3525  1.4081 -0.9022
   20ILE    CG2  352   2.671   2.798   3.107 -0.3065 -0.3292  0.0398
   20ILE   HG21  353   2.735   2.772   3.023 -0.5326 -0.1994 -0.1732
   20ILE   HG22  354   2.641   2.902   3.091 -1.9604 -1.0378 -1.9371
   20ILE   HG23  355   2.727   2.801   3.201  0.4359 -0.3898 -0.3955
   20ILE    CG1  356   2.484   2.723   2.967 -0.5620 -0.3414 -0.5775
   20ILE   HG11  357   2.561   2.694   2.896 -0.9378 -2.2723 -0.2581
   20ILE   HG12  358   2.457   2.826   2.943 -0.2656  0.1875  1.1871
   20ILE     CD  359   2.359   2.645   2.944  0.0322 -0.1134  0.4675
   20ILE    HD1  360   2.322   2.681   2.848 -2.6284  1.1916  1.8868
   20ILE    HD2  361   2.386   2.540   2.933 -1.6130 -0.7087  1.7993
   20ILE    HD3  362   2.279   2.658   3.016 -0.7957  0.0393 -0.4527
   20ILE      C  363   2.484   2.474   3.202  0.4138 -0.3710 -0.0772
   20ILE      O  364   2.412   2.524   3.285 -0.1691  0.7712  0.1306
   21LEU      N  365   2.475   2.346   3.162  0.4786 -0.3567 -0.2622
   21LEU      H  366   2.538   2.308   3.094 -0.1761 -0.6513 -0.7178
   21LEU     CA  367   2.383   2.253   3.219 -0.4331  0.4215 -0.1491
   21LEU     HA  368   2.285   2.301   3.222 -0.2683  0.8029  3.5159
   21LEU     CB  369   2.374   2.131   3.127 -0.3684 -0.2004 -0.4767
   21LEU    HB1  370   2.299   2.062   3.164  1.4800 -1.7300  0.6040
   21LEU    HB2  371   2.469   2.079   3.138 -0.1301  0.7083  2.3981
   21LEU     CG  372   2.358   2.151   2.975 -0.2987 -0.3787 -0.1570
   21LEU     HG  373   2.438   2.219   2.947  0.6353 -1.4401 -0.1438
   21LEU    CD1  374   2.383   2.024   2.893 -0.5680  0.8915 -0.3376
   21LEU   HD11  375   2.478   1.977   2.918 -0.2520  0.8150 -1.6248
   21LEU   HD12  376   2.300   1.954   2.900 -0.1838  0.5852  1.9094
   21LEU   HD13  377   2.395   2.045   2.787  1.7292  2.8249  0.2164
   21LEU    CD2  378   2.224   2.210   2.938  0.0277 -0.2423  0.0053
   21LEU   HD21  379   2.214   2.305   2.990 -1.1722  1.2225 -2.6573
   21LEU   HD22  380   2.227   2.227   2.830 -0.4976  1.0969  0.1850
   21LEU   HD23  381   2.145   2.138   2.956 -1.2400  0.9883 -0.4207
   21LEU      C  382   2.414   2.213   3.360 -0.3320  0.2776  0.5904
   21LEU    OC1  383   2.314   2.181   3.433  0.3641 -0.0001  0.3920
   21LEU    OC2  384   2.534   2.214   3.396  0.2772 -0.3404 -0.4073
   22SOL     OW  385   3.656   3.684   0.350  0.5916  0.1714 -0.3989
   22SOL    HW1  386   3.578   3.747   0.357  1.7704  1.8596 -1.4970
   22SOL    HW2  387   3.688   3.660   0.442 -0.2800  0.6680  0.0488
   23SOL     OW  388   4.119   1.242   1.289 -0.2039 -0.5449 -0.9515
   23SOL    HW1  389   4.192   1.211   1.350 -0.6930  0.7949  0.3936
   23SOL    HW2  390   4.070   1.163   1.253  0.3974 -1.3998  0.0332
   24SOL     OW  391   4.508   1.275   4.330  0.3359  0.1051  0.2729
   24SOL    HW1  392   4.595   1.323   4.318  0.6279 -0.1927  1.1681
   24SOL    HW2  393   4.478   1.239   4.242  0.9650  0.4656 -0.0995
   25SOL     OW  394   4.797   4.379   0.819 -0.3058 -0.0817 -0.5578
   25SOL    HW1  395   4.805   4.312   0.893  0.2164 -1.0042 -1.4140
   25SOL    HW2  396   4.834   4.339   0.735 -1.3472  0.7581 -1.4372
   26SOL     OW  397   1.761   4.727   4.091 -0.2285 -0.2710 -0.0702
   26SOL    HW1  398   1.815   4.732   4.175  1.8640 -0.3200 -1.3467
   26SOL    HW2  399   1.680   4.786   4.099 -0.0698 -0.2651  1.9388
   27SOL     OW  400   5.467   3.481   5.246  0.6705  0.2553 -0.3808
   27SOL    HW1  401   5.388   3.539   5.266 -0.3640 -0.6932 -1.5635
   27SOL    HW2  402   5.533   3.533   5.192  2.0466  1.8234  2.5304
   28SOL     OW  403   3.614   1.047   0.484  0.4070 -0.0587  0.5498
   28SOL    HW1  404   3.588   1.065   0.579  0.6611  0.0051  0.6060
   28SOL    HW2  405   3.531   1.033   0.430  0.2938 -0.9430  0.9469
   29SOL     OW  406   1.556   1.365   1.088  0.2059 -0.0299 -0.1639
   29SOL    HW1  407   1.574   1.362   1.186  1.7484  1.8049 -0.3431
   29SOL    HW2  408   1.521   1.455   1.063  0.0029 -0.4104 -1.3379
   30SOL     OW  409   3.739   2.862   0.197  0.2418  0.2431  0.3057
   30SOL    HW1  410   3.759   2.933   0.266 -0.1757  1.0328 -0.3619
   30SOL    HW2  411   3.657   2.811   0.224  0.9875 -0.5145  1.1791
   31SOL     OW  412   3.508   5.457   3.537 -0.0765  0.2558 -0.8908
   31SOL    HW1  413   3.601   5.493   3.545 -0.1514  0.2740 -0.0591
   31SOL    HW2  414   3.445   5.532   3.520 -0.1592  0.4624  0.2794
   32SOL     OW  415   0.730   2.561   0.801 -0.1710  0.3153  0.5678
   32SOL    HW1  416   0.815   2.513   0.821  0.0262  0.3739 -0.1239
   32SOL    HW2  417   0.724   2.581   0.703 -1.4783 -0.6387  0.4178
   33SOL     OW  418   1.339   3.178   1.645  0.2659  0.0471 -0.5055
   33SOL    HW1  419   1.271   3.106   1.635  0.6018 -0.6561  1.7706
   33SOL    HW2  420   1.297   3.267   1.628 -0.8952 -0.4642 -0.3744
   34SOL     OW  421   0.379   4.468   3.033 -0.3416 -0.4234  0.0399
   34SOL    HW1  422   0.416   4.387   2.987  4.4628  2.1815 -1.4271
   34SOL    HW2  423   0.420   4.476   3.124 -0.9700  0.2173  0.2713
   35SOL     OW  424   5.430   1.416   0.788 -0.3191  0.0789 -0.1630
   35SOL    HW1  425   5.439   1.445   0.884 -1.5196  0.6483 -0.1964
   35SOL    HW2  426   5.515   1.375   0.757 -0.0744 -0.5661  1.3019
   36SOL     OW  427   2.236   0.289   3.825 -0.4945  0.0421  0.1147
   36SOL    HW1  428   2.217   0.256   3.917 -0.2647 -1.2889 -0.2968
   36SOL    HW2  429   2.335   0.305   3.815 -0.2768 -1.5173 -0.4209
   37SOL     OW  430   4.255   1.841   3.563 -0.5213 -0.0148 -0.2928
   37SOL    HW1  431   4.268   1.800   3.653 -0.8858 -1.7851 -1.0134
   37SOL    HW2  432   4.342   1.846   3.516 -0.5959 -0.7699 -0.5232
   38SOL     OW  433   0.532   1.024   2.016  0.0364 -0.1893  0.0398
   38SOL    HW1  434   0.464   1.008   1.944  1.3792 -2.0935 -0.8744
   38SOL    HW2  435   0.503   0.977   2.100 -0.3914  0.1217  0.0745
   39SOL     OW  436   0.255   5.010   3.087  0.4997  0.0732 -0.4280
   39SOL    HW1  437   0.324   4.948   3.124  0.0102 -1.5395 -2.0646
   39SOL    HW2  438   0.283   5.104   3.102  2.7615 -0.5288 -0.5177
   40SOL     OW  439   2.186   0.366   5.051 -0.1585 -0.0650  0.1359
   40SOL    HW1  440   2.194   0.278   5.097 -1.1657  0.8995  2.2925
   40SOL    HW2  441   2.104   0.413   5.083  0.3658  1.6885 -0.9443
   41SOL     OW  442   0.475   2.948   5.317  0.3999 -0.5689 -0.1161
   41SOL    HW1  443   0.470   2.864   5.263 -0.2920 -0.9330  0.5089
   41SOL    HW2  444   0.534   2.933   5.396 -1.6776 -1.2787  1.3827
   42SOL     OW  445   1.237   4.139   5.059  0.2535 -0.0228  0.3634
   42SOL    HW1  446   1.178   4.220   5.057  2.0319  1.4078  1.7928
   42SOL    HW2  447   1.308   4.152   5.128  1.6110 -2.1171 -0.5534
   43SOL     OW  448   0.968   1.586   1.317  0.0133  0.0033 -0.7664
   43SOL    HW1  449   1.013   1.497   1.301 -1.7461 -1.2270  0.7289
   43SOL    HW2  450   0.925   1.616   1.232  0.8622 -0.4105 -1.3684
   44SOL     OW  451   3.729   4.235   2.728 -0.1528  0.5504  0.5505
   44SOL    HW1  452   3.732   4.330   2.759  0.0763  0.1533  1.8079
   44SOL    HW2  453   3.820   4.208   2.695 -0.5470  1.1593 -1.0812
   45SOL     OW  454   2.508   5.536   3.556 -0.0218 -0.4136  0.4530
   45SOL    HW1  455   2.504   5.467   3.628  0.2138 -0.3856  0.4937
   45SOL    HW2  456   2.436   5.517   3.488  0.7719 -1.3839 -0.1503
   46SOL     OW  457   2.154   1.101   1.875 -0.0275 -0.3806 -0.1411
   46SOL    HW1  458   2.128   1.005   1.890 -1.7748 -0.0040 -0.6126
   46SOL    HW2  459   2.204   1.108   1.788 -0.9280 -0.7044 -0.6950
   47SOL     OW  460   4.345   2.437   2.339  0.0624 -0.5416 -0.3456
   47SOL    HW1  461   4.333   2.521   2.286 -1.1393 -0.0064  0.7205
   47SOL    HW2  462   4.403   2.374   2.288  1.6407  1.2179 -0.8500
   48SOL     OW  463   1.120   4.629   0.947 -0.8186 -0.2100  0.1619
   48SOL    HW1  464   1.057   4.562   0.984 -2.9300  1.7443  0.3305
   48SOL    HW2  465   1.070   4.694   0.890  1.1126  1.2183 -0.0105
   49SOL     OW  466   2.008   4.875   1.404  0.4607 -0.0489 -0.2192
   49SOL    HW1  467   2.017   4.852   1.307 -3.0378 -0.5154 -0.5740
   49SOL    HW2  468   1.994   4.974   1.414  3.4068  0.4103  0.1530
   50SOL     OW  469   3.719   1.397   4.804 -0.2480  0.6581 -0.1591
   50SOL    HW1  470   3.660   1.441   4.736  0.3280  0.4480 -0.8035
   50SOL    HW2  471   3.664   1.370   4.883 -1.4998 -1.6107 -1.6933
   51SOL     OW  472   2.737   4.609   2.585 -0.3148 -0.2780 -0.2765
   51SOL    HW1  473   2.746   4.533   2.521 -2.8263 -1.7662  1.0100
   51SOL    HW2  474   2.676   4.678   2.546  0.6438  0.3066 -0.7572
   52SOL     OW  475   4.129   3.498   4.588 -0.3818 -0.4244 -0.2479
   52SOL    HW1  476   4.101   3.590   4.614  0.4746 -0.1016 -0.4546
   52SOL    HW2  477   4.093   3.432   4.655  0.5237  0.2375  0.9215
   53SOL     OW  478   1.121   2.481   0.653 -0.4272 -0.0321 -0.2086
   53SOL    HW1  479   1.056   2.469   0.728 -0.1622 -2.0797 -0.2540
   53SOL    HW2  480   1.212   2.452   0.683 -0.0319  0.4630 -0.9015
   54SOL     OW  481   2.303   4.557   2.078 -0.2802  0.1335 -0.1349
   54SOL    HW1  482   2.204   4.561   2.064 -0.2819 -0.7827 -0.4420
   54SOL    HW2  483   2.330   4.463   2.100  0.6145  0.2270 -0.7877
   55SOL     OW  484   2.123   1.145   1.582  0.2850  0.5712  0.0313
   55SOL    HW1  485   2.047   1.152   1.647  0.5576  1.7550  0.2376
   55SOL    HW2  486   2.154   1.050   1.578  0.0732  0.4139  1.4279
   56SOL     OW  487   1.876   1.009   2.733  0.9275  0.3502  0.2339
   56SOL    HW1  488   1.894   1.019   2.635  1.7636  0.5024  0.3964
   56SOL    HW2  489   1.819   0.928   2.748  2.1441 -0.6291 -0.2548
   57SOL     OW  490   0.159   0.741   0.584  0.5384  0.3398  0.4518
   57SOL    HW1  491   0.146   0.829   0.537 -1.2184 -0.0701  0.0915
   57SOL    HW2  492   0.156   0.755   0.682 -0.6096  0.5904  0.3925
   58SOL     OW  493   0.035   2.610   5.425 -0.0419 -0.2664 -0.7154
   58SOL    HW1  494   0.076   2.621   5.515 -1.9038  1.3520  0.0050
   58SOL    HW2  495  -0.031   2.535   5.427  0.1873 -0.4695 -0.8261
   59SOL     OW  496   1.726   4.557   5.099  0.2484  0.5399  0.0794
   59SOL    HW1  497   1.778   4.473   5.103 -0.1126  0.1395 -2.2256
   59SOL    HW2  498   1.629   4.536   5.089  0.0041  1.2689  0.7285
   60SOL     OW  499   0.320   4.109   0.652 -0.1971  0.4214  0.1900
   60SOL    HW1  500   0.335   4.012   0.669 -1.0786  0.3107  0.3718
   60SOL    HW2  501   0.329   4.128   0.554  1.1240  0.3770  0.2883
   61SOL     OW  502   4.108   0.707   1.769 -0.0413 -0.3949  0.3743
   61SOL    HW1  503   4.133   0.744   1.858  1.5899  0.5803 -0.4550
   61SOL    HW2  504   4.189   0.696   1.713 -0.7839 -2.8553 -0.3519
   62SOL     OW  505   2.086   1.232   2.429  0.3099  0.6902 -0.1360
   62SOL    HW1  506   2.169   1.210   2.479  0.6149  0.6524 -0.6597
   62SOL    HW2  507   2.107   1.293   2.353  0.2496 -1.1585 -1.7054
   63SOL     OW  508   3.187   1.904   2.024 -0.0056  0.1225  0.2924
   63SOL    HW1  509   3.268   1.946   1.983 -1.0191  1.0621 -0.8007
   63SOL    HW2  510   3.163   1.821   1.973 -0.8973  0.9523 -0.6953
   64SOL     OW  511   3.813   3.998   1.599  0.2434 -0.0012 -0.5094
   64SOL    HW1  512   3.823   3.925   1.531 -0.8124  1.4263 -2.3000
   64SOL    HW2  513   3.743   3.972   1.665  0.5353 -0.9769 -0.5590
   65SOL     OW  514   2.224   0.370   1.480 -0.0851 -0.1152  0.1845
   65SOL    HW1  515   2.150   0.392   1.543  0.0646  0.5043  0.1536
   65SOL    HW2  516   2.205   0.283   1.435 -0.5000 -0.2527  0.6150
   66SOL     OW  517   0.826   4.529   3.917 -0.4029 -0.4955  0.4527
   66SOL    HW1  518   0.821   4.628   3.935 -0.2398 -0.6037  1.1130
   66SOL    HW2  519   0.745   4.484   3.954 -1.1655 -0.4508 -1.0541
   67SOL     OW  520   4.581   1.841   4.902 -0.1398 -0.2512 -0.1330
   67SOL    HW1  521   4.604   1.892   4.819  0.4451 -0.4798 -0.1144
   67SOL    HW2  522   4.664   1.803   4.942 -0.3480  0.3085  0.8618
   68SOL     OW  523   2.985   1.308   2.202  0.4284 -0.1906  0.3327
   68SOL    HW1  524   3.058   1.356   2.250  2.1065 -1.7251 -0.5915
   68SOL    HW2  525   2.954   1.230   2.257  1.3011 -1.0572 -0.3815
   69SOL     OW  526   2.114   3.275   2.903  0.5273  0.0530  0.0214
   69SOL    HW1  527   2.070   3.211   2.839  0.8330  0.9000 -1.0504
   69SOL    HW2  528   2.081   3.367   2.885  0.7045  0.3188  1.0276
   70SOL     OW  529   4.336   3.224   0.613  0.0358 -0.4239 -0.2505
   70SOL    HW1  530   4.242   3.253   0.593  0.4423  0.9257 -0.3006
   70SOL    HW2  531   4.349   3.224   0.712  0.9017  2.6906 -0.2531
   71SOL     OW  532   3.193   0.654   2.307  0.4919 -0.0251 -0.3616
   71SOL    HW1  533   3.261   0.657   2.233  0.8894 -0.9033 -0.0601
   71SOL    HW2  534   3.237   0.679   2.393 -0.4406  3.0699 -0.6725
   72SOL     OW  535   0.275   3.883   2.773  0.0642 -0.3105  0.0146
   72SOL    HW1  536   0.264   3.949   2.698  0.2270 -1.7219 -1.2929
   72SOL    HW2  537   0.198   3.893   2.836 -1.8105 -1.1388 -1.9880
   73SOL     OW  538   0.996   3.206   4.713 -0.3399  0.3128 -0.6018
   73SOL    HW1  539   1.000   3.277   4.642 -0.3869 -0.1306 -1.0578
   73SOL    HW2  540   0.979   3.117   4.670 -0.7792  0.0955  0.0069
   74SOL     OW  541   4.922   2.585   0.607  0.0781  0.3917 -0.0385
   74SOL    HW1  542   4.837   2.634   0.625 -0.5500 -0.7686  0.2499
   74SOL    HW2  543   4.919   2.547   0.515 -0.7181 -1.5428  0.7265
   75SOL     OW  544   5.200   1.951   5.346  0.3866  0.2945  0.2090
   75SOL    HW1  545   5.125   1.923   5.406  1.5306 -0.2332  1.4784
   75SOL    HW2  546   5.282   1.899   5.370  1.2956  1.2196 -0.7771
   76SOL     OW  547   5.085   3.708   3.764  0.5490  0.6546 -0.1238
   76SOL    HW1  548   5.094   3.713   3.665 -2.1193  0.4026 -0.4605
   76SOL    HW2  549   5.029   3.784   3.796  0.0358 -0.1477  0.9581
   77SOL     OW  550   5.144   2.313   2.862 -0.1519  0.3440 -0.2741
   77SOL    HW1  551   5.143   2.279   2.768 -2.6839  1.2343 -0.6521
   77SOL    HW2  552   5.120   2.239   2.924  0.1291  0.0906 -0.4614
   78SOL     OW  553   4.027   3.348   4.784  0.0417 -0.4298 -0.6827
   78SOL    HW1  554   3.969   3.392   4.853  0.4789 -1.6345  0.4954
   78SOL    HW2  555   4.053   3.256   4.816 -0.4360 -1.3766 -2.8144
   79SOL     OW  556   2.759   4.294   3.700 -0.2132  0.1597  0.3678
   79SOL    HW1  557   2.701   4.282   3.619  0.9173  1.1085 -0.6217
   79SOL    HW2  558   2.763   4.390   3.725 -1.4169 -0.2440  2.2539
   80SOL     OW  559   5.325   1.269   4.123  0.0174  0.0267 -0.1117
   80SOL    HW1  560   5.244   1.235   4.171  0.8945 -0.9692  0.7038
   80SOL    HW2  561   5.334   1.367   4.140 -0.5595 -0.0143  0.4725
   81SOL     OW  562   0.351   4.837   3.861 -0.2643 -0.0573 -0.2538
   81SOL    HW1  563   0.361   4.839   3.762 -0.6844 -0.7418 -0.3148
   81SOL    HW2  564   0.259   4.807   3.884 -0.5545  1.2222  0.3364
   82SOL     OW  565   0.379   2.380   3.634 -0.3460 -0.3062 -0.4671
   82SOL    HW1  566   0.428   2.457   3.593  1.2420 -1.4269 -0.7742
   82SOL    HW2  567   0.341   2.322   3.562  1.4133 -1.6268 -0.3935
   83SOL     OW  568   0.504   3.555   3.783 -0.0854 -0.3481 -0.2860
   83SOL    HW1  569   0.528   3.472   3.733 -0.9105 -1.4130  1.0146
   83SOL    HW2  570   0.407   3.576   3.769 -0.4069 -0.8363  1.0575
   84SOL     OW  571   4.984   3.050   0.751 -0.2141 -0.2775 -0.4058
   84SOL    HW1  572   4.995   3.121   0.821  0.8640 -0.5868 -0.2419
   84SOL    HW2  573   5.065   3.048   0.693 -0.2471 -1.3539 -0.4295
   85SOL     OW  574   4.725   4.792   3.989 -0.0793 -0.1947 -0.0498
   85SOL    HW1  575   4.646   4.793   4.050 -2.5740 -0.7041 -3.0079
   85SOL    HW2  576   4.790   4.723   4.021 -1.5011 -0.8232  1.7195
   86SOL     OW  577   5.024   3.778   4.339 -0.0491 -0.2804 -0.4526
   86SOL    HW1  578   4.996   3.788   4.244  0.0641  1.4069 -0.3507
   86SOL    HW2  579   5.120   3.752   4.344  0.4574  1.3740 -0.8424
   87SOL     OW  580   4.106   2.552   4.940  0.1306 -0.2115 -0.0355
   87SOL    HW1  581   4.170   2.483   4.975  0.6494  0.7087  0.9012
   87SOL    HW2  582   4.127   2.641   4.982  0.5154  0.8868 -2.3700
   88SOL     OW  583   4.646   5.294   0.842 -0.0138  0.2529 -0.3536
   88SOL    HW1  584   4.581   5.352   0.794 -1.7930 -0.5158  1.0267
   88SOL    HW2  585   4.673   5.337   0.928 -0.9647 -0.7094  0.4461
   89SOL     OW  586   0.472   1.300   3.479 -0.0112  0.1769 -0.1285
   89SOL    HW1  587   0.570   1.278   3.472  0.0073 -0.5750  1.8282
   89SOL    HW2  588   0.446   1.361   3.404  1.8939  0.1833 -0.8396
   90SOL     OW  589   4.835   2.399   3.846 -0.6419 -0.6698 -0.1714
   90SOL    HW1  590   4.765   2.411   3.917 -1.2859 -0.6341 -0.7964
   90SOL    HW2  591   4.904   2.335   3.879 -0.4145  0.0701  0.8472
   91SOL     OW  592   5.349   5.319   2.100 -0.1971  0.2218  0.0692
   91SOL    HW1  593   5.430   5.339   2.045  0.4187  1.5318  1.3682
   91SOL    HW2  594   5.361   5.232   2.148 -0.5327 -0.6813 -1.4327
   92SOL     OW  595   5.258   0.713   3.116 -0.2349 -0.4908 -0.0040
   92SOL    HW1  596   5.178   0.698   3.174 -0.6575 -1.2657 -0.7652
   92SOL    HW2  597   5.341   0.684   3.164 -0.4213  0.1860  0.7335
   93SOL     OW  598   3.084   2.297   3.087  0.0551  0.4533 -0.7170
   93SOL    HW1  599   3.161   2.360   3.074  0.0136  0.5169 -0.6463
   93SOL    HW2  600   3.004   2.347   3.118  0.7075  0.0304  1.8518
   94SOL     OW  601   0.993   2.783   1.046  0.2387 -0.0069 -1.0094
   94SOL    HW1  602   0.903   2.745   1.026  1.2265 -2.4296 -1.1194
   94SOL    HW2  603   1.046   2.789   0.962  0.9819 -0.8180 -0.6066
   95SOL     OW  604   0.439   4.050   4.877  0.0609  0.4901 -0.2258
   95SOL    HW1  605   0.393   4.061   4.965  0.9653 -0.2599  0.3549
   95SOL    HW2  606   0.514   3.985   4.886  0.2221  0.4664 -1.5374
   96SOL     OW  607   4.269   1.067   5.323  0.3112  0.0604 -0.4014
   96SOL    HW1  608   4.171   1.053   5.310  0.1083 -0.0659  1.1209
   96SOL    HW2  609   4.317   0.980   5.308  0.0669 -0.1418 -0.0040
   97SOL     OW  610   1.770   1.294   5.340  0.3759  0.5221 -0.1177
   97SOL    HW1  611   1.718   1.374   5.312 -0.5998 -0.0520 -0.0049
   97SOL    HW2  612   1.868   1.313   5.334  0.1532  1.8082  0.2051
   98SOL     OW  613   1.703   4.275   4.052  0.6899 -0.2034 -0.4592
   98SOL    HW1  614   1.626   4.303   3.995  0.7583 -0.6240 -0.7717
   98SOL    HW2  615   1.717   4.176   4.042  2.6072  0.1695 -2.1081
   99SOL     OW  616   2.630   0.791   3.531  0.6397 -0.4537 -0.1573
   99SOL    HW1  617   2.655   0.867   3.590  0.7669  0.3441 -1.2160
   99SOL    HW2  618   2.537   0.761   3.553 -0.6495  2.0752 -1.7737
  100SOL     OW  619   4.405   2.727   0.535 -0.1224 -0.2301 -0.7119
  100SOL    HW1  620   4.393   2.825   0.519  2.0989  0.1017 -0.7017
  100SOL    HW2  621   4.352   2.699   0.615  2.3848  1.9246  1.9089
  101SOL     OW  622   2.309   0.960   1.258 -0.6688 -0.4442 -0.1534
  101SOL    HW1  623   2.409   0.948   1.258 -0.6495 -0.3666  0.6122
  101SOL    HW2  624   2.287   1.055   1.279 -0.9106 -0.6857  0.7200
  102SOL     OW  625   3.360   4.075   4.027 -0.0075  0.6003 -0.4054
  102SOL    HW1  626   3.443   4.039   3.983  2.2660  1.7048  2.5856
  102SOL    HW2  627   3.327   4.155   3.976 -0.1084 -0.6598 -2.4057
  103SOL     OW  628   2.388   0.422   1.702  0.4564  0.3085 -0.1503
  103SOL    HW1  629   2.317   0.400   1.768  0.1442  1.6689 -0.0163
  103SOL    HW2  630   2.348   0.425   1.610  0.3901  0.8269 -0.1051
  104SOL     OW  631   3.844   3.789   0.812  0.0785 -0.0908  0.2621
  104SOL    HW1  632   3.853   3.766   0.909  0.0660 -0.9434  0.0748
  104SOL    HW2  633   3.863   3.886   0.798 -0.2083  0.1004  1.1544
  105SOL     OW  634   2.180   3.164   0.608  0.5003  0.1186  0.2690
  105SOL    HW1  635   2.145   3.164   0.515 -0.6903  3.6110  0.5663
  105SOL    HW2  636   2.270   3.208   0.610  0.4669  0.1751  0.7670
  106SOL     OW  637   3.217   3.193   2.416  0.0708  0.1458  0.0694
  106SOL    HW1  638   3.142   3.184   2.351 -1.3483 -0.3066  1.6907
  106SOL    HW2  639   3.265   3.279   2.400 -0.1638 -0.0130 -1.6260
  107SOL     OW  640   2.318   3.641   3.857 -0.3464 -0.3395  0.2920
  107SOL    HW1  641   2.286   3.556   3.815 -1.8343  0.5630 -0.5041
  107SOL    HW2  642   2.253   3.714   3.837  2.2360  1.6569 -1.4352
  108SOL     OW  643   2.119   1.257   3.588 -0.1636 -0.1779  0.2034
  108SOL    HW1  644   2.055   1.225   3.518  0.1572  1.2314 -0.7671
  108SOL    HW2  645   2.210   1.219   3.570 -0.1622 -0.1093  0.0654
  109SOL     OW  646   1.836   3.969   2.266  0.2601 -0.0482 -0.4667
  109SOL    HW1  647   1.742   3.983   2.295  1.0911 -0.3857  2.7891
  109SOL    HW2  648   1.853   3.872   2.248 -0.1159  0.0820 -1.5652
  110SOL     OW  649   4.903   3.196   3.325  0.2129 -0.1258  0.2339
  110SOL    HW1  650   4.967   3.236   3.390 -0.5066  0.4972  0.5613
  110SOL    HW2  651   4.840   3.266   3.292  0.7561 -0.3414 -1.3916
  111SOL     OW  652   5.007   4.488   1.008 -0.6371 -0.1869 -0.6555
  111SOL    HW1  653   4.931   4.492   0.943 -2.2765  0.4107  1.1947
  111SOL    HW2  654   4.998   4.564   1.073  1.6043 -0.0920 -0.4083
  112SOL     OW  655   3.238   2.398   4.516  0.5614  0.1920  0.1807
  112SOL    HW1  656   3.218   2.457   4.438 -1.6825 -1.1421 -0.3362
  112SOL    HW2  657   3.211   2.304   4.494 -2.0194  0.0823  3.1833
  113SOL     OW  658   5.274   1.719   0.097 -0.3282  0.1466 -0.2977
  113SOL    HW1  659   5.281   1.706   0.196 -1.8512  0.3036 -0.1541
  113SOL    HW2  660   5.281   1.631   0.051  0.1177  0.0456 -0.0418
  114SOL     OW  661   2.849   1.527   0.907 -0.0755  0.3243  0.4371
  114SOL    HW1  662   2.826   1.475   0.824  0.8768  0.2855  0.1867
  114SOL    HW2  663   2.873   1.463   0.980  1.3795  0.3732  0.0470
  115SOL     OW  664   5.301   2.050   4.680  0.4751 -0.8079  0.4112
  115SOL    HW1  665   5.345   2.109   4.748  0.2848 -0.6412  0.3899
  115SOL    HW2  666   5.352   1.964   4.673  1.9426  0.1285 -1.0145
  116SOL     OW  667   3.436   0.932   1.030 -0.2778 -0.4123  0.1567
  116SOL    HW1  668   3.502   0.967   1.096  0.0226 -2.7885  1.2286
  116SOL    HW2  669   3.362   0.886   1.079 -2.1114  1.0726 -1.0777
  117SOL     OW  670   5.531   0.848   3.471 -0.7484 -0.1913  0.3091
  117SOL    HW1  671   5.563   0.753   3.482  1.0479  0.3018 -0.2326
  117SOL    HW2  672   5.432   0.849   3.461 -0.8269 -1.9955  0.6051
  118SOL     OW  673   2.285   0.304   0.257 -0.6480 -0.3239 -0.0723
  118SOL    HW1  674   2.313   0.282   0.164  0.8564 -0.0517  0.2898
  118SOL    HW2  675   2.364   0.300   0.317 -1.8511 -2.0317  1.5119
  119SOL     OW  676   5.385   4.737   2.453  0.0210 -0.1866  0.1489
  119SOL    HW1  677   5.400   4.829   2.491  1.1819 -0.0839 -0.5139
  119SOL    HW2  678   5.382   4.670   2.527  1.9006  0.0491  0.4899
  120SOL     OW  679   3.688   3.409   0.645  0.0084  0.1685  0.0832
  120SOL    HW1  680   3.699   3.316   0.680 -1.8978 -0.4015 -0.6706
  120SOL    HW2  681   3.604   3.414   0.591  0.8764  1.9578 -1.1993
  121SOL     OW  682   4.619   3.526   0.528 -0.0361  0.2807 -0.7856
  121SOL    HW1  683   4.620   3.427   0.540  2.4659  0.2606 -0.6635
  121SOL    HW2  684   4.713   3.561   0.526 -0.8522  2.7481 -0.1646
  122SOL     OW  685   3.699   2.610   2.037 -0.3049 -0.0118  0.0751
  122SOL    HW1  686   3.686   2.532   2.098 -0.3934 -0.7079 -0.8265
  122SOL    HW2  687   3.611   2.636   1.998 -0.3583  0.8621  0.7466
  123SOL     OW  688   4.311   3.812   3.919 -0.4387  0.2427 -0.1347
  123SOL    HW1  689   4.232   3.842   3.972 -0.3867 -1.0604  0.7455
  123SOL    HW2  690   4.352   3.732   3.964  0.9313  0.4456 -0.9769
  124SOL     OW  691   0.519   2.678   3.840  0.5011  0.5549 -0.2244
  124SOL    HW1  692   0.549   2.639   3.753 -1.0492  0.7236 -0.8635
  124SOL    HW2  693   0.529   2.777   3.837  2.0724  0.4517  0.4677
  125SOL     OW  694   3.523   2.102   4.354 -0.7060  0.2646 -0.0252
  125SOL    HW1  695   3.483   2.073   4.441 -0.7358  1.4932  0.3942
  125SOL    HW2  696   3.617   2.069   4.348 -0.2079  1.3763  1.1505
  126SOL     OW  697   1.440   1.869   5.435  0.0984  0.2586 -0.0624
  126SOL    HW1  698   1.387   1.954   5.441  0.4062  0.3990  1.0311
  126SOL    HW2  699   1.379   1.791   5.438 -0.0493  0.3889  2.3829
  127SOL     OW  700   2.599   0.270   1.458 -0.2678 -0.4373 -0.1550
  127SOL    HW1  701   2.615   0.237   1.551 -0.4662 -0.9704 -0.3093
  127SOL    HW2  702   2.567   0.195   1.401 -2.5717  0.4062 -0.0609
  128SOL     OW  703   2.949   0.621   2.365  0.0730 -0.0065 -0.1779
  128SOL    HW1  704   3.044   0.648   2.352  0.1118 -0.0640 -0.0077
  128SOL    HW2  705   2.923   0.632   2.460  0.1156 -0.6380 -0.0853
  129SOL     OW  706   0.829   1.331   1.184  0.2468  0.1380  0.0918
  129SOL    HW1  707   0.792   1.261   1.123 -1.1201  1.1559 -0.2857
  129SOL    HW2  708   0.925   1.348   1.161  0.6791 -1.7170  0.3273
  130SOL     OW  709   4.369   5.311   1.422  0.0054  0.5031 -0.2310
  130SOL    HW1  710   4.329   5.322   1.331  1.3189  3.9187 -0.5610
  130SOL    HW2  711   4.419   5.225   1.426  1.3880  0.9956 -3.4087
  131SOL     OW  712   2.364   5.154   4.271  0.4296 -0.4692  0.2423
  131SOL    HW1  713   2.291   5.092   4.243  1.8384 -1.5207 -1.3404
  131SOL    HW2  714   2.445   5.101   4.297  1.4493  0.6690 -0.4645
  132SOL     OW  715   4.119   3.426   3.291  0.6606  0.1882 -0.3048
  132SOL    HW1  716   4.190   3.360   3.265  0.8675 -0.1323  1.0149
  132SOL    HW2  717   4.089   3.476   3.209  0.0983 -1.9015 -1.4404
  133SOL     OW  718   0.226   4.661   3.286  0.0249  0.2694  0.5775
  133SOL    HW1  719   0.240   4.583   3.347  1.1048 -0.5248 -0.6285
  133SOL    HW2  720   0.314   4.704   3.266 -0.4820  1.3692  0.6714
  134SOL     OW  721   4.091   1.754   0.899  0.4289 -0.4433  0.7460
  134SOL    HW1  722   4.127   1.847   0.894  0.9946 -0.6599  0.7285
  134SOL    HW2  723   4.109   1.716   0.990 -2.3177  0.4625  1.7943
  135SOL     OW  724   5.432   5.353   4.395  0.6599  0.2233  0.0326
  135SOL    HW1  725   5.405   5.340   4.300 -0.2404 -0.5520  0.3807
  135SOL    HW2  726   5.409   5.272   4.448  0.0709  1.0900  1.1458
  136SOL     OW  727   0.923   0.846   4.427  0.0094  0.0183  0.0698
  136SOL    HW1  728   0.955   0.841   4.333 -0.3891 -2.1041  0.0103
  136SOL    HW2  729   0.975   0.916   4.476  2.8393 -1.3484 -0.7679
  137SOL     OW  730   5.161   1.231   2.732 -0.3665  0.2850  0.2623
  137SOL    HW1  731   5.090   1.302   2.721 -0.4577 -0.0178 -1.3136
  137SOL    HW2  732   5.118   1.146   2.762 -0.4607  0.5004  0.7460
  138SOL     OW  733   4.734   3.579   3.452 -0.6829  0.2124 -0.1485
  138SOL    HW1  734   4.750   3.499   3.394 -0.1369  0.7654 -0.7658
  138SOL    HW2  735   4.802   3.649   3.432  0.5085 -0.1605  2.2359
  139SOL     OW  736   4.200   5.085   0.697 -0.7443  0.5681  0.1915
  139SOL    HW1  737   4.145   5.104   0.778 -0.5415  0.8927  0.2503
  139SOL    HW2  738   4.248   5.167   0.668 -0.1338  0.2338  0.2485
  140SOL     OW  739   0.323   5.197   0.376  0.1556  0.0244 -0.7179
  140SOL    HW1  740   0.273   5.278   0.345  0.3247  1.1436  1.7255
  140SOL    HW2  741   0.408   5.188   0.323  1.0652  2.5674  0.1575
  141SOL     OW  742   3.731   5.352   0.136  0.1600 -0.0216  0.1307
  141SOL    HW1  743   3.741   5.372   0.233  0.4642  0.7511 -0.0548
  141SOL    HW2  744   3.640   5.381   0.106  0.2794  0.2870  0.0595
  142SOL     OW  745   3.475   4.637   1.373 -0.5228 -0.0232  0.4457
  142SOL    HW1  746   3.539   4.644   1.450 -2.4352 -0.9461  2.2167
  142SOL    HW2  747   3.479   4.545   1.334  0.7649  0.5700 -0.9372
  143SOL     OW  748   0.217   2.031   3.050 -0.1860 -0.1043  0.4177
  143SOL    HW1  749   0.285   2.017   3.122 -0.6135 -1.5848  0.5510
  143SOL    HW2  750   0.131   2.060   3.091 -0.8416 -2.2865  0.6874
  144SOL     OW  751   1.744   0.723   0.830 -0.6733 -0.0459 -0.5760
  144SOL    HW1  752   1.750   0.627   0.857 -1.9488  0.3664  1.3305
  144SOL    HW2  753   1.817   0.775   0.874 -1.3508  0.2249  0.2571
  145SOL     OW  754   1.345   1.976   4.867 -0.6876  0.2668 -0.2176
  145SOL    HW1  755   1.290   1.892   4.866 -0.2216 -0.1518  2.3208
  145SOL    HW2  756   1.331   2.026   4.781 -3.5787 -0.7332 -0.4525
  146SOL     OW  757   3.780   1.994   4.372 -0.2821  0.6956 -0.6385
  146SOL    HW1  758   3.847   2.056   4.332 -0.5298  0.8492 -0.8174
  146SOL    HW2  759   3.811   1.965   4.462  1.3526 -1.3640 -1.7832
  147SOL     OW  760   1.964   1.915   3.239  0.2350  0.1536 -0.1495
  147SOL    HW1  761   1.993   1.989   3.301  0.6452 -0.6403  0.6363
  147SOL    HW2  762   1.904   1.852   3.289 -2.0694  1.2136 -1.4655
  148SOL     OW  763   2.048   0.489   1.667 -0.1679  0.2410  0.2285
  148SOL    HW1  764   2.030   0.584   1.642 -0.1777  0.0363 -0.5811
  148SOL    HW2  765   1.962   0.444   1.690 -0.0618  0.6722  1.5624
  149SOL     OW  766   1.879   0.538   3.556 -0.3783 -0.5648 -0.5490
  149SOL    HW1  767   1.856   0.470   3.625  0.9986  0.0952  0.5923
  149SOL    HW2  768   1.815   0.614   3.561 -0.8862 -0.9766 -0.6891
  150SOL     OW  769   1.686   3.920   5.362 -0.0284 -0.3128 -0.3714
  150SOL    HW1  770   1.686   3.938   5.264 -1.6355 -1.8957 -0.7191
  150SOL    HW2  771   1.737   3.836   5.380 -0.0577 -0.2350  0.0963
  151SOL     OW  772   4.877   1.965   0.220  0.0099  0.1855  0.2348
  151SOL    HW1  773   4.817   1.892   0.252  0.8291 -0.0988  1.1668
  151SOL    HW2  774   4.837   2.054   0.243 -0.0609 -0.0023  0.8452
  152SOL     OW  775   2.241   2.471   3.498 -0.7647 -0.0541 -0.3839
  152SOL    HW1  776   2.262   2.374   3.491  0.6871  0.1315  0.7685
  152SOL    HW2  777   2.317   2.524   3.460 -2.0684  0.6618 -2.1535
  153SOL     OW  778   3.003   2.654   4.111 -0.4738  0.8577 -0.1831
  153SOL    HW1  779   3.011   2.753   4.124 -0.2603  0.6358  1.7533
  153SOL    HW2  780   2.915   2.623   4.149  0.2788  0.0785  0.9816
  154SOL     OW  781   1.997   0.001   2.468 -0.2805 -0.2234  0.0273
  154SOL    HW1  782   1.906   0.042   2.465 -0.0522  0.3011 -2.6849
  154SOL    HW2  783   2.065   0.073   2.480 -0.0959 -0.2696 -0.7033
  155SOL     OW  784   0.751   1.421   4.312  0.0612 -0.0919  0.0115
  155SOL    HW1  785   0.704   1.334   4.299 -3.9652  1.9142 -0.3270
  155SOL    HW2  786   0.772   1.461   4.223  0.8267 -0.1477  0.1601
  156SOL     OW  787   4.172   1.411   1.077  0.2058  0.0032  0.1181
  156SOL    HW1  788   4.143   1.501   1.108  1.0718  0.1017  0.7104
  156SOL    HW2  789   4.148   1.342   1.146 -2.3226 -0.5803 -1.2435
  157SOL     OW  790   4.944   3.734   1.000 -0.3896 -0.5628  0.5338
  157SOL    HW1  791   4.850   3.731   0.966 -0.0794  0.7181 -0.5537
  157SOL    HW2  792   4.947   3.788   1.084 -0.6472 -0.6662  0.6082
  158SOL     OW  793   3.865   3.916   2.516 -0.0883  0.0450 -0.0809
  158SOL    HW1  794   3.849   3.919   2.418  0.1051 -1.2735 -0.1662
  158SOL    HW2  795   3.868   4.010   2.552 -2.3626  0.5102 -0.9507
  159SOL     OW  796   4.386   1.181   0.030 -0.0113  0.7904 -0.1992
  159SOL    HW1  797   4.349   1.129   0.108  2.2771 -0.6079  0.0475
  159SOL    HW2  798   4.347   1.146  -0.055 -0.3352  0.3412  0.1317
  160SOL     OW  799   2.263   5.215   0.356  0.1406 -0.1767  0.4903
  160SOL    HW1  800   2.188   5.181   0.411  1.3015  0.0266  2.2730
  160SOL    HW2  801   2.254   5.314   0.345  0.0332 -0.1836  0.5185
  161SOL     OW  802   2.200   0.104   1.327  0.5787  0.0303 -0.3066
  161SOL    HW1  803   2.172   0.046   1.404  1.0914  1.1720  0.7674
  161SOL    HW2  804   2.119   0.140   1.281  0.2636  0.7445  0.7897
  162SOL     OW  805   2.789   0.189   5.401 -0.6024  0.9184 -0.0670
  162SOL    HW1  806   2.885   0.216   5.390 -0.3101  0.9823  2.2431
  162SOL    HW2  807   2.779   0.132   5.482 -2.4305  0.2914 -0.6787
  163SOL     OW  808   4.533   0.876   0.048  0.2369  0.1861  0.0010
  163SOL    HW1  809   4.612   0.908  -0.004  0.5949  0.0643  0.4645
  163SOL    HW2  810   4.559   0.862   0.144  0.8824 -4.0973 -0.6217
  164SOL     OW  811   0.173   1.963   2.790  0.0812  0.1312  0.5734
  164SOL    HW1  812   0.198   1.994   2.882  0.4793  1.2730  0.0907
  164SOL    HW2  813   0.092   1.904   2.796 -0.5214  1.0294  1.5483
  165SOL     OW  814   3.081   4.564   0.307 -0.4679  0.3882  0.2288
  165SOL    HW1  815   3.031   4.478   0.318 -0.1362  0.1226 -0.2846
  165SOL    HW2  816   3.129   4.585   0.392 -0.1572 -0.1944  0.2015
  166SOL     OW  817   1.133   0.338   3.389  0.7937 -0.4168 -0.7067
  166SOL    HW1  818   1.057   0.387   3.347  0.9041 -0.9362 -1.5322
  166SOL    HW2  819   1.217   0.360   3.341  0.7837 -1.7020 -1.3437
  167SOL     OW  820   4.993   2.848   2.484 -0.3262  0.2434 -0.8867
  167SOL    HW1  821   5.036   2.759   2.500  1.9575  1.4450  0.2629
  167SOL    HW2  822   4.902   2.835   2.445  0.3762 -2.5430 -1.8498
  168SOL     OW  823   0.307   4.144   2.261 -0.2481 -0.4938 -0.1732
  168SOL    HW1  824   0.392   4.196   2.248 -1.2997  1.1004 -0.9712
  168SOL    HW2  825   0.249   4.192   2.327 -1.0298 -0.9160 -0.5488
  169SOL     OW  826   2.455   0.060   2.444  0.0207  0.1936 -0.1372
  169SOL    HW1  827   2.526   0.126   2.417 -0.3259  0.3560 -0.6639
  169SOL    HW2  828   2.385   0.106   2.498 -1.3370  0.7766 -2.2712
  170SOL     OW  829   1.214   5.110   3.708 -0.5179 -0.0556  0.0005
  170SOL    HW1  830   1.150   5.186   3.699 -0.0316  0.4805  0.8950
  170SOL    HW2  831   1.215   5.057   3.623 -1.4073  0.5006 -0.3708
  171SOL     OW  832   1.612   5.294   2.647 -0.0856 -0.4343 -0.1613
  171SOL    HW1  833   1.628   5.392   2.641  3.0695 -0.8098  0.6998
  171SOL    HW2  834   1.544   5.275   2.718 -0.0963  1.0588  0.2548
  172SOL     OW  835   2.470   2.980   4.255  0.4092 -0.2220  0.5622
  172SOL    HW1  836   2.490   3.016   4.164  0.7984 -0.9819  0.3424
  172SOL    HW2  837   2.555   2.966   4.306  0.4893 -2.8150 -0.1336
  173SOL     OW  838   4.118   2.413   5.450  0.5281  0.3824  0.7102
  173SOL    HW1  839   4.025   2.416   5.414  0.2279  1.4501  1.5473
  173SOL    HW2  840   4.161   2.326   5.423 -0.1948  0.4845 -0.9115
  174SOL     OW  841   3.590   3.725   2.057 -0.5234  0.5454 -0.1337
  174SOL    HW1  842   3.587   3.767   2.147 -0.2057  0.0164  0.1245
  174SOL    HW2  843   3.685   3.707   2.031 -0.6161  0.6117 -0.5347
  175SOL     OW  844   1.944   5.325   2.663  0.2269 -0.2400 -0.1163
  175SOL    HW1  845   1.871   5.331   2.731  0.8392 -1.2016  0.6585
  175SOL    HW2  846   1.947   5.409   2.609 -1.5866 -0.2841 -0.3277
  176SOL     OW  847   4.501   2.936   1.795  0.0767  0.6508 -0.7311
  176SOL    HW1  848   4.561   2.993   1.739  0.5197 -0.1531 -1.0925
  176SOL    HW2  849   4.490   2.847   1.752 -1.7540  0.9216 -0.9042
  177SOL     OW  850   0.438   5.211   3.242 -0.3892  0.2804 -0.0130
  177SOL    HW1  851   0.458   5.288   3.182 -0.2245  0.2891  0.0509
  177SOL    HW2  852   0.523   5.159   3.258 -0.7282 -0.6390 -1.0629
  178SOL     OW  853   2.283   2.022   4.792 -0.4423 -0.3955  0.0535
  178SOL    HW1  854   2.253   1.951   4.855 -3.6958 -1.0084 -1.9743
  178SOL    HW2  855   2.374   2.000   4.757 -1.0762 -3.2518 -0.0113
  179SOL     OW  856   4.396   5.336   4.489  0.2553  0.2937  0.7334
  179SOL    HW1  857   4.448   5.419   4.469 -1.5199  1.8697  2.3635
  179SOL    HW2  858   4.343   5.310   4.408  3.3824 -1.3824 -1.0002
  180SOL     OW  859   5.225   2.023   0.512 -0.2463 -0.5203 -0.5741
  180SOL    HW1  860   5.206   2.121   0.499 -0.5111 -0.7170 -1.7643
  180SOL    HW2  861   5.139   1.976   0.535 -0.5066 -0.7732 -1.9795
  181SOL     OW  862   1.384   2.919   1.869 -0.8745 -0.0652  0.3209
  181SOL    HW1  863   1.434   2.995   1.828 -0.5363 -0.9277 -0.9151
  181SOL    HW2  864   1.426   2.895   1.956 -0.6114  0.7666  0.4297
  182SOL     OW  865   3.332   3.149   1.508 -0.2197  0.6020 -0.1538
  182SOL    HW1  866   3.277   3.229   1.482  2.0313  1.5394 -2.4268
  182SOL    HW2  867   3.286   3.066   1.477 -2.2789  0.9804  1.6591
  183SOL     OW  868   4.116   1.585   1.920  0.0260 -0.8347  0.1816
  183SOL    HW1  869   4.094   1.629   2.007  1.3305  0.4509 -0.0905
  183SOL    HW2  870   4.032   1.557   1.874 -0.9212  1.6782  0.2534
  184SOL     OW  871   4.198   5.350   0.044  0.5284 -0.1624  0.8042
  184SOL    HW1  872   4.192   5.450   0.039  1.8084 -0.1093 -0.0610
  184SOL    HW2  873   4.204   5.313  -0.049  0.7778 -1.0008  1.1487
  185SOL     OW  874   4.439   0.123   4.898  0.6107 -0.0398 -0.1313
  185SOL    HW1  875   4.515   0.155   4.956 -2.0065  0.8153  3.1362
  185SOL    HW2  876   4.416   0.029   4.923 -0.7686  0.4548  0.5386
  186SOL     OW  877   1.219   1.677   2.785 -0.1044 -0.6880 -0.3827
  186SOL    HW1  878   1.272   1.762   2.782 -1.3085  0.3820  3.4561
  186SOL    HW2  879   1.150   1.679   2.713  1.0566  0.6872 -1.5464
  187SOL     OW  880   4.281   3.022   2.380 -0.7901  0.2039 -0.1708
  187SOL    HW1  881   4.375   3.034   2.411 -1.0163  1.0793  0.2165
  187SOL    HW2  882   4.241   2.942   2.425 -0.8050  0.8978  1.1075
  188SOL     OW  883   3.395   0.777   0.278  0.3817  0.5612  0.5502
  188SOL    HW1  884   3.387   0.866   0.323  0.0634  1.3953 -1.0935
  188SOL    HW2  885   3.379   0.788   0.180  1.4147 -1.1416  0.1597
  189SOL     OW  886   3.644   3.330   5.256 -0.3162  0.2456  0.1187
  189SOL    HW1  887   3.736   3.350   5.288  0.1837  1.2306 -1.7712
  189SOL    HW2  888   3.648   3.264   5.181 -1.2150 -0.1421  0.3960
  190SOL     OW  889   0.780   2.996   5.049 -0.3817  0.0000  0.3284
  190SOL    HW1  890   0.873   2.990   5.084  0.0323  0.3967 -0.6577
  190SOL    HW2  891   0.753   2.909   5.007 -0.0123  0.2288 -0.4118
  191SOL     OW  892   4.788   4.523   2.018  0.5427 -0.4003  0.1268
  191SOL    HW1  893   4.697   4.531   2.059  1.4090  0.8413  1.9418
  191SOL    HW2  894   4.823   4.431   2.031 -1.6886 -1.9630 -3.5080
  192SOL     OW  895   4.595   3.702   1.308 -0.0397  0.0421  0.3607
  192SOL    HW1  896   4.596   3.772   1.236  0.9249  0.2450  0.5543
  192SOL    HW2  897   4.553   3.740   1.390 -0.7177 -0.0363  0.0513
  193SOL     OW  898   3.876   4.307   4.823  0.1545  0.1233  0.8951
  193SOL    HW1  899   3.830   4.392   4.797  0.5196  0.3016  0.8239
  193SOL    HW2  900   3.844   4.232   4.765  0.2840  0.3351  0.5481
  194SOL     OW  901   4.381   3.041   5.531 -0.1412  0.5782 -0.0744
  194SOL    HW1  902   4.457   3.046   5.467  1.4970 -1.1435  1.6134
  194SOL    HW2  903   4.409   3.079   5.619 -0.9135 -0.9308  0.8464
  195SOL     OW  904   3.883   3.725   3.886 -0.0108 -0.2549  0.3207
  195SOL    HW1  905   3.920   3.644   3.932 -1.4932 -0.1796  1.7331
  195SOL    HW2  906   3.783   3.726   3.896 -0.0769  1.4209 -0.2211
  196SOL     OW  907   0.558   3.719   0.607  0.5190 -0.4472  0.5485
  196SOL    HW1  908   0.552   3.799   0.547  2.8372 -0.2265  0.5075
  196SOL    HW2  909   0.519   3.640   0.561 -1.0052  0.4539  0.2298
  197SOL     OW  910   5.497   2.908   0.250 -0.4755 -0.2137 -0.3458
  197SOL    HW1  911   5.473   2.833   0.312 -1.2687  0.7070  0.5073
  197SOL    HW2  912   5.437   2.906   0.170 -1.1105  0.0248  0.1110
  198SOL     OW  913   0.300   4.508   0.461 -0.3149  0.0468 -0.2697
  198SOL    HW1  914   0.239   4.481   0.387  1.7426 -0.4816 -1.8386
  198SOL    HW2  915   0.270   4.597   0.497 -2.8554 -0.8524  0.0696
  199SOL     OW  916   4.062   3.214   4.011  0.3155  0.1689  0.2769
  199SOL    HW1  917   4.153   3.231   3.972  0.1990 -2.1898 -1.1515
  199SOL    HW2  918   3.992   3.247   3.948  0.1243  1.2312  1.0087
  200SOL     OW  919   4.287   3.993   4.967 -0.0791 -0.0162  0.2771
  200SOL    HW1  920   4.330   3.915   4.922  0.0557 -1.0550  2.1308
  200SOL    HW2  921   4.273   3.973   5.064 -1.0451  1.8564  0.5781
  201SOL     OW  922   1.808   4.785   5.553 -0.0363 -0.3188  0.2157
  201SOL    HW1  923   1.830   4.877   5.585 -0.3473 -0.3659  0.5728
  201SOL    HW2  924   1.800   4.786   5.453  0.7142 -0.1239  0.1476
  202SOL     OW  925   3.544   1.381   2.333 -0.8409 -0.2742  0.1630
  202SOL    HW1  926   3.474   1.328   2.286 -1.9635 -1.2248  2.7247
  202SOL    HW2  927   3.547   1.355   2.430  1.3636  1.5240  0.6820
  203SOL     OW  928   1.250   0.383   4.566 -0.0312 -0.2485  0.4306
  203SOL    HW1  929   1.224   0.351   4.475  1.4752 -1.1354  0.2692
  203SOL    HW2  930   1.274   0.480   4.562  0.9168 -0.4984 -0.3429
  204SOL     OW  931   1.476   0.665   0.414 -0.8816 -0.5716  0.2738
  204SOL    HW1  932   1.440   0.622   0.497  1.1034 -1.3702  0.7705
  204SOL    HW2  933   1.532   0.744   0.439  0.4034 -1.3055 -0.2256
  205SOL     OW  934   4.634   3.891   1.120 -0.4427  0.3590 -0.4211
  205SOL    HW1  935   4.724   3.904   1.162 -1.0251  0.4217  0.8652
  205SOL    HW2  936   4.582   3.977   1.126 -1.2300 -0.1533  0.4843
  206SOL     OW  937   2.571   4.598   0.925  0.1409 -0.2424  0.2209
  206SOL    HW1  938   2.668   4.622   0.918  0.2849 -1.1442 -1.7279
  206SOL    HW2  939   2.562   4.499   0.938 -0.5157 -0.0628  1.1926
  207SOL     OW  940   5.329   2.361   1.397 -0.4760 -0.7325 -0.1653
  207SOL    HW1  941   5.231   2.342   1.385 -0.3300 -0.3788 -2.4449
  207SOL    HW2  942   5.382   2.296   1.343  0.4966 -0.3017  0.2568
  208SOL     OW  943   0.346   4.790   3.579  0.5982 -0.0072  0.0425
  208SOL    HW1  944   0.246   4.797   3.578  0.5039 -1.0656  0.4009
  208SOL    HW2  945   0.386   4.872   3.539 -0.4241  0.2720 -0.4342
  209SOL     OW  946   0.308   2.114   3.563  0.5252 -1.0722  0.5063
  209SOL    HW1  947   0.360   2.069   3.636  0.5785 -1.5530  0.1801
  209SOL    HW2  948   0.210   2.098   3.577  0.6067 -3.2163 -0.7828
  210SOL     OW  949   0.993   1.127   2.511  0.0195 -0.3181  0.4956
  210SOL    HW1  950   0.927   1.092   2.445 -0.9519  0.5346  0.9847
  210SOL    HW2  951   0.944   1.170   2.587  1.0311 -2.7150  2.6371
  211SOL     OW  952   4.705   1.405   4.609 -0.4987 -0.0275 -0.5999
  211SOL    HW1  953   4.728   1.388   4.513  1.0530  0.5792 -0.3681
  211SOL    HW2  954   4.652   1.489   4.617  0.3001  0.5070 -0.8410
  212SOL     OW  955   3.341   2.268   0.160 -0.0696 -0.1665  0.0027
  212SOL    HW1  956   3.330   2.253   0.258  1.1252  0.0955  0.2012
  212SOL    HW2  957   3.404   2.200   0.123  0.1753  0.2715 -0.3992
  213SOL     OW  958   2.204   3.124   4.305  0.0692 -0.0921 -0.4896
  213SOL    HW1  959   2.281   3.184   4.283 -1.4643  1.7123 -1.2971
  213SOL    HW2  960   2.181   3.134   4.402  0.9742 -0.8412 -0.1814
  214SOL     OW  961   4.974   0.259   1.745 -0.0802 -0.3828 -0.2607
  214SOL    HW1  962   4.904   0.302   1.802  0.1403 -0.4233  0.0403
  214SOL    HW2  963   5.026   0.193   1.799  0.3821 -0.1432 -0.4108
  215SOL     OW  964   1.913   0.590   2.793  0.2665  0.5302  0.0079
  215SOL    HW1  965   1.902   0.520   2.722  2.0176 -0.2081  0.4287
  215SOL    HW2  966   1.830   0.646   2.796 -1.9570 -2.4955  0.7492
  216SOL     OW  967   2.103   3.964   4.120 -0.2877  0.5406 -0.1846
  216SOL    HW1  968   2.038   3.894   4.151 -0.2215 -0.4863 -2.2019
  216SOL    HW2  969   2.082   4.051   4.164 -1.3913 -0.3713  1.1690
  217SOL     OW  970   1.922   4.076   2.870  0.4386 -0.6265  0.2900
  217SOL    HW1  971   1.940   4.045   2.777  1.8822 -0.7895  0.5964
  217SOL    HW2  972   1.975   4.159   2.889  0.7140 -0.9899  1.1843
  218SOL     OW  973   0.090   2.747   1.380 -0.4847 -0.3402  0.0744
  218SOL    HW1  974   0.071   2.843   1.358 -1.2346 -0.3707  0.5280
  218SOL    HW2  975   0.011   2.691   1.355 -0.5007 -0.6712  0.8338
  219SOL     OW  976   4.894   5.354   5.094  0.0129 -0.0729 -0.0590
  219SOL    HW1  977   4.963   5.323   5.160 -1.7383 -1.0416  1.4036
  219SOL    HW2  978   4.930   5.431   5.042  2.6282 -1.2629 -0.1882
  220SOL     OW  979   0.233   1.279   1.962 -0.0519 -0.4242  0.4753
  220SOL    HW1  980   0.148   1.293   1.911  0.4822  3.0889  0.3013
  220SOL    HW2  981   0.310   1.282   1.899  0.4009  0.1498  1.0489
  221SOL     OW  982   1.200   4.820   1.132 -0.2641 -0.1860 -0.0773
  221SOL    HW1  983   1.180   4.765   1.050 -2.4185  0.6340 -0.1897
  221SOL    HW2  984   1.216   4.915   1.105 -1.4606  0.1893  0.4398
  222SOL     OW  985   2.716   2.045   4.494  0.0398 -0.2892  0.1309
  222SOL    HW1  986   2.800   2.095   4.514  0.1937 -0.1013 -0.8981
  222SOL    HW2  987   2.666   2.027   4.579  1.0412 -0.2730  0.7394
  223SOL     OW  988   5.277   0.799   3.754 -0.5071  0.5300  0.1062
  223SOL    HW1  989   5.327   0.876   3.714  0.4986  0.5428  1.3579
  223SOL    HW2  990   5.215   0.833   3.825 -1.6502  0.4010 -0.7810
  224SOL     OW  991   0.696   2.454   2.708 -0.4514 -0.3709  0.0743
  224SOL    HW1  992   0.778   2.405   2.739 -1.4840 -1.7815  0.6469
  224SOL    HW2  993   0.616   2.420   2.757 -1.1509  2.4214  1.0566
  225SOL     OW  994   0.111   4.711   4.766  0.4728  0.5854 -0.2627
  225SOL    HW1  995   0.206   4.727   4.739  0.3336  1.0244 -0.5029
  225SOL    HW2  996   0.086   4.773   4.841  0.3097  0.6271 -0.3505
  226SOL     OW  997   3.403   3.245   3.819 -0.1882 -0.1430  0.3119
  226SOL    HW1  998   3.321   3.300   3.828 -0.9614 -1.3838  1.1076
  226SOL    HW2  999   3.482   3.296   3.855 -0.9163  0.3764  1.2110
  227SOL     OW 1000   3.763   5.157   0.643  0.1142  0.1535 -0.1563
  227SOL    HW1 1001   3.827   5.230   0.621  3.5750 -3.1619 -2.3640
  227SOL    HW2 1002   3.786   5.117   0.731  1.2015 -0.9906 -0.9172
  228SOL     OW 1003   3.170   4.244   1.761 -0.1560 -0.5335 -0.5488
  228SOL    HW1 1004   3.232   4.291   1.824 -0.6133  0.2931 -0.6919
  228SOL    HW2 1005   3.085   4.297   1.753 -0.5856 -1.2627 -0.9225
  229SOL     OW 1006   2.306   4.430   4.859 -0.1740 -0.8466  0.1028
  229SOL    HW1 1007   2.300   4.414   4.958 -1.4232  1.6100  0.5268
  229SOL    HW2 1008   2.402   4.442   4.833  0.0983 -0.0139  1.3523
  230SOL     OW 1009   2.981   4.325   0.413 -0.4307  0.0836 -0.2186
  230SOL    HW1 1010   3.044   4.251   0.437  0.7372  0.7823 -1.0043
  230SOL    HW2 1011   2.949   4.371   0.496  1.6343  0.9242  0.1793
  231SOL     OW 1012   1.562   4.135   3.059 -0.1666  0.3854 -0.2080
  231SOL    HW1 1013   1.566   4.098   2.966 -0.5524  0.7332 -0.3650
  231SOL    HW2 1014   1.487   4.201   3.066 -0.4104  0.0552  0.4594
  232SOL     OW 1015   2.410   1.833   1.790 -0.2669 -0.7488 -0.1528
  232SOL    HW1 1016   2.315   1.846   1.818  0.0520  2.9879 -0.3642
  232SOL    HW2 1017   2.423   1.869   1.698  1.4592 -0.8318  0.0276
  233SOL     OW 1018   2.871   3.305   3.610 -0.4756 -0.5583 -0.3273
  233SOL    HW1 1019   2.781   3.309   3.654 -0.6747 -2.4608 -0.4756
  233SOL    HW2 1020   2.859   3.301   3.511 -0.2687 -1.1365 -0.3356
  234SOL     OW 1021   4.829   1.015   3.090  0.0082  0.4143 -0.1240
  234SOL    HW1 1022   4.757   0.970   3.037  1.3559 -0.3400 -1.4052
  234SOL    HW2 1023   4.789   1.065   3.166 -1.8086 -0.3944 -0.5087
  235SOL     OW 1024   4.674   3.655   0.108  0.6469 -0.4199 -0.0334
  235SOL    HW1 1025   4.700   3.654   0.012 -2.6673 -0.4273 -1.0406
  235SOL    HW2 1026   4.713   3.737   0.152  0.3322  0.8373 -1.9890
  236SOL     OW 1027   3.193   0.348   2.768  0.0433  0.2372 -0.0284
  236SOL    HW1 1028   3.132   0.299   2.706 -0.9852  0.3484  0.8687
  236SOL    HW2 1029   3.184   0.447   2.752 -1.1053  0.3287  1.0680
  237SOL     OW 1030   4.492  -0.005   0.717  0.4626 -0.0225  0.2632
  237SOL    HW1 1031   4.435   0.077   0.713  0.8897  0.2583 -0.2983
  237SOL    HW2 1032   4.579   0.013   0.671  1.4826 -0.0790  2.0541
  238SOL     OW 1033   4.425   1.676   5.551 -0.3257  0.7942  0.1065
  238SOL    HW1 1034   4.422   1.677   5.451  1.3509 -0.5410  0.0056
  238SOL    HW2 1035   4.339   1.638   5.586 -1.3536  2.2489 -0.7558
  239SOL     OW 1036   2.336   3.114   5.193 -0.0755 -0.0439  0.1869
  239SOL    HW1 1037   2.313   3.191   5.132  2.2885 -0.0454 -0.8269
  239SOL    HW2 1038   2.388   3.046   5.141  2.4986  0.1850  2.2382
  240SOL     OW 1039   4.959   5.081   2.327 -0.5188 -0.1589  0.2466
  240SOL    HW1 1040   4.996   5.112   2.240  0.1417  0.4657  0.7371
  240SOL    HW2 1041   5.026   5.022   2.373  0.1121  1.3206  1.3302
  241SOL     OW 1042   4.482   0.929   3.353 -0.0660 -0.2211  0.0577
  241SOL    HW1 1043   4.563   0.872   3.364 -0.0066 -0.2725 -0.6450
  241SOL    HW2 1044   4.481   1.000   3.424  0.5932 -0.2095  0.0548
  242SOL     OW 1045   3.809   3.886   4.479  0.0597  0.3627  0.3511
  242SOL    HW1 1046   3.847   3.968   4.436 -0.2589  1.0070  1.2904
  242SOL    HW2 1047   3.776   3.907   4.570  3.3155 -1.5562  2.1831
  243SOL     OW 1048   4.049   2.650   4.451 -0.4209 -0.4480  0.2615
  243SOL    HW1 1049   4.131   2.610   4.490  0.1086  0.2107 -0.1596
  243SOL    HW2 1050   4.013   2.720   4.513  0.4569  0.6444 -0.4309
  244SOL     OW 1051   1.152   1.538   0.866  0.3179 -0.1219  0.2885
  244SOL    HW1 1052   1.239   1.578   0.838 -0.2425  0.7807 -0.2129
  244SOL    HW2 1053   1.092   1.609   0.902 -0.8136 -0.4267 -0.8956
  245SOL     OW 1054   1.974   3.638   3.989 -0.4234 -0.3009 -0.0005
  245SOL    HW1 1055   1.976   3.668   4.085  1.2842 -1.8172  0.5154
  245SOL    HW2 1056   1.888   3.591   3.970  0.0816 -1.9181  1.4824
  246SOL     OW 1057   4.031   2.832   3.797  0.1852 -0.6929  0.2803
  246SOL    HW1 1058   4.011   2.824   3.699  0.7471 -0.0536  0.1089
  246SOL    HW2 1059   4.129   2.844   3.810  0.1982 -1.4507  0.9715
  247SOL     OW 1060   2.889   5.115   4.875 -0.0541  0.5677  0.7213
  247SOL    HW1 1061   2.976   5.065   4.882  0.9265  2.4768  3.8110
  247SOL    HW2 1062   2.815   5.056   4.907  0.0844 -0.8316 -1.2761
  248SOL     OW 1063   5.451   1.288   2.143 -0.1089  0.1937  0.1453
  248SOL    HW1 1064   5.454   1.213   2.076 -2.8896 -0.6040  0.7576
  248SOL    HW2 1065   5.394   1.362   2.107  0.6343  0.9741  0.5379
  249SOL     OW 1066   3.550   3.671   4.739 -0.3149 -0.3677  0.0316
  249SOL    HW1 1067   3.645   3.647   4.721  0.1239  1.2371  0.0693
  249SOL    HW2 1068   3.545   3.727   4.821 -0.7965  2.7182 -1.9601
  250SOL     OW 1069   2.788   0.789   3.950 -0.1879 -0.1015 -0.1588
  250SOL    HW1 1070   2.713   0.842   3.989 -0.7417  0.9288 -2.4303
  250SOL    HW2 1071   2.869   0.846   3.943  0.1307 -0.5087  0.1911
  251SOL     OW 1072   3.333   2.657   4.659  0.4280  0.1298  0.0596
  251SOL    HW1 1073   3.331   2.563   4.693  0.7678  0.2395  0.3852
  251SOL    HW2 1074   3.285   2.661   4.571 -0.3492 -0.1724  0.4632
  252SOL     OW 1075   5.177   5.079   2.984  0.5003  0.1699 -0.3441
  252SOL    HW1 1076   5.091   5.031   3.004  0.5427  0.2486  0.0395
  252SOL    HW2 1077   5.253   5.014   2.990  0.4591  0.0809 -0.7716
  253SOL     OW 1078   5.084   5.367   2.174  0.1911 -0.4614  0.1115
  253SOL    HW1 1079   5.024   5.306   2.123  0.8068 -1.2831  0.3502
  253SOL    HW2 1080   5.179   5.354   2.145  0.1632  1.7451 -1.1969
  254SOL     OW 1081   3.754   2.268   2.699  0.3076  0.0059  0.1784
  254SOL    HW1 1082   3.662   2.255   2.663  0.5156 -0.0783 -0.3445
  254SOL    HW2 1083   3.752   2.272   2.799 -0.5873  2.4449  0.1392
  255SOL     OW 1084   1.850   4.294   0.671  0.0830 -0.1999  0.3753
  255SOL    HW1 1085   1.811   4.238   0.598 -0.5090 -0.1535  0.6533
  255SOL    HW2 1086   1.832   4.251   0.759 -1.9844  1.2874  0.7625
  256SOL     OW 1087   2.509   3.402   0.073 -0.4113 -0.0652  0.4730
  256SOL    HW1 1088   2.469   3.351  -0.003 -0.3284  0.1812  0.2600
  256SOL    HW2 1089   2.563   3.479   0.036 -0.7256  0.3111  0.7892
  257SOL     OW 1090   4.974   5.347   1.512  0.2452 -0.5112 -0.3753
  257SOL    HW1 1091   4.916   5.382   1.585  0.5919 -0.4566 -0.1200
  257SOL    HW2 1092   5.069   5.344   1.544  0.7202  1.3310 -1.4414
  258SOL     OW 1093   5.175   1.593   2.660  0.5105  0.5048 -0.2632
  258SOL    HW1 1094   5.163   1.605   2.759  1.8854 -2.2520  0.3326
  258SOL    HW2 1095   5.102   1.535   2.625  1.3635 -0.5300 -0.3615
  259SOL     OW 1096   1.776   0.191   2.752 -0.0716 -0.3659  0.3277
  259SOL    HW1 1097   1.720   0.119   2.713 -0.2736 -0.1460  0.2102
  259SOL    HW2 1098   1.860   0.152   2.790  0.0360 -0.6045 -0.1550
  260SOL     OW 1099   2.074   0.710   0.143 -0.5829  0.0835  0.1073
  260SOL    HW1 1100   2.060   0.616   0.110  2.4600 -0.3328 -0.2613
  260SOL    HW2 1101   2.171   0.732   0.140 -1.0719  2.8150  1.5006
  261SOL     OW 1102   1.819   3.680   4.526 -0.1964  0.1916  0.0175
  261SOL    HW1 1103   1.841   3.771   4.559  1.0668 -0.2895  0.5815
  261SOL    HW2 1104   1.773   3.628   4.599  0.5942 -0.1471  0.2923
  262SOL     OW 1105   2.784   1.333   4.605 -0.6885 -0.1636  0.1672
  262SOL    HW1 1106   2.722   1.411   4.615  0.1827  0.5540  0.0962
  262SOL    HW2 1107   2.879   1.364   4.614 -0.2370 -0.9139 -1.4804
  263SOL     OW 1108   1.294   3.602   2.786  0.3261  0.0147 -1.0164
  263SOL    HW1 1109   1.358   3.561   2.851  1.9033  1.7759 -1.3914
  263SOL    HW2 1110   1.282   3.540   2.708 -1.0350 -1.7930  0.5404
  264SOL     OW 1111   4.910   0.165   2.821  0.0464  0.1301  0.3961
  264SOL    HW1 1112   5.000   0.195   2.788  0.2748  0.1906  1.0714
  264SOL    HW2 1113   4.921   0.100   2.895 -0.4727  0.6734  0.9643
  265SOL     OW 1114   5.243   1.829   1.648  0.6996  0.0357  0.3804
  265SOL    HW1 1115   5.301   1.793   1.722  2.5016  0.9290 -0.5204
  265SOL    HW2 1116   5.274   1.921   1.624 -0.7820  0.3239 -0.5398
  266SOL     OW 1117   3.762   4.171   1.160 -0.0608 -1.0267 -0.4382
  266SOL    HW1 1118   3.743   4.201   1.253 -0.4836 -1.1478 -0.4807
  266SOL    HW2 1119   3.856   4.138   1.153  0.1222 -0.5562 -0.1769
  267SOL     OW 1120   2.416   5.146   3.629 -0.1630  0.3991 -0.7473
  267SOL    HW1 1121   2.385   5.119   3.720 -1.0397  1.5114 -0.6866
  267SOL    HW2 1122   2.345   5.123   3.562  0.0566  0.4559 -0.9993
  268SOL     OW 1123   0.137   1.242   5.170 -0.7140 -0.3969  0.3493
  268SOL    HW1 1124   0.132   1.313   5.240  0.5737  0.8602 -0.7889
  268SOL    HW2 1125   0.226   1.197   5.174  0.4848  1.5318 -2.1325
  269SOL     OW 1126   0.319   0.114   4.891  0.1677  0.3523 -0.3082
  269SOL    HW1 1127   0.409   0.137   4.929  1.0218 -1.1187 -1.3041
  269SOL    HW2 1128   0.288   0.027   4.931  0.3275 -0.3714 -1.7033
  270SOL     OW 1129   3.501   1.836   1.727  0.0733 -0.3471  0.1513
  270SOL    HW1 1130   3.514   1.904   1.656  0.0485  0.2932  0.7497
  270SOL    HW2 1131   3.452   1.877   1.804 -1.6375 -1.5364 -0.2486
  271SOL     OW 1132   3.203   5.420   0.068  0.2998 -0.2391  0.1752
  271SOL    HW1 1133   3.177   5.516   0.054  0.5061 -0.3797 -1.3989
  271SOL    HW2 1134   3.283   5.399   0.012 -1.1107 -1.9097 -1.3566
  272SOL     OW 1135   0.312   3.999   1.022 -0.8726  0.5512  0.1267
  272SOL    HW1 1136   0.284   3.906   1.046 -0.2591  0.3481  0.0876
  272SOL    HW2 1137   0.411   4.001   1.008 -1.1944  0.6122 -2.5835
  273SOL     OW 1138   3.322   1.544   2.930 -0.5469 -0.3968  0.2295
  273SOL    HW1 1139   3.261   1.598   2.872 -1.5644 -0.4768  1.1918
  273SOL    HW2 1140   3.310   1.447   2.910 -1.4664 -0.4711  1.0900
  274SOL     OW 1141   0.043   1.292   1.792  0.1217 -0.1901  0.6999
  274SOL    HW1 1142  -0.056   1.295   1.785  0.0800 -1.4922  0.5448
  274SOL    HW2 1143   0.083   1.319   1.704 -0.1828 -2.5673 -0.2645
  275SOL     OW 1144   3.803   4.523   1.844 -0.0486  0.3918  0.0549
  275SOL    HW1 1145   3.842   4.569   1.764 -0.2380 -2.5036 -1.8759
  275SOL    HW2 1146   3.877   4.498   1.906  0.4029  0.6290 -0.3754
  276SOL     OW 1147   0.482   1.811   2.313 -0.0653  0.1011 -0.1661
  276SOL    HW1 1148   0.473   1.739   2.381 -0.3691 -0.5401 -0.8784
  276SOL    HW2 1149   0.490   1.900   2.360 -1.9965 -0.1308  0.6907
  277SOL     OW 1150   4.393   2.821   4.472  0.1701  0.1492 -0.2941
  277SOL    HW1 1151   4.333   2.750   4.508  0.0693  0.7554  0.7783
  277SOL    HW2 1152   4.439   2.788   4.389 -2.0950 -0.1273 -1.5156
  278SOL     OW 1153   2.904   3.991   0.997  0.3365 -0.7035 -0.2861
  278SOL    HW1 1154   2.976   4.060   1.008 -1.3165  0.9074  1.0513
  278SOL    HW2 1155   2.916   3.945   0.909  1.7597  1.0022 -1.0572
  279SOL     OW 1156   3.781   0.355   4.171 -0.2701 -0.5373  0.5620
  279SOL    HW1 1157   3.753   0.263   4.199  2.1231 -1.2309  0.8932
  279SOL    HW2 1158   3.781   0.360   4.071 -1.3302 -0.5786  0.5529
  280SOL     OW 1159   4.641   5.173   1.193  0.6783  0.2472  0.1436
  280SOL    HW1 1160   4.669   5.184   1.288  1.3169  1.7631 -0.1927
  280SOL    HW2 1161   4.714   5.129   1.141  0.5247 -0.1322  0.2459
  281SOL     OW 1162   1.090   0.388   1.228 -0.1820  0.7158  0.1683
  281SOL    HW1 1163   1.180   0.393   1.184 -0.7959  1.0795 -1.0949
  281SOL    HW2 1164   1.037   0.315   1.186 -0.7453  0.9992  0.3831
  282SOL     OW 1165   0.094   2.780   0.880 -0.1043 -0.2039  0.0726
  282SOL    HW1 1166   0.081   2.747   0.973  1.1610  0.6267  0.5819
  282SOL    HW2 1167   0.073   2.707   0.815  0.6991 -1.3670  1.0792
  283SOL     OW 1168   0.259   3.188   2.777 -0.0764 -0.3988 -0.0781
  283SOL    HW1 1169   0.279   3.153   2.869 -0.0863 -1.1057 -0.3362
  283SOL    HW2 1170   0.268   3.113   2.711 -3.2353 -0.7622 -0.2820
  284SOL     OW 1171   4.944   2.955   5.227 -0.4807 -0.3620 -0.2969
  284SOL    HW1 1172   4.896   2.898   5.293  0.8140 -0.1675  0.8637
  284SOL    HW2 1173   4.919   2.927   5.134 -0.6829 -2.1014  0.2464
  285SOL     OW 1174   5.064   2.126   1.754  0.2634 -0.2762  0.0194
  285SOL    HW1 1175   5.092   2.095   1.664  1.3364 -0.1742  0.3013
  285SOL    HW2 1176   5.008   2.055   1.798  1.1425 -1.0539 -0.0710
  286SOL     OW 1177   0.752   1.910   3.680 -0.1773 -0.0833 -0.0584
  286SOL    HW1 1178   0.787   1.996   3.717  0.6474  0.0096 -1.0175
  286SOL    HW2 1179   0.689   1.929   3.604 -2.7478 -0.2274  1.9076
  287SOL     OW 1180   3.717   1.848   2.196 -0.2908  0.8804 -0.4301
  287SOL    HW1 1181   3.657   1.781   2.239  1.2541 -1.0951 -1.1696
  287SOL    HW2 1182   3.716   1.933   2.248  0.6772 -0.9990  2.9187
  288SOL     OW 1183   3.313   0.346   1.298  0.5394 -0.3085  0.3308
  288SOL    HW1 1184   3.252   0.275   1.262  1.5108 -1.1332  0.2377
  288SOL    HW2 1185   3.375   0.305   1.364  1.4029  0.3681 -0.0369
  289SOL     OW 1186   0.026   5.080   1.099  0.1699 -0.0379 -0.3522
  289SOL    HW1 1187   0.021   5.156   1.163 -0.1829 -0.2258 -0.1518
  289SOL    HW2 1188  -0.021   5.001   1.137  0.2044 -0.2393 -0.7197
  290SOL     OW 1189   0.311   3.620   5.334 -0.0950 -0.2974 -0.2420
  290SOL    HW1 1190   0.333   3.644   5.240  0.6939 -2.7096 -0.7479
  290SOL    HW2 1191   0.393   3.623   5.390 -0.0844 -1.1571 -0.1969
  291SOL     OW 1192   3.389   0.078   3.041 -0.2739  0.2531 -0.2415
  291SOL    HW1 1193   3.367   0.015   3.115 -2.1803  0.1492 -0.8422
  291SOL    HW2 1194   3.422   0.165   3.079  1.9445 -0.8784  0.6029
  292SOL     OW 1195   0.234   1.219   4.194  0.1556  0.1391 -0.3235
  292SOL    HW1 1196   0.309   1.282   4.172  2.0833 -1.9561 -0.1017
  292SOL    HW2 1197   0.188   1.191   4.110 -0.5965  1.6287 -0.4433
  293SOL     OW 1198   4.391   4.846   3.800 -0.0267 -0.1138  0.2423
  293SOL    HW1 1199   4.364   4.942   3.814 -1.1633 -0.6506  1.9326
  293SOL    HW2 1200   4.426   4.808   3.885  1.7911 -0.8268 -0.7737
  294SOL     OW 1201   1.344   4.002   2.530  0.6329 -0.1898  0.3886
  294SOL    HW1 1202   1.342   4.099   2.551  1.1355 -0.1292  0.1665
  294SOL    HW2 1203   1.338   3.949   2.614 -1.2261  0.0101  0.4191
  295SOL     OW 1204   5.512   1.588   1.699 -0.1524  0.1341  0.4009
  295SOL    HW1 1205   5.580   1.526   1.659  2.1626  0.9324  2.7914
  295SOL    HW2 1206   5.525   1.680   1.662  1.8204  0.8159  2.5018
  296SOL     OW 1207   0.518   0.893   3.575  0.2650 -0.4594 -0.2893
  296SOL    HW1 1208   0.475   0.846   3.652 -0.4049  0.1961 -0.2598
  296SOL    HW2 1209   0.530   0.989   3.597 -0.1865 -0.2056 -1.1080
  297SOL     OW 1210   3.850   4.698   0.488 -0.2581  0.1096 -0.5424
  297SOL    HW1 1211   3.855   4.797   0.476  2.6444  0.1935  0.4866
  297SOL    HW2 1212   3.912   4.654   0.424 -2.0747 -1.1711 -1.5083
  298SOL     OW 1213   1.595   3.604   0.120 -0.9203 -0.4920  0.6091
  298SOL    HW1 1214   1.535   3.536   0.078  0.1895 -1.1558  0.0544
  298SOL    HW2 1215   1.669   3.627   0.056 -1.0983  1.0104  0.9092
  299SOL     OW 1216   0.870   3.301   1.437  0.4294 -0.3905  0.6285
  299SOL    HW1 1217   0.898   3.306   1.533 -1.7208  1.1704  1.2423
  299SOL    HW2 1218   0.770   3.303   1.431  0.4987 -0.8425 -1.6565
  300SOL     OW 1219   0.527   1.590   2.477 -0.2899 -1.2519  0.4481
  300SOL    HW1 1220   0.458   1.529   2.440 -1.6656 -0.7697  2.1076
  300SOL    HW2 1221   0.554   1.559   2.568 -0.3927  0.1135  0.9744
  301SOL     OW 1222   3.436   2.821   0.579  0.1379  0.0369  0.2658
  301SOL    HW1 1223   3.415   2.872   0.496 -0.3505  1.3186  1.1532
  301SOL    HW2 1224   3.502   2.871   0.634  0.0577 -0.5399  0.9071
  302SOL     OW 1225   4.096   0.409   3.391  0.7735  0.2229  0.1736
  302SOL    HW1 1226   4.097   0.491   3.334  1.6918  0.7263  0.8714
  302SOL    HW2 1227   4.032   0.421   3.467  0.3684 -0.0090 -0.1251
  303SOL     OW 1228   0.707   0.957   4.820  0.2465 -0.0550  0.2200
  303SOL    HW1 1229   0.804   0.935   4.832  0.3610 -0.2286 -0.9434
  303SOL    HW2 1230   0.652   0.875   4.836  0.2047  0.2416  1.7435
  304SOL     OW 1231   5.154   2.672   3.733  0.2270 -0.3111 -0.1420
  304SOL    HW1 1232   5.197   2.729   3.664 -0.3641  0.7963  0.3735
  304SOL    HW2 1233   5.060   2.703   3.748  0.7281  0.3730  2.0836
  305SOL     OW 1234   3.261   1.570   5.434 -0.1502 -0.1905 -0.8509
  305SOL    HW1 1235   3.191   1.595   5.367 -0.0483  1.9412 -0.2428
  305SOL    HW2 1236   3.258   1.634   5.511  0.6987 -1.7006  0.5049
  306SOL     OW 1237   4.348   1.999   2.244 -0.1379 -0.2082  0.2946
  306SOL    HW1 1238   4.393   2.089   2.237 -1.8115  0.6265 -0.2822
  306SOL    HW2 1239   4.416   1.927   2.234  1.2095  0.9922  0.4760
  307SOL     OW 1240   4.308   1.423   2.634  1.0220 -0.0814 -0.0444
  307SOL    HW1 1241   4.256   1.339   2.622  1.2592 -0.6337  2.2076
  307SOL    HW2 1242   4.281   1.491   2.566 -0.4840 -1.3583 -0.7550
  308SOL     OW 1243   1.428   1.976   1.294 -0.2409  0.3713 -0.0948
  308SOL    HW1 1244   1.403   1.922   1.375 -0.2648  1.5835  0.7333
  308SOL    HW2 1245   1.365   1.955   1.219  0.0369 -1.0759  0.0547
  309SOL     OW 1246   0.258   5.563   4.341 -0.1709 -0.2541 -0.2044
  309SOL    HW1 1247   0.254   5.464   4.330  0.7699 -0.5185  1.4661
  309SOL    HW2 1248   0.264   5.585   4.439 -2.3169  1.5422 -0.4005
  310SOL     OW 1249   3.912   2.982   3.433 -0.3144 -0.1106 -0.6251
  310SOL    HW1 1250   3.822   2.971   3.475 -0.6295  0.0446 -1.2468
  310SOL    HW2 1251   3.937   3.079   3.433 -0.2313 -0.1317 -0.6311
  311SOL     OW 1252   0.557   0.209   0.168 -0.3986  0.8050 -0.3294
  311SOL    HW1 1253   0.559   0.176   0.074  1.3998 -0.0029 -0.0401
  311SOL    HW2 1254   0.580   0.307   0.169  0.9071  0.5251 -0.6514
  312SOL     OW 1255   0.753   2.182   2.574 -0.4927 -0.1826  0.2252
  312SOL    HW1 1256   0.800   2.230   2.648  0.4115  0.7298 -0.8969
  312SOL    HW2 1257   0.657   2.212   2.571 -0.5827 -0.3688  1.1344
  313SOL     OW 1258   1.110   3.635   1.075  0.2014 -0.2645  0.1418
  313SOL    HW1 1259   1.109   3.632   0.975  0.1391  0.9088  0.0903
  313SOL    HW2 1260   1.065   3.719   1.106  1.3053 -0.0086  1.1144
  314SOL     OW 1261   4.292   3.930   5.229 -0.2140  0.2964  0.1127
  314SOL    HW1 1262   4.210   3.963   5.276 -0.2540  0.0345  0.2285
  314SOL    HW2 1263   4.358   3.898   5.297 -0.0361  0.4558  0.0174
  315SOL     OW 1264   5.000   5.051   2.674  1.1249  0.1520 -0.1398
  315SOL    HW1 1265   5.035   5.002   2.594  0.8413  1.2396 -0.9433
  315SOL    HW2 1266   4.928   4.996   2.717  1.7030 -0.7225 -0.2523
  316SOL     OW 1267   0.922   2.889   2.662  0.1097 -0.0270 -0.0645
  316SOL    HW1 1268   0.960   2.957   2.725 -1.1311 -0.0313  0.7189
  316SOL    HW2 1269   0.981   2.809   2.660  0.0854 -0.0880  1.2253
  317SOL     OW 1270   1.435   0.794   3.313 -0.1552  0.0481 -0.3635
  317SOL    HW1 1271   1.423   0.887   3.278  0.8615  0.5807  0.6548
  317SOL    HW2 1272   1.359   0.771   3.373  1.2385  1.5659  2.1535
  318SOL     OW 1273   4.007   4.932   2.643 -1.3384 -0.0485 -0.3247
  318SOL    HW1 1274   4.070   4.867   2.600 -0.1682 -0.2647  1.6048
  318SOL    HW2 1275   3.973   4.894   2.729 -0.9615  1.6991  0.6332
  319SOL     OW 1276   2.280   1.328   2.727 -0.0861 -0.6276  0.1930
  319SOL    HW1 1277   2.227   1.412   2.723  0.5925 -0.2153 -0.4757
  319SOL    HW2 1278   2.351   1.336   2.797  1.2652  0.1611 -1.2064
  320SOL     OW 1279   1.887   3.284   4.676 -0.0962  0.1485 -0.5700
  320SOL    HW1 1280   1.971   3.337   4.683 -0.9801  1.5087  0.2763
  320SOL    HW2 1281   1.809   3.346   4.666 -1.0179 -1.0702 -1.1882
  321SOL     OW 1282   1.047   2.459   5.303  0.4998 -0.5227  0.3579
  321SOL    HW1 1283   1.090   2.370   5.285  1.2469 -0.1385  0.2088
  321SOL    HW2 1284   1.005   2.458   5.394  1.9676 -0.4828  1.0603
  322SOL     OW 1285   1.354   1.388   2.584  0.0123 -0.2879  0.6338
  322SOL    HW1 1286   1.376   1.481   2.614 -1.5172  0.9521 -1.7335
  322SOL    HW2 1287   1.439   1.337   2.569  0.9449  1.1820  0.6974
  323SOL     OW 1288   0.303   5.159   0.644  0.1918 -0.5441  0.2361
  323SOL    HW1 1289   0.312   5.173   0.545 -0.8256 -0.6478  0.1245
  323SOL    HW2 1290   0.288   5.246   0.689 -0.5562 -0.6239  0.1565
  324SOL     OW 1291   4.121   5.183   0.943  0.5485  0.1720  0.0891
  324SOL    HW1 1292   4.210   5.167   0.987  1.1472  1.9816 -0.4001
  324SOL    HW2 1293   4.080   5.266   0.980  1.0313  1.7404 -2.6021
  325SOL     OW 1294   3.440   5.095   3.551 -0.3639  0.1709  0.3914
  325SOL    HW1 1295   3.508   5.127   3.616 -1.4849  1.6626  0.8991
  325SOL    HW2 1296   3.459   5.000   3.526  1.1000  0.1326  1.5271
  326SOL     OW 1297   2.164   5.157   3.913 -0.6034  0.0911  0.1132
  326SOL    HW1 1298   2.138   5.209   3.832  0.8085  0.9661  0.1888
  326SOL    HW2 1299   2.084   5.111   3.951 -1.4642  0.4707 -1.1991
  327SOL     OW 1300   2.760   4.857   5.202 -0.6537  0.0050 -0.3101
  327SOL    HW1 1301   2.719   4.890   5.288 -1.4386 -0.0004 -0.6724
  327SOL    HW2 1302   2.859   4.846   5.214 -0.5815  1.1370  0.2398
  328SOL     OW 1303   0.185   2.814   0.574  0.6341  0.5547  0.0846
  328SOL    HW1 1304   0.154   2.903   0.606 -1.2777 -0.7122  2.0310
  328SOL    HW2 1305   0.113   2.746   0.588  2.6390 -1.6687  0.3646
  329SOL     OW 1306   1.467   0.769   0.838  0.3741 -0.3684  0.0889
  329SOL    HW1 1307   1.561   0.744   0.815 -0.2093 -1.6957 -0.9342
  329SOL    HW2 1308   1.447   0.743   0.932  0.9469 -0.2782  0.2392
  330SOL     OW 1309   4.368   0.862   4.981 -0.7444 -0.0341 -0.2419
  330SOL    HW1 1310   4.368   0.914   4.896 -3.8628  0.2495 -0.1879
  330SOL    HW2 1311   4.376   0.925   5.058 -1.7514  0.1568 -0.2684
  331SOL     OW 1312   0.787   2.048   1.361  0.2482  0.2456  0.5254
  331SOL    HW1 1313   0.837   2.079   1.280 -1.6906  1.8066 -0.1596
  331SOL    HW2 1314   0.801   1.950   1.373  1.6010  0.2124 -0.9292
  332SOL     OW 1315   2.838   1.376   0.655  0.2943  0.1656 -0.1367
  332SOL    HW1 1316   2.794   1.290   0.681 -2.9675  1.1706 -1.7226
  332SOL    HW2 1317   2.875   1.368   0.563 -0.0369  0.4168 -0.2964
  333SOL     OW 1318   0.511   1.206   5.317  0.0043  0.4924 -0.4529
  333SOL    HW1 1319   0.477   1.171   5.230  2.2359 -0.6912 -0.9201
  333SOL    HW2 1320   0.594   1.259   5.302  0.5171  0.1304  0.9536
  334SOL     OW 1321   1.085   4.610   4.614 -0.4231  0.5959 -0.2568
  334SOL    HW1 1322   1.008   4.552   4.588 -1.3847  1.8444 -0.3247
  334SOL    HW2 1323   1.054   4.705   4.620  0.9383  1.0179  0.5322
  335SOL     OW 1324   4.763   4.816   5.327  0.2334 -0.0588  0.3960
  335SOL    HW1 1325   4.716   4.767   5.253  1.5373  0.9086 -1.1423
  335SOL    HW2 1326   4.695   4.851   5.392 -1.0289 -0.2572 -0.7670
  336SOL     OW 1327   1.862   2.639   1.925  0.8123 -0.1547  0.1156
  336SOL    HW1 1328   1.929   2.584   1.977 -0.5634 -2.4009 -0.3773
  336SOL    HW2 1329   1.839   2.591   1.841  0.9042  2.1260 -1.2607
  337SOL     OW 1330   3.813   1.328   0.386 -0.2250  0.1478  0.1921
  337SOL    HW1 1331   3.745   1.359   0.319 -0.1397 -0.8169 -0.3617
  337SOL    HW2 1332   3.855   1.243   0.354  1.2741  0.7350  0.5106
  338SOL     OW 1333   2.146   4.994   4.217  0.0281 -0.4368 -0.2251
  338SOL    HW1 1334   2.092   5.008   4.299  0.1067  2.3014 -0.5744
  338SOL    HW2 1335   2.086   4.965   4.142 -0.4665 -0.2967  0.1150
  339SOL     OW 1336   3.606   1.173   4.002 -0.6173  0.1916  0.7246
  339SOL    HW1 1337   3.598   1.258   3.950 -0.4418 -0.4383 -0.3692
  339SOL    HW2 1338   3.539   1.172   4.076 -1.0722  0.9870  0.3295
  340SOL     OW 1339   4.057   4.142   0.231  0.4600  0.1069  0.6931
  340SOL    HW1 1340   4.115   4.219   0.201  1.5888 -0.7286  0.6844
  340SOL    HW2 1341   4.047   4.077   0.155 -0.8589  0.4424  0.5593
  341SOL     OW 1342   2.453   3.733   5.483 -0.1118  0.1273  0.7042
  341SOL    HW1 1343   2.413   3.715   5.573 -1.2129 -0.4936  0.1141
  341SOL    HW2 1344   2.545   3.693   5.480  0.0102  0.3072  1.6064
  342SOL     OW 1345   2.519   1.938   0.191 -0.0229  0.1625  0.2796
  342SOL    HW1 1346   2.528   1.892   0.280  3.3954 -1.8270 -0.9168
  342SOL    HW2 1347   2.569   2.024   0.193  0.6168 -0.2009  0.1139
  343SOL     OW 1348   1.370   5.093   3.948 -0.2686 -0.1351  0.3138
  343SOL    HW1 1349   1.277   5.120   3.973 -0.8818 -1.2301 -0.7171
  343SOL    HW2 1350   1.378   5.086   3.848  0.2901 -2.1736  0.4515
  344SOL     OW 1351   4.502   3.616   1.884  0.1421 -0.1793 -0.5210
  344SOL    HW1 1352   4.406   3.625   1.912 -0.3133  2.0902 -2.5362
  344SOL    HW2 1353   4.556   3.585   1.963 -2.2266 -1.8351  0.5916
  345SOL     OW 1354   3.589   1.029   4.364 -0.4448  0.5741 -0.0774
  345SOL    HW1 1355   3.495   1.043   4.332 -0.6478  2.0277  1.0656
  345SOL    HW2 1356   3.622   1.112   4.409  0.6479 -0.5970  1.3839
  346SOL     OW 1357   1.466   3.521   2.991  0.2095 -0.5410 -0.0800
  346SOL    HW1 1358   1.520   3.596   3.029  0.5885 -0.6466 -0.4066
  346SOL    HW2 1359   1.473   3.441   3.052 -0.4727 -0.2098  0.4452
  347SOL     OW 1360   4.159   4.270   1.393 -0.0676  0.2620 -0.2426
  347SOL    HW1 1361   4.168   4.213   1.474 -1.7549 -0.0790 -0.2556
  347SOL    HW2 1362   4.070   4.315   1.394  0.1509  0.7694 -1.5880
  348SOL     OW 1363   5.358   1.835   3.337  0.3473  0.0845 -0.5650
  348SOL    HW1 1364   5.457   1.848   3.338  0.7321 -2.0626  2.0247
  348SOL    HW2 1365   5.318   1.882   3.416 -0.2749 -1.2645 -0.0474
  349SOL     OW 1366   0.851   2.771   3.113 -0.2742 -0.5274 -0.6245
  349SOL    HW1 1367   0.829   2.686   3.065 -2.1365 -1.6433  1.9716
  349SOL    HW2 1368   0.767   2.821   3.133  0.4670  0.2349  0.7862
  350SOL     OW 1369   2.199   1.807   4.964  0.1251  0.0526  0.1785
  350SOL    HW1 1370   2.114   1.757   4.944  0.7341 -0.5980 -0.9062
  350SOL    HW2 1371   2.277   1.745   4.955  0.9078  1.1756 -1.1959
  351SOL     OW 1372   0.992   3.810   3.359  0.5624  0.3608 -0.4912
  351SOL    HW1 1373   1.050   3.745   3.309 -0.2660  0.2334 -1.3034
  351SOL    HW2 1374   0.934   3.759   3.423  1.6475  0.5262  0.6743
  352SOL     OW 1375   4.175   0.646   4.923  0.6728 -0.1347  0.3286
  352SOL    HW1 1376   4.243   0.711   4.955 -0.5441  1.1786  0.3403
  352SOL    HW2 1377   4.210   0.597   4.843  1.0681  1.6401 -0.6496
  353SOL     OW 1378   0.665   4.728   2.135  0.3016  0.1347  0.1082
  353SOL    HW1 1379   0.668   4.746   2.233  1.0138 -0.2380  0.1688
  353SOL    HW2 1380   0.755   4.749   2.095  0.9670 -2.4692  0.0654
  354SOL     OW 1381   2.083   0.888   4.873 -0.5325 -0.6757 -0.6721
  354SOL    HW1 1382   2.074   0.971   4.818 -0.4185 -0.1087  0.1484
  354SOL    HW2 1383   2.074   0.807   4.814  0.6199 -0.0913 -1.6821
  355SOL     OW 1384   1.805   1.323   4.761  0.4584  0.5269  0.2413
  355SOL    HW1 1385   1.775   1.232   4.730 -0.0639  0.7184  0.1803
  355SOL    HW2 1386   1.900   1.338   4.732  1.0691 -0.6056  1.5366
  356SOL     OW 1387   1.718   1.048   5.219  0.2908  0.0285 -0.1313
  356SOL    HW1 1388   1.738   1.134   5.267  1.6102 -1.4066  2.0828
  356SOL    HW2 1389   1.724   1.063   5.120  1.1846  2.3177  0.1919
  357SOL     OW 1390   0.364   4.433   4.792 -0.9443 -0.6683  0.4002
  357SOL    HW1 1391   0.420   4.415   4.873 -0.4698  0.8086  0.4258
  357SOL    HW2 1392   0.377   4.359   4.726  0.1810 -0.9078  0.8645
  358SOL     OW 1393   2.813   5.154   0.660  0.2749  0.4625 -0.1271
  358SOL    HW1 1394   2.900   5.165   0.707  1.5119 -0.4134 -2.0964
  358SOL    HW2 1395   2.756   5.089   0.711  1.4072 -0.1555  0.3955
  359SOL     OW 1396   4.830   1.676   1.113 -0.3259 -0.0129  0.1187
  359SOL    HW1 1397   4.928   1.671   1.094 -0.2374  1.2222  0.2107
  359SOL    HW2 1398   4.803   1.597   1.169  0.8486  0.2485  1.0804
  360SOL     OW 1399   5.355   5.532   2.878 -0.3628 -0.6013  0.0461
  360SOL    HW1 1400   5.390   5.455   2.931  1.8157  0.6434  0.5012
  360SOL    HW2 1401   5.317   5.601   2.939 -0.1343 -0.2763 -0.1723
  361SOL     OW 1402   1.139   3.276   5.151  0.0455  0.2738  0.4108
  361SOL    HW1 1403   1.164   3.326   5.068 -0.8303 -2.0098 -1.3336
  361SOL    HW2 1404   1.041   3.290   5.170 -0.0494 -0.2250  0.3009
  362SOL     OW 1405   3.134   0.754   3.363 -0.2528 -0.1095  0.0503
  362SOL    HW1 1406   3.139   0.665   3.408  1.3165 -0.2986 -0.4312
  362SOL    HW2 1407   3.110   0.741   3.267  0.2960 -0.0653 -0.1000
  363SOL     OW 1408   1.611   4.884   1.963  0.1481 -0.5132 -0.2532
  363SOL    HW1 1409   1.688   4.926   2.010 -0.4416 -1.0102  1.2353
  363SOL    HW2 1410   1.644   4.826   1.888  1.1409  0.0441 -0.2602
  364SOL     OW 1411   4.977   2.629   1.625 -0.5099 -0.1526  0.1665
  364SOL    HW1 1412   4.939   2.709   1.671 -0.4627 -1.3633  2.4504
  364SOL    HW2 1413   5.063   2.603   1.670 -0.6160 -1.5833 -0.4081
  365SOL     OW 1414   2.134   4.524   1.246  0.1919  0.1702 -0.2268
  365SOL    HW1 1415   2.113   4.621   1.237 -1.6748 -0.2572 -0.9644
  365SOL    HW2 1416   2.208   4.500   1.183  0.4966  1.0584 -0.2220
  366SOL     OW 1417   5.233   1.216   0.762 -0.0897 -0.2681  0.0427
  366SOL    HW1 1418   5.305   1.285   0.766 -1.1423  0.8172  1.1829
  366SOL    HW2 1419   5.273   1.125   0.763  1.3961  0.2599 -2.4356
  367SOL     OW 1420   0.437   2.175   1.955  0.2298 -0.2959 -0.9407
  367SOL    HW1 1421   0.522   2.196   1.906  1.0452 -0.5632  0.3111
  367SOL    HW2 1422   0.384   2.260   1.966  0.4039 -0.0960 -1.5920
  368SOL     OW 1423   3.515   4.081   2.635  0.1643 -0.3239  0.3080
  368SOL    HW1 1424   3.594   4.124   2.680 -0.8476  0.0462  1.7857
  368SOL    HW2 1425   3.495   3.994   2.679 -0.2636 -0.4222 -0.0769
  369SOL     OW 1426   4.170   1.896   2.066  0.1619 -0.0185  0.9574
  369SOL    HW1 1427   4.237   1.944   2.122  0.9189 -1.2722  1.1676
  369SOL    HW2 1428   4.115   1.836   2.125  1.0886 -1.4884  0.3900
  370SOL     OW 1429   5.520   2.114   3.204  0.3820  0.2091 -0.3043
  370SOL    HW1 1430   5.495   2.166   3.286  0.6410  0.7379 -0.5557
  370SOL    HW2 1431   5.475   2.154   3.125 -1.1084 -1.2251 -0.2335
  371SOL     OW 1432   2.184   1.612   4.310 -0.3029  0.0318 -0.4667
  371SOL    HW1 1433   2.281   1.601   4.331 -0.5258  0.2498  0.7720
  371SOL    HW2 1434   2.132   1.536   4.350 -0.8044  0.7011  0.1728
  372SOL     OW 1435   0.999   5.184   1.565 -0.1272  0.5895  0.1907
  372SOL    HW1 1436   1.013   5.086   1.551  0.8804  0.8418 -0.6499
  372SOL    HW2 1437   0.980   5.202   1.662  1.1160 -0.2730  0.6034
  373SOL     OW 1438   3.322   0.316   3.736 -0.3269  0.0610 -0.0201
  373SOL    HW1 1439   3.244   0.344   3.792  0.0196 -0.1466  0.5688
  373SOL    HW2 1440   3.393   0.386   3.739 -0.3732  0.1264 -0.3422
  374SOL     OW 1441   1.806   2.115   1.011 -0.0937  0.2116  0.2962
  374SOL    HW1 1442   1.709   2.119   0.989 -0.1907 -0.9873  0.4419
  374SOL    HW2 1443   1.825   2.171   1.092 -0.7493  0.0476  0.5637
  375SOL     OW 1444   5.188   2.184   4.267  0.4628  0.3071 -0.1853
  375SOL    HW1 1445   5.272   2.172   4.319  1.1344  1.2815 -1.0260
  375SOL    HW2 1446   5.196   2.140   4.178 -0.2756 -0.4067  0.0859
  376SOL     OW 1447   4.405   4.564   0.138 -0.1875 -0.2280  0.2754
  376SOL    HW1 1448   4.363   4.607   0.058  1.3784  2.4166  0.7338
  376SOL    HW2 1449   4.382   4.617   0.219  0.9346 -0.9072  1.0603
  377SOL     OW 1450   0.670   5.200   4.593 -0.0290 -0.7612 -0.3791
  377SOL    HW1 1451   0.740   5.264   4.625 -0.3768 -0.4043 -0.3230
  377SOL    HW2 1452   0.617   5.243   4.520 -1.2115 -0.4343  0.6485
  378SOL     OW 1453   1.288   3.422   0.991  0.3364  0.4633  0.0884
  378SOL    HW1 1454   1.203   3.470   0.969  0.3136  0.2970 -0.1883
  378SOL    HW2 1455   1.278   3.373   1.078  0.7087  1.8215  0.9296
  379SOL     OW 1456   0.240   4.106   3.597 -0.0288 -0.2668 -0.2744
  379SOL    HW1 1457   0.163   4.074   3.542 -1.6401 -0.7794  2.1379
  379SOL    HW2 1458   0.226   4.080   3.692  2.2046  1.3280  0.5667
  380SOL     OW 1459   1.810   4.006   0.203 -0.2761  0.6382 -0.0113
  380SOL    HW1 1460   1.887   4.067   0.185  0.2831 -0.1852 -0.5440
  380SOL    HW2 1461   1.738   4.021   0.135 -0.5906  1.4060  0.4849
  381SOL     OW 1462   2.673   1.767   4.742 -0.5805  0.4804  0.4203
  381SOL    HW1 1463   2.745   1.797   4.805  0.1033  1.2003 -0.6750
  381SOL    HW2 1464   2.679   1.668   4.730  0.6822  0.6159 -0.1911
  382SOL     OW 1465   2.594   2.141   3.648  0.0082  0.2958  0.0437
  382SOL    HW1 1466   2.635   2.224   3.686  0.5423  0.6183 -1.1612
  382SOL    HW2 1467   2.559   2.160   3.556 -0.5136 -0.6375  0.0350
  383SOL     OW 1468   2.948   1.870   4.660 -0.0151  0.3019  0.1810
  383SOL    HW1 1469   2.907   1.835   4.576 -0.9545 -1.3497  1.2778
  383SOL    HW2 1470   2.962   1.969   4.651  1.9440 -0.1188 -2.6883
  384SOL     OW 1471   0.391   5.483   5.404  0.2775  0.0541 -0.3719
  384SOL    HW1 1472   0.468   5.419   5.412  1.0614  1.0136  0.0481
  384SOL    HW2 1473   0.425   5.576   5.417 -1.1890  0.3984  1.3632
  385SOL     OW 1474   2.683   0.015   2.775 -0.0322 -0.4420 -0.0824
  385SOL    HW1 1475   2.767   0.030   2.828 -0.5578  1.4896  0.3154
  385SOL    HW2 1476   2.636   0.103   2.764 -1.0979 -1.2006 -1.8391
  386SOL     OW 1477   3.559   0.269   2.577 -0.0397 -0.4272  0.1719
  386SOL    HW1 1478   3.514   0.348   2.619 -1.4315 -1.8851  1.5741
  386SOL    HW2 1479   3.490   0.204   2.545  1.0663 -1.5930  0.0829
  387SOL     OW 1480   5.232   3.174   1.249 -0.7819 -0.6742 -0.1263
  387SOL    HW1 1481   5.264   3.091   1.295 -0.5940 -0.4583  0.1419
  387SOL    HW2 1482   5.132   3.174   1.247 -0.9141  0.3375  2.2979
  388SOL     OW 1483   4.540   0.931   4.346 -0.0922 -0.2296  0.1843
  388SOL    HW1 1484   4.462   0.888   4.392  0.5613  0.3672  1.9079
  388SOL    HW2 1485   4.506   0.996   4.277 -1.1341  0.2854  1.1419
  389SOL     OW 1486   4.319   0.573   1.954 -0.3131  0.1819  0.0080
  389SOL    HW1 1487   4.275   0.564   1.865  0.1023  0.2053 -0.2017
  389SOL    HW2 1488   4.307   0.489   2.007  2.2793 -1.1515 -1.3554
  390SOL     OW 1489   0.698   1.029   5.232  0.0573  0.0859 -0.0508
  390SOL    HW1 1490   0.756   0.989   5.302  1.9979  0.8857 -1.1133
  390SOL    HW2 1491   0.626   1.084   5.275 -0.0524 -1.0493  1.2990
  391SOL     OW 1492   2.849   5.422   1.376  0.0407  0.4196 -0.2333
  391SOL    HW1 1493   2.916   5.495   1.364  0.1094  0.4402  0.2475
  391SOL    HW2 1494   2.888   5.350   1.434  0.2877 -0.4070 -1.3796
  392SOL     OW 1495   0.154   4.377   4.344 -0.6094 -0.6436 -0.6301
  392SOL    HW1 1496   0.112   4.412   4.427  0.4626 -1.1672  0.1553
  392SOL    HW2 1497   0.169   4.453   4.280  0.7348  0.1959  0.6306
  393SOL     OW 1498   0.974   5.160   4.189 -0.1638  0.5010  0.3319
  393SOL    HW1 1499   1.021   5.191   4.107  0.8244 -0.7322  0.3983
  393SOL    HW2 1500   0.910   5.230   4.220  0.3483  1.4846 -0.7809
  394SOL     OW 1501   5.006   0.778   1.956 -0.0576 -0.0345 -0.0567
  394SOL    HW1 1502   4.932   0.837   1.924 -2.0875 -1.7777  1.1091
  394SOL    HW2 1503   5.033   0.715   1.883 -1.0704 -0.5996  0.0315
  395SOL     OW 1504   3.890   0.472   2.548  0.3372 -0.0398 -0.0711
  395SOL    HW1 1505   3.817   0.479   2.616  0.5784 -0.4701  0.2341
  395SOL    HW2 1506   3.849   0.462   2.457 -0.0308 -2.7337  0.3292
  396SOL     OW 1507   4.060   2.608   4.178 -0.0798  0.0090  0.2852
  396SOL    HW1 1508   4.039   2.605   4.275  1.1582  0.9046  0.6210
  396SOL    HW2 1509   4.075   2.516   4.143  0.2460 -0.2687  1.1445
  397SOL     OW 1510   1.731   5.416   0.489  0.5666  0.6004 -0.0049
  397SOL    HW1 1511   1.633   5.426   0.500  0.4618 -0.1789 -0.1444
  397SOL    HW2 1512   1.779   5.454   0.568  0.0910 -0.2258  0.6826
  398SOL     OW 1513   2.704   3.521   1.203  0.0180 -0.3548  0.4162
  398SOL    HW1 1514   2.632   3.465   1.162  1.6694 -0.8067 -2.0665
  398SOL    HW2 1515   2.717   3.604   1.150  0.3411  0.4370  1.7010
  399SOL     OW 1516   5.236   4.738   3.200 -0.4392  0.1890 -0.1120
  399SOL    HW1 1517   5.280   4.798   3.132  1.2040 -0.0492  0.6864
  399SOL    HW2 1518   5.155   4.696   3.160 -0.0742  0.8246 -1.5966
  400SOL     OW 1519   3.694   0.716   1.377 -0.3627  0.2597  0.0736
  400SOL    HW1 1520   3.597   0.710   1.398 -0.8538  0.0994 -2.0240
  400SOL    HW2 1521   3.727   0.809   1.395 -1.1428  0.5779 -0.1092
  401SOL     OW 1522   1.727   2.092   3.820  0.4646 -0.2364  0.3114
  401SOL    HW1 1523   1.668   2.020   3.856  1.4866 -1.6327 -0.7403
  401SOL    HW2 1524   1.670   2.170   3.794 -0.8133 -1.1441  0.2522
  402SOL     OW 1525   1.293   0.995   1.474  0.3396 -0.1857  0.2814
  402SOL    HW1 1526   1.294   1.050   1.558  1.0860  0.8435 -0.3692
  402SOL    HW2 1527   1.288   0.898   1.498 -2.1166  0.1509  1.4530
  403SOL     OW 1528   3.204   2.064   4.187  0.2774 -0.2090 -0.2186
  403SOL    HW1 1529   3.195   2.130   4.263 -1.7886 -1.0755  0.3729
  403SOL    HW2 1530   3.230   1.975   4.224 -1.1424 -0.7364 -0.4516
  404SOL     OW 1531   3.554   1.903   1.470  0.5754 -0.1087 -0.2421
  404SOL    HW1 1532   3.624   1.963   1.431  0.8944 -0.9862 -1.0451
  404SOL    HW2 1533   3.472   1.906   1.414  0.6923 -0.6221 -0.4527
  405SOL     OW 1534   2.249   2.238   3.672 -0.2695  0.1116  0.2718
  405SOL    HW1 1535   2.322   2.194   3.725 -0.8441  0.7012  1.5908
  405SOL    HW2 1536   2.236   2.188   3.586  2.1606  0.4005 -0.3426
  406SOL     OW 1537   3.450   4.378   4.916  0.4670 -0.0152  0.6336
  406SOL    HW1 1538   3.404   4.458   4.954 -0.2534 -1.4174  2.9507
  406SOL    HW2 1539   3.423   4.366   4.821 -1.9836  0.6926  1.1598
  407SOL     OW 1540   4.819   4.661   3.730 -0.1070 -0.1170  0.3069
  407SOL    HW1 1541   4.806   4.726   3.805 -0.2230 -0.4720  0.5960
  407SOL    HW2 1542   4.733   4.649   3.681  0.0698  0.4355 -0.1494
  408SOL     OW 1543   1.248   3.011   1.282 -0.3064 -0.2061 -0.3990
  408SOL    HW1 1544   1.149   3.027   1.275 -0.2671 -0.5273 -1.9987
  408SOL    HW2 1545   1.295   3.099   1.286 -0.7330 -0.0116  2.6431
  409SOL     OW 1546   2.624   4.755   3.132  0.0157  0.2723  0.2576
  409SOL    HW1 1547   2.639   4.851   3.109 -1.6303  0.2797 -0.9349
  409SOL    HW2 1548   2.640   4.698   3.051 -2.3166 -0.0831 -0.0147
  410SOL     OW 1549   4.655   5.157   2.162  0.1732  0.5867 -0.2163
  410SOL    HW1 1550   4.692   5.176   2.253  2.0193  1.5728 -1.1180
  410SOL    HW2 1551   4.643   5.059   2.150 -1.6033  0.5166  1.6185
  411SOL     OW 1552   2.395   4.776   3.333  0.1892 -0.7910 -0.2214
  411SOL    HW1 1553   2.466   4.768   3.263  1.1464  0.1450  0.6254
  411SOL    HW2 1554   2.436   4.771   3.424 -0.8528 -0.4252  0.2867
  412SOL     OW 1555   2.668   3.325   1.912  0.2416  0.0422 -0.2641
  412SOL    HW1 1556   2.705   3.234   1.930  0.2789 -0.5023 -2.7630
  412SOL    HW2 1557   2.593   3.344   1.976  0.8688 -1.3114  0.9181
  413SOL     OW 1558   0.449   2.660   2.849  0.4622 -0.1625  0.6001
  413SOL    HW1 1559   0.463   2.580   2.907  0.7236  0.7408  1.8390
  413SOL    HW2 1560   0.537   2.696   2.820  0.3575 -0.1752  0.2683
  414SOL     OW 1561   5.172   1.743   4.583 -0.3650 -0.0005 -0.3877
  414SOL    HW1 1562   5.220   1.828   4.604 -0.3277  0.2124 -1.2826
  414SOL    HW2 1563   5.073   1.758   4.592 -0.3804  0.2622 -0.9422
  415SOL     OW 1564   5.045   5.337   4.022 -0.0642  0.5303 -0.4438
  415SOL    HW1 1565   5.134   5.345   3.978 -0.8978  2.7593 -1.9117
  415SOL    HW2 1566   5.055   5.351   4.120  1.2805 -0.1262 -0.4613
  416SOL     OW 1567   0.612   4.856   0.714  0.1626 -0.1620 -0.3694
  416SOL    HW1 1568   0.514   4.874   0.711 -0.0593 -0.6441  2.0928
  416SOL    HW2 1569   0.631   4.769   0.669 -0.6797 -0.5155 -0.0637
  417SOL     OW 1570   3.304   1.958   2.955  0.2145 -0.0711 -0.5976
  417SOL    HW1 1571   3.315   1.923   3.048  1.5497  2.4527  0.3057
  417SOL    HW2 1572   3.209   1.985   2.941  0.1057 -0.0006  0.2253
  418SOL     OW 1573   4.235   3.715   3.081 -0.5605 -0.1010 -0.5074
  418SOL    HW1 1574   4.317   3.756   3.120 -0.9131  0.8930 -0.7543
  418SOL    HW2 1575   4.178   3.788   3.040 -1.6077 -0.7497 -0.2468
  419SOL     OW 1576   1.575   4.959   5.363 -0.1404  0.4314 -0.1620
  419SOL    HW1 1577   1.482   4.931   5.338 -0.4146 -0.1650  1.3949
  419SOL    HW2 1578   1.633   4.878   5.369  0.4105  0.7716 -0.7954
  420SOL     OW 1579   4.154   5.288   5.291 -0.1849 -0.0880 -0.8836
  420SOL    HW1 1580   4.078   5.227   5.310  1.8240 -2.3288  0.4056
  420SOL    HW2 1581   4.234   5.235   5.265  1.3815  2.0759 -0.7397
  421SOL     OW 1582   1.057   3.411   3.507 -0.0067 -0.1192 -0.1143
  421SOL    HW1 1583   1.034   3.500   3.548  0.7634  0.3132 -0.5877
  421SOL    HW2 1584   1.007   3.339   3.555  1.7583  0.2132  2.4376
  422SOL     OW 1585   5.027   4.178   0.703 -0.1892 -0.2671  0.7101
  422SOL    HW1 1586   5.065   4.136   0.785  0.3171 -0.8632  0.1808
  422SOL    HW2 1587   5.099   4.188   0.635 -0.6802 -0.0946  0.2116
  423SOL     OW 1588   3.981   3.804   5.139  0.2148  0.4427  0.4011
  423SOL    HW1 1589   3.974   3.904   5.134  0.4744  0.3970 -1.4995
  423SOL    HW2 1590   4.055   3.773   5.079  0.7328 -0.8471  1.6459
  424SOL     OW 1591   5.004   2.494   2.554  0.2537  0.1612  0.1847
  424SOL    HW1 1592   4.930   2.494   2.487 -1.0266  1.0457  1.5258
  424SOL    HW2 1593   5.087   2.459   2.512 -0.7421 -0.2220 -1.5707
  425SOL     OW 1594   3.219   2.523   3.080 -0.4793  0.1756 -0.2735
  425SOL    HW1 1595   3.165   2.606   3.074 -0.4867  0.1927  0.0073
  425SOL    HW2 1596   3.294   2.527   3.013 -0.2820  0.5534 -0.0355
  426SOL     OW 1597   2.922   3.692   4.088  0.6114 -0.2200 -0.2356
  426SOL    HW1 1598   3.001   3.687   4.027 -0.5546  0.7556 -1.9075
  426SOL    HW2 1599   2.848   3.744   4.043 -1.4940 -2.2352  0.6863
  427SOL     OW 1600   4.013   4.213   0.491  0.2979 -0.2908  0.1572
  427SOL    HW1 1601   4.043   4.160   0.412  0.4193  0.7592 -0.5161
  427SOL    HW2 1602   4.088   4.270   0.523  0.7675 -1.8544  2.0481
  428SOL     OW 1603   5.201   3.917   3.115  0.5394  0.2091  0.3802
  428SOL    HW1 1604   5.196   3.984   3.041 -1.1890  1.6912  1.7467
  428SOL    HW2 1605   5.148   3.836   3.090  2.0677 -0.4223 -0.9988
  429SOL     OW 1606   0.161   1.019   0.499  0.4265 -0.1487 -0.2057
  429SOL    HW1 1607   0.236   1.080   0.526  1.0199 -0.6951 -0.5882
  429SOL    HW2 1608   0.116   1.056   0.418 -0.5389  0.8321  0.7464
  430SOL     OW 1609   4.114   4.392   2.758  0.7553 -0.1387 -0.0395
  430SOL    HW1 1610   4.158   4.427   2.676  0.4347 -1.2460 -0.7171
  430SOL    HW2 1611   4.173   4.323   2.801  0.8347  0.2922  0.5609
  431SOL     OW 1612   4.976   2.370   4.116 -0.8363  0.4686 -0.3212
  431SOL    HW1 1613   4.877   2.359   4.124 -0.8340 -0.2088 -1.1031
  431SOL    HW2 1614   5.021   2.283   4.133 -0.3290  0.8836  0.5432
  432SOL     OW 1615   4.823   4.362   3.332 -0.0742  0.6140  0.0212
  432SOL    HW1 1616   4.896   4.387   3.396 -0.5697 -0.5641  1.0888
  432SOL    HW2 1617   4.744   4.423   3.346  1.2883  3.2261 -2.4869
  433SOL     OW 1618   0.541   0.783   5.408  0.5759  0.0298 -0.0870
  433SOL    HW1 1619   0.542   0.819   5.315 -1.5131  0.2511 -0.0735
  433SOL    HW2 1620   0.455   0.734   5.424  0.1661  1.3161  2.1785
  434SOL     OW 1621   2.120   4.918   2.325 -0.0508  0.0650  0.3081
  434SOL    HW1 1622   2.056   4.979   2.372  0.3628 -0.7247  1.9565
  434SOL    HW2 1623   2.140   4.839   2.383 -0.1244 -1.3914 -1.5338
  435SOL     OW 1624   4.063   3.763   4.700 -0.5731  0.1260  0.4462
  435SOL    HW1 1625   4.095   3.752   4.794 -1.8446  2.3056  1.2228
  435SOL    HW2 1626   4.115   3.837   4.655 -2.2542  1.5090  0.6679
  436SOL     OW 1627   2.596   0.626   1.615 -0.0684 -0.6375  0.9338
  436SOL    HW1 1628   2.551   0.608   1.528  0.9890 -0.4997  0.3466
  436SOL    HW2 1629   2.624   0.540   1.657  1.0290 -0.6141  0.2639
  437SOL     OW 1630   3.359   1.221   2.192 -0.1401 -0.5767 -0.8235
  437SOL    HW1 1631   3.388   1.203   2.098  0.7641 -0.0420 -0.6651
  437SOL    HW2 1632   3.301   1.147   2.225  0.0392 -1.0644 -1.5960
  438SOL     OW 1633   2.291   3.452   1.857  0.7027  0.1760  0.0566
  438SOL    HW1 1634   2.275   3.353   1.857  1.3297  0.0299 -1.6966
  438SOL    HW2 1635   2.214   3.499   1.899  0.9522 -1.1090  2.0626
  439SOL     OW 1636   0.999   3.969   0.398  0.3644 -0.5436 -0.3424
  439SOL    HW1 1637   1.052   4.039   0.349 -0.0276 -0.2361 -0.3360
  439SOL    HW2 1638   1.034   3.961   0.491  0.5696 -0.5250 -0.4180
  440SOL     OW 1639   4.331   2.853   3.837  0.0446 -0.5410 -0.5025
  440SOL    HW1 1640   4.417   2.899   3.816  0.4144 -1.9386 -2.3351
  440SOL    HW2 1641   4.307   2.869   3.933  2.0330  0.3479 -0.1053
  441SOL     OW 1642   0.948   2.956   4.643  0.0448 -0.4619 -0.1154
  441SOL    HW1 1643   1.007   2.925   4.569 -0.3235  2.1402 -1.6179
  441SOL    HW2 1644   0.853   2.957   4.611 -0.4984 -1.9239  1.3438
  442SOL     OW 1645   1.664   2.868   1.616  0.4568 -0.0450 -0.2035
  442SOL    HW1 1646   1.644   2.952   1.565 -0.8101 -1.9471 -3.0693
  442SOL    HW2 1647   1.761   2.847   1.607  0.4561  0.2236 -0.9270
  443SOL     OW 1648   1.124   0.369   3.025 -0.2244  0.4093  0.3712
  443SOL    HW1 1649   1.196   0.361   3.093 -0.1357 -0.2181  0.2117
  443SOL    HW2 1650   1.061   0.442   3.051  0.6776  1.2334  0.3099
  444SOL     OW 1651   5.420   2.553   2.830  0.4685 -0.1181  0.4111
  444SOL    HW1 1652   5.516   2.573   2.810  0.5547 -1.8677 -1.2190
  444SOL    HW2 1653   5.415   2.481   2.899  0.2942  0.6490  1.2090
  445SOL     OW 1654   2.370   1.577   4.806  0.3905 -0.2260  0.3306
  445SOL    HW1 1655   2.308   1.616   4.739  0.9916  0.9724  0.4341
  445SOL    HW2 1656   2.319   1.518   4.868 -0.2193 -1.1286 -0.9901
  446SOL     OW 1657   3.158   3.875   2.611  0.5947  0.5822 -0.1660
  446SOL    HW1 1658   3.128   3.791   2.567 -0.0871  0.2834  0.8307
  446SOL    HW2 1659   3.087   3.945   2.601  0.5667  0.6060  0.1864
  447SOL     OW 1660   5.146   2.775   0.565  0.1999 -0.2740 -0.3657
  447SOL    HW1 1661   5.101   2.706   0.622  0.9097 -1.1324 -0.8191
  447SOL    HW2 1662   5.087   2.800   0.489  0.0631 -0.6143 -0.3728
  448SOL     OW 1663   3.630   1.987   3.397 -0.5002  0.2489 -0.4702
  448SOL    HW1 1664   3.616   1.892   3.426 -0.8475  0.4768  0.1317
  448SOL    HW2 1665   3.685   2.035   3.466 -1.9403  0.9951  0.2127
  449SOL     OW 1666   0.607   2.554   0.112 -0.0564 -0.1186  0.2043
  449SOL    HW1 1667   0.644   2.465   0.140  0.8044  0.1532 -0.0191
  449SOL    HW2 1668   0.575   2.604   0.192  1.5651  0.2930  0.6436
  450SOL     OW 1669   0.050   4.784   2.054 -0.3447 -0.0141 -1.0366
  450SOL    HW1 1670   0.127   4.771   1.992 -1.1887  0.6666 -2.2801
  450SOL    HW2 1671  -0.021   4.839   2.008 -0.7267  1.0778  0.7734
  451SOL     OW 1672   1.333   0.337   5.210 -0.2097  0.1265 -0.0431
  451SOL    HW1 1673   1.426   0.303   5.222 -0.5043 -0.2431  1.3753
  451SOL    HW2 1674   1.325   0.428   5.251 -1.0261 -0.8037  2.0072
  452SOL     OW 1675   1.118   3.831   4.027  0.0710  0.3013 -0.5491
  452SOL    HW1 1676   1.129   3.741   4.070  4.2850  0.6700 -0.4463
  452SOL    HW2 1677   1.120   3.821   3.928  2.6683  0.3496 -0.5502
  453SOL     OW 1678   5.404   4.957   1.987  0.1087  0.5851 -0.3091
  453SOL    HW1 1679   5.311   4.962   1.951  0.7065  0.1038 -1.9782
  453SOL    HW2 1680   5.414   5.024   2.061 -1.7044  0.2657  0.2785
  454SOL     OW 1681   3.610   1.293   1.353 -0.0540 -0.5864  0.4904
  454SOL    HW1 1682   3.677   1.343   1.297 -0.4281 -2.6503 -2.0130
  454SOL    HW2 1683   3.518   1.317   1.323 -0.3356 -0.4761  1.4240
  455SOL     OW 1684   0.899   3.643   4.482  0.4171  0.5329 -0.0621
  455SOL    HW1 1685   0.984   3.685   4.448  1.1677 -0.1949  0.8810
  455SOL    HW2 1686   0.823   3.670   4.422  1.4375  0.5124 -1.4245
  456SOL     OW 1687   4.159   2.987   1.068  0.7191  0.2290 -0.2414
  456SOL    HW1 1688   4.168   2.935   0.984  0.4703 -1.6773  0.8394
  456SOL    HW2 1689   4.236   2.966   1.129 -0.9232 -1.4260  1.4555
  457SOL     OW 1690   2.763   3.606   2.770  0.0916 -0.1600  0.3829
  457SOL    HW1 1691   2.716   3.627   2.856 -0.3649  1.2678 -0.1997
  457SOL    HW2 1692   2.754   3.508   2.752 -2.9440  0.0512  0.1666
  458SOL     OW 1693   2.217   1.417   0.533  0.0801  0.0937  0.2532
  458SOL    HW1 1694   2.235   1.409   0.435  1.5604 -2.1103  0.6180
  458SOL    HW2 1695   2.150   1.348   0.560 -1.2237  1.4696  0.6349
  459SOL     OW 1696   2.593   0.623   2.102 -0.1336 -0.1217  0.2066
  459SOL    HW1 1697   2.580   0.720   2.079  1.4938 -0.1887 -1.1551
  459SOL    HW2 1698   2.690   0.606   2.117 -0.3658 -1.6376  0.0665
  460SOL     OW 1699   0.741   2.725   4.942 -0.0430 -0.2037 -0.4212
  460SOL    HW1 1700   0.714   2.713   4.847 -0.8815 -0.9540 -0.0917
  460SOL    HW2 1701   0.703   2.652   4.998  1.0972 -0.2168  0.3735
  461SOL     OW 1702   1.692   1.977   2.688 -0.9823  0.4862 -0.3710
  461SOL    HW1 1703   1.782   2.016   2.707  0.8271 -3.0224 -0.9511
  461SOL    HW2 1704   1.654   2.021   2.606  1.6674 -0.0030 -1.9769
  462SOL     OW 1705   1.999   4.280   1.926 -0.5052  0.1571 -0.0692
  462SOL    HW1 1706   1.972   4.251   2.018  0.9093  0.1611  0.3783
  462SOL    HW2 1707   2.035   4.373   1.930 -0.0819  0.0182 -0.5474
  463SOL     OW 1708   4.522   0.278   0.618 -0.2173  0.1268 -0.1333
  463SOL    HW1 1709   4.436   0.293   0.568  0.5636  0.4584 -1.4167
  463SOL    HW2 1710   4.593   0.249   0.555  0.6181 -0.2260  0.9304
  464SOL     OW 1711   3.033   2.548   3.855  0.1657  0.0431  0.4391
  464SOL    HW1 1712   3.034   2.622   3.922 -0.8164  1.3025 -0.8837
  464SOL    HW2 1713   3.002   2.464   3.899 -4.4578  1.6898  0.8537
  465SOL     OW 1714   0.360   3.053   4.845 -0.1062  0.1026  0.2144
  465SOL    HW1 1715   0.420   3.128   4.819 -1.8958  1.0543 -1.4708
  465SOL    HW2 1716   0.339   3.059   4.943  1.3554  0.5925  0.5087
  466SOL     OW 1717   3.432   2.162   4.983  0.5648  0.0337  0.5119
  466SOL    HW1 1718   3.509   2.105   5.011  0.6629 -0.1867 -0.1773
  466SOL    HW2 1719   3.464   2.254   4.963  0.8405 -0.3060 -0.7197
  467SOL     OW 1720   3.011   5.108   0.197 -0.4671  0.0157 -0.0996
  467SOL    HW1 1721   2.951   5.080   0.272 -0.5441  1.4992  0.4289
  467SOL    HW2 1722   3.084   5.167   0.232  0.1551 -0.1609 -1.0378
  468SOL     OW 1723   3.093   4.849   4.861  0.0922  0.4456  0.6012
  468SOL    HW1 1724   3.008   4.828   4.811  0.5527 -0.4750  0.1853
  468SOL    HW2 1725   3.168   4.857   4.796  0.6802 -0.6693  1.1143
  469SOL     OW 1726   5.558   3.135   0.100 -0.3577  0.2634  0.4526
  469SOL    HW1 1727   5.469   3.112   0.060  0.3675 -1.2782 -0.3675
  469SOL    HW2 1728   5.584   3.064   0.166 -0.2878  1.3574  1.6296
  470SOL     OW 1729   0.482   2.559   4.925  0.0941 -0.1672  0.6647
  470SOL    HW1 1730   0.425   2.521   4.997 -0.7724  0.7864  0.5080
  470SOL    HW2 1731   0.490   2.494   4.850  0.9284 -1.1296  1.5670
  471SOL     OW 1732   0.697   4.012   4.354  0.0120  0.4597  0.2172
  471SOL    HW1 1733   0.731   4.029   4.446 -0.2303  2.8186 -0.0714
  471SOL    HW2 1734   0.773   3.980   4.296  0.4480  0.2107  0.9185
  472SOL     OW 1735   4.427   1.862   4.258  0.0126 -0.6823  0.5151
  472SOL    HW1 1736   4.331   1.890   4.269  0.6028  1.1085  1.3930
  472SOL    HW2 1737   4.484   1.912   4.323  1.5299 -1.9725  0.2421
  473SOL     OW 1738   3.330   3.678   4.301 -0.0080  0.0812 -0.4346
  473SOL    HW1 1739   3.351   3.689   4.204 -0.0770 -1.2079 -0.6080
  473SOL    HW2 1740   3.232   3.685   4.316 -0.0347 -0.1203 -0.5166
  474SOL     OW 1741   0.648   3.661   2.170 -0.6103 -0.2385 -0.0183
  474SOL    HW1 1742   0.725   3.633   2.228  0.4070  1.1605 -0.6262
  474SOL    HW2 1743   0.658   3.758   2.146 -2.1706 -0.2277 -0.7489
  475SOL     OW 1744   4.884   4.146   4.835  0.0925 -0.3286 -0.0186
  475SOL    HW1 1745   4.928   4.225   4.880 -0.8891  0.4153 -0.3234
  475SOL    HW2 1746   4.915   4.140   4.741  2.8391 -2.4210  0.9071
  476SOL     OW 1747   4.613   5.243   1.734 -1.1784  0.4536 -0.1603
  476SOL    HW1 1748   4.586   5.299   1.812 -1.4800 -0.7794  0.6671
  476SOL    HW2 1749   4.539   5.181   1.710 -0.2525 -0.8066  0.1115
  477SOL     OW 1750   2.421   3.696   1.764  0.2001  0.3418 -0.3769
  477SOL    HW1 1751   2.374   3.608   1.761 -1.2266  1.0908 -1.3589
  477SOL    HW2 1752   2.449   3.716   1.857 -0.7043 -0.5092  0.0973
  478SOL     OW 1753   4.305   2.856   5.326  0.0881 -0.5436 -0.6052
  478SOL    HW1 1754   4.310   2.761   5.357  0.5855 -0.7832 -1.3964
  478SOL    HW2 1755   4.317   2.917   5.404 -0.8252 -1.1246  0.0015
  479SOL     OW 1756   4.031   2.520   3.813  0.1664  0.1015  0.3350
  479SOL    HW1 1757   3.986   2.610   3.813  0.1124  0.1328 -2.3015
  479SOL    HW2 1758   4.058   2.497   3.907  0.6518  3.1077  1.0497
  480SOL     OW 1759   2.405   0.554   4.265  0.3289 -0.3137 -0.0018
  480SOL    HW1 1760   2.451   0.561   4.354  2.5611 -0.6441 -1.0690
  480SOL    HW2 1761   2.470   0.573   4.192 -1.8469  1.5843 -1.5675
  481SOL     OW 1762   2.622   5.189   4.108  0.4558  0.1954  0.0169
  481SOL    HW1 1763   2.556   5.213   4.037 -1.2192 -1.9477  0.7616
  481SOL    HW2 1764   2.588   5.113   4.162  2.9369 -0.0738  1.3792
  482SOL     OW 1765   1.384   3.132   2.897  0.7599 -0.0463 -0.2152
  482SOL    HW1 1766   1.306   3.192   2.882  1.1777  0.6836  0.4372
  482SOL    HW2 1767   1.444   3.134   2.817  2.1039  2.4735  0.7550
  483SOL     OW 1768   2.267   3.518   5.271 -0.0216 -0.2158 -0.1189
  483SOL    HW1 1769   2.222   3.439   5.312 -0.3805  0.2808  0.4531
  483SOL    HW2 1770   2.332   3.557   5.336 -0.4401  0.4496 -0.0947
  484SOL     OW 1771   0.857   1.367   3.123  0.0941  0.2935  0.5822
  484SOL    HW1 1772   0.766   1.406   3.114 -1.0107 -1.5212  2.8895
  484SOL    HW2 1773   0.870   1.295   3.054  0.2792  1.3437 -0.5106
  485SOL     OW 1774   1.863   4.697   4.399 -0.1124 -0.1791 -0.0748
  485SOL    HW1 1775   1.875   4.795   4.389  0.4854 -0.1733  0.6664
  485SOL    HW2 1776   1.765   4.677   4.411 -0.6959 -0.0145 -3.6466
  486SOL     OW 1777   5.518   1.446   0.189 -0.1578  0.4082  0.3499
  486SOL    HW1 1778   5.454   1.488   0.125 -2.1430 -1.4977  0.9487
  486SOL    HW2 1779   5.566   1.371   0.143 -2.1082 -1.4320  1.1680
  487SOL     OW 1780   3.493   2.152   3.783  0.1879  0.3385 -0.3979
  487SOL    HW1 1781   3.517   2.214   3.709  0.3976  1.5482  0.6590
  487SOL    HW2 1782   3.534   2.183   3.868 -2.8962  1.0087  0.9792
  488SOL     OW 1783   3.920   5.087   1.202 -0.0405 -0.3766 -1.0179
  488SOL    HW1 1784   3.986   5.079   1.277 -1.1502 -1.0114 -0.0717
  488SOL    HW2 1785   3.946   5.162   1.142  0.6175  0.4580  0.2698
  489SOL     OW 1786   1.326   0.348   1.080 -0.1908  0.0812 -0.2377
  489SOL    HW1 1787   1.382   0.278   1.037  0.7510  1.0408 -0.6048
  489SOL    HW2 1788   1.292   0.411   1.011 -0.5859  0.3027  0.1536
  490SOL     OW 1789   5.517   5.068   2.870 -0.9858 -0.1308  0.5607
  490SOL    HW1 1790   5.479   5.011   2.943 -2.7159  0.5975  0.2925
  490SOL    HW2 1791   5.445   5.128   2.834  0.7103  2.1395  0.7336
  491SOL     OW 1792   2.892   1.080   2.327  0.1404 -0.6463 -0.6764
  491SOL    HW1 1793   2.933   1.010   2.268  1.4122 -0.1128 -0.4619
  491SOL    HW2 1794   2.800   1.051   2.354 -0.2642 -1.1356 -2.4830
  492SOL     OW 1795   3.981   1.653   0.314 -0.1055  0.3176  0.2407
  492SOL    HW1 1796   4.004   1.700   0.229 -0.8791  0.4900  0.1167
  492SOL    HW2 1797   4.044   1.576   0.328 -1.8425 -1.6979 -2.1323
  493SOL     OW 1798   3.049   0.075   3.520 -0.2931  0.5334 -0.8779
  493SOL    HW1 1799   3.017   0.169   3.514  0.8605  1.0592  0.5892
  493SOL    HW2 1800   3.003   0.028   3.595  1.0946  0.7919  0.1714
  494SOL     OW 1801   4.634   3.031   1.229  0.0783  0.5847  0.2692
  494SOL    HW1 1802   4.727   2.992   1.231  1.3852  3.2943 -1.3822
  494SOL    HW2 1803   4.621   3.081   1.144 -2.4840  1.3540  1.0263
  495SOL     OW 1804   4.152   4.406   4.429 -0.5767  0.0676 -0.3527
  495SOL    HW1 1805   4.244   4.441   4.451 -0.1463 -1.6086  0.6748
  495SOL    HW2 1806   4.117   4.354   4.506 -2.1099  0.0511 -1.0264
  496SOL     OW 1807   0.956   3.607   2.037 -0.1142  0.1878  0.4552
  496SOL    HW1 1808   1.052   3.632   2.027  0.2272 -0.8686  0.8734
  496SOL    HW2 1809   0.931   3.611   2.134 -0.9060  1.8412  0.2025
  497SOL     OW 1810   1.150   2.755   2.202  0.4248  0.1316 -0.4736
  497SOL    HW1 1811   1.123   2.852   2.201  1.1215  0.3483  0.6280
  497SOL    HW2 1812   1.122   2.713   2.116  1.7013  1.7617 -1.7675
  498SOL     OW 1813   2.067   3.498   1.545 -0.4774  0.1539 -0.2879
  498SOL    HW1 1814   2.055   3.573   1.610 -2.7722  0.0461 -0.5086
  498SOL    HW2 1815   2.143   3.520   1.483 -0.4681  1.8418  0.2629
  499SOL     OW 1816   5.095   4.948   4.341  0.4800  0.1089 -0.4098
  499SOL    HW1 1817   5.120   4.853   4.323  0.3967  0.1921 -1.0070
  499SOL    HW2 1818   4.996   4.953   4.357  0.2149  0.2885 -1.9406
  500SOL     OW 1819   0.735   3.324   0.222 -0.1707 -0.0611 -0.0120
  500SOL    HW1 1820   0.754   3.404   0.280  1.0554 -0.2436 -0.1412
  500SOL    HW2 1821   0.810   3.311   0.157 -1.8052  0.5160 -2.1114
  501SOL     OW 1822   2.502   1.318   4.001 -0.4457 -0.0150 -0.0786
  501SOL    HW1 1823   2.408   1.350   4.011 -0.3290  0.1200  0.6484
  501SOL    HW2 1824   2.503   1.220   3.982 -0.7103 -0.1778  0.7230
  502SOL     OW 1825   4.939   3.141   4.345  0.4564  0.4098 -0.5995
  502SOL    HW1 1826   4.983   3.101   4.264  0.0193 -2.1042  0.2998
  502SOL    HW2 1827   4.857   3.089   4.367 -0.2974  2.0281  0.5838
  503SOL     OW 1828   5.299   1.140   2.388  0.7103  0.5654 -0.2693
  503SOL    HW1 1829   5.248   1.186   2.315  0.0199 -0.2235 -0.2945
  503SOL    HW2 1830   5.298   1.198   2.470  0.0587  0.7080 -0.3746
  504SOL     OW 1831   4.483   3.611   0.751 -0.2657  0.1936  0.5927
  504SOL    HW1 1832   4.403   3.668   0.732 -1.3785 -1.2025  0.9087
  504SOL    HW2 1833   4.521   3.578   0.665 -1.1252 -0.5477  0.4744
  505SOL     OW 1834   1.567   1.371   0.481 -0.2011 -0.0020 -0.0616
  505SOL    HW1 1835   1.508   1.441   0.441  0.7531  0.2688 -1.0321
  505SOL    HW2 1836   1.514   1.288   0.497 -1.3782  0.9459  1.2028
  506SOL     OW 1837   3.770   4.884   1.822  0.2027 -0.5876  0.4366
  506SOL    HW1 1838   3.774   4.788   1.797 -0.2547 -0.3612 -0.5286
  506SOL    HW2 1839   3.679   4.920   1.805  0.5035  0.1398  0.3096
  507SOL     OW 1840   3.751   3.140   1.028 -0.5407  0.1742 -0.2240
  507SOL    HW1 1841   3.655   3.132   1.053 -0.6879  0.4034 -0.7144
  507SOL    HW2 1842   3.760   3.153   0.929 -0.0772  1.2962 -0.0578
  508SOL     OW 1843   4.542   3.237   5.150 -0.5807  0.4283 -0.3587
  508SOL    HW1 1844   4.524   3.204   5.057  0.4025  0.8483 -0.7035
  508SOL    HW2 1845   4.477   3.309   5.173 -0.7717  0.3824 -0.7501
  509SOL     OW 1846   2.831   3.693   0.469  0.2151 -0.0879  0.4047
  509SOL    HW1 1847   2.748   3.639   0.456 -0.3749  0.9892 -0.4948
  509SOL    HW2 1848   2.818   3.757   0.544  0.1889  0.1381  0.2106
  510SOL     OW 1849   3.264   3.416   1.964 -0.0461 -0.1313  1.2351
  510SOL    HW1 1850   3.333   3.430   2.035  0.5580 -0.7729  0.7940
  510SOL    HW2 1851   3.308   3.426   1.874 -0.9949  1.6573  0.9223
  511SOL     OW 1852   3.206   1.035   0.967  1.0975 -0.1078 -0.1012
  511SOL    HW1 1853   3.294   0.989   0.979  1.2257  0.5513  1.7527
  511SOL    HW2 1854   3.211   1.127   1.006  0.0541  0.5479 -1.4276
  512SOL     OW 1855   2.294   5.093   5.353 -0.1350 -0.4895 -0.3256
  512SOL    HW1 1856   2.298   5.169   5.418 -1.5815 -2.0155  1.6721
  512SOL    HW2 1857   2.281   5.007   5.403  0.9451 -2.0316 -2.5298
  513SOL     OW 1858   2.757   3.216   2.636  0.0009 -0.7015  0.3342
  513SOL    HW1 1859   2.712   3.194   2.550  0.6120 -0.2067 -0.1223
  513SOL    HW2 1860   2.821   3.292   2.622 -2.3160  1.7171  1.8995
  514SOL     OW 1861   0.265   3.652   3.700  0.0160 -0.2203 -0.1082
  514SOL    HW1 1862   0.213   3.679   3.781  0.2702  1.2175 -0.3829
  514SOL    HW2 1863   0.292   3.735   3.650  1.7776 -0.9754 -0.4616
  515SOL     OW 1864   0.898  -0.006   1.637 -0.1768  0.0210 -0.5597
  515SOL    HW1 1865   0.844   0.071   1.606  0.1052  0.3866 -0.1586
  515SOL    HW2 1866   0.961   0.024   1.709 -1.8201 -1.0703  1.4568
  516SOL     OW 1867   1.853   3.774   1.659  0.1646 -0.1591  0.4536
  516SOL    HW1 1868   1.818   3.784   1.752  0.7611  0.1342  0.6529
  516SOL    HW2 1869   1.777   3.755   1.596 -0.4464  1.1596  0.7622
  517SOL     OW 1870   3.471   5.350   0.068 -0.2751  0.1353  0.0804
  517SOL    HW1 1871   3.467   5.271   0.129  0.1988 -0.9914 -1.2910
  517SOL    HW2 1872   3.488   5.319  -0.026  1.3430  1.9684 -0.2930
  518SOL     OW 1873   4.429   1.024   2.631  0.2990  0.6231  0.0609
  518SOL    HW1 1874   4.442   0.932   2.595 -0.7148  0.2510  0.6237
  518SOL    HW2 1875   4.518   1.066   2.648  0.7693 -0.3099 -0.0575
  519SOL     OW 1876   2.933   1.827   5.487  0.4179  0.4939 -0.3036
  519SOL    HW1 1877   2.998   1.902   5.501  0.7951  0.4194 -1.5725
  519SOL    HW2 1878   2.844   1.865   5.462  0.1385  0.5657  0.7379
  520SOL     OW 1879   1.202   2.397   3.307 -0.2961  0.1460 -0.1121
  520SOL    HW1 1880   1.231   2.302   3.319 -0.8769 -0.2464 -1.5672
  520SOL    HW2 1881   1.116   2.400   3.255  0.0521  1.4866 -0.6707
  521SOL     OW 1882   4.671   0.384   3.183 -0.5740  0.1333  0.1548
  521SOL    HW1 1883   4.615   0.431   3.116 -0.0927  0.1754 -0.2188
  521SOL    HW2 1884   4.687   0.290   3.153 -0.3236  0.1645  0.1891
  522SOL     OW 1885   5.024   1.835   0.031 -0.4159  0.1367  0.3568
  522SOL    HW1 1886   5.120   1.819   0.051 -0.0545  0.3715 -1.1001
  522SOL    HW2 1887   4.978   1.871   0.113  0.8613  0.6405  0.8688
  523SOL     OW 1888   1.196   3.207   0.204 -0.4772 -0.9547 -0.4350
  523SOL    HW1 1889   1.226   3.299   0.228 -2.6055 -0.1507 -0.6327
  523SOL    HW2 1890   1.271   3.158   0.161  0.5406  0.9007 -0.8942
  524SOL     OW 1891   0.764   4.983   1.798  0.3739 -0.1169 -0.2014
  524SOL    HW1 1892   0.736   4.970   1.703 -0.5016  2.4269 -0.3664
  524SOL    HW2 1893   0.682   4.994   1.855  0.9257  1.3451  0.3414
  525SOL     OW 1894   0.977   1.566   3.491  0.1200 -0.0685  0.6895
  525SOL    HW1 1895   0.879   1.567   3.511  0.0655  0.1373  0.4207
  525SOL    HW2 1896   1.014   1.659   3.502 -0.1865  0.3558 -1.4774
  526SOL     OW 1897   3.286   1.600   4.545 -0.2554 -0.2274 -0.1301
  526SOL    HW1 1898   3.269   1.678   4.606  1.2841  0.8699 -1.0593
  526SOL    HW2 1899   3.217   1.599   4.473 -0.2461  0.3280 -0.1545
  527SOL     OW 1900   1.167   1.800   3.581 -0.3771  0.3108  0.3853
  527SOL    HW1 1901   1.206   1.772   3.493 -0.3692 -0.3112  0.5880
  527SOL    HW2 1902   1.144   1.898   3.577 -0.9600  0.1493 -0.5184
  528SOL     OW 1903   5.065   4.776   3.707 -0.3566  0.3103 -0.7110
  528SOL    HW1 1904   5.098   4.774   3.613  1.7599 -2.7203 -0.0589
  528SOL    HW2 1905   4.977   4.729   3.712  0.0855 -0.5731 -1.0289
  529SOL     OW 1906   5.267   1.170   4.724  0.0686  0.0409 -0.3686
  529SOL    HW1 1907   5.209   1.248   4.699 -0.1834 -0.0642 -0.1070
  529SOL    HW2 1908   5.337   1.157   4.653 -0.8067 -0.4205 -1.1738
  530SOL     OW 1909   3.026   5.200   1.976 -0.4987  0.6936  0.0198
  530SOL    HW1 1910   3.120   5.231   1.987 -0.5178  0.8734 -0.3116
  530SOL    HW2 1911   3.015   5.110   2.019 -0.2501  0.7977  0.3033
  531SOL     OW 1912   4.347   1.173   1.477 -0.1350  0.2630 -0.1399
  531SOL    HW1 1913   4.306   1.196   1.565 -1.2665 -1.3983 -0.1841
  531SOL    HW2 1914   4.444   1.196   1.478  0.2782 -1.3015  2.1843
  532SOL     OW 1915   1.322   5.308   1.055  0.0922 -0.0636  0.0449
  532SOL    HW1 1916   1.269   5.363   0.990  0.0386 -1.6403 -1.3443
  532SOL    HW2 1917   1.420   5.319   1.036  0.0743 -0.5786 -0.3884
  533SOL     OW 1918   2.899   3.307   4.411  0.1474  0.0918 -0.3555
  533SOL    HW1 1919   2.996   3.308   4.435 -0.0521 -3.9745  1.3994
  533SOL    HW2 1920   2.888   3.274   4.317  0.4479 -1.5296  0.1603
  534SOL     OW 1921   1.547   1.587   2.536 -0.4168  0.2082  0.1397
  534SOL    HW1 1922   1.520   1.666   2.591  2.3891  1.6246 -0.3504
  534SOL    HW2 1923   1.558   1.614   2.441 -0.6431 -1.0970 -0.2812
  535SOL     OW 1924   3.090   3.152   2.651  0.0852  0.5264  0.1316
  535SOL    HW1 1925   3.015   3.217   2.653 -0.2266  0.1692  0.2492
  535SOL    HW2 1926   3.149   3.171   2.572  0.5134  1.5067  0.6809
  536SOL     OW 1927   5.248   0.827   1.617  0.2707 -0.3416  0.1163
  536SOL    HW1 1928   5.347   0.841   1.614  0.5228 -2.0635 -1.0185
  536SOL    HW2 1929   5.204   0.883   1.546  0.4268  0.2949  0.5107
  537SOL     OW 1930   3.527   4.664   4.743  0.3103 -0.1187  0.2891
  537SOL    HW1 1931   3.440   4.623   4.768  0.9213 -0.2842  2.3169
  537SOL    HW2 1932   3.512   4.736   4.675 -1.2736 -0.7939 -0.1010
  538SOL     OW 1933   1.454   2.101   3.599  0.2846 -0.0718  0.6956
  538SOL    HW1 1934   1.489   2.163   3.670  3.0897 -1.0979  0.3577
  538SOL    HW2 1935   1.463   2.007   3.631  0.8877 -0.5086 -0.6830
  539SOL     OW 1936   2.174   2.566   0.050  0.1980 -0.0476 -0.3142
  539SOL    HW1 1937   2.134   2.503  -0.017 -1.5682  0.4933  0.1853
  539SOL    HW2 1938   2.273   2.557   0.048  0.1370 -0.8105 -2.2404
  540SOL     OW 1939   4.185   2.132   5.376 -0.1192  0.1702 -0.5210
  540SOL    HW1 1940   4.149   2.159   5.287  2.0133  1.1538 -1.1527
  540SOL    HW2 1941   4.261   2.068   5.364 -0.1726 -0.1364  0.6315
  541SOL     OW 1942   4.436   4.773   4.832  0.4272 -0.5072  0.0096
  541SOL    HW1 1943   4.525   4.738   4.803  2.0707  2.2809  1.3127
  541SOL    HW2 1944   4.395   4.825   4.757 -0.1634 -1.7940 -0.5919
  542SOL     OW 1945   3.060   0.386   0.069  0.1531 -0.0242 -0.0121
  542SOL    HW1 1946   3.061   0.474   0.117 -1.0001 -1.0840  2.0940
  542SOL    HW2 1947   3.062   0.312   0.136  1.7340 -1.6427 -1.7495
  543SOL     OW 1948   1.080   4.545   4.250  0.5843 -0.7107  0.7655
  543SOL    HW1 1949   1.070   4.480   4.175 -0.1650 -2.1407  2.0667
  543SOL    HW2 1950   1.000   4.604   4.253  1.3950  0.5525 -0.5996
  544SOL     OW 1951   1.896   1.546   4.400  0.7815 -0.3515  0.4457
  544SOL    HW1 1952   1.915   1.497   4.315 -0.6730 -1.4925  0.7415
  544SOL    HW2 1953   1.903   1.645   4.384  1.0659 -0.5639 -0.8457
  545SOL     OW 1954   2.668   4.624   4.449 -0.1744  0.0837 -0.2951
  545SOL    HW1 1955   2.645   4.700   4.509 -2.5977 -1.6654  1.1775
  545SOL    HW2 1956   2.757   4.586   4.475  0.1938  1.2352  0.1603
  546SOL     OW 1957   4.217   4.771   4.287  0.3531 -0.0948 -0.0391
  546SOL    HW1 1958   4.145   4.727   4.233  1.1140  0.9559 -2.0066
  546SOL    HW2 1959   4.227   4.723   4.374 -1.8478 -1.0313 -0.2414
  547SOL     OW 1960   1.805   2.664   3.681  0.4341 -0.0545 -0.1650
  547SOL    HW1 1961   1.896   2.622   3.684  0.3541 -0.9918 -4.6169
  547SOL    HW2 1962   1.813   2.762   3.699  2.5632  0.0600 -1.3949
  548SOL     OW 1963   0.703   1.606   4.498 -0.3526 -0.0471 -0.0956
  548SOL    HW1 1964   0.721   1.561   4.411 -1.0437  0.3466 -0.4544
  548SOL    HW2 1965   0.688   1.537   4.569 -0.4552 -0.3725 -0.4300
  549SOL     OW 1966   1.257   0.276   0.369  0.1051  0.1040 -0.5777
  549SOL    HW1 1967   1.282   0.193   0.320 -0.4733  1.2639 -2.9970
  549SOL    HW2 1968   1.339   0.332   0.383  0.1408  0.2231 -1.1961
  550SOL     OW 1969   3.294   5.243   2.072  0.1615 -0.7862  0.0759
  550SOL    HW1 1970   3.342   5.205   2.151  3.1806 -0.7740 -1.5943
  550SOL    HW2 1971   3.259   5.334   2.095  2.2848 -0.1459  1.0287
  551SOL     OW 1972   0.885   0.869   0.284 -0.1790  0.2669 -0.1140
  551SOL    HW1 1973   0.948   0.928   0.233 -1.5836  0.6581 -1.4760
  551SOL    HW2 1974   0.793   0.876   0.244 -1.0147 -0.5963  1.5543
  552SOL     OW 1975   5.056   2.488   0.856  0.0339  0.3532 -0.1366
  552SOL    HW1 1976   5.001   2.536   0.787  1.5013  1.3987 -0.6336
  552SOL    HW2 1977   5.153   2.497   0.833  0.6141  1.1001  2.2866
  553SOL     OW 1978   0.112   4.453   4.888 -0.0129 -0.2092 -0.7438
  553SOL    HW1 1979   0.093   4.551   4.882  2.2812  0.3419  0.0357
  553SOL    HW2 1980   0.206   4.435   4.859  0.1715 -1.9433  0.7255
  554SOL     OW 1981   3.975   1.930   4.602  0.2215 -0.9459 -0.3883
  554SOL    HW1 1982   3.961   1.833   4.622  1.2972 -1.3453 -1.4575
  554SOL    HW2 1983   4.073   1.947   4.589 -0.1500 -0.1630 -2.3904
  555SOL     OW 1984   1.580   0.484   0.091  0.1586 -0.3850 -0.3719
  555SOL    HW1 1985   1.651   0.415   0.075 -0.3168 -1.2492  0.9866
  555SOL    HW2 1986   1.490   0.444   0.071 -0.2223 -0.6323  1.6124
  556SOL     OW 1987   2.364   3.499   2.314 -0.3832 -0.9300 -0.1913
  556SOL    HW1 1988   2.463   3.487   2.325  0.4030  2.5436 -1.9542
  556SOL    HW2 1989   2.323   3.523   2.402  1.4295  2.8460 -0.1526
  557SOL     OW 1990   2.143   1.404   2.231 -0.0716  0.2859 -0.0962
  557SOL    HW1 1991   2.083   1.481   2.253 -0.3849 -0.3587  1.4737
  557SOL    HW2 1992   2.117   1.366   2.142  0.7429  2.5638 -1.3909
  558SOL     OW 1993   0.306   3.007   2.556 -0.4913 -0.3712  0.5627
  558SOL    HW1 1994   0.383   3.037   2.501 -1.8206  0.6923 -0.8033
  558SOL    HW2 1995   0.262   2.928   2.513 -0.5331 -0.6061  1.0190
  559SOL     OW 1996   0.857   4.737   4.324  0.3085  0.4245  0.4120
  559SOL    HW1 1997   0.833   4.800   4.398 -0.9508  0.4663 -0.0133
  559SOL    HW2 1998   0.777   4.721   4.267  0.9669 -0.5244 -0.2666
  560SOL     OW 1999   0.161   2.320   3.285 -0.1253 -0.2391 -0.1095
  560SOL    HW1 2000   0.176   2.224   3.265 -0.9297 -0.2197 -0.8374
  560SOL    HW2 2001   0.068   2.333   3.320  0.2235  0.1732  0.6933
  561SOL     OW 2002   0.435   1.927   2.708 -0.1160 -0.0918  0.1593
  561SOL    HW1 2003   0.338   1.944   2.727  0.0006  0.1529  0.5564
  561SOL    HW2 2004   0.477   1.884   2.788  0.2164  0.2604  0.1748
  562SOL     OW 2005   1.445   5.522   3.545  0.3751  0.6214 -0.5553
  562SOL    HW1 2006   1.528   5.469   3.532  0.1100  0.3383 -1.1701
  562SOL    HW2 2007   1.407   5.547   3.455 -0.6874 -0.0332 -0.3117
  563SOL     OW 2008   0.971   4.866   4.611  0.0733 -0.6065 -0.0237
  563SOL    HW1 2009   0.887   4.909   4.579 -0.4586 -1.5735  0.0418
  563SOL    HW2 2010   1.049   4.909   4.566 -0.4645  0.1271 -0.2807
  564SOL     OW 2011   2.556   1.544   1.731  1.4484  0.1622  0.3660
  564SOL    HW1 2012   2.498   1.541   1.812  1.2709 -0.9965  0.2238
  564SOL    HW2 2013   2.652   1.542   1.758  1.4433  1.8247  0.5937
  565SOL     OW 2014   2.999   3.842   0.808  0.1085 -0.6005 -0.6108
  565SOL    HW1 2015   3.001   3.751   0.768  0.3535  0.0091 -2.0462
  565SOL    HW2 2016   3.087   3.887   0.794  0.1719 -0.3197  0.5553
  566SOL     OW 2017   0.201   1.167   1.107  0.5539  0.8854  0.4799
  566SOL    HW1 2018   0.216   1.077   1.147 -0.8740  0.1562 -0.5406
  566SOL    HW2 2019   0.167   1.157   1.014  1.1372  2.5028  0.0571
  567SOL     OW 2020   2.129   4.990   2.050  0.0688 -0.5421  0.0284
  567SOL    HW1 2021   2.123   4.971   2.148 -0.9400 -2.9740 -0.4295
  567SOL    HW2 2022   2.210   4.944   2.012  0.2514  0.0758 -0.3424
  568SOL     OW 2023   2.570   5.061   4.731  0.7183 -0.3620 -0.2594
  568SOL    HW1 2024   2.595   5.037   4.825  0.3687  0.4051  0.0449
  568SOL    HW2 2025   2.598   5.155   4.713 -0.7255  0.0736 -0.3442
  569SOL     OW 2026   3.751   1.194   3.473  0.0980 -0.0881  0.5134
  569SOL    HW1 2027   3.701   1.127   3.418 -2.0871  2.3753 -0.7247
  569SOL    HW2 2028   3.708   1.203   3.563  1.3787 -1.4268  1.2955
  570SOL     OW 2029   3.693   2.147   1.933  0.4007  0.0877  0.6834
  570SOL    HW1 2030   3.674   2.208   2.010 -1.0777  0.4086  0.1016
  570SOL    HW2 2031   3.787   2.160   1.903  0.3328  1.5676  1.0396
  571SOL     OW 2032   2.189   3.554   0.827  0.6404 -0.0264 -0.0045
  571SOL    HW1 2033   2.091   3.576   0.830  0.8649  1.1927 -0.8199
  571SOL    HW2 2034   2.205   3.466   0.872 -0.9869 -0.7942 -0.8292
  572SOL     OW 2035   4.296   2.009   1.401 -0.6247 -0.4235 -0.0294
  572SOL    HW1 2036   4.324   1.922   1.361  0.7526 -0.2435  0.5123
  572SOL    HW2 2037   4.297   2.002   1.501  0.7243  0.5688  0.0470
  573SOL     OW 2038   5.257   3.053   4.755  0.6152  0.2771 -0.2031
  573SOL    HW1 2039   5.254   2.972   4.696  0.8604  0.1433 -0.0314
  573SOL    HW2 2040   5.320   3.037   4.831 -0.7432 -0.0974  0.8983
  574SOL     OW 2041   1.715   1.175   2.981  0.2379  0.1554  0.5104
  574SOL    HW1 2042   1.642   1.206   2.920  0.3265 -0.5164  0.0518
  574SOL    HW2 2043   1.803   1.201   2.942  0.3241 -0.9073 -0.0209
  575SOL     OW 2044   5.285   4.791   1.042 -0.0043 -0.3655 -0.3151
  575SOL    HW1 2045   5.246   4.865   1.097  0.3536 -0.6226  0.3018
  575SOL    HW2 2046   5.295   4.710   1.099  3.6611  0.3506  0.3161
  576SOL     OW 2047   0.670   2.218   3.566  0.3136  0.4141  0.4981
  576SOL    HW1 2048   0.599   2.285   3.585  1.4101  1.4616  1.0184
  576SOL    HW2 2049   0.628   2.134   3.530 -1.1526  1.0411  0.6813
  577SOL     OW 2050   3.511   4.673   2.731  0.3382 -0.0015 -0.1078
  577SOL    HW1 2051   3.532   4.646   2.637 -2.0292  0.1257 -0.7524
  577SOL    HW2 2052   3.435   4.617   2.765 -0.1090  1.2420  1.0203
  578SOL     OW 2053   3.846   1.348   3.112  0.5945 -0.6824  0.0754
  578SOL    HW1 2054   3.788   1.373   3.190 -0.9475  0.8043 -1.4626
  578SOL    HW2 2055   3.836   1.416   3.040  1.6645 -2.2222 -1.6091
  579SOL     OW 2056   2.447   3.454   1.102 -0.7282 -0.5842  0.2510
  579SOL    HW1 2057   2.401   3.381   1.052  0.3266 -1.4740  0.5390
  579SOL    HW2 2058   2.412   3.542   1.072 -2.2448 -1.1955  0.0952
  580SOL     OW 2059   0.988   1.070   4.580 -0.7508  0.6933 -0.0210
  580SOL    HW1 2060   1.021   1.149   4.529  0.1447  0.4715  0.1880
  580SOL    HW2 2061   0.986   1.092   4.677 -0.8229  0.5727  0.0043
  581SOL     OW 2062   2.073   3.995   3.512 -0.0613 -0.2501 -0.1694
  581SOL    HW1 2063   2.155   3.954   3.552 -0.0266  0.4321  0.4739
  581SOL    HW2 2064   2.096   4.082   3.469 -0.4088 -0.1732 -0.2055
  582SOL     OW 2065   0.377   0.570   2.584 -0.1093 -0.6626  0.2834
  582SOL    HW1 2066   0.308   0.497   2.583 -0.6089 -0.1931 -0.2721
  582SOL    HW2 2067   0.468   0.529   2.591 -0.4154 -1.3150  0.5560
  583SOL     OW 2068   2.693   3.421   2.362  0.3771  0.2977  0.4031
  583SOL    HW1 2069   2.645   3.473   2.433 -2.1215  0.8031 -1.5136
  583SOL    HW2 2070   2.657   3.328   2.359 -1.9720  1.1513 -2.1809
  584SOL     OW 2071   3.017   2.929   4.212  0.2815  0.2854  0.3816
  584SOL    HW1 2072   3.114   2.955   4.217  0.3458  0.4330 -1.1612
  584SOL    HW2 2073   2.977   2.935   4.303  1.8812 -0.4168  1.1761
  585SOL     OW 2074   0.979   1.435   0.006 -0.1054 -0.7425  0.3264
  585SOL    HW1 2075   1.040   1.359   0.028 -1.9409 -2.2428  0.4847
  585SOL    HW2 2076   1.027   1.522   0.020  1.6307 -1.8219  1.4236
  586SOL     OW 2077   0.355   1.072   5.516  0.1080 -0.1384  0.1664
  586SOL    HW1 2078   0.417   1.111   5.448  0.7081 -1.9907 -0.4106
  586SOL    HW2 2079   0.294   1.007   5.471  0.3650 -1.2430  1.3640
  587SOL     OW 2080   0.011   4.430   1.188 -0.2248 -0.0195 -0.5201
  587SOL    HW1 2081   0.077   4.441   1.114 -1.0369 -1.0703 -1.4263
  587SOL    HW2 2082   0.037   4.353   1.246  0.4296  0.8224  0.3402
  588SOL     OW 2083   1.903   3.352   0.447  0.5033  0.0716  0.0815
  588SOL    HW1 2084   1.823   3.367   0.388  1.5541  1.3349 -1.0881
  588SOL    HW2 2085   1.872   3.327   0.539 -1.2011 -0.7221 -0.6652
  589SOL     OW 2086   1.869   1.929   5.034 -0.1541 -0.0910 -0.8479
  589SOL    HW1 2087   1.895   1.915   5.129  2.7647  1.1270 -1.3733
  589SOL    HW2 2088   1.769   1.936   5.028 -0.3820  0.8822  2.2603
  590SOL     OW 2089   0.471   4.224   2.966  0.1355  0.4850  0.3758
  590SOL    HW1 2090   0.549   4.274   3.003  0.3221  0.7024 -0.3044
  590SOL    HW2 2091   0.469   4.131   3.004  0.9692  0.3380  0.0804
  591SOL     OW 2092   4.349   2.333   2.050  0.2081 -0.5740  0.3510
  591SOL    HW1 2093   4.426   2.280   2.086  0.8480 -0.1359 -0.3479
  591SOL    HW2 2094   4.356   2.338   1.951  1.2900  2.4279  0.4501
  592SOL     OW 2095   1.202   4.603   4.880 -0.3201  0.1574 -0.3045
  592SOL    HW1 2096   1.274   4.669   4.857 -0.4299  0.0429 -1.0024
  592SOL    HW2 2097   1.147   4.584   4.799  0.9530 -2.3111 -0.6938
  593SOL     OW 2098   2.068   5.150   0.559  0.6706  0.1271  0.3620
  593SOL    HW1 2099   2.077   5.228   0.620  1.3640 -0.9749  1.7366
  593SOL    HW2 2100   2.094   5.067   0.608 -2.1539 -1.2938 -0.3363
  594SOL     OW 2101   4.164   2.572   2.855 -0.0020 -0.2046  0.1156
  594SOL    HW1 2102   4.247   2.516   2.848  0.3808  0.3559  0.0758
  594SOL    HW2 2103   4.186   2.667   2.831 -0.8269 -0.2030 -0.6529
  595SOL     OW 2104   3.867   2.400   5.350 -0.7587 -0.1378 -0.0992
  595SOL    HW1 2105   3.866   2.384   5.252 -1.2025 -1.9007  0.1565
  595SOL    HW2 2106   3.784   2.450   5.377  0.3246  2.1780 -0.8431
  596SOL     OW 2107   0.996   0.099   0.321  0.4230 -0.0308  0.0176
  596SOL    HW1 2108   0.962   0.188   0.290  0.1704 -0.2294 -0.2776
  596SOL    HW2 2109   1.052   0.057   0.249 -1.5935 -1.2836 -0.9118
  597SOL     OW 2110   2.600   0.082   5.200 -0.9165  0.1375  0.1609
  597SOL    HW1 2111   2.651   0.102   5.284 -0.0500  1.5980 -0.6603
  597SOL    HW2 2112   2.590   0.166   5.147  1.0475 -1.1867 -2.5490
  598SOL     OW 2113   0.072   0.995   1.813 -1.0692  0.2235 -0.0511
  598SOL    HW1 2114   0.082   0.956   1.904  1.0732 -0.6359 -0.5905
  598SOL    HW2 2115   0.088   1.094   1.816  3.0543 -0.2588  0.0781
  599SOL     OW 2116   4.544   3.860   3.084 -0.0205 -0.4334 -0.1425
  599SOL    HW1 2117   4.489   3.852   3.168 -0.3461  0.4180 -0.2687
  599SOL    HW2 2118   4.635   3.821   3.100 -0.4231 -1.2409  0.2796
  600SOL     OW 2119   4.642   1.825   3.763  0.0249 -0.0173  0.1983
  600SOL    HW1 2120   4.595   1.814   3.851 -0.4437 -1.7780 -0.2297
  600SOL    HW2 2121   4.579   1.800   3.689  0.3346  1.6601 -0.6842
  601SOL     OW 2122   1.635   4.815   1.453 -0.4396  0.3645 -0.3741
  601SOL    HW1 2123   1.681   4.734   1.418  1.5197  0.5740  1.4409
  601SOL    HW2 2124   1.536   4.801   1.454 -0.5704 -0.1991 -4.3155
  602SOL     OW 2125   0.917   4.407   2.439 -0.3070  0.1104 -0.3010
  602SOL    HW1 2126   0.869   4.450   2.363  0.8480 -0.5836 -1.4546
  602SOL    HW2 2127   1.008   4.378   2.410  0.1641 -0.1918  1.3483
  603SOL     OW 2128   4.028   4.658   4.145 -0.0531  0.4388 -0.2991
  603SOL    HW1 2129   4.031   4.558   4.155 -0.7764  0.6030  2.2213
  603SOL    HW2 2130   3.951   4.684   4.088 -1.0338 -0.4054  0.5967
  604SOL     OW 2131   4.948   2.542   2.819 -0.3326  0.1922  0.1312
  604SOL    HW1 2132   4.992   2.535   2.729 -0.5058  0.3598  0.0321
  604SOL    HW2 2133   4.942   2.638   2.845 -0.5964  0.1661  0.1653
  605SOL     OW 2134   0.232   3.635   4.599  0.3280  0.4265 -0.0849
  605SOL    HW1 2135   0.188   3.550   4.629  2.1064 -0.3426  0.5071
  605SOL    HW2 2136   0.226   3.703   4.672  0.3889  0.2289  0.1049
  606SOL     OW 2137   2.465   4.464   3.790 -0.5121 -0.6351  0.2297
  606SOL    HW1 2138   2.433   4.448   3.697 -0.3134 -1.4292  0.2884
  606SOL    HW2 2139   2.559   4.497   3.788 -0.8841  0.4613  0.1109
  607SOL     OW 2140   0.946   5.187   1.833  0.1148 -0.3365 -0.3100
  607SOL    HW1 2141   0.917   5.249   1.907  0.6888 -1.9645  1.3555
  607SOL    HW2 2142   0.880   5.112   1.825 -0.8430  0.6653 -2.6442
  608SOL     OW 2143   2.261   0.697   5.190 -0.2343 -0.5011  0.3134
  608SOL    HW1 2144   2.166   0.709   5.159  0.1550 -0.9218 -1.1588
  608SOL    HW2 2145   2.305   0.628   5.132  0.8603 -0.5926  1.2406
  609SOL     OW 2146   3.158   1.059   1.754  0.4712  0.0603  0.0069
  609SOL    HW1 2147   3.097   0.987   1.722 -1.5449  1.2697  0.9771
  609SOL    HW2 2148   3.105   1.132   1.797  2.6191  1.1613  0.9504
  610SOL     OW 2149   1.846   3.890   4.721  0.2129 -0.6742  0.4791
  610SOL    HW1 2150   1.858   3.988   4.732  0.5420 -0.5644 -0.6886
  610SOL    HW2 2151   1.755   3.864   4.754 -1.1494  0.5666 -2.0171
  611SOL     OW 2152   0.664   1.841   1.847 -0.1700 -0.4664 -0.1823
  611SOL    HW1 2153   0.605   1.884   1.779 -0.8678  0.3273  0.8924
  611SOL    HW2 2154   0.609   1.785   1.908  0.2745 -0.2132  0.4586
  612SOL     OW 2155   2.775   4.571   3.818 -0.3335  0.0964 -0.1330
  612SOL    HW1 2156   2.771   4.649   3.881  0.2527 -0.9064  1.1902
  612SOL    HW2 2157   2.863   4.570   3.772 -1.0402  1.2607 -1.5858
  613SOL     OW 2158   3.478   5.514   4.409 -0.7335  0.3896  0.3666
  613SOL    HW1 2159   3.426   5.560   4.481  0.4465  1.6696  0.4477
  613SOL    HW2 2160   3.543   5.450   4.451 -0.3305  0.8314  0.4160
  614SOL     OW 2161   1.523   4.099   1.901  0.3841 -0.0721  0.4321
  614SOL    HW1 2162   1.524   4.096   2.001  1.7262  1.3711  0.4981
  614SOL    HW2 2163   1.445   4.153   1.869  0.2023 -0.1734  0.7046
  615SOL     OW 2164   0.963   4.290   1.700  0.4220 -0.1007 -0.0009
  615SOL    HW1 2165   1.013   4.204   1.707  0.9888  0.3267  1.7653
  615SOL    HW2 2166   0.876   4.282   1.749 -0.3512 -0.2088 -1.3544
  616SOL     OW 2167   4.160   5.140   1.746 -0.0177 -0.2217 -0.4396
  616SOL    HW1 2168   4.164   5.229   1.701 -0.4602  0.5617  0.9981
  616SOL    HW2 2169   4.235   5.131   1.812 -0.5518 -0.4826  0.1509
  617SOL     OW 2170   5.205   0.565   0.873  0.0622  0.1684  0.4516
  617SOL    HW1 2171   5.171   0.507   0.947 -1.2026 -1.1053 -1.0764
  617SOL    HW2 2172   5.142   0.642   0.859 -1.5824 -1.4227 -1.4446
  618SOL     OW 2173   5.269   3.174   3.466 -0.0938 -0.1198 -0.6340
  618SOL    HW1 2174   5.356   3.204   3.506  1.0154 -2.3799 -1.1983
  618SOL    HW2 2175   5.214   3.128   3.536 -0.5461  0.6395 -0.4686
  619SOL     OW 2176   1.361   0.399   3.204 -0.1935  0.0432  0.4249
  619SOL    HW1 2177   1.400   0.476   3.153 -1.6740  0.5269 -0.0293
  619SOL    HW2 2178   1.435   0.344   3.242  0.9997 -0.1879 -1.9982
  620SOL     OW 2179   5.528   0.559   3.488  0.5706 -0.0535 -0.2731
  620SOL    HW1 2180   5.469   0.544   3.567 -0.4186 -3.9953 -1.5329
  620SOL    HW2 2181   5.621   0.532   3.510  0.7243  0.7623  0.0971
  621SOL     OW 2182   2.814   5.426   1.822  0.2723  0.4907  0.8546
  621SOL    HW1 2183   2.762   5.347   1.790  0.6349 -0.0471  1.5637
  621SOL    HW2 2184   2.908   5.420   1.789  0.2344  0.7681  0.6884
  622SOL     OW 2185   2.608   1.500   4.703  0.2397  0.3969 -0.6314
  622SOL    HW1 2186   2.517   1.537   4.720  0.0267 -0.6763  0.7364
  622SOL    HW2 2187   2.629   1.429   4.770  1.5281 -0.3705 -1.7776
  623SOL     OW 2188   3.783   5.380   2.591  0.1009 -0.6208  0.0112
  623SOL    HW1 2189   3.791   5.340   2.500 -0.9231 -0.9357  0.0510
  623SOL    HW2 2190   3.874   5.383   2.634  0.2511 -2.7958 -0.0416
  624SOL     OW 2191   2.237   4.040   3.152  1.4349  0.2019 -0.4847
  624SOL    HW1 2192   2.271   4.086   3.070  0.0480  0.1947 -1.0859
  624SOL    HW2 2193   2.151   3.992   3.131  0.8020  0.5916  1.0778
  625SOL     OW 2194   1.250   5.362   1.303  0.2840 -0.4596 -0.2093
  625SOL    HW1 2195   1.278   5.339   1.210 -0.2249  1.9397 -1.0364
  625SOL    HW2 2196   1.151   5.348   1.311 -0.0044  1.1023 -0.6747
  626SOL     OW 2197   4.882   1.774   1.459 -0.1705 -0.8036  0.1268
  626SOL    HW1 2198   4.972   1.797   1.422 -0.1588 -0.1471  0.5427
  626SOL    HW2 2199   4.811   1.822   1.408 -0.4470 -2.7480 -1.3918
  627SOL     OW 2200   2.135   0.803   1.123  0.7506  0.1816  0.3968
  627SOL    HW1 2201   2.097   0.736   1.187 -0.6777  1.5544  1.0811
  627SOL    HW2 2202   2.201   0.860   1.172 -0.6604  1.5128  0.8535
  628SOL     OW 2203   0.039   5.432   3.513 -1.0129  0.0303 -0.3268
  628SOL    HW1 2204   0.106   5.384   3.457  0.6593  1.4011  0.4212
  628SOL    HW2 2205   0.021   5.379   3.596 -0.0136  0.1667 -0.0178
  629SOL     OW 2206   5.031   0.651   4.492  0.3879  0.2090 -0.6544
  629SOL    HW1 2207   4.990   0.639   4.402  1.0061  0.4073 -0.9610
  629SOL    HW2 2208   5.117   0.601   4.498 -0.4365 -1.1792  0.3822
  630SOL     OW 2209   4.799   3.764   4.057  0.5424  0.4609  0.1199
  630SOL    HW1 2210   4.720   3.737   4.002  0.5358 -0.9558  0.8002
  630SOL    HW2 2211   4.846   3.840   4.012  0.5510 -0.6620 -1.8782
  631SOL     OW 2212   1.716   4.416   4.286  0.1876 -0.2177 -0.2887
  631SOL    HW1 2213   1.801   4.467   4.276  1.2944 -1.6886  1.1619
  631SOL    HW2 2214   1.703   4.356   4.207  0.3641  0.1916 -0.6311
  632SOL     OW 2215   1.611   4.602   3.446  0.2394  0.3280  0.1354
  632SOL    HW1 2216   1.683   4.554   3.397 -0.0159  1.5359 -1.5358
  632SOL    HW2 2217   1.649   4.645   3.528  1.7743  1.9015 -1.2948
  633SOL     OW 2218   0.730   4.947   4.526  0.1652  0.3098  0.6207
  633SOL    HW1 2219   0.707   5.041   4.551 -1.0196 -0.0853  1.0975
  633SOL    HW2 2220   0.646   4.895   4.512  0.8104 -0.6054  0.0650
  634SOL     OW 2221   4.046   1.823   0.118 -0.2536  0.3973  0.3775
  634SOL    HW1 2222   4.083   1.909   0.083 -1.0783 -0.0401 -1.7466
  634SOL    HW2 2223   4.026   1.762   0.041 -2.6363 -0.4723  1.5784
  635SOL     OW 2224   0.891   0.751   1.566 -0.1133 -0.7386  0.2843
  635SOL    HW1 2225   0.923   0.699   1.645 -0.5067  2.4579  2.7745
  635SOL    HW2 2226   0.969   0.783   1.512  0.5365  0.6997  1.9835
  636SOL     OW 2227   2.853   5.248   5.309  0.4442  0.4428 -0.6582
  636SOL    HW1 2228   2.769   5.302   5.305  0.8573  1.1053 -0.5022
  636SOL    HW2 2229   2.854   5.195   5.393 -0.3642 -0.4931 -1.2099
  637SOL     OW 2230   2.914   5.299   4.384  0.0099 -0.1514 -0.3315
  637SOL    HW1 2231   2.974   5.325   4.309  1.4045  0.1059  0.8430
  637SOL    HW2 2232   2.854   5.376   4.407 -0.5818 -0.2990 -1.2733
  638SOL     OW 2233   4.536   4.251   0.064  0.4111 -0.2231  0.1059
  638SOL    HW1 2234   4.494   4.337   0.035  0.7657  1.0575  3.0087
  638SOL    HW2 2235   4.618   4.233   0.010 -0.5734  0.3326 -1.6510
  639SOL     OW 2236   3.245   5.233   3.039 -0.1152  0.0118  0.4439
  639SOL    HW1 2237   3.151   5.217   3.071 -0.2704  1.2396  0.6434
  639SOL    HW2 2238   3.290   5.145   3.024 -1.2968 -0.5992  0.3426
  640SOL     OW 2239   4.318   0.687   1.621 -0.2360 -0.3274 -0.3930
  640SOL    HW1 2240   4.319   0.660   1.525 -1.8846  0.2054 -0.5889
  640SOL    HW2 2241   4.351   0.781   1.630 -0.1753 -0.3429 -0.4577
  641SOL     OW 2242   2.583   0.119   0.786  0.4168  0.1034 -0.2246
  641SOL    HW1 2243   2.548   0.100   0.878  0.5993  0.1657 -0.1421
  641SOL    HW2 2244   2.587   0.033   0.734 -0.0576  0.1297 -0.3038
  642SOL     OW 2245   3.712   4.070   5.272  0.1207  0.2142 -0.1152
  642SOL    HW1 2246   3.806   4.086   5.240  0.2427 -0.3311 -0.0460
  642SOL    HW2 2247   3.697   4.119   5.358  0.1636  0.7473 -0.4065
  643SOL     OW 2248   1.461   0.130   2.321 -0.3268 -0.1925 -0.1623
  643SOL    HW1 2249   1.465   0.038   2.282 -1.3857 -0.1166 -0.4689
  643SOL    HW2 2250   1.450   0.124   2.421 -0.0171 -0.3910 -0.1392
  644SOL     OW 2251   0.073   3.135   4.025  0.3156  0.5734  0.0376
  644SOL    HW1 2252   0.139   3.204   3.996 -0.6986  1.9456  0.8502
  644SOL    HW2 2253   0.040   3.085   3.945  1.3721  0.7549 -0.5271
  645SOL     OW 2254   4.972   2.195   2.616  0.4178  0.0494 -0.2425
  645SOL    HW1 2255   4.889   2.176   2.564  0.6748 -0.7090 -0.3868
  645SOL    HW2 2256   4.983   2.293   2.626  0.3739  0.2164 -1.6367
  646SOL     OW 2257   1.129   2.064   3.561  0.5428 -0.2794  0.3037
  646SOL    HW1 2258   1.204   2.104   3.508  1.2907  0.6315  1.9842
  646SOL    HW2 2259   1.076   2.137   3.605  2.3084 -1.0076  3.9458
  647SOL     OW 2260   4.562   3.662   4.432  0.0854  0.4176  0.1115
  647SOL    HW1 2261   4.560   3.745   4.487  0.7596  0.2344  0.4211
  647SOL    HW2 2262   4.652   3.618   4.440  0.3364  0.5795 -1.4171
  648SOL     OW 2263   1.127   0.372   1.704 -0.1105 -0.2283 -0.0999
  648SOL    HW1 2264   1.205   0.319   1.671  0.5757 -0.4142  1.6681
  648SOL    HW2 2265   1.072   0.315   1.765  0.7524  1.0644  2.0154
  649SOL     OW 2266   4.743   4.123   2.233  0.4718 -0.5396  0.1650
  649SOL    HW1 2267   4.740   4.030   2.198  0.2005 -0.3507 -0.3139
  649SOL    HW2 2268   4.798   4.125   2.317  1.2204 -0.9658 -0.3077
  650SOL     OW 2269   3.708   0.825   2.784 -0.4636  0.0667  0.3934
  650SOL    HW1 2270   3.688   0.729   2.766 -0.3474  0.2659 -0.8859
  650SOL    HW2 2271   3.805   0.844   2.765 -0.7964  0.7275 -0.7023
  651SOL     OW 2272   1.332   2.225   1.368  0.2358 -0.1944  0.4087
  651SOL    HW1 2273   1.327   2.274   1.282 -0.2009 -0.9644 -0.0205
  651SOL    HW2 2274   1.362   2.131   1.351  0.6492 -0.2049  1.1596
  652SOL     OW 2275   4.554   2.380   1.378  0.2082  0.0149 -0.1302
  652SOL    HW1 2276   4.624   2.335   1.434  0.2938  0.8653  0.4661
  652SOL    HW2 2277   4.596   2.448   1.319 -0.0543  0.1675 -0.1446
  653SOL     OW 2278   1.100   0.958   0.121  0.1020  0.2430  0.2198
  653SOL    HW1 2279   1.199   0.967   0.121  0.2925 -1.4391  1.2611
  653SOL    HW2 2280   1.066   0.949   0.028  1.1224 -0.8747 -0.0594
  654SOL     OW 2281   5.208   2.764   0.948 -0.0508 -0.1012 -0.9829
  654SOL    HW1 2282   5.239   2.859   0.937  0.8567 -0.3224 -0.4640
  654SOL    HW2 2283   5.266   2.704   0.892 -0.4857 -0.3817 -1.1405
  655SOL     OW 2284   2.027   3.550   3.607 -0.7065 -0.2067 -0.0240
  655SOL    HW1 2285   2.067   3.519   3.694  1.3990  0.8873 -0.5310
  655SOL    HW2 2286   2.056   3.490   3.534 -0.8908 -0.0195 -0.2531
  656SOL     OW 2287   2.332   0.231   0.594  0.0053 -0.8311  0.3135
  656SOL    HW1 2288   2.255   0.188   0.547  0.4857 -1.7261  0.3125
  656SOL    HW2 2289   2.409   0.239   0.531 -0.0426 -0.0634  0.3493
  657SOL     OW 2290   2.308   0.303   3.051 -0.1519 -0.2299  0.2836
  657SOL    HW1 2291   2.355   0.392   3.057 -0.3188 -0.1297  0.1217
  657SOL    HW2 2292   2.364   0.233   3.095 -0.5157  0.1538  1.3840
  658SOL     OW 2293   0.161   0.920   5.384 -0.5174  0.3459 -0.5578
  658SOL    HW1 2294   0.097   0.907   5.308 -2.1034  1.1564  0.5844
  658SOL    HW2 2295   0.175   0.833   5.431 -1.7767  0.3831 -0.0790
  659SOL     OW 2296   3.078   1.684   5.288  0.2412 -0.2558  0.0075
  659SOL    HW1 2297   3.020   1.627   5.230  0.0321 -1.4583  1.3587
  659SOL    HW2 2298   3.030   1.707   5.372  0.7194  1.0567 -0.0497
  660SOL     OW 2299   3.211   2.187   1.840  0.0002 -1.1582 -0.7450
  660SOL    HW1 2300   3.305   2.222   1.835  0.0730 -1.1306  0.5071
  660SOL    HW2 2301   3.175   2.203   1.932 -1.0429 -1.6600 -1.0596
  661SOL     OW 2302   1.001   5.425   5.120 -0.1255 -1.1660  0.5268
  661SOL    HW1 2303   1.075   5.406   5.185  1.4374  0.6092 -0.6498
  661SOL    HW2 2304   0.985   5.523   5.114 -0.3147 -1.2778 -1.6499
  662SOL     OW 2305   2.407   5.492   4.049 -0.0327  0.5514 -0.3732
  662SOL    HW1 2306   2.482   5.489   4.114  1.4600  2.7347 -1.8161
  662SOL    HW2 2307   2.328   5.444   4.086  1.3498  0.0487  2.1568
  663SOL     OW 2308   4.143   2.501   2.534 -0.2153  0.5138  0.5711
  663SOL    HW1 2309   4.117   2.435   2.604 -0.5554  0.2897  0.2361
  663SOL    HW2 2310   4.216   2.463   2.477  0.4884  0.9306  1.1708
  664SOL     OW 2311   2.609   4.683   0.437 -0.0866  0.3702  0.2230
  664SOL    HW1 2312   2.694   4.662   0.389  0.6727 -0.7482  1.9915
  664SOL    HW2 2313   2.564   4.598   0.464 -2.0784  0.9293 -1.1306
  665SOL     OW 2314   1.164   3.525   2.242  1.2386 -0.3575 -0.4440
  665SOL    HW1 2315   1.234   3.567   2.184 -0.8887  1.1257 -2.1040
  665SOL    HW2 2316   1.190   3.431   2.263  2.8856 -0.4299 -2.4755
  666SOL     OW 2317   0.447   1.806   3.140  0.5131 -0.2039 -0.1195
  666SOL    HW1 2318   0.463   1.809   3.041  1.5737 -1.7156 -0.0411
  666SOL    HW2 2319   0.355   1.774   3.159 -0.6295  2.5330 -0.5831
  667SOL     OW 2320   0.215   4.579   4.164  0.6587  0.3910 -0.1920
  667SOL    HW1 2321   0.173   4.608   4.078 -1.7493 -0.2409  0.6769
  667SOL    HW2 2322   0.191   4.645   4.236  0.2401 -0.5435  0.5451
  668SOL     OW 2323   1.348   4.136   4.250 -0.3125  0.0873 -0.1483
  668SOL    HW1 2324   1.380   4.064   4.189  1.5810 -0.1891  1.1091
  668SOL    HW2 2325   1.334   4.221   4.198 -1.1654 -0.7663 -1.3694
  669SOL     OW 2326   4.561   5.161   3.477 -0.7594  0.2186  0.1679
  669SOL    HW1 2327   4.528   5.251   3.504 -0.7834  0.0052  0.8502
  669SOL    HW2 2328   4.611   5.119   3.552 -1.7648 -0.8333  0.2723
  670SOL     OW 2329   1.750   0.446   0.535 -0.1365  0.0241 -0.2356
  670SOL    HW1 2330   1.658   0.418   0.507  0.5122 -2.5003 -0.0562
  670SOL    HW2 2331   1.814   0.430   0.460  0.2589  1.3483 -0.2048
  671SOL     OW 2332   2.440   1.763  -0.006 -0.2634  0.1966  0.2828
  671SOL    HW1 2333   2.429   1.703   0.073 -0.6534  0.2438  0.2651
  671SOL    HW2 2334   2.482   1.849   0.023 -1.6912  0.7819  0.7019
  672SOL     OW 2335   4.992   1.733   0.825 -0.7430 -0.2555  0.0783
  672SOL    HW1 2336   4.895   1.710   0.838 -0.5126 -0.8506  0.8165
  672SOL    HW2 2337   5.037   1.659   0.775 -0.5024 -0.3566  0.4379
  673SOL     OW 2338   0.313   0.849   4.719  0.4702 -0.0603  0.0878
  673SOL    HW1 2339   0.321   0.867   4.621  2.2900  0.8955  0.3599
  673SOL    HW2 2340   0.232   0.896   4.755  0.6207  0.8412 -0.7070
  674SOL     OW 2341   0.945   0.574   4.778  0.0200  0.2123  0.0743
  674SOL    HW1 2342   0.896   0.501   4.826  2.2126 -0.7069  1.0104
  674SOL    HW2 2343   0.892   0.602   4.698 -3.6757  1.6311  2.7370
  675SOL     OW 2344   0.095   2.138   5.081  0.1520  0.4785 -0.3745
  675SOL    HW1 2345   0.072   2.043   5.103 -0.5101  0.4815 -1.0100
  675SOL    HW2 2346   0.115   2.188   5.165 -1.8187  0.3679  0.2087
  676SOL     OW 2347   3.494   2.329   3.570 -0.1911  0.9201  0.6291
  676SOL    HW1 2348   3.490   2.304   3.473  1.2855  3.0708 -0.0812
  676SOL    HW2 2349   3.414   2.383   3.594 -1.5870 -1.2802  1.2247
  677SOL     OW 2350   2.975   2.860   5.032  0.1973 -0.5270 -0.0714
  677SOL    HW1 2351   2.885   2.845   5.074 -0.2139 -1.6852 -1.2715
  677SOL    HW2 2352   2.979   2.952   4.993 -0.2222 -0.2414  0.5444
  678SOL     OW 2353   1.684   1.706   1.671  0.7202  0.2923  0.0327
  678SOL    HW1 2354   1.622   1.689   1.594  0.1698 -0.0955  0.5578
  678SOL    HW2 2355   1.670   1.638   1.742 -0.2368  1.8261  1.3807
  679SOL     OW 2356   0.663   4.716   4.784 -0.5364  0.2335 -0.0506
  679SOL    HW1 2357   0.736   4.708   4.715 -1.6090 -0.4961 -1.1408
  679SOL    HW2 2358   0.581   4.753   4.740 -1.2821 -0.3565  0.8298
  680SOL     OW 2359   3.129   3.126   5.115  0.0092 -0.4095  0.5923
  680SOL    HW1 2360   3.139   3.201   5.182 -2.4285  1.2907 -0.7770
  680SOL    HW2 2361   3.156   3.159   5.025  0.5253 -1.7812  0.2318
  681SOL     OW 2362   1.779   0.304   3.390  0.1875 -0.3187 -0.9378
  681SOL    HW1 2363   1.729   0.388   3.366 -1.0347 -0.6628  0.2826
  681SOL    HW2 2364   1.860   0.327   3.443 -1.0900  0.0463  0.9529
  682SOL     OW 2365   2.448   5.424   3.789 -0.0353 -0.4406  1.0135
  682SOL    HW1 2366   2.432   5.450   3.884 -1.9576 -0.9043  0.8573
  682SOL    HW2 2367   2.428   5.326   3.777  1.1231 -0.6120  0.3181
  683SOL     OW 2368   5.458   0.598   1.662 -0.1723 -0.2748 -0.3851
  683SOL    HW1 2369   5.394   0.602   1.585  0.9306 -1.2994 -1.4104
  683SOL    HW2 2370   5.507   0.511   1.659 -0.6289 -0.6626  1.9406
  684SOL     OW 2371   1.859   1.459   3.193  0.0612  0.6138 -0.4469
  684SOL    HW1 2372   1.775   1.511   3.211  1.0114  1.6577  1.2206
  684SOL    HW2 2373   1.842   1.362   3.209 -0.5697  0.9290  0.8986
  685SOL     OW 2374   0.440   4.989   1.837  0.5026 -0.0151 -0.0084
  685SOL    HW1 2375   0.378   5.067   1.848 -0.2601 -0.3289 -1.8136
  685SOL    HW2 2376   0.395   4.906   1.870 -0.6487 -0.4744 -2.5550
  686SOL     OW 2377   4.429   3.368   4.395 -0.1288  0.0786  0.4627
  686SOL    HW1 2378   4.447   3.340   4.490 -2.4077  1.5119  1.4000
  686SOL    HW2 2379   4.499   3.433   4.366  0.4998 -0.2429  1.2152
  687SOL     OW 2380   5.062   1.528   3.360 -0.2323 -0.6205 -0.0546
  687SOL    HW1 2381   5.140   1.468   3.341 -0.1544 -0.9285  1.1467
  687SOL    HW2 2382   5.012   1.494   3.440 -1.0625  0.0866 -0.2576
  688SOL     OW 2383   4.993   1.748   1.717 -0.9657 -0.3061  0.3257
  688SOL    HW1 2384   4.965   1.747   1.621 -0.9521  0.7587  0.2969
  688SOL    HW2 2385   5.086   1.783   1.723 -0.9756 -0.3519  0.7289
  689SOL     OW 2386   3.437   4.584   0.959  0.2021 -0.8988 -0.3017
  689SOL    HW1 2387   3.402   4.497   0.994 -1.2959 -0.6772 -1.1648
  689SOL    HW2 2388   3.440   4.582   0.859  2.7423 -0.8911 -0.2947
  690SOL     OW 2389   2.137   1.890   4.375 -0.2411  0.2030  0.6125
  690SOL    HW1 2390   2.039   1.904   4.360  0.2463  0.4907 -3.3906
  690SOL    HW2 2391   2.158   1.792   4.367 -0.1123  0.2440  0.4226
  691SOL     OW 2392   0.743   2.871   2.458 -0.3247  0.2295  0.0016
  691SOL    HW1 2393   0.799   2.894   2.538 -0.0531  0.9010 -0.3765
  691SOL    HW2 2394   0.743   2.772   2.445 -2.4911 -0.2065  2.3738
  692SOL     OW 2395   0.326   5.303   2.045 -0.1065  0.4928 -0.1035
  692SOL    HW1 2396   0.270   5.267   1.970 -0.3965  0.6236  0.0468
  692SOL    HW2 2397   0.343   5.231   2.112  4.8111 -1.3390 -2.8744
  693SOL     OW 2398   1.606   1.546   3.283 -0.1033 -0.1813  0.3278
  693SOL    HW1 2399   1.530   1.528   3.345  1.8373 -0.6163  2.7149
  693SOL    HW2 2400   1.571   1.586   3.198 -2.9440 -0.3172  1.3369
  694SOL     OW 2401   5.412   4.552   0.469  0.0030  0.1808 -0.0902
  694SOL    HW1 2402   5.478   4.520   0.402 -1.8087 -0.5388 -1.6188
  694SOL    HW2 2403   5.400   4.483   0.540  0.0222 -0.2260 -0.4749
  695SOL     OW 2404   0.869   5.044   0.746 -0.4095  0.0610 -0.2881
  695SOL    HW1 2405   0.775   5.074   0.729 -0.8986 -0.4428  1.3534
  695SOL    HW2 2406   0.908   5.096   0.822  0.6287  0.1936 -0.8811
  696SOL     OW 2407   0.648   1.974   3.428  0.1773  0.2392  0.4186
  696SOL    HW1 2408   0.633   1.875   3.422  0.1033  0.3253 -0.9955
  696SOL    HW2 2409   0.738   1.997   3.392 -0.4519  0.8570 -0.8025
  697SOL     OW 2410   3.711   3.012   5.192 -0.6912 -0.0335 -0.3675
  697SOL    HW1 2411   3.809   2.995   5.206 -0.3839  1.6358 -0.2394
  697SOL    HW2 2412   3.664   3.006   5.280 -0.6072 -0.2780 -0.3383
  698SOL     OW 2413   1.814   4.299   5.107 -0.5236  0.3965 -0.1612
  698SOL    HW1 2414   1.887   4.232   5.100  0.5135  1.4983 -0.1773
  698SOL    HW2 2415   1.727   4.257   5.080 -0.6843 -2.1187  3.4466
  699SOL     OW 2416   4.695   1.844   1.271  0.2418  0.7639 -0.5250
  699SOL    HW1 2417   4.745   1.770   1.225 -0.3265  0.0185  0.0282
  699SOL    HW2 2418   4.659   1.907   1.202  0.9355  0.6711 -0.9929
  700SOL     OW 2419   2.255   4.220   3.715  0.1968 -0.3325  0.2919
  700SOL    HW1 2420   2.326   4.282   3.746  1.2886 -0.2821 -2.0762
  700SOL    HW2 2421   2.196   4.267   3.649 -1.5894 -0.6135  1.6283
  701SOL     OW 2422   3.554   5.227   2.690 -0.3211  0.3533  0.1167
  701SOL    HW1 2423   3.614   5.293   2.644 -0.0631 -0.6565 -1.0379
  701SOL    HW2 2424   3.573   5.135   2.656 -2.5211 -0.0134 -0.2789
  702SOL     OW 2425   0.876   1.225   1.830  0.0040  0.5535  0.1126
  702SOL    HW1 2426   0.965   1.251   1.790 -0.4571 -0.2915 -1.5590
  702SOL    HW2 2427   0.871   1.258   1.924  1.1867  2.5981 -0.4844
  703SOL     OW 2428   5.466   0.354   0.630 -0.4390 -0.0787 -0.3970
  703SOL    HW1 2429   5.389   0.403   0.588  0.0832  1.1535  0.0202
  703SOL    HW2 2430   5.551   0.379   0.582 -0.0533  0.0688  0.3535
  704SOL     OW 2431   4.030   2.449   0.898  0.2001  0.2136  0.1800
  704SOL    HW1 2432   4.127   2.471   0.889  0.1218  0.4112 -0.2132
  704SOL    HW2 2433   4.019   2.352   0.919  0.4609  0.0339 -0.4866
  705SOL     OW 2434   3.683   0.224   2.259 -0.1025 -0.0280  0.0067
  705SOL    HW1 2435   3.711   0.181   2.345  1.5662  0.4706 -0.2591
  705SOL    HW2 2436   3.624   0.161   2.208  0.1299 -0.9335  0.8234
  706SOL     OW 2437   5.156   3.692   3.509  0.2430 -0.0960  0.1382
  706SOL    HW1 2438   5.149   3.598   3.475 -0.9110 -0.2681  0.8149
  706SOL    HW2 2439   5.075   3.744   3.481  1.2368  0.9545 -0.9321
  707SOL     OW 2440   5.039   1.759   2.448 -0.5086  0.5242  0.2990
  707SOL    HW1 2441   5.123   1.728   2.491 -0.8208 -0.3462  0.2966
  707SOL    HW2 2442   5.035   1.724   2.354 -1.5714 -0.7136  0.7870
  708SOL     OW 2443   2.412   5.515   5.013  0.0595  0.3026  0.8854
  708SOL    HW1 2444   2.491   5.531   5.072  0.0070  1.3079  0.6865
  708SOL    HW2 2445   2.417   5.422   4.976  0.5386 -0.0431  1.7838
  709SOL     OW 2446   1.979   2.403   4.570 -0.4150 -0.1974 -0.3862
  709SOL    HW1 2447   2.014   2.322   4.524 -0.5522  0.4618 -1.6825
  709SOL    HW2 2448   2.052   2.446   4.623 -0.1226 -0.6616 -0.4116
  710SOL     OW 2449   4.150   2.091   0.641  0.2905  0.2757  0.1553
  710SOL    HW1 2450   4.052   2.077   0.652  0.2087  0.3572 -0.4660
  710SOL    HW2 2451   4.169   2.188   0.627  0.2753  0.0608 -1.5215
  711SOL     OW 2452   3.345   1.945   0.544  0.1266 -0.1504 -0.1611
  711SOL    HW1 2453   3.269   1.897   0.499  0.5781  0.2671 -1.4061
  711SOL    HW2 2454   3.432   1.912   0.507  0.4391  1.9741 -1.4485
  712SOL     OW 2455   2.001   4.781   1.125  0.5189  0.1008 -0.4045
  712SOL    HW1 2456   1.992   4.853   1.056 -0.2643  0.6070  0.2145
  712SOL    HW2 2457   1.921   4.722   1.123  0.3774  0.2645  0.2340
  713SOL     OW 2458   0.655   4.348   4.477  0.8966  0.5481 -0.3467
  713SOL    HW1 2459   0.580   4.407   4.448  1.6738  1.5225 -0.3947
  713SOL    HW2 2460   0.730   4.353   4.411  0.8028 -0.8606 -0.6019
  714SOL     OW 2461   0.342   3.653   4.329  0.0226 -0.0861 -0.6406
  714SOL    HW1 2462   0.292   3.635   4.413  2.1898 -1.3075  0.4900
  714SOL    HW2 2463   0.405   3.729   4.342 -1.3956  1.4069 -2.0202
  715SOL     OW 2464   1.768   4.891   2.838  0.2899 -0.1978 -0.1198
  715SOL    HW1 2465   1.841   4.957   2.824 -0.5965  1.0333  0.8150
  715SOL    HW2 2466   1.806   4.798   2.842  1.4477  0.1180 -2.4228
  716SOL     OW 2467   1.499   1.404   3.001 -0.3335  0.2580 -0.1627
  716SOL    HW1 2468   1.504   1.374   2.906 -2.0845  2.9652 -1.2519
  716SOL    HW2 2469   1.559   1.483   3.014 -0.3680  0.1208  0.8622
  717SOL     OW 2470   0.882   4.028   0.741 -0.1748  0.2829 -0.1643
  717SOL    HW1 2471   0.905   3.941   0.698 -2.4013 -0.4199 -0.0439
  717SOL    HW2 2472   0.791   4.056   0.713 -0.1389  1.7754  1.0661
  718SOL     OW 2473   1.840   0.710   0.549 -0.1091 -0.1154 -0.1286
  718SOL    HW1 2474   1.796   0.730   0.637 -0.6538 -1.7908  0.0167
  718SOL    HW2 2475   1.809   0.621   0.516  2.9036 -1.2179 -0.2136
  719SOL     OW 2476   1.542   2.158   0.993 -0.4858  0.6439 -0.9483
  719SOL    HW1 2477   1.534   2.059   0.979  0.5944  0.3449  0.3533
  719SOL    HW2 2478   1.465   2.190   1.048  0.3891  0.0686  0.6817
  720SOL     OW 2479   2.628   1.508   3.592  0.3685 -0.3547  0.7175
  720SOL    HW1 2480   2.589   1.600   3.587 -0.0515 -0.6053 -1.5668
  720SOL    HW2 2481   2.723   1.510   3.561 -0.2090 -0.9211 -1.2889
  721SOL     OW 2482   2.009   4.158   0.138 -0.7788 -0.3570 -0.1327
  721SOL    HW1 2483   2.071   4.173   0.215 -0.6596 -0.1871 -0.2609
  721SOL    HW2 2484   1.960   4.242   0.118 -1.9188 -0.7951  0.7149
  722SOL     OW 2485   0.676   5.541   3.448  0.3408  0.1198 -0.2221
  722SOL    HW1 2486   0.637   5.501   3.365  1.3705 -1.8070  0.1897
  722SOL    HW2 2487   0.761   5.589   3.425 -0.5236  1.5642 -0.5930
  723SOL     OW 2488   4.427   3.719   4.881 -0.6369 -0.1956 -0.0371
  723SOL    HW1 2489   4.421   3.641   4.819  1.6506  0.6356 -1.4293
  723SOL    HW2 2490   4.502   3.705   4.945  0.1964  1.0881 -0.6993
  724SOL     OW 2491   3.047   3.705   2.410  0.5321 -0.1039  0.8012
  724SOL    HW1 2492   3.034   3.612   2.376 -1.5010  0.4523 -0.1198
  724SOL    HW2 2493   3.072   3.765   2.334 -3.2172  0.9906  0.2501
  725SOL     OW 2494   4.806   3.329   1.068  0.7938  0.7666 -0.2279
  725SOL    HW1 2495   4.820   3.412   1.121  2.8013  0.6698 -0.5440
  725SOL    HW2 2496   4.742   3.347   0.993  2.1542  2.3872 -1.0606
  726SOL     OW 2497   5.190   4.999   4.816 -0.4490  0.3625 -0.3927
  726SOL    HW1 2498   5.114   5.062   4.830 -0.3453 -0.0077  2.5317
  726SOL    HW2 2499   5.230   4.975   4.905  0.0220 -3.1847 -1.3996
  727SOL     OW 2500   2.697   1.904   0.762 -0.2934 -0.0092  0.2933
  727SOL    HW1 2501   2.729   1.818   0.724 -0.4603 -0.7238  1.6900
  727SOL    HW2 2502   2.759   1.934   0.835 -0.9156  0.3805  0.6803
  728SOL     OW 2503   4.043   3.526   3.049  0.6127 -0.1598 -0.0566
  728SOL    HW1 2504   4.125   3.583   3.048  1.0607 -0.8034 -0.7828
  728SOL    HW2 2505   3.965   3.581   3.081  0.8293  1.1515 -1.6634
  729SOL     OW 2506   2.301   4.625   2.423 -0.7168 -0.3845 -0.3356
  729SOL    HW1 2507   2.225   4.676   2.461 -0.1735  0.8868 -0.9097
  729SOL    HW2 2508   2.362   4.596   2.497 -1.4648 -0.9654  0.0705
  730SOL     OW 2509   2.893   3.376   5.132  0.1553  0.1424  0.7299
  730SOL    HW1 2510   2.866   3.287   5.168 -0.4820  0.5014  1.1431
  730SOL    HW2 2511   2.812   3.433   5.118  0.4506  0.2845 -0.5514
  731SOL     OW 2512   4.747   1.129   1.687  0.2261 -0.1847  0.4501
  731SOL    HW1 2513   4.785   1.072   1.759  0.4503  0.7597  1.0911
  731SOL    HW2 2514   4.656   1.162   1.714 -0.2383 -0.8584 -0.2485
  732SOL     OW 2515   0.061   1.034   2.981  0.6694  0.2370 -0.5229
  732SOL    HW1 2516   0.065   1.112   3.042 -0.8559 -0.2103  0.2060
  732SOL    HW2 2517   0.041   1.065   2.888 -0.2549  0.7007 -0.1788
  733SOL     OW 2518   5.151   1.280   2.191  0.1529 -0.1329 -0.0429
  733SOL    HW1 2519   5.199   1.348   2.136  1.8130 -0.7633  0.5582
  733SOL    HW2 2520   5.141   1.196   2.137 -0.6536  0.1321 -0.3092
  734SOL     OW 2521   2.761   3.830   4.458  0.5506  0.4374 -0.0252
  734SOL    HW1 2522   2.688   3.840   4.390  1.7012  0.7535 -1.2780
  734SOL    HW2 2523   2.754   3.741   4.502 -0.8895  0.6737  0.2801
  735SOL     OW 2524   1.947   5.120   2.453 -0.0580 -0.7399 -0.3882
  735SOL    HW1 2525   1.924   5.162   2.541 -0.3278 -0.3085 -0.6600
  735SOL    HW2 2526   1.921   5.182   2.379 -0.1968 -1.2695 -0.7862
  736SOL     OW 2527   5.473   0.089   4.399  0.4465  0.5643 -0.2350
  736SOL    HW1 2528   5.497  -0.004   4.429 -0.8253  1.3041  3.5573
  736SOL    HW2 2529   5.394   0.084   4.338 -0.3703 -0.7918  0.8748
  737SOL     OW 2530   2.297   2.202   1.697  0.1949 -0.4148 -0.3260
  737SOL    HW1 2531   2.287   2.154   1.784 -0.0633  1.8232  0.9471
  737SOL    HW2 2532   2.206   2.225   1.660  0.2833  1.3298  0.4344
  738SOL     OW 2533   4.104   0.185   4.114  0.3693 -0.0618  0.3038
  738SOL    HW1 2534   4.150   0.096   4.108  2.0008  0.6778  1.2924
  738SOL    HW2 2535   4.062   0.195   4.204 -1.7436 -0.6689 -0.5316
  739SOL     OW 2536   2.583   4.153   1.805  1.0998  0.2579 -0.2007
  739SOL    HW1 2537   2.637   4.216   1.860 -0.4830 -0.2338  2.0762
  739SOL    HW2 2538   2.501   4.200   1.772  0.1943 -0.3859  1.0393
  740SOL     OW 2539   3.863   3.115   1.727  0.5468 -0.9155  0.0110
  740SOL    HW1 2540   3.836   3.019   1.718  0.3736 -0.7336 -1.6559
  740SOL    HW2 2541   3.958   3.126   1.696  0.7647 -0.6399  0.7569
  741SOL     OW 2542   3.289   4.292   1.413  0.3438  0.0104 -0.4054
  741SOL    HW1 2543   3.213   4.357   1.410  1.2998  1.1384 -0.8487
  741SOL    HW2 2544   3.260   4.210   1.462 -1.2041  0.3489 -0.7025
  742SOL     OW 2545   1.336   3.034   0.043  0.0855 -0.1422 -0.8506
  742SOL    HW1 2546   1.404   3.001  -0.022  1.4528 -0.1979  0.5351
  742SOL    HW2 2547   1.246   2.997   0.020  0.5318 -0.1798 -2.6480
  743SOL     OW 2548   1.314   2.175   3.009  0.6251  0.5327 -0.5731
  743SOL    HW1 2549   1.225   2.161   3.052  0.7327 -0.0654 -0.5366
  743SOL    HW2 2550   1.376   2.101   3.034  0.8193  0.3899 -1.4227
  744SOL     OW 2551   1.891   5.089   3.637  0.2698  0.1998  0.0552
  744SOL    HW1 2552   1.831   5.091   3.557 -0.6922  1.0219  0.7732
  744SOL    HW2 2553   1.840   5.053   3.715  1.3791 -1.1756  0.1758
  745SOL     OW 2554   5.530  -0.013   5.291  0.6975  0.3337  0.1403
  745SOL    HW1 2555   5.472  -0.048   5.364 -1.7641 -2.4821 -2.8534
  745SOL    HW2 2556   5.510   0.083   5.276 -2.3856 -0.2138  0.0823
  746SOL     OW 2557   2.469   5.512   2.036  0.7318 -0.4293  0.3577
  746SOL    HW1 2558   2.446   5.539   1.943 -0.2866 -1.1617  0.3916
  746SOL    HW2 2559   2.564   5.539   2.055  0.9369 -0.2196 -0.8563
  747SOL     OW 2560   4.521   3.825   4.199  0.2575 -0.1135  0.1875
  747SOL    HW1 2561   4.541   3.761   4.273 -2.4008 -1.9157 -0.4815
  747SOL    HW2 2562   4.547   3.783   4.112 -2.0836 -0.6734 -0.3098
  748SOL     OW 2563   2.703   4.911   1.084 -0.1463 -0.0383 -0.1076
  748SOL    HW1 2564   2.641   4.845   1.126  0.4107  0.0979  0.9561
  748SOL    HW2 2565   2.788   4.866   1.060 -0.3049 -0.0194 -0.7128
  749SOL     OW 2566   0.641   4.522   2.594  0.2732  0.2640 -0.0267
  749SOL    HW1 2567   0.653   4.573   2.509 -1.5312  1.8531  0.6019
  749SOL    HW2 2568   0.697   4.562   2.666  0.4334  0.0403 -0.0255
  750SOL     OW 2569   5.473   0.581   3.225  0.0874 -0.6192  0.2646
  750SOL    HW1 2570   5.504   0.502   3.172  1.0207 -0.0556 -0.0584
  750SOL    HW2 2571   5.490   0.564   3.322  1.1059 -0.4743  0.1235
  751SOL     OW 2572   4.557   3.982   5.103 -0.2611  0.4685 -0.1860
  751SOL    HW1 2573   4.465   3.979   5.142 -0.2601 -0.2243 -0.2161
  751SOL    HW2 2574   4.591   3.889   5.092  1.2024  0.7142  1.6229
  752SOL     OW 2575   1.332   1.023   0.834  0.1649 -0.3257 -0.0312
  752SOL    HW1 2576   1.384   0.938   0.831  0.1633 -0.3017 -0.7789
  752SOL    HW2 2577   1.250   1.010   0.889  0.9654 -0.3535  1.2148
  753SOL     OW 2578   4.978   3.144   1.197  0.1900  0.4405 -0.1346
  753SOL    HW1 2579   4.894   3.195   1.180 -1.4293 -2.1006 -0.3679
  753SOL    HW2 2580   4.964   3.048   1.174  2.9732 -0.2227  0.5135
  754SOL     OW 2581   2.295   3.717   1.519 -0.1464 -0.2848  0.1735
  754SOL    HW1 2582   2.340   3.720   1.608  0.8385 -1.6456 -0.2441
  754SOL    HW2 2583   2.338   3.647   1.462 -0.4964  0.7979 -1.5136
  755SOL     OW 2584   2.302   5.126   4.899  0.0831  0.2267 -0.1981
  755SOL    HW1 2585   2.207   5.152   4.915  0.2472  1.8407 -1.5744
  755SOL    HW2 2586   2.305   5.041   4.845 -0.5892  0.4100 -0.5369
  756SOL     OW 2587   1.724   3.386   4.892  0.0422 -0.2308 -0.9528
  756SOL    HW1 2588   1.681   3.452   4.830  1.8120 -1.8383 -4.1567
  756SOL    HW2 2589   1.683   3.296   4.878  1.0320 -0.7849 -0.4098
  757SOL     OW 2590   1.433   3.412   5.543 -0.2913  0.0280 -0.3775
  757SOL    HW1 2591   1.352   3.412   5.485 -0.0975  1.6263 -0.7027
  757SOL    HW2 2592   1.512   3.383   5.489  0.0256  2.2110 -1.2052
  758SOL     OW 2593   1.058   4.495   5.378 -0.0719  0.1567 -0.2863
  758SOL    HW1 2594   0.971   4.541   5.392 -0.0283  0.3761 -0.7075
  758SOL    HW2 2595   1.100   4.476   5.467 -0.1227  0.8789 -0.0957
  759SOL     OW 2596   3.879   4.607   5.070 -0.3883 -0.7466  0.5844
  759SOL    HW1 2597   3.795   4.659   5.051  0.8146  1.1458  0.1889
  759SOL    HW2 2598   3.863   4.510   5.049 -1.4683  0.0217 -2.9676
  760SOL     OW 2599   1.237   1.798   3.302  0.1543  0.1603  0.4194
  760SOL    HW1 2600   1.151   1.773   3.258 -0.7815  1.7359  1.2826
  760SOL    HW2 2601   1.309   1.806   3.232 -0.0569 -2.3229 -0.1666
  761SOL     OW 2602   0.646   2.502   2.135 -0.1551  0.1534  0.3768
  761SOL    HW1 2603   0.673   2.453   2.052  0.9244 -0.9643  1.3596
  761SOL    HW2 2604   0.704   2.474   2.211 -1.9311  0.2224  1.8166
  762SOL     OW 2605   3.356   0.103   2.517 -0.2746 -0.8055 -0.2059
  762SOL    HW1 2606   3.357   0.004   2.508 -0.3734 -0.7741 -0.5510
  762SOL    HW2 2607   3.287   0.130   2.585  0.5700 -1.0438  0.7703
  763SOL     OW 2608   4.773   2.284   0.537  0.6882 -0.0730  0.5750
  763SOL    HW1 2609   4.723   2.357   0.583  1.6204  1.3560 -0.5816
  763SOL    HW2 2610   4.867   2.282   0.570  0.5713 -1.0162  0.8645
  764SOL     OW 2611   2.441   3.217   5.439  0.4947  0.2538  0.8302
  764SOL    HW1 2612   2.402   3.174   5.520  0.3197  0.6141  0.9406
  764SOL    HW2 2613   2.401   3.176   5.357  0.0379  0.4758  0.9413
  765SOL     OW 2614   0.765   1.250   2.731 -0.0002 -0.5153 -0.2485
  765SOL    HW1 2615   0.788   1.238   2.827  1.0881  0.5641 -0.3334
  765SOL    HW2 2616   0.685   1.310   2.722 -0.8749 -1.6197 -0.0106
  766SOL     OW 2617   1.371   4.135   3.866 -0.2225 -0.3266 -0.4880
  766SOL    HW1 2618   1.442   4.200   3.892 -1.3136  1.6103 -2.1025
  766SOL    HW2 2619   1.373   4.057   3.929  3.2883 -0.3924 -0.4934
  767SOL     OW 2620   5.133   2.611   4.524  0.1032 -0.2718  0.0636
  767SOL    HW1 2621   5.191   2.671   4.579 -0.1070 -1.0149  1.1288
  767SOL    HW2 2622   5.188   2.540   4.481  0.4816  1.1365 -1.9011
  768SOL     OW 2623   5.157   3.630   1.936  0.3375  0.4424  0.5824
  768SOL    HW1 2624   5.213   3.706   1.969  0.2653  0.3746  0.8649
  768SOL    HW2 2625   5.119   3.652   1.846 -0.5342  1.1742  1.1155
  769SOL     OW 2626   4.093   0.474   3.700 -0.6934 -0.0099 -0.2277
  769SOL    HW1 2627   4.158   0.398   3.707  0.0564  0.4903 -1.4590
  769SOL    HW2 2628   4.116   0.544   3.768 -0.9542 -0.5529  0.4317
  770SOL     OW 2629   3.439   5.258   4.915  0.7891 -0.0988 -0.1703
  770SOL    HW1 2630   3.522   5.313   4.910 -0.3392  1.7005  0.1790
  770SOL    HW2 2631   3.364   5.306   4.870 -0.6916 -0.5124  1.7347
  771SOL     OW 2632   3.711   2.457   3.360 -0.0989 -0.1153 -0.1630
  771SOL    HW1 2633   3.668   2.369   3.341  0.1396  0.0223 -1.4161
  771SOL    HW2 2634   3.784   2.474   3.294  0.2821  0.7384  0.4551
  772SOL     OW 2635   1.359   2.608   1.034  0.1304 -0.5477  0.0294
  772SOL    HW1 2636   1.306   2.650   1.107 -0.1330 -0.8280  0.0020
  772SOL    HW2 2637   1.451   2.587   1.068 -0.1394 -1.1132  0.4294
  773SOL     OW 2638   1.030   1.935   2.823 -0.4083  0.6866 -0.0976
  773SOL    HW1 2639   1.021   1.877   2.742  0.3964  1.8659 -1.0672
  773SOL    HW2 2640   1.118   1.917   2.867 -0.1181  1.2335 -0.4531
  774SOL     OW 2641   1.224   3.279   2.349  0.0748  0.4334 -0.7973
  774SOL    HW1 2642   1.235   3.218   2.270 -1.0518 -0.2175 -0.4760
  774SOL    HW2 2643   1.137   3.258   2.394  1.3920 -0.2996  1.5526
  775SOL     OW 2644   5.395   4.393   2.341  0.2979  0.6426  0.3615
  775SOL    HW1 2645   5.411   4.467   2.274 -1.6406  1.1262  0.3836
  775SOL    HW2 2646   5.329   4.424   2.409  1.0273 -0.4265  1.5916
  776SOL     OW 2647   2.232   2.900   3.917  0.0766 -0.2176 -0.2727
  776SOL    HW1 2648   2.318   2.856   3.942 -0.5520 -1.3444 -0.0403
  776SOL    HW2 2649   2.210   2.879   3.821  0.7424  1.2295 -0.7734
  777SOL     OW 2650   3.429   4.556   0.025  0.4996  1.0346 -0.1018
  777SOL    HW1 2651   3.454   4.639  -0.026  0.3968  0.3471 -1.3077
  777SOL    HW2 2652   3.330   4.553   0.036  0.4418  0.7244 -0.6827
  778SOL     OW 2653   3.078   3.770   3.458  0.0680  0.4328  1.1218
  778SOL    HW1 2654   3.011   3.704   3.423 -0.7508  1.2389  1.1292
  778SOL    HW2 2655   3.099   3.749   3.553 -1.0364  0.8209  1.4670
  779SOL     OW 2656   0.018   1.094   2.720 -0.8316  0.1257 -0.2467
  779SOL    HW1 2657   0.099   1.089   2.661 -1.3002  1.2684 -1.0257
  779SOL    HW2 2658  -0.048   1.023   2.693 -0.8213  0.3102 -0.7585
  780SOL     OW 2659   2.054   4.604   3.271 -0.0433  0.1462 -0.0372
  780SOL    HW1 2660   1.973   4.557   3.306  0.0458 -1.3803 -1.7406
  780SOL    HW2 2661   2.060   4.695   3.312 -1.1292 -0.6894  2.1212
  781SOL     OW 2662   2.875   1.499   2.906  0.2465  0.1509  0.7428
  781SOL    HW1 2663   2.908   1.496   3.001  0.0005  1.0349  0.8660
  781SOL    HW2 2664   2.839   1.590   2.887 -0.1262 -0.1623 -0.0649
  782SOL     OW 2665   0.473   1.472   5.458 -0.1944 -0.2085 -0.0850
  782SOL    HW1 2666   0.512   1.384   5.432  2.5266  1.0240 -0.4782
  782SOL    HW2 2667   0.407   1.502   5.388 -1.0762 -1.8180  0.0058
  783SOL     OW 2668   3.896   1.151   2.174 -0.3084  0.4757  0.1637
  783SOL    HW1 2669   3.979   1.170   2.122 -0.4085 -0.9232 -0.5407
  783SOL    HW2 2670   3.881   1.053   2.179 -2.1983  0.7052 -0.1768
  784SOL     OW 2671   5.471   2.218   4.856 -0.0375  0.2647 -0.2224
  784SOL    HW1 2672   5.499   2.195   4.949  0.5696  0.6956 -0.2905
  784SOL    HW2 2673   5.485   2.316   4.841 -0.9114  0.3562 -0.5015
  785SOL     OW 2674   3.787   0.006   4.020  0.2490  0.6576  0.0016
  785SOL    HW1 2675   3.697   0.041   3.996  0.7369  1.4302 -0.7494
  785SOL    HW2 2676   3.858   0.059   3.973  1.1058  0.1221  0.6413
  786SOL     OW 2677   4.633   2.291   0.038  0.1519  0.3601  0.2748
  786SOL    HW1 2678   4.634   2.253  -0.055 -1.7154  0.4424  0.1799
  786SOL    HW2 2679   4.669   2.224   0.102  0.9125  0.0761 -0.4339
  787SOL     OW 2680   0.942   2.648   1.545 -0.0080 -0.7095  0.1232
  787SOL    HW1 2681   0.934   2.554   1.514 -0.3480 -0.6454  0.0077
  787SOL    HW2 2682   1.038   2.675   1.549  0.0598 -0.8832 -0.3796
  788SOL     OW 2683   4.179   1.738   4.454  1.0966 -0.4622 -0.1075
  788SOL    HW1 2684   4.214   1.652   4.493  0.4651 -0.9260 -0.5410
  788SOL    HW2 2685   4.210   1.815   4.510  0.4621 -1.0882  1.1591
  789SOL     OW 2686   3.727   1.925   3.724 -0.4385 -0.1733  0.5543
  789SOL    HW1 2687   3.644   1.908   3.671  0.6338 -1.4173 -0.7992
  789SOL    HW2 2688   3.780   1.998   3.681 -0.4264  0.0687  0.9670
  790SOL     OW 2689   4.687   0.099   5.046  0.2515 -0.4662  0.1589
  790SOL    HW1 2690   4.772   0.135   5.008  1.0344 -3.3987 -1.1621
  790SOL    HW2 2691   4.687   0.111   5.145  1.6528  0.6101  0.0624
  791SOL     OW 2692   5.082   4.889   5.455 -0.0748  0.0018  0.8165
  791SOL    HW1 2693   5.010   4.930   5.511  0.2671  1.8991 -0.0618
  791SOL    HW2 2694   5.088   4.937   5.368  2.4010  0.0534  0.9552
  792SOL     OW 2695   0.189   1.205   1.419 -0.2886 -0.4717  0.2786
  792SOL    HW1 2696   0.286   1.214   1.399 -0.6116  0.1709 -1.0850
  792SOL    HW2 2697   0.155   1.118   1.384 -0.3446 -0.4231  0.2136
  793SOL     OW 2698   3.801   3.161   2.745 -0.0364 -0.2682 -0.1153
  793SOL    HW1 2699   3.756   3.097   2.807  1.3604  0.0137  1.2572
  793SOL    HW2 2700   3.834   3.240   2.798  0.6538  0.2854 -1.3354
  794SOL     OW 2701   5.003   1.963   4.880  0.3358  0.2432  0.0079
  794SOL    HW1 2702   5.028   1.968   4.784  0.4430 -2.9221 -0.2450
  794SOL    HW2 2703   5.083   1.935   4.934 -0.0911  0.5030  0.8016
  795SOL     OW 2704   0.864   3.887   1.901 -0.1804 -0.1685  0.5900
  795SOL    HW1 2705   0.884   3.800   1.945  1.2837  0.2767  0.8646
  795SOL    HW2 2706   0.894   3.962   1.960 -0.6670  0.5141 -0.0034
  796SOL     OW 2707   4.413   0.933   1.684 -0.1197 -0.6120 -0.3343
  796SOL    HW1 2708   4.488   0.878   1.721  1.0261 -0.4818 -2.3253
  796SOL    HW2 2709   4.449   1.019   1.647 -1.2798 -0.4017 -1.0433
  797SOL     OW 2710   0.105   1.464   4.284 -0.0901 -0.3961 -0.4656
  797SOL    HW1 2711   0.125   1.370   4.256 -2.1224 -1.3946  1.2038
  797SOL    HW2 2712   0.016   1.491   4.248 -0.1776  0.3431  0.2809
  798SOL     OW 2713   3.681   4.638   0.232  0.4273  0.1188  0.1598
  798SOL    HW1 2714   3.729   4.556   0.264 -1.8399 -1.0781  0.7485
  798SOL    HW2 2715   3.674   4.636   0.132  0.4690 -0.3558  0.1652
  799SOL     OW 2716   3.802   3.157   0.760  0.0783  0.0462  0.2634
  799SOL    HW1 2717   3.897   3.177   0.784 -0.4449  0.5033  2.1468
  799SOL    HW2 2718   3.797   3.068   0.715  1.4621  0.3648 -0.6002
  800SOL     OW 2719   5.213   0.917   4.357 -0.2915 -0.1205 -0.4316
  800SOL    HW1 2720   5.150   0.935   4.432 -0.6645  1.4315 -1.0614
  800SOL    HW2 2721   5.169   0.861   4.288 -0.6109  0.0436 -0.3620
  801SOL     OW 2722   0.718   2.889   3.605  0.3870  0.5420  0.2533
  801SOL    HW1 2723   0.786   2.956   3.576  0.8890  1.2991  2.9271
  801SOL    HW2 2724   0.694   2.905   3.701 -1.6623 -1.3242  0.1331
  802SOL     OW 2725   2.809   3.758   2.532  0.0845  0.8845 -0.4674
  802SOL    HW1 2726   2.879   3.743   2.463 -0.3035  0.2577 -0.7346
  802SOL    HW2 2727   2.811   3.684   2.599 -0.5565  0.6608 -0.6822
  803SOL     OW 2728   3.381   0.063   1.781 -0.0850 -0.0256  0.5120
  803SOL    HW1 2729   3.383  -0.036   1.798  1.3085 -0.2131 -0.5608
  803SOL    HW2 2730   3.455   0.107   1.830 -1.1002  0.6101  1.5145
  804SOL     OW 2731   5.327   2.981   0.031 -0.7023 -0.0275  0.4813
  804SOL    HW1 2732   5.250   2.919   0.043 -0.7432 -0.0378  0.1591
  804SOL    HW2 2733   5.383   2.951  -0.045 -0.3502 -0.0488  0.7458
  805SOL     OW 2734   1.238   3.388   4.546  0.3037  0.4425 -0.1945
  805SOL    HW1 2735   1.278   3.350   4.629  1.2576  0.3617 -0.6868
  805SOL    HW2 2736   1.308   3.397   4.476 -0.3639  1.0912 -0.7952
  806SOL     OW 2737   4.807   5.447   4.242 -0.2612  0.0932  0.2555
  806SOL    HW1 2738   4.901   5.421   4.268 -0.5919 -1.9422 -0.3936
  806SOL    HW2 2739   4.811   5.522   4.176  0.9655 -0.5997 -0.5041
  807SOL     OW 2740   3.638   4.968   3.987 -0.1788  0.3150 -0.0707
  807SOL    HW1 2741   3.635   4.996   4.083  0.9603  0.0681  0.0447
  807SOL    HW2 2742   3.728   4.931   3.965  0.0991  1.7530 -1.6230
  808SOL     OW 2743   0.916   0.768   1.216  0.1281 -0.3908 -0.1699
  808SOL    HW1 2744   0.968   0.694   1.174  0.9334  0.2465 -0.3139
  808SOL    HW2 2745   0.841   0.730   1.270  0.1069 -1.2803 -0.8101
  809SOL     OW 2746   3.041   3.524   1.829 -0.0563 -0.2651 -0.1457
  809SOL    HW1 2747   3.073   3.602   1.775  3.2489 -1.2882  0.1198
  809SOL    HW2 2748   3.119   3.474   1.866 -2.0762 -2.7486  1.1323
  810SOL     OW 2749   5.434   3.115   2.041 -0.0467  0.3452 -0.1906
  810SOL    HW1 2750   5.468   3.206   2.018  1.0944 -0.3567 -1.4080
  810SOL    HW2 2751   5.339   3.107   2.011  0.2121  0.7501 -1.1536
  811SOL     OW 2752   5.418   4.365   0.657 -0.3149  0.2769  0.0205
  811SOL    HW1 2753   5.506   4.318   0.646 -0.5143 -0.0467 -0.2255
  811SOL    HW2 2754   5.398   4.378   0.754  0.1008  0.5351  0.0716
  812SOL     OW 2755   3.613   3.319   3.019 -0.0948  0.1776  0.2947
  812SOL    HW1 2756   3.657   3.373   2.947  0.9132 -1.9937 -0.8005
  812SOL    HW2 2757   3.628   3.363   3.107 -0.6298  2.4563 -0.6753
  813SOL     OW 2758   3.117   0.043   1.877  0.2553  0.0480 -0.0400
  813SOL    HW1 2759   3.087  -0.002   1.794 -1.2947  0.0991  0.4664
  813SOL    HW2 2760   3.202   0.094   1.858 -0.7445  1.1364 -1.9364
  814SOL     OW 2761   2.313   0.192   2.165 -0.1610  0.1420 -0.2678
  814SOL    HW1 2762   2.355   0.101   2.156  1.4383  0.6871  1.2811
  814SOL    HW2 2763   2.218   0.182   2.194  0.4305 -1.0481  1.4225
  815SOL     OW 2764   4.231   2.106   3.968 -0.1901  0.0879  0.0540
  815SOL    HW1 2765   4.261   2.146   3.881 -1.3316 -0.3022 -0.5484
  815SOL    HW2 2766   4.144   2.058   3.954  0.1976 -0.9862  1.1719
  816SOL     OW 2767   4.477   3.292   3.495 -0.3215 -0.0857 -0.1369
  816SOL    HW1 2768   4.572   3.316   3.513 -1.1968  2.2184  2.0736
  816SOL    HW2 2769   4.448   3.220   3.557 -0.6703  0.9956  0.9847
  817SOL     OW 2770   5.236   0.139   4.611  0.0143  0.6645 -0.2929
  817SOL    HW1 2771   5.298   0.217   4.622  0.3293  0.5112 -0.9758
  817SOL    HW2 2772   5.271   0.078   4.541 -1.1593  0.8256 -1.0420
  818SOL     OW 2773   2.048   0.197   2.237 -0.1911 -0.3743 -0.5979
  818SOL    HW1 2774   1.974   0.136   2.207 -0.7397 -0.9169  1.6575
  818SOL    HW2 2775   2.015   0.255   2.312  0.8362  1.5180 -1.5279
  819SOL     OW 2776   3.311   3.956   2.819  0.1056  0.1031  0.2695
  819SOL    HW1 2777   3.375   3.881   2.805  0.6977  0.9458 -1.9616
  819SOL    HW2 2778   3.236   3.950   2.753 -0.7324  0.5701  1.1491
  820SOL     OW 2779   0.522   0.409   4.746  0.5296  0.6134 -0.0505
  820SOL    HW1 2780   0.452   0.477   4.770 -0.0555 -0.2981  0.8860
  820SOL    HW2 2781   0.590   0.404   4.819  0.3255 -0.1070  0.1000
  821SOL     OW 2782   3.069   3.465   4.944 -0.3899 -0.1145  0.0640
  821SOL    HW1 2783   3.035   3.532   4.879  0.4635 -2.9478 -3.6415
  821SOL    HW2 2784   2.992   3.422   4.991 -1.1431  1.0234 -0.1079
  822SOL     OW 2785   4.629   1.634   3.251  0.1357 -0.3064 -0.2995
  822SOL    HW1 2786   4.710   1.591   3.211 -1.1724 -3.7402  0.3937
  822SOL    HW2 2787   4.548   1.581   3.226 -1.7245  2.0094  0.4789
  823SOL     OW 2788   5.220   2.695   4.930  0.2209 -0.6322  0.6248
  823SOL    HW1 2789   5.124   2.715   4.949  0.5225 -0.0554  1.6248
  823SOL    HW2 2790   5.263   2.656   5.012  1.0067 -0.2374  0.4128
  824SOL     OW 2791   5.449   3.022   3.809 -0.4715 -0.6185  0.6365
  824SOL    HW1 2792   5.395   3.100   3.775 -0.9756 -0.2641  2.1705
  824SOL    HW2 2793   5.506   2.986   3.735 -0.5303  0.9514 -0.2176
  825SOL     OW 2794   2.323   2.314   5.297 -0.2377 -0.0400  0.5208
  825SOL    HW1 2795   2.355   2.220   5.283  0.7307  0.3903 -0.3262
  825SOL    HW2 2796   2.257   2.316   5.372  0.5639 -1.2184  1.2914
  826SOL     OW 2797   3.983   1.409   4.570  0.3661  0.2051  0.0767
  826SOL    HW1 2798   3.990   1.355   4.486 -1.1265  1.4176 -0.8678
  826SOL    HW2 2799   3.941   1.354   4.642 -0.5310 -0.1033 -0.6720
  827SOL     OW 2800   2.078   3.126   2.371  0.4744  0.0013  0.2814
  827SOL    HW1 2801   2.111   3.113   2.277  0.7563 -2.1742  0.6156
  827SOL    HW2 2802   2.010   3.199   2.373 -0.7079 -0.9465 -1.9114
  828SOL     OW 2803   5.237   0.275   1.429  0.4145 -0.2601 -0.4328
  828SOL    HW1 2804   5.257   0.248   1.335  0.7945 -0.8161 -0.1944
  828SOL    HW2 2805   5.138   0.278   1.443  0.3605 -0.3988 -0.7812
  829SOL     OW 2806   1.145   3.588   0.785 -0.0573 -0.0983 -0.1830
  829SOL    HW1 2807   1.108   3.640   0.708 -0.8194 -1.0630 -0.5045
  829SOL    HW2 2808   1.243   3.574   0.772 -0.0043  0.5428 -0.5054
  830SOL     OW 2809   4.591   0.496   0.051  0.1200  0.3645  0.7684
  830SOL    HW1 2810   4.511   0.553   0.033 -0.8469 -0.4363  2.3201
  830SOL    HW2 2811   4.667   0.526  -0.007 -1.0469  1.6651 -0.1596
  831SOL     OW 2812   1.055   3.050   0.372 -0.0167 -0.2037 -0.0076
  831SOL    HW1 2813   0.963   3.085   0.387 -0.6188 -1.1180 -1.3855
  831SOL    HW2 2814   1.100   3.104   0.302  0.3646 -0.0038  0.3846
  832SOL     OW 2815   1.283   4.348   1.901 -0.4366  0.2597  0.8803
  832SOL    HW1 2816   1.267   4.435   1.854 -1.6016 -0.7535 -0.6734
  832SOL    HW2 2817   1.282   4.273   1.835 -0.6756 -1.0765  2.3378
  833SOL     OW 2818   4.112   0.099   4.944  0.2347 -0.2114 -0.0145
  833SOL    HW1 2819   4.207   0.126   4.957 -0.0629  1.6474 -1.2849
  833SOL    HW2 2820   4.101   0.003   4.968  2.8425 -1.0025 -1.5688
  834SOL     OW 2821   2.590   1.908   5.075  0.4592 -0.1696  0.2862
  834SOL    HW1 2822   2.524   1.924   5.148  0.6655 -0.9624  0.6485
  834SOL    HW2 2823   2.590   1.811   5.050  2.3414 -0.4187  1.1307
  835SOL     OW 2824   4.929   3.531   4.144  0.3349  0.2721  0.3321
  835SOL    HW1 2825   4.877   3.614   4.124  0.0178  0.3790  1.5032
  835SOL    HW2 2826   4.980   3.544   4.229  1.0089 -0.4113  0.0391
  836SOL     OW 2827   0.318   0.267   3.368 -0.5626  0.1780 -0.0980
  836SOL    HW1 2828   0.255   0.230   3.436 -2.2082  2.2920 -0.3659
  836SOL    HW2 2829   0.265   0.305   3.292  1.1111  1.0202 -0.8762
  837SOL     OW 2830   5.536   4.698   0.931  0.1882  0.0597  0.6208
  837SOL    HW1 2831   5.526   4.696   0.831  0.9500  0.7765  0.5270
  837SOL    HW2 2832   5.448   4.720   0.972  0.5770  3.3657 -0.0672
  838SOL     OW 2833   4.874   3.350   2.054  0.0908 -0.3123 -0.7624
  838SOL    HW1 2834   4.832   3.396   2.132  2.0073 -0.6362  0.5457
  838SOL    HW2 2835   4.807   3.291   2.009 -1.2017  0.2893  0.3085
  839SOL     OW 2836   3.454   2.531   3.871 -0.6579  0.5712 -0.3740
  839SOL    HW1 2837   3.537   2.476   3.874 -0.3380  1.0752  1.0733
  839SOL    HW2 2838   3.476   2.622   3.835 -0.4599  0.8507  0.4151
  840SOL     OW 2839   1.261   0.626   5.284  0.8281 -0.7001  0.1282
  840SOL    HW1 2840   1.171   0.626   5.242  1.5556  0.2032 -1.4940
  840SOL    HW2 2841   1.254   0.659   5.378 -0.3938  0.3009 -0.2979
  841SOL     OW 2842   1.069   2.578   2.418  0.1896 -0.8284 -0.0546
  841SOL    HW1 2843   1.075   2.620   2.509 -2.0631 -0.0589 -0.2025
  841SOL    HW2 2844   1.112   2.638   2.351 -0.0139 -0.3744  0.2179
  842SOL     OW 2845   3.515   5.374   3.842 -0.1629 -0.3553 -0.4333
  842SOL    HW1 2846   3.489   5.421   3.757  1.6328  0.5443 -0.5162
  842SOL    HW2 2847   3.610   5.343   3.835  0.3507  0.6389  1.6409
  843SOL     OW 2848   4.905   1.407   2.285  0.9044 -0.4513 -0.4290
  843SOL    HW1 2849   4.974   1.361   2.229 -1.1697 -1.1463 -2.5797
  843SOL    HW2 2850   4.816   1.367   2.267 -0.3553  1.5450  0.9666
  844SOL     OW 2851   3.598   3.704   3.995 -0.2762  0.4135  0.0702
  844SOL    HW1 2852   3.634   3.619   4.035  0.3814 -0.1681 -1.6691
  844SOL    HW2 2853   3.500   3.709   4.011 -0.3028 -0.6173  0.3147
  845SOL     OW 2854   2.399   4.787   4.368 -0.6651 -0.4002  0.6040
  845SOL    HW1 2855   2.372   4.748   4.280 -2.2497  1.0316  0.4188
  845SOL    HW2 2856   2.392   4.717   4.439 -1.3574 -1.0361 -0.0774
  846SOL     OW 2857   0.152   4.164   3.900 -0.4800  0.1460 -0.0455
  846SOL    HW1 2858   0.101   4.082   3.873 -2.9175  1.5725 -0.1289
  846SOL    HW2 2859   0.129   4.188   3.994  0.6827  0.4059  0.1826
  847SOL     OW 2860   1.208   2.649   3.162  0.1107 -0.5657  0.0453
  847SOL    HW1 2861   1.192   2.714   3.237 -2.0374 -1.0439  0.0462
  847SOL    HW2 2862   1.199   2.556   3.196  0.4728 -0.8204 -0.5402
  848SOL     OW 2863   4.898   5.132   1.721  0.9905  0.1235 -0.3116
  848SOL    HW1 2864   4.973   5.177   1.673 -0.0656  0.7431 -1.4415
  848SOL    HW2 2865   4.823   5.197   1.735  0.8370 -0.3394  1.2509
  849SOL     OW 2866   4.534   1.130   5.041  0.2208  0.4753  0.4573
  849SOL    HW1 2867   4.524   1.105   4.945  0.2932 -0.2019  0.6220
  849SOL    HW2 2868   4.549   1.229   5.049 -1.7377  0.8458 -0.0997
  850SOL     OW 2869   4.502   3.257   1.705  0.1724 -0.0434 -0.2265
  850SOL    HW1 2870   4.477   3.214   1.618 -0.0368 -4.3411  1.7086
  850SOL    HW2 2871   4.601   3.252   1.718  0.0496 -1.0297  0.4619
  851SOL     OW 2872   4.189   1.542   0.065 -0.4175 -0.1316 -0.0147
  851SOL    HW1 2873   4.184   1.475  -0.009  0.2239  0.5614 -0.6904
  851SOL    HW2 2874   4.227   1.498   0.146 -1.6394 -1.0435  0.1091
  852SOL     OW 2875   2.292   3.852   3.626  0.2314 -0.4817  0.0786
  852SOL    HW1 2876   2.234   3.833   3.706  0.7381  0.3605  0.6639
  852SOL    HW2 2877   2.319   3.766   3.584 -1.5522 -0.8991 -0.3088
  853SOL     OW 2878   5.008   2.129   3.824 -0.0827 -0.2009  1.0344
  853SOL    HW1 2879   5.052   2.213   3.793 -0.7825  0.2076  1.1487
  853SOL    HW2 2880   4.962   2.085   3.747  0.2485 -0.4640  0.9835
  854SOL     OW 2881   5.535   1.489   4.659  0.1885 -0.2852  0.0194
  854SOL    HW1 2882   5.608   1.555   4.673 -1.0677  1.3598 -0.8005
  854SOL    HW2 2883   5.470   1.525   4.592 -1.7921 -1.3077  1.2864
  855SOL     OW 2884   4.083   2.373   3.449 -0.4901  0.3803  0.2213
  855SOL    HW1 2885   4.075   2.274   3.461  1.6696  0.2141  0.5680
  855SOL    HW2 2886   4.117   2.394   3.358 -0.6222  0.8056  0.2639
  856SOL     OW 2887   0.095   2.236   2.746  0.0689  0.0973  0.6643
  856SOL    HW1 2888   0.103   2.139   2.723  1.5247  0.5410 -0.8814
  856SOL    HW2 2889   0.121   2.291   2.668  0.9444  1.7458  2.0439
  857SOL     OW 2890   3.314   3.032   3.931 -0.3653  0.2617  0.0007
  857SOL    HW1 2891   3.351   3.113   3.886  1.7684 -0.7694 -0.2381
  857SOL    HW2 2892   3.274   2.971   3.862  0.6851 -0.1899 -0.2379
  858SOL     OW 2893   1.935   5.131   1.456  0.2347 -0.0923  0.4548
  858SOL    HW1 2894   1.889   5.155   1.370 -0.5162 -0.0917  0.8403
  858SOL    HW2 2895   2.009   5.196   1.474 -0.2464  0.5093  0.2963
  859SOL     OW 2896   5.116   3.077   2.829 -0.1828 -0.3114 -0.1983
  859SOL    HW1 2897   5.182   3.005   2.806  0.3269  0.6729 -2.0181
  859SOL    HW2 2898   5.033   3.064   2.775 -0.4419 -0.0335  0.1340
  860SOL     OW 2899   4.660   3.730   5.034 -0.3221  0.6172  0.7520
  860SOL    HW1 2900   4.733   3.713   5.101  0.2987 -0.0168 -0.0766
  860SOL    HW2 2901   4.696   3.721   4.942 -1.0101  2.1854  0.2940
  861SOL     OW 2902   4.424   4.948   0.024  0.0906  0.4786 -0.2189
  861SOL    HW1 2903   4.420   4.996   0.112 -0.5422  1.1785 -0.6107
  861SOL    HW2 2904   4.490   4.993  -0.035 -1.3822  1.6925 -1.0297
  862SOL     OW 2905   0.989   2.777   0.158 -0.1992  0.1761  0.0851
  862SOL    HW1 2906   1.083   2.743   0.170 -0.3771 -0.1921  0.4908
  862SOL    HW2 2907   0.946   2.786   0.248  0.0602  2.1620  0.0565
  863SOL     OW 2908   2.182   4.194   4.738  0.0078  0.0997 -0.2018
  863SOL    HW1 2909   2.218   4.284   4.762  0.7805 -0.3383  0.3315
  863SOL    HW2 2910   2.083   4.194   4.750 -0.1343  1.1778 -1.2243
  864SOL     OW 2911   3.410   4.643   0.680 -0.1148  0.3955 -0.8189
  864SOL    HW1 2912   3.425   4.740   0.696 -1.9515  0.4952  0.5321
  864SOL    HW2 2913   3.312   4.625   0.672  0.1937 -1.3426 -1.1086
  865SOL     OW 2914   4.336   2.330   4.677  0.6143  0.4246 -0.3178
  865SOL    HW1 2915   4.392   2.275   4.614  1.4054 -0.6956  1.2916
  865SOL    HW2 2916   4.270   2.271   4.723 -2.0953  1.7571 -2.2727
  866SOL     OW 2917   3.511   5.493   5.169 -0.1306 -0.5382  0.2963
  866SOL    HW1 2918   3.515   5.592   5.181  1.3622 -0.5700  0.2183
  866SOL    HW2 2919   3.421   5.459   5.199  0.2959  0.4747  2.9236
  867SOL     OW 2920   0.914   4.542   3.663  0.1955  0.2932  0.1907
  867SOL    HW1 2921   0.888   4.541   3.760  0.4280 -1.8291  0.2615
  867SOL    HW2 2922   0.943   4.451   3.635 -0.7139  0.6609 -2.1279
  868SOL     OW 2923   2.963   3.399   2.594  0.1747 -0.2733  0.0216
  868SOL    HW1 2924   3.046   3.445   2.628  0.2330  0.5257 -1.1530
  868SOL    HW2 2925   2.958   3.410   2.495 -0.1858 -2.2275 -0.2097
  869SOL     OW 2926   1.215   3.625   5.015 -0.0599  0.0687 -0.0057
  869SOL    HW1 2927   1.179   3.606   5.106 -0.7399  1.1878 -0.0175
  869SOL    HW2 2928   1.312   3.602   5.011  0.2028  0.8919  1.2967
  870SOL     OW 2929   0.905   2.351   1.148 -0.1065 -0.3286  0.0552
  870SOL    HW1 2930   0.930   2.255   1.135  1.0424 -0.0022 -0.3039
  870SOL    HW2 2931   0.982   2.399   1.189  0.8775  1.2792 -3.3423
  871SOL     OW 2932   1.506   4.867   4.059  0.1601  0.1653  0.0968
  871SOL    HW1 2933   1.440   4.940   4.039 -0.2426 -0.1359  0.3216
  871SOL    HW2 2934   1.508   4.851   4.158 -0.2126 -0.5688 -0.0147
  872SOL     OW 2935   1.170   0.465   2.774  0.3438  0.0676  0.1379
  872SOL    HW1 2936   1.148   0.415   2.858  0.8308  0.5164  0.5390
  872SOL    HW2 2937   1.221   0.548   2.797  0.2667  0.3196 -0.5858
  873SOL     OW 2938   2.713   1.659   4.158  0.2518  0.2510  0.0662
  873SOL    HW1 2939   2.701   1.741   4.213  0.7310  0.6032 -0.3429
  873SOL    HW2 2940   2.645   1.658   4.084 -0.6777 -0.4401  0.8963
  874SOL     OW 2941   2.262   0.126   2.663 -0.1956  0.3000 -0.4807
  874SOL    HW1 2942   2.265   0.027   2.676  1.3728  0.4736  0.7568
  874SOL    HW2 2943   2.217   0.168   2.742  2.5104  0.8106  0.8872
  875SOL     OW 2944   0.937   3.233   0.050 -0.2059  0.4692  0.0907
  875SOL    HW1 2945   0.875   3.156   0.061 -1.8224  1.6729 -0.2936
  875SOL    HW2 2946   1.027   3.209   0.087 -0.2373 -2.0778 -1.2788
  876SOL     OW 2947   5.167   5.513   3.334 -0.0577 -0.1365  0.4232
  876SOL    HW1 2948   5.080   5.477   3.300 -0.3774  0.2365  0.8171
  876SOL    HW2 2949   5.149   5.597   3.386  0.5344 -0.0913  0.5585
  877SOL     OW 2950   2.726   2.345   4.110  0.0907 -0.4377 -0.5806
  877SOL    HW1 2951   2.666   2.280   4.155 -0.6808  0.0467 -0.8920
  877SOL    HW2 2952   2.810   2.300   4.082 -0.0100 -1.0599  0.1057
  878SOL     OW 2953   0.769   4.596   2.854  0.0767 -0.3763  0.4095
  878SOL    HW1 2954   0.847   4.652   2.881 -1.3282  0.6895  2.5310
  878SOL    HW2 2955   0.802   4.511   2.813  2.2803  1.3102 -1.5709
  879SOL     OW 2956   2.737   5.467   4.484  0.1192  0.4247 -0.2864
  879SOL    HW1 2957   2.703   5.560   4.476  1.2341  1.0280  1.4292
  879SOL    HW2 2958   2.706   5.427   4.571 -0.7184 -1.0004 -1.1889
  880SOL     OW 2959   4.636   5.036   5.137 -0.1778 -0.0785 -0.5503
  880SOL    HW1 2960   4.599   5.044   5.230 -0.0948 -2.6414 -0.2412
  880SOL    HW2 2961   4.711   4.970   5.136  0.3443  0.4855 -2.3175
  881SOL     OW 2962   1.287   2.323   1.107  0.6909 -0.0982  0.1935
  881SOL    HW1 2963   1.253   2.232   1.084  0.1974 -0.0392  0.6568
  881SOL    HW2 2964   1.271   2.385   1.031  0.2325 -0.1986  0.2036
  882SOL     OW 2965   3.900   3.611   2.254 -0.2363 -0.0047 -0.0051
  882SOL    HW1 2966   3.878   3.695   2.303  0.4984 -0.6344  1.4646
  882SOL    HW2 2967   3.887   3.625   2.155  0.3333  1.9659  0.1622
  883SOL     OW 2968   1.008   3.867   4.734  0.4659 -0.0776 -0.3523
  883SOL    HW1 2969   1.086   3.922   4.705  1.0016 -1.3867 -1.5603
  883SOL    HW2 2970   1.035   3.770   4.738 -0.8044 -0.4328  0.2794
  884SOL     OW 2971   0.254   2.629   3.920  0.1754  0.1160  0.4233
  884SOL    HW1 2972   0.235   2.629   4.019 -1.0968 -0.6180  0.2051
  884SOL    HW2 2973   0.353   2.628   3.905  0.4049  1.1036  1.6799
  885SOL     OW 2974   3.319   0.141   3.530 -1.1854 -0.2595  0.4497
  885SOL    HW1 2975   3.320   0.189   3.619 -0.8524  1.7227 -0.5567
  885SOL    HW2 2976   3.226   0.107   3.512 -1.5477  0.3913  1.0282
  886SOL     OW 2977   3.377   3.933   1.304 -0.1453 -1.0361 -0.3418
  886SOL    HW1 2978   3.277   3.929   1.294 -0.1055  0.1821 -1.5725
  886SOL    HW2 2979   3.399   3.972   1.393 -0.7796 -1.1625 -0.1206
  887SOL     OW 2980   2.400   4.187   0.323 -0.2124  0.0366  0.1581
  887SOL    HW1 2981   2.421   4.143   0.236 -0.1191  0.2976  0.0471
  887SOL    HW2 2982   2.302   4.180   0.342 -0.2050 -0.1798  0.1228
  888SOL     OW 2983   1.537   1.792   4.542  0.2668  0.1258  0.1535
  888SOL    HW1 2984   1.520   1.712   4.484 -1.9702 -0.6807  1.7559
  888SOL    HW2 2985   1.519   1.875   4.491 -0.6691 -0.5281 -0.6238
  889SOL     OW 2986   4.385   2.309   1.785 -0.1118  0.6908 -0.1337
  889SOL    HW1 2987   4.477   2.271   1.771 -0.0539  0.7896 -0.0206
  889SOL    HW2 2988   4.367   2.378   1.715 -0.6344 -0.3000 -1.0178
  890SOL     OW 2989   5.263   2.813   3.515 -0.3592  0.4402  0.1103
  890SOL    HW1 2990   5.342   2.843   3.461 -1.1001  1.7860 -0.2907
  890SOL    HW2 2991   5.180   2.827   3.461 -0.9691  0.1491  0.9667
  891SOL     OW 2992   3.697   0.652   5.373  0.3688 -0.0150  0.3562
  891SOL    HW1 2993   3.644   0.704   5.441  0.5969  0.3173  0.2791
  891SOL    HW2 2994   3.719   0.562   5.411 -0.0018 -0.0496  0.5015
  892SOL     OW 2995   0.300   1.828   4.381  0.1017  0.1732  0.1678
  892SOL    HW1 2996   0.292   1.738   4.425  1.5070  0.0901  0.3091
  892SOL    HW2 2997   0.338   1.893   4.446 -0.7189  0.8304  0.0012
  893SOL     OW 2998   1.879   2.464   4.006 -0.6958 -0.0305  0.1330
  893SOL    HW1 2999   1.843   2.550   3.972  0.0300  0.0631 -0.4234
  893SOL    HW2 3000   1.897   2.402   3.929 -0.1402 -0.2531  0.4316
  894SOL     OW 3001   5.367   4.862   2.992  0.5116 -0.1243  0.0104
  894SOL    HW1 3002   5.435   4.791   3.010  0.2172  0.1366  2.6896
  894SOL    HW2 3003   5.321   4.844   2.905  2.4737 -1.5172 -0.8022
  895SOL     OW 3004   0.842   2.771   0.403 -0.0888 -0.7727  0.1451
  895SOL    HW1 3005   0.787   2.694   0.434 -0.3582 -0.3466  0.7543
  895SOL    HW2 3006   0.796   2.857   0.427 -1.5171 -0.3401 -3.4151
  896SOL     OW 3007   0.865   2.997   1.697 -0.7551  0.1666  0.2776
  896SOL    HW1 3008   0.842   2.961   1.606  0.8557  0.3157 -0.2160
  896SOL    HW2 3009   0.798   2.965   1.763 -1.6464 -0.4016 -0.8640
  897SOL     OW 3010   3.781   1.459   5.484 -0.2562  0.3582 -0.4831
  897SOL    HW1 3011   3.696   1.494   5.444  0.8060  1.8523 -1.5747
  897SOL    HW2 3012   3.852   1.529   5.475  0.5544  0.0110  2.3733
  898SOL     OW 3013   2.784   4.298   1.421 -0.7127  0.1141 -0.2315
  898SOL    HW1 3014   2.850   4.264   1.489 -2.0408 -0.7412  0.6945
  898SOL    HW2 3015   2.770   4.228   1.351  0.4666  0.8965 -1.2613
  899SOL     OW 3016   0.646   5.276   0.691  0.3159 -0.0158 -0.5914
  899SOL    HW1 3017   0.604   5.356   0.648 -0.3123 -0.4156 -0.7333
  899SOL    HW2 3018   0.646   5.200   0.626 -0.9127 -0.7163  0.2137
  900SOL     OW 3019   1.114   0.704   2.275 -0.4595  0.1160 -0.9692
  900SOL    HW1 3020   1.153   0.618   2.308  1.0814  1.9007  2.3871
  900SOL    HW2 3021   1.048   0.739   2.341 -1.4193  1.2982 -2.4882
  901SOL     OW 3022   0.287   5.370   3.973 -0.3411 -0.4659 -0.1296
  901SOL    HW1 3023   0.227   5.450   3.964  0.0413 -0.2347 -0.6440
  901SOL    HW2 3024   0.247   5.307   4.039 -0.2403  0.5211  0.8992
  902SOL     OW 3025   2.626   3.631   3.031  0.0215 -0.1574  0.2770
  902SOL    HW1 3026   2.673   3.698   3.089 -1.1802  0.0381  1.0589
  902SOL    HW2 3027   2.639   3.539   3.070  1.8508 -0.4616 -0.9126
  903SOL     OW 3028   3.450   1.874   5.559 -0.4475 -0.5490 -0.1297
  903SOL    HW1 3029   3.363   1.907   5.523  0.4453  1.4085 -0.6732
  903SOL    HW2 3030   3.513   1.859   5.483 -0.1052 -1.3740  0.3021
  904SOL     OW 3031   5.395   1.320   2.650 -0.1449  0.5885 -0.8976
  904SOL    HW1 3032   5.458   1.250   2.683 -0.1976  1.3823  1.0393
  904SOL    HW2 3033   5.304   1.303   2.686 -0.0076  2.0117  0.2116
  905SOL     OW 3034   3.264   5.114   3.299 -0.4497  0.7309 -0.7513
  905SOL    HW1 3035   3.284   5.086   3.205 -1.1351  0.4882 -0.8271
  905SOL    HW2 3036   3.177   5.075   3.328  0.7178 -0.9156  0.7214
  906SOL     OW 3037   2.773   2.016   3.022 -0.1365 -0.2556 -0.0824
  906SOL    HW1 3038   2.764   2.057   2.931  0.9796 -0.1069 -0.1459
  906SOL    HW2 3039   2.722   2.070   3.088  0.0430  0.3521 -0.4299
  907SOL     OW 3040   3.296   1.815   2.289 -0.0209  0.7008 -0.1756
  907SOL    HW1 3041   3.257   1.776   2.372  0.7479 -1.7175 -0.8804
  907SOL    HW2 3042   3.223   1.835   2.223 -0.3176 -1.9797 -0.7497
  908SOL     OW 3043   4.232   4.442   2.503 -0.3041 -0.2742  0.3164
  908SOL    HW1 3044   4.202   4.451   2.408  0.0403 -0.8097  0.1518
  908SOL    HW2 3045   4.327   4.410   2.505 -0.5991 -1.1471  0.8416
  909SOL     OW 3046   0.778   3.184   0.695  0.5243  0.0285 -0.9944
  909SOL    HW1 3047   0.777   3.276   0.655  0.6279 -0.6163 -2.5865
  909SOL    HW2 3048   0.696   3.170   0.750  0.9809  1.3902  0.0889
  910SOL     OW 3049   4.002   4.256   2.140  0.9504 -0.1839  0.2703
  910SOL    HW1 3050   4.071   4.187   2.163  1.8242  0.8161  0.7594
  910SOL    HW2 3051   4.012   4.284   2.045  1.0410 -0.2355  0.2651
  911SOL     OW 3052   0.544   5.360   2.225 -0.3019  0.0896 -0.0399
  911SOL    HW1 3053   0.568   5.355   2.128  0.2517 -1.1625  0.1418
  911SOL    HW2 3054   0.472   5.428   2.238 -1.2333 -0.5459 -1.5171
  912SOL     OW 3055   0.132   0.051   4.086 -0.2688  0.4121  0.0966
  912SOL    HW1 3056   0.181   0.131   4.050 -1.3860  1.4082  0.6870
  912SOL    HW2 3057   0.148   0.044   4.184  1.6573 -1.4756 -0.3019
  913SOL     OW 3058   4.950   5.378   3.239  0.2960 -0.5722  0.1277
  913SOL    HW1 3059   4.855   5.398   3.262  0.2352 -0.2164 -0.4174
  913SOL    HW2 3060   4.983   5.303   3.296 -0.5990 -1.3253 -0.3170
  914SOL     OW 3061   2.056   4.022   2.631 -0.2133 -0.0893 -0.9999
  914SOL    HW1 3062   2.130   4.010   2.565  0.7935  1.9971 -0.3380
  914SOL    HW2 3063   2.043   4.120   2.650  0.3681 -0.5727  2.7714
  915SOL     OW 3064   0.614   0.263   3.407 -0.1601 -0.7073 -0.0893
  915SOL    HW1 3065   0.515   0.267   3.398 -0.4172 -2.0761  1.6761
  915SOL    HW2 3066   0.642   0.174   3.442  1.7017 -0.3261 -0.4612
  916SOL     OW 3067   1.922   4.397   5.342  0.3634  0.2353 -0.1006
  916SOL    HW1 3068   2.015   4.364   5.361  0.3964  0.4864  0.1869
  916SOL    HW2 3069   1.895   4.369   5.250 -0.2229 -2.0059  0.6791
  917SOL     OW 3070   0.752   1.283   0.876  0.1806 -0.4563 -0.0505
  917SOL    HW1 3071   0.666   1.246   0.910 -2.3011  1.0856 -3.9948
  917SOL    HW2 3072   0.789   1.349   0.942 -2.7055  0.2373  1.0049
  918SOL     OW 3073   0.494   4.932   5.517  0.4778 -0.3109 -0.1574
  918SOL    HW1 3074   0.443   5.017   5.533  1.9329  0.3534  1.1976
  918SOL    HW2 3075   0.584   4.955   5.478  0.3927 -1.3504 -1.0180
  919SOL     OW 3076   0.592   2.818   4.364  0.5143  0.1086  0.3265
  919SOL    HW1 3077   0.601   2.782   4.271  0.3497 -2.6569  1.2884
  919SOL    HW2 3078   0.506   2.868   4.372 -0.7668 -1.8644 -0.3811
  920SOL     OW 3079   5.369   4.268   0.038 -0.0842 -0.2359  0.3984
  920SOL    HW1 3080   5.279   4.305   0.062  0.2552  0.8373  0.0969
  920SOL    HW2 3081   5.401   4.313  -0.046  0.2402 -1.4359 -0.1357
  921SOL     OW 3082   0.648   4.062   3.344  0.0040  0.4508  0.0990
  921SOL    HW1 3083   0.733   4.030   3.303  0.6981  0.2511  1.6219
  921SOL    HW2 3084   0.590   3.984   3.368 -0.5573  0.5798 -0.7859
  922SOL     OW 3085   0.547   3.376   2.447 -0.4985 -0.1749 -0.8052
  922SOL    HW1 3086   0.542   3.276   2.455 -2.5477 -0.0245  0.3629
  922SOL    HW2 3087   0.485   3.418   2.512  1.9970  1.9824  0.3701
  923SOL     OW 3088   4.832   5.326   2.575  0.1335 -0.0393  0.1016
  923SOL    HW1 3089   4.752   5.385   2.587  0.0585  0.1820 -1.2643
  923SOL    HW2 3090   4.909   5.380   2.541  0.6612 -0.3807  0.7345
  924SOL     OW 3091   2.586   4.314   2.758 -0.7199  0.7308 -0.1552
  924SOL    HW1 3092   2.685   4.305   2.774 -0.6890  1.2061 -0.0598
  924SOL    HW2 3093   2.537   4.298   2.843 -0.7484  0.1812 -0.2698
  925SOL     OW 3094   3.871   0.530   1.070 -0.1547  0.7381  0.1868
  925SOL    HW1 3095   3.803   0.603   1.064  0.6369  1.4134 -0.7512
  925SOL    HW2 3096   3.891   0.511   1.166 -1.1860  0.9636  0.4645
  926SOL     OW 3097   2.909   3.946   4.967 -0.3070 -0.2030  0.8550
  926SOL    HW1 3098   2.923   4.040   4.937  1.3420 -0.6506  0.0666
  926SOL    HW2 3099   2.824   3.911   4.928  0.0712  0.3350 -0.5187
  927SOL     OW 3100   1.547   0.397   0.379 -0.5573 -0.4934 -0.2999
  927SOL    HW1 3101   1.509   0.488   0.363 -0.1213 -0.3674 -0.6341
  927SOL    HW2 3102   1.567   0.353   0.292 -2.3754 -1.6125 -0.2014
  928SOL     OW 3103   5.159   3.608   2.377  0.3264  0.2316  0.3654
  928SOL    HW1 3104   5.133   3.552   2.298 -1.7874  0.1103  1.0729
  928SOL    HW2 3105   5.172   3.549   2.457  2.1959  0.3797  0.2018
  929SOL     OW 3106   0.560   0.849   1.266 -0.2154 -0.4302  0.0467
  929SOL    HW1 3107   0.612   0.917   1.213 -0.5892  0.4824  0.8183
  929SOL    HW2 3108   0.613   0.765   1.273  1.7023  0.8124  1.7470
  930SOL     OW 3109   3.185   1.070   2.339 -0.0400  0.5340 -1.1119
  930SOL    HW1 3110   3.169   1.009   2.261 -2.5514 -0.4626  0.0816
  930SOL    HW2 3111   3.097   1.099   2.378  1.1070  0.9542  1.3765
  931SOL     OW 3112   4.861   3.339   5.438  0.1357 -0.5474  0.6253
  931SOL    HW1 3113   4.951   3.353   5.479 -0.6805  1.3100  1.9445
  931SOL    HW2 3114   4.805   3.284   5.499 -0.3397  0.2672  0.9448
  932SOL     OW 3115   5.047   0.732   2.232  0.1124 -0.2460  0.0614
  932SOL    HW1 3116   4.952   0.720   2.260 -0.0601  0.5601 -0.1360
  932SOL    HW2 3117   5.050   0.755   2.135  0.5838 -1.2709 -0.1750
  933SOL     OW 3118   3.688   1.660   0.814  0.3866  0.4213  1.1266
  933SOL    HW1 3119   3.672   1.658   0.912 -1.5935 -0.8743  0.8491
  933SOL    HW2 3120   3.691   1.755   0.782  0.2221  0.8359  2.3198
  934SOL     OW 3121   1.115   0.778   1.414  0.4202  0.2460  1.0470
  934SOL    HW1 3122   1.066   0.783   1.327  0.5696  0.0606  0.9496
  934SOL    HW2 3123   1.141   0.683   1.432  0.0585  0.2274  1.4805
  935SOL     OW 3124   3.234   2.444   3.698 -0.3094  0.0256  0.2195
  935SOL    HW1 3125   3.318   2.453   3.753  0.1832 -0.1332 -0.4918
  935SOL    HW2 3126   3.156   2.476   3.752  0.3322  1.0710  0.5594
  936SOL     OW 3127   5.372   0.167   2.266 -0.5151  0.0102  0.3813
  936SOL    HW1 3128   5.291   0.140   2.318  0.4895 -0.9673  1.5269
  936SOL    HW2 3129   5.362   0.136   2.171 -0.8302 -1.5383  0.8815
  937SOL     OW 3130   1.985   1.542   0.670  0.1701  0.1696  0.2241
  937SOL    HW1 3131   1.999   1.457   0.620 -2.5810 -0.0389 -0.3256
  937SOL    HW2 3132   2.024   1.534   0.762  2.3118 -0.6474 -0.6937
  938SOL     OW 3133   5.014   1.152   1.929 -0.2160 -0.1988 -0.1153
  938SOL    HW1 3134   5.094   1.099   1.902 -0.1833 -0.8751  1.1933
  938SOL    HW2 3135   4.934   1.091   1.935 -0.4977  0.1765 -0.0090
  939SOL     OW 3136   3.173   0.778   5.156  0.3444  0.4651  0.2788
  939SOL    HW1 3137   3.203   0.867   5.192 -1.9682  0.4442  2.4973
  939SOL    HW2 3138   3.254   0.721   5.139  1.7868  2.2999  0.5766
  940SOL     OW 3139   3.707   4.223   1.436 -0.4526  0.0928 -0.1718
  940SOL    HW1 3140   3.717   4.126   1.455 -1.0854 -0.1438 -0.9718
  940SOL    HW2 3141   3.690   4.272   1.522  0.9796 -0.3326  0.3760
  941SOL     OW 3142   0.772   5.328   4.047  0.4706 -0.3245 -0.1336
  941SOL    HW1 3143   0.769   5.326   4.147  0.8483  1.9484 -0.0108
  941SOL    HW2 3144   0.685   5.363   4.013  1.7049  2.9790 -0.2765
  942SOL     OW 3145   1.463   1.637   1.072 -0.0253  0.2666 -0.3389
  942SOL    HW1 3146   1.525   1.709   1.104  2.0717 -1.1404 -0.9414
  942SOL    HW2 3147   1.385   1.630   1.134  1.3667  0.9251  1.5904
  943SOL     OW 3148   1.923   0.600   3.259  0.0466 -0.2441 -0.5856
  943SOL    HW1 3149   2.013   0.565   3.235 -0.6392 -1.3494 -1.7011
  943SOL    HW2 3150   1.904   0.581   3.355  0.7098 -0.6777 -0.5388
  944SOL     OW 3151   5.192   2.714   5.336 -0.0404  0.6168 -0.0490
  944SOL    HW1 3152   5.248   2.673   5.264 -0.9549 -0.1056 -0.3630
  944SOL    HW2 3153   5.101   2.736   5.300 -0.2177  1.0887  0.6506
  945SOL     OW 3154   0.735   1.335   4.965  0.0042 -0.7156  0.2866
  945SOL    HW1 3155   0.771   1.243   4.979 -0.5636 -0.6806  2.3494
  945SOL    HW2 3156   0.706   1.346   4.870  0.5115 -2.4992 -0.1049
  946SOL     OW 3157   2.402   5.056   0.194  0.3371 -0.3180 -0.5756
  946SOL    HW1 3158   2.362   5.118   0.262  2.4970  0.5611  0.0009
  946SOL    HW2 3159   2.488   5.020   0.230  1.0647 -0.5767 -2.4881
  947SOL     OW 3160   0.238   0.695   2.377 -0.3033 -0.1578 -0.5516
  947SOL    HW1 3161   0.146   0.706   2.416 -0.9184  0.3295 -2.0629
  947SOL    HW2 3162   0.302   0.671   2.449 -1.6590 -0.7133  0.5076
  948SOL     OW 3163   2.425   2.226   4.166  0.1904 -0.4678  0.4355
  948SOL    HW1 3164   2.352   2.244   4.100  0.1854  0.0251  0.5734
  948SOL    HW2 3165   2.408   2.138   4.210 -0.7141 -0.0494  0.9695
  949SOL     OW 3166   4.732   1.072   2.114  0.2964  0.3281  0.8837
  949SOL    HW1 3167   4.710   1.170   2.123  1.2691  0.4890  1.6262
  949SOL    HW2 3168   4.802   1.047   2.181  0.7594 -0.6682  0.0570
  950SOL     OW 3169   1.047   1.778   0.949  0.2277  0.0216 -0.6326
  950SOL    HW1 3170   1.095   1.844   1.006 -0.5808 -0.6284  0.8507
  950SOL    HW2 3171   0.950   1.802   0.945  0.0828 -0.5724 -0.8011
  951SOL     OW 3172   0.173   4.745   5.463  0.1179 -0.5459 -0.1980
  951SOL    HW1 3173   0.098   4.778   5.406 -0.6109  1.0100  1.5323
  951SOL    HW2 3174   0.258   4.749   5.412 -0.5656  0.3528 -1.3168
  952SOL     OW 3175   2.063   4.437   0.905 -0.1482  0.2840  0.1515
  952SOL    HW1 3176   2.129   4.398   0.969  0.2779  1.1716  0.2662
  952SOL    HW2 3177   2.045   4.371   0.832 -0.7044 -0.7781  1.2014
  953SOL     OW 3178   3.205   4.394   3.650  1.2948  0.1775  0.3302
  953SOL    HW1 3179   3.253   4.355   3.728  2.8461  1.1287 -0.1109
  953SOL    HW2 3180   3.271   4.416   3.578 -0.1259 -0.9568 -1.3935
  954SOL     OW 3181   2.710   0.396   4.820  0.4105 -0.4467 -0.2926
  954SOL    HW1 3182   2.650   0.330   4.776  0.1407 -0.4638  0.0901
  954SOL    HW2 3183   2.805   0.369   4.808  0.2771 -1.2932  0.4588
  955SOL     OW 3184   5.512   0.625   3.965  0.1327 -0.2782 -0.3840
  955SOL    HW1 3185   5.483   0.667   4.050  2.0718  0.1003  0.1518
  955SOL    HW2 3186   5.495   0.526   3.968  2.4472 -0.7042  1.5606
  956SOL     OW 3187   0.067   2.424   3.801  0.2323 -0.5197  0.6547
  956SOL    HW1 3188   0.110   2.507   3.838  2.2942 -1.6285  0.9051
  956SOL    HW2 3189   0.138   2.363   3.767 -1.3666 -1.2030 -1.7040
  957SOL     OW 3190   1.257   5.079   0.447  0.0300 -0.1038  0.3489
  957SOL    HW1 3191   1.195   5.156   0.432  0.2286  0.3409  1.6761
  957SOL    HW2 3192   1.213   4.994   0.418 -0.3145  0.4571 -0.8343
  958SOL     OW 3193   5.372   5.295   3.099  0.0641 -0.0753 -0.0560
  958SOL    HW1 3194   5.444   5.233   3.128  0.8473  1.3421  1.1865
  958SOL    HW2 3195   5.289   5.243   3.077  1.3636 -1.6964 -1.2637
  959SOL     OW 3196   2.568   4.513   2.013 -0.3780 -0.3371  0.0203
  959SOL    HW1 3197   2.622   4.556   2.085  1.8723  1.0073 -2.2753
  959SOL    HW2 3198   2.471   4.532   2.028  0.1859  1.7897  1.5019
  960SOL     OW 3199   3.359   5.096   5.117 -0.6180  0.2106 -0.4190
  960SOL    HW1 3200   3.388   5.164   5.050 -0.0262 -0.6541 -1.0579
  960SOL    HW2 3201   3.271   5.124   5.158 -0.0920  1.6495 -0.2181
  961SOL     OW 3202   5.376   4.519   2.791  0.1463 -0.0731 -0.6177
  961SOL    HW1 3203   5.476   4.512   2.798  0.4247  2.0504 -1.7041
  961SOL    HW2 3204   5.336   4.513   2.883  1.1288 -2.1918 -0.2672
  962SOL     OW 3205   1.536   3.475   0.863 -0.2067 -0.4532  0.1197
  962SOL    HW1 3206   1.523   3.554   0.803 -0.5347 -0.3688  0.3032
  962SOL    HW2 3207   1.448   3.446   0.900 -0.2007 -1.3711 -0.5417
  963SOL     OW 3208   4.002   0.528   0.326  0.9859  0.0680  0.0381
  963SOL    HW1 3209   3.996   0.433   0.296  0.4665  0.3542 -0.8035
  963SOL    HW2 3210   4.077   0.573   0.278 -0.8787  0.9744 -2.1785
  964SOL     OW 3211   3.975   2.159   4.301  0.0692  0.3697  0.1968
  964SOL    HW1 3212   4.020   2.248   4.310 -1.0652  0.8753  1.2904
  964SOL    HW2 3213   4.044   2.087   4.295  1.1083  0.9892  3.0089
  965SOL     OW 3214   3.785   3.664   2.564 -0.1778 -0.0980 -0.4960
  965SOL    HW1 3215   3.822   3.757   2.563 -0.9795  0.2438  0.5512
  965SOL    HW2 3216   3.856   3.601   2.594  0.2349  0.2299 -0.7652
  966SOL     OW 3217   4.593   1.115   0.381  0.5873 -0.0928  0.0428
  966SOL    HW1 3218   4.553   1.096   0.471  1.0683  0.3450  0.3526
  966SOL    HW2 3219   4.531   1.175   0.330  0.9870  0.8687  0.6566
  967SOL     OW 3220   1.318   5.367   5.497  0.3973 -0.4690  0.7683
  967SOL    HW1 3221   1.416   5.350   5.503  0.0975 -2.0666  2.0401
  967SOL    HW2 3222   1.277   5.360   5.588 -0.8230  0.8549  0.3716
  968SOL     OW 3223   5.254   2.086   0.249  0.4952 -0.4420  0.3086
  968SOL    HW1 3224   5.279   2.028   0.327  0.4364 -0.3345  0.4096
  968SOL    HW2 3225   5.169   2.052   0.209  0.2008 -0.1413  0.6699
  969SOL     OW 3226   2.131   5.143   1.181  0.0524  0.2772  0.1613
  969SOL    HW1 3227   2.219   5.134   1.228  1.2566  1.3239 -1.7519
  969SOL    HW2 3228   2.067   5.192   1.240  0.0622 -2.1326  2.3460
  970SOL     OW 3229   2.022   2.944   4.301  0.3927 -0.0866 -0.0605
  970SOL    HW1 3230   2.103   3.000   4.318  0.7896 -0.3311 -1.0801
  970SOL    HW2 3231   1.945   2.980   4.354  1.0060  0.5348  0.4203
  971SOL     OW 3232   0.715   0.788   3.380 -0.0289 -0.0056  0.3656
  971SOL    HW1 3233   0.720   0.849   3.460 -1.0326 -0.5623  0.8677
  971SOL    HW2 3234   0.697   0.695   3.410  2.6721 -0.8472 -0.2960
  972SOL     OW 3235   3.929   1.893   0.687 -0.3548  0.6329 -0.4741
  972SOL    HW1 3236   3.832   1.908   0.708 -0.7516 -1.0270 -0.9556
  972SOL    HW2 3237   3.973   1.849   0.765 -1.0361 -2.4431 -1.6661
  973SOL     OW 3238   4.792   4.916   2.841  0.0148 -0.4913  0.3808
  973SOL    HW1 3239   4.745   5.002   2.860 -0.4015 -1.0593  2.1462
  973SOL    HW2 3240   4.757   4.876   2.756 -1.4327 -0.0264  0.7317
  974SOL     OW 3241   1.899   3.623   0.821 -0.6019  0.2311 -0.2888
  974SOL    HW1 3242   1.933   3.706   0.776  1.7849 -0.4888  0.0306
  974SOL    HW2 3243   1.822   3.647   0.881  0.0550  2.2421 -0.1461
  975SOL     OW 3244   0.564  -0.007   0.858 -0.1985  0.2027  0.0607
  975SOL    HW1 3245   0.520  -0.013   0.947 -0.3970 -0.3924 -0.0737
  975SOL    HW2 3246   0.503   0.037   0.793  0.1079  1.0252  0.3149
  976SOL     OW 3247   2.443   5.206   1.836  0.6238 -0.2156  0.2424
  976SOL    HW1 3248   2.535   5.192   1.799  0.4846 -0.6045  0.0309
  976SOL    HW2 3249   2.442   5.181   1.933  0.6377 -0.6603  0.1327
  977SOL     OW 3250   5.360   4.089   2.453  0.5432  0.2489 -0.0707
  977SOL    HW1 3251   5.410   4.168   2.419  0.2618  0.6508  0.4418
  977SOL    HW2 3252   5.404   4.005   2.420  0.5196  0.6122 -1.0740
  978SOL     OW 3253   1.879   1.734   2.796  0.4511 -0.5992  0.3761
  978SOL    HW1 3254   1.915   1.655   2.846 -1.0820 -0.9668  0.9496
  978SOL    HW2 3255   1.793   1.763   2.837  0.0967  0.2721 -0.9294
  979SOL     OW 3256   0.008   2.208   0.545 -0.4022 -0.1269 -0.1349
  979SOL    HW1 3257  -0.002   2.188   0.448  1.6110  0.7303 -0.5748
  979SOL    HW2 3258   0.065   2.138   0.588 -1.1668 -0.4245  0.4039
  980SOL     OW 3259   4.309   5.313   2.706  0.6340 -0.3359 -0.1768
  980SOL    HW1 3260   4.220   5.311   2.751  0.7429 -1.1134  0.0223
  980SOL    HW2 3261   4.358   5.228   2.725  1.0220 -0.3293 -1.0854
  981SOL     OW 3262   2.455   1.299   4.480 -0.0809 -0.3734 -0.0235
  981SOL    HW1 3263   2.513   1.310   4.560  1.9018  0.9989 -1.5429
  981SOL    HW2 3264   2.450   1.386   4.430 -2.0541 -0.9265 -0.9006
  982SOL     OW 3265   3.991   0.200   5.169 -0.1876 -0.3154 -0.2796
  982SOL    HW1 3266   4.024   0.140   5.240 -3.4846 -1.7686  0.2160
  982SOL    HW2 3267   4.033   0.176   5.081  1.3648 -0.7495  0.5629
  983SOL     OW 3268   5.258   4.238   1.321 -0.6428  0.0209 -0.2357
  983SOL    HW1 3269   5.354   4.215   1.308 -0.6114  1.2437 -2.8305
  983SOL    HW2 3270   5.211   4.235   1.232 -2.5189  1.5345  0.6291
  984SOL     OW 3271   3.127   0.272   3.030 -0.1484 -0.0072  0.4460
  984SOL    HW1 3272   3.040   0.319   3.042 -0.5267 -0.8080  0.9255
  984SOL    HW2 3273   3.169   0.300   2.943 -0.5018  0.9687  0.5809
  985SOL     OW 3274   1.453   0.196   0.698  0.8150 -0.0213  0.0244
  985SOL    HW1 3275   1.490   0.272   0.752  1.4095 -1.3889  1.6123
  985SOL    HW2 3276   1.526   0.155   0.644  0.4341  0.6717 -1.0566
  986SOL     OW 3277   2.165   3.915   0.432  0.4781  0.1407 -0.2249
  986SOL    HW1 3278   2.234   3.909   0.504  0.3663  1.2245 -0.0177
  986SOL    HW2 3279   2.080   3.872   0.463  1.3634 -2.2980 -0.9195
  987SOL     OW 3280   0.299   3.143   0.240 -0.1248 -0.3378  0.1666
  987SOL    HW1 3281   0.318   3.158   0.337  1.3744  1.8181 -0.3757
  987SOL    HW2 3282   0.384   3.122   0.192 -0.2321  1.9540 -1.1684
  988SOL     OW 3283   0.967   0.868   4.145  0.0207  0.1001  0.1402
  988SOL    HW1 3284   0.988   0.771   4.148 -0.7596 -0.0515  1.2715
  988SOL    HW2 3285   0.869   0.881   4.132  0.1232  0.7353 -0.0366
  989SOL     OW 3286   3.252   3.214   3.440  0.0949 -0.0808  0.8064
  989SOL    HW1 3287   3.231   3.305   3.475  2.3267  0.8966 -0.1424
  989SOL    HW2 3288   3.241   3.213   3.340 -0.6891 -1.1143  0.8873
  990SOL     OW 3289   1.120   1.706   4.286  0.2714 -0.2390  0.2354
  990SOL    HW1 3290   1.039   1.765   4.288 -0.2536 -0.9587  0.7509
  990SOL    HW2 3291   1.113   1.644   4.208  0.5247 -0.0334  0.0484
  991SOL     OW 3292   0.756   1.513   4.051 -0.2860 -0.6258  0.2733
  991SOL    HW1 3293   0.747   1.449   3.974 -0.3636 -1.2956  0.8276
  991SOL    HW2 3294   0.677   1.575   4.052  0.9572  1.1129 -1.7049
  992SOL     OW 3295   2.045   0.468   5.565  0.0115 -0.6677 -0.2571
  992SOL    HW1 3296   2.106   0.422   5.500 -0.1851  1.1152 -1.8002
  992SOL    HW2 3297   1.986   0.532   5.516  0.0993  1.0516  1.7317
  993SOL     OW 3298   3.553   2.108   2.934 -0.4420  0.0872 -0.1365
  993SOL    HW1 3299   3.464   2.064   2.927 -0.1639 -0.8780  1.9179
  993SOL    HW2 3300   3.622   2.052   2.887 -1.0794  1.6399 -3.1927
  994SOL     OW 3301   3.025   4.184   2.550 -0.6285  0.8237 -0.1882
  994SOL    HW1 3302   3.034   4.250   2.624  0.3257 -1.3583  1.7468
  994SOL    HW2 3303   2.963   4.110   2.578  1.8522 -1.4800 -0.3466
  995SOL     OW 3304   1.939   3.331   0.739  0.2577  0.4462  0.3392
  995SOL    HW1 3305   1.939   3.422   0.779 -0.6355  0.2282  0.8611
  995SOL    HW2 3306   2.031   3.292   0.745  0.2333  0.5694  1.8714
  996SOL     OW 3307   1.310   1.229   5.237 -0.5546 -0.2969  0.5463
  996SOL    HW1 3308   1.321   1.283   5.321 -0.0748  0.2629  0.1302
  996SOL    HW2 3309   1.345   1.137   5.252 -1.2743 -0.4741  1.2303
  997SOL     OW 3310   2.360   5.474   5.452 -0.5415  0.5067  0.4153
  997SOL    HW1 3311   2.320   5.399   5.504  1.6284 -1.3325 -0.3965
  997SOL    HW2 3312   2.444   5.443   5.407  0.6380  3.5179  0.2807
  998SOL     OW 3313   4.908   1.234   2.903 -0.3200  0.1116 -0.0884
  998SOL    HW1 3314   4.854   1.217   2.821 -0.1600  0.5582 -0.2869
  998SOL    HW2 3315   4.884   1.166   2.973 -2.1377  1.0988  0.3068
  999SOL     OW 3316   5.238   5.089   0.036 -1.2554  0.1748  0.7039
  999SOL    HW1 3317   5.194   5.012  -0.011  0.7206 -0.8313  0.4095
  999SOL    HW2 3318   5.319   5.117  -0.015  0.1992 -0.0513  2.7646
 1000SOL     OW 3319   0.566   3.097   2.448 -0.1393  0.0949  0.4641
 1000SOL    HW1 3320   0.632   3.035   2.491  1.1232  0.2808 -1.1276
 1000SOL    HW2 3321   0.561   3.078   2.350 -0.2203  2.0595  0.0485
 1001SOL     OW 3322   1.790   0.420   2.598 -0.0670  0.5613  0.2482
 1001SOL    HW1 3323   1.802   0.325   2.628  0.0383  0.2555 -0.7016
 1001SOL    HW2 3324   1.748   0.420   2.507  0.9294  1.3818 -0.2371
 1002SOL     OW 3325   3.612   0.098   0.846  0.2740  0.0055  0.4411
 1002SOL    HW1 3326   3.522   0.061   0.824  0.5620 -0.8885  0.7288
 1002SOL    HW2 3327   3.602   0.184   0.896 -0.4782 -1.1301  2.3549
 1003SOL     OW 3328   0.131   0.152   3.550  0.1457  0.0950 -0.3013
 1003SOL    HW1 3329   0.107   0.196   3.637 -0.4751 -0.9537  0.0735
 1003SOL    HW2 3330   0.104   0.056   3.552  1.7241 -0.4059 -0.9994
 1004SOL     OW 3331   0.699   2.561   5.187  0.4005  0.2297  0.6158
 1004SOL    HW1 3332   0.699   2.463   5.165 -0.2736  0.4088 -0.2183
 1004SOL    HW2 3333   0.789   2.600   5.167  0.9077 -0.3607  1.6550
 1005SOL     OW 3334   2.217   0.908   3.916  0.0199 -0.5226  0.3720
 1005SOL    HW1 3335   2.145   0.949   3.861  0.5681 -0.2443 -0.1584
 1005SOL    HW2 3336   2.210   0.808   3.912 -0.4613 -0.4965  0.5056
 1006SOL     OW 3337   2.564   4.233   3.044  0.1296 -0.2783  0.6468
 1006SOL    HW1 3338   2.569   4.133   3.034  0.6131 -0.0684 -2.0295
 1006SOL    HW2 3339   2.643   4.265   3.097  0.5981 -1.2266  0.5392
 1007SOL     OW 3340   2.505   4.196   5.014  0.6517 -0.3339  0.3110
 1007SOL    HW1 3341   2.568   4.146   5.073  0.3931  0.2827  1.1500
 1007SOL    HW2 3342   2.474   4.279   5.062 -0.9565 -0.7270  0.0239
 1008SOL     OW 3343   3.134   3.691   5.483 -0.3647  0.3427 -0.2452
 1008SOL    HW1 3344   3.084   3.686   5.397 -1.9393 -0.5230  0.6600
 1008SOL    HW2 3345   3.187   3.608   5.496 -0.4016  0.3197 -0.2402
 1009SOL     OW 3346   0.745   3.925   4.628  0.1660 -0.3936 -0.5542
 1009SOL    HW1 3347   0.830   3.875   4.643 -0.9102 -2.1311  0.1335
 1009SOL    HW2 3348   0.754   4.017   4.664  1.0135 -1.2969  1.7380
 1010SOL     OW 3349   1.789   4.611   2.630 -0.9841  0.0270  0.1379
 1010SOL    HW1 3350   1.835   4.640   2.714  1.8304  0.0022 -1.2775
 1010SOL    HW2 3351   1.760   4.691   2.578 -2.6635  0.0431  1.0445
 1011SOL     OW 3352   0.316   1.042   5.173  0.4919  0.3815 -0.0842
 1011SOL    HW1 3353   0.306   0.978   5.249  1.7619 -0.7723 -0.8404
 1011SOL    HW2 3354   0.336   0.992   5.089 -0.5310  1.6473 -1.1405
 1012SOL     OW 3355   4.664   2.014   2.020  0.2981  0.4102  0.2824
 1012SOL    HW1 3356   4.726   1.990   1.945 -1.7013 -1.2346 -0.9757
 1012SOL    HW2 3357   4.586   1.950   2.020 -0.7652  1.5945  2.5563
 1013SOL     OW 3358   2.852   0.542   2.120 -0.3075  0.2626 -0.1791
 1013SOL    HW1 3359   2.887   0.557   2.212 -0.3288 -1.8428  0.2067
 1013SOL    HW2 3360   2.921   0.569   2.053  0.3835  0.1564  0.4825
 1014SOL     OW 3361   4.822   3.457   0.227  0.2373 -0.3210  0.2982
 1014SOL    HW1 3362   4.754   3.519   0.187  0.3541  1.2695  2.3576
 1014SOL    HW2 3363   4.788   3.363   0.222 -1.5912  0.2933  0.2226
 1015SOL     OW 3364   4.877   4.894   4.665 -0.3427 -0.1030  0.3690
 1015SOL    HW1 3365   4.874   4.975   4.724  0.1832 -0.4401  0.8700
 1015SOL    HW2 3366   4.851   4.920   4.572  1.5604  1.0508  0.0900
 1016SOL     OW 3367   2.890   4.901   1.464 -0.4419 -0.0522 -0.4306
 1016SOL    HW1 3368   2.795   4.933   1.456 -0.8551 -0.3427  2.3275
 1016SOL    HW2 3369   2.909   4.876   1.559  2.3764 -0.1998 -0.9431
 1017SOL     OW 3370   4.196   2.805   5.082  0.2162 -0.3353 -0.0611
 1017SOL    HW1 3371   4.271   2.821   5.019  0.8259  1.2623  1.0091
 1017SOL    HW2 3372   4.225   2.827   5.175 -0.6268 -2.6851  0.8314
 1018SOL     OW 3373   5.397   0.227   4.976  0.4074 -0.0473 -0.4570
 1018SOL    HW1 3374   5.317   0.261   4.927  0.0532 -1.6080 -1.0160
 1018SOL    HW2 3375   5.480   0.262   4.931  0.0689 -0.3891 -1.3849
 1019SOL     OW 3376   3.461   3.775   3.332 -0.5288  0.1756 -0.0891
 1019SOL    HW1 3377   3.374   3.743   3.369 -0.7051 -0.5776 -1.1121
 1019SOL    HW2 3378   3.485   3.862   3.374 -2.4226  1.0458 -0.7220
 1020SOL     OW 3379   0.121   2.476   1.698 -0.0756  0.2295  0.3359
 1020SOL    HW1 3380   0.216   2.497   1.677  0.2944 -0.4203  1.2675
 1020SOL    HW2 3381   0.098   2.511   1.789 -1.1458  1.5788 -0.4182
 1021SOL     OW 3382   3.427   2.485   2.900  0.4272 -0.1489 -0.7081
 1021SOL    HW1 3383   3.478   2.562   2.864  0.2598  1.3084  1.9368
 1021SOL    HW2 3384   3.481   2.439   2.971  0.2875 -2.1589 -1.8269
 1022SOL     OW 3385   5.239   3.215   4.181  0.0327  0.1304 -0.1241
 1022SOL    HW1 3386   5.167   3.263   4.132 -1.2203 -0.8877  0.6333
 1022SOL    HW2 3387   5.285   3.278   4.243 -0.2494  0.7840 -0.5719
 1023SOL     OW 3388   3.480   3.472   2.122  0.2708 -0.2770  0.2670
 1023SOL    HW1 3389   3.537   3.408   2.071  0.1008 -0.5782  0.4536
 1023SOL    HW2 3390   3.508   3.565   2.101  1.8543 -0.4381  1.5574
 1024SOL     OW 3391   3.412   4.618   0.375 -0.1239 -0.0465 -0.2276
 1024SOL    HW1 3392   3.482   4.619   0.303 -0.7873  0.6724 -0.8757
 1024SOL    HW2 3393   3.456   4.615   0.464  0.7710  1.4290 -0.5878
 1025SOL     OW 3394   5.028   4.177  -0.001 -0.0716  0.7140 -0.0658
 1025SOL    HW1 3395   5.003   4.142   0.089 -4.2132  0.9051 -0.9527
 1025SOL    HW2 3396   5.045   4.100  -0.063 -1.9021  0.3694 -0.2032
 1026SOL     OW 3397   2.708   0.261   2.435  0.1394  0.0776  0.2220
 1026SOL    HW1 3398   2.638   0.328   2.460  0.1150  0.8169 -1.6716
 1026SOL    HW2 3399   2.795   0.287   2.475 -0.2177  0.3063  0.8692
 1027SOL     OW 3400   1.297   0.396   3.949  0.0063 -0.2485  0.2957
 1027SOL    HW1 3401   1.239   0.371   3.872  0.1993  1.2577 -0.3788
 1027SOL    HW2 3402   1.292   0.495   3.964  2.2528 -0.0792  0.3120
 1028SOL     OW 3403   4.952   4.027   0.237  0.2383 -0.1581  0.7491
 1028SOL    HW1 3404   5.044   3.999   0.261  0.8336  2.1674  1.4435
 1028SOL    HW2 3405   4.910   4.076   0.313 -2.5342 -3.1168  1.3513
 1029SOL     OW 3406   3.670   1.439   0.185 -0.6361 -0.0366  0.2973
 1029SOL    HW1 3407   3.717   1.447   0.097  1.2647 -0.6050  1.1991
 1029SOL    HW2 3408   3.661   1.530   0.226  0.9087 -0.0237  0.6803
 1030SOL     OW 3409   1.216   0.274   0.647 -0.2528 -0.6611 -0.1949
 1030SOL    HW1 3410   1.311   0.276   0.676 -0.0416 -0.4320 -0.8848
 1030SOL    HW2 3411   1.211   0.274   0.547 -0.9824 -0.0788 -0.1710
 1031SOL     OW 3412   5.409   2.496   4.797 -0.3743  0.0821 -0.8639
 1031SOL    HW1 3413   5.414   2.562   4.872 -0.8315  0.1621 -0.9052
 1031SOL    HW2 3414   5.317   2.458   4.790 -0.4085  0.2698 -1.5489
 1032SOL     OW 3415   0.916   1.201   0.683  0.0231 -0.7657 -0.3941
 1032SOL    HW1 3416   0.942   1.280   0.628 -0.4225 -0.5208 -0.2573
 1032SOL    HW2 3417   0.867   1.232   0.765  1.6201 -1.0296  0.7210
 1033SOL     OW 3418   4.105   1.658   1.179  0.3073 -0.3508 -0.7709
 1033SOL    HW1 3419   4.186   1.689   1.229  1.4802 -2.3101 -1.3267
 1033SOL    HW2 3420   4.037   1.624   1.243  1.7257 -2.6825 -0.3557
 1034SOL     OW 3421   0.722   1.358   5.244 -0.3200  0.0934 -0.7129
 1034SOL    HW1 3422   0.735   1.389   5.150  2.2599 -0.2833 -0.5326
 1034SOL    HW2 3423   0.808   1.324   5.281 -0.2770  3.4862  3.0102
 1035SOL     OW 3424   3.834   4.804   3.232 -0.0639 -0.6551  0.1774
 1035SOL    HW1 3425   3.753   4.749   3.210  0.4048 -0.6287 -1.8485
 1035SOL    HW2 3426   3.810   4.901   3.227  0.0485 -0.6490 -0.3075
 1036SOL     OW 3427   1.799   2.997   0.053 -0.0592 -0.0463 -0.3926
 1036SOL    HW1 3428   1.711   3.044   0.059 -0.8296 -1.3668 -0.9531
 1036SOL    HW2 3429   1.809   2.934   0.130 -0.1761 -0.8223 -1.0001
 1037SOL     OW 3430   3.921   3.762   5.394 -0.0256 -0.5509  0.6348
 1037SOL    HW1 3431   3.824   3.779   5.378  0.2794  1.0389  0.3242
 1037SOL    HW2 3432   3.971   3.776   5.308  0.6145 -0.2362  1.0564
 1038SOL     OW 3433   3.986   0.521   4.279  0.0267 -0.1937  0.1074
 1038SOL    HW1 3434   3.977   0.579   4.360  2.0567  1.1799 -0.5518
 1038SOL    HW2 3435   3.939   0.435   4.294 -0.9218  0.6083  2.1488
 1039SOL     OW 3436   2.963   0.088   4.253  0.1745 -0.1113 -0.1755
 1039SOL    HW1 3437   2.994  -0.005   4.231 -0.5877 -0.7546  1.3709
 1039SOL    HW2 3438   2.890   0.115   4.190 -0.2906 -0.9637 -0.0140
 1040SOL     OW 3439   0.167   2.258   0.850 -0.0660  0.5164 -0.7231
 1040SOL    HW1 3440   0.230   2.323   0.807 -0.1863  1.0125 -0.1719
 1040SOL    HW2 3441   0.193   2.165   0.825  1.3961  0.6635  0.1119
 1041SOL     OW 3442   0.455   1.806   0.156 -0.0994 -0.4544 -0.2086
 1041SOL    HW1 3443   0.425   1.711   0.143 -1.8488 -0.0080  0.3883
 1041SOL    HW2 3444   0.395   1.851   0.222  1.5167  0.7074  0.5114
 1042SOL     OW 3445   0.508   0.619   4.036  0.4255 -0.2210  0.2798
 1042SOL    HW1 3446   0.466   0.557   3.970  3.2632  0.7603 -2.7128
 1042SOL    HW2 3447   0.509   0.712   3.998 -0.0639  0.9441  2.8863
 1043SOL     OW 3448   4.703   3.153   1.930 -0.5843  0.8428 -0.3159
 1043SOL    HW1 3449   4.754   3.085   1.983 -1.9345  0.6297  0.7567
 1043SOL    HW2 3450   4.694   3.121   1.835 -3.2419 -1.7551  0.6582
 1044SOL     OW 3451   2.339   1.221   3.173  0.2792  0.3654  0.7872
 1044SOL    HW1 3452   2.399   1.171   3.236 -0.9967 -0.1576  1.6410
 1044SOL    HW2 3453   2.265   1.264   3.225 -1.0423 -0.4178 -0.3803
 1045SOL     OW 3454   4.805   3.817   3.129 -0.2410 -0.2907 -0.3813
 1045SOL    HW1 3455   4.881   3.780   3.076 -0.4292  0.1711 -0.9850
 1045SOL    HW2 3456   4.832   3.904   3.169 -0.6174  0.1269 -1.0245
 1046SOL     OW 3457   3.366   2.420   2.006  0.0897  0.0245 -0.5780
 1046SOL    HW1 3458   3.290   2.356   2.019 -0.9042  1.2950  0.0317
 1046SOL    HW2 3459   3.391   2.423   1.909  0.9747 -2.1616 -0.4720
 1047SOL     OW 3460   0.409   4.959   4.204 -0.2329 -0.0339 -0.0712
 1047SOL    HW1 3461   0.427   4.909   4.288 -1.6537 -1.5223 -0.6156
 1047SOL    HW2 3462   0.460   4.917   4.129 -2.3068 -1.4683 -0.7492
 1048SOL     OW 3463   0.799   3.282   2.890 -0.1583 -0.2518 -0.4838
 1048SOL    HW1 3464   0.706   3.319   2.893 -0.3829 -0.6880 -1.5416
 1048SOL    HW2 3465   0.853   3.321   2.965 -0.6075  1.6235 -1.0739
 1049SOL     OW 3466   2.660   1.739   1.575 -0.0354 -0.1958 -0.2310
 1049SOL    HW1 3467   2.707   1.811   1.627 -2.2272  1.7165 -0.7327
 1049SOL    HW2 3468   2.608   1.681   1.637 -1.8423  1.4720 -0.0842
 1050SOL     OW 3469   1.848   3.143   1.312  0.0212  0.2093 -0.0570
 1050SOL    HW1 3470   1.765   3.130   1.367  0.5790  0.6818  0.9334
 1050SOL    HW2 3471   1.878   3.238   1.320  0.4837  0.1183 -0.6652
 1051SOL     OW 3472   4.444   2.854   3.415  0.1283  0.3145  0.2060
 1051SOL    HW1 3473   4.522   2.909   3.442 -1.4885  2.8733  0.0229
 1051SOL    HW2 3474   4.447   2.766   3.461  3.3117  0.1296 -0.1718
 1052SOL     OW 3475   4.658   0.130   5.315  0.2570  0.2604  0.8204
 1052SOL    HW1 3476   4.727   0.202   5.321  1.0906 -0.5182  0.7852
 1052SOL    HW2 3477   4.606   0.126   5.400  0.7685  0.3519  1.1395
 1053SOL     OW 3478   2.297   0.862   2.768  0.1026 -0.0622  0.4588
 1053SOL    HW1 3479   2.284   0.915   2.852 -0.7703  1.4644 -0.5827
 1053SOL    HW2 3480   2.394   0.840   2.757  0.1355 -1.0074  2.2510
 1054SOL     OW 3481   3.892   0.996   1.003 -0.4604  0.0332  0.0787
 1054SOL    HW1 3482   3.957   1.052   0.951 -0.6938 -0.4051 -0.7079
 1054SOL    HW2 3483   3.925   0.984   1.096 -1.1175  2.7002  0.7218
 1055SOL     OW 3484   2.644   0.161   4.377 -0.1757  0.3052 -0.1416
 1055SOL    HW1 3485   2.667   0.157   4.279 -0.8835 -0.2700 -0.2920
 1055SOL    HW2 3486   2.652   0.255   4.409 -1.7379  0.8417 -1.2023
 1056SOL     OW 3487   1.373   2.886   4.283 -0.1795 -0.1524 -0.4721
 1056SOL    HW1 3488   1.299   2.909   4.345  0.7864 -0.0354  0.6601
 1056SOL    HW2 3489   1.391   2.787   4.286  0.4739 -0.0193  0.1352
 1057SOL     OW 3490   2.551   3.139   4.033 -0.5375 -0.1800 -0.4574
 1057SOL    HW1 3491   2.550   3.096   3.943 -1.5260 -1.5664  0.1712
 1057SOL    HW2 3492   2.497   3.224   4.030  1.4830  1.1594 -1.7251
 1058SOL     OW 3493   0.405   1.991   4.571  0.2929  0.0703 -0.3493
 1058SOL    HW1 3494   0.405   2.088   4.592  1.0523  0.2070 -0.9303
 1058SOL    HW2 3495   0.499   1.959   4.561  0.0626 -0.7970  0.1460
 1059SOL     OW 3496   0.299   0.252   3.994 -0.2159 -0.6352  0.3159
 1059SOL    HW1 3497   0.365   0.309   3.945 -1.0512 -0.3305 -0.4913
 1059SOL    HW2 3498   0.347   0.193   4.058  0.6487  1.6552  1.9271
 1060SOL     OW 3499   2.841   0.974   2.932  0.1942 -0.2500  0.0094
 1060SOL    HW1 3500   2.860   0.905   3.002  0.7091  0.3998  0.5237
 1060SOL    HW2 3501   2.749   1.011   2.945 -0.0261 -0.7270 -0.1759
 1061SOL     OW 3502   5.460   3.091   4.473  0.3477  0.0774 -0.1533
 1061SOL    HW1 3503   5.393   3.028   4.432 -0.9255  1.1791  0.1738
 1061SOL    HW2 3504   5.510   3.043   4.545 -1.3859 -0.2720  0.8673
 1062SOL     OW 3505   1.569   4.755   3.168  0.7383  0.1719 -0.2389
 1062SOL    HW1 3506   1.522   4.675   3.131 -0.5368  0.1957  1.2633
 1062SOL    HW2 3507   1.622   4.729   3.249  0.2607  0.8446  0.3000
 1063SOL     OW 3508   2.090   0.536   1.260  0.2141  0.1687  0.3816
 1063SOL    HW1 3509   2.148   0.517   1.181 -0.8283 -1.9841  0.0571
 1063SOL    HW2 3510   2.127   0.491   1.341 -0.1091  0.1740  0.5367
 1064SOL     OW 3511   5.215   2.724   1.438  0.0873 -0.4942 -0.4454
 1064SOL    HW1 3512   5.177   2.701   1.348 -0.5791 -0.0699 -0.2851
 1064SOL    HW2 3513   5.153   2.692   1.510 -0.2103  0.5916 -0.1854
 1065SOL     OW 3514   2.665   5.259   0.263  0.4068 -0.1075 -0.3180
 1065SOL    HW1 3515   2.610   5.209   0.329 -0.6223  0.3641 -0.8021
 1065SOL    HW2 3516   2.617   5.342   0.234  0.0758 -1.0873 -2.8689
 1066SOL     OW 3517   5.224   2.930   1.702 -0.5323 -0.2950  0.5185
 1066SOL    HW1 3518   5.269   2.862   1.759 -1.1616  0.9615  2.5962
 1066SOL    HW2 3519   5.270   2.933   1.613  0.8684 -1.8791  1.1183
 1067SOL     OW 3520   1.122   3.642   1.478  0.5930  0.2940 -0.1866
 1067SOL    HW1 3521   1.206   3.652   1.532  0.0570 -0.1061  0.7572
 1067SOL    HW2 3522   1.066   3.724   1.489  0.4198  0.1538 -0.0202
 1068SOL     OW 3523   0.644   0.512   2.592 -0.1385  0.2342 -0.2382
 1068SOL    HW1 3524   0.685   0.485   2.505  1.4123  0.7740  0.2785
 1068SOL    HW2 3525   0.665   0.608   2.609  0.6248 -0.1722  1.2662
 1069SOL     OW 3526   2.900   5.326   0.425 -0.8745 -0.1900 -0.3354
 1069SOL    HW1 3527   2.850   5.283   0.350 -1.3743  0.8641 -0.6138
 1069SOL    HW2 3528   2.912   5.259   0.498  1.3370 -1.9071 -2.0831
 1070SOL     OW 3529   4.406   2.237   4.152  0.1439 -0.2654  0.0256
 1070SOL    HW1 3530   4.431   2.191   4.237 -0.9903  0.5190  0.8276
 1070SOL    HW2 3531   4.338   2.182   4.102 -0.3142 -0.0413  0.3896
 1071SOL     OW 3532   1.146   2.917   4.423 -0.2576 -0.7455 -1.0399
 1071SOL    HW1 3533   1.066   2.885   4.372 -1.9846 -0.7825  1.4647
 1071SOL    HW2 3534   1.189   2.840   4.469 -0.5853 -0.3689 -0.0680
 1072SOL     OW 3535   0.404   2.199   0.229 -0.0156  0.0112  0.3466
 1072SOL    HW1 3536   0.497   2.235   0.235  0.0964  0.0838 -1.3456
 1072SOL    HW2 3537   0.382   2.180   0.133 -0.8760 -2.2923  0.9456
 1073SOL     OW 3538   2.610   0.638   1.214 -0.0015  0.1280  0.1894
 1073SOL    HW1 3539   2.596   0.620   1.117 -0.8060 -0.1983  0.3551
 1073SOL    HW2 3540   2.551   0.577   1.268 -0.9300  1.5279  0.8323
 1074SOL     OW 3541   3.262   0.777   4.568 -0.4308 -0.4707  0.1559
 1074SOL    HW1 3542   3.226   0.768   4.475  2.7533  2.2861 -1.5855
 1074SOL    HW2 3543   3.340   0.715   4.579  0.0545  0.1881  0.4755
 1075SOL     OW 3544   0.198   4.247   2.906  0.0307  0.5159 -0.1698
 1075SOL    HW1 3545   0.135   4.267   2.982  0.1527  0.5516 -0.0789
 1075SOL    HW2 3546   0.286   4.217   2.943  0.3675  1.3539 -0.2861
 1076SOL     OW 3547   4.584   1.802   1.700 -0.3991 -0.1033  0.0872
 1076SOL    HW1 3548   4.567   1.709   1.669 -1.0172 -0.0383  0.2241
 1076SOL    HW2 3549   4.582   1.864   1.622 -1.2118 -0.0414  0.1508
 1077SOL     OW 3550   2.054   2.577   3.697  0.2443  0.5176  0.2026
 1077SOL    HW1 3551   2.094   2.535   3.778  0.5487 -0.4980 -0.4614
 1077SOL    HW2 3552   2.073   2.521   3.617  0.5903  1.8668 -0.7094
 1078SOL     OW 3553   2.720   3.571   4.564  0.4304 -0.3357  0.6396
 1078SOL    HW1 3554   2.676   3.524   4.488  1.3721 -1.6790  0.8982
 1078SOL    HW2 3555   2.796   3.516   4.599  0.0420  0.2374  2.5428
 1079SOL     OW 3556   0.511   4.507   0.263 -0.5121 -0.0853 -0.0819
 1079SOL    HW1 3557   0.464   4.509   0.351 -2.5201  2.2366 -1.0935
 1079SOL    HW2 3558   0.536   4.600   0.237  0.6298 -0.8052 -1.7081
 1080SOL     OW 3559   5.238   3.101   5.226  0.9139 -0.5228  0.1211
 1080SOL    HW1 3560   5.286   3.025   5.181  0.5326  0.0928 -1.4067
 1080SOL    HW2 3561   5.301   3.150   5.286  1.4958 -1.2918  0.1538
 1081SOL     OW 3562   1.479   5.389   0.487  0.5354  0.8976  0.2487
 1081SOL    HW1 3563   1.386   5.396   0.525 -0.8030  3.3980 -3.0103
 1081SOL    HW2 3564   1.501   5.293   0.472 -1.7598  0.2542  0.5964
 1082SOL     OW 3565   2.764   3.030   3.563  0.2194  0.4157 -0.2796
 1082SOL    HW1 3566   2.827   2.956   3.590 -0.3097  0.1067  0.1294
 1082SOL    HW2 3567   2.817   3.113   3.544  0.7156  0.2867  0.4894
 1083SOL     OW 3568   1.662   3.316   5.391  0.1808 -0.2367 -0.6840
 1083SOL    HW1 3569   1.704   3.231   5.422  0.9617  1.3071  2.9835
 1083SOL    HW2 3570   1.729   3.369   5.339  0.7529 -0.4693 -0.1977
 1084SOL     OW 3571   3.419   2.389   2.453  0.9116  0.2050  0.0704
 1084SOL    HW1 3572   3.339   2.356   2.401  0.2119 -0.4615  1.5032
 1084SOL    HW2 3573   3.424   2.340   2.540  1.6082  1.8181  0.9710
 1085SOL     OW 3574   3.172   1.944   0.864  0.0554  0.0606  0.9165
 1085SOL    HW1 3575   3.264   1.962   0.828 -1.0536  1.1640 -1.5500
 1085SOL    HW2 3576   3.137   1.860   0.823  0.0767 -0.5676  2.1517
 1086SOL     OW 3577   4.576   5.441   1.557  0.1646 -0.1043  0.2174
 1086SOL    HW1 3578   4.516   5.405   1.485  0.8808  0.9268 -0.9395
 1086SOL    HW2 3579   4.577   5.378   1.634 -1.4756 -0.7144 -0.2176
 1087SOL     OW 3580   4.684   4.699   4.746 -0.4529 -0.0355  0.6326
 1087SOL    HW1 3581   4.719   4.615   4.704  2.3611  0.7458  1.2018
 1087SOL    HW2 3582   4.722   4.778   4.697  0.0776  0.8828  2.4403
 1088SOL     OW 3583   5.362   3.266   5.396  0.2413  0.0643 -0.0961
 1088SOL    HW1 3584   5.326   3.267   5.490 -1.5911  2.6146 -0.7168
 1088SOL    HW2 3585   5.412   3.351   5.379 -0.1490  0.0169 -1.6477
 1089SOL     OW 3586   5.013   0.519   2.939  0.2248 -0.0058 -0.3823
 1089SOL    HW1 3587   5.065   0.604   2.939 -2.4168  1.8864  2.8659
 1089SOL    HW2 3588   4.988   0.494   2.846  3.6670  0.9606 -1.6951
 1090SOL     OW 3589   3.178   3.728   1.698  0.3656  0.6075  0.0184
 1090SOL    HW1 3590   3.199   3.721   1.601 -0.3650 -1.6461 -0.0438
 1090SOL    HW2 3591   3.261   3.713   1.752  0.3106 -0.9099 -0.2722
 1091SOL     OW 3592   5.287   4.366   4.822 -0.0923  0.4180 -0.7239
 1091SOL    HW1 3593   5.335   4.342   4.737  0.5896 -0.8192 -0.0261
 1091SOL    HW2 3594   5.285   4.286   4.882  2.1122  2.0339  1.6870
 1092SOL     OW 3595   0.329   4.738   2.428 -0.3059  0.0544 -0.1090
 1092SOL    HW1 3596   0.362   4.653   2.387  0.0212  0.6532 -1.1221
 1092SOL    HW2 3597   0.407   4.791   2.461 -0.5719 -0.5320  1.5819
 1093SOL     OW 3598   1.643   2.236   4.978  0.1234  0.5038 -0.3605
 1093SOL    HW1 3599   1.662   2.181   5.059  0.4425  0.1530 -0.6637
 1093SOL    HW2 3600   1.603   2.323   5.005  2.7692  1.5839  0.3968
 1094SOL     OW 3601   2.606   1.022   5.275 -0.0146 -0.0451 -0.1174
 1094SOL    HW1 3602   2.570   1.105   5.317  2.2095  0.2270  1.4328
 1094SOL    HW2 3603   2.688   1.044   5.222  0.6550 -1.2502  0.3775
 1095SOL     OW 3604   1.950   1.697   4.942 -0.1383 -0.2660 -0.3307
 1095SOL    HW1 3605   1.906   1.619   4.987  0.8272 -0.3261  0.5513
 1095SOL    HW2 3606   1.913   1.782   4.980  0.0305 -0.3103 -0.0645
 1096SOL     OW 3607   0.557   4.576   0.856  0.1493  0.1382 -0.3534
 1096SOL    HW1 3608   0.627   4.541   0.918 -1.4422 -0.0549  1.4225
 1096SOL    HW2 3609   0.486   4.623   0.909 -0.4761  1.3883 -2.1954
 1097SOL     OW 3610   2.452   4.652   2.916 -0.1318 -0.1374  0.1318
 1097SOL    HW1 3611   2.548   4.660   2.890  0.2756 -0.7598  1.3686
 1097SOL    HW2 3612   2.421   4.739   2.956  0.6987 -0.6939  2.1193
 1098SOL     OW 3613   2.413   1.438   0.735 -0.1547 -0.5259  0.1101
 1098SOL    HW1 3614   2.350   1.433   0.658 -1.1028  2.2232  0.6185
 1098SOL    HW2 3615   2.369   1.483   0.812  1.8245 -0.2562  1.1548
 1099SOL     OW 3616   5.414   2.717   0.469 -0.1130 -0.1613  0.2810
 1099SOL    HW1 3617   5.437   2.620   0.462 -0.7298 -0.3624  0.9115
 1099SOL    HW2 3618   5.329   2.728   0.522 -0.4469  0.6764 -0.4047
 1100SOL     OW 3619   1.375   3.573   3.875 -0.0388 -0.0284  0.6761
 1100SOL    HW1 3620   1.461   3.537   3.911  0.0409 -0.3567  0.1577
 1100SOL    HW2 3621   1.393   3.654   3.820  0.0064 -0.4662  0.0421
 1101SOL     OW 3622   3.311   0.214   2.271  0.1761 -0.7169 -0.0636
 1101SOL    HW1 3623   3.321   0.199   2.370 -1.0074 -0.1589  0.1641
 1101SOL    HW2 3624   3.242   0.285   2.256  1.7455  0.6224 -1.2326
 1102SOL     OW 3625   5.530   0.414   2.771  0.2182 -0.8011  0.1532
 1102SOL    HW1 3626   5.552   0.364   2.855  0.8822 -1.5099 -0.4257
 1102SOL    HW2 3627   5.507   0.509   2.793  0.4937 -0.9507  1.1185
 1103SOL     OW 3628   0.598   3.169   5.160 -0.3874  0.2853 -0.1755
 1103SOL    HW1 3629   0.547   3.120   5.231 -0.6826 -0.8004 -1.1064
 1103SOL    HW2 3630   0.661   3.106   5.115  0.4249  1.1710 -0.3053
 1104SOL     OW 3631   2.051   2.151   4.483  0.2288 -0.2173 -0.6623
 1104SOL    HW1 3632   1.984   2.117   4.550  0.4139  0.0028 -0.3628
 1104SOL    HW2 3633   2.141   2.157   4.527  0.1499  0.9212 -0.6298
 1105SOL     OW 3634   4.776   1.254   4.079 -0.8951  0.0798  0.2057
 1105SOL    HW1 3635   4.860   1.299   4.050 -0.5538  0.3281  1.5148
 1105SOL    HW2 3636   4.701   1.281   4.019  0.3035 -1.7112 -2.2543
 1106SOL     OW 3637   4.467   4.257   3.280 -0.1629  0.2722 -0.1371
 1106SOL    HW1 3638   4.559   4.274   3.316  0.2122  0.4596 -1.1545
 1106SOL    HW2 3639   4.473   4.236   3.182 -1.3173  1.8186 -0.5897
 1107SOL     OW 3640   1.704   5.406   3.529 -0.6487 -0.8403 -0.3544
 1107SOL    HW1 3641   1.714   5.314   3.565  1.6111 -0.3023  0.5629
 1107SOL    HW2 3642   1.772   5.421   3.456 -0.5930  0.2594 -0.0987
 1108SOL     OW 3643   4.745   3.319   4.212  0.1286  0.8267  0.3233
 1108SOL    HW1 3644   4.791   3.245   4.262  0.7208 -0.5844 -2.1614
 1108SOL    HW2 3645   4.813   3.385   4.181 -0.1324  1.2477  0.6401
 1109SOL     OW 3646   2.261   1.171   5.333 -0.3673 -0.1664 -0.0419
 1109SOL    HW1 3647   2.276   1.081   5.290 -0.2577  0.4889 -1.4412
 1109SOL    HW2 3648   2.284   1.166   5.430  3.2142 -0.7646 -0.7856
 1110SOL     OW 3649   4.781   2.247   2.130  0.4093  0.1375 -0.6413
 1110SOL    HW1 3650   4.850   2.229   2.200 -0.8190 -0.8741  0.3617
 1110SOL    HW2 3651   4.754   2.161   2.087 -0.8621  0.3777 -0.3746
 1111SOL     OW 3652   2.516   1.607   3.953  0.1534 -0.2665  0.3454
 1111SOL    HW1 3653   2.539   1.510   3.947 -0.3872 -0.4001  0.3565
 1111SOL    HW2 3654   2.422   1.621   3.920  1.2042  0.6748 -2.5333
 1112SOL     OW 3655   1.868   1.825   4.387  0.5394  0.3627  0.2870
 1112SOL    HW1 3656   1.798   1.848   4.320  1.5121  0.0459 -0.8606
 1112SOL    HW2 3657   1.832   1.841   4.479 -1.3629 -0.6593 -0.2246
 1113SOL     OW 3658   5.020   4.614   3.118 -0.5985 -0.6831  0.7203
 1113SOL    HW1 3659   5.019   4.515   3.121 -1.1933 -0.6637  1.9350
 1113SOL    HW2 3660   4.929   4.650   3.137 -0.4356  0.0929  0.1006
 1114SOL     OW 3661   5.509   1.845   0.074 -0.3716  0.1685 -0.0612
 1114SOL    HW1 3662   5.411   1.828   0.087 -0.3032  0.6333  1.2295
 1114SOL    HW2 3663   5.550   1.870   0.162  0.7996  0.5103 -0.6890
 1115SOL     OW 3664   5.220   3.438   1.399  0.4817  0.2719  0.1309
 1115SOL    HW1 3665   5.174   3.476   1.319 -0.6119  0.7392  0.9489
 1115SOL    HW2 3666   5.240   3.341   1.384  1.5217  0.6792 -1.2207
 1116SOL     OW 3667   4.080   5.039   1.443  0.3187 -0.6420 -0.5685
 1116SOL    HW1 3668   4.174   5.021   1.414  0.0345 -1.1964 -1.1753
 1116SOL    HW2 3669   4.061   4.992   1.529  0.8646  0.2026  0.0268
 1117SOL     OW 3670   4.954   0.038   0.922  0.3883  0.1716 -0.1718
 1117SOL    HW1 3671   4.879   0.005   0.979 -0.1505  1.2332 -0.2390
 1117SOL    HW2 3672   5.036  -0.017   0.939 -0.0826 -0.2593  0.7664
 1118SOL     OW 3673   0.904   0.107   3.389 -0.2412  0.5127 -0.1890
 1118SOL    HW1 3674   0.976   0.048   3.355 -0.1028  0.9617 -0.6882
 1118SOL    HW2 3675   0.912   0.197   3.347 -0.3775  0.9272  0.6401
 1119SOL     OW 3676   0.198   4.352   0.716 -0.0457 -0.1041  0.3026
 1119SOL    HW1 3677   0.269   4.288   0.687 -0.5952 -0.8401  0.5515
 1119SOL    HW2 3678   0.204   4.435   0.661  1.6356  0.2646  0.9819
 1120SOL     OW 3679   3.738   4.090   4.725 -0.2766  0.7453  0.1415
 1120SOL    HW1 3680   3.646   4.056   4.701 -1.1530  2.1680  1.3469
 1120SOL    HW2 3681   3.773   4.037   4.802 -1.2290  1.8591  1.3845
 1121SOL     OW 3682   1.563   0.366   4.319  0.9430  0.3350  0.0468
 1121SOL    HW1 3683   1.555   0.445   4.381  0.2006  1.4984 -1.4640
 1121SOL    HW2 3684   1.508   0.291   4.353 -1.8497  1.9478 -0.6287
 1122SOL     OW 3685   4.096   0.683   0.530 -0.5849 -0.3768  0.0552
 1122SOL    HW1 3686   4.051   0.657   0.444 -1.1833  1.4178 -0.2094
 1122SOL    HW2 3687   4.190   0.709   0.511  0.0612 -2.3312  0.3411
 1123SOL     OW 3688   4.714   4.137   1.425  0.2342  0.3689 -0.0273
 1123SOL    HW1 3689   4.778   4.088   1.366 -0.1696  0.0655 -0.2187
 1123SOL    HW2 3690   4.693   4.081   1.505 -1.3248 -0.4086 -0.9345
 1124SOL     OW 3691   0.202   3.549   0.617  0.4716  0.2316 -0.0502
 1124SOL    HW1 3692   0.217   3.533   0.715 -0.6193  1.8272  0.3989
 1124SOL    HW2 3693   0.118   3.503   0.589 -0.0057  0.9835  0.1166
 1125SOL     OW 3694   4.393   2.111   4.983 -0.4355  0.0311 -0.4886
 1125SOL    HW1 3695   4.329   2.041   4.953 -0.8119  0.2188 -0.1363
 1125SOL    HW2 3696   4.450   2.075   5.057 -0.2230 -0.0903 -0.7080
 1126SOL     OW 3697   5.288   0.105   3.993  1.1805  0.0639  0.7787
 1126SOL    HW1 3698   5.210   0.127   3.935  0.6315  1.0346  1.8388
 1126SOL    HW2 3699   5.324   0.014   3.969 -0.2028 -0.3496  0.2154
 1127SOL     OW 3700   2.547   1.674   2.269  0.5583  0.5561 -0.4781
 1127SOL    HW1 3701   2.625   1.701   2.324 -0.8827  1.1442  1.3655
 1127SOL    HW2 3702   2.542   1.731   2.187  1.4317  1.2361 -0.0652
 1128SOL     OW 3703   0.727   4.360   3.015 -0.1852  0.2210  0.1395
 1128SOL    HW1 3704   0.752   4.357   3.112 -0.9558  0.1599  0.3415
 1128SOL    HW2 3705   0.762   4.444   2.974 -1.1919  1.0077  0.8482
 1129SOL     OW 3706   2.532   4.553   4.757  0.7267 -0.1059 -0.4910
 1129SOL    HW1 3707   2.577   4.631   4.801 -0.6708 -0.3222  1.4571
 1129SOL    HW2 3708   2.601   4.496   4.713  1.7971  2.1016 -1.8498
 1130SOL     OW 3709   4.361   3.862   3.313 -0.1553 -0.0580 -0.4227
 1130SOL    HW1 3710   4.373   3.937   3.378 -1.0882  0.6012 -0.9822
 1130SOL    HW2 3711   4.327   3.781   3.361  2.1724 -0.6099  0.4331
 1131SOL     OW 3712   1.168   0.121   0.864 -0.7207 -0.3139 -0.0847
 1131SOL    HW1 3713   1.126   0.172   0.939 -1.7555 -0.8887 -0.2570
 1131SOL    HW2 3714   1.183   0.182   0.787  0.2236  0.2512  0.5209
 1132SOL     OW 3715   2.198   2.259   4.016 -0.0238 -0.3888 -0.3472
 1132SOL    HW1 3716   2.135   2.292   3.946 -0.1975  0.9425  0.3904
 1132SOL    HW2 3717   2.151   2.257   4.104  1.2195  1.7653  0.4456
 1133SOL     OW 3718   1.231   1.363   2.007 -0.0547  0.8810 -0.7521
 1133SOL    HW1 3719   1.171   1.355   2.087  1.5379  1.0736  0.5007
 1133SOL    HW2 3720   1.181   1.333   1.925 -1.3812 -0.3755  0.4567
 1134SOL     OW 3721   0.416   4.425   1.119  0.3114  0.2057  0.2280
 1134SOL    HW1 3722   0.349   4.442   1.046 -1.5237 -0.2028  1.7527
 1134SOL    HW2 3723   0.433   4.510   1.169  0.3853  0.1564  0.2874
 1135SOL     OW 3724   5.064   0.873   3.957 -0.2457 -0.4281 -0.5327
 1135SOL    HW1 3725   5.096   0.841   4.046 -1.0889  2.6041  0.9864
 1135SOL    HW2 3726   4.968   0.847   3.944  0.3016 -2.2238 -1.3416
 1136SOL     OW 3727   2.071   5.334   4.597 -0.1233  0.6094 -0.0182
 1136SOL    HW1 3728   2.144   5.271   4.568 -1.3207 -0.1892 -1.4559
 1136SOL    HW2 3729   2.073   5.416   4.541  0.0169  0.8491  0.3326
 1137SOL     OW 3730   2.600   3.138   4.835  0.2827 -0.0614  0.1129
 1137SOL    HW1 3731   2.650   3.134   4.749  0.4442 -0.3911  0.2202
 1137SOL    HW2 3732   2.533   3.211   4.831 -0.0435 -0.3841 -0.4760
 1138SOL     OW 3733   2.021   3.366   3.423  0.4835 -0.4914 -0.0606
 1138SOL    HW1 3734   2.058   3.355   3.330  2.5360  1.3749  0.4333
 1138SOL    HW2 3735   1.922   3.376   3.418  0.7160  2.0614 -2.4118
 1139SOL     OW 3736   0.212   2.027   0.709  0.3895  0.4405 -0.4397
 1139SOL    HW1 3737   0.296   1.998   0.662  0.6662  1.9599 -0.9439
 1139SOL    HW2 3738   0.213   1.992   0.803  1.6100  0.4393 -0.4311
 1140SOL     OW 3739   4.104   4.742   5.051  0.3884  0.1096  0.2238
 1140SOL    HW1 3740   4.012   4.703   5.053  0.8327 -0.9190  1.3734
 1140SOL    HW2 3741   4.101   4.831   5.004 -1.0665 -0.1841 -0.2962
 1141SOL     OW 3742   4.313   0.294   3.764 -0.3719 -0.8377  0.0270
 1141SOL    HW1 3743   4.353   0.385   3.767  0.4932 -1.2011 -0.3104
 1141SOL    HW2 3744   4.385   0.225   3.767 -1.0214 -1.5192  0.3990
 1142SOL     OW 3745   5.268   5.336   3.844 -0.2729 -0.1577 -0.3078
 1142SOL    HW1 3746   5.276   5.258   3.782 -1.5096 -1.0178  0.5509
 1142SOL    HW2 3747   5.358   5.365   3.875  0.4000  0.4777 -2.6882
 1143SOL     OW 3748   3.969   1.943   1.327  0.0170  0.6240  0.5482
 1143SOL    HW1 3749   4.058   1.979   1.356  0.2331 -1.0723  2.2130
 1143SOL    HW2 3750   3.906   1.945   1.405 -1.0345  0.6527 -0.2795
 1144SOL     OW 3751   4.855   2.132   2.988 -0.8707  0.2291 -0.2053
 1144SOL    HW1 3752   4.922   2.065   2.956 -0.9353 -0.4924  1.0846
 1144SOL    HW2 3753   4.798   2.090   3.058  0.1204  2.1108  1.8212
 1145SOL     OW 3754   4.732   1.681   0.859  0.0426 -0.4839  0.0513
 1145SOL    HW1 3755   4.761   1.692   0.954  0.6717 -0.7138 -0.1069
 1145SOL    HW2 3756   4.653   1.740   0.841 -0.9796 -1.4770  1.0962
 1146SOL     OW 3757   1.696   2.246   3.372 -0.1653  0.0246  0.6003
 1146SOL    HW1 3758   1.634   2.319   3.399 -1.0104  0.0473 -1.2529
 1146SOL    HW2 3759   1.767   2.283   3.311 -1.0343 -0.7823 -0.9578
 1147SOL     OW 3760   0.167   1.420   1.565 -0.3544 -0.2544 -0.2035
 1147SOL    HW1 3761   0.181   1.484   1.490 -0.2060  0.6425  0.5731
 1147SOL    HW2 3762   0.177   1.326   1.532 -0.4344  0.1253 -1.3240
 1148SOL     OW 3763   1.177   5.498   2.321  0.3926  0.7693  0.3807
 1148SOL    HW1 3764   1.274   5.480   2.342  0.3209  0.9896  0.9437
 1148SOL    HW2 3765   1.124   5.493   2.406 -0.1570  0.2532  0.0124
 1149SOL     OW 3766   2.113   4.524   2.740 -0.3299 -0.1947  0.2957
 1149SOL    HW1 3767   2.097   4.544   2.837 -0.4888  1.1723  0.0134
 1149SOL    HW2 3768   2.211   4.508   2.726  0.0177  1.5435  0.4040
 1150SOL     OW 3769   4.953   2.179   4.430 -0.1595 -0.0752  0.2976
 1150SOL    HW1 3770   4.890   2.172   4.353 -0.4538  2.0670  0.2931
 1150SOL    HW2 3771   5.047   2.172   4.396 -0.2514  1.6772 -0.4286
 1151SOL     OW 3772   0.552   0.118   2.991 -0.5925 -0.0016  0.0761
 1151SOL    HW1 3773   0.647   0.136   2.966 -0.5334 -1.0323 -0.4786
 1151SOL    HW2 3774   0.494   0.190   2.953  0.1053  1.5184  1.7305
 1152SOL     OW 3775   0.354   5.273   2.783 -0.4061  0.4489  0.4426
 1152SOL    HW1 3776   0.256   5.290   2.794 -0.5581  1.3462 -1.7312
 1152SOL    HW2 3777   0.369   5.175   2.770 -0.3742 -0.4929  5.4422
 1153SOL     OW 3778   4.880   2.886   1.168  0.6106  0.2394  0.4790
 1153SOL    HW1 3779   4.897   2.854   1.075  1.7812  0.5726  0.5561
 1153SOL    HW2 3780   4.869   2.807   1.229  1.0820 -0.0006  0.2622
 1154SOL     OW 3781   4.235   0.722   5.291 -0.2713  0.3299  0.5566
 1154SOL    HW1 3782   4.296   0.666   5.235  0.3055 -0.0638  1.5560
 1154SOL    HW2 3783   4.146   0.729   5.246  0.0910 -0.1939 -0.2727
 1155SOL     OW 3784   3.527   4.207   2.127  0.0982  0.5499 -0.6538
 1155SOL    HW1 3785   3.453   4.238   2.067  0.0650  2.6461  0.3888
 1155SOL    HW2 3786   3.491   4.190   2.219  0.7611  0.8304 -0.3345
 1156SOL     OW 3787   3.369   2.496   5.174 -0.5150  0.1992 -0.0815
 1156SOL    HW1 3788   3.464   2.478   5.147 -0.7041 -1.5557  0.2748
 1156SOL    HW2 3789   3.342   2.587   5.143  0.8719  0.2326 -1.3115
 1157SOL     OW 3790   2.228   1.695   4.621  0.3224  0.6154 -0.1999
 1157SOL    HW1 3791   2.151   1.758   4.632 -0.3907 -0.2997  0.1624
 1157SOL    HW2 3792   2.302   1.741   4.572 -0.4482  1.5188 -0.5427
 1158SOL     OW 3793   5.146   2.388   4.819 -0.1651  0.6359  0.5699
 1158SOL    HW1 3794   5.111   2.307   4.770 -0.3111  0.7025  0.5639
 1158SOL    HW2 3795   5.079   2.462   4.813 -1.1262 -0.0180  2.6565
 1159SOL     OW 3796   3.997   2.939   4.553  0.2553  0.2179 -0.3305
 1159SOL    HW1 3797   3.923   2.894   4.603  0.1470  1.2385  0.4335
 1159SOL    HW2 3798   3.962   3.021   4.508  0.8785  0.6060 -0.1182
 1160SOL     OW 3799   1.860   1.595   5.370  0.1611 -0.2638  0.1278
 1160SOL    HW1 3800   1.928   1.523   5.360 -0.0334 -0.4161 -0.1123
 1160SOL    HW2 3801   1.769   1.557   5.353  0.1712  0.3363 -1.4205
 1161SOL     OW 3802   4.006   3.820   2.726  0.0945 -0.7261 -0.1109
 1161SOL    HW1 3803   4.071   3.747   2.703 -0.7883 -1.8181  0.7476
 1161SOL    HW2 3804   3.957   3.848   2.644  0.7777 -0.7416 -0.5363
 1162SOL     OW 3805   4.701   2.689   1.342  0.0084 -0.1005 -0.0632
 1162SOL    HW1 3806   4.665   2.742   1.418 -2.2780  0.2474 -1.2678
 1162SOL    HW2 3807   4.633   2.688   1.268  0.2165 -4.0289 -0.4125
 1163SOL     OW 3808   0.629   3.808   2.619  0.3605 -0.2444 -0.4378
 1163SOL    HW1 3809   0.543   3.832   2.664  0.0961 -1.6206 -0.1764
 1163SOL    HW2 3810   0.705   3.848   2.671 -0.0860  0.6439 -0.4437
 1164SOL     OW 3811   0.166   1.495   0.360  0.2186 -0.2837 -0.7222
 1164SOL    HW1 3812   0.077   1.488   0.315 -0.1286  1.9031 -0.4743
 1164SOL    HW2 3813   0.157   1.549   0.443  1.4574 -1.6239  0.3320
 1165SOL     OW 3814   5.033   0.238   4.292  0.0468 -0.0479  0.2380
 1165SOL    HW1 3815   5.001   0.294   4.216  1.9576  0.0433 -0.5432
 1165SOL    HW2 3816   5.046   0.296   4.373  0.1461  0.2680 -0.0041
 1166SOL     OW 3817   4.658   2.456   3.614  0.0249  0.3392  0.0806
 1166SOL    HW1 3818   4.656   2.368   3.662  0.5422  0.3615  0.1416
 1166SOL    HW2 3819   4.737   2.460   3.554 -1.0401 -0.0088 -1.3942
 1167SOL     OW 3820   1.242   3.714   0.181 -0.0326 -0.1479 -0.1821
 1167SOL    HW1 3821   1.210   3.748   0.092 -0.2286  0.5937  0.1651
 1167SOL    HW2 3822   1.322   3.766   0.210 -0.7229  0.4839  0.6550
 1168SOL     OW 3823   2.955   0.276   4.761 -0.2135 -0.1816  0.5743
 1168SOL    HW1 3824   3.008   0.220   4.825 -0.1199 -0.2367  0.4487
 1168SOL    HW2 3825   2.944   0.226   4.675  1.0531  0.5479 -0.0374
 1169SOL     OW 3826   0.883   4.768   3.134 -0.5782  0.0234 -0.1907
 1169SOL    HW1 3827   0.795   4.725   3.152 -0.3382 -0.4422 -0.1084
 1169SOL    HW2 3828   0.941   4.705   3.082 -0.2992  0.3327 -0.2593
 1170SOL     OW 3829   1.006   0.550   1.035  0.0774 -0.0371  0.3075
 1170SOL    HW1 3830   1.001   0.475   1.101  0.6301  0.1729  0.6023
 1170SOL    HW2 3831   0.915   0.573   1.003 -0.0777 -0.9808  0.0480
 1171SOL     OW 3832   2.146   3.168   2.092  0.5142 -0.0664 -0.0176
 1171SOL    HW1 3833   2.046   3.160   2.082  0.4966  0.0126  0.0851
 1171SOL    HW2 3834   2.187   3.181   2.003  0.4975 -0.7817 -0.1332
 1172SOL     OW 3835   4.198   4.083   3.708 -0.0907  0.0724 -0.5891
 1172SOL    HW1 3836   4.133   4.024   3.660  0.1290 -0.6064 -0.0761
 1172SOL    HW2 3837   4.291   4.064   3.674  0.3551 -1.9625  1.5068
 1173SOL     OW 3838   3.272   0.122   0.462 -0.4537 -0.0141  0.5119
 1173SOL    HW1 3839   3.347   0.170   0.415 -0.5458  0.3490  0.7346
 1173SOL    HW2 3840   3.189   0.127   0.406 -0.2915 -0.5032  0.2174
 1174SOL     OW 3841   4.265   2.356   0.547 -0.2401 -0.4035  0.4025
 1174SOL    HW1 3842   4.362   2.377   0.540 -0.6823  2.1393  1.0025
 1174SOL    HW2 3843   4.228   2.337   0.455  0.8273 -1.6049  0.2014
 1175SOL     OW 3844   4.152   5.422   2.013  0.4116  0.5656  0.6337
 1175SOL    HW1 3845   4.214   5.375   1.950 -1.6897 -0.1189 -1.0494
 1175SOL    HW2 3846   4.091   5.355   2.055 -0.2261  1.3898  1.0392
 1176SOL     OW 3847   0.103   1.055   3.371 -0.1071  0.3448  0.3517
 1176SOL    HW1 3848   0.062   0.968   3.397 -0.4834  1.2552  3.1561
 1176SOL    HW2 3849   0.159   1.090   3.446 -1.1280  3.2161 -0.0886
 1177SOL     OW 3850   4.979   3.107   2.095 -0.1226 -0.1024 -0.5572
 1177SOL    HW1 3851   4.947   3.201   2.106  2.3211  0.5713  1.7446
 1177SOL    HW2 3852   5.038   3.101   2.014  0.6003  0.6210 -0.0893
 1178SOL     OW 3853   2.264   0.274   4.337  0.2962  0.3392 -0.3529
 1178SOL    HW1 3854   2.195   0.316   4.396 -1.0923 -0.0514 -1.6483
 1178SOL    HW2 3855   2.321   0.346   4.296 -0.1719  0.7598 -0.2692
 1179SOL     OW 3856   3.970   0.987   4.474 -0.0862  0.5837 -0.3754
 1179SOL    HW1 3857   3.924   1.073   4.452 -1.1992  0.1599  0.1596
 1179SOL    HW2 3858   4.050   0.976   4.416 -1.2982  0.8319 -2.2047
 1180SOL     OW 3859   0.629   0.807   0.803 -0.4527 -0.1629  0.2723
 1180SOL    HW1 3860   0.626   0.729   0.864  0.8035 -1.4030 -1.1516
 1180SOL    HW2 3861   0.717   0.854   0.812  0.6093 -1.5722 -1.9022
 1181SOL     OW 3862   2.362   0.738   0.104 -0.3149  0.3898  0.0331
 1181SOL    HW1 3863   2.397   0.828   0.075 -0.4766  0.2981 -0.4596
 1181SOL    HW2 3864   2.360   0.677   0.025  2.4263 -0.9294  0.8696
 1182SOL     OW 3865   4.404   2.785   4.880  0.3077 -0.4565  0.1288
 1182SOL    HW1 3866   4.434   2.692   4.855  0.6922 -0.1926 -0.4234
 1182SOL    HW2 3867   4.467   2.852   4.841 -0.9378  0.1189 -0.9925
 1183SOL     OW 3868   2.900   2.221   2.284  0.3439 -0.1056 -0.1826
 1183SOL    HW1 3869   2.934   2.174   2.365 -1.4682 -0.8534  0.1814
 1183SOL    HW2 3870   2.828   2.285   2.310  0.3962  0.3487 -1.1062
 1184SOL     OW 3871   1.505   3.127   2.051 -0.0185  0.0566  0.0648
 1184SOL    HW1 3872   1.530   3.212   2.098 -1.3434  0.7262 -0.3956
 1184SOL    HW2 3873   1.586   3.091   2.004  0.4214  1.4330 -0.3036
 1185SOL     OW 3874   3.115   3.963   1.238  0.0837  0.1302 -0.1870
 1185SOL    HW1 3875   3.116   4.030   1.164  0.9030  1.5416  1.0525
 1185SOL    HW2 3876   3.033   3.977   1.294 -0.5676 -0.9768 -0.8106
 1186SOL     OW 3877   3.037   0.430   4.109  0.3573 -0.3953 -0.6110
 1186SOL    HW1 3878   3.106   0.387   4.166 -1.7321 -0.3267  2.1488
 1186SOL    HW2 3879   2.965   0.365   4.088 -0.8605  0.6333  0.2331
 1187SOL     OW 3880   5.102   1.868   1.326 -0.2554  0.0850 -0.4747
 1187SOL    HW1 3881   5.089   1.881   1.228  1.6595 -1.4421 -0.9814
 1187SOL    HW2 3882   5.186   1.818   1.343 -1.8799 -2.1429  1.8056
 1188SOL     OW 3883   1.904   3.857   5.153 -0.1395  0.3593 -0.5398
 1188SOL    HW1 3884   1.976   3.809   5.203 -1.0788 -0.1866  0.3451
 1188SOL    HW2 3885   1.840   3.790   5.114  0.2704  0.8020 -2.0311
 1189SOL     OW 3886   0.654   1.362   4.686  0.6462 -0.2593  0.7100
 1189SOL    HW1 3887   0.686   1.280   4.638 -0.8830  0.7434 -2.3306
 1189SOL    HW2 3888   0.554   1.366   4.681  0.7033  2.0918  0.1228
 1190SOL     OW 3889   4.967   0.931   4.484  0.2212  0.5782 -0.2629
 1190SOL    HW1 3890   4.972   0.834   4.462 -1.4257  0.0405  1.4673
 1190SOL    HW2 3891   4.896   0.974   4.428 -2.3243 -0.2875  2.1023
 1191SOL     OW 3892   2.679   3.490   0.756  0.1446  0.0619  0.4891
 1191SOL    HW1 3893   2.658   3.521   0.663  0.9008  2.2371  0.9818
 1191SOL    HW2 3894   2.646   3.557   0.822 -0.2137 -1.3656  1.8080
 1192SOL     OW 3895   2.978   4.056   4.264 -0.1193 -0.2023 -0.1291
 1192SOL    HW1 3896   2.933   4.139   4.295 -0.0831 -0.0954 -0.3600
 1192SOL    HW2 3897   2.918   3.977   4.279 -0.4863 -0.0298 -0.6603
 1193SOL     OW 3898   5.253   2.158   0.980  0.0568 -0.0832  0.0477
 1193SOL    HW1 3899   5.278   2.140   0.885  1.0555  0.6223  0.1587
 1193SOL    HW2 3900   5.238   2.072   1.028  0.4709 -0.4790 -0.5199
 1194SOL     OW 3901   1.073   0.852   1.905  0.0322 -0.4921  0.6880
 1194SOL    HW1 3902   1.017   0.809   1.976  0.3542 -1.1734  0.5344
 1194SOL    HW2 3903   1.017   0.915   1.852 -0.3090 -0.2822  1.2838
 1195SOL     OW 3904   0.180   1.133   0.803  0.5086  0.3811 -0.3774
 1195SOL    HW1 3905   0.167   1.211   0.741 -0.1097 -1.3150 -2.5154
 1195SOL    HW2 3906   0.273   1.098   0.792  0.4020  0.0857 -0.3452
 1196SOL     OW 3907   0.995   3.948   5.281 -0.2435 -0.0080 -0.1278
 1196SOL    HW1 3908   0.954   3.981   5.195  0.2231 -0.9649 -0.7400
 1196SOL    HW2 3909   1.074   4.005   5.304  0.6519 -0.7411 -1.2619
 1197SOL     OW 3910   4.409   0.070   4.162  0.3838  0.0485  0.6311
 1197SOL    HW1 3911   4.338   0.000   4.156  0.8736 -0.4198  0.1046
 1197SOL    HW2 3912   4.468   0.051   4.241 -0.7048  1.0604  1.7244
 1198SOL     OW 3913   5.526   0.317   1.686 -0.0893  0.2716  0.1257
 1198SOL    HW1 3914   5.437   0.282   1.657 -1.1610  1.0510  2.2269
 1198SOL    HW2 3915   5.567   0.253   1.751 -0.7282  1.4351  1.7552
 1199SOL     OW 3916   1.358   3.026   4.546  0.0409  0.0185  0.4882
 1199SOL    HW1 3917   1.272   3.023   4.495 -0.7143  0.9246  1.6839
 1199SOL    HW2 3918   1.350   3.089   4.623  1.0272 -1.5929  1.9830
 1200SOL     OW 3919   0.905   3.515   0.368  0.3889  0.7743 -0.7128
 1200SOL    HW1 3920   0.989   3.541   0.415  1.3187 -0.7022 -1.5180
 1200SOL    HW2 3921   0.890   3.577   0.290  0.7575  0.9942 -0.6129
 1201SOL     OW 3922   1.666   2.505   4.235 -0.3083 -0.0117  0.3009
 1201SOL    HW1 3923   1.699   2.418   4.200  0.0841 -0.1127  0.9257
 1201SOL    HW2 3924   1.720   2.580   4.196 -1.7566  0.1250 -1.6503
 1202SOL     OW 3925   0.832   1.159   3.599  0.1775  0.0787  0.1011
 1202SOL    HW1 3926   0.790   1.214   3.526 -0.1977  1.2741  1.1794
 1202SOL    HW2 3927   0.930   1.179   3.603 -0.0854  1.3592  1.0127
 1203SOL     OW 3928   1.739   4.198   0.445  0.5971 -0.4951  0.2111
 1203SOL    HW1 3929   1.736   4.289   0.403 -1.6915  0.1235  1.5181
 1203SOL    HW2 3930   1.744   4.128   0.374  0.6015  0.6041 -0.9041
 1204SOL     OW 3931   5.279   1.570   5.249  0.3969 -0.5965  0.0222
 1204SOL    HW1 3932   5.284   1.508   5.327 -1.2163  0.7466  1.2747
 1204SOL    HW2 3933   5.336   1.651   5.267 -1.3136  0.5206  0.6452
 1205SOL     OW 3934   0.329   1.338   4.641  0.0118  0.2769  0.6576
 1205SOL    HW1 3935   0.308   1.328   4.738  1.7810  1.2067  1.1670
 1205SOL    HW2 3936   0.301   1.255   4.592 -0.3536 -0.4414  2.0414
 1206SOL     OW 3937   0.839   4.171   4.603 -0.0158  0.0816  0.0289
 1206SOL    HW1 3938   0.775   4.241   4.573 -1.1960 -0.2143  1.7207
 1206SOL    HW2 3939   0.931   4.211   4.609  0.3138  0.1731 -3.6728
 1207SOL     OW 3940   1.120   1.289   1.740  0.0361 -0.1924  0.0864
 1207SOL    HW1 3941   1.177   1.369   1.723 -0.8499  0.1477 -1.4363
 1207SOL    HW2 3942   1.160   1.210   1.693 -0.0952 -0.2260  0.0319
 1208SOL     OW 3943   4.931   3.139   3.909 -0.4088  0.1206 -0.6162
 1208SOL    HW1 3944   4.959   3.073   3.978 -0.1769 -0.0938 -0.9153
 1208SOL    HW2 3945   4.972   3.228   3.930 -0.3907  0.0718 -0.4412
 1209SOL     OW 3946   1.620   0.924   3.020  0.3046 -0.5063  0.1766
 1209SOL    HW1 3947   1.652   1.016   2.995  2.1526 -0.6383  1.7556
 1209SOL    HW2 3948   1.521   0.920   3.014  0.1327  1.7689  0.5481
 1210SOL     OW 3949   3.424   0.458   4.822  0.3899 -0.4134  0.4202
 1210SOL    HW1 3950   3.501   0.482   4.764  0.6142 -1.9309  0.0466
 1210SOL    HW2 3951   3.434   0.502   4.911  0.6125  1.0465 -0.3022
 1211SOL     OW 3952   0.271   3.099   5.103 -0.8696  0.7209  0.0739
 1211SOL    HW1 3953   0.357   3.119   5.151 -1.4328  2.7748  0.3174
 1211SOL    HW2 3954   0.195   3.101   5.168 -1.1663 -0.6687 -0.2128
 1212SOL     OW 3955   0.773   5.311   0.423  0.5311  0.1781 -0.0527
 1212SOL    HW1 3956   0.706   5.251   0.381  0.6662  0.8848 -1.3375
 1212SOL    HW2 3957   0.728   5.394   0.455  0.7052  0.4611 -0.5221
 1213SOL     OW 3958   2.042   4.899   4.735  0.4384  0.0012  0.5259
 1213SOL    HW1 3959   2.017   4.815   4.783  1.2853 -0.5516  0.0339
 1213SOL    HW2 3960   2.134   4.888   4.696  0.6117  1.2081  0.5678
 1214SOL     OW 3961   4.210   5.191   3.132 -0.0110  0.1033  0.2638
 1214SOL    HW1 3962   4.166   5.123   3.073 -0.4125 -1.8388  2.6505
 1214SOL    HW2 3963   4.140   5.249   3.174  0.0458 -0.2111  0.7996
 1215SOL     OW 3964   1.448   0.658   1.835 -0.2247  0.5997  0.2264
 1215SOL    HW1 3965   1.420   0.569   1.872  0.3306 -0.8742 -2.6041
 1215SOL    HW2 3966   1.542   0.678   1.864  0.6647 -1.1277 -1.2765
 1216SOL     OW 3967   0.154   2.961   4.222 -0.2068  0.2212 -0.1383
 1216SOL    HW1 3968   0.159   3.035   4.155 -0.0614  0.5926  0.2820
 1216SOL    HW2 3969   0.062   2.923   4.222 -0.3977  0.6708 -0.0770
 1217SOL     OW 3970   0.855   2.653   1.820  0.4064  0.2587  0.3503
 1217SOL    HW1 3971   0.797   2.731   1.844 -3.3822 -1.6762 -1.4650
 1217SOL    HW2 3972   0.873   2.654   1.722 -1.1628 -1.8459 -0.0438
 1218SOL     OW 3973   3.420   2.998   2.446  0.4421  0.1991 -0.1496
 1218SOL    HW1 3974   3.453   2.992   2.541  2.8838  1.0339 -0.8600
 1218SOL    HW2 3975   3.335   3.051   2.444  1.7490  2.5304  1.3392
 1219SOL     OW 3976   3.575   3.056   4.794 -0.4038 -0.1419  0.8942
 1219SOL    HW1 3977   3.538   3.112   4.719  0.8932  0.4094  0.6424
 1219SOL    HW2 3978   3.638   2.989   4.757 -1.1101 -1.0611  1.3251
 1220SOL     OW 3979   3.685   2.387   0.967 -0.2675  0.4002 -0.2208
 1220SOL    HW1 3980   3.743   2.464   0.996  0.4097 -0.3944  0.5744
 1220SOL    HW2 3981   3.658   2.333   1.046 -1.2969  0.1895 -0.7006
 1221SOL     OW 3982   3.356   4.398   1.954 -0.0481 -0.6175  0.0220
 1221SOL    HW1 3983   3.315   4.434   2.037 -1.2329  0.3058 -0.9143
 1221SOL    HW2 3984   3.446   4.438   1.940 -0.5567  0.5387 -0.0134
 1222SOL     OW 3985   3.122   0.601   2.694 -0.5103 -0.1188  0.1035
 1222SOL    HW1 3986   3.161   0.691   2.713  0.7387 -0.9428  1.8178
 1222SOL    HW2 3987   3.029   0.596   2.729  0.1120 -0.0699  1.9025
 1223SOL     OW 3988   2.027   3.607   0.393 -0.1340  0.6381  0.6768
 1223SOL    HW1 3989   1.980   3.522   0.416  2.3381 -1.6329 -1.9439
 1223SOL    HW2 3990   2.006   3.676   0.463 -3.1567 -1.6724  2.3185
 1224SOL     OW 3991   5.277   1.549   1.553  0.1669 -0.1554  0.0661
 1224SOL    HW1 3992   5.349   1.567   1.620 -0.5893 -0.2562  0.9149
 1224SOL    HW2 3993   5.268   1.629   1.492  0.8529 -0.0646  0.0740
 1225SOL     OW 3994   5.554   4.063   5.398  0.5106  0.1449 -0.5564
 1225SOL    HW1 3995   5.543   3.970   5.363  0.2133  0.6274 -1.7825
 1225SOL    HW2 3996   5.472   4.116   5.377  0.0981  0.3484  1.3114
 1226SOL     OW 3997   2.706   0.111   3.402  0.1903  0.5322 -0.1677
 1226SOL    HW1 3998   2.638   0.052   3.446  0.5039  0.6987  0.5478
 1226SOL    HW2 3999   2.760   0.158   3.472  2.4961 -1.1976 -0.6522
 1227SOL     OW 4000   1.873   0.208   5.054  0.3168 -0.1611  0.1092
 1227SOL    HW1 4001   1.922   0.130   5.016  0.1681 -1.3735  2.2774
 1227SOL    HW2 4002   1.782   0.180   5.083  0.5565  0.5966  1.6916
 1228SOL     OW 4003   4.307   0.565   3.886 -0.6975  0.2163 -0.1069
 1228SOL    HW1 4004   4.260   0.502   3.948 -2.9970  1.8449 -0.0666
 1228SOL    HW2 4005   4.348   0.639   3.939 -0.2096  0.1106 -0.3343
 1229SOL     OW 4006   1.443   0.179   3.713 -0.2148 -0.0486 -0.3725
 1229SOL    HW1 4007   1.401   0.101   3.666  0.7601 -1.1683  0.5630
 1229SOL    HW2 4008   1.485   0.240   3.645  1.4142 -1.7744 -1.0082
 1230SOL     OW 4009   4.764   2.596   5.031 -0.7071 -0.2090 -0.1028
 1230SOL    HW1 4010   4.675   2.605   5.076 -0.1371 -1.4592  1.3488
 1230SOL    HW2 4011   4.779   2.501   5.005 -0.7293  0.3585 -2.4392
 1231SOL     OW 4012   0.112   2.362   2.515 -0.1313  0.1650  0.3076
 1231SOL    HW1 4013   0.078   2.456   2.517 -0.2384  0.1551 -0.4788
 1231SOL    HW2 4014   0.138   2.339   2.421 -1.9001 -1.2342  0.1110
 1232SOL     OW 4015   1.532   4.930   2.973 -0.1341 -0.4607 -0.0353
 1232SOL    HW1 4016   1.531   4.881   3.060  1.1066 -0.2453  0.1150
 1232SOL    HW2 4017   1.621   4.920   2.930 -0.0615  1.1003 -0.3073
 1233SOL     OW 4018   2.578   4.125   0.515  0.1238  0.1542  0.3894
 1233SOL    HW1 4019   2.513   4.122   0.439  0.3583 -2.1382  0.2326
 1233SOL    HW2 4020   2.574   4.215   0.558 -0.8927  1.1127 -1.5561
 1234SOL     OW 4021   1.789   2.342   1.413  0.3094  0.1847 -0.2524
 1234SOL    HW1 4022   1.703   2.385   1.439  0.1037 -0.5829  0.3519
 1234SOL    HW2 4023   1.850   2.338   1.492  0.3944 -0.4820 -0.3485
 1235SOL     OW 4024   1.018   2.039   4.698  0.2272  0.5611  0.1173
 1235SOL    HW1 4025   0.995   1.942   4.697  1.5980  0.1305  2.3248
 1235SOL    HW2 4026   1.089   2.057   4.629 -0.1134  0.0366 -0.3803
 1236SOL     OW 4027   2.186   0.094   5.133 -0.6994  0.7095 -0.4725
 1236SOL    HW1 4028   2.276   0.060   5.106  0.0631  1.7396  0.6558
 1236SOL    HW2 4029   2.115   0.041   5.087  0.4690 -0.4069 -1.0543
 1237SOL     OW 4030   5.488   1.545   3.680  0.2819 -0.2121 -0.0467
 1237SOL    HW1 4031   5.535   1.537   3.592 -2.1986  2.5322 -1.7690
 1237SOL    HW2 4032   5.463   1.640   3.696  0.5270 -0.6307  3.6683
 1238SOL     OW 4033   3.448   0.969   3.368  0.8616  0.5645  0.1439
 1238SOL    HW1 4034   3.390   1.002   3.293  0.8574 -1.1921 -0.6745
 1238SOL    HW2 4035   3.539   0.950   3.333  0.2008 -2.7513 -0.1472
 1239SOL     OW 4036   2.888   1.327   5.180  0.0310 -0.1029 -0.5620
 1239SOL    HW1 4037   2.850   1.373   5.260 -0.6285  0.3008 -1.0938
 1239SOL    HW2 4038   2.976   1.287   5.203  0.1621  0.5899  0.1826
 1240SOL     OW 4039   3.512   4.710   3.935 -0.2281 -0.8773  0.3913
 1240SOL    HW1 4040   3.448   4.758   3.875 -0.5227 -1.0023  0.5998
 1240SOL    HW2 4041   3.568   4.776   3.985 -0.3391 -0.7617  0.3622
 1241SOL     OW 4042   2.232   0.539   3.192 -0.0536  0.0020 -0.6684
 1241SOL    HW1 4043   2.210   0.580   3.103  0.7730 -0.9398 -1.3308
 1241SOL    HW2 4044   2.168   0.464   3.210 -2.3678  2.2311  1.1134
 1242SOL     OW 4045   2.934   0.336   2.552  0.2552 -0.3576  0.5906
 1242SOL    HW1 4046   2.957   0.239   2.546  1.6040 -0.1247  1.4859
 1242SOL    HW2 4047   2.975   0.385   2.475  0.7094 -0.3093  0.8591
 1243SOL     OW 4048   0.230   1.615   1.790 -0.1936 -0.4069  0.3138
 1243SOL    HW1 4049   0.306   1.551   1.776 -0.5471 -0.4851 -1.4097
 1243SOL    HW2 4050   0.145   1.574   1.757 -1.0796 -0.4072  2.4068
 1244SOL     OW 4051   2.339   4.868  -0.019  0.6315 -0.0151  0.2591
 1244SOL    HW1 4052   2.343   4.921   0.066  0.8007 -1.6123  1.3023
 1244SOL    HW2 4053   2.362   4.772   0.001  2.1013 -0.1652 -1.8391
 1245SOL     OW 4054   2.747   2.606   4.185  0.4566 -0.2108  0.1020
 1245SOL    HW1 4055   2.661   2.623   4.233 -0.9577  0.1059 -2.3639
 1245SOL    HW2 4056   2.748   2.512   4.150  1.9683 -0.8113  1.6198
 1246SOL     OW 4057   0.401   4.767   5.295 -0.6717  0.0119 -0.0183
 1246SOL    HW1 4058   0.402   4.812   5.206  0.9283  0.9075  0.4191
 1246SOL    HW2 4059   0.442   4.827   5.364  0.3596 -1.6128  0.8552
 1247SOL     OW 4060   0.443   3.730   2.371  0.1481  0.3786 -0.3159
 1247SOL    HW1 4061   0.439   3.820   2.329  0.8036  0.9971  0.9007
 1247SOL    HW2 4062   0.508   3.672   2.321  0.4791  0.9098 -0.5055
 1248SOL     OW 4063   4.786   5.408   1.059  0.4476  0.8623  0.0291
 1248SOL    HW1 4064   4.710   5.467   1.087  1.1507  0.7376  2.3662
 1248SOL    HW2 4065   4.841   5.385   1.138  2.5887  0.4172 -1.5127
 1249SOL     OW 4066   0.641   1.435   0.669 -0.5533 -0.3661 -0.0528
 1249SOL    HW1 4067   0.687   1.390   0.745  0.4050 -0.6657 -0.7895
 1249SOL    HW2 4068   0.668   1.392   0.583 -1.8547 -0.2316 -0.5551
 1250SOL     OW 4069   1.098   3.588   2.514 -0.0877 -0.6158 -0.6772
 1250SOL    HW1 4070   1.189   3.566   2.480 -0.1704 -0.3346 -1.0944
 1250SOL    HW2 4071   1.057   3.507   2.555 -0.0438 -1.0126 -1.3920
 1251SOL     OW 4072   3.848   3.046   3.835  0.1486  0.1145  0.5038
 1251SOL    HW1 4073   3.924   2.982   3.830  0.1806  0.2442 -1.3432
 1251SOL    HW2 4074   3.881   3.139   3.819 -0.2040  0.3458  1.0874
 1252SOL     OW 4075   2.164   0.630   3.850 -0.5029 -0.0168  0.0975
 1252SOL    HW1 4076   2.251   0.582   3.844 -0.5950 -0.0433 -1.2735
 1252SOL    HW2 4077   2.120   0.633   3.760 -2.5986 -1.2293  0.9878
 1253SOL     OW 4078   2.407   3.306   0.498 -0.0440 -0.4228 -0.2449
 1253SOL    HW1 4079   2.448   3.244   0.432  1.7025  1.1217 -0.6844
 1253SOL    HW2 4080   2.342   3.366   0.451 -0.0955 -0.4695 -0.2335
 1254SOL     OW 4081   4.755   2.412   1.927  0.0171  0.2233  0.6758
 1254SOL    HW1 4082   4.818   2.388   1.854 -0.4325  0.2723  0.2644
 1254SOL    HW2 4083   4.778   2.361   2.010  0.6729  0.3421  0.5703
 1255SOL     OW 4084   3.312   4.583   5.022  0.0325 -0.1108  0.3346
 1255SOL    HW1 4085   3.273   4.538   5.103 -0.5924 -0.4078 -0.1173
 1255SOL    HW2 4086   3.300   4.682   5.030 -1.4400 -0.2303 -0.0894
 1256SOL     OW 4087   3.653   1.704   1.906 -0.1946  0.3316  0.1225
 1256SOL    HW1 4088   3.625   1.754   1.824  1.0735  0.0966 -0.4776
 1256SOL    HW2 4089   3.670   1.769   1.980  0.5243  0.7325 -0.3795
 1257SOL     OW 4090   1.500   1.900   2.051 -0.1026  0.1358  0.2456
 1257SOL    HW1 4091   1.433   1.974   2.065 -0.5294 -0.1786 -0.0921
 1257SOL    HW2 4092   1.507   1.845   2.134 -0.4282  0.0427  0.2138
 1258SOL     OW 4093   3.407   4.368   3.451 -0.2529 -0.3836 -0.4965
 1258SOL    HW1 4094   3.386   4.448   3.396 -0.4971 -0.0860  0.0211
 1258SOL    HW2 4095   3.397   4.285   3.396  0.3135 -0.0441 -1.1265
 1259SOL     OW 4096   5.532   4.030   3.499  0.3200  0.0727 -0.2794
 1259SOL    HW1 4097   5.476   4.059   3.422  2.1153 -1.1122 -2.1316
 1259SOL    HW2 4098   5.519   3.932   3.515  1.8307 -0.2526 -0.8122
 1260SOL     OW 4099   1.291   5.008   2.933  0.5351  0.7192  0.2420
 1260SOL    HW1 4100   1.387   4.983   2.950 -0.0926 -1.0452  1.4287
 1260SOL    HW2 4101   1.243   5.018   3.020 -1.1642 -1.8649 -0.2808
 1261SOL     OW 4102   4.561   3.148   0.999  0.7158 -0.7146  0.2597
 1261SOL    HW1 4103   4.476   3.162   1.048  0.0918  0.3057 -1.0535
 1261SOL    HW2 4104   4.597   3.236   0.968  3.1328 -0.9221  2.1503
 1262SOL     OW 4105   3.937   0.942   4.744  0.1162  0.2275 -0.1097
 1262SOL    HW1 4106   3.950   0.845   4.764  0.5953 -0.0213 -1.5137
 1262SOL    HW2 4107   3.935   0.955   4.645  0.3458  1.6933  0.0631
 1263SOL     OW 4108   1.931   3.795   3.425 -0.2105  0.3959  0.0336
 1263SOL    HW1 4109   1.980   3.719   3.467 -1.8634  0.0602  1.4870
 1263SOL    HW2 4110   1.975   3.881   3.451 -1.0257  0.1815  2.4114
 1264SOL     OW 4111   3.982   3.891   3.652  0.1879  0.3198 -0.0363
 1264SOL    HW1 4112   3.925   3.814   3.681 -0.1954  0.5574 -0.1413
 1264SOL    HW2 4113   3.924   3.971   3.639  0.5079  0.4883 -0.4424
 1265SOL     OW 4114   2.678   1.772   3.044  0.3921 -0.0362  0.4288
 1265SOL    HW1 4115   2.710   1.866   3.055  0.9439 -0.0627 -0.7325
 1265SOL    HW2 4116   2.728   1.712   3.106  0.5284  0.3405  0.6883
 1266SOL     OW 4117   1.619   2.972   5.137 -0.1528 -0.4724  0.7045
 1266SOL    HW1 4118   1.711   3.001   5.164  0.6279 -1.1326 -1.0760
 1266SOL    HW2 4119   1.562   2.961   5.219  1.3695 -0.1653  1.8526
 1267SOL     OW 4120   4.808   0.427   2.255  0.2110 -0.3545 -0.5010
 1267SOL    HW1 4121   4.724   0.395   2.210  0.3451 -0.6463 -0.5469
 1267SOL    HW2 4122   4.800   0.524   2.275 -1.5339 -0.9758  2.4939
 1268SOL     OW 4123   0.247   3.777   4.104 -0.3707 -0.5124 -0.6865
 1268SOL    HW1 4124   0.166   3.739   4.060 -0.9366 -0.5393  0.3551
 1268SOL    HW2 4125   0.284   3.711   4.170 -0.7463  0.2999  0.3738
 1269SOL     OW 4126   1.680   3.035   1.872 -0.6245  0.2707  0.1997
 1269SOL    HW1 4127   1.726   3.123   1.860  0.9588 -0.5643 -0.1050
 1269SOL    HW2 4128   1.675   2.987   1.785  0.7531 -0.9725  0.7513
 1270SOL     OW 4129   1.581   2.532   0.089 -0.2515  0.1713  0.4738
 1270SOL    HW1 4130   1.625   2.452   0.130  0.0587  1.2308  2.3656
 1270SOL    HW2 4131   1.553   2.595   0.162  1.1464  2.6176 -0.9660
 1271SOL     OW 4132   1.706   2.584   1.026  0.3485 -0.6765  0.7322
 1271SOL    HW1 4133   1.660   2.621   1.106 -1.0987  0.0826 -0.3982
 1271SOL    HW2 4134   1.772   2.651   0.991 -2.2497  1.0314 -1.2985
 1272SOL     OW 4135   1.075   1.863   5.232  0.1598  0.4471  0.1668
 1272SOL    HW1 4136   1.135   1.935   5.197 -0.0578  0.3795 -0.3469
 1272SOL    HW2 4137   1.117   1.774   5.213  0.4548  0.4331  0.8487
 1273SOL     OW 4138   1.366   2.248   1.886  0.0035  0.2012  0.1221
 1273SOL    HW1 4139   1.286   2.250   1.946 -0.0390  0.7010  0.0536
 1273SOL    HW2 4140   1.341   2.208   1.798 -0.4912  1.4746 -0.3412
 1274SOL     OW 4141   1.885   0.873   4.296 -0.0355 -0.5325  0.1687
 1274SOL    HW1 4142   1.905   0.865   4.198 -1.1184 -1.1206 -0.0313
 1274SOL    HW2 4143   1.969   0.892   4.346  1.0955 -3.1125 -0.5623
 1275SOL     OW 4144   2.554   4.426   1.346 -0.3279 -0.5945 -0.1775
 1275SOL    HW1 4145   2.622   4.384   1.406 -1.0015 -1.8306 -0.2432
 1275SOL    HW2 4146   2.464   4.389   1.367 -0.6620 -0.6147 -1.5434
 1276SOL     OW 4147   1.575   5.379   1.839  0.3968 -0.5419 -0.1750
 1276SOL    HW1 4148   1.670   5.388   1.809  0.5700 -1.1571  0.1749
 1276SOL    HW2 4149   1.524   5.322   1.775 -0.5614  2.2184 -2.0823
 1277SOL     OW 4150   4.678   0.765   1.078  0.3635  0.1180  0.8071
 1277SOL    HW1 4151   4.650   0.800   1.168  1.2707  0.9096  0.7915
 1277SOL    HW2 4152   4.696   0.842   1.017  2.1891 -0.3565  0.7028
 1278SOL     OW 4153   2.229   1.627   3.869 -0.5140 -0.3109 -0.0965
 1278SOL    HW1 4154   2.214   1.692   3.795 -0.6051 -0.4988 -0.2449
 1278SOL    HW2 4155   2.162   1.643   3.942 -1.3397 -1.0167 -0.6687
 1279SOL     OW 4156   2.611   3.681   4.796 -0.0683 -0.6287 -0.1667
 1279SOL    HW1 4157   2.680   3.668   4.724  0.7646 -1.5265  0.7539
 1279SOL    HW2 4158   2.537   3.738   4.761 -0.7905 -2.7831 -2.4837
 1280SOL     OW 4159   2.328   0.586   5.429  0.3674 -0.3593  0.1678
 1280SOL    HW1 4160   2.305   0.637   5.346  0.3921 -2.5314 -1.2319
 1280SOL    HW2 4161   2.416   0.539   5.416  0.3513 -0.7621  1.4173
 1281SOL     OW 4162   0.822   0.949   3.779 -0.4517 -0.5834 -0.6862
 1281SOL    HW1 4163   0.826   1.044   3.747  0.7835 -0.2991  0.2384
 1281SOL    HW2 4164   0.808   0.948   3.878 -1.0268 -1.3884 -0.7691
 1282SOL     OW 4165   0.563   2.961   0.608  0.0154 -0.2294  0.2095
 1282SOL    HW1 4166   0.524   2.877   0.572 -0.6623 -0.4735  1.4404
 1282SOL    HW2 4167   0.608   2.942   0.695 -0.2188  0.6924  0.5439
 1283SOL     OW 4168   1.496   1.888   0.945 -0.0951  0.0561 -0.0850
 1283SOL    HW1 4169   1.503   1.789   0.953 -0.3445  0.1790  2.1535
 1283SOL    HW2 4170   1.403   1.917   0.968  0.5645  0.9715  1.5457
 1284SOL     OW 4171   3.936   1.240   4.808  0.4171  0.2198  0.1099
 1284SOL    HW1 4172   3.849   1.285   4.827  0.5667  0.6306 -0.1675
 1284SOL    HW2 4173   3.920   1.152   4.764  0.1538  0.4629 -0.2807
 1285SOL     OW 4174   3.325   4.958   2.504  0.8382  0.0194  0.8469
 1285SOL    HW1 4175   3.250   4.978   2.568 -0.4180 -0.0127 -0.5393
 1285SOL    HW2 4176   3.303   4.874   2.453  0.2043  1.6784 -1.8191
 1286SOL     OW 4177   2.976   3.363   3.967 -0.8750  0.6020  0.0317
 1286SOL    HW1 4178   3.033   3.314   3.900  0.0060  1.0240  0.4685
 1286SOL    HW2 4179   2.932   3.296   4.027 -0.2626  0.2955  0.1537
 1287SOL     OW 4180   4.607   5.203   4.372 -0.0626 -0.1375 -0.1608
 1287SOL    HW1 4181   4.665   5.282   4.352 -0.5635 -0.3649 -2.9168
 1287SOL    HW2 4182   4.546   5.225   4.449  2.4803  0.6563  1.7730
 1288SOL     OW 4183   5.396   5.199   5.125  0.2264  0.2894 -0.3590
 1288SOL    HW1 4184   5.377   5.255   5.045 -0.1410  0.4508 -0.1620
 1288SOL    HW2 4185   5.371   5.104   5.105  0.1444  0.3275 -0.4413
 1289SOL     OW 4186   3.907   4.962   0.430  0.5792 -0.4265  0.6559
 1289SOL    HW1 4187   3.927   5.052   0.469  0.3554  0.0814 -0.3771
 1289SOL    HW2 4188   3.921   4.964   0.331 -0.4294 -1.2399  0.4757
 1290SOL     OW 4189   2.328   5.457   3.373 -0.4152  0.2708 -0.6250
 1290SOL    HW1 4190   2.296   5.438   3.281  0.3285 -1.1913 -0.6130
 1290SOL    HW2 4191   2.252   5.446   3.438 -1.0093  1.5807 -1.0507
 1291SOL     OW 4192   4.901   4.924   1.334  0.1180 -0.6010  0.7005
 1291SOL    HW1 4193   4.844   4.996   1.374  1.6771  0.9102  0.3553
 1291SOL    HW2 4194   4.966   4.891   1.403  2.6315  1.8201 -0.2783
 1292SOL     OW 4195   4.117   0.441   0.671  0.6138  0.4953  0.0513
 1292SOL    HW1 4196   4.113   0.513   0.601 -2.6310 -0.2133 -0.6661
 1292SOL    HW2 4197   4.140   0.481   0.759  0.9759  2.0474 -0.7100
 1293SOL     OW 4198   3.990   3.915   4.043 -0.7423 -0.0211 -0.2118
 1293SOL    HW1 4199   3.956   3.851   3.974 -3.0702 -1.0416  1.7648
 1293SOL    HW2 4200   4.006   3.867   4.128 -0.4440  1.6667  0.7335
 1294SOL     OW 4201   2.782   2.687   3.450  0.1025  0.1471  0.5847
 1294SOL    HW1 4202   2.725   2.764   3.418  0.0580 -0.2468 -0.3316
 1294SOL    HW2 4203   2.727   2.604   3.455  0.6273 -0.2959 -0.5601
 1295SOL     OW 4204   0.870   3.808   3.007  0.6744  0.4937 -0.1786
 1295SOL    HW1 4205   0.940   3.738   2.999 -0.4162 -0.9836  2.2884
 1295SOL    HW2 4206   0.850   3.846   2.916  1.9354 -1.7291 -1.4498
 1296SOL     OW 4207   4.167   1.032   2.781  0.0755  0.2292  0.0925
 1296SOL    HW1 4208   4.198   1.032   2.876  0.5285 -0.8002 -0.0411
 1296SOL    HW2 4209   4.245   1.024   2.720 -0.2632  0.1634 -0.3414
 1297SOL     OW 4210   1.116   3.545   3.948  0.7131  0.4096  0.0818
 1297SOL    HW1 4211   1.215   3.543   3.936  0.4592 -0.1214 -2.5209
 1297SOL    HW2 4212   1.074   3.597   3.873 -0.9342  1.9350  1.9308
 1298SOL     OW 4213   1.117   2.975   1.642  0.6256  0.2174  0.1514
 1298SOL    HW1 4214   1.019   2.972   1.661  0.2366  0.2551 -1.6478
 1298SOL    HW2 4215   1.144   2.891   1.594  0.9617  1.1583 -1.4064
 1299SOL     OW 4216   0.522   3.236   4.753 -0.0326 -0.1978  0.6030
 1299SOL    HW1 4217   0.488   3.328   4.769  0.3832  0.2272 -0.8445
 1299SOL    HW2 4218   0.599   3.218   4.814  1.1505  1.1506 -0.4317
 1300SOL     OW 4219   4.964   0.267   1.492  0.2318 -0.0345  0.0984
 1300SOL    HW1 4220   4.878   0.229   1.460  0.4512  0.0398 -0.5879
 1300SOL    HW2 4221   4.975   0.247   1.589 -0.9752  0.7133  0.4154
 1301SOL     OW 4222   0.980   0.177   1.083 -0.1348 -0.6794 -0.2347
 1301SOL    HW1 4223   0.959   0.129   1.168  1.6066 -1.0994  0.0047
 1301SOL    HW2 4224   0.917   0.147   1.011 -1.8766 -0.0371  0.9639
 1302SOL     OW 4225   2.184   4.296   5.367 -0.5651 -0.0890 -0.0668
 1302SOL    HW1 4226   2.260   4.235   5.347  1.5428  1.6396  2.0774
 1302SOL    HW2 4227   2.176   4.309   5.466 -0.4728  3.4670 -0.3642
 1303SOL     OW 4228   1.005   5.271   1.311 -0.2804 -0.3014 -0.4856
 1303SOL    HW1 4229   0.982   5.188   1.261 -1.9908 -0.6700  0.8228
 1303SOL    HW2 4230   0.998   5.253   1.409  0.0011  1.2135 -0.1655
 1304SOL     OW 4231   1.601   3.129   4.901 -0.3232  0.1123  0.3519
 1304SOL    HW1 4232   1.626   3.050   4.846  0.0405 -0.0930  0.7991
 1304SOL    HW2 4233   1.604   3.104   4.998  1.5908  1.1409  0.5993
 1305SOL     OW 4234   4.522   3.901   5.391  0.0223  0.2005 -0.9337
 1305SOL    HW1 4235   4.485   3.974   5.448 -1.1631  0.6122 -2.1817
 1305SOL    HW2 4236   4.619   3.887   5.412 -0.1245  1.0815  0.3792
 1306SOL     OW 4237   1.082   4.245   2.745  0.3195 -0.1530 -0.1562
 1306SOL    HW1 4238   1.098   4.241   2.843  1.7929  0.7030 -0.3203
 1306SOL    HW2 4239   0.993   4.289   2.727 -1.4379 -3.0822  0.7944
 1307SOL     OW 4240   3.988   1.119   5.237 -0.6348 -0.1915  0.2216
 1307SOL    HW1 4241   3.986   1.051   5.163  3.2696 -0.5357  0.1927
 1307SOL    HW2 4242   3.986   1.211   5.197  1.7238 -0.3703 -0.4710
 1308SOL     OW 4243   1.759   2.128   2.286  0.4684 -0.6863 -0.5776
 1308SOL    HW1 4244   1.830   2.067   2.321 -0.1887 -1.1933 -0.1019
 1308SOL    HW2 4245   1.696   2.150   2.360  1.5059  1.7928 -0.3320
 1309SOL     OW 4246   5.325   4.265   4.132 -0.1715 -0.2612 -0.1556
 1309SOL    HW1 4247   5.259   4.195   4.160 -0.0010 -1.5929 -2.7746
 1309SOL    HW2 4248   5.416   4.225   4.125  0.2889  0.7062  0.1226
 1310SOL     OW 4249   1.400   3.996   0.191  0.1800  0.3238 -0.3403
 1310SOL    HW1 4250   1.457   3.939   0.250 -0.8312  0.3639  0.7047
 1310SOL    HW2 4251   1.458   4.053   0.133  1.1971 -0.2165  0.1254
 1311SOL     OW 4252   2.808   4.414   2.427 -0.1608 -0.7069 -0.2627
 1311SOL    HW1 4253   2.749   4.367   2.362  0.0294 -0.1816 -0.8211
 1311SOL    HW2 4254   2.879   4.351   2.459  0.0051 -0.8435 -0.8908
 1312SOL     OW 4255   5.129   4.026   3.360 -0.3377  0.0234  0.7667
 1312SOL    HW1 4256   5.048   3.970   3.380  0.2512 -0.9243  0.5759
 1312SOL    HW2 4257   5.165   4.001   3.270 -1.5490  2.5455 -0.5229
 1313SOL     OW 4258   1.255   5.394   5.250 -0.0026  0.6524  0.3428
 1313SOL    HW1 4259   1.348   5.389   5.215 -0.5380 -1.9697 -0.9012
 1313SOL    HW2 4260   1.258   5.394   5.350  1.3136  0.4044  0.3244
 1314SOL     OW 4261   4.733   2.508   0.217  0.0898 -0.1627  0.0156
 1314SOL    HW1 4262   4.653   2.547   0.264  0.5827  4.0522 -2.1053
 1314SOL    HW2 4263   4.703   2.463   0.132 -0.2053 -0.8654  0.4884
 1315SOL     OW 4264   5.391   5.280   2.752 -0.0548 -0.0523  0.0101
 1315SOL    HW1 4265   5.311   5.248   2.702 -1.3138 -0.0026  1.8952
 1315SOL    HW2 4266   5.430   5.360   2.706  0.1390 -1.2278 -1.9964
 1316SOL     OW 4267   4.359   3.270   1.144  0.6911  0.0193  0.2351
 1316SOL    HW1 4268   4.278   3.247   1.198 -0.2182  0.1769 -1.0110
 1316SOL    HW2 4269   4.415   3.336   1.194 -1.1527  1.7375  0.1713
 1317SOL     OW 4270   2.516   1.257   2.402 -0.0118 -0.4774 -0.0558
 1317SOL    HW1 4271   2.512   1.345   2.450  0.3352  0.4152 -1.5890
 1317SOL    HW2 4272   2.439   1.200   2.432  0.0708  0.1114  1.3727
 1318SOL     OW 4273   1.500   2.441   3.397 -0.0870  0.5226 -0.3851
 1318SOL    HW1 4274   1.524   2.494   3.316  0.0406  1.1137  0.0388
 1318SOL    HW2 4275   1.409   2.401   3.384  0.8403 -1.2727 -1.7633
 1319SOL     OW 4276   2.483   2.938   0.184 -0.3925 -0.3579 -0.0296
 1319SOL    HW1 4277   2.521   2.852   0.151 -0.0111 -0.1104 -0.2415
 1319SOL    HW2 4278   2.390   2.950   0.149  0.0746 -0.0022 -1.1832
 1320SOL     OW 4279   3.495   3.151   1.727 -0.4898 -0.3126 -0.3382
 1320SOL    HW1 4280   3.538   3.062   1.746  2.0139  0.6981 -0.7729
 1320SOL    HW2 4281   3.430   3.142   1.652  1.4479 -1.4153 -1.9884
 1321SOL     OW 4282   5.126   2.019   2.147  0.3812  0.5599  0.2722
 1321SOL    HW1 4283   5.195   1.948   2.166  1.3311  2.0119  2.8555
 1321SOL    HW2 4284   5.069   2.032   2.228 -0.5850  1.8979 -0.5825
 1322SOL     OW 4285   2.697   2.922   4.408 -0.1186  0.1234  0.5089
 1322SOL    HW1 4286   2.789   2.896   4.436 -0.8861 -0.0057  3.2443
 1322SOL    HW2 4287   2.639   2.840   4.406 -0.5323  0.4181  0.3685
 1323SOL     OW 4288   5.508   0.346   4.349  0.1110  0.7706 -0.9010
 1323SOL    HW1 4289   5.487   0.254   4.382 -0.0152  0.6701 -1.2567
 1323SOL    HW2 4290   5.606   0.354   4.331  0.3381  1.1237  0.4004
 1324SOL     OW 4291   4.317   2.614   5.426  0.1022 -0.5154 -0.4518
 1324SOL    HW1 4292   4.238   2.554   5.436 -0.1157 -0.5944 -2.2311
 1324SOL    HW2 4293   4.340   2.655   5.514 -3.6259  1.6869 -0.3228
 1325SOL     OW 4294   1.810   0.664   3.865 -0.1393 -0.3716  0.0963
 1325SOL    HW1 4295   1.784   0.700   3.775  0.5707  0.8865  0.3746
 1325SOL    HW2 4296   1.805   0.564   3.863 -3.0198 -0.3039 -0.4442
 1326SOL     OW 4297   5.416   1.789   5.372 -0.2156  0.6320  0.1919
 1326SOL    HW1 4298   5.474   1.821   5.298 -2.0226  1.3490 -1.0032
 1326SOL    HW2 4299   5.467   1.789   5.458  1.5761  0.9556 -0.8315
 1327SOL     OW 4300   2.918   5.025   3.336  0.0460  0.3307 -0.0496
 1327SOL    HW1 4301   2.922   4.971   3.421 -1.4711  0.1820 -0.0372
 1327SOL    HW2 4302   2.832   5.077   3.334  0.5621  1.1777 -1.0066
 1328SOL     OW 4303   5.507   1.572   2.663  0.0955 -0.2073 -0.1401
 1328SOL    HW1 4304   5.432   1.508   2.677  0.0525  0.0042  0.6474
 1328SOL    HW2 4305   5.594   1.521   2.661 -0.0482 -0.4420 -0.9814
 1329SOL     OW 4306   3.577   2.746   2.279 -0.0549  0.3484  0.4282
 1329SOL    HW1 4307   3.652   2.701   2.231 -0.6018 -0.4774  0.3248
 1329SOL    HW2 4308   3.508   2.678   2.305 -0.7077  1.0705  0.6384
 1330SOL     OW 4309   0.134   4.680   3.933 -0.2697 -0.6406  0.1703
 1330SOL    HW1 4310   0.077   4.648   3.858 -0.8704 -0.9152  0.7242
 1330SOL    HW2 4311   0.080   4.743   3.991  0.2436 -0.2753  0.2562
 1331SOL     OW 4312   5.285   3.111   0.336  0.1009 -0.2379 -0.2735
 1331SOL    HW1 4313   5.378   3.081   0.315  0.6044  0.8161  0.3589
 1331SOL    HW2 4314   5.259   3.079   0.427  0.0182 -0.1485 -0.2652
 1332SOL     OW 4315   2.066   2.905   1.872  0.1902  0.4829 -0.7880
 1332SOL    HW1 4316   2.160   2.920   1.902 -0.0859 -1.9082  1.6249
 1332SOL    HW2 4317   2.008   2.886   1.951 -2.1500  0.7914 -2.3134
 1333SOL     OW 4318   0.507   4.686   2.899 -0.5264 -0.3180  0.2593
 1333SOL    HW1 4319   0.446   4.618   2.940 -1.3289  0.1142 -0.1945
 1333SOL    HW2 4320   0.599   4.647   2.889 -1.0853 -1.4990 -0.4261
 1334SOL     OW 4321   3.448   1.671   0.241  0.2044 -0.8347 -0.2342
 1334SOL    HW1 4322   3.419   1.731   0.167  0.3279 -1.7161 -1.0263
 1334SOL    HW2 4323   3.524   1.712   0.290  1.0399 -0.8451 -1.4911
 1335SOL     OW 4324   2.095   2.710   5.040 -0.4635  0.0037  0.0084
 1335SOL    HW1 4325   2.080   2.803   5.007  0.8803  0.7110  1.3078
 1335SOL    HW2 4326   2.047   2.697   5.127 -0.0248 -0.2693  0.2145
 1336SOL     OW 4327   2.844   1.276   2.514  0.4504 -0.1123  0.0892
 1336SOL    HW1 4328   2.864   1.204   2.447  0.8653  2.3803 -2.7207
 1336SOL    HW2 4329   2.752   1.264   2.549  0.6833 -2.2540  0.0968
 1337SOL     OW 4330   2.556   0.901   2.046  0.5775 -0.4537  0.3168
 1337SOL    HW1 4331   2.511   0.925   2.132  2.0318 -0.8722  1.2279
 1337SOL    HW2 4332   2.508   0.946   1.970 -1.5392 -1.1249  1.1756
 1338SOL     OW 4333   2.498   2.973   5.003  0.1181  0.1412  0.6239
 1338SOL    HW1 4334   2.534   2.880   4.991 -0.7212  0.1156 -2.6219
 1338SOL    HW2 4335   2.534   3.032   4.931 -3.0266  1.0968 -0.3471
 1339SOL     OW 4336   0.593   4.200   2.419 -0.8126 -0.2269 -0.4181
 1339SOL    HW1 4337   0.655   4.122   2.407  0.7076  0.9989 -0.9267
 1339SOL    HW2 4338   0.574   4.212   2.516 -0.5761 -0.8622 -0.2859
 1340SOL     OW 4339   1.258   1.015   4.620  0.4564  0.0642 -0.3445
 1340SOL    HW1 4340   1.263   1.114   4.634 -0.7001 -0.1713  2.1852
 1340SOL    HW2 4341   1.163   0.989   4.601  0.8185 -0.5429 -1.3998
 1341SOL     OW 4342   0.388   2.540   1.667  0.4077 -0.0626 -0.1196
 1341SOL    HW1 4343   0.474   2.490   1.672  0.5384  0.1671 -0.0720
 1341SOL    HW2 4344   0.372   2.587   1.753 -0.6907 -1.6205  0.5832
 1342SOL     OW 4345   1.164   1.505   2.399  0.2708  0.4350  0.3436
 1342SOL    HW1 4346   1.224   1.459   2.464  0.1240  1.0537  0.9246
 1342SOL    HW2 4347   1.212   1.584   2.360  0.8610 -0.6933 -1.3386
 1343SOL     OW 4348   1.723   1.371   3.601 -0.2668 -0.6608 -0.5034
 1343SOL    HW1 4349   1.669   1.302   3.554 -1.6338  0.4356 -0.6327
 1343SOL    HW2 4350   1.804   1.394   3.547 -0.7452 -0.8697 -1.3224
 1344SOL     OW 4351   2.412   4.595  -0.015  0.0715  0.0957 -0.5595
 1344SOL    HW1 4352   2.494   4.592   0.041 -0.1464  0.5547 -0.2090
 1344SOL    HW2 4353   2.338   4.545   0.030  0.0315  0.0575 -0.6657
 1345SOL     OW 4354   3.139   2.173   3.665 -0.3473  0.1535  0.4014
 1345SOL    HW1 4355   3.215   2.139   3.720 -0.1877 -0.9893 -0.4893
 1345SOL    HW2 4356   3.057   2.118   3.684 -0.0686 -0.8515 -1.1070
 1346SOL     OW 4357   0.791   1.913   2.534 -0.1897  0.1085 -0.2442
 1346SOL    HW1 4358   0.802   2.012   2.548  1.7197 -0.2639  1.5105
 1346SOL    HW2 4359   0.725   1.878   2.601 -1.3814  0.2611 -1.3117
 1347SOL     OW 4360   2.118   5.428   2.258  0.1110  0.0028  0.1512
 1347SOL    HW1 4361   2.218   5.421   2.257  0.0670 -0.8327  0.8928
 1347SOL    HW2 4362   2.088   5.470   2.343 -0.2392 -1.1064  0.5881
 1348SOL     OW 4363   3.479   0.797   3.008 -0.3642  0.2134 -0.2250
 1348SOL    HW1 4364   3.386   0.826   2.984 -0.0587  0.0652 -1.6644
 1348SOL    HW2 4365   3.538   0.805   2.928  1.2632  1.7742  1.0552
 1349SOL     OW 4366   5.124   2.844   3.089  0.6044  0.0366 -0.2646
 1349SOL    HW1 4367   5.180   2.786   3.030  0.3900 -3.0702  2.3152
 1349SOL    HW2 4368   5.039   2.867   3.043  0.7398 -1.6768 -1.4423
 1350SOL     OW 4369   4.493   2.864   0.936 -0.1669  0.1351 -0.1655
 1350SOL    HW1 4370   4.404   2.881   0.892 -0.6931 -0.7833  0.4975
 1350SOL    HW2 4371   4.539   2.951   0.952 -0.8679  0.6187 -0.6771
 1351SOL     OW 4372   3.402   2.712   2.039 -0.0719  0.8377  0.2268
 1351SOL    HW1 4373   3.378   2.615   2.032  1.0416  0.3856  1.9640
 1351SOL    HW2 4374   3.324   2.763   2.076 -0.7851  0.6806 -1.0354
 1352SOL     OW 4375   2.318   1.454   1.188 -0.0055 -0.1394 -0.1520
 1352SOL    HW1 4376   2.294   1.542   1.147  1.4606 -0.1445 -1.0909
 1352SOL    HW2 4377   2.413   1.456   1.220 -0.7366 -0.5102  2.3233
 1353SOL     OW 4378   4.452   1.957   0.569  0.2041  0.0875 -0.7580
 1353SOL    HW1 4379   4.353   1.972   0.576  0.1539  0.3181 -1.8594
 1353SOL    HW2 4380   4.469   1.865   0.533  0.3990  0.0672 -0.6153
 1354SOL     OW 4381   0.619   2.848  -0.029 -0.0741  0.5042 -0.2017
 1354SOL    HW1 4382   0.570   2.767   0.004  2.7268 -2.2028 -2.0612
 1354SOL    HW2 4383   0.679   2.882   0.043 -0.7893  0.5572  0.3871
 1355SOL     OW 4384   3.064   4.632   1.840  0.5907  0.1579 -0.3304
 1355SOL    HW1 4385   3.022   4.555   1.792  1.4187 -1.6770  1.6987
 1355SOL    HW2 4386   3.032   4.633   1.935  1.5990  1.5392  0.0273
 1356SOL     OW 4387   3.161   1.480   2.320 -0.1944 -0.2837 -0.6139
 1356SOL    HW1 4388   3.229   1.469   2.247 -0.7571 -1.5155 -0.9862
 1356SOL    HW2 4389   3.182   1.562   2.373  1.9572 -0.9747 -0.3144
 1357SOL     OW 4390   5.061   3.104   5.461  0.0155 -0.2080 -0.4232
 1357SOL    HW1 4391   4.988   3.077   5.398 -0.2597  0.2282 -0.2929
 1357SOL    HW2 4392   5.149   3.077   5.423 -0.0960  0.6342 -1.3107
 1358SOL     OW 4393   1.605   1.264   0.056  0.1937 -0.0531  0.5027
 1358SOL    HW1 4394   1.627   1.281  -0.040 -3.4718 -0.0187 -0.4844
 1358SOL    HW2 4395   1.552   1.341   0.093 -0.3717 -1.0385  1.8364
 1359SOL     OW 4396   0.296   0.895   2.174 -0.2368 -0.4585  0.1624
 1359SOL    HW1 4397   0.289   0.852   2.264 -1.8805 -0.2824  0.1353
 1359SOL    HW2 4398   0.278   0.993   2.183 -0.7747 -0.5026 -0.4199
 1360SOL     OW 4399   4.014   3.991   3.361  0.2157 -0.2239 -0.7110
 1360SOL    HW1 4400   4.079   4.068   3.354  2.4640 -1.3849  3.9098
 1360SOL    HW2 4401   4.061   3.906   3.338 -0.4466 -0.8215  0.1048
 1361SOL     OW 4402   5.335   3.318   0.157  0.2522  0.2934  0.3453
 1361SOL    HW1 4403   5.427   3.336   0.194  0.5625 -0.1699 -0.1856
 1361SOL    HW2 4404   5.296   3.238   0.202  0.9002 -0.6748 -0.7558
 1362SOL     OW 4405   3.966   3.470   2.633  0.2133  0.3798 -0.6037
 1362SOL    HW1 4406   4.002   3.424   2.714 -0.6106  2.5419  1.0759
 1362SOL    HW2 4407   4.039   3.523   2.589  0.7130 -0.9681 -1.4584
 1363SOL     OW 4408   3.386   5.494   0.798 -0.1305  0.3036 -0.5387
 1363SOL    HW1 4409   3.350   5.428   0.865  1.4611 -1.5329 -1.3889
 1363SOL    HW2 4410   3.315   5.562   0.777 -1.9627 -1.2728  0.1964
 1364SOL     OW 4411   3.453   2.373   4.675 -0.3831 -0.0255 -0.1488
 1364SOL    HW1 4412   3.369   2.367   4.620 -0.9958  0.8469  0.6718
 1364SOL    HW2 4413   3.532   2.371   4.614 -0.9994 -0.5666 -0.9575
 1365SOL     OW 4414   0.101   0.412   0.033  0.3565 -0.0124  0.4103
 1365SOL    HW1 4415   0.067   0.318   0.042  0.0703  0.1631  1.2734
 1365SOL    HW2 4416   0.051   0.458  -0.040  0.2678 -0.4320  0.2011
 1366SOL     OW 4417   5.302   1.986   2.798  0.2618 -0.1337 -0.3553
 1366SOL    HW1 4418   5.365   1.911   2.820 -0.8713 -1.0909 -0.2370
 1366SOL    HW2 4419   5.320   2.019   2.706  0.5763 -0.7733 -0.5291
 1367SOL     OW 4420   5.120   2.375   1.127 -0.0221  0.2098 -0.3113
 1367SOL    HW1 4421   5.178   2.302   1.093  1.4110  1.6893 -1.1693
 1367SOL    HW2 4422   5.071   2.417   1.051 -0.1485  0.7103  0.0418
 1368SOL     OW 4423   4.391   3.460   4.785 -0.7162 -0.8068  0.1892
 1368SOL    HW1 4424   4.322   3.451   4.713 -0.2566 -2.1645 -0.1024
 1368SOL    HW2 4425   4.396   3.376   4.838  1.5352 -1.2110 -0.5541
 1369SOL     OW 4426   0.265   2.959   0.967 -0.1370  0.1947 -0.1577
 1369SOL    HW1 4427   0.285   2.915   1.054  2.3578  0.4445 -0.5371
 1369SOL    HW2 4428   0.200   2.903   0.916  1.3675 -2.0556  0.2366
 1370SOL     OW 4429   5.140   1.289   1.014  0.4858  0.4560 -0.4782
 1370SOL    HW1 4430   5.165   1.256   0.923 -0.0132  0.2762 -0.5529
 1370SOL    HW2 4431   5.221   1.288   1.073  0.8176  0.6032 -0.9249
 1371SOL     OW 4432   1.480   5.223   2.878  0.0129 -0.2895  0.0699
 1371SOL    HW1 4433   1.464   5.290   2.951 -0.2737 -0.4177  0.1266
 1371SOL    HW2 4434   1.417   5.146   2.889  0.5609 -0.7300  0.1976
 1372SOL     OW 4435   5.341   2.916   2.185 -0.1954  0.6418 -0.3008
 1372SOL    HW1 4436   5.400   2.987   2.147  1.5549 -0.2992  0.5462
 1372SOL    HW2 4437   5.347   2.918   2.285  0.5413 -1.2134 -0.2790
 1373SOL     OW 4438   3.137   3.564   3.034  0.4594  0.3408  0.5282
 1373SOL    HW1 4439   3.099   3.603   2.950  0.6139 -2.2433 -0.8365
 1373SOL    HW2 4440   3.232   3.538   3.018  0.2304 -0.9885  1.1876
 1374SOL     OW 4441   0.238   1.165   2.212  0.2751  0.2906  0.1367
 1374SOL    HW1 4442   0.253   1.211   2.125  0.4583  0.1938  0.1175
 1374SOL    HW2 4443   0.188   1.226   2.274  0.1099  0.3440 -0.0491
 1375SOL     OW 4444   4.512   2.709   2.862  0.4128 -0.1555  0.3545
 1375SOL    HW1 4445   4.423   2.754   2.853  1.9901  3.3713  0.7329
 1375SOL    HW2 4446   4.574   2.742   2.790  1.9423 -1.1747  1.1434
 1376SOL     OW 4447   0.991   4.510   5.016  0.0613  0.1481 -0.3602
 1376SOL    HW1 4448   0.906   4.563   5.022  0.5703  0.8007  2.5122
 1376SOL    HW2 4449   1.066   4.569   4.985  0.1206  0.4391  0.3371
 1377SOL     OW 4450   4.850   3.537   1.248 -0.1240 -0.6536 -0.2058
 1377SOL    HW1 4451   4.783   3.610   1.259 -2.1319 -2.3688 -0.3629
 1377SOL    HW2 4452   4.942   3.576   1.242 -1.2052  1.9009 -1.4243
 1378SOL     OW 4453   2.288   3.806   0.235 -0.2756 -0.0008  0.5484
 1378SOL    HW1 4454   2.223   3.750   0.183 -1.1715  2.6372 -1.4461
 1378SOL    HW2 4455   2.240   3.849   0.312 -0.3620  0.2707  0.3460
 1379SOL     OW 4456   1.463   1.471   4.594 -0.2210 -0.6939 -0.3405
 1379SOL    HW1 4457   1.553   1.449   4.556 -0.3803 -0.9053 -0.6018
 1379SOL    HW2 4458   1.473   1.509   4.685  0.1458 -0.5407 -0.4463
 1380SOL     OW 4459   1.455   5.419   2.254  0.0226  0.0488 -0.1791
 1380SOL    HW1 4460   1.510   5.350   2.300 -0.4820  0.1487  0.6146
 1380SOL    HW2 4461   1.407   5.378   2.176 -1.2781 -0.8531  1.0350
 1381SOL     OW 4462   3.505   1.070   5.531 -0.0420  0.0796  1.4559
 1381SOL    HW1 4463   3.562   1.107   5.457  1.0195 -0.3475  2.0496
 1381SOL    HW2 4464   3.524   0.973   5.543 -0.0907  0.1777  2.4092
 1382SOL     OW 4465   0.910   0.058   4.520  0.6576 -0.3147  0.7270
 1382SOL    HW1 4466   0.923  -0.032   4.561 -1.8902 -0.1567  2.1239
 1382SOL    HW2 4467   0.880   0.123   4.590 -0.5673  0.8211 -0.7576
 1383SOL     OW 4468   2.665   4.617   5.099 -0.1260  0.2432  0.0659
 1383SOL    HW1 4469   2.572   4.597   5.131  0.2569 -0.7861  0.5664
 1383SOL    HW2 4470   2.691   4.708   5.130 -0.9240  0.4986  0.0173
 1384SOL     OW 4471   3.038   5.055   2.412  0.9700 -0.0663 -0.3542
 1384SOL    HW1 4472   3.009   5.107   2.332  0.0548 -1.4315 -0.9528
 1384SOL    HW2 4473   3.120   5.003   2.389  0.2753 -1.0463 -0.6691
 1385SOL     OW 4474   3.028   4.206   4.026  0.1523 -0.0505 -0.1991
 1385SOL    HW1 4475   3.021   4.135   4.097  1.5615 -0.8522 -0.8135
 1385SOL    HW2 4476   2.946   4.263   4.028 -0.9359 -1.5672  0.4520
 1386SOL     OW 4477   4.749   3.591   5.381  0.0478  0.2551 -0.4208
 1386SOL    HW1 4478   4.651   3.574   5.366  0.0961 -1.7238  1.0221
 1386SOL    HW2 4479   4.794   3.505   5.406  1.8787  1.3769  0.3771
 1387SOL     OW 4480   0.301   3.855   3.528 -0.4698 -0.2797  0.1609
 1387SOL    HW1 4481   0.311   3.952   3.549  1.1998 -0.8069  2.0522
 1387SOL    HW2 4482   0.389   3.818   3.497 -0.5229 -1.6290  1.5035
 1388SOL     OW 4483   4.996   4.672   2.096  0.0668  0.2187  0.0672
 1388SOL    HW1 4484   5.080   4.618   2.087  0.9050  1.2893  1.0574
 1388SOL    HW2 4485   4.920   4.624   2.053  1.1334 -0.9083 -0.6156
 1389SOL     OW 4486   2.934   1.498   4.189  0.3157 -0.4031 -0.1112
 1389SOL    HW1 4487   2.861   1.566   4.205  0.7789 -0.2235  1.3922
 1389SOL    HW2 4488   2.893   1.409   4.169 -0.3247  0.3869 -2.8909
 1390SOL     OW 4489   3.464   2.226   3.324  0.4086 -0.1074  0.1389
 1390SOL    HW1 4490   3.369   2.199   3.306  0.6277 -0.1770 -0.9947
 1390SOL    HW2 4491   3.521   2.145   3.331  0.8829 -0.0465 -2.2146
 1391SOL     OW 4492   0.023   4.092   2.196  0.4366  0.1687 -0.0319
 1391SOL    HW1 4493   0.122   4.091   2.207  0.4034  0.3972  0.3198
 1391SOL    HW2 4494  -0.010   3.999   2.178  0.7188  0.1034 -0.2234
 1392SOL     OW 4495   0.655   2.312   0.232  0.1950  0.5734 -0.1316
 1392SOL    HW1 4496   0.682   2.317   0.328  0.8630  0.6260 -0.3226
 1392SOL    HW2 4497   0.731   2.279   0.177 -0.6742 -1.0722 -0.4273
 1393SOL     OW 4498   1.146   4.442   1.294  0.2906  0.3450 -0.3497
 1393SOL    HW1 4499   1.140   4.396   1.206 -0.1190  4.1377 -2.5147
 1393SOL    HW2 4500   1.232   4.491   1.301  0.5302 -0.2494  1.6449
 1394SOL     OW 4501   1.326   1.017   3.601 -0.3369  0.1808 -0.3457
 1394SOL    HW1 4502   1.263   0.966   3.659 -0.1895  0.1687 -0.1939
 1394SOL    HW2 4503   1.282   1.039   3.515 -0.0306 -1.2145 -0.8890
 1395SOL     OW 4504   3.816   1.537   2.929 -0.2498  0.4172  0.4457
 1395SOL    HW1 4505   3.718   1.557   2.935 -0.5292  0.5776 -2.6679
 1395SOL    HW2 4506   3.867   1.623   2.927 -0.1999  0.3891  0.5223
 1396SOL     OW 4507   2.966   1.704   0.544  0.0958 -0.0812 -0.2062
 1396SOL    HW1 4508   2.993   1.712   0.640 -0.7556 -0.1097  0.0418
 1396SOL    HW2 4509   2.873   1.738   0.532  0.2638  0.1179 -1.0640
 1397SOL     OW 4510   5.121   0.661   1.240  0.2641  0.1077  0.0739
 1397SOL    HW1 4511   5.046   0.698   1.295 -0.2338 -0.1204 -0.4439
 1397SOL    HW2 4512   5.174   0.736   1.201  1.7124  0.3148  2.2747
 1398SOL     OW 4513   0.783   0.502   2.360  0.4573 -0.2234 -0.0512
 1398SOL    HW1 4514   0.724   0.582   2.346  2.1818  0.8217 -2.1249
 1398SOL    HW2 4515   0.859   0.527   2.419  1.0281 -0.2702 -0.7460
 1399SOL     OW 4516   1.161   0.266   4.806 -0.2044 -0.3724  0.2049
 1399SOL    HW1 4517   1.192   0.310   4.722 -1.8281 -1.2944 -0.9353
 1399SOL    HW2 4518   1.227   0.197   4.835  1.6623  1.7008  1.2166
 1400SOL     OW 4519   4.087   4.311   3.844  0.1754 -0.4887  0.0861
 1400SOL    HW1 4520   4.123   4.218   3.848 -0.0813 -0.5677  0.9543
 1400SOL    HW2 4521   3.995   4.310   3.804 -0.0989 -0.7169  0.6929
 1401SOL     OW 4522   5.003   0.135   5.055  0.2319  0.6093  0.0071
 1401SOL    HW1 4523   5.032   0.151   4.960  0.6804 -1.7603 -0.3146
 1401SOL    HW2 4524   5.066   0.071   5.099 -1.8544 -1.0543  0.7776
 1402SOL     OW 4525   0.378   2.483   3.305 -0.2227 -0.0357  0.6919
 1402SOL    HW1 4526   0.340   2.571   3.276 -0.2996  0.1455  1.3170
 1402SOL    HW2 4527   0.306   2.414   3.303 -0.3886  0.1248  1.0889
 1403SOL     OW 4528   2.609   1.653   0.945 -0.0655  0.1413 -0.6053
 1403SOL    HW1 4529   2.616   1.710   0.863  0.6619 -1.2233 -1.5441
 1403SOL    HW2 4530   2.700   1.617   0.968 -0.3722  0.0150  0.4343
 1404SOL     OW 4531   0.876   2.444   4.905  0.1208 -0.3428 -0.4957
 1404SOL    HW1 4532   0.945   2.484   4.965  0.4516 -1.0122 -0.4252
 1404SOL    HW2 4533   0.835   2.364   4.949 -0.4213 -0.1869 -0.7033
 1405SOL     OW 4534   4.346   2.568   3.949 -0.6684 -0.1200 -0.7360
 1405SOL    HW1 4535   4.328   2.636   4.021 -3.3428 -0.6435 -0.7959
 1405SOL    HW2 4536   4.375   2.615   3.866 -1.3709  0.8748 -0.4397
 1406SOL     OW 4537   1.506   5.280   4.570 -0.2003  0.0397  0.3453
 1406SOL    HW1 4538   1.444   5.332   4.511 -0.6353 -1.3267 -0.4378
 1406SOL    HW2 4539   1.589   5.332   4.586  0.0783  0.3013 -1.7675
 1407SOL     OW 4540   0.207   1.770   3.764 -0.0478 -0.0708  0.2755
 1407SOL    HW1 4541   0.239   1.746   3.672 -0.3494 -1.1103  0.4302
 1407SOL    HW2 4542   0.255   1.851   3.796 -0.2136  0.5257 -0.9509
 1408SOL     OW 4543   0.404   2.860   3.048 -0.2208  0.2941  0.7243
 1408SOL    HW1 4544   0.380   2.807   3.129  0.3259  0.6029  1.0944
 1408SOL    HW2 4545   0.409   2.799   2.968 -0.9054  0.0138  0.8879
 1409SOL     OW 4546   2.732   2.190   3.223  0.7125 -0.3830  0.2354
 1409SOL    HW1 4547   2.799   2.259   3.249  1.3181 -1.5656  2.0475
 1409SOL    HW2 4548   2.656   2.191   3.288  1.1537 -1.9246  0.8370
 1410SOL     OW 4549   4.668   1.013   0.943  0.3235 -0.1919 -1.2659
 1410SOL    HW1 4550   4.709   1.101   0.919 -1.3532  1.1583  0.5288
 1410SOL    HW2 4551   4.573   1.011   0.915  0.1172 -1.1110 -0.5796
 1411SOL     OW 4552   0.456   4.954   2.841  0.3307 -0.1564  0.0616
 1411SOL    HW1 4553   0.493   4.865   2.866  1.8426 -0.7665 -3.6878
 1411SOL    HW2 4554   0.364   4.942   2.802  0.5963 -0.1336 -0.5855
 1412SOL     OW 4555   3.221   3.202   0.579 -0.9585  0.5115  0.5030
 1412SOL    HW1 4556   3.140   3.257   0.560 -0.3929  0.8794 -0.9946
 1412SOL    HW2 4557   3.196   3.123   0.635 -2.0000  1.6178  1.6594
 1413SOL     OW 4558   2.164   1.354   4.452  0.1507  0.3853 -0.6179
 1413SOL    HW1 4559   2.133   1.296   4.376 -0.8763 -1.2390  0.9499
 1413SOL    HW2 4560   2.260   1.334   4.472  0.5531  1.1351 -1.7354
 1414SOL     OW 4561   2.087   2.311   1.569 -0.4697 -0.0678 -0.1837
 1414SOL    HW1 4562   2.087   2.411   1.564  1.3393  0.0562  1.2248
 1414SOL    HW2 4563   2.106   2.273   1.478  0.7325  0.9395 -0.3747
 1415SOL     OW 4564   3.654   4.353   3.561  0.2111 -0.1203  0.0992
 1415SOL    HW1 4565   3.556   4.352   3.546  0.1390 -2.2549  0.4513
 1415SOL    HW2 4566   3.690   4.444   3.540 -1.6084  0.3177 -1.3400
 1416SOL     OW 4567   0.813   2.905   1.996 -0.2275  0.8561 -0.3302
 1416SOL    HW1 4568   0.912   2.915   1.996 -0.1557  0.5077  1.5519
 1416SOL    HW2 4569   0.770   2.995   1.994  0.0955  1.0035 -1.4116
 1417SOL     OW 4570   5.382   0.964   3.122  0.6058  0.1740  0.5899
 1417SOL    HW1 4571   5.323   0.886   3.104 -0.0395  0.8390 -0.2434
 1417SOL    HW2 4572   5.452   0.971   3.051  1.3673 -0.2911  1.2760
 1418SOL     OW 4573   4.474   4.337   2.529  0.1114 -0.0742  0.2020
 1418SOL    HW1 4574   4.542   4.361   2.599  0.1632  1.6750 -0.4043
 1418SOL    HW2 4575   4.478   4.239   2.510  3.0917  0.1027 -0.4540
 1419SOL     OW 4576   4.600   1.444   5.234 -0.6771 -0.0625  0.4456
 1419SOL    HW1 4577   4.631   1.536   5.210 -0.0123 -0.4614 -0.2879
 1419SOL    HW2 4578   4.650   1.412   5.315 -1.6208  0.5865  1.3117
 1420SOL     OW 4579   3.484   3.462   3.341 -0.2304  0.3789  0.2506
 1420SOL    HW1 4580   3.470   3.543   3.283  1.7358  1.5963  1.3417
 1420SOL    HW2 4581   3.398   3.436   3.384 -1.4310  0.3250 -2.0192
 1421SOL     OW 4582   5.289   2.789   4.665 -0.1270  0.5507  0.1351
 1421SOL    HW1 4583   5.374   2.744   4.636 -1.1651 -1.0093 -0.6135
 1421SOL    HW2 4584   5.257   2.748   4.750  0.4160  1.8950  1.0179
 1422SOL     OW 4585   2.745   3.609   5.070  0.1879  0.0243 -0.7190
 1422SOL    HW1 4586   2.692   3.677   5.120 -1.6068 -0.1847 -2.2322
 1422SOL    HW2 4587   2.736   3.625   4.972 -1.1164 -2.8999 -1.1910
 1423SOL     OW 4588   4.921   2.912   1.693  0.5936 -0.1622  0.8027
 1423SOL    HW1 4589   5.020   2.928   1.693  1.0139 -2.4420  1.4725
 1423SOL    HW2 4590   4.895   2.863   1.777 -0.8184 -1.1699 -0.1815
 1424SOL     OW 4591   3.461   3.069   0.999  0.2293  0.1201 -0.1447
 1424SOL    HW1 4592   3.374   3.038   0.962 -0.2542 -0.3623  1.3214
 1424SOL    HW2 4593   3.453   3.164   1.030 -0.2123 -0.3501  1.2504
 1425SOL     OW 4594   4.303   3.987   4.310  0.0237  0.2105 -0.3450
 1425SOL    HW1 4595   4.333   3.895   4.285  0.3330  0.0088  0.7345
 1425SOL    HW2 4596   4.378   4.036   4.354 -1.1716 -0.3948  2.6389
 1426SOL     OW 4597   4.994   0.692   0.042  0.5186 -0.3971 -0.2016
 1426SOL    HW1 4598   5.086   0.674   0.078  0.6631 -0.4787 -0.6020
 1426SOL    HW2 4599   4.993   0.781  -0.002  0.1135  0.0768  0.7463
 1427SOL     OW 4600   4.340   1.717   1.330 -0.2888  0.6494  0.0202
 1427SOL    HW1 4601   4.410   1.657   1.291  0.9014  1.4929  0.8056
 1427SOL    HW2 4602   4.313   1.682   1.420 -1.5534 -0.1572 -0.6331
 1428SOL     OW 4603   2.585   3.441   3.277  0.1389  0.1350  0.6956
 1428SOL    HW1 4604   2.509   3.500   3.250 -0.5824  0.5738  3.3662
 1428SOL    HW2 4605   2.560   3.346   3.261  0.1753  0.3676 -0.9823
 1429SOL     OW 4606   4.408   0.764   4.012 -0.4498 -0.1240 -0.3010
 1429SOL    HW1 4607   4.426   0.752   4.110 -0.7680  0.8669 -0.1131
 1429SOL    HW2 4608   4.463   0.841   3.978 -0.9752  0.0711 -0.7098
 1430SOL     OW 4609   4.947   1.292   5.203  0.2844 -1.0245 -0.7768
 1430SOL    HW1 4610   4.936   1.359   5.277  0.8281 -2.6685  0.8568
 1430SOL    HW2 4611   4.915   1.332   5.117 -1.6312  0.4796  0.5621
 1431SOL     OW 4612   3.456   1.206   2.986  0.0869  0.1162 -0.0219
 1431SOL    HW1 4613   3.531   1.146   2.960 -0.5578 -0.7195 -0.0216
 1431SOL    HW2 4614   3.399   1.225   2.906  1.2040  2.1386 -0.4172
 1432SOL     OW 4615   1.121   2.396   0.180 -0.0780  0.1265  0.1332
 1432SOL    HW1 4616   1.064   2.423   0.257 -1.0986 -0.5791 -0.3432
 1432SOL    HW2 4617   1.092   2.445   0.098 -0.7736 -1.0627 -0.3552
 1433SOL     OW 4618   1.421   3.933   1.452  0.4611 -0.2217  0.4516
 1433SOL    HW1 4619   1.360   3.962   1.379  1.8341 -1.8458 -1.4590
 1433SOL    HW2 4620   1.445   4.011   1.509 -2.0081  0.7579  0.2729
 1434SOL     OW 4621   1.942   2.788   5.276 -0.3506  0.0832 -0.4413
 1434SOL    HW1 4622   2.019   2.848   5.295 -1.8057  1.9670 -0.2574
 1434SOL    HW2 4623   1.858   2.841   5.269 -1.7092 -1.9181 -0.3931
 1435SOL     OW 4624   2.075   1.937   0.135  0.3976 -0.2254 -0.6884
 1435SOL    HW1 4625   2.002   2.004   0.126  0.8086  0.4773  0.8585
 1435SOL    HW2 4626   2.154   1.966   0.081  0.8631  0.9992  0.6034
 1436SOL     OW 4627   3.812   3.309   1.551  0.4812 -0.0336 -0.2653
 1436SOL    HW1 4628   3.717   3.297   1.520  0.4893  0.0176 -0.3103
 1436SOL    HW2 4629   3.831   3.244   1.624  0.5906 -0.4454 -0.6533
 1437SOL     OW 4630   5.118   0.903   2.409 -0.2502  0.4609 -0.2529
 1437SOL    HW1 4631   5.107   0.836   2.335 -0.1240  1.4375 -1.1863
 1437SOL    HW2 4632   5.189   0.969   2.384 -0.1413  0.7600  0.7915
 1438SOL     OW 4633   3.599   0.444   4.396 -0.2920  0.0234 -0.0523
 1438SOL    HW1 4634   3.690   0.416   4.367 -0.1134 -0.2035  0.6969
 1438SOL    HW2 4635   3.534   0.430   4.321  0.1273 -0.6354 -0.3023
 1439SOL     OW 4636   1.733   1.300   4.045 -0.1479  0.5219  0.0199
 1439SOL    HW1 4637   1.808   1.353   4.084  1.5413 -0.7988 -1.2837
 1439SOL    HW2 4638   1.717   1.219   4.101 -0.9230  1.0201  0.5355
 1440SOL     OW 4639   1.959   3.802   0.563 -0.0538  0.4890  0.2202
 1440SOL    HW1 4640   1.872   3.830   0.522 -0.3163  1.5401  1.4542
 1440SOL    HW2 4641   1.975   3.853   0.647  0.4927 -1.5995  1.4525
 1441SOL     OW 4642   1.994   5.158   5.390 -0.9873  0.0325 -0.1772
 1441SOL    HW1 4643   1.973   5.167   5.487 -0.9415  0.8610 -0.2349
 1441SOL    HW2 4644   2.043   5.239   5.359 -1.6464  0.1110 -1.0648
 1442SOL     OW 4645   0.642   2.703   4.640 -0.1132  0.3919 -0.1896
 1442SOL    HW1 4646   0.644   2.726   4.543 -1.8894  1.6939  0.0327
 1442SOL    HW2 4647   0.549   2.717   4.676  0.2608 -1.0252  1.4833
 1443SOL     OW 4648   5.030   1.170   3.425  0.2248 -1.0646 -0.0240
 1443SOL    HW1 4649   5.126   1.196   3.420  0.0873 -0.6765 -0.9686
 1443SOL    HW2 4650   4.977   1.245   3.466 -0.1708  0.3020 -2.7466
 1444SOL     OW 4651   0.471   2.688   5.267 -0.2855 -0.5315 -0.3354
 1444SOL    HW1 4652   0.439   2.670   5.360  1.2576  1.7871  0.7554
 1444SOL    HW2 4653   0.552   2.632   5.247  0.2828  0.0406  0.3219
 1445SOL     OW 4654   2.715   2.800   5.155 -0.2242  0.1384  0.1636
 1445SOL    HW1 4655   2.681   2.706   5.149 -0.9718  0.2991  1.3894
 1445SOL    HW2 4656   2.660   2.850   5.222  1.0524  1.0574  0.5544
 1446SOL     OW 4657   3.641   5.459   1.106 -0.7512  0.4206 -0.2327
 1446SOL    HW1 4658   3.614   5.495   1.196  1.0489  1.6399 -0.1249
 1446SOL    HW2 4659   3.651   5.535   1.042  1.3525 -0.0205 -0.5015
 1447SOL     OW 4660   3.716   0.568   3.001  0.7087 -0.1535  0.1906
 1447SOL    HW1 4661   3.656   0.497   3.037  0.3313  0.6323  1.1792
 1447SOL    HW2 4662   3.722   0.643   3.067  0.9241  0.8292 -0.8939
 1448SOL     OW 4663   1.929   5.564   3.932  0.0389 -0.0410 -0.8031
 1448SOL    HW1 4664   1.868   5.574   3.854  0.8603 -0.2875 -1.4914
 1448SOL    HW2 4665   2.000   5.496   3.911  0.4303  0.0792  0.0571
 1449SOL     OW 4666   1.739   1.086   0.380 -0.5698 -0.2973 -0.3152
 1449SOL    HW1 4667   1.777   1.148   0.312  1.2141  1.5196  2.1756
 1449SOL    HW2 4668   1.788   0.998   0.376 -0.0757 -0.0012 -0.9669
 1450SOL     OW 4669   3.452   2.113   4.089  0.2987  0.4603  0.0153
 1450SOL    HW1 4670   3.354   2.096   4.080  0.4027 -0.7860  1.0154
 1450SOL    HW2 4671   3.477   2.113   4.186  1.4058  0.0025 -0.2569
 1451SOL     OW 4672   2.393   3.069   2.207  0.0708  0.2212 -0.1116
 1451SOL    HW1 4673   2.346   3.123   2.137 -0.0037  2.0332  1.2711
 1451SOL    HW2 4674   2.328   3.038   2.276  0.3104 -0.6713 -0.2653
 1452SOL     OW 4675   4.188   5.113   2.459 -0.2549  0.1176  0.2778
 1452SOL    HW1 4676   4.285   5.091   2.467  0.0950  1.3135 -0.3923
 1452SOL    HW2 4677   4.134   5.047   2.511  0.8867 -0.7808  0.3561
 1453SOL     OW 4678   3.538   3.679   1.647  0.3760 -0.6899 -0.1024
 1453SOL    HW1 4679   3.518   3.583   1.667  0.1402 -0.6211 -0.0049
 1453SOL    HW2 4680   3.504   3.736   1.721 -2.0280 -0.2725 -1.4394
 1454SOL     OW 4681   4.594   3.641   3.904  0.5628  0.2205 -0.5615
 1454SOL    HW1 4682   4.571   3.566   3.966 -0.0486  0.4250 -0.5447
 1454SOL    HW2 4683   4.565   3.617   3.811 -0.7443  0.9381 -0.3578
 1455SOL     OW 4684   3.021   0.721   3.688  0.6342 -0.3648 -0.1534
 1455SOL    HW1 4685   2.942   0.696   3.633  0.7950 -0.0751 -0.5258
 1455SOL    HW2 4686   3.055   0.811   3.658  0.2127  0.1889  0.9843
 1456SOL     OW 4687   0.236   2.497   1.355 -0.4407  0.5025 -0.4974
 1456SOL    HW1 4688   0.175   2.577   1.352  0.6454  1.4742  1.3828
 1456SOL    HW2 4689   0.331   2.528   1.353  0.0051 -0.7079  0.6247
 1457SOL     OW 4690   0.985   1.990   3.889  0.2096 -0.3097  0.2524
 1457SOL    HW1 4691   1.039   2.028   3.813 -2.4906  0.8260 -1.2796
 1457SOL    HW2 4692   0.903   2.046   3.902 -3.5835 -4.7746 -1.4001
 1458SOL     OW 4693   1.343   3.385   2.566 -0.6100  0.1469  0.1361
 1458SOL    HW1 4694   1.290   3.340   2.494 -2.8900  0.4797  1.4980
 1458SOL    HW2 4695   1.380   3.471   2.532 -1.1144  0.0071 -0.8037
 1459SOL     OW 4696   1.909   4.233   2.173  0.2561  0.0217 -0.9259
 1459SOL    HW1 4697   1.888   4.142   2.208  1.1124 -0.4541 -1.6094
 1459SOL    HW2 4698   1.906   4.299   2.248 -0.0806 -0.6078 -0.3705
 1460SOL     OW 4699   3.212   3.162   3.167 -0.3332 -0.1600 -0.4560
 1460SOL    HW1 4700   3.201   3.062   3.167  0.4610 -0.2593 -0.2123
 1460SOL    HW2 4701   3.212   3.196   3.074  1.3154 -0.6401 -0.6687
 1461SOL     OW 4702   1.137   3.632   4.757 -0.2438 -0.2655  0.0441
 1461SOL    HW1 4703   1.200   3.656   4.683  0.2783 -1.3931  0.1015
 1461SOL    HW2 4704   1.178   3.656   4.845 -0.5584  0.4085  0.0144
 1462SOL     OW 4705   4.188   2.424   3.166  0.4651 -0.1878 -0.4337
 1462SOL    HW1 4706   4.209   2.344   3.110  0.2973  0.0049 -0.7751
 1462SOL    HW2 4707   4.272   2.456   3.210  0.4661 -0.7530 -0.0251
 1463SOL     OW 4708   0.668   4.572   1.691  0.3565 -0.3643  0.2057
 1463SOL    HW1 4709   0.619   4.600   1.774  0.0059 -0.4146  0.0171
 1463SOL    HW2 4710   0.694   4.476   1.698 -0.9081 -0.7736 -0.3213
 1464SOL     OW 4711   4.013   4.620   2.462  0.0804 -0.3752 -0.3087
 1464SOL    HW1 4712   3.999   4.522   2.445  1.0513 -0.6491  0.3729
 1464SOL    HW2 4713   4.098   4.633   2.515  0.6506  0.9285 -1.4836
 1465SOL     OW 4714   5.160   3.396   5.062 -0.3237 -0.1029  0.4359
 1465SOL    HW1 4715   5.171   3.376   4.965 -0.4538  0.5873  0.2720
 1465SOL    HW2 4716   5.192   3.489   5.081 -1.3785  0.1943  0.8374
 1466SOL     OW 4717   2.760   3.137   5.213 -0.2557 -0.8917 -0.0039
 1466SOL    HW1 4718   2.781   3.069   5.284 -0.0200 -0.2678  0.5405
 1466SOL    HW2 4719   2.778   3.099   5.123 -0.3553 -1.6294  0.2828
 1467SOL     OW 4720   0.244   1.909   2.189  0.1500  0.3394 -0.6081
 1467SOL    HW1 4721   0.319   1.850   2.218 -0.4930 -0.1192  0.1980
 1467SOL    HW2 4722   0.164   1.891   2.247 -0.6700  0.6112 -1.6238
 1468SOL     OW 4723   4.297   4.201   2.876  0.3292 -0.4223 -0.0493
 1468SOL    HW1 4724   4.228   4.192   2.947 -0.3740 -0.0726 -0.6650
 1468SOL    HW2 4725   4.381   4.155   2.904  0.4619  0.6605  1.4916
 1469SOL     OW 4726   3.331   4.854   1.385 -0.0451  0.0097  0.1174
 1469SOL    HW1 4727   3.310   4.892   1.475  1.3650 -1.0745  0.9647
 1469SOL    HW2 4728   3.379   4.766   1.397 -2.2410 -1.5599 -1.7110
 1470SOL     OW 4729   3.764   4.522   4.710 -0.2108  0.5172  0.5279
 1470SOL    HW1 4730   3.802   4.553   4.623 -1.0611 -0.0832 -0.0825
 1470SOL    HW2 4731   3.677   4.568   4.728 -0.3162  0.2318  0.7763
 1471SOL     OW 4732   2.953   5.518   4.759 -0.5440 -0.0775 -0.0201
 1471SOL    HW1 4733   2.948   5.418   4.749 -0.1204 -0.1787  0.6866
 1471SOL    HW2 4734   2.993   5.557   4.676  0.9171 -0.6701  0.3671
 1472SOL     OW 4735   3.344   1.626   0.626 -0.0603  0.2712  0.1900
 1472SOL    HW1 4736   3.303   1.677   0.551 -0.9354 -0.1805  0.3562
 1472SOL    HW2 4737   3.440   1.605   0.603 -0.3849 -0.0604 -0.9041
 1473SOL     OW 4738   4.207   1.587   1.515 -0.5839  0.3117 -0.0803
 1473SOL    HW1 4739   4.171   1.656   1.578 -1.4140 -0.9665  0.8892
 1473SOL    HW2 4740   4.143   1.511   1.509  0.7677 -0.8459 -0.3327
 1474SOL     OW 4741   5.316   2.569   5.134  0.4481 -0.4335 -0.1506
 1474SOL    HW1 4742   5.413   2.548   5.148  1.0144  1.5902 -0.5709
 1474SOL    HW2 4743   5.263   2.485   5.129  2.0493 -1.5568  1.0027
 1475SOL     OW 4744   5.215   3.859   1.256  0.3841 -0.8974  0.2677
 1475SOL    HW1 4745   5.119   3.888   1.257  0.5587 -0.1862 -1.0279
 1475SOL    HW2 4746   5.228   3.785   1.322 -0.7359 -0.0435  1.4977
 1476SOL     OW 4747   1.792   0.265   5.541 -0.4847 -0.4389 -0.5619
 1476SOL    HW1 4748   1.863   0.331   5.566 -1.5157  0.9688 -1.2272
 1476SOL    HW2 4749   1.829   0.197   5.478  0.8850 -1.1914  0.9903
 1477SOL     OW 4750   0.736   3.806   1.669  0.0250 -0.4413  0.2940
 1477SOL    HW1 4751   0.703   3.719   1.706  1.4138 -0.0871  2.5538
 1477SOL    HW2 4752   0.776   3.861   1.742  0.4911  1.5237 -1.3217
 1478SOL     OW 4753   4.870   5.004   0.043  0.0779  0.3644 -0.0114
 1478SOL    HW1 4754   4.860   5.078   0.110 -0.7274 -0.4862  0.8455
 1478SOL    HW2 4755   4.814   4.926   0.072  1.2730 -0.7574 -0.6394
 1479SOL     OW 4756   2.652   5.066   1.441 -0.1491 -0.3531  0.1512
 1479SOL    HW1 4757   2.617   5.159   1.446 -1.7134 -0.9702  2.1244
 1479SOL    HW2 4758   2.586   5.007   1.394  1.4863 -0.2704 -2.4485
 1480SOL     OW 4759   4.839   0.022   3.750 -0.6662 -0.6623 -0.3938
 1480SOL    HW1 4760   4.840   0.099   3.686  1.4037 -0.5130 -0.2395
 1480SOL    HW2 4761   4.871  -0.061   3.704  0.8008 -0.5645  0.4098
 1481SOL     OW 4762   0.431   4.305   1.794 -0.1907 -0.3959 -0.4237
 1481SOL    HW1 4763   0.416   4.361   1.712  1.8996 -0.1049 -0.6552
 1481SOL    HW2 4764   0.415   4.209   1.772 -0.7625 -0.2069 -0.8584
 1482SOL     OW 4765   4.570   0.002   4.368 -0.1978  0.0132  0.1891
 1482SOL    HW1 4766   4.592   0.060   4.446 -0.7913 -0.9703  1.1044
 1482SOL    HW2 4767   4.656  -0.029   4.325  0.1722 -0.4662  1.2331
 1483SOL     OW 4768   3.573   3.196   2.165  0.4691  0.1370 -0.3487
 1483SOL    HW1 4769   3.630   3.258   2.220 -0.3201 -0.2065  0.8979
 1483SOL    HW2 4770   3.591   3.212   2.068 -0.7378  3.3507 -0.1780
 1484SOL     OW 4771   5.402   3.856   4.161  0.9549  0.0254  0.3478
 1484SOL    HW1 4772   5.413   3.814   4.070 -0.3184  0.1382  0.1214
 1484SOL    HW2 4773   5.480   3.831   4.218  0.4117 -2.4663  0.1404
 1485SOL     OW 4774   1.386   5.235   1.689  0.3599 -0.3949 -0.5422
 1485SOL    HW1 4775   1.309   5.257   1.749 -0.4942 -0.6366 -1.5250
 1485SOL    HW2 4776   1.392   5.136   1.677 -0.2548 -0.2985 -1.8224
 1486SOL     OW 4777   2.912   5.551   1.022 -0.1971 -0.0364 -0.6536
 1486SOL    HW1 4778   2.908   5.451   1.028 -1.0707 -0.0391 -1.1183
 1486SOL    HW2 4779   2.829   5.590   1.062  1.0533  0.6213  1.4435
 1487SOL     OW 4780   4.765   4.902   2.079  0.3382 -0.2343 -0.5544
 1487SOL    HW1 4781   4.691   4.835   2.085  0.0525  0.1855  0.7587
 1487SOL    HW2 4782   4.843   4.870   2.133  0.3053  0.3560 -0.1504
 1488SOL     OW 4783   4.085   4.552   1.054 -0.3662  0.1469 -0.2601
 1488SOL    HW1 4784   4.053   4.598   1.137 -0.9881 -0.7056 -0.0155
 1488SOL    HW2 4785   4.006   4.526   0.998 -0.0928 -1.2431 -0.0505
 1489SOL     OW 4786   2.727   1.680   2.478 -0.0790 -0.1769  0.3800
 1489SOL    HW1 4787   2.755   1.776   2.483 -0.4916  0.0017 -0.4019
 1489SOL    HW2 4788   2.806   1.623   2.457  0.0493  0.0804  0.1583
 1490SOL     OW 4789   0.126   4.100   0.144 -0.1045  0.0915  0.1537
 1490SOL    HW1 4790   0.187   4.176   0.164  0.3677 -0.4269  0.7448
 1490SOL    HW2 4791   0.098   4.104   0.049  0.8472  0.3522 -0.1272
 1491SOL     OW 4792   0.569   1.183   4.296 -0.2114 -0.0807  0.3375
 1491SOL    HW1 4793   0.571   1.147   4.389 -0.6092  0.9010  0.7467
 1491SOL    HW2 4794   0.493   1.248   4.287 -0.2095 -0.1989 -0.6885
 1492SOL     OW 4795   5.398   3.834   3.628  0.1930  0.6929  0.1962
 1492SOL    HW1 4796   5.306   3.818   3.592  0.1553  2.4761 -0.5833
 1492SOL    HW2 4797   5.449   3.748   3.625 -1.7013 -0.5814  1.5504
 1493SOL     OW 4798   2.257   2.287   2.137 -0.1803  0.0003 -0.1621
 1493SOL    HW1 4799   2.288   2.382   2.131 -0.6001  0.1976  0.7719
 1493SOL    HW2 4800   2.226   2.266   2.230 -1.6840 -0.5536 -0.7421
 1494SOL     OW 4801   2.905   4.431   0.650 -0.4085  0.5852  0.1735
 1494SOL    HW1 4802   2.865   4.424   0.741 -1.4195  1.7534 -0.1442
 1494SOL    HW2 4803   2.908   4.527   0.623  1.4089  0.4138 -0.3844
 1495SOL     OW 4804   3.045   0.296   5.347 -0.1919  0.1567 -0.1957
 1495SOL    HW1 4805   3.081   0.325   5.259  0.1963 -0.1502 -0.1391
 1495SOL    HW2 4806   3.055   0.371   5.413 -1.7135  0.8811 -0.7357
 1496SOL     OW 4807   4.555   2.078   3.913 -0.2645  0.1194  0.0080
 1496SOL    HW1 4808   4.506   1.992   3.903 -0.6203  0.4005 -0.7368
 1496SOL    HW2 4809   4.498   2.144   3.963  0.4132 -0.3904  1.5142
 1497SOL     OW 4810   2.883   4.549   4.945  0.0924 -0.2074  0.0474
 1497SOL    HW1 4811   2.974   4.538   4.986  0.7581  0.1828 -1.2871
 1497SOL    HW2 4812   2.818   4.576   5.016  1.1954  0.3710  0.8675
 1498SOL     OW 4813   0.432   4.073   3.891 -0.3299  0.4223  0.4797
 1498SOL    HW1 4814   0.343   4.110   3.915 -0.5504 -0.1222  0.5199
 1498SOL    HW2 4815   0.430   3.973   3.899  0.6785  0.4845  1.7787
 1499SOL     OW 4816   3.812   0.963   1.492 -0.1636 -0.0080 -0.2773
 1499SOL    HW1 4817   3.730   0.999   1.538  0.3994 -1.2716  1.8934
 1499SOL    HW2 4818   3.893   0.986   1.547  1.0215  1.3305 -2.4434
 1500SOL     OW 4819   5.071   0.789   0.936  0.0172  0.1817 -0.0764
 1500SOL    HW1 4820   5.117   0.841   1.008 -0.1349  2.4530 -1.5221
 1500SOL    HW2 4821   5.096   0.826   0.847 -1.0015 -1.5622 -1.1621
 1501SOL     OW 4822   4.677   1.701   5.211  0.2659 -0.3399 -0.4031
 1501SOL    HW1 4823   4.726   1.738   5.289  0.5679 -0.0124 -0.7417
 1501SOL    HW2 4824   4.730   1.719   5.127 -1.2314  1.6108 -1.0124
 1502SOL     OW 4825   3.324   0.473   0.730 -0.1835 -0.1904  0.8508
 1502SOL    HW1 4826   3.361   0.388   0.767  1.2726 -1.2930 -2.6703
 1502SOL    HW2 4827   3.399   0.535   0.707 -0.9218  0.1703 -0.6894
 1503SOL     OW 4828   0.325   4.922   0.738 -0.3602  0.4281 -0.7057
 1503SOL    HW1 4829   0.266   4.916   0.819 -0.2071 -1.5563 -0.6911
 1503SOL    HW2 4830   0.332   5.018   0.709  1.5461  1.6428  3.0763
 1504SOL     OW 4831   4.339   0.809   4.496  0.0146 -0.2172 -0.3964
 1504SOL    HW1 4832   4.340   0.726   4.441 -2.2259 -0.0424 -0.7810
 1504SOL    HW2 4833   4.335   0.785   4.593  0.6156 -0.5333 -0.4465
 1505SOL     OW 4834   4.381   1.479   3.212  0.2516  0.9088 -0.6597
 1505SOL    HW1 4835   4.409   1.409   3.146  0.2234 -1.1271  1.3836
 1505SOL    HW2 4836   4.281   1.477   3.222  0.3673  0.2258  0.4524
 1506SOL     OW 4837   4.528   0.511   2.994  0.2067  0.5885 -0.3391
 1506SOL    HW1 4838   4.458   0.551   2.934  0.9769  2.3242 -0.1332
 1506SOL    HW2 4839   4.587   0.449   2.941  1.0414  2.3000 -1.4765
 1507SOL     OW 4840   3.893   3.335   3.815  0.2987 -0.3675  0.1197
 1507SOL    HW1 4841   3.832   3.371   3.745  0.4527  2.5959  1.3678
 1507SOL    HW2 4842   3.979   3.386   3.814  0.2404 -0.0901  2.5197
 1508SOL     OW 4843   1.826   3.317   3.933 -0.1025  0.2121 -0.4057
 1508SOL    HW1 4844   1.808   3.222   3.955  0.3077  0.1716 -0.2368
 1508SOL    HW2 4845   1.913   3.345   3.974  0.1176  0.4613 -1.0341
 1509SOL     OW 4846   2.817   5.289   2.889  0.0802 -0.0138 -0.0516
 1509SOL    HW1 4847   2.722   5.305   2.863  0.3512 -1.7097 -2.4158
 1509SOL    HW2 4848   2.825   5.294   2.988 -2.6293 -0.5092  0.2871
 1510SOL     OW 4849   2.102   4.709   1.817 -0.0971 -0.7603  0.5794
 1510SOL    HW1 4850   2.171   4.773   1.853  1.9500 -0.8073 -2.8620
 1510SOL    HW2 4851   2.046   4.756   1.749 -0.2061 -2.0213 -0.2078
 1511SOL     OW 4852   4.375   4.284   4.184 -0.0099 -0.2086  0.0034
 1511SOL    HW1 4853   4.414   4.324   4.267  1.9584 -1.0387 -0.4661
 1511SOL    HW2 4854   4.285   4.245   4.204 -0.5877  1.6181  1.1855
 1512SOL     OW 4855   4.097   0.601   2.685 -0.0697 -0.4180 -0.0402
 1512SOL    HW1 4856   4.065   0.694   2.702 -0.1414 -0.0736 -1.9186
 1512SOL    HW2 4857   4.022   0.544   2.654  0.4329 -0.4536 -1.2558
 1513SOL     OW 4858   0.832   3.048   2.986 -0.3928  0.3126 -0.2688
 1513SOL    HW1 4859   0.827   3.141   2.949  0.9008  0.8816  0.9023
 1513SOL    HW2 4860   0.916   3.005   2.954  0.1922  0.4188  1.0778
 1514SOL     OW 4861   4.571   2.603   5.278  0.0280  0.5513  0.2768
 1514SOL    HW1 4862   4.494   2.623   5.340  0.9345  0.5367  1.4365
 1514SOL    HW2 4863   4.574   2.505   5.259 -0.2734  0.5611  0.1607
 1515SOL     OW 4864   0.441   0.505   3.572 -0.0443 -0.2159  0.0876
 1515SOL    HW1 4865   0.422   0.588   3.521  3.5901  0.2743 -0.7966
 1515SOL    HW2 4866   0.498   0.444   3.516  0.8466 -1.4032  2.1581
 1516SOL     OW 4867   0.946   4.966   2.738 -0.1912 -0.3099  0.7046
 1516SOL    HW1 4868   0.918   5.029   2.665  0.8464  0.2747  0.7933
 1516SOL    HW2 4869   0.884   4.977   2.816 -1.4952 -1.1509 -0.1661
 1517SOL     OW 4870   3.587   4.858   0.727  0.3501 -0.1574  0.4681
 1517SOL    HW1 4871   3.667   4.810   0.762  0.6918 -0.5866 -0.8153
 1517SOL    HW2 4872   3.606   4.888   0.633  0.1085  2.4331  1.1892
 1518SOL     OW 4873   1.978   5.285   3.106 -0.4943 -0.0221 -0.1295
 1518SOL    HW1 4874   2.065   5.316   3.066 -0.1028  0.0101  0.7223
 1518SOL    HW2 4875   1.902   5.316   3.048  0.0747 -0.4188 -1.1122
 1519SOL     OW 4876   0.498   4.465   3.257  0.1708 -0.1938  0.4690
 1519SOL    HW1 4877   0.466   4.484   3.350  0.0311  1.3588  0.1438
 1519SOL    HW2 4878   0.597   4.455   3.257  0.4059  1.6531  0.5762
 1520SOL     OW 4879   4.984   2.432   0.366  0.0410  0.2383 -0.4506
 1520SOL    HW1 4880   4.895   2.416   0.322  0.0032  0.5152 -0.4744
 1520SOL    HW2 4881   5.049   2.467   0.299  0.5206 -1.0944 -0.7181
 1521SOL     OW 4882   0.707   1.958   5.398  0.2029  0.2030  0.2602
 1521SOL    HW1 4883   0.738   1.907   5.479 -2.2308  0.0407  1.1698
 1521SOL    HW2 4884   0.611   1.983   5.409 -0.1664  0.3484 -2.5383
 1522SOL     OW 4885   5.203   4.112   2.914  0.0120  0.2127 -0.5327
 1522SOL    HW1 4886   5.268   4.186   2.931  1.7815 -1.6748  1.6001
 1522SOL    HW2 4887   5.134   4.142   2.849  0.8713  3.5695 -0.0608
 1523SOL     OW 4888   5.312   1.325   4.472 -0.0365 -0.6284  0.2374
 1523SOL    HW1 4889   5.330   1.381   4.391 -0.4707  0.0225  0.5835
 1523SOL    HW2 4890   5.245   1.371   4.531  3.2688  1.0441  3.0615
 1524SOL     OW 4891   2.904   5.227   3.929  0.2057  0.0770  0.5147
 1524SOL    HW1 4892   2.822   5.227   3.872  1.9453 -1.9581 -2.2302
 1524SOL    HW2 4893   2.890   5.166   4.007 -1.0478  0.1765  0.3925
 1525SOL     OW 4894   2.663   2.719   0.124  0.0874 -0.7215  0.2515
 1525SOL    HW1 4895   2.733   2.649   0.109 -0.9139 -1.9801  1.1720
 1525SOL    HW2 4896   2.696   2.807   0.091  1.1918 -1.7043 -1.4281
 1526SOL     OW 4897   5.508   0.871   5.167 -0.1345  0.0528 -0.1453
 1526SOL    HW1 4898   5.506   0.790   5.108 -2.1103  0.3192 -0.5194
 1526SOL    HW2 4899   5.470   0.949   5.118  1.5030  1.1680  0.3064
 1527SOL     OW 4900   1.886   0.110   3.212 -0.2335  0.0584 -0.2139
 1527SOL    HW1 4901   1.982   0.132   3.197  0.0929  0.1298  1.6582
 1527SOL    HW2 4902   1.845   0.181   3.270 -1.8894  0.9101 -2.2786
 1528SOL     OW 4903   3.986   0.111   2.090 -0.0969  0.5474 -0.2889
 1528SOL    HW1 4904   4.051   0.040   2.061  0.2814  1.2112 -1.1014
 1528SOL    HW2 4905   3.983   0.114   2.190  1.2864  0.6311 -0.2212
 1529SOL     OW 4906   5.463   2.348   0.950 -0.1967  0.0373 -0.2167
 1529SOL    HW1 4907   5.388   2.282   0.943  0.5811 -0.9724  0.6909
 1529SOL    HW2 4908   5.546   2.308   0.910  0.2069  0.6081  0.0393
 1530SOL     OW 4909   3.203   4.073   1.565  0.2352 -0.9900  0.6312
 1530SOL    HW1 4910   3.280   4.015   1.588  3.0230  1.9069 -0.6799
 1530SOL    HW2 4911   3.186   4.137   1.640  0.5282 -0.2292  0.0541
 1531SOL     OW 4912   2.336   4.318   2.140 -0.2036 -0.0509 -0.1002
 1531SOL    HW1 4913   2.390   4.236   2.121  0.6168  0.1578  1.2034
 1531SOL    HW2 4914   2.277   4.301   2.219 -1.4817 -0.0026 -1.0059
 1532SOL     OW 4915   5.214   2.346   3.216 -0.1110  0.4740  0.2361
 1532SOL    HW1 4916   5.213   2.424   3.154  1.7244  0.7884  0.5384
 1532SOL    HW2 4917   5.250   2.265   3.169 -2.2746 -0.3449 -0.1662
 1533SOL     OW 4918   3.193   0.438   4.653 -0.0416 -0.6021 -0.1567
 1533SOL    HW1 4919   3.137   0.394   4.723 -0.0861 -0.5030 -0.1299
 1533SOL    HW2 4920   3.278   0.471   4.694 -0.8849  1.1581  0.2703
 1534SOL     OW 4921   3.265   4.367   0.642 -0.1845  0.0972  0.1479
 1534SOL    HW1 4922   3.252   4.320   0.555  0.4776  0.0752  0.0575
 1534SOL    HW2 4923   3.325   4.312   0.701  0.8154  0.9362 -0.0596
 1535SOL     OW 4924   1.676   3.410   1.523 -0.3269 -0.2663  0.6291
 1535SOL    HW1 4925   1.680   3.338   1.592  0.7680 -0.7828  0.0500
 1535SOL    HW2 4926   1.761   3.411   1.471 -0.7806  0.7088 -0.1275
 1536SOL     OW 4927   0.763   3.626   0.741 -0.1487 -0.3525 -0.1734
 1536SOL    HW1 4928   0.739   3.536   0.777  0.3173 -0.4199 -0.0267
 1536SOL    HW2 4929   0.690   3.659   0.682 -1.4748  0.2597  1.7167
 1537SOL     OW 4930   4.129   4.691   3.845 -0.0101  0.0096  0.4234
 1537SOL    HW1 4931   4.123   4.623   3.918 -1.0618 -0.5328 -0.1288
 1537SOL    HW2 4932   4.213   4.744   3.855  0.3901 -0.7667  1.3911
 1538SOL     OW 4933   4.313   1.851   4.938  0.2815 -0.4167  0.6305
 1538SOL    HW1 4934   4.272   1.782   4.878  0.2459  0.9519 -1.0278
 1538SOL    HW2 4935   4.413   1.847   4.930  0.2948 -0.5539  0.8641
 1539SOL     OW 4936   5.448   4.293   4.607 -0.0087 -0.0053 -0.3414
 1539SOL    HW1 4937   5.530   4.237   4.598  0.8007  1.1398 -0.2804
 1539SOL    HW2 4938   5.472   4.390   4.602 -1.5225  0.3510 -1.8325
 1540SOL     OW 4939   1.028   0.576   3.876 -0.3352  0.2727  0.1254
 1540SOL    HW1 4940   1.044   0.483   3.843 -1.4005  0.5183 -1.1502
 1540SOL    HW2 4941   1.115   0.616   3.906  0.2123 -0.9416  0.2093
 1541SOL     OW 4942   1.740   2.715   2.265  0.2477 -0.0852 -0.4137
 1541SOL    HW1 4943   1.778   2.751   2.350 -0.7107 -2.0006  0.9054
 1541SOL    HW2 4944   1.770   2.772   2.189  1.1884  1.6754  1.1682
 1542SOL     OW 4945   3.454   1.981   2.014 -0.1536 -0.3955 -0.7022
 1542SOL    HW1 4946   3.529   2.029   1.969 -1.5446  2.8334  0.1362
 1542SOL    HW2 4947   3.478   1.961   2.109 -1.4124  4.0668  0.7975
 1543SOL     OW 4948   4.599   1.607   4.210 -0.1541 -0.3306 -0.4962
 1543SOL    HW1 4949   4.547   1.674   4.262  0.3073 -0.9960  0.8633
 1543SOL    HW2 4950   4.681   1.650   4.172  0.1670 -0.1278  0.4113
 1544SOL     OW 4951   2.609   1.929   3.845 -0.1281  0.5029 -0.4501
 1544SOL    HW1 4952   2.607   1.991   3.767 -0.9728  0.5943 -0.3667
 1544SOL    HW2 4953   2.564   1.843   3.821 -0.6108  0.6227 -0.0029
 1545SOL     OW 4954   0.005   1.673   2.164  0.0555  0.5017 -0.6701
 1545SOL    HW1 4955   0.029   1.693   2.260 -0.1096 -0.4592 -0.4152
 1545SOL    HW2 4956   0.086   1.638   2.117 -0.5747 -2.1392  0.0215
 1546SOL     OW 4957   1.737   1.143   0.673 -0.4652 -0.1316  0.5658
 1546SOL    HW1 4958   1.652   1.187   0.703 -0.1560  1.9433 -1.3243
 1546SOL    HW2 4959   1.725   1.108   0.580 -0.6474 -4.1806  1.9291
 1547SOL     OW 4960   2.529   0.958   0.064  0.0363 -0.6634 -0.2391
 1547SOL    HW1 4961   2.540   0.987   0.159 -0.1143 -1.1281 -0.0750
 1547SOL    HW2 4962   2.605   0.898   0.038  0.3339 -0.1471 -0.5661
 1548SOL     OW 4963   0.154   2.840   2.385  0.4134  0.0381  0.4918
 1548SOL    HW1 4964   0.093   2.901   2.336 -1.9675 -2.1681  0.4725
 1548SOL    HW2 4965   0.199   2.778   2.321  1.6658  0.7624  0.6411
 1549SOL     OW 4966   0.040   1.715   2.427  0.1267  0.0848  0.0273
 1549SOL    HW1 4967   0.085   1.800   2.455  1.9231 -0.9167  0.3025
 1549SOL    HW2 4968   0.030   1.655   2.506 -0.2258 -0.3706 -0.3586
 1550SOL     OW 4969   1.288   2.905   0.408 -0.6114 -0.1996  0.2659
 1550SOL    HW1 4970   1.213   2.970   0.393  1.3970  2.7112  1.8105
 1550SOL    HW2 4971   1.266   2.847   0.486 -2.1764 -1.0006 -0.7162
 1551SOL     OW 4972   1.935   3.768   4.246 -0.1097  0.0156 -0.2436
 1551SOL    HW1 4973   1.983   3.749   4.331 -0.2313  1.9234  0.2893
 1551SOL    HW2 4974   1.846   3.808   4.266  0.4537  1.8666 -1.2385
 1552SOL     OW 4975   4.686   3.207   0.026 -0.3857 -0.0180  0.3232
 1552SOL    HW1 4976   4.648   3.159  -0.053 -0.1428  0.2021  0.0709
 1552SOL    HW2 4977   4.628   3.285   0.048  0.0906  0.5159 -0.2709
 1553SOL     OW 4978   5.537   3.372   0.534 -0.1574 -0.0557 -0.5808
 1553SOL    HW1 4979   5.468   3.424   0.585 -0.6432 -1.2527  0.0212
 1553SOL    HW2 4980   5.512   3.275   0.534  2.1240 -0.7171  0.6729
 1554SOL     OW 4981   2.979   4.769   2.618 -0.6573  0.3012  0.3580
 1554SOL    HW1 4982   2.904   4.705   2.599  0.5695 -1.0963  0.0105
 1554SOL    HW2 4983   2.942   4.861   2.631 -2.3131 -0.1405 -0.8932
 1555SOL     OW 4984   3.522   4.365   1.290 -0.1265  0.1693 -0.4707
 1555SOL    HW1 4985   3.595   4.322   1.343  0.2255 -0.0428 -1.1194
 1555SOL    HW2 4986   3.434   4.332   1.322  0.1477 -1.3689 -1.2258
 1556SOL     OW 4987   3.161   5.233   3.834 -0.0821  0.0542 -0.6002
 1556SOL    HW1 4988   3.211   5.271   3.912 -0.2649 -1.3094  0.2097
 1556SOL    HW2 4989   3.063   5.242   3.851 -0.1215 -0.2860 -0.6499
 1557SOL     OW 4990   3.402   0.758   4.112 -0.0107  0.7129 -0.0986
 1557SOL    HW1 4991   3.345   0.686   4.071 -1.2833  1.9762 -0.6422
 1557SOL    HW2 4992   3.363   0.784   4.200  1.4319 -0.4093  0.9278
 1558SOL     OW 4993   3.624   3.957   2.929 -0.3423  0.2321 -0.9617
 1558SOL    HW1 4994   3.661   3.962   3.022 -0.1145 -2.5726 -0.8166
 1558SOL    HW2 4995   3.621   4.049   2.890 -2.1044  1.8137  2.4113
 1559SOL     OW 4996   1.292   3.454   1.903 -0.2941  0.1781  0.4945
 1559SOL    HW1 4997   1.266   3.548   1.924 -1.2692  0.1042 -0.3130
 1559SOL    HW2 4998   1.267   3.432   1.809 -0.2419 -0.9415  0.7198
 1560SOL     OW 4999   3.207   4.480   5.257 -0.6994 -0.5196  0.1349
 1560SOL    HW1 5000   3.265   4.398   5.260  1.2631  0.8335  1.7274
 1560SOL    HW2 5001   3.144   4.478   5.334 -0.6913 -0.5624  0.1408
 1561SOL     OW 5002   3.619   3.678   1.383 -0.1112 -0.2900  0.0690
 1561SOL    HW1 5003   3.622   3.758   1.323 -0.3957 -1.1291 -1.1139
 1561SOL    HW2 5004   3.574   3.702   1.468  1.5676  1.3211  0.5904
 1562SOL     OW 5005   3.851   1.231   0.650  0.5661 -0.5249 -0.3102
 1562SOL    HW1 5006   3.787   1.275   0.711 -0.4801 -1.2525 -0.8497
 1562SOL    HW2 5007   3.855   1.281   0.563  0.0572 -0.9599 -0.5927
 1563SOL     OW 5008   4.639   1.553   0.112 -0.0102 -0.5225  0.0463
 1563SOL    HW1 5009   4.663   1.477   0.052  1.3175  0.2474 -0.4456
 1563SOL    HW2 5010   4.565   1.606   0.072  0.5775 -0.2648 -0.7220
 1564SOL     OW 5011   2.576   3.582   0.501 -0.0516  0.5945 -0.0585
 1564SOL    HW1 5012   2.485   3.581   0.544  0.0017  1.7382  0.0973
 1564SOL    HW2 5013   2.569   3.622   0.410  0.1799  0.0034 -0.3413
 1565SOL     OW 5014   3.333   0.834   1.883  0.2173  0.6163  0.1649
 1565SOL    HW1 5015   3.428   0.865   1.895  0.8877 -1.2195 -0.1467
 1565SOL    HW2 5016   3.272   0.914   1.882  1.6053  1.7664  1.6250
 1566SOL     OW 5017   0.675   4.697   1.438  0.4377  0.4865 -0.2813
 1566SOL    HW1 5018   0.670   4.638   1.518  0.9711 -0.2804 -0.8053
 1566SOL    HW2 5019   0.770   4.706   1.409  0.2258  0.6113 -0.9424
 1567SOL     OW 5020   0.847   1.637   1.896 -0.3917  0.3999  0.2380
 1567SOL    HW1 5021   0.799   1.720   1.868 -0.8358  0.8430  2.1792
 1567SOL    HW2 5022   0.921   1.619   1.832 -1.0645  1.5692 -0.9343
 1568SOL     OW 5023   0.967   0.970   5.436 -0.5457  0.5053 -0.5273
 1568SOL    HW1 5024   0.883   0.932   5.475 -0.9308  0.8075 -1.0500
 1568SOL    HW2 5025   1.007   0.903   5.373  1.5418 -1.1380  2.2986
 1569SOL     OW 5026   1.752   0.530   3.065  0.5664  0.2048 -0.2274
 1569SOL    HW1 5027   1.803   0.527   2.979  0.6870 -0.6027 -0.1390
 1569SOL    HW2 5028   1.814   0.554   3.140  0.2377  2.0961 -0.5003
 1570SOL     OW 5029   3.911   1.199   5.503 -0.2691  0.2289 -0.4876
 1570SOL    HW1 5030   3.934   1.174   5.409 -0.9346  1.5795 -1.0455
 1570SOL    HW2 5031   3.849   1.277   5.502 -1.6729 -0.7948  1.0473
 1571SOL     OW 5032   2.450   0.779   4.911  0.2265 -0.1835 -0.3930
 1571SOL    HW1 5033   2.429   0.685   4.938  0.1482  0.1428  0.7174
 1571SOL    HW2 5034   2.372   0.838   4.931 -0.5029 -0.1710 -2.8659
 1572SOL     OW 5035   0.721   2.594   2.474  0.5052 -0.0446  0.2770
 1572SOL    HW1 5036   0.718   2.525   2.546  0.8586 -0.1142  0.2239
 1572SOL    HW2 5037   0.755   2.553   2.389  0.2620  0.0808  0.1160
 1573SOL     OW 5038   1.900   0.449   0.796 -0.2494  0.0704 -0.3267
 1573SOL    HW1 5039   1.996   0.473   0.783 -0.2635  0.2763 -0.0483
 1573SOL    HW2 5040   1.850   0.463   0.710 -0.0273 -0.0639 -0.4789
 1574SOL     OW 5041   1.110   4.105   4.369  0.0223  0.6121 -0.2520
 1574SOL    HW1 5042   1.045   4.055   4.313 -0.3628  1.3434 -0.4806
 1574SOL    HW2 5043   1.194   4.120   4.317 -1.0624  3.0604 -1.4750
 1575SOL     OW 5044   1.491   1.327   1.740 -0.2580 -0.3739 -0.3427
 1575SOL    HW1 5045   1.454   1.419   1.759  0.2126 -0.1157 -0.6683
 1575SOL    HW2 5046   1.464   1.299   1.648  1.4143  0.3581 -1.0920
 1576SOL     OW 5047   2.799   4.608   3.326  0.2290  0.3204  0.4854
 1576SOL    HW1 5048   2.795   4.509   3.308  0.2909 -0.0770  2.4144
 1576SOL    HW2 5049   2.756   4.657   3.251  0.0504 -1.1869 -0.4393
 1577SOL     OW 5050   0.872   3.959   4.933 -0.2589  0.0255 -0.2137
 1577SOL    HW1 5051   0.852   3.878   4.987 -3.2094  0.6388 -0.2573
 1577SOL    HW2 5052   0.931   3.934   4.856  0.5023 -1.6447  0.8490
 1578SOL     OW 5053   2.905   1.617   4.818 -0.0575 -0.1640 -0.0732
 1578SOL    HW1 5054   2.916   1.695   4.756  2.1818  0.8736  1.4845
 1578SOL    HW2 5055   2.932   1.533   4.770  0.2095  0.3997 -0.9403
 1579SOL     OW 5056   1.508   2.950   3.107 -0.2142  0.1284  0.4887
 1579SOL    HW1 5057   1.474   2.899   3.187 -0.8237 -0.1610  0.0516
 1579SOL    HW2 5058   1.431   2.987   3.056  0.1479 -0.2144 -0.3145
 1580SOL     OW 5059   4.664   3.997   4.811  0.3545  0.4638  0.0626
 1580SOL    HW1 5060   4.607   3.962   4.885 -1.1581 -0.3835 -1.4482
 1580SOL    HW2 5061   4.744   4.044   4.850 -0.1243 -0.3841  2.1952
 1581SOL     OW 5062   1.349   3.879   2.778  0.5060 -0.4403 -0.0490
 1581SOL    HW1 5063   1.319   3.784   2.783  1.1481 -0.6608 -0.2357
 1581SOL    HW2 5064   1.417   3.896   2.850 -1.9147  0.7665  2.1103
 1582SOL     OW 5065   1.774   4.561   3.888 -0.2272 -0.2269 -0.5611
 1582SOL    HW1 5066   1.771   4.622   3.967  1.5290 -1.1330  0.2670
 1582SOL    HW2 5067   1.692   4.504   3.887  0.4998 -1.4156  1.6779
 1583SOL     OW 5068   2.019   1.370   5.376  0.1466 -0.0648 -0.0682
 1583SOL    HW1 5069   2.031   1.300   5.446  0.7695 -0.1886 -0.2948
 1583SOL    HW2 5070   2.106   1.388   5.331 -0.1311  0.4247 -0.4263
 1584SOL     OW 5071   1.551   4.828   4.325  0.0444 -0.6235 -0.1447
 1584SOL    HW1 5072   1.592   4.875   4.404 -0.4836  0.2960 -0.4147
 1584SOL    HW2 5073   1.459   4.797   4.349  0.1045 -0.8579 -0.2151
 1585SOL     OW 5074   4.497   3.941   0.428  0.0004  0.2111 -0.2518
 1585SOL    HW1 5075   4.578   3.927   0.371 -0.4773  1.4521 -1.2984
 1585SOL    HW2 5076   4.524   3.949   0.524  0.9029 -1.2020 -0.3699
 1586SOL     OW 5077   0.247   2.762   5.093 -0.7634 -0.0399  0.8069
 1586SOL    HW1 5078   0.263   2.855   5.125 -0.0640  0.6219 -1.2819
 1586SOL    HW2 5079   0.328   2.706   5.113 -0.1268  0.4965 -0.1368
 1587SOL     OW 5080   2.201   1.887   5.431  0.5543  0.1842  0.7310
 1587SOL    HW1 5081   2.224   1.921   5.340 -0.5874  1.4077  0.8753
 1587SOL    HW2 5082   2.280   1.840   5.470  1.1015 -0.2417 -0.8251
 1588SOL     OW 5083   4.669   0.824   1.470 -0.7996 -0.2221 -0.3121
 1588SOL    HW1 5084   4.640   0.908   1.424 -0.0648 -0.0913 -0.5594
 1588SOL    HW2 5085   4.646   0.745   1.414  0.6330 -0.0274 -1.2267
 1589SOL     OW 5086   3.753   2.597  -0.019 -0.0704 -0.3485  0.3006
 1589SOL    HW1 5087   3.752   2.535   0.060  1.0061  0.2744  0.8110
 1589SOL    HW2 5088   3.825   2.665  -0.008 -0.8661  0.6655 -0.5276
 1590SOL     OW 5089   3.125   1.193   3.562  0.0701 -0.0846 -0.5612
 1590SOL    HW1 5090   3.059   1.249   3.613  1.4235  0.8300  0.2490
 1590SOL    HW2 5091   3.140   1.107   3.610  1.2978  0.7504  0.6442
 1591SOL     OW 5092   0.479   2.750   2.494 -0.3442 -0.4712 -0.5662
 1591SOL    HW1 5093   0.535   2.831   2.507 -2.1486  0.5507  1.4564
 1591SOL    HW2 5094   0.494   2.686   2.569 -0.6452 -0.9313 -0.8950
 1592SOL     OW 5095   4.044   5.254   2.862  0.1417 -0.2785  0.0473
 1592SOL    HW1 5096   4.073   5.166   2.898 -1.8493 -1.3104 -0.6604
 1592SOL    HW2 5097   3.947   5.267   2.882 -0.6302 -0.0968 -3.1855
 1593SOL     OW 5098   0.091   3.641   5.118  0.0870  0.0674 -0.2402
 1593SOL    HW1 5099   0.099   3.596   5.029  0.1963 -0.6650  0.1280
 1593SOL    HW2 5100   0.156   3.717   5.123  0.1115  0.0838 -0.7667
 1594SOL     OW 5101   0.848   2.589   3.954 -0.2512  0.0945  0.5817
 1594SOL    HW1 5102   0.787   2.661   3.988 -0.0650  0.4060  0.2693
 1594SOL    HW2 5103   0.915   2.566   4.025 -1.3352 -0.9660  1.3081
 1595SOL     OW 5104   4.100   2.117   3.614 -0.0161  0.6327  0.2379
 1595SOL    HW1 5105   4.166   2.181   3.654  0.8517  0.6369 -1.1311
 1595SOL    HW2 5106   4.138   2.025   3.617 -0.0890  0.5847 -0.2536
 1596SOL     OW 5107   5.517   0.660   4.413 -0.4355 -0.2847  0.3947
 1596SOL    HW1 5108   5.521   0.727   4.487 -2.4315 -0.5300  0.7843
 1596SOL    HW2 5109   5.552   0.572   4.445 -0.6713 -0.2167  0.8531
 1597SOL     OW 5110   2.932   4.800   2.278 -0.3738 -0.0252 -0.4517
 1597SOL    HW1 5111   3.017   4.782   2.328 -0.1309  0.5955 -0.6369
 1597SOL    HW2 5112   2.861   4.826   2.343 -0.0100  0.9575 -0.4375
 1598SOL     OW 5113   3.974   1.667   5.457 -0.5083 -0.2429  0.2079
 1598SOL    HW1 5114   4.056   1.614   5.480 -0.2613  0.0509  0.0129
 1598SOL    HW2 5115   3.977   1.692   5.361  0.1038  1.3477  0.6063
 1599SOL     OW 5116   1.975   2.177   4.827  0.0303 -0.7805 -0.1110
 1599SOL    HW1 5117   1.884   2.219   4.834 -1.5430 -3.6580 -1.4501
 1599SOL    HW2 5118   1.997   2.131   4.912  0.0455 -0.4304  0.0755
 1600SOL     OW 5119   1.079   2.000   1.453 -0.4016  0.3156  0.4983
 1600SOL    HW1 5120   1.133   2.017   1.370 -1.0752  1.8137  0.3307
 1600SOL    HW2 5121   1.004   1.938   1.431 -0.0437 -0.0306  0.2171
 1601SOL     OW 5122   5.328   0.533   1.400 -0.6221 -1.0434  0.3516
 1601SOL    HW1 5123   5.317   0.439   1.432 -1.3089 -0.4277  2.0805
 1601SOL    HW2 5124   5.239   0.570   1.372 -0.4552 -0.7278  0.2304
 1602SOL     OW 5125   3.592   1.036   1.221  0.3314 -0.3227  0.2540
 1602SOL    HW1 5126   3.595   1.126   1.265 -0.6909  0.5350 -1.3300
 1602SOL    HW2 5127   3.685   1.002   1.209  0.6856  0.0391  1.7888
 1603SOL     OW 5128   4.063   4.323   5.030 -0.3115 -0.3139 -0.5220
 1603SOL    HW1 5129   4.155   4.306   4.996  0.4668 -2.1117  2.1752
 1603SOL    HW2 5130   3.996   4.290   4.963  1.1315 -4.6605 -0.1624
 1604SOL     OW 5131   4.052   4.980   4.384 -0.3054 -0.1292  0.4961
 1604SOL    HW1 5132   3.988   4.965   4.308 -1.3503 -1.6170  1.6095
 1604SOL    HW2 5133   4.124   4.910   4.381  0.5796  0.7781 -0.0182
 1605SOL     OW 5134   2.193   1.704   2.915  0.1561  0.4599  0.3423
 1605SOL    HW1 5135   2.149   1.638   2.854  0.7744  0.3162  0.0389
 1605SOL    HW2 5136   2.154   1.696   3.007 -0.5489  0.4430  0.0507
 1606SOL     OW 5137   3.634   0.824   0.036 -0.3635  0.7020  0.0688
 1606SOL    HW1 5138   3.652   0.776   0.122  0.3262  1.1319  0.1737
 1606SOL    HW2 5139   3.720   0.852  -0.005 -0.7316  1.5074 -0.1875
 1607SOL     OW 5140   2.789   0.387   1.070 -0.3131  0.4615  0.4274
 1607SOL    HW1 5141   2.861   0.369   1.004 -0.3508 -1.4280  0.8524
 1607SOL    HW2 5142   2.812   0.469   1.123  0.5877  0.9438 -0.6704
 1608SOL     OW 5143   4.592   0.260   4.081 -0.6446 -0.4900  0.2657
 1608SOL    HW1 5144   4.520   0.191   4.091 -0.7259 -0.2028  2.1718
 1608SOL    HW2 5145   4.682   0.215   4.082 -0.6572 -0.5961  2.3240
 1609SOL     OW 5146   1.799   5.460   1.650 -0.2316  0.1819 -0.6306
 1609SOL    HW1 5147   1.890   5.421   1.635  0.9502  1.8655  1.5953
 1609SOL    HW2 5148   1.753   5.471   1.562  1.1048 -2.0320 -1.6908
 1610SOL     OW 5149   4.778   1.659   2.002  0.4573 -0.0565 -0.0327
 1610SOL    HW1 5150   4.773   1.593   1.927  2.3047  2.2239 -2.3705
 1610SOL    HW2 5151   4.686   1.693   2.023 -0.3166 -2.0969  0.1048
 1611SOL     OW 5152   2.299   3.233   2.561 -0.2672  0.1618  0.0818
 1611SOL    HW1 5153   2.249   3.198   2.483  2.4194  1.6628 -2.5141
 1611SOL    HW2 5154   2.330   3.157   2.619 -1.0916 -1.1010 -1.1039
 1612SOL     OW 5155   1.647   1.272   1.967  0.5780 -0.5918  0.1840
 1612SOL    HW1 5156   1.600   1.311   1.888  0.4912  0.7642  0.8738
 1612SOL    HW2 5157   1.583   1.263   2.043  0.9018 -0.8871  0.4254
 1613SOL     OW 5158   2.287   4.337   1.073  0.0640  0.0766  0.6966
 1613SOL    HW1 5159   2.353   4.358   1.001 -0.1425  0.6901  0.6825
 1613SOL    HW2 5160   2.320   4.260   1.127  0.7543  0.3359  0.6492
 1614SOL     OW 5161   4.753   2.531   2.385 -0.4328  0.8497 -0.3224
 1614SOL    HW1 5162   4.723   2.487   2.301 -0.9363  0.8956 -0.1684
 1614SOL    HW2 5163   4.724   2.477   2.464  1.8343 -0.3315 -0.1994
 1615SOL     OW 5164   4.475   3.131   3.067  0.1368 -0.2563 -0.4016
 1615SOL    HW1 5165   4.454   3.084   2.982  0.3732 -3.1408  1.0134
 1615SOL    HW2 5166   4.570   3.115   3.091  0.3852  1.4672 -0.0988
 1616SOL     OW 5167   2.802   1.587   1.843 -0.9911 -0.0739  0.1380
 1616SOL    HW1 5168   2.808   1.674   1.892 -0.2598  0.0060 -0.0680
 1616SOL    HW2 5169   2.804   1.512   1.909  1.5637 -0.0272  0.2417
 1617SOL     OW 5170   5.346   5.136   4.631 -0.6725  0.3306 -0.1371
 1617SOL    HW1 5171   5.396   5.183   4.704 -0.3387  0.4513 -0.4385
 1617SOL    HW2 5172   5.291   5.063   4.670  0.3740 -0.3397  0.1241
 1618SOL     OW 5173   0.496   0.065   2.381 -0.4343 -0.0524 -0.2548
 1618SOL    HW1 5174   0.587   0.071   2.339 -0.3242  1.7726  0.1519
 1618SOL    HW2 5175   0.429   0.110   2.323 -0.5259  1.2351  0.7830
 1619SOL     OW 5176   1.798   4.480   3.284 -0.0891  0.0100 -0.3742
 1619SOL    HW1 5177   1.824   4.397   3.334  1.2507  0.3509 -0.4713
 1619SOL    HW2 5178   1.809   4.465   3.186 -0.7366  0.0143 -0.4527
 1620SOL     OW 5179   1.908   1.023   2.436 -0.1365  0.1561 -0.2855
 1620SOL    HW1 5180   1.953   0.936   2.415  0.5390 -0.4597  3.1248
 1620SOL    HW2 5181   1.972   1.098   2.420  0.5302 -0.3105  0.1579
 1621SOL     OW 5182   1.505   1.246   0.798  0.2219 -0.4315  0.0975
 1621SOL    HW1 5183   1.434   1.177   0.806 -0.3672 -0.0275 -1.2866
 1621SOL    HW2 5184   1.524   1.286   0.887 -1.3083 -0.5292  0.4856
 1622SOL     OW 5185   3.765   4.080   2.031 -0.3698  0.5604 -0.7425
 1622SOL    HW1 5186   3.839   4.136   2.069 -0.1343  0.4105 -0.9752
 1622SOL    HW2 5187   3.677   4.120   2.055 -0.2132  2.2523 -2.7010
 1623SOL     OW 5188   5.403   3.668   3.032 -0.3158 -0.5178 -0.7713
 1623SOL    HW1 5189   5.350   3.725   3.095 -1.2055 -1.4594 -0.6435
 1623SOL    HW2 5190   5.341   3.609   2.980  0.5517 -1.0341 -1.2436
 1624SOL     OW 5191   1.570   2.522   3.647  0.2095 -0.2469  0.2298
 1624SOL    HW1 5192   1.640   2.592   3.633 -1.9309  1.9286 -0.3107
 1624SOL    HW2 5193   1.525   2.502   3.560  0.5437 -2.0813  0.4479
 1625SOL     OW 5194   2.548   4.076   4.679 -0.0691  0.6328 -0.3715
 1625SOL    HW1 5195   2.633   4.026   4.696 -0.0719  1.0950  1.2162
 1625SOL    HW2 5196   2.536   4.145   4.750 -1.1150  1.4694 -1.3373
 1626SOL     OW 5197   1.780   3.835   2.561  0.4116  0.5582  0.3270
 1626SOL    HW1 5198   1.732   3.750   2.584 -0.8233  0.8048 -1.1483
 1626SOL    HW2 5199   1.851   3.853   2.629 -1.1946 -0.1387  2.2826
 1627SOL     OW 5200   2.476   0.146   3.185 -0.1914  0.1627  0.0433
 1627SOL    HW1 5201   2.475   0.164   3.283 -0.3389 -0.0995  0.0905
 1627SOL    HW2 5202   2.571   0.138   3.154 -0.1570 -0.4482  0.2953
 1628SOL     OW 5203   2.873   2.023   5.100  0.7123  0.2099 -0.4418
 1628SOL    HW1 5204   2.794   1.965   5.084  0.9207 -0.9516  2.2259
 1628SOL    HW2 5205   2.906   2.060   5.013 -3.6320  2.0408 -1.5850
 1629SOL     OW 5206   3.199   5.271   0.305  0.4333 -0.2369  0.5028
 1629SOL    HW1 5207   3.297   5.254   0.316  0.3856 -1.2529 -0.4835
 1629SOL    HW2 5208   3.185   5.339   0.232  0.3592 -1.1952 -0.3909
 1630SOL     OW 5209   2.078   2.349   2.641 -0.7911 -0.5137 -0.2271
 1630SOL    HW1 5210   2.151   2.345   2.710 -1.4258  1.4550  0.6518
 1630SOL    HW2 5211   2.116   2.327   2.551 -0.1405 -4.1171  0.7846
 1631SOL     OW 5212   3.097   2.132   1.388  0.4449  0.6920  0.2833
 1631SOL    HW1 5213   3.085   2.124   1.487 -0.3175 -0.0526  0.1416
 1631SOL    HW2 5214   3.008   2.143   1.344  0.8716  2.5581 -0.2179
 1632SOL     OW 5215   2.802   3.971   4.690 -0.1288 -0.3257  0.1768
 1632SOL    HW1 5216   2.805   3.919   4.604  1.0910 -0.8268  0.5048
 1632SOL    HW2 5217   2.881   4.032   4.695  0.9842 -1.7720  1.8078
 1633SOL     OW 5218   3.589   0.700   1.036 -0.1622  0.0478  0.2269
 1633SOL    HW1 5219   3.542   0.785   1.016  0.4949 -0.0621 -2.1583
 1633SOL    HW2 5220   3.523   0.630   1.063 -1.1323  0.4257 -1.0883
 1634SOL     OW 5221   0.109   1.148   3.961 -0.0584 -0.4626  0.1067
 1634SOL    HW1 5222   0.036   1.109   4.018  0.0151  0.0728  0.5725
 1634SOL    HW2 5223   0.112   1.099   3.873 -0.7491 -0.7150  0.2159
 1635SOL     OW 5224   3.339   0.367  -0.030 -0.0682 -0.3718 -0.0459
 1635SOL    HW1 5225   3.407   0.328   0.031  2.2050  4.5380  1.0540
 1635SOL    HW2 5226   3.265   0.408   0.024  0.0519  0.8269 -0.7497
 1636SOL     OW 5227   1.914   5.104   4.621 -0.6544 -0.3376 -0.0001
 1636SOL    HW1 5228   1.958   5.188   4.650 -1.3763 -0.6280  2.1226
 1636SOL    HW2 5229   1.951   5.027   4.673 -1.5707 -1.0045 -0.2940
 1637SOL     OW 5230   2.839   0.758   2.609 -0.1612 -0.2424  0.4606
 1637SOL    HW1 5231   2.878   0.850   2.611 -0.2639 -0.2101  1.3089
 1637SOL    HW2 5232   2.865   0.709   2.691 -1.8189 -0.2550  1.0258
 1638SOL     OW 5233   2.569   3.185   0.277  0.4468 -0.0916  0.4551
 1638SOL    HW1 5234   2.537   3.100   0.234 -1.6974  0.9998 -0.2785
 1638SOL    HW2 5235   2.577   3.256   0.207  1.1990  0.5960  1.2246
 1639SOL     OW 5236   1.193   4.004   4.606  0.2238  0.1385  0.1632
 1639SOL    HW1 5237   1.196   4.069   4.530  0.5211 -0.2732 -0.1835
 1639SOL    HW2 5238   1.284   3.998   4.648  0.6240 -1.2124 -0.8118
 1640SOL     OW 5239   3.856   0.080   0.725  0.1180  0.2942  0.3761
 1640SOL    HW1 5240   3.767   0.068   0.769  0.5415 -0.5930  1.0222
 1640SOL    HW2 5241   3.844   0.122   0.635 -0.9022  0.6544  0.6706
 1641SOL     OW 5242   3.144   3.357   5.260  0.4120  0.1212 -0.6885
 1641SOL    HW1 5243   3.223   3.406   5.224  0.7970 -0.1471 -0.2277
 1641SOL    HW2 5244   3.060   3.394   5.221  0.8529 -1.0325 -2.9075
 1642SOL     OW 5245   4.160   1.638   4.790  0.4813  0.2679 -0.4643
 1642SOL    HW1 5246   4.065   1.643   4.758  0.2705  0.6159  0.1886
 1642SOL    HW2 5247   4.213   1.581   4.728 -0.2213 -0.1649 -0.6826
 1643SOL     OW 5248   1.766   4.791   0.930 -0.3428 -0.3063  0.3834
 1643SOL    HW1 5249   1.793   4.862   0.865 -0.5046 -0.7707 -0.2026
 1643SOL    HW2 5250   1.685   4.821   0.980 -0.5737 -0.1825 -0.0563
 1644SOL     OW 5251   4.722   3.383   2.315  0.2636 -0.0479  0.0153
 1644SOL    HW1 5252   4.635   3.351   2.277 -0.8140  1.6435  0.9558
 1644SOL    HW2 5253   4.761   3.310   2.372 -0.3879 -0.9381 -0.6399
 1645SOL     OW 5254   1.698   1.072   4.218 -0.3591  0.0435 -0.4054
 1645SOL    HW1 5255   1.777   1.012   4.233 -0.4983  0.0828  0.5796
 1645SOL    HW2 5256   1.633   1.026   4.158 -0.4778 -0.8258  0.3601
 1646SOL     OW 5257   2.918   4.414   1.150  0.5830 -0.0148  0.2717
 1646SOL    HW1 5258   2.883   4.397   1.057  0.6514  0.3335  0.1819
 1646SOL    HW2 5259   2.937   4.326   1.194  0.1849 -0.1936  0.0958
 1647SOL     OW 5260   0.981   3.472   5.520 -0.5195  0.4856  0.2790
 1647SOL    HW1 5261   1.062   3.473   5.461 -0.2087  0.6585  0.7019
 1647SOL    HW2 5262   0.968   3.380   5.556  0.4511  0.7944  1.5008
 1648SOL     OW 5263   3.683   4.376   1.665  0.0627  0.1009 -0.4862
 1648SOL    HW1 5264   3.729   4.440   1.727  1.4524 -0.4560 -0.9139
 1648SOL    HW2 5265   3.585   4.393   1.667  0.2730  1.3357  0.4427
 1649SOL     OW 5266   1.816   5.458   1.129 -0.0776  0.1216 -0.0370
 1649SOL    HW1 5267   1.759   5.539   1.147  1.6881  1.8362 -1.6936
 1649SOL    HW2 5268   1.900   5.486   1.083  0.4734 -2.7393 -0.9622
 1650SOL     OW 5269   0.779   3.854   5.454  0.3863  0.1674  0.0596
 1650SOL    HW1 5270   0.723   3.925   5.496  0.2663  0.2532 -0.2411
 1650SOL    HW2 5271   0.862   3.895   5.417  1.7924 -0.2815  2.5251
 1651SOL     OW 5272   2.800   4.478   3.002  0.0162 -0.3467 -0.0926
 1651SOL    HW1 5273   2.792   4.553   2.937 -2.1716 -1.3968 -1.1350
 1651SOL    HW2 5274   2.847   4.401   2.959 -0.6029 -0.7077 -0.1361
 1652SOL     OW 5275   1.459   5.260   1.419  0.1848 -0.0422  0.3465
 1652SOL    HW1 5276   1.434   5.251   1.516 -2.4064 -0.0599 -0.2635
 1652SOL    HW2 5277   1.378   5.281   1.365  1.4772 -0.5359 -1.9310
 1653SOL     OW 5278   2.402   0.257   3.426  0.0172 -0.6207  0.2138
 1653SOL    HW1 5279   2.407   0.190   3.501 -0.1358 -0.1094  0.6874
 1653SOL    HW2 5280   2.323   0.316   3.441  0.3781 -0.0857 -0.0026
 1654SOL     OW 5281   4.623   1.997   3.062 -0.4395 -0.1661 -0.0678
 1654SOL    HW1 5282   4.669   1.929   3.118 -2.6450 -1.9293 -0.2174
 1654SOL    HW2 5283   4.633   1.972   2.965 -3.3606 -1.9319 -0.0496
 1655SOL     OW 5284   4.329   4.707   5.477 -0.1464 -0.3518 -0.0048
 1655SOL    HW1 5285   4.393   4.784   5.486  0.8605 -1.3153  1.7814
 1655SOL    HW2 5286   4.250   4.735   5.423 -0.3953  2.3421  1.5474
 1656SOL     OW 5287   3.655   3.811   5.298  0.3694  0.2828 -0.0297
 1656SOL    HW1 5288   3.567   3.777   5.264 -0.9422 -0.2976  3.5200
 1656SOL    HW2 5289   3.664   3.908   5.275 -1.2996  0.4038 -0.2905
 1657SOL     OW 5290   0.941   5.184   0.980 -0.4024  0.1605 -0.1097
 1657SOL    HW1 5291   0.935   5.136   1.067 -1.6474  0.4746  0.0094
 1657SOL    HW2 5292   1.027   5.234   0.974  0.0389 -0.5104  0.5958
 1658SOL     OW 5293   5.332   5.032   1.454  0.1065  0.3922 -0.0068
 1658SOL    HW1 5294   5.414   4.977   1.439  0.7353  1.3124 -0.0397
 1658SOL    HW2 5295   5.345   5.122   1.413 -0.8210  0.6388  0.2250
 1659SOL     OW 5296   5.400   2.496   3.629 -0.9355  0.0531  0.1431
 1659SOL    HW1 5297   5.344   2.576   3.651 -0.7459 -0.2866  2.0225
 1659SOL    HW2 5298   5.455   2.471   3.709  1.7855  0.2469 -1.5529
 1660SOL     OW 5299   2.142   0.380   3.573 -0.5342 -0.1223  0.0080
 1660SOL    HW1 5300   2.071   0.443   3.601  1.5065  2.0483  0.5892
 1660SOL    HW2 5301   2.180   0.333   3.653  0.8629  1.2045  0.1716
 1661SOL     OW 5302   3.343   2.223   0.436  0.5711 -0.1425  0.5008
 1661SOL    HW1 5303   3.356   2.126   0.455 -0.5641 -1.0698 -2.8439
 1661SOL    HW2 5304   3.431   2.270   0.441  1.9333 -2.2180 -1.8346
 1662SOL     OW 5305   1.904   2.384   1.168  0.0105 -0.5372  0.3230
 1662SOL    HW1 5306   1.875   2.386   1.263 -3.9110 -0.7670 -0.6996
 1662SOL    HW2 5307   1.835   2.428   1.111  1.7389 -1.2714 -2.5356
 1663SOL     OW 5308   2.712   4.701   2.856 -0.1098 -0.3778  0.1929
 1663SOL    HW1 5309   2.731   4.655   2.769  1.0112 -1.9445  1.2154
 1663SOL    HW2 5310   2.761   4.788   2.859 -0.1114 -0.3407 -0.7138
 1664SOL     OW 5311   4.215   3.211   5.405 -1.1004 -0.3440  0.1709
 1664SOL    HW1 5312   4.172   3.279   5.464  1.5648  0.4226  1.4188
 1664SOL    HW2 5313   4.271   3.150   5.461 -0.0713 -0.8644 -1.3551
 1665SOL     OW 5314   1.505   2.273   4.367  0.2246 -0.0790  0.9063
 1665SOL    HW1 5315   1.427   2.336   4.365 -0.6648 -1.1366  0.8921
 1665SOL    HW2 5316   1.586   2.321   4.400 -0.0298  1.4773 -0.6064
 1666SOL     OW 5317   2.061   3.668   1.225  0.1531  0.3825  0.3061
 1666SOL    HW1 5318   2.102   3.758   1.240  1.4678 -0.3430  1.3853
 1666SOL    HW2 5319   1.969   3.678   1.188  0.5706  2.1433 -0.3363
 1667SOL     OW 5320   2.256   3.325   0.937  0.0589  0.0055 -0.5688
 1667SOL    HW1 5321   2.317   3.304   0.861 -0.9876  1.7955 -1.9810
 1667SOL    HW2 5322   2.211   3.241   0.968  2.4315 -1.1859 -0.1417
 1668SOL     OW 5323   0.248   2.888   3.445 -0.5194  0.4951  0.7063
 1668SOL    HW1 5324   0.321   2.902   3.512 -0.0421  0.8277  0.1298
 1668SOL    HW2 5325   0.173   2.951   3.464 -0.0224  1.1833  0.4290
 1669SOL     OW 5326   0.835   4.766   1.091  0.0621  0.1583 -0.3723
 1669SOL    HW1 5327   0.893   4.781   1.011 -0.2940  1.1853 -0.4565
 1669SOL    HW2 5328   0.755   4.825   1.085  0.4523  0.8874  1.1672
 1670SOL     OW 5329   0.150   5.279   4.397 -0.2706 -0.0081  0.4199
 1670SOL    HW1 5330   0.190   5.284   4.488 -2.5967  2.6739  1.4576
 1670SOL    HW2 5331   0.052   5.301   4.402 -0.3713  0.8344 -2.7902
 1671SOL     OW 5332   5.331   3.276   0.849 -0.1796 -0.1227 -0.5120
 1671SOL    HW1 5333   5.373   3.272   0.940  0.6410  1.0179 -0.8256
 1671SOL    HW2 5334   5.355   3.362   0.805  0.5330 -1.2116 -2.3461
 1672SOL     OW 5335   0.769   5.425   1.250  0.2179 -0.4273  0.0575
 1672SOL    HW1 5336   0.770   5.377   1.162  0.0752 -1.0481  0.3891
 1672SOL    HW2 5337   0.842   5.388   1.309  1.1993  0.8979 -0.2710
 1673SOL     OW 5338   0.863   2.923   4.359 -0.0379  0.5192  0.6356
 1673SOL    HW1 5339   0.856   3.022   4.348  2.4792  0.5273 -1.6020
 1673SOL    HW2 5340   0.775   2.881   4.337 -0.5274  2.1089 -0.6237
 1674SOL     OW 5341   1.464   0.032   0.907 -0.4163  0.7578 -0.1133
 1674SOL    HW1 5342   1.476   0.071   0.815  0.3138  0.6170 -0.0769
 1674SOL    HW2 5343   1.370   0.049   0.937 -1.0174 -0.1752 -1.3491
 1675SOL     OW 5344   1.574   0.153   3.238  0.6220 -0.2227 -0.0255
 1675SOL    HW1 5345   1.605   0.166   3.144 -1.3459 -0.3208 -0.7340
 1675SOL    HW2 5346   1.638   0.198   3.300  0.5771  2.2169 -1.5862
 1676SOL     OW 5347   2.970   3.443   2.315 -0.0668  0.2541  0.1172
 1676SOL    HW1 5348   3.006   3.397   2.234 -0.6988 -0.2228  0.1002
 1676SOL    HW2 5349   2.871   3.435   2.317  0.0048 -0.8618  1.5862
 1677SOL     OW 5350   4.630   0.786   1.739  0.0650 -0.3576 -0.1678
 1677SOL    HW1 5351   4.632   0.689   1.762 -0.4391 -0.5997 -1.1160
 1677SOL    HW2 5352   4.645   0.798   1.641  0.6714  0.5619  0.0276
 1678SOL     OW 5353   1.123   5.059   5.520  0.0222 -0.4204  0.0727
 1678SOL    HW1 5354   1.127   5.107   5.433  0.7514  1.1680  0.9514
 1678SOL    HW2 5355   1.215   5.026   5.545  0.5510  2.0819  1.7861
 1679SOL     OW 5356   4.742   1.401   3.362 -0.4346  0.2367  0.5027
 1679SOL    HW1 5357   4.747   1.305   3.334 -1.6116  0.5440 -0.9015
 1679SOL    HW2 5358   4.749   1.459   3.281  1.9341  1.4448  1.4752
 1680SOL     OW 5359   4.320   1.347   5.230  0.1671  0.3947 -0.1153
 1680SOL    HW1 5360   4.308   1.249   5.248  0.1824  0.3206 -0.5021
 1680SOL    HW2 5361   4.418   1.369   5.227  0.2429 -0.0059 -2.2173
 1681SOL     OW 5362   2.016   0.563   4.086 -0.0400  0.1342 -0.1910
 1681SOL    HW1 5363   2.056   0.595   4.000  1.1197 -1.1019 -0.1346
 1681SOL    HW2 5364   2.068   0.600   4.163 -0.9940  1.1279  0.0120
 1682SOL     OW 5365   2.757   2.198   5.288 -0.6698 -0.3087  0.2534
 1682SOL    HW1 5366   2.755   2.273   5.222  0.1045  0.0726  0.6394
 1682SOL    HW2 5367   2.797   2.117   5.245 -0.1704 -0.0621  0.2415
 1683SOL     OW 5368   3.834   4.296   0.170 -0.0874  0.4702 -0.2047
 1683SOL    HW1 5369   3.921   4.265   0.209  1.6360  1.5862 -2.8568
 1683SOL    HW2 5370   3.773   4.327   0.243  1.6953 -0.3890  1.7477
 1684SOL     OW 5371   1.728   0.955   3.451 -0.8955 -0.4616 -0.1412
 1684SOL    HW1 5372   1.717   0.895   3.371 -0.9721 -0.7982  0.1187
 1684SOL    HW2 5373   1.807   1.015   3.436  0.2277 -1.7769  0.2855
 1685SOL     OW 5374   0.070   0.031   2.582 -0.5167  0.1359 -0.0900
 1685SOL    HW1 5375  -0.027   0.011   2.594 -0.6244  0.2901 -0.7045
 1685SOL    HW2 5376   0.113   0.040   2.672 -0.4274 -2.9163  0.2633
 1686SOL     OW 5377   1.245   0.900   4.161 -0.8477  0.2489 -0.0889
 1686SOL    HW1 5378   1.146   0.902   4.142 -0.9337 -0.6642  0.1728
 1686SOL    HW2 5379   1.264   0.826   4.225  0.1155 -0.1048 -0.7605
 1687SOL     OW 5380   3.690   4.810   1.522 -0.2724 -0.1532  0.2251
 1687SOL    HW1 5381   3.624   4.861   1.578  0.7222  1.5074 -0.0420
 1687SOL    HW2 5382   3.714   4.864   1.441 -0.6412 -1.9236 -1.1203
 1688SOL     OW 5383   1.247   1.473   4.049 -0.0022 -0.1929 -0.4513
 1688SOL    HW1 5384   1.261   1.440   4.143  1.8299  2.6155  0.3892
 1688SOL    HW2 5385   1.160   1.523   4.044  1.5612  2.9780  0.9643
 1689SOL     OW 5386   2.337   1.051   4.534 -0.4753  0.3650  0.4747
 1689SOL    HW1 5387   2.369   1.144   4.512 -1.7935  0.9917  1.0943
 1689SOL    HW2 5388   2.412   0.999   4.576 -0.2570  1.8293  2.0349
 1690SOL     OW 5389   4.051   4.544   0.354 -0.0043 -0.1837 -0.8763
 1690SOL    HW1 5390   4.074   4.482   0.279 -0.2801 -1.3484 -0.0199
 1690SOL    HW2 5391   4.082   4.505   0.441  0.5061  1.2400 -0.3858
 1691SOL     OW 5392   3.327   0.958   3.965  0.0156  0.2126 -0.1834
 1691SOL    HW1 5393   3.343   0.885   4.032  0.5308  0.9472  0.5034
 1691SOL    HW2 5394   3.402   0.958   3.899  0.8898  1.1597  0.7765
 1692SOL     OW 5395   2.726   4.360   4.753  0.1928 -0.3397 -0.5013
 1692SOL    HW1 5396   2.742   4.409   4.838 -0.0511  1.6891 -1.5709
 1692SOL    HW2 5397   2.796   4.386   4.686 -0.2685 -1.0519 -1.2845
 1693SOL     OW 5398   3.994   0.693   5.112 -0.4954 -0.1310 -0.1271
 1693SOL    HW1 5399   4.049   0.668   5.032  0.4834 -1.5283  0.9226
 1693SOL    HW2 5400   3.952   0.610   5.149 -1.1521  0.5448  0.6492
 1694SOL     OW 5401   0.217   1.281   0.097 -0.2991 -0.4887  0.3334
 1694SOL    HW1 5402   0.231   1.276   0.196  1.4893 -0.1570  0.1329
 1694SOL    HW2 5403   0.262   1.203   0.054 -0.8191 -0.4717 -0.2471
 1695SOL     OW 5404   2.610   1.242   0.311  0.1764  0.3947  0.3096
 1695SOL    HW1 5405   2.520   1.230   0.353  0.2505 -1.6937 -0.0269
 1695SOL    HW2 5406   2.664   1.159   0.323  2.4395  1.9090  1.2802
 1696SOL     OW 5407   4.236   1.284   3.814  0.1133 -0.2489  0.0570
 1696SOL    HW1 5408   4.216   1.262   3.910 -1.7501  0.7132 -0.0616
 1696SOL    HW2 5409   4.332   1.310   3.806 -0.1491  1.7762  2.1253
 1697SOL     OW 5410   4.293   5.042   4.205 -0.1253  0.5744  0.5586
 1697SOL    HW1 5411   4.275   4.944   4.204 -0.0005  0.5310  1.5681
 1697SOL    HW2 5412   4.388   5.059   4.177 -0.5862  0.5378 -1.1442
 1698SOL     OW 5413   3.468   3.118   2.909 -0.0627  0.1792  0.3026
 1698SOL    HW1 5414   3.522   3.192   2.949  0.8828 -1.1408  1.5599
 1698SOL    HW2 5415   3.373   3.147   2.901  0.2838  1.5212  0.7623
 1699SOL     OW 5416   1.491   3.080   0.364  0.1830 -0.3456  0.1742
 1699SOL    HW1 5417   1.405   3.031   0.376  0.2651 -0.0681  2.4199
 1699SOL    HW2 5418   1.554   3.054   0.438  1.1759  1.1875 -0.0901
 1700SOL     OW 5419   3.279   4.111   4.298 -0.2824  0.1626  0.2042
 1700SOL    HW1 5420   3.314   4.098   4.205  1.2376 -0.2889  0.8084
 1700SOL    HW2 5421   3.179   4.113   4.296 -0.2723  0.5670 -1.4807
 1701SOL     OW 5422   3.874   0.350   2.123 -0.1281  0.4937 -0.5099
 1701SOL    HW1 5423   3.783   0.317   2.146 -0.2885  0.6385 -0.9313
 1701SOL    HW2 5424   3.935   0.272   2.107 -0.0514  0.3936  0.2536
 1702SOL     OW 5425   0.592   0.711   0.555  0.4812 -0.0469 -0.4520
 1702SOL    HW1 5426   0.577   0.763   0.639  0.8492  0.5812 -0.7705
 1702SOL    HW2 5427   0.660   0.640   0.572  1.3310  0.7439 -0.4758
 1703SOL     OW 5428   5.230   0.037   4.249  0.1394 -0.1987  1.0273
 1703SOL    HW1 5429   5.161   0.106   4.271 -0.7339 -0.6390 -0.2429
 1703SOL    HW2 5430   5.265   0.054   4.157  1.3673 -0.3015  1.4493
 1704SOL     OW 5431   3.232   4.397   1.119 -0.2054  0.1136 -0.1007
 1704SOL    HW1 5432   3.278   4.367   1.203  0.8464 -0.4389 -0.8587
 1704SOL    HW2 5433   3.159   4.461   1.143 -0.1996 -0.3468  1.2697
 1705SOL     OW 5434   1.553   1.072   1.144 -0.2975 -0.5176  0.6897
 1705SOL    HW1 5435   1.547   1.168   1.116 -0.2257 -0.5490  0.5636
 1705SOL    HW2 5436   1.649   1.046   1.153 -0.3191 -0.2268  1.9530
 1706SOL     OW 5437   2.952   1.444   0.184 -0.2999  0.0297 -0.1675
 1706SOL    HW1 5438   3.011   1.383   0.131  1.0437  2.1475 -1.2592
 1706SOL    HW2 5439   2.977   1.439   0.281 -0.4170 -1.3186 -0.1848
 1707SOL     OW 5440   1.209   2.705   1.566 -0.2098  0.1763 -0.5536
 1707SOL    HW1 5441   1.266   2.676   1.644 -1.0666 -2.0635 -0.7147
 1707SOL    HW2 5442   1.263   2.699   1.482 -0.2134 -0.3940 -0.5148
 1708SOL     OW 5443   5.019   1.187   4.542  0.2870 -0.3428  0.4918
 1708SOL    HW1 5444   5.003   1.089   4.542  0.0583 -0.3372 -1.3915
 1708SOL    HW2 5445   4.937   1.234   4.576 -0.9494 -0.6938 -1.7654
 1709SOL     OW 5446   0.723   0.948   4.045  0.2385 -0.7298 -0.3377
 1709SOL    HW1 5447   0.626   0.933   4.067  0.3819 -0.5223  0.4470
 1709SOL    HW2 5448   0.752   1.037   4.081  1.1820 -1.5343  0.9641
 1710SOL     OW 5449   3.012   1.850   4.255  0.4855  0.2433  0.4436
 1710SOL    HW1 5450   2.996   1.947   4.235 -0.8026  0.1667  0.9940
 1710SOL    HW2 5451   3.109   1.836   4.276  1.0340  1.0881 -1.3192
 1711SOL     OW 5452   1.794   4.202   0.916 -0.3289  0.0642 -0.0895
 1711SOL    HW1 5453   1.814   4.213   1.013 -1.4657  0.4354  0.1094
 1711SOL    HW2 5454   1.737   4.121   0.902 -0.2801  0.0874 -0.4419
 1712SOL     OW 5455   2.563   1.482   2.559  0.0660 -0.1013 -0.3575
 1712SOL    HW1 5456   2.602   1.444   2.642  1.3973 -1.9614 -1.7410
 1712SOL    HW2 5457   2.620   1.558   2.527  0.3186 -0.2445 -0.2537
 1713SOL     OW 5458   4.609   4.316   1.801 -0.7833 -0.1706  0.0945
 1713SOL    HW1 5459   4.672   4.281   1.870 -1.8458 -1.1783  0.5842
 1713SOL    HW2 5460   4.658   4.332   1.716  0.3928  0.3699  0.8535
 1714SOL     OW 5461   1.175   4.035   3.238 -0.0685 -0.2634  0.1444
 1714SOL    HW1 5462   1.164   4.120   3.290  0.8599  0.1325 -0.2723
 1714SOL    HW2 5463   1.086   3.992   3.224 -0.3338 -0.4632  2.1789
 1715SOL     OW 5464   4.288   3.627   4.387 -0.1733 -0.1914 -0.4220
 1715SOL    HW1 5465   4.265   3.558   4.456 -0.5247  0.5505  0.2101
 1715SOL    HW2 5466   4.384   3.653   4.396 -0.3532  0.2951  0.1480
 1716SOL     OW 5467   2.514   4.193   1.130 -0.0103  0.4115  0.0030
 1716SOL    HW1 5468   2.515   4.098   1.161 -0.6042 -0.1260 -1.5210
 1716SOL    HW2 5469   2.550   4.252   1.202 -0.9163 -0.7970  1.5033
 1717SOL     OW 5470   4.885   2.446   3.472 -0.1884  0.0764  0.3922
 1717SOL    HW1 5471   4.984   2.438   3.476 -0.2292 -0.0962  1.5063
 1717SOL    HW2 5472   4.859   2.519   3.409  0.5833 -0.9912 -1.2227
 1718SOL     OW 5473   1.026   0.608   5.114  0.0624 -0.3696  0.3499
 1718SOL    HW1 5474   1.094   0.571   5.050 -0.2595  1.7942 -1.3608
 1718SOL    HW2 5475   0.943   0.552   5.112  0.0900 -0.3773 -1.0907
 1719SOL     OW 5476   0.583   0.870   0.319 -0.0347  0.3764  0.1342
 1719SOL    HW1 5477   0.499   0.906   0.279 -0.5603 -1.1267 -0.1711
 1719SOL    HW2 5478   0.561   0.805   0.391  0.6318 -3.3103 -2.6760
 1720SOL     OW 5479   3.550   0.322   3.051  0.6771  0.0552  0.4918
 1720SOL    HW1 5480   3.579   0.320   3.146  2.6420  2.4575  0.0510
 1720SOL    HW2 5481   3.471   0.383   3.040 -1.9765 -3.0080  0.9985
 1721SOL     OW 5482   2.605   2.568   5.087 -0.0840  0.3781 -0.0444
 1721SOL    HW1 5483   2.507   2.549   5.088 -0.3303  1.5658  0.3715
 1721SOL    HW2 5484   2.656   2.483   5.098 -1.0928 -0.0967  1.1690
 1722SOL     OW 5485   3.707   2.616   3.587 -0.0903  0.2324  0.5571
 1722SOL    HW1 5486   3.798   2.642   3.554 -0.1557  0.2485  0.3915
 1722SOL    HW2 5487   3.666   2.550   3.525 -0.6384  1.0418  0.0323
 1723SOL     OW 5488   4.151   0.871   5.515 -0.3978 -0.2102  0.0815
 1723SOL    HW1 5489   4.054   0.882   5.539 -0.5118 -0.6405 -0.1618
 1723SOL    HW2 5490   4.160   0.797   5.448 -0.0946  0.9341 -1.1982
 1724SOL     OW 5491   5.352   2.966   1.356  0.0026 -0.0582  0.0089
 1724SOL    HW1 5492   5.449   2.980   1.339 -0.2629  0.1625 -1.4436
 1724SOL    HW2 5493   5.339   2.881   1.407  0.9002 -0.6321 -0.6840
 1725SOL     OW 5494   1.120   5.181   2.806  0.1962  0.6557  0.4263
 1725SOL    HW1 5495   1.196   5.147   2.862  0.5899 -1.4422 -1.2544
 1725SOL    HW2 5496   1.071   5.104   2.766 -0.4452  2.0561 -1.6311
 1726SOL     OW 5497   4.361   2.496   1.589 -0.1812 -0.0984  0.0339
 1726SOL    HW1 5498   4.274   2.460   1.555 -0.0087  1.6191 -2.6053
 1726SOL    HW2 5499   4.433   2.478   1.522  0.4652  2.5244 -0.1047
 1727SOL     OW 5500   4.967   4.179   4.304 -0.1168  0.0171 -0.3905
 1727SOL    HW1 5501   5.050   4.150   4.255 -0.6080  0.5264 -1.5711
 1727SOL    HW2 5502   4.979   4.164   4.402  1.9317  1.3725 -0.3737
 1728SOL     OW 5503   5.099   4.899   1.523 -0.1904 -0.5872  0.2918
 1728SOL    HW1 5504   5.094   4.851   1.611  0.6405 -1.1964  0.0070
 1728SOL    HW2 5505   5.188   4.943   1.513 -0.2805 -0.5160 -0.2437
 1729SOL     OW 5506   0.221   0.327   4.458  0.3485  0.4821 -0.2920
 1729SOL    HW1 5507   0.222   0.228   4.442  0.8459  0.5515 -0.6915
 1729SOL    HW2 5508   0.313   0.364   4.446  0.4313  0.7922  1.1601
 1730SOL     OW 5509   4.390   1.670   2.937  0.1071 -0.5333  0.5261
 1730SOL    HW1 5510   4.332   1.722   2.874 -0.6877 -0.8024  1.0301
 1730SOL    HW2 5511   4.396   1.718   3.024  2.5490  0.6981 -0.2233
 1731SOL     OW 5512   3.424   0.673   3.505  0.0932  0.0357 -0.1611
 1731SOL    HW1 5513   3.365   0.626   3.439  1.8541  0.9989 -2.5921
 1731SOL    HW2 5514   3.386   0.762   3.527  0.6638  0.7648 -1.9203
 1732SOL     OW 5515   1.458   1.846   0.346  0.0868 -0.2651 -0.3410
 1732SOL    HW1 5516   1.483   1.775   0.280  0.9451  0.2528 -0.5787
 1732SOL    HW2 5517   1.429   1.803   0.431  0.4007 -0.9050 -0.5523
 1733SOL     OW 5518   2.779   0.330   2.792  0.0352  0.3498  0.0394
 1733SOL    HW1 5519   2.831   0.313   2.709  1.4697  0.9125  0.7793
 1733SOL    HW2 5520   2.683   0.306   2.778  0.3653 -0.0934 -1.5782
 1734SOL     OW 5521   0.317   4.044   2.523  0.3368  0.1927 -0.2186
 1734SOL    HW1 5522   0.342   4.051   2.426 -0.5370 -1.0942 -0.5676
 1734SOL    HW2 5523   0.314   4.135   2.563  0.5714  0.7647 -1.4421
 1735SOL     OW 5524   1.990   1.486   0.134 -0.8267  0.7166 -0.1943
 1735SOL    HW1 5525   1.972   1.513   0.039  2.2140  0.7112 -0.8954
 1735SOL    HW2 5526   1.940   1.546   0.196 -1.7248  1.6897 -1.7802
 1736SOL     OW 5527   0.882   1.195   3.994  0.0588  0.3122 -0.0840
 1736SOL    HW1 5528   0.825   1.263   3.948  1.2277 -0.1960 -2.4215
 1736SOL    HW2 5529   0.973   1.192   3.952  0.5505 -1.6383  0.9516
 1737SOL     OW 5530   0.603   3.542   3.449 -0.1907  0.5303  0.0922
 1737SOL    HW1 5531   0.606   3.499   3.359 -1.9142 -0.5920  0.5216
 1737SOL    HW2 5532   0.582   3.473   3.519 -1.5493  1.7788  0.9882
 1738SOL     OW 5533   2.573   1.504   3.237  0.4843  0.2269  0.1502
 1738SOL    HW1 5534   2.509   1.558   3.182  0.1393 -1.7370 -1.4980
 1738SOL    HW2 5535   2.525   1.468   3.317 -0.3938 -0.8787 -0.8495
 1739SOL     OW 5536   3.013   1.435   4.642  0.1182 -0.0119 -0.0644
 1739SOL    HW1 5537   3.038   1.503   4.573 -0.4792 -0.6014 -0.8801
 1739SOL    HW2 5538   3.096   1.394   4.680  0.4516  0.2225 -0.5298
 1740SOL     OW 5539   4.889   1.799   4.599  0.5584  0.1024  0.2282
 1740SOL    HW1 5540   4.896   1.807   4.500  3.1460  0.8559  0.3927
 1740SOL    HW2 5541   4.801   1.836   4.630  0.1290  0.7609 -1.6811
 1741SOL     OW 5542   2.993   3.363   0.570  0.2572 -0.0138 -0.1448
 1741SOL    HW1 5543   3.031   3.441   0.520 -0.2021 -0.3288 -1.0013
 1741SOL    HW2 5544   2.893   3.368   0.570  0.2363  0.5839  1.7356
 1742SOL     OW 5545   2.950   2.170   4.645 -0.4134  0.2021 -0.1167
 1742SOL    HW1 5546   2.952   2.174   4.745 -0.0942  0.2615 -0.1230
 1742SOL    HW2 5547   2.951   2.263   4.608  2.4269  0.2380 -0.2056
 1743SOL     OW 5548   4.201   1.451   0.347 -0.1497 -0.4340  0.3762
 1743SOL    HW1 5549   4.257   1.367   0.345  0.9071  0.2553 -0.1294
 1743SOL    HW2 5550   4.170   1.469   0.440  0.5115 -0.8156  0.6756
 1744SOL     OW 5551   3.302   4.512   2.451 -0.0244  0.1691 -0.6894
 1744SOL    HW1 5552   3.301   4.419   2.487 -0.4281  0.7107  0.7718
 1744SOL    HW2 5553   3.396   4.546   2.447  0.0989 -0.2095 -0.9856
 1745SOL     OW 5554   2.811   4.043   2.905  0.1505 -0.1248  0.1945
 1745SOL    HW1 5555   2.724   3.998   2.923  0.2149 -0.3087  0.0545
 1745SOL    HW2 5556   2.878   4.015   2.974 -0.4993  1.7687  1.6833
 1746SOL     OW 5557   4.819   3.970   2.664  0.2812  0.2115  0.4575
 1746SOL    HW1 5558   4.782   4.015   2.746 -0.8064  2.8922 -1.3629
 1746SOL    HW2 5559   4.747   3.915   2.621  0.0500  0.8944 -0.0515
 1747SOL     OW 5560   3.883   0.779   3.397 -0.4592 -0.4707 -1.1331
 1747SOL    HW1 5561   3.966   0.755   3.346 -1.0796 -0.2150 -2.2917
 1747SOL    HW2 5562   3.806   0.727   3.361 -0.9758 -0.0271 -0.6765
 1748SOL     OW 5563   4.313   5.095   3.834  0.0893 -0.0163 -0.1682
 1748SOL    HW1 5564   4.400   5.130   3.869 -0.6781  0.9034  0.8928
 1748SOL    HW2 5565   4.256   5.172   3.803 -1.3994 -0.3135  1.6662
 1749SOL     OW 5566   3.590   2.732   3.259  0.2752  0.1301  0.5466
 1749SOL    HW1 5567   3.655   2.658   3.278  1.0621  0.8337  0.6055
 1749SOL    HW2 5568   3.533   2.706   3.181 -0.7022 -1.3195  1.6890
 1750SOL     OW 5569   0.217   4.718   0.594 -0.7349 -0.8606  0.0156
 1750SOL    HW1 5570   0.278   4.774   0.651 -0.1910 -1.9771  0.5736
 1750SOL    HW2 5571   0.125   4.719   0.633 -0.7746 -0.2180 -0.0858
 1751SOL     OW 5572   4.786   2.446   1.133 -0.1250  0.4716  0.5283
 1751SOL    HW1 5573   4.801   2.475   1.039  1.1115 -1.0052  0.2304
 1751SOL    HW2 5574   4.813   2.519   1.196 -2.1008  1.9446 -0.2284
 1752SOL     OW 5575   0.231   2.903   3.846  0.4304 -0.8649 -0.4479
 1752SOL    HW1 5576   0.265   2.811   3.868 -2.0684 -2.0184 -1.1043
 1752SOL    HW2 5577   0.140   2.896   3.807 -0.1458  1.9962  0.1997
 1753SOL     OW 5578   1.267   5.070   2.452  0.2290 -0.2486  0.3892
 1753SOL    HW1 5579   1.347   5.041   2.399 -0.3837  0.4111 -0.9424
 1753SOL    HW2 5580   1.259   5.014   2.534  2.4488  0.0986  0.9222
 1754SOL     OW 5581   3.190   1.992   5.483  0.1999  0.0888 -0.0149
 1754SOL    HW1 5582   3.197   2.088   5.511 -2.6528  0.1640  0.7776
 1754SOL    HW2 5583   3.167   1.987   5.386 -0.8474  0.2859  0.2130
 1755SOL     OW 5584   0.433   3.281   1.179 -0.1615 -0.6845  0.3227
 1755SOL    HW1 5585   0.432   3.371   1.136 -0.3100 -0.8870 -0.1053
 1755SOL    HW2 5586   0.527   3.249   1.189 -0.1086 -0.4636  0.5069
 1756SOL     OW 5587   3.468   1.442   4.623 -0.0573  0.6876 -0.4078
 1756SOL    HW1 5588   3.384   1.482   4.585 -0.4612  0.2423 -0.0023
 1756SOL    HW2 5589   3.452   1.345   4.642 -0.4829  1.2591  2.5959
 1757SOL     OW 5590   3.423   3.382   0.498  0.2569  0.2179 -0.0297
 1757SOL    HW1 5591   3.360   3.315   0.538  0.4723 -0.8182 -1.3658
 1757SOL    HW2 5592   3.399   3.398   0.402  1.6483  0.2759 -0.3872
 1758SOL     OW 5593   3.273   4.885   0.726 -0.5353  0.2360 -0.4748
 1758SOL    HW1 5594   3.300   4.884   0.630  1.6674 -1.8977  0.0530
 1758SOL    HW2 5595   3.194   4.826   0.740 -0.1341 -0.4016 -0.8383
 1759SOL     OW 5596   1.538   2.289   3.780  0.0267  0.2543 -0.4472
 1759SOL    HW1 5597   1.545   2.378   3.734 -0.5925  1.3410  1.4511
 1759SOL    HW2 5598   1.450   2.282   3.827 -0.1835 -1.6353 -1.0241
 1760SOL     OW 5599   3.449   1.417   3.157 -0.9228  0.3650 -0.0622
 1760SOL    HW1 5600   3.432   1.348   3.087 -1.0301  0.1857  0.1392
 1760SOL    HW2 5601   3.411   1.505   3.126 -2.0736  0.0150  0.2951
 1761SOL     OW 5602   4.523   4.648   2.455 -0.0251 -0.3047 -0.2395
 1761SOL    HW1 5603   4.508   4.565   2.400 -1.1388 -0.7544  0.7111
 1761SOL    HW2 5604   4.442   4.705   2.452  0.6503  0.6611 -0.6789
 1762SOL     OW 5605   0.891   5.028   1.226  0.8851 -0.3273 -0.1394
 1762SOL    HW1 5606   0.924   4.942   1.264  0.1554 -0.9014 -0.7845
 1762SOL    HW2 5607   0.792   5.022   1.209  0.4551  1.2289  1.4268
 1763SOL     OW 5608   3.065   1.185   0.425  0.2395  0.5420 -0.2348
 1763SOL    HW1 5609   3.057   1.120   0.501 -1.1284  1.5290  0.5231
 1763SOL    HW2 5610   3.040   1.277   0.457  1.5012  1.3519 -1.4307
 1764SOL     OW 5611   3.290   2.941   3.429 -0.8952 -0.3567  0.4168
 1764SOL    HW1 5612   3.277   3.038   3.448  0.1763  0.0686 -0.9188
 1764SOL    HW2 5613   3.276   2.923   3.332  0.9226 -1.1655  0.2617
 1765SOL     OW 5614   1.075   4.133   0.077 -0.6569 -0.2034 -0.2995
 1765SOL    HW1 5615   1.136   4.130   0.157 -0.2186 -0.0576 -0.6272
 1765SOL    HW2 5616   0.981   4.115   0.107 -0.4977 -0.1509  0.2525
 1766SOL     OW 5617   2.816   3.805   0.214  0.6844 -0.8238 -0.3146
 1766SOL    HW1 5618   2.798   3.717   0.170 -1.6899 -1.2381  1.2687
 1766SOL    HW2 5619   2.843   3.789   0.309 -1.2014  0.1207  0.4335
 1767SOL     OW 5620   1.246   4.361   0.013  0.1251 -0.2358  0.1752
 1767SOL    HW1 5621   1.196   4.275   0.023  0.6765 -0.6236 -0.2866
 1767SOL    HW2 5622   1.283   4.388   0.102  1.6839 -1.5817  0.0002
 1768SOL     OW 5623   0.898   1.171   2.948 -0.3835  0.4595 -0.0065
 1768SOL    HW1 5624   0.994   1.192   2.931 -0.9476  0.9519 -3.2111
 1768SOL    HW2 5625   0.883   1.072   2.937 -0.2769  0.3913  0.4348
 1769SOL     OW 5626   3.059   5.281   2.758  0.2744  0.1107  0.2467
 1769SOL    HW1 5627   3.034   5.309   2.666  0.1277 -0.9533 -0.0425
 1769SOL    HW2 5628   2.976   5.266   2.812  0.3443 -0.1442  0.2837
 1770SOL     OW 5629   0.852   3.333   4.106  0.1404  0.6182  0.3192
 1770SOL    HW1 5630   0.782   3.397   4.139 -0.4869 -0.0920  0.4000
 1770SOL    HW2 5631   0.869   3.264   4.176  1.7092  1.3808  0.7302
 1771SOL     OW 5632   3.487   3.996   5.463 -0.0492 -0.0642  0.2742
 1771SOL    HW1 5633   3.542   3.915   5.444 -0.2194 -0.3815  1.1095
 1771SOL    HW2 5634   3.544   4.065   5.507  0.4625  0.8511 -1.7062
 1772SOL     OW 5635   2.048   4.323   1.402 -0.6151 -0.1008 -0.0510
 1772SOL    HW1 5636   2.089   4.398   1.350 -2.1357 -0.1474 -1.3856
 1772SOL    HW2 5637   2.120   4.273   1.450  0.7392  0.5609 -1.3080
 1773SOL     OW 5638   3.907   1.401   2.562  0.2158 -0.1615  0.3020
 1773SOL    HW1 5639   3.835   1.372   2.625  0.4753  1.0064  1.1813
 1773SOL    HW2 5640   3.995   1.367   2.593  0.0246 -2.0937 -1.0999
 1774SOL     OW 5641   5.444   1.952   1.363 -0.1011  0.3962  0.1446
 1774SOL    HW1 5642   5.441   2.030   1.299 -0.8073  0.5716  0.3831
 1774SOL    HW2 5643   5.450   1.986   1.456 -2.5177  0.2447  0.4057
 1775SOL     OW 5644   0.485   4.909   2.568 -0.0212  0.1368 -0.4801
 1775SOL    HW1 5645   0.504   4.914   2.666  0.7399 -0.2793 -0.6018
 1775SOL    HW2 5646   0.485   5.002   2.529  0.0551  0.2701 -0.1590
 1776SOL     OW 5647   0.211   5.379   5.219 -0.3329 -0.1295 -0.0266
 1776SOL    HW1 5648   0.276   5.416   5.286 -0.2804 -0.9954  0.4169
 1776SOL    HW2 5649   0.120   5.415   5.237 -0.2494 -0.0662  0.2790
 1777SOL     OW 5650   5.488   3.729   2.652 -0.0009  0.3688 -0.4076
 1777SOL    HW1 5651   5.549   3.677   2.712 -0.7537  0.5166  0.5088
 1777SOL    HW2 5652   5.422   3.780   2.708  0.0923  1.5296 -1.3221
 1778SOL     OW 5653   3.869   5.386   4.233 -1.1490  0.2044  0.4305
 1778SOL    HW1 5654   3.891   5.426   4.322 -0.5290 -0.5711  0.6372
 1778SOL    HW2 5655   3.877   5.457   4.162  0.7609  0.2907  0.6798
 1779SOL     OW 5656   0.894   0.255   4.721 -0.0081 -0.5458 -0.0127
 1779SOL    HW1 5657   0.834   0.277   4.799  0.3031  1.4061 -0.2633
 1779SOL    HW2 5658   0.989   0.253   4.751  0.1325  0.4246 -0.3520
 1780SOL     OW 5659   2.407   1.865   4.108  0.0072  0.6694 -0.6770
 1780SOL    HW1 5660   2.489   1.890   4.159 -0.2463 -2.0807  1.2677
 1780SOL    HW2 5661   2.430   1.796   4.039 -1.0482 -3.5031  2.7369
 1781SOL     OW 5662   2.276   4.062   4.947  0.2155  0.1157  0.0034
 1781SOL    HW1 5663   2.370   4.090   4.968  0.3213  0.3541 -0.7462
 1781SOL    HW2 5664   2.244   4.113   4.867 -0.4623 -0.1512  0.1042
 1782SOL     OW 5665   0.863   4.138   2.984  0.3174  0.1822  0.0455
 1782SOL    HW1 5666   0.809   4.221   2.966  0.0722 -0.1789 -0.9292
 1782SOL    HW2 5667   0.827   4.092   3.066 -0.9367 -0.1061 -0.6417
 1783SOL     OW 5668   4.427   1.434   2.074 -0.6894  0.2460  0.0617
 1783SOL    HW1 5669   4.371   1.468   1.999 -1.5631  0.1845  0.6667
 1783SOL    HW2 5670   4.368   1.402   2.149  0.0985 -1.8086 -0.1163
 1784SOL     OW 5671   1.864   1.885   1.776  0.0862  0.3051 -0.2683
 1784SOL    HW1 5672   1.867   1.971   1.725  1.1645  0.9205  0.7877
 1784SOL    HW2 5673   1.804   1.821   1.729 -0.4224  1.4905 -1.2953
 1785SOL     OW 5674   0.491   0.696   2.915  0.7431  0.3776  0.2899
 1785SOL    HW1 5675   0.420   0.743   2.864  0.5227 -0.3768 -0.1049
 1785SOL    HW2 5676   0.509   0.606   2.874  0.8188 -0.0910  1.3150
 1786SOL     OW 5677   0.446   1.030   4.898  0.1032 -0.1149  0.1514
 1786SOL    HW1 5678   0.545   1.033   4.882  0.0238  1.2618 -0.2046
 1786SOL    HW2 5679   0.401   0.989   4.819  0.6055 -4.1292  1.7069
 1787SOL     OW 5680   5.132   2.616   2.223 -0.7001  0.3140 -0.0424
 1787SOL    HW1 5681   5.080   2.573   2.149 -0.0939 -1.5118  0.5371
 1787SOL    HW2 5682   5.108   2.713   2.228 -1.9895  0.1234 -1.5378
 1788SOL     OW 5683   1.425   4.608   4.023  0.3466 -0.0176 -0.4235
 1788SOL    HW1 5684   1.367   4.614   3.943 -0.3379 -0.3032  0.0453
 1788SOL    HW2 5685   1.463   4.698   4.044 -0.9583  0.4480  0.0218
 1789SOL     OW 5686   2.962   2.552   3.590  0.0323  0.5358  0.2760
 1789SOL    HW1 5687   2.902   2.611   3.536  1.6299  2.3850  0.4259
 1789SOL    HW2 5688   2.975   2.592   3.681  0.3407 -0.6033  0.7459
 1790SOL     OW 5689   2.638   5.445   4.223  0.5655  0.7299 -0.7684
 1790SOL    HW1 5690   2.663   5.358   4.181  0.2244  1.3673 -2.3299
 1790SOL    HW2 5691   2.660   5.442   4.321  0.3278 -1.1892 -0.7434
 1791SOL     OW 5692   5.169   5.238   2.612  0.0481  0.4960  0.1976
 1791SOL    HW1 5693   5.141   5.310   2.549 -0.9606 -0.7150 -0.7949
 1791SOL    HW2 5694   5.088   5.190   2.646  0.7083 -0.3372  0.6361
 1792SOL     OW 5695   2.758   0.705   0.166 -0.1756 -0.5474 -0.0386
 1792SOL    HW1 5696   2.756   0.710   0.066  1.7433  0.6415 -0.0719
 1792SOL    HW2 5697   2.699   0.777   0.205  1.6964  1.2718 -0.3909
 1793SOL     OW 5698   4.401   2.770   1.603  0.6861  0.1692  0.6285
 1793SOL    HW1 5699   4.320   2.824   1.584 -0.1165 -1.1770  0.1199
 1793SOL    HW2 5700   4.376   2.673   1.612  2.2770 -0.3303  0.0558
 1794SOL     OW 5701   2.726   1.263   1.287  0.0880 -0.1875  0.0175
 1794SOL    HW1 5702   2.667   1.286   1.210 -1.8594 -0.1707  1.4285
 1794SOL    HW2 5703   2.708   1.327   1.363  0.6954 -1.2311  1.0717
 1795SOL     OW 5704   3.014   0.873   2.174  0.0525  0.0626 -0.9396
 1795SOL    HW1 5705   3.025   0.779   2.206 -1.5934  0.6489  1.6446
 1795SOL    HW2 5706   2.960   0.874   2.090  0.3320 -1.2926 -1.1594
 1796SOL     OW 5707   4.828   1.795   5.409 -0.1262 -0.2725  0.3896
 1796SOL    HW1 5708   4.901   1.805   5.476  0.1282  0.0350  0.0702
 1796SOL    HW2 5709   4.797   1.886   5.380 -0.9341 -0.3893  0.8438
 1797SOL     OW 5710   4.768   4.224   1.053 -0.2963  0.5361 -0.3377
 1797SOL    HW1 5711   4.830   4.193   1.126 -1.1336  0.3518  0.3066
 1797SOL    HW2 5712   4.689   4.270   1.094  0.1048  2.0585 -1.2097
 1798SOL     OW 5713   1.610   1.898   4.961 -0.3415 -0.3739 -0.1551
 1798SOL    HW1 5714   1.541   1.959   4.923  0.2135  0.4547  0.1465
 1798SOL    HW2 5715   1.616   1.815   4.906 -0.0579  0.4792 -1.4482
 1799SOL     OW 5716   4.592   3.012   2.240  0.0923  0.1523  0.0654
 1799SOL    HW1 5717   4.556   3.102   2.216  1.6856  0.8207  0.0672
 1799SOL    HW2 5718   4.582   2.950   2.162 -0.8296  0.3632 -0.0013
 1800SOL     OW 5719   5.515   5.344   0.474  0.2859  0.0097  0.3799
 1800SOL    HW1 5720   5.431   5.302   0.439  0.0910  0.0677  0.7703
 1800SOL    HW2 5721   5.578   5.360   0.398 -0.2879  0.5073 -0.0118
 1801SOL     OW 5722   1.444   0.791   2.195  0.4645  0.2429  0.3179
 1801SOL    HW1 5723   1.511   0.864   2.209  0.8079 -0.0053  0.0044
 1801SOL    HW2 5724   1.369   0.826   2.139  0.5954  0.3779  0.2244
 1802SOL     OW 5725   0.065   0.488   1.282 -0.5893 -0.0534 -0.2450
 1802SOL    HW1 5726  -0.031   0.516   1.278 -0.5971 -0.0177  0.1763
 1802SOL    HW2 5727   0.096   0.461   1.190 -0.9936 -0.0401 -0.3858
 1803SOL     OW 5728   3.120   0.496   3.511  0.3633 -0.3155 -0.0817
 1803SOL    HW1 5729   3.033   0.453   3.484 -1.0706  2.1550  0.2417
 1803SOL    HW2 5730   3.137   0.479   3.608 -1.3988  1.5692  0.6438
 1804SOL     OW 5731   4.723   0.783   3.395  0.3427  1.2003 -0.1842
 1804SOL    HW1 5732   4.777   0.797   3.478  0.4662  2.5027 -0.4673
 1804SOL    HW2 5733   4.712   0.685   3.379  2.5120  0.8856 -0.0380
 1805SOL     OW 5734   5.062   2.180   4.676 -0.6254 -0.3607  0.4467
 1805SOL    HW1 5735   5.152   2.143   4.655 -0.0359  0.7446  0.9620
 1805SOL    HW2 5736   5.004   2.177   4.594  0.3549  0.2654 -0.2824
 1806SOL     OW 5737   1.264   3.259   4.032 -0.3236  0.8174  0.4809
 1806SOL    HW1 5738   1.301   3.231   3.943  2.0992  0.2287  1.6060
 1806SOL    HW2 5739   1.275   3.185   4.098 -0.2273  1.9365  1.7587
 1807SOL     OW 5740   2.111   1.948   2.696  0.3033 -0.0239 -0.0295
 1807SOL    HW1 5741   2.045   2.011   2.737  1.3880  1.2033 -0.0981
 1807SOL    HW2 5742   2.117   1.865   2.751 -0.0779  0.5577  0.9107
 1808SOL     OW 5743   3.145   1.704   0.162 -0.0858 -0.1690 -0.1994
 1808SOL    HW1 5744   3.097   1.779   0.118  0.7792  0.3373 -0.2985
 1808SOL    HW2 5745   3.101   1.617   0.138 -0.9960  0.2831 -0.2036
 1809SOL     OW 5746   0.800   4.628   3.426 -0.0840  0.0438 -0.0591
 1809SOL    HW1 5747   0.844   4.606   3.513  0.3547  3.5706  0.7529
 1809SOL    HW2 5748   0.786   4.727   3.420 -2.2320 -0.3239 -3.0372
 1810SOL     OW 5749   2.203   0.362   5.362 -0.1171  0.2797 -0.1060
 1810SOL    HW1 5750   2.230   0.459   5.364 -0.6948  0.4594 -0.5315
 1810SOL    HW2 5751   2.120   0.353   5.307  0.0710 -0.4948 -0.2667
 1811SOL     OW 5752   5.081   3.713   1.671 -0.3552 -0.2553 -0.1170
 1811SOL    HW1 5753   5.151   3.724   1.601  1.2909 -1.2755  1.2818
 1811SOL    HW2 5754   5.019   3.639   1.645 -2.7041  2.3511 -2.6539
 1812SOL     OW 5755   4.358   4.408   1.802  0.3378 -0.0025  0.0381
 1812SOL    HW1 5756   4.359   4.500   1.763  2.2212 -0.2716 -0.6638
 1812SOL    HW2 5757   4.448   4.366   1.790 -0.9573 -2.6293 -1.2677
 1813SOL     OW 5758   2.892   0.391   3.031  0.2705 -0.5391  0.6297
 1813SOL    HW1 5759   2.824   0.371   3.100 -2.1371  3.4234 -0.2657
 1813SOL    HW2 5760   2.856   0.368   2.940  0.3934  0.8043  0.2095
 1814SOL     OW 5761   3.921   5.458   4.500 -0.3239 -0.1537 -0.0740
 1814SOL    HW1 5762   3.983   5.380   4.504  0.1559  0.1384 -1.3282
 1814SOL    HW2 5763   3.896   5.485   4.593  0.5068 -0.9924  0.4174
 1815SOL     OW 5764   0.712   4.224   3.541 -0.1014 -0.0731 -0.4214
 1815SOL    HW1 5765   0.675   4.143   3.496 -0.6236  0.2245 -0.5258
 1815SOL    HW2 5766   0.649   4.256   3.611 -0.0984  0.4977 -0.6749
 1816SOL     OW 5767   0.848   3.548   1.119 -0.0372 -0.6794 -0.1173
 1816SOL    HW1 5768   0.844   3.620   1.050 -1.2016 -0.8263 -0.2260
 1816SOL    HW2 5769   0.942   3.537   1.150  0.3115  0.2145 -0.8038
 1817SOL     OW 5770   2.787   3.156   4.594 -0.0794 -0.2604 -0.1747
 1817SOL    HW1 5771   2.829   3.223   4.534  2.5937 -0.8116  0.9609
 1817SOL    HW2 5772   2.750   3.081   4.539  0.7050  0.0913 -1.2240
 1818SOL     OW 5773   5.336   5.321   4.856 -0.4256 -0.2584  0.7657
 1818SOL    HW1 5774   5.370   5.382   4.927  0.6822 -0.6706  0.5995
 1818SOL    HW2 5775   5.261   5.366   4.806 -1.4381 -0.0860  2.3680
 1819SOL     OW 5776   1.025   1.436   0.596 -0.6401  0.0637  0.5296
 1819SOL    HW1 5777   1.053   1.452   0.691 -1.0359 -0.1129  0.6777
 1819SOL    HW2 5778   0.994   1.522   0.555  1.2320  0.5293 -0.0240
 1820SOL     OW 5779   0.438   1.422   4.182  0.0398  0.7406  0.0832
 1820SOL    HW1 5780   0.407   1.474   4.261 -1.0513  0.9011 -0.4317
 1820SOL    HW2 5781   0.486   1.482   4.119  0.5060  0.7053  0.3962
 1821SOL     OW 5782   5.199   1.934   3.533 -0.4073 -0.0577 -0.2396
 1821SOL    HW1 5783   5.159   1.998   3.467  0.7107  0.0049 -0.8660
 1821SOL    HW2 5784   5.138   1.856   3.544 -0.9083  0.2369 -0.8592
 1822SOL     OW 5785   5.288   3.788   4.477  0.2717 -0.2184 -0.8992
 1822SOL    HW1 5786   5.258   3.852   4.548  1.5214 -0.6980  0.1024
 1822SOL    HW2 5787   5.383   3.808   4.452  0.0848 -0.5283 -1.9236
 1823SOL     OW 5788   2.583   2.890   3.422  0.3053  0.1293 -0.5198
 1823SOL    HW1 5789   2.642   2.950   3.476  0.1760 -1.4693  1.4855
 1823SOL    HW2 5790   2.521   2.840   3.482 -0.8848 -0.6648 -2.3043
 1824SOL     OW 5791   2.951   4.407   1.749  0.5141  0.2454  0.1969
 1824SOL    HW1 5792   2.889   4.453   1.685  2.5579  1.1611 -1.2159
 1824SOL    HW2 5793   2.899   4.339   1.801 -1.7588  1.2799 -0.5580
 1825SOL     OW 5794   0.544   3.235   1.793  0.2383 -0.5918 -0.2510
 1825SOL    HW1 5795   0.530   3.258   1.696  1.1482 -1.0583 -0.5043
 1825SOL    HW2 5796   0.529   3.316   1.849  1.0962  0.0363 -0.9136
 1826SOL     OW 5797   3.565   3.834   2.299  0.0180 -0.2577 -0.3988
 1826SOL    HW1 5798   3.522   3.923   2.313  1.3758 -0.0290  3.6817
 1826SOL    HW2 5799   3.540   3.772   2.373 -0.1429 -3.1023 -2.6101
 1827SOL     OW 5800   1.907   5.321   4.844  0.0539  0.2300  0.7528
 1827SOL    HW1 5801   1.951   5.328   4.755 -0.7703  1.5741  0.4293
 1827SOL    HW2 5802   1.936   5.236   4.889  0.1375 -0.6842 -0.9665
 1828SOL     OW 5803   3.401   2.072   0.764  0.0271  0.6882 -0.4237
 1828SOL    HW1 5804   3.471   2.144   0.762 -0.5617  1.2511 -1.6204
 1828SOL    HW2 5805   3.386   2.038   0.672 -2.2567  1.5543 -0.4200
 1829SOL     OW 5806   0.430   0.584   1.356  0.0028  0.3689  0.7718
 1829SOL    HW1 5807   0.456   0.564   1.450  1.0926  0.3719  0.4848
 1829SOL    HW2 5808   0.366   0.661   1.355  3.3610  3.4624  1.3123
 1830SOL     OW 5809   4.503   3.211   2.574  0.4315  0.6422 -0.2541
 1830SOL    HW1 5810   4.591   3.169   2.552  1.1019  1.7557  0.2048
 1830SOL    HW2 5811   4.462   3.163   2.652  0.2059 -0.4318 -1.0192
 1831SOL     OW 5812   3.722   3.437   3.230 -0.5401  0.5818 -0.3243
 1831SOL    HW1 5813   3.643   3.446   3.290 -0.7315 -0.7986 -0.3376
 1831SOL    HW2 5814   3.763   3.527   3.214 -1.3835  1.1497  0.6492
 1832SOL     OW 5815   3.196   4.230   2.789  0.2775  0.8816 -0.2937
 1832SOL    HW1 5816   3.237   4.156   2.843 -0.9769  0.1320 -0.3303
 1832SOL    HW2 5817   3.234   4.317   2.819  1.7938  0.2371 -0.2531
 1833SOL     OW 5818   4.244   3.001   1.862 -0.3696 -0.4095  0.3470
 1833SOL    HW1 5819   4.249   2.960   1.953 -2.6524  0.4932  0.9394
 1833SOL    HW2 5820   4.336   3.005   1.823  0.7076 -0.6655  2.6685
 1834SOL     OW 5821   1.734   1.855   4.149  0.1186  0.1042 -0.1777
 1834SOL    HW1 5822   1.672   1.877   4.073  0.0206 -0.0656 -0.1483
 1834SOL    HW2 5823   1.829   1.863   4.118  0.0764 -0.5021 -0.4779
 1835SOL     OW 5824   2.128   3.110   0.997 -0.4254  0.0512 -0.1969
 1835SOL    HW1 5825   2.176   3.031   1.035 -0.0958 -0.2381 -1.2066
 1835SOL    HW2 5826   2.043   3.081   0.954 -1.8772  0.6297  2.1071
 1836SOL     OW 5827   0.904   0.557   3.032 -0.2793  0.3087 -0.0026
 1836SOL    HW1 5828   0.888   0.591   2.940 -0.2042 -0.7144 -0.4037
 1836SOL    HW2 5829   0.818   0.522   3.070 -0.5470  1.6977  0.7428
 1837SOL     OW 5830   3.588   2.665   4.572 -0.0540 -0.3228  0.1836
 1837SOL    HW1 5831   3.498   2.699   4.597 -0.2975 -0.3391 -0.6486
 1837SOL    HW2 5832   3.595   2.659   4.473  1.3673  1.0928  0.1579
 1838SOL     OW 5833   2.113   3.500   2.177  0.0576 -0.0425  0.0662
 1838SOL    HW1 5834   2.037   3.484   2.239  0.2423 -2.1213 -0.1610
 1838SOL    HW2 5835   2.197   3.465   2.218  0.9447  2.1629  0.2893
 1839SOL     OW 5836   5.362   1.316   1.163 -0.2829 -0.4600 -0.0779
 1839SOL    HW1 5837   5.413   1.384   1.110 -2.6918  1.2586 -0.3815
 1839SOL    HW2 5838   5.405   1.226   1.153  1.5670  0.5239 -1.7338
 1840SOL     OW 5839   0.716   2.720   1.018  0.2805  0.2224 -0.2890
 1840SOL    HW1 5840   0.726   2.660   0.938 -0.5319 -0.4590  0.1019
 1840SOL    HW2 5841   0.655   2.676   1.085  1.7751  0.3108  1.1769
 1841SOL     OW 5842   4.273   2.907   2.113  0.0319 -0.0317  0.1123
 1841SOL    HW1 5843   4.350   2.845   2.101 -0.6847 -0.9957  0.3443
 1841SOL    HW2 5844   4.274   2.946   2.205  0.3722  0.1541  0.0307
 1842SOL     OW 5845   5.403   1.534   4.156 -0.3065  0.1842  0.0874
 1842SOL    HW1 5846   5.428   1.588   4.076 -0.0045 -0.5705 -0.3420
 1842SOL    HW2 5847   5.371   1.594   4.229 -1.0837  0.8475 -0.7838
 1843SOL     OW 5848   3.210   3.214   2.898  0.0142  0.2691  0.2167
 1843SOL    HW1 5849   3.223   3.313   2.890 -0.0028  0.1493 -1.6428
 1843SOL    HW2 5850   3.173   3.178   2.813 -1.8387 -1.0911  1.5224
 1844SOL     OW 5851   0.168   2.186   1.296 -0.2005 -0.0843  0.6515
 1844SOL    HW1 5852   0.217   2.203   1.382  0.3488  2.9449 -0.1347
 1844SOL    HW2 5853   0.234   2.179   1.221 -0.7815 -0.5893  0.1771
 1845SOL     OW 5854   4.464   3.454   1.320  0.1284 -0.3333 -0.1600
 1845SOL    HW1 5855   4.532   3.527   1.313  1.3265 -1.3421  0.5308
 1845SOL    HW2 5856   4.381   3.491   1.363  0.4069  0.8013 -0.5496
 1846SOL     OW 5857   3.656   1.009   2.345 -0.2982  0.5529 -0.0721
 1846SOL    HW1 5858   3.619   1.088   2.297  0.6140  0.5633 -0.7868
 1846SOL    HW2 5859   3.626   0.925   2.300 -0.6437  0.5095  0.2317
 1847SOL     OW 5860   3.424   0.494   2.657 -0.2166  0.1458  0.6183
 1847SOL    HW1 5861   3.358   0.458   2.724  0.7194 -2.6245  0.1820
 1847SOL    HW2 5862   3.377   0.555   2.594 -2.7061 -2.4758 -0.3017
 1848SOL     OW 5863   1.044   1.697   0.101 -0.4039 -0.2930 -0.0094
 1848SOL    HW1 5864   0.999   1.679   0.188  0.6108  1.2719  0.8978
 1848SOL    HW2 5865   1.088   1.787   0.104  1.6437 -1.1681 -1.3079
 1849SOL     OW 5866   2.830   0.478   5.240 -0.2058 -0.3124  0.1481
 1849SOL    HW1 5867   2.880   0.564   5.255 -0.2911  0.0385 -1.4741
 1849SOL    HW2 5868   2.886   0.401   5.272  0.1558  0.2807  0.9870
 1850SOL     OW 5869   4.432   3.660   0.403  0.1934  1.4254 -0.4986
 1850SOL    HW1 5870   4.524   3.623   0.414 -0.3036  0.3898  0.3893
 1850SOL    HW2 5871   4.426   3.747   0.452  0.0883  0.3758  1.4708
 1851SOL     OW 5872   2.988   5.055   1.714 -0.7152  0.3522  0.2161
 1851SOL    HW1 5873   2.959   4.960   1.726  1.1262  0.0221  2.9954
 1851SOL    HW2 5874   2.963   5.109   1.795  1.5687  1.2739  0.3820
 1852SOL     OW 5875   0.262   3.680   2.596 -0.0277  0.2925  0.1374
 1852SOL    HW1 5876   0.271   3.756   2.660  0.0935  0.6448 -0.2975
 1852SOL    HW2 5877   0.331   3.688   2.524  0.1535 -0.3698  0.2325
 1853SOL     OW 5878   1.850   2.769   0.880  0.5132  0.0308  0.1041
 1853SOL    HW1 5879   1.818   2.834   0.949 -1.3666 -0.4351 -0.2471
 1853SOL    HW2 5880   1.923   2.810   0.826 -0.8742  2.0168 -0.3647
 1854SOL     OW 5881   3.455   5.220   0.362  0.7428  0.2178 -0.6667
 1854SOL    HW1 5882   3.501   5.134   0.382 -1.8505 -0.3588  4.4507
 1854SOL    HW2 5883   3.493   5.292   0.419 -0.3240  1.2662 -1.2417
 1855SOL     OW 5884   1.920   1.422   4.169  0.0474  0.0693 -0.2702
 1855SOL    HW1 5885   1.950   1.498   4.111  0.4427 -1.0565 -1.5937
 1855SOL    HW2 5886   1.989   1.349   4.167 -1.1224 -1.0748 -0.4867
 1856SOL     OW 5887   4.460   4.561   5.016  0.3805 -0.5774 -0.1285
 1856SOL    HW1 5888   4.421   4.613   4.940 -0.6123 -2.0943 -0.6953
 1856SOL    HW2 5889   4.391   4.552   5.089  1.1763  0.4861  0.7829
 1857SOL     OW 5890   3.444   3.956   1.607  0.1550  0.4940 -0.2344
 1857SOL    HW1 5891   3.462   4.016   1.685  1.3195 -0.2747  0.1208
 1857SOL    HW2 5892   3.463   3.861   1.632  1.8097  0.3562 -1.7931
 1858SOL     OW 5893   4.352   2.995   0.468 -0.0208 -0.0316  0.1478
 1858SOL    HW1 5894   4.261   2.974   0.434  0.6452 -0.7556 -1.2484
 1858SOL    HW2 5895   4.356   3.092   0.494 -1.2177 -0.0319  0.3856
 1859SOL     OW 5896   3.091   0.558   4.955  0.3105 -0.3215 -0.1229
 1859SOL    HW1 5897   3.001   0.600   4.946 -0.3708 -1.5100  0.8144
 1859SOL    HW2 5898   3.161   0.630   4.958 -0.6189  0.6312 -0.5707
 1860SOL     OW 5899   1.948   1.155   3.375  0.1311  0.1068 -0.2998
 1860SOL    HW1 5900   2.008   1.112   3.307 -0.8378  0.3253 -1.3337
 1860SOL    HW2 5901   1.863   1.183   3.330 -0.3599  0.6432  0.9358
 1861SOL     OW 5902   2.542   1.300   1.576  0.1126  0.2538 -0.3253
 1861SOL    HW1 5903   2.560   1.380   1.519  0.6495  0.8221  0.6166
 1861SOL    HW2 5904   2.619   1.284   1.637 -0.1862 -0.7118 -0.1802
 1862SOL     OW 5905   4.910   4.664   4.938  0.8125 -0.3526  0.0102
 1862SOL    HW1 5906   5.010   4.660   4.936  0.7581 -2.5347 -1.1415
 1862SOL    HW2 5907   4.874   4.642   4.847 -0.7467  0.1465  0.4706
 1863SOL     OW 5908   3.845   1.906   2.657  0.3675  0.0824  0.1642
 1863SOL    HW1 5909   3.914   1.978   2.646 -0.3766  0.7022 -0.6303
 1863SOL    HW2 5910   3.809   1.908   2.750  2.6078 -1.3742  1.1400
 1864SOL     OW 5911   3.210   2.899   4.719 -0.1719 -0.0564  0.5883
 1864SOL    HW1 5912   3.271   2.914   4.797 -1.5115  0.9952  1.4855
 1864SOL    HW2 5913   3.262   2.863   4.642  1.3860 -0.0964  1.6243
 1865SOL     OW 5914   4.247   0.112   3.064  0.1085 -0.0634 -0.1229
 1865SOL    HW1 5915   4.317   0.042   3.078  1.0182  0.6539 -0.8617
 1865SOL    HW2 5916   4.178   0.079   3.001  0.0284 -0.6261  0.2599
 1866SOL     OW 5917   2.566   2.010   4.727 -0.6596 -0.4544  0.3287
 1866SOL    HW1 5918   2.579   2.056   4.815 -1.3452 -1.2387  0.8623
 1866SOL    HW2 5919   2.611   1.921   4.729 -0.1069 -0.2021 -0.3700
 1867SOL     OW 5920   0.562   5.356   1.950 -0.1342 -0.0994 -0.1273
 1867SOL    HW1 5921   0.473   5.320   1.977  0.2899 -1.4232 -0.4170
 1867SOL    HW2 5922   0.585   5.323   1.858 -0.1880  1.8146 -0.8789
 1868SOL     OW 5923   0.370   1.562   0.173 -0.0194  0.3436  0.4586
 1868SOL    HW1 5924   0.385   1.527   0.081  0.7204 -1.8062  1.3324
 1868SOL    HW2 5925   0.290   1.517   0.214  1.4921 -1.1397  1.9420
 1869SOL     OW 5926   3.448   3.423   2.387 -0.0066 -0.1204 -0.2290
 1869SOL    HW1 5927   3.481   3.406   2.294  0.6811 -1.2477  0.1966
 1869SOL    HW2 5928   3.518   3.393   2.453  0.7175  3.1536  0.6691
 1870SOL     OW 5929   0.716   1.022   0.498 -0.2146 -0.4850 -0.0564
 1870SOL    HW1 5930   0.813   1.001   0.511 -0.2797 -0.9510 -0.3138
 1870SOL    HW2 5931   0.675   0.955   0.436 -0.4432  0.3454 -0.8361
 1871SOL     OW 5932   3.763   4.507   4.307  0.4269  0.2651  0.4873
 1871SOL    HW1 5933   3.811   4.429   4.267 -1.2970 -1.2594  1.2753
 1871SOL    HW2 5934   3.823   4.552   4.373  1.7179  0.1218 -0.5262
 1872SOL     OW 5935   0.712   4.311   1.803  0.1364  0.2863  0.3637
 1872SOL    HW1 5936   0.751   4.332   1.893  1.0334 -1.0259  0.2976
 1872SOL    HW2 5937   0.612   4.308   1.811  0.2454 -0.8929  1.5774
 1873SOL     OW 5938   1.908   0.469   0.260 -0.5982 -0.1551  0.4144
 1873SOL    HW1 5939   1.850   0.548   0.242 -1.7877 -1.1206 -0.1892
 1873SOL    HW2 5940   1.964   0.449   0.180  0.4093  0.6292  0.9089
 1874SOL     OW 5941   3.470   5.274   4.246  0.8607 -0.2860 -0.6535
 1874SOL    HW1 5942   3.460   5.359   4.297 -0.6747 -2.3519  2.9497
 1874SOL    HW2 5943   3.566   5.244   4.251  1.0716  0.3999 -0.4445
 1875SOL     OW 5944   1.555   3.654   5.246 -0.1244 -0.2953  0.7851
 1875SOL    HW1 5945   1.485   3.720   5.275  1.5044  1.4264  1.0435
 1875SOL    HW2 5946   1.631   3.656   5.312  2.0667  1.0828 -1.6135
 1876SOL     OW 5947   1.732   3.865   0.433  0.2700 -0.3904 -0.0703
 1876SOL    HW1 5948   1.668   3.905   0.498  0.6058 -0.3999  0.2736
 1876SOL    HW2 5949   1.717   3.904   0.342  0.6951  0.6407  0.2890
 1877SOL     OW 5950   2.626   3.404   3.705  0.3228  0.5837 -0.0108
 1877SOL    HW1 5951   2.558   3.402   3.779  0.4697  3.0131  0.2713
 1877SOL    HW2 5952   2.592   3.461   3.631  1.0400 -0.2010 -0.9701
 1878SOL     OW 5953   2.033  -0.002   1.011  0.1919  0.2301 -0.1022
 1878SOL    HW1 5954   2.029   0.097   0.997 -0.1707  0.6454  2.3736
 1878SOL    HW2 5955   2.127  -0.034   1.003  0.3699  0.8468 -0.4912
 1879SOL     OW 5956   4.858   4.105   3.199  0.1580  0.0837  0.0144
 1879SOL    HW1 5957   4.902   4.192   3.180  0.9662 -0.2343  0.3773
 1879SOL    HW2 5958   4.868   4.082   3.296  1.8877 -1.4169 -0.4606
 1880SOL     OW 5959   1.264   3.970   1.165  0.0618  0.1898  0.5646
 1880SOL    HW1 5960   1.326   3.894   1.146  0.9726  1.0040  0.1569
 1880SOL    HW2 5961   1.171   3.936   1.180  0.4538 -0.9841  0.3785
 1881SOL     OW 5962   2.514   5.486   0.234  0.0753  0.2725 -0.1548
 1881SOL    HW1 5963   2.464   5.550   0.176  0.5281  0.4899 -0.3086
 1881SOL    HW2 5964   2.497   5.508   0.330  1.4266  1.6053 -0.1838
 1882SOL     OW 5965   2.966   2.561   5.155  0.3893 -0.0212  1.0244
 1882SOL    HW1 5966   2.904   2.576   5.231  1.0610  1.0779  1.3839
 1882SOL    HW2 5967   2.976   2.646   5.103 -0.1676 -0.7818 -0.3918
 1883SOL     OW 5968   3.177   4.660   0.060 -0.0228 -0.3562 -0.0417
 1883SOL    HW1 5969   3.238   4.739   0.071 -0.0106 -0.1002 -1.6280
 1883SOL    HW2 5970   3.155   4.622   0.149  0.3730  1.1414  0.7309
 1884SOL     OW 5971   1.882   1.681   2.513 -0.2416  0.4361  0.1051
 1884SOL    HW1 5972   1.956   1.738   2.476  1.5341 -0.2038  2.4013
 1884SOL    HW2 5973   1.845   1.724   2.595 -1.7769  0.2592 -0.4748
 1885SOL     OW 5974   0.008   3.965   0.348 -0.3256 -0.0927 -0.1853
 1885SOL    HW1 5975   0.019   3.982   0.446 -0.1722 -0.6794 -0.0982
 1885SOL    HW2 5976   0.055   4.036   0.297  0.1377 -0.1353  0.1713
 1886SOL     OW 5977   0.875   5.118   0.064  0.2394 -0.2367 -0.6390
 1886SOL    HW1 5978   0.960   5.093   0.017  1.3253 -1.6363  1.8942
 1886SOL    HW2 5979   0.852   5.048   0.131  0.8691  3.2368  3.6507
 1887SOL     OW 5980   4.726   0.991   4.738  0.4841  0.2784 -0.3683
 1887SOL    HW1 5981   4.694   1.069   4.685  1.2283  0.3244 -0.7635
 1887SOL    HW2 5982   4.825   0.999   4.752  0.4221 -0.1437  0.3398
 1888SOL     OW 5983   0.709   5.061   3.288  0.0632 -0.0368  0.1552
 1888SOL    HW1 5984   0.755   5.020   3.368 -0.6150 -1.9365 -0.3650
 1888SOL    HW2 5985   0.774   5.069   3.213  0.1034 -0.6737  0.1118
 1889SOL     OW 5986   3.851   2.649   0.680  0.4599 -0.3200  0.3248
 1889SOL    HW1 5987   3.779   2.611   0.738 -0.1513 -1.5837 -1.1776
 1889SOL    HW2 5988   3.918   2.578   0.659  0.3634 -0.0573 -0.9410
 1890SOL     OW 5989   1.639   1.681   4.777 -1.0382 -0.6954 -0.3091
 1890SOL    HW1 5990   1.737   1.664   4.761 -1.0778 -0.8025 -0.4410
 1890SOL    HW2 5991   1.603   1.738   4.703 -0.1292  2.9793  1.8187
 1891SOL     OW 5992   0.687   2.953   0.849 -0.2223  0.2170  0.2537
 1891SOL    HW1 5993   0.786   2.957   0.835 -0.3747  0.0145 -0.9082
 1891SOL    HW2 5994   0.667   2.887   0.922  0.3525 -1.8026 -1.3344
 1892SOL     OW 5995   4.116   2.215   4.784  0.3622  0.9037 -0.3004
 1892SOL    HW1 5996   4.061   2.196   4.865  0.8119 -0.6180 -0.3237
 1892SOL    HW2 5997   4.059   2.259   4.715 -1.6811 -3.0005 -1.3784
 1893SOL     OW 5998   4.986   2.868   0.372 -0.4749 -0.5779  0.5082
 1893SOL    HW1 5999   4.890   2.887   0.397 -0.4621  1.0782 -0.5179
 1893SOL    HW2 6000   5.007   2.914   0.286  1.8921  1.0869  1.8462
 1894SOL     OW 6001   0.425   2.397   2.333 -0.5263  0.1008  0.4837
 1894SOL    HW1 6002   0.408   2.490   2.299 -0.2960 -0.7225 -2.1840
 1894SOL    HW2 6003   0.351   2.337   2.302  1.1420 -1.2616 -1.1114
 1895SOL     OW 6004   1.513   1.608   1.478  0.3935  0.6812 -0.2349
 1895SOL    HW1 6005   1.468   1.644   1.396 -1.2476  0.3413  0.4863
 1895SOL    HW2 6006   1.576   1.535   1.451 -0.0860  0.6043 -1.2036
 1896SOL     OW 6007   3.611   1.420   3.857 -0.2572 -0.3716 -0.0850
 1896SOL    HW1 6008   3.665   1.500   3.833  0.7334 -1.1923 -0.6283
 1896SOL    HW2 6009   3.566   1.384   3.776 -1.4369  0.1411  0.3109
 1897SOL     OW 6010   2.938   1.172   4.383  0.5484  0.8451 -0.0373
 1897SOL    HW1 6011   2.886   1.198   4.464  1.5312  1.0487  0.5412
 1897SOL    HW2 6012   2.882   1.189   4.301 -0.4652  0.6019  0.5820
 1898SOL     OW 6013   1.930   2.566   2.677  0.2142  0.6525  0.6023
 1898SOL    HW1 6014   1.850   2.568   2.618  1.4514  2.0667 -1.1488
 1898SOL    HW2 6015   1.990   2.490   2.650  0.0270  0.3136  1.1268
 1899SOL     OW 6016   5.372   3.334   1.611 -0.3185  0.9139  0.2326
 1899SOL    HW1 6017   5.330   3.341   1.702 -1.4773 -0.2793 -0.1794
 1899SOL    HW2 6018   5.324   3.394   1.547 -0.9380  0.0998 -0.0758
 1900SOL     OW 6019   0.492   3.589   1.131 -0.5600  0.6009  0.0599
 1900SOL    HW1 6020   0.553   3.664   1.156  1.6395 -1.0294 -0.1252
 1900SOL    HW2 6021   0.433   3.566   1.208  1.9156 -0.3809  1.7890
 1901SOL     OW 6022   3.789   4.125   4.076 -0.1031  0.0645  0.2569
 1901SOL    HW1 6023   3.724   4.114   4.151  1.7061  0.0241  1.8786
 1901SOL    HW2 6024   3.848   4.045   4.071  1.0414  0.9053  0.0392
 1902SOL     OW 6025   4.557   3.898   4.563  0.3960  0.0976 -0.2509
 1902SOL    HW1 6026   4.533   3.984   4.519  2.5251  0.9286  0.0886
 1902SOL    HW2 6027   4.604   3.916   4.650 -1.7156 -1.4775  1.3280
 1903SOL     OW 6028   0.615   4.558   5.203 -0.2797  0.1623  0.5444
 1903SOL    HW1 6029   0.591   4.490   5.134  0.8034  0.0568  0.2405
 1903SOL    HW2 6030   0.535   4.612   5.228 -1.1220 -1.1357  0.6899
 1904SOL     OW 6031   1.937   0.925   5.540  0.4531  0.1210 -0.7024
 1904SOL    HW1 6032   1.975   0.843   5.584  1.8216 -0.2225 -2.4335
 1904SOL    HW2 6033   1.913   0.904   5.446 -1.3186  1.1559 -0.5265
 1905SOL     OW 6034   0.307   3.686   1.872  0.5995  0.2496  0.3286
 1905SOL    HW1 6035   0.245   3.617   1.834 -0.7923  1.3381  0.5154
 1905SOL    HW2 6036   0.286   3.699   1.969  1.5690  0.1805  0.5503
 1906SOL     OW 6037   1.546   4.914   1.066  0.4887  0.4445  0.4433
 1906SOL    HW1 6038   1.463   4.952   1.026  1.1140  0.5884 -0.7814
 1906SOL    HW2 6039   1.585   4.978   1.132 -0.4527  0.2959  1.1625
 1907SOL     OW 6040   2.685   0.782   5.463 -0.3349  0.1820  0.2248
 1907SOL    HW1 6041   2.657   0.692   5.430 -1.2972  0.4996  0.1280
 1907SOL    HW2 6042   2.653   0.852   5.399 -0.1481  0.6350  0.6209
 1908SOL     OW 6043   1.183   2.002   0.754 -0.3620  0.2259 -0.0116
 1908SOL    HW1 6044   1.170   1.994   0.853 -0.8713 -0.5837 -0.1372
 1908SOL    HW2 6045   1.268   2.051   0.736  0.9132 -1.6070  0.8317
 1909SOL     OW 6046   2.105   1.819   2.462 -0.2143  0.3742 -0.6828
 1909SOL    HW1 6047   2.103   1.880   2.541  0.1391 -1.1472  0.5518
 1909SOL    HW2 6048   2.197   1.780   2.452 -0.3599  0.2297 -1.6132
 1910SOL     OW 6049   2.367   0.863   0.589  0.2489 -0.5667 -0.5293
 1910SOL    HW1 6050   2.373   0.796   0.515 -2.1305 -1.7827  0.2817
 1910SOL    HW2 6051   2.287   0.843   0.646  1.1301  1.2487  1.4887
 1911SOL     OW 6052   3.122   3.861   4.566 -0.3917  0.1524  0.4127
 1911SOL    HW1 6053   3.149   3.765   4.574  1.3501  0.6089  0.5441
 1911SOL    HW2 6054   3.088   3.879   4.474  0.4656 -0.3300 -0.0099
 1912SOL     OW 6055   2.870   0.269   2.190  0.2961 -0.3124  0.1728
 1912SOL    HW1 6056   2.825   0.277   2.279  0.6716 -0.4763  0.3798
 1912SOL    HW2 6057   2.968   0.286   2.201  0.6506 -2.0991  0.1202
 1913SOL     OW 6058   0.181   4.891   0.983 -1.0169 -0.7643 -0.2670
 1913SOL    HW1 6059   0.131   4.970   1.018 -0.4039 -0.0451 -0.9557
 1913SOL    HW2 6060   0.117   4.820   0.956 -1.5698 -0.6127  0.5905
 1914SOL     OW 6061   4.789   0.954   1.886  0.5706 -0.1291 -0.4081
 1914SOL    HW1 6062   4.719   0.901   1.839 -0.0835  0.5428 -0.2180
 1914SOL    HW2 6063   4.760   0.972   1.980  2.2234 -2.1461  0.5654
 1915SOL     OW 6064   0.876   0.404   3.304  0.0839  0.5526  0.6227
 1915SOL    HW1 6065   0.814   0.405   3.225  1.4857  3.0946 -0.5813
 1915SOL    HW2 6066   0.841   0.467   3.374 -0.8468 -1.2597  1.8928
 1916SOL     OW 6067   5.214   0.397   3.534 -0.2007 -0.5864  0.0617
 1916SOL    HW1 6068   5.151   0.474   3.525 -1.2212 -1.5127 -1.0601
 1916SOL    HW2 6069   5.290   0.422   3.594 -0.5837  1.2321 -0.1772
 1917SOL     OW 6070   3.923   4.670   2.216  0.2771  0.6764 -0.5611
 1917SOL    HW1 6071   3.857   4.599   2.194 -2.4856  2.7951  0.2783
 1917SOL    HW2 6072   3.950   4.661   2.312  0.8656  0.0653 -0.7830
 1918SOL     OW 6073   4.284   0.296   0.484  0.4209 -0.5896 -0.1877
 1918SOL    HW1 6074   4.308   0.380   0.435 -3.3862 -0.0906 -1.5090
 1918SOL    HW2 6075   4.260   0.318   0.578  1.3663 -0.5538  0.0575
 1919SOL     OW 6076   2.461   0.443   3.764  0.2067 -0.5152 -0.4235
 1919SOL    HW1 6077   2.503   0.353   3.772 -1.1239 -1.1548 -0.2452
 1919SOL    HW2 6078   2.531   0.513   3.752  1.1785 -1.8098 -2.8706
 1920SOL     OW 6079   1.871   3.225   2.047  0.8118  0.3065  0.5008
 1920SOL    HW1 6080   1.844   3.261   1.958 -1.0782  2.1033  1.6827
 1920SOL    HW2 6081   1.794   3.233   2.111  1.8808 -1.5467  2.1425
 1921SOL     OW 6082   0.710   1.383   1.434 -0.0449  0.7313 -0.3519
 1921SOL    HW1 6083   0.737   1.393   1.338  2.0295 -0.4008  0.0493
 1921SOL    HW2 6084   0.766   1.312   1.477 -1.4152  0.7179  1.5306
 1922SOL     OW 6085   3.980   5.016   0.157 -0.5009 -0.0126 -0.4254
 1922SOL    HW1 6086   4.054   5.082   0.151 -1.5673  1.0924 -3.2365
 1922SOL    HW2 6087   4.016   4.924   0.147  0.6218  0.4071 -0.3295
 1923SOL     OW 6088   3.567   4.983   2.604  0.2156 -0.7234  0.4960
 1923SOL    HW1 6089   3.577   4.890   2.637  0.9329 -1.0029 -0.4740
 1923SOL    HW2 6090   3.478   4.994   2.561  1.5237 -2.1532 -2.9331
 1924SOL     OW 6091   2.563   2.932   5.326 -0.0362 -0.1935 -0.5093
 1924SOL    HW1 6092   2.540   3.024   5.294  0.2461  1.2653  3.0168
 1924SOL    HW2 6093   2.480   2.878   5.336 -0.1948 -0.4805 -2.7116
 1925SOL     OW 6094   3.916   3.396   5.302  0.1680 -0.0309  0.0713
 1925SOL    HW1 6095   3.995   3.368   5.248 -1.0987 -1.0491 -1.3268
 1925SOL    HW2 6096   3.871   3.474   5.259  0.6878  0.9201  1.1719
 1926SOL     OW 6097   1.513   0.167   4.511 -0.0675 -0.0409  0.0584
 1926SOL    HW1 6098   1.444   0.131   4.573  0.6102 -1.7194 -0.1311
 1926SOL    HW2 6099   1.595   0.191   4.562 -0.1281  0.2501  0.0266
 1927SOL     OW 6100   0.029   3.666   1.422  0.5994  0.0417  0.8038
 1927SOL    HW1 6101   0.091   3.742   1.403  0.5948 -0.1280  0.0686
 1927SOL    HW2 6102   0.011   3.661   1.520  0.7103  0.8967  0.8721
 1928SOL     OW 6103   4.197   5.456   4.063  0.2294  0.3012 -0.1281
 1928SOL    HW1 6104   4.144   5.430   3.982 -0.7860  0.5310  0.4326
 1928SOL    HW2 6105   4.198   5.380   4.128  1.0496  0.1132 -0.3617
 1929SOL     OW 6106   0.198   3.851   1.310 -0.2694  0.0211  0.1208
 1929SOL    HW1 6107   0.168   3.812   1.223 -1.5801 -0.4944  0.7760
 1929SOL    HW2 6108   0.244   3.938   1.293 -0.0179 -0.3286 -1.1192
 1930SOL     OW 6109   3.607   5.070   2.927 -0.9233  0.1667 -0.2603
 1930SOL    HW1 6110   3.617   5.099   2.832 -1.0231  0.6848 -0.1133
 1930SOL    HW2 6111   3.636   4.974   2.936 -0.1819  0.3470 -0.6641
 1931SOL     OW 6112   0.865   2.181   5.403 -0.0587 -0.4901  0.2408
 1931SOL    HW1 6113   0.802   2.104   5.390 -0.7320  0.1670 -0.5469
 1931SOL    HW2 6114   0.858   2.214   5.497 -0.4736 -0.7774  0.3159
 1932SOL     OW 6115   3.339   3.334   0.246  0.0139 -0.0639  0.3176
 1932SOL    HW1 6116   3.281   3.387   0.185 -0.6734  0.8962  1.7307
 1932SOL    HW2 6117   3.355   3.243   0.208  1.1442  1.0791 -2.1280
 1933SOL     OW 6118   4.089   4.158   3.074  0.0802  0.6428  0.3280
 1933SOL    HW1 6119   3.996   4.192   3.082 -0.3334 -0.5358  0.7963
 1933SOL    HW2 6120   4.137   4.168   3.161 -0.8454 -2.1022  1.2722
 1934SOL     OW 6121   1.532   1.958   1.626 -0.4457 -0.1678  0.0709
 1934SOL    HW1 6122   1.457   2.021   1.647  1.1179  1.9973 -0.5607
 1934SOL    HW2 6123   1.589   1.945   1.707 -0.6158 -0.6252  0.1265
 1935SOL     OW 6124   3.945   0.467   5.234  0.4141  0.3394 -0.2158
 1935SOL    HW1 6125   3.994   0.380   5.230 -0.6275 -0.2542 -0.2813
 1935SOL    HW2 6126   3.894   0.472   5.320 -2.3266 -0.6685 -1.6980
 1936SOL     OW 6127   5.027   2.513   1.994  0.1602 -0.4982  0.3726
 1936SOL    HW1 6128   5.058   2.425   2.027 -1.1525 -0.8666  0.6849
 1936SOL    HW2 6129   4.969   2.500   1.914  0.1132  0.0990  0.3052
 1937SOL     OW 6130   5.039   1.620   5.122 -0.0596  0.0216  0.4126
 1937SOL    HW1 6131   5.005   1.529   5.097  0.9621 -0.3475  0.3343
 1937SOL    HW2 6132   5.105   1.611   5.196 -0.9302  0.8375  1.3091
 1938SOL     OW 6133   5.125   2.650   1.187  0.5029  0.5955  0.3574
 1938SOL    HW1 6134   5.114   2.551   1.188 -1.6292  0.7542 -1.1297
 1938SOL    HW2 6135   5.159   2.679   1.098 -0.3099  1.2955  0.2584
 1939SOL     OW 6136   3.797   3.728   2.858  0.2098  0.1060  0.2415
 1939SOL    HW1 6137   3.872   3.768   2.805  0.2608  1.6964  1.4456
 1939SOL    HW2 6138   3.721   3.792   2.861  0.0185 -0.1538  1.6483
 1940SOL     OW 6139   0.372   0.908   1.831 -0.0412  0.1030  0.2199
 1940SOL    HW1 6140   0.285   0.951   1.804 -0.1849 -0.1339  0.3053
 1940SOL    HW2 6141   0.384   0.823   1.780  0.4779  0.4860 -0.3066
 1941SOL     OW 6142   1.377   3.851   5.439 -0.2322  0.0875  0.7418
 1941SOL    HW1 6143   1.461   3.858   5.493 -0.9902  1.1492  1.8422
 1941SOL    HW2 6144   1.333   3.940   5.435 -0.2478  0.0481 -1.6424
 1942SOL     OW 6145   4.004   2.134   0.045 -0.0784 -0.3376 -0.0555
 1942SOL    HW1 6146   4.075   2.130  -0.026 -0.4496 -1.3477 -0.3858
 1942SOL    HW2 6147   3.914   2.134   0.002 -0.3467 -2.3759  0.4278
 1943SOL     OW 6148   4.222   5.386   1.630  0.2870 -0.2346 -0.5344
 1943SOL    HW1 6149   4.158   5.447   1.583  0.1446 -0.5453 -0.7438
 1943SOL    HW2 6150   4.275   5.334   1.563  1.3189  0.5864 -0.3818
 1944SOL     OW 6151   0.869   4.435   2.042  0.2540 -0.3347 -0.1176
 1944SOL    HW1 6152   0.887   4.533   2.031 -1.9334 -0.0140 -1.3635
 1944SOL    HW2 6153   0.798   4.422   2.111  1.1727 -1.1307  0.6997
 1945SOL     OW 6154   0.485   5.117   3.780  0.9568  0.3844  0.0238
 1945SOL    HW1 6155   0.474   5.037   3.839  1.8120  0.9292  0.9635
 1945SOL    HW2 6156   0.400   5.134   3.730  0.4113 -0.4718  0.6336
 1946SOL     OW 6157   4.583   1.505   3.585  0.4566  0.4529 -0.6328
 1946SOL    HW1 6158   4.637   1.450   3.521  1.6860 -0.7382  1.3059
 1946SOL    HW2 6159   4.584   1.461   3.675 -1.3362  1.9692  0.1953
 1947SOL     OW 6160   0.524   5.212   2.483 -0.1682  0.3921  0.6269
 1947SOL    HW1 6161   0.540   5.239   2.388 -0.4498  1.3648  0.8387
 1947SOL    HW2 6162   0.525   5.294   2.541 -1.7393  0.0170  1.2196
 1948SOL     OW 6163   2.979   4.128   0.694  0.0045  0.2340 -0.2786
 1948SOL    HW1 6164   3.040   4.066   0.744  1.3265  1.8657  0.2204
 1948SOL    HW2 6165   3.031   4.206   0.660 -1.5743  0.9855 -1.0664
 1949SOL     OW 6166   3.704   2.417   4.534 -0.3336  0.0165 -0.1332
 1949SOL    HW1 6167   3.678   2.408   4.438  0.5071 -0.1563 -0.3584
 1949SOL    HW2 6168   3.705   2.514   4.559  1.2357  0.2111 -0.8429
 1950SOL     OW 6169   3.768   2.253   5.129  0.3196  0.0044  0.2365
 1950SOL    HW1 6170   3.682   2.206   5.152  0.0203  0.2364 -0.3947
 1950SOL    HW2 6171   3.761   2.293   5.038  0.3199  1.8002  0.9592
 1951SOL     OW 6172   2.040   0.681   4.712 -0.1630  0.4515  0.5217
 1951SOL    HW1 6173   1.944   0.660   4.695 -0.1013 -0.1294  0.8771
 1951SOL    HW2 6174   2.097   0.609   4.672  0.1222  0.7604  0.3703
 1952SOL     OW 6175   2.388   5.141   1.237  0.6283 -0.2872 -0.0815
 1952SOL    HW1 6176   2.412   5.045   1.251 -0.0928 -0.3238  1.0433
 1952SOL    HW2 6177   2.471   5.197   1.233  1.0436 -0.9285 -0.5794
 1953SOL     OW 6178   4.683   1.090   3.548 -0.2693  0.0066  0.0365
 1953SOL    HW1 6179   4.597   1.140   3.561 -0.6704 -0.7006  0.1249
 1953SOL    HW2 6180   4.751   1.126   3.611 -0.2871  1.0429 -0.5092
 1954SOL     OW 6181   1.462   0.997   5.273 -0.1792  0.8458 -0.0991
 1954SOL    HW1 6182   1.448   0.964   5.367 -1.6738  2.9798  0.5035
 1954SOL    HW2 6183   1.558   1.024   5.262 -0.4314  2.7407  1.6439
 1955SOL     OW 6184   5.106   0.101   1.913 -0.2862 -0.5370  0.0837
 1955SOL    HW1 6185   5.042   0.075   1.985  0.2677 -3.7607 -0.4374
 1955SOL    HW2 6186   5.199   0.074   1.939  0.2544  0.2612 -0.9316
 1956SOL     OW 6187   1.812   4.640   3.624 -0.1241 -0.3022  0.1258
 1956SOL    HW1 6188   1.905   4.671   3.602 -0.3505  0.6507  0.4709
 1956SOL    HW2 6189   1.807   4.614   3.721 -0.1608 -0.5694  0.0530
 1957SOL     OW 6190   5.096   4.226   1.821  0.3916  0.6383  0.3167
 1957SOL    HW1 6191   5.190   4.201   1.798  0.7965 -0.0576  2.5326
 1957SOL    HW2 6192   5.034   4.153   1.791  0.7989  0.1422  0.6590
 1958SOL     OW 6193   2.148   0.469   0.420  0.1518  0.3159  0.3277
 1958SOL    HW1 6194   2.189   0.410   0.351  0.0557  1.7907 -1.0659
 1958SOL    HW2 6195   2.051   0.479   0.401  0.0209  0.3249  0.9958
 1959SOL     OW 6196   0.111   2.185   4.468 -0.0402  0.3737  0.3072
 1959SOL    HW1 6197   0.169   2.240   4.409 -0.4838 -1.5514 -2.0821
 1959SOL    HW2 6198   0.166   2.145   4.541  0.9580  1.1167 -0.0145
 1960SOL     OW 6199   0.378   2.988   4.349 -0.0286 -0.5395 -0.0522
 1960SOL    HW1 6200   0.295   2.957   4.303 -0.8522  1.9259 -0.3786
 1960SOL    HW2 6201   0.437   3.035   4.283  0.5230 -0.2063  0.6573
 1961SOL     OW 6202   5.521   4.754   3.341 -0.5383  0.3218 -0.4660
 1961SOL    HW1 6203   5.438   4.706   3.314 -1.0390  1.2557 -0.6027
 1961SOL    HW2 6204   5.601   4.702   3.309 -1.0577 -0.6070 -0.2793
 1962SOL     OW 6205   4.424   5.042   1.352 -0.0051  0.2732 -0.0168
 1962SOL    HW1 6206   4.481   5.086   1.282 -1.0767 -0.0788 -1.1547
 1962SOL    HW2 6207   4.433   4.943   1.344  0.4832  0.2392  0.8905
 1963SOL     OW 6208   1.616   0.446   4.063 -0.2591  0.1399 -0.1866
 1963SOL    HW1 6209   1.600   0.409   4.154 -1.1600  0.3327 -0.2588
 1963SOL    HW2 6210   1.629   0.545   4.068  0.5641  0.0415 -0.1777
 1964SOL     OW 6211   1.518   4.326   1.067  0.6809 -0.0031  0.3000
 1964SOL    HW1 6212   1.491   4.415   1.104 -0.5451  0.5134 -1.6644
 1964SOL    HW2 6213   1.588   4.340   0.996 -0.3615 -0.4490 -0.8532
 1965SOL     OW 6214   3.577   0.952   0.804 -0.8370 -0.1651 -0.2803
 1965SOL    HW1 6215   3.671   0.979   0.825 -1.0529 -0.5574  1.2748
 1965SOL    HW2 6216   3.522   0.955   0.888 -2.3015  0.3822 -1.2192
 1966SOL     OW 6217   2.423   3.312   4.254 -0.1784  0.3101 -0.2531
 1966SOL    HW1 6218   2.507   3.351   4.292  0.0886  0.9477 -1.4631
 1966SOL    HW2 6219   2.354   3.383   4.245 -0.8084 -0.1827  0.5907
 1967SOL     OW 6220   1.431   2.519   5.420 -0.2990  0.4554 -0.2373
 1967SOL    HW1 6221   1.364   2.593   5.420 -1.0508 -0.2102  0.5876
 1967SOL    HW2 6222   1.485   2.522   5.504 -0.7312 -0.2647  0.0820
 1968SOL     OW 6223   0.216   3.971   4.297 -0.1992  0.3700 -0.1469
 1968SOL    HW1 6224   0.298   3.959   4.354  0.5281  0.1087 -1.2108
 1968SOL    HW2 6225   0.226   3.917   4.213 -1.7685 -0.2073 -0.0008
 1969SOL     OW 6226   3.524   3.239   4.116 -0.5604 -0.1758 -0.0620
 1969SOL    HW1 6227   3.563   3.262   4.026  2.1912 -1.1599  0.7814
 1969SOL    HW2 6228   3.529   3.140   4.130  1.4495  0.1517  2.1169
 1970SOL     OW 6229   0.802   4.101   1.016 -0.1497  0.3840 -0.0601
 1970SOL    HW1 6230   0.736   4.173   0.993  0.4246  0.0351 -3.3486
 1970SOL    HW2 6231   0.834   4.057   0.932  1.7740 -1.7443  1.6391
 1971SOL     OW 6232   5.473   1.838   0.492  0.2090  0.1052  0.2301
 1971SOL    HW1 6233   5.495   1.814   0.586  1.1420  0.9068  0.2264
 1971SOL    HW2 6234   5.373   1.840   0.481  0.0861  0.3989  1.2926
 1972SOL     OW 6235   0.700   5.019   4.082  0.3450  0.0196 -0.5930
 1972SOL    HW1 6236   0.631   5.076   4.127  0.4243  0.4819 -1.0447
 1972SOL    HW2 6237   0.774   5.078   4.049  0.3018 -0.3183 -1.2979
 1973SOL     OW 6238   4.368   3.220   4.912  0.3531 -0.4551  0.9287
 1973SOL    HW1 6239   4.283   3.183   4.949 -0.3220 -0.1070 -0.2156
 1973SOL    HW2 6240   4.430   3.145   4.891 -0.5175 -0.8797 -0.2129
 1974SOL     OW 6241   4.291   4.130   4.725 -0.2450  0.3635  0.3460
 1974SOL    HW1 6242   4.273   4.083   4.812 -1.1664 -0.9982 -0.5444
 1974SOL    HW2 6243   4.259   4.073   4.649  0.7428  1.4269 -0.9144
 1975SOL     OW 6244   0.269   3.111   1.782 -0.3297  0.2133 -0.2769
 1975SOL    HW1 6245   0.280   3.083   1.878 -1.8247  1.4967  0.3326
 1975SOL    HW2 6246   0.353   3.093   1.732  0.6378 -0.1336  1.3831
 1976SOL     OW 6247   1.570   2.077   2.482 -0.0880 -0.2936 -0.2090
 1976SOL    HW1 6248   1.542   2.000   2.424 -2.2908  0.6959 -0.5706
 1976SOL    HW2 6249   1.508   2.154   2.467 -0.4472  0.1973  3.1070
 1977SOL     OW 6250   4.789   2.321   2.788  0.6944  0.6406  0.1961
 1977SOL    HW1 6251   4.836   2.406   2.810  2.5704 -0.2453 -0.2293
 1977SOL    HW2 6252   4.815   2.250   2.854  0.6450 -0.1073 -0.5670
 1978SOL     OW 6253   3.395   5.005   3.088  0.1270  0.0183 -0.0782
 1978SOL    HW1 6254   3.472   5.025   3.027  1.8782  0.4676  2.1315
 1978SOL    HW2 6255   3.393   4.907   3.108 -0.5020 -0.1430 -0.8757
 1979SOL     OW 6256   3.563   2.397   0.412  0.7485  0.4284 -0.0191
 1979SOL    HW1 6257   3.498   2.462   0.453 -0.3842 -0.7738  0.1601
 1979SOL    HW2 6258   3.624   2.446   0.349 -0.8207  1.4902 -0.7803
 1980SOL     OW 6259   0.706   4.332   1.259 -0.4708 -0.2433  0.4263
 1980SOL    HW1 6260   0.771   4.328   1.335  0.2194 -0.2931 -0.1588
 1980SOL    HW2 6261   0.631   4.267   1.275 -0.9159  0.5300  1.5868
 1981SOL     OW 6262   2.889   0.902   4.442 -0.0406 -0.0670  0.0063
 1981SOL    HW1 6263   2.933   0.968   4.382 -0.1436 -0.1122 -0.1195
 1981SOL    HW2 6264   2.934   0.902   4.531  3.4780 -3.5037 -1.4717
 1982SOL     OW 6265   3.663   0.739   0.294 -0.0942 -0.7851 -0.2882
 1982SOL    HW1 6266   3.568   0.768   0.285  0.5219  1.4202 -0.4690
 1982SOL    HW2 6267   3.719   0.817   0.324  1.6471 -2.0353 -0.1130
 1983SOL     OW 6268   5.385   0.728   2.215 -0.2061  0.4456 -0.3481
 1983SOL    HW1 6269   5.446   0.650   2.202 -0.1943  0.0959  1.6065
 1983SOL    HW2 6270   5.423   0.789   2.284 -1.3459  0.9867 -0.1798
 1984SOL     OW 6271   1.462   2.579   4.625  0.1622 -0.0777  0.3127
 1984SOL    HW1 6272   1.436   2.501   4.682 -2.3070  2.0217  2.3037
 1984SOL    HW2 6273   1.555   2.607   4.649 -0.3603 -0.0049  2.5187
 1985SOL     OW 6274   3.863   1.185   4.066 -0.7938  0.2152  0.2843
 1985SOL    HW1 6275   3.909   1.243   3.999 -0.5594 -0.7085 -0.3808
 1985SOL    HW2 6276   3.769   1.167   4.036  0.0082 -2.1520 -1.1181
 1986SOL     OW 6277   1.451   4.152   5.269 -0.6051  0.2699  0.7234
 1986SOL    HW1 6278   1.519   4.098   5.218 -0.6578  1.7154 -0.9936
 1986SOL    HW2 6279   1.493   4.237   5.301 -1.4043  0.8701  0.2247
 1987SOL     OW 6280   0.876   4.868   5.174  0.4558 -0.5265  0.3095
 1987SOL    HW1 6281   0.880   4.958   5.132 -2.1870  0.2983  1.6190
 1987SOL    HW2 6282   0.865   4.798   5.104  0.6529  0.3430 -0.6085
 1988SOL     OW 6283   4.110   3.094   1.658 -0.1956  0.3873  0.2016
 1988SOL    HW1 6284   4.132   3.031   1.584 -1.0792 -0.8409  0.9615
 1988SOL    HW2 6285   4.171   3.078   1.736  0.8942  1.8362 -0.2965
 1989SOL     OW 6286   0.988   2.167   1.641 -0.1510  0.6599 -0.0720
 1989SOL    HW1 6287   0.954   2.114   1.719  0.1395  0.5148 -0.0411
 1989SOL    HW2 6288   0.998   2.107   1.562 -0.5518  0.8317 -0.2514
 1990SOL     OW 6289   3.149   0.081   3.979 -0.3583  0.1043  0.2797
 1990SOL    HW1 6290   3.226   0.145   3.981 -0.4852  0.2969 -0.6864
 1990SOL    HW2 6291   3.183  -0.012   3.968 -0.2664  0.2060 -0.3142
 1991SOL     OW 6292   4.154   0.164   3.317 -0.9430  0.2226 -0.4940
 1991SOL    HW1 6293   4.138   0.259   3.346 -1.4570 -0.5893  2.1262
 1991SOL    HW2 6294   4.169   0.162   3.218  2.2820  3.4350 -0.2866
 1992SOL     OW 6295   0.894   4.036   1.304 -0.6034 -0.0877  0.0918
 1992SOL    HW1 6296   0.840   4.064   1.225 -1.1839 -0.3082  0.4001
 1992SOL    HW2 6297   0.917   4.117   1.359 -0.6540  0.0050 -0.0235
 1993SOL     OW 6298   1.476   0.972   4.066  0.5024 -0.7852 -0.0691
 1993SOL    HW1 6299   1.457   1.015   3.977  1.1934 -0.6440 -0.1566
 1993SOL    HW2 6300   1.391   0.959   4.116  0.1821 -0.1609 -0.4398
 1994SOL     OW 6301   0.370   2.077   3.293  0.4895  0.0680  0.1513
 1994SOL    HW1 6302   0.355   2.091   3.391 -2.0857  0.1948 -0.2073
 1994SOL    HW2 6303   0.436   2.003   3.280 -0.0528 -0.8032  1.9946
 1995SOL     OW 6304   4.844   5.112   5.325  0.3561  0.4020  0.2079
 1995SOL    HW1 6305   4.876   5.051   5.253 -4.1700 -2.3772  0.1612
 1995SOL    HW2 6306   4.861   5.070   5.414 -0.7547  0.1177  0.2982
 1996SOL     OW 6307   5.151   0.516   5.191 -0.3073 -0.8094 -0.0809
 1996SOL    HW1 6308   5.083   0.443   5.194 -1.1272 -0.0471  1.0347
 1996SOL    HW2 6309   5.207   0.514   5.274  1.0091 -1.3818 -0.9589
 1997SOL     OW 6310   1.698   5.171   5.317 -0.5828 -0.2973 -0.1593
 1997SOL    HW1 6311   1.793   5.144   5.335  0.1634  1.3717 -1.3072
 1997SOL    HW2 6312   1.637   5.094   5.335  1.0374 -1.5571  0.1569
 1998SOL     OW 6313   2.431   5.150   3.913 -0.1914  0.1015  0.2949
 1998SOL    HW1 6314   2.453   5.053   3.898  0.2639  0.3090 -0.4933
 1998SOL    HW2 6315   2.334   5.159   3.934 -0.1482 -0.5688  0.8328
 1999SOL     OW 6316   3.358   0.652   2.091  0.1542 -0.4541  0.2278
 1999SOL    HW1 6317   3.356   0.712   2.011 -1.5064  0.5782  0.9990
 1999SOL    HW2 6318   3.384   0.560   2.062  2.3207  0.4767 -1.0499
 2000SOL     OW 6319   0.128   4.630   5.118 -0.0662  0.5896  0.0434
 2000SOL    HW1 6320   0.227   4.647   5.119  0.1606 -0.6305  0.1597
 2000SOL    HW2 6321   0.112   4.533   5.098 -1.2837  1.0639 -1.4222
 2001SOL     OW 6322   0.733   3.773   3.785  0.1866 -0.3460  0.5689
 2001SOL    HW1 6323   0.654   3.712   3.791  0.6964 -0.8857  2.3202
 2001SOL    HW2 6324   0.715   3.855   3.840  0.8562 -0.5064  1.0411
 2002SOL     OW 6325   1.089   0.541   4.337  0.1056 -0.5871  0.0690
 2002SOL    HW1 6326   1.039   0.485   4.403 -2.8334  1.6440 -0.0382
 2002SOL    HW2 6327   1.036   0.545   4.252 -0.2742  2.9114  0.3543
 2003SOL     OW 6328   5.170   4.700   4.279  0.3141 -0.3203  0.6863
 2003SOL    HW1 6329   5.158   4.609   4.319 -0.7054 -0.1041  0.8936
 2003SOL    HW2 6330   5.228   4.693   4.198  1.8522 -0.8648  1.7730
 2004SOL     OW 6331   3.772   3.014   2.987  0.2428  0.2271 -0.0064
 2004SOL    HW1 6332   3.848   3.066   3.026  0.8139 -0.3041 -0.3824
 2004SOL    HW2 6333   3.693   3.018   3.048  0.7828  0.2556  0.7010
 2005SOL     OW 6334   2.793   4.103   1.245 -0.0135 -0.5169 -0.2418
 2005SOL    HW1 6335   2.760   4.027   1.301 -0.9811 -0.8164 -1.1739
 2005SOL    HW2 6336   2.794   4.075   1.149 -1.2066  0.8804 -0.7091
 2006SOL     OW 6337   3.524   0.899   4.924 -0.1660 -0.1106 -0.1524
 2006SOL    HW1 6338   3.570   0.879   4.838  1.5547  0.0838  0.6829
 2006SOL    HW2 6339   3.577   0.860   5.000 -1.6251 -0.2547  0.8361
 2007SOL     OW 6340   4.461   4.427   0.468 -0.6678 -0.4499 -0.3578
 2007SOL    HW1 6341   4.479   4.351   0.406  1.4043  0.2579 -0.7316
 2007SOL    HW2 6342   4.513   4.415   0.552 -2.6323 -0.8703  0.8598
 2008SOL     OW 6343   0.292  -0.026   3.249 -0.1174  0.5001 -0.3591
 2008SOL    HW1 6344   0.314   0.057   3.301 -1.7282  1.7305 -1.5464
 2008SOL    HW2 6345   0.340  -0.023   3.161  0.4333 -0.2270 -0.0885
 2009SOL     OW 6346   5.032   4.740   3.423 -0.0446  0.3663  0.3165
 2009SOL    HW1 6347   5.097   4.771   3.353  0.5749  0.5743  0.9589
 2009SOL    HW2 6348   4.976   4.818   3.453 -1.7346 -0.1442 -1.3798
 2010SOL     OW 6349   1.582   2.724   0.525  0.1736  0.3158 -0.2199
 2010SOL    HW1 6350   1.493   2.708   0.568 -1.0413 -1.2735 -3.0648
 2010SOL    HW2 6351   1.648   2.658   0.562 -0.3294  0.1880  0.4814
 2011SOL     OW 6352   0.231   3.862   0.063 -0.6250 -0.1121  0.3404
 2011SOL    HW1 6353   0.174   3.821  -0.008 -0.2439  1.2739 -0.7877
 2011SOL    HW2 6354   0.188   3.946   0.096 -0.3881 -0.3085  1.1966
 2012SOL     OW 6355   4.426   4.894   1.875 -0.7606 -0.2545 -0.7998
 2012SOL    HW1 6356   4.412   4.811   1.820  1.7951 -1.2950 -0.0467
 2012SOL    HW2 6357   4.464   4.869   1.964 -2.0638  1.6162  0.3678
 2013SOL     OW 6358   1.811   4.540   1.035  0.0917  0.1869 -0.5481
 2013SOL    HW1 6359   1.892   4.488   1.007  0.7391  1.7094 -1.6434
 2013SOL    HW2 6360   1.796   4.616   0.971 -2.2623 -0.0973 -0.4128
 2014SOL     OW 6361   2.801   1.086   5.119 -0.3317 -0.2081 -0.2563
 2014SOL    HW1 6362   2.860   1.048   5.048 -1.4502  1.2228 -2.0498
 2014SOL    HW2 6363   2.829   1.180   5.138 -1.1608  0.0142 -0.1080
 2015SOL     OW 6364   3.493   5.476   0.542 -0.0968 -0.3656  0.1883
 2015SOL    HW1 6365   3.476   5.470   0.640 -0.1889  0.2762  0.2128
 2015SOL    HW2 6366   3.436   5.548   0.502  1.3787  0.7338 -0.0015
 2016SOL     OW 6367   1.128   3.128   3.554  0.2179 -0.2908  0.3364
 2016SOL    HW1 6368   1.178   3.130   3.468  0.7084  1.2814  0.6135
 2016SOL    HW2 6369   1.187   3.161   3.628 -0.4814 -0.7303  1.1083
 2017SOL     OW 6370   5.041   3.143   3.627 -0.1045 -0.3240  0.1276
 2017SOL    HW1 6371   5.005   3.064   3.577 -1.5169  0.1734  0.3309
 2017SOL    HW2 6372   4.991   3.154   3.713 -0.3858  1.1930 -0.2065
 2018SOL     OW 6373   1.637   2.400   0.848 -0.2498  0.5285  0.3090
 2018SOL    HW1 6374   1.662   2.465   0.920  0.7229  0.0371  0.4345
 2018SOL    HW2 6375   1.592   2.320   0.889  1.6580 -0.4530  0.5920
 2019SOL     OW 6376   5.071   4.286   2.083 -0.6751 -0.1467 -0.1066
 2019SOL    HW1 6377   5.086   4.265   1.987  0.6101 -1.3509  0.3212
 2019SOL    HW2 6378   5.094   4.382   2.100 -2.9357  0.6917 -1.3592
 2020SOL     OW 6379   1.390   0.499   1.363 -0.3083 -0.3811  0.2764
 2020SOL    HW1 6380   1.399   0.598   1.368  2.1539 -0.4826 -0.8831
 2020SOL    HW2 6381   1.310   0.470   1.416 -1.5399  2.2514 -0.0169
 2021SOL     OW 6382   1.282   0.869   2.706 -0.1935 -0.3890  0.1739
 2021SOL    HW1 6383   1.254   0.812   2.783 -0.8474 -0.8325 -0.3832
 2021SOL    HW2 6384   1.236   0.957   2.711  0.6301  0.0168  0.9002
 2022SOL     OW 6385   3.344   1.931   3.737 -0.2879 -0.2339  0.0845
 2022SOL    HW1 6386   3.405   2.010   3.748  0.4892 -0.9041  0.6911
 2022SOL    HW2 6387   3.377   1.855   3.793 -0.6804 -1.2013 -0.9478
 2023SOL     OW 6388   0.028   3.010   2.614  0.0649 -0.4331 -0.0788
 2023SOL    HW1 6389   0.126   3.026   2.603  0.3567 -2.8942 -1.6331
 2023SOL    HW2 6390  -0.023   3.075   2.557  0.9612 -1.3713 -2.0372
 2024SOL     OW 6391   0.737   3.976   2.445 -0.3352  0.0736 -0.2222
 2024SOL    HW1 6392   0.682   3.916   2.503  0.6295 -0.4406  0.1941
 2024SOL    HW2 6393   0.834   3.958   2.461 -0.0345  0.9208 -0.9704
 2025SOL     OW 6394   4.423   1.533   0.996 -0.0237  0.2084  0.1767
 2025SOL    HW1 6395   4.476   1.473   0.937 -1.2092  0.0578 -0.7513
 2025SOL    HW2 6396   4.333   1.493   1.013  0.1565  0.4235  1.7953
 2026SOL     OW 6397   5.018   2.202   0.764 -0.0607  0.0263  0.3197
 2026SOL    HW1 6398   4.999   2.281   0.822 -0.4850  0.2957 -0.1820
 2026SOL    HW2 6399   5.077   2.138   0.814  0.6309  0.8443  0.5709
 2027SOL     OW 6400   3.808   5.092   3.248 -0.0604 -0.3494  0.1201
 2027SOL    HW1 6401   3.849   5.126   3.333  0.7850  0.5266 -0.6091
 2027SOL    HW2 6402   3.710   5.111   3.247  0.2726  1.5782  0.0177
 2028SOL     OW 6403   0.523   5.362   0.286  0.5373 -0.2546  0.1467
 2028SOL    HW1 6404   0.451   5.427   0.311  0.1855 -0.4090 -0.4503
 2028SOL    HW2 6405   0.611   5.409   0.283  0.5169 -0.1256  1.1671
 2029SOL     OW 6406   4.214   3.190   1.387 -0.0507 -0.1580 -0.0206
 2029SOL    HW1 6407   4.168   3.108   1.354  0.6461 -0.2737 -0.7374
 2029SOL    HW2 6408   4.193   3.203   1.484 -0.0333 -1.2763  0.1506
 2030SOL     OW 6409   4.584   0.831   0.314 -0.1083  0.4643 -0.2989
 2030SOL    HW1 6410   4.633   0.918   0.317  1.6074 -0.3731 -1.6578
 2030SOL    HW2 6411   4.622   0.769   0.383 -0.1764  0.2571 -0.4455
 2031SOL     OW 6412   5.411   0.420   2.213 -0.0326  0.4167 -0.4171
 2031SOL    HW1 6413   5.494   0.417   2.158  0.3538  0.8382  0.1339
 2031SOL    HW2 6414   5.392   0.329   2.251  1.7371  0.8585  1.7244
 2032SOL     OW 6415   5.279   3.404   4.769  0.4379  0.4890 -0.1642
 2032SOL    HW1 6416   5.284   3.425   4.671 -0.5682 -0.3478 -0.4149
 2032SOL    HW2 6417   5.270   3.305   4.782  0.0012  0.6358  0.7472
 2033SOL     OW 6418   4.770   1.001   5.498 -0.0171  0.2758 -0.3260
 2033SOL    HW1 6419   4.757   1.009   5.399  1.3645  0.3225 -0.5162
 2033SOL    HW2 6420   4.855   0.953   5.517 -0.4776 -0.1091  0.8538
 2034SOL     OW 6421   5.227   0.489   0.622 -0.1903 -0.0242 -0.2825
 2034SOL    HW1 6422   5.160   0.417   0.605 -0.9397  0.4555  0.5377
 2034SOL    HW2 6423   5.229   0.510   0.720  1.0401  0.0984 -0.3147
 2035SOL     OW 6424   2.990   1.078   3.349 -0.2321 -0.1329 -0.1121
 2035SOL    HW1 6425   2.998   1.141   3.272 -1.2507  1.2415  0.8526
 2035SOL    HW2 6426   3.038   1.115   3.428 -3.2490  1.0269  1.3556
 2036SOL     OW 6427   2.124   3.358   5.448 -0.2321  0.0619  0.3491
 2036SOL    HW1 6428   2.147   3.384   5.542  1.3765 -0.8678  0.2599
 2036SOL    HW2 6429   2.072   3.273   5.448 -0.5004  0.2251  0.4051
 2037SOL     OW 6430   4.671   4.521   0.154 -0.1839  0.0900 -0.0753
 2037SOL    HW1 6431   4.574   4.544   0.143  0.4147  2.0627 -1.8473
 2037SOL    HW2 6432   4.706   4.483   0.068  1.1106  1.4298 -0.1649
 2038SOL     OW 6433   3.105   4.984   1.298 -0.6697 -0.2704 -0.1094
 2038SOL    HW1 6434   3.037   4.967   1.369  0.1108  0.2361  0.7757
 2038SOL    HW2 6435   3.187   4.930   1.315  0.0463  0.8601  0.1606
 2039SOL     OW 6436   2.574   1.344   1.096  0.4131  0.2383 -0.5356
 2039SOL    HW1 6437   2.516   1.263   1.092  0.5378  0.1970 -1.7515
 2039SOL    HW2 6438   2.546   1.409   1.026 -0.5144  1.8458  1.2364
 2040SOL     OW 6439   3.810   1.979   5.261 -0.8812 -0.7639 -0.6465
 2040SOL    HW1 6440   3.906   1.952   5.252  0.7263  3.7801 -0.0384
 2040SOL    HW2 6441   3.772   1.995   5.169  0.2137  0.7624 -0.8888
 2041SOL     OW 6442   3.560   4.581   2.467  0.2874  0.1790  0.2181
 2041SOL    HW1 6443   3.618   4.662   2.468  1.5642 -0.7161  0.7886
 2041SOL    HW2 6444   3.603   4.509   2.413 -0.9896 -0.0447 -0.5697
 2042SOL     OW 6445   0.240   4.125   5.079  0.1952  0.1373 -0.3114
 2042SOL    HW1 6446   0.163   4.188   5.068 -0.1690 -0.1925  0.2891
 2042SOL    HW2 6447   0.311   4.169   5.134  0.1613  0.2139 -0.3291
 2043SOL     OW 6448   4.324   3.289   1.906 -0.4192  0.0977 -0.1948
 2043SOL    HW1 6449   4.276   3.203   1.918 -0.2734  0.1803  1.1238
 2043SOL    HW2 6450   4.392   3.280   1.833  0.0491 -1.1069  0.3644
 2044SOL     OW 6451   3.598   2.895   1.900 -0.5487 -0.8930  0.3326
 2044SOL    HW1 6452   3.661   2.921   1.974 -0.4303  0.7557 -0.2971
 2044SOL    HW2 6453   3.528   2.834   1.936 -0.8576  0.3581  1.9855
 2045SOL     OW 6454   3.542   5.192   3.236  0.1850 -0.2963  0.3344
 2045SOL    HW1 6455   3.486   5.119   3.196  0.4957 -0.4821  0.2316
 2045SOL    HW2 6456   3.556   5.264   3.168  0.4122 -0.4432  0.2235
 2046SOL     OW 6457   1.384   3.571   0.635  0.1479 -0.5140 -0.3048
 2046SOL    HW1 6458   1.405   3.645   0.571  0.9182 -0.9907 -0.6294
 2046SOL    HW2 6459   1.385   3.484   0.586  1.0487 -0.9190  0.4043
 2047SOL     OW 6460   2.871   0.364   1.384 -0.4425 -0.4346 -0.3541
 2047SOL    HW1 6461   2.906   0.443   1.334 -0.3400 -2.3885 -3.6794
 2047SOL    HW2 6462   2.772   0.375   1.397 -0.1111  1.1314  1.1579
 2048SOL     OW 6463   1.451   1.303   3.266 -0.5097 -0.9474 -0.2703
 2048SOL    HW1 6464   1.425   1.359   3.344 -2.3213 -0.9081 -0.8761
 2048SOL    HW2 6465   1.439   1.355   3.182  1.2139 -1.0669 -0.6364
 2049SOL     OW 6466   0.340   2.276   1.510 -0.5012 -0.3105 -0.5690
 2049SOL    HW1 6467   0.306   2.355   1.459 -0.8773 -1.4491 -2.1913
 2049SOL    HW2 6468   0.437   2.288   1.529 -0.7419  0.9095 -0.0008
 2050SOL     OW 6469   5.098   3.929   4.924 -0.0948  0.5972  0.6017
 2050SOL    HW1 6470   5.017   3.967   4.969 -1.6966  0.4603 -1.9790
 2050SOL    HW2 6471   5.132   3.851   4.978 -0.4919  1.7744  2.6838
 2051SOL     OW 6472   4.837   2.847   1.963  0.6722  0.5182  0.1549
 2051SOL    HW1 6473   4.757   2.824   2.018  0.6034  0.9517  0.2420
 2051SOL    HW2 6474   4.915   2.863   2.023  0.7187  0.5132  0.0954
 2052SOL     OW 6475   3.355   0.262   4.035 -0.0620  0.0845  0.0909
 2052SOL    HW1 6476   3.393   0.355   4.028  2.3619 -0.8367  0.0249
 2052SOL    HW2 6477   3.300   0.255   4.118 -1.0415  1.8007 -0.3603
 2053SOL     OW 6478   0.373   3.150   3.949  0.6336 -0.1471  0.1744
 2053SOL    HW1 6479   0.316   3.087   3.895 -2.5123  0.6316  2.2938
 2053SOL    HW2 6480   0.350   3.244   3.926  0.9451  0.1859  1.1503
 2054SOL     OW 6481   4.241   2.509   3.644  0.3180 -0.1777 -0.3603
 2054SOL    HW1 6482   4.176   2.501   3.720 -0.0325 -1.3511 -0.7651
 2054SOL    HW2 6483   4.200   2.473   3.560  1.8313 -1.9168 -0.4122
 2055SOL     OW 6484   2.440   4.398   3.527 -0.1895 -0.4257 -0.3646
 2055SOL    HW1 6485   2.503   4.328   3.492 -1.1610 -1.4541 -0.1332
 2055SOL    HW2 6486   2.388   4.437   3.451  0.0279 -0.2792 -0.4398
 2056SOL     OW 6487   5.392   2.673   2.079 -0.4933  0.2532 -0.5808
 2056SOL    HW1 6488   5.382   2.747   2.145 -1.3182 -0.4036  0.0555
 2056SOL    HW2 6489   5.311   2.615   2.082  0.3532 -0.9762 -0.6917
 2057SOL     OW 6490   0.957   4.689   0.579 -0.0535  0.2698 -0.1043
 2057SOL    HW1 6491   1.001   4.609   0.538  1.0575  0.6087  0.3756
 2057SOL    HW2 6492   0.865   4.665   0.610  1.2601 -1.6946  2.7434
 2058SOL     OW 6493   1.516   1.371   3.810  0.0826 -0.0033  0.5515
 2058SOL    HW1 6494   1.512   1.449   3.872 -0.2248 -0.4481  1.0965
 2058SOL    HW2 6495   1.599   1.377   3.755  0.7659 -0.0149  1.5601
 2059SOL     OW 6496   3.410   4.819   4.305  0.5466 -0.1744  0.2560
 2059SOL    HW1 6497   3.355   4.735   4.303 -2.4223  1.5233  2.1572
 2059SOL    HW2 6498   3.365   4.890   4.252  2.0248  0.7852  0.2166
 2060SOL     OW 6499   3.410   0.489   1.071  0.0777 -0.5649  0.0670
 2060SOL    HW1 6500   3.389   0.457   1.164 -0.1210 -1.2144 -0.1988
 2060SOL    HW2 6501   3.345   0.450   1.007 -1.1524  1.5587 -0.0994
 2061SOL     OW 6502   3.470   2.443   1.517 -0.6287 -0.0037  0.1634
 2061SOL    HW1 6503   3.457   2.542   1.521  2.0667  0.4865 -0.8832
 2061SOL    HW2 6504   3.419   2.405   1.441  0.8649  1.1664 -1.5088
 2062SOL     OW 6505   2.988   2.052   2.474  0.0614  0.8145 -0.2317
 2062SOL    HW1 6506   2.983   2.025   2.570 -0.9898  0.4188 -0.3830
 2062SOL    HW2 6507   2.984   1.970   2.416 -0.0455  1.0956 -0.6259
 2063SOL     OW 6508   3.037   3.695   2.847 -0.2071 -0.3044  0.3940
 2063SOL    HW1 6509   2.938   3.697   2.838 -0.2584  1.6530  0.9691
 2063SOL    HW2 6510   3.078   3.752   2.775  0.5134 -0.9805  0.2472
 2064SOL     OW 6511   1.827   0.319   4.291 -0.3506  0.2117 -0.4823
 2064SOL    HW1 6512   1.733   0.288   4.311 -0.3346  0.4218 -0.0733
 2064SOL    HW2 6513   1.827   0.418   4.276 -0.2862  0.1246 -1.0768
 2065SOL     OW 6514   1.828   0.277   1.740  0.4596 -0.2638 -1.0323
 2065SOL    HW1 6515   1.853   0.240   1.651 -0.4844  0.0082 -1.4224
 2065SOL    HW2 6516   1.735   0.314   1.736  1.6546  3.0564 -0.9401
 2066SOL     OW 6517   0.635   2.842   1.772 -0.1441  0.4593 -0.2921
 2066SOL    HW1 6518   0.610   2.893   1.690 -2.1168 -0.7715 -0.5222
 2066SOL    HW2 6519   0.560   2.780   1.797  2.1435 -2.4800 -0.1696
 2067SOL     OW 6520   0.314   4.333   0.172  0.2379 -0.3084  0.3858
 2067SOL    HW1 6521   0.379   4.406   0.196 -0.4776  0.4875 -0.0158
 2067SOL    HW2 6522   0.238   4.373   0.122  0.9857 -1.6854 -2.0016
 2068SOL     OW 6523   4.758   5.412   0.394  0.1111 -0.4997 -0.2879
 2068SOL    HW1 6524   4.784   5.509   0.399  0.6677 -0.6344 -0.4858
 2068SOL    HW2 6525   4.802   5.363   0.469 -0.0526 -0.6303 -0.2768
 2069SOL     OW 6526   1.569   3.780   1.003  0.8488 -0.1958 -0.1947
 2069SOL    HW1 6527   1.572   3.857   1.067 -0.9664 -0.3371  0.1138
 2069SOL    HW2 6528   1.493   3.719   1.027  1.4400 -1.3953 -1.2203
 2070SOL     OW 6529   1.279   0.676   3.896  0.6266 -0.2658  0.3337
 2070SOL    HW1 6530   1.365   0.694   3.943  0.5373  0.7671  0.1079
 2070SOL    HW2 6531   1.254   0.755   3.840 -0.5997 -0.4606  0.5917
 2071SOL     OW 6532   4.930   1.382   3.562 -0.3707 -0.1333 -0.3701
 2071SOL    HW1 6533   4.890   1.346   3.646  0.8465 -2.1386 -0.5807
 2071SOL    HW2 6534   4.858   1.399   3.495 -1.1147 -1.2902  0.1050
 2072SOL     OW 6535   2.446   3.520   1.378 -0.4176 -0.6412 -0.2859
 2072SOL    HW1 6536   2.476   3.512   1.283 -0.5726 -1.4647 -0.2752
 2072SOL    HW2 6537   2.522   3.553   1.434  0.1710 -1.6845 -0.4384
 2073SOL     OW 6538   3.565   1.676   2.889  0.1810 -0.2257  0.7494
 2073SOL    HW1 6539   3.551   1.652   2.793  0.7035 -0.7044  0.7869
 2073SOL    HW2 6540   3.480   1.662   2.940 -0.3685  0.9381  0.1844
 2074SOL     OW 6541   0.216   1.891   2.509  0.3836 -0.0727 -0.7153
 2074SOL    HW1 6542   0.300   1.929   2.470  0.3659 -0.1818 -0.8616
 2074SOL    HW2 6543   0.229   1.875   2.606  0.2372  0.7460 -0.5573
 2075SOL     OW 6544   2.721   2.389   4.751 -0.1698 -0.3575  0.6699
 2075SOL    HW1 6545   2.809   2.398   4.705 -0.0212 -1.6258  0.6731
 2075SOL    HW2 6546   2.647   2.414   4.688  0.0980 -0.9824  0.1015
 2076SOL     OW 6547   1.265   4.171   1.703 -0.1335  0.2900  0.2957
 2076SOL    HW1 6548   1.336   4.134   1.644  0.8970  0.8295  1.1520
 2076SOL    HW2 6549   1.199   4.100   1.725 -0.2499 -0.0422 -1.0756
 2077SOL     OW 6550   4.165   3.688   4.967  0.2232 -0.3592 -0.0268
 2077SOL    HW1 6551   4.152   3.599   5.010  0.5953 -0.6336 -0.4720
 2077SOL    HW2 6552   4.263   3.709   4.962  0.1129  0.4252  0.7651
 2078SOL     OW 6553   0.243   0.468   2.243  0.1761  0.2335  0.0985
 2078SOL    HW1 6554   0.290   0.398   2.295  3.1084  0.5155 -1.9207
 2078SOL    HW2 6555   0.257   0.557   2.286 -2.1204 -0.1273  1.7358
 2079SOL     OW 6556   5.239   0.567   2.015 -0.3847  0.0365 -0.2154
 2079SOL    HW1 6557   5.201   0.586   1.925  0.2088  2.3870 -0.0403
 2079SOL    HW2 6558   5.339   0.560   2.008  0.1312  3.8724  0.5992
 2080SOL     OW 6559   1.336   2.181   3.379  0.0649 -0.5916  0.1794
 2080SOL    HW1 6560   1.376   2.156   3.290  0.6345 -0.3612  0.3638
 2080SOL    HW2 6561   1.396   2.147   3.452 -1.2716 -2.3275  0.5332
 2081SOL     OW 6562   0.714   5.515   5.160  0.4117 -0.1458  0.5632
 2081SOL    HW1 6563   0.793   5.575   5.159  1.7518 -1.7222  2.8978
 2081SOL    HW2 6564   0.740   5.425   5.195 -1.9383 -1.5207 -0.8801
 2082SOL     OW 6565   5.308   4.330   3.726  0.4787  0.2917 -0.4021
 2082SOL    HW1 6566   5.405   4.342   3.706  0.6045  0.0896  0.0536
 2082SOL    HW2 6567   5.274   4.247   3.681  1.0955 -0.9290  1.2637
 2083SOL     OW 6568   5.427   2.580   1.298  0.2865  0.2943 -0.5787
 2083SOL    HW1 6569   5.440   2.492   1.346  0.3274 -0.0403 -1.1983
 2083SOL    HW2 6570   5.346   2.626   1.336  2.5199  1.9692  2.6658
 2084SOL     OW 6571   2.744   0.093   3.113 -0.3880  0.1123 -0.2850
 2084SOL    HW1 6572   2.833   0.072   3.073 -0.4554  2.3574 -1.7966
 2084SOL    HW2 6573   2.753   0.102   3.212  0.8349 -0.6252 -0.3062
 2085SOL     OW 6574   0.074   3.562   2.863 -0.0034  0.4230  0.5576
 2085SOL    HW1 6575   0.155   3.540   2.916 -0.3048  1.7266  1.6232
 2085SOL    HW2 6576   0.003   3.598   2.924 -1.1391 -0.0341 -0.4441
 2086SOL     OW 6577   4.978   1.408   2.562 -0.2985  0.1658 -0.4075
 2086SOL    HW1 6578   4.966   1.430   2.465 -0.1097  0.6100 -0.3337
 2086SOL    HW2 6579   4.922   1.329   2.586  1.6025 -1.5937 -1.4788
 2087SOL     OW 6580   5.411   4.932   0.366 -0.4934  0.2617  0.1428
 2087SOL    HW1 6581   5.473   4.970   0.297 -0.7848 -0.7826 -0.7179
 2087SOL    HW2 6582   5.373   4.845   0.334 -0.3941 -0.4208  1.7614
 2088SOL     OW 6583   2.608   2.917   2.113 -0.0451  0.6868  0.1426
 2088SOL    HW1 6584   2.688   2.963   2.074  1.1286 -0.7427  0.7770
 2088SOL    HW2 6585   2.533   2.982   2.121  0.1455  1.4768 -2.9755
 2089SOL     OW 6586   3.074   4.897   2.989  0.1194  0.1638  0.3835
 2089SOL    HW1 6587   3.149   4.863   3.046 -0.2980 -0.9536  0.3058
 2089SOL    HW2 6588   3.042   4.985   3.024  1.2286  0.4833  0.6206
 2090SOL     OW 6589   5.471   5.465   1.666 -0.5128  0.2038  0.1112
 2090SOL    HW1 6590   5.424   5.553   1.673  0.4234  0.8511 -1.2420
 2090SOL    HW2 6591   5.503   5.452   1.572 -2.0809 -2.3622 -0.1575
 2091SOL     OW 6592   2.311   3.599   0.543 -0.7733 -0.0668  0.4848
 2091SOL    HW1 6593   2.229   3.602   0.485 -0.8144  1.1781  0.5824
 2091SOL    HW2 6594   2.286   3.569   0.634 -0.9388 -0.7101  0.2339
 2092SOL     OW 6595   1.080   4.298   2.093  0.2307  0.4928 -0.5984
 2092SOL    HW1 6596   1.147   4.330   2.026 -0.1441 -0.4251 -1.4519
 2092SOL    HW2 6597   0.996   4.351   2.085  0.3856  0.7561 -0.4667
 2093SOL     OW 6598   4.855   5.104   0.927 -0.7566  0.0705 -0.4602
 2093SOL    HW1 6599   4.821   5.188   0.884 -0.6500 -0.4596 -1.6007
 2093SOL    HW2 6600   4.953   5.113   0.945 -0.4256 -0.3561 -1.9591
 2094SOL     OW 6601   0.267   4.267   2.653 -0.6593 -0.1755 -0.5008
 2094SOL    HW1 6602   0.329   4.345   2.656 -0.0254 -0.7054  0.6403
 2094SOL    HW2 6603   0.250   4.233   2.745 -0.8496 -1.4541 -0.9757
 2095SOL     OW 6604   2.177   1.746   0.298 -0.5044  0.1266 -0.2566
 2095SOL    HW1 6605   2.180   1.843   0.277 -2.5131  0.3981  0.5692
 2095SOL    HW2 6606   2.084   1.719   0.323 -0.2757 -2.2682 -1.6294
 2096SOL     OW 6607   4.180   3.003   4.346 -0.1371 -0.4285 -0.0983
 2096SOL    HW1 6608   4.243   3.056   4.403  0.0549  0.3002 -0.9650
 2096SOL    HW2 6609   4.129   2.938   4.403 -0.9322  1.2144  1.1147
 2097SOL     OW 6610   4.301   5.065   5.280 -0.5264 -0.0117 -0.0894
 2097SOL    HW1 6611   4.355   5.050   5.363  0.6387  1.4586 -0.5166
 2097SOL    HW2 6612   4.333   5.004   5.208 -2.1661 -1.9607  0.7403
 2098SOL     OW 6613   3.974   3.480   1.167  0.1136  0.6475  0.1743
 2098SOL    HW1 6614   3.997   3.385   1.145  2.1191  0.9737  0.6433
 2098SOL    HW2 6615   4.000   3.500   1.261 -1.3541  1.3700  0.4588
 2099SOL     OW 6616   0.366   1.286   2.963  0.1265  0.0610  0.4515
 2099SOL    HW1 6617   0.411   1.319   2.880 -1.1948 -1.2971 -0.8784
 2099SOL    HW2 6618   0.348   1.188   2.954 -3.3297  0.5348  0.7139
 2100SOL     OW 6619   5.425   3.363   4.371 -0.2838 -0.3785 -0.1199
 2100SOL    HW1 6620   5.434   3.266   4.394  0.5190 -0.3848 -0.4309
 2100SOL    HW2 6621   5.500   3.390   4.311  0.5716  0.9055  1.4723
 2101SOL     OW 6622   1.800   0.611   1.745  0.2276  0.1491 -0.5127
 2101SOL    HW1 6623   1.867   0.665   1.693 -0.3543  0.9032 -0.5005
 2101SOL    HW2 6624   1.784   0.655   1.833 -2.3589  1.6166 -1.5854
 2102SOL     OW 6625   1.084   5.181   3.944 -0.2735 -0.1161 -0.0700
 2102SOL    HW1 6626   1.043   5.257   3.893  2.3174  1.9804  0.7421
 2102SOL    HW2 6627   1.083   5.099   3.887  0.0294  1.4119 -2.4334
 2103SOL     OW 6628   4.380   4.923   4.606  0.3854  0.1655 -0.0711
 2103SOL    HW1 6629   4.441   4.961   4.537  1.3244  0.5129  0.9201
 2103SOL    HW2 6630   4.326   4.997   4.647  0.2070  0.0334 -0.0624
 2104SOL     OW 6631   1.107   2.236   2.275 -0.5933 -0.1540 -0.3756
 2104SOL    HW1 6632   1.013   2.211   2.300 -0.7960  1.4941  0.6968
 2104SOL    HW2 6633   1.148   2.288   2.350  0.8434  0.0049 -1.2386
 2105SOL     OW 6634   2.315   1.819   0.833 -0.2526  0.2056 -0.0417
 2105SOL    HW1 6635   2.312   1.780   0.741  1.6968  0.8408 -0.4101
 2105SOL    HW2 6636   2.254   1.767   0.893 -1.6814 -0.1218 -1.6938
 2106SOL     OW 6637   5.141   2.788   0.054  0.0228 -0.5272  0.4163
 2106SOL    HW1 6638   5.167   2.765  -0.040  0.7888 -0.1911  0.5397
 2106SOL    HW2 6639   5.042   2.797   0.060 -0.1828 -2.2513  0.0238
 2107SOL     OW 6640   1.640   0.315   5.194  0.2332 -0.8906  0.1254
 2107SOL    HW1 6641   1.659   0.239   5.257 -1.9887 -0.5108  1.3510
 2107SOL    HW2 6642   1.635   0.401   5.246 -0.9539 -0.4588 -0.6581
 2108SOL     OW 6643   3.048   2.021   3.936  0.3049  0.6117 -0.0480
 2108SOL    HW1 6644   3.104   2.005   4.017  1.9891  2.6820 -0.6932
 2108SOL    HW2 6645   3.083   1.967   3.860 -0.7344 -0.6611  0.3374
 2109SOL     OW 6646   5.186   3.275   3.003 -0.0343 -0.4942 -0.4368
 2109SOL    HW1 6647   5.162   3.212   2.929  0.3386 -1.0701 -0.0830
 2109SOL    HW2 6648   5.193   3.223   3.088 -0.4041  0.1489 -0.0039
 2110SOL     OW 6649   4.578   4.140   3.533 -0.1288 -0.3043  0.1456
 2110SOL    HW1 6650   4.519   4.097   3.601 -0.7560  1.6396  0.9120
 2110SOL    HW2 6651   4.603   4.232   3.565  0.7771  0.0866 -1.5922
 2111SOL     OW 6652   3.668   0.481   2.374 -0.0832  0.6276 -0.5433
 2111SOL    HW1 6653   3.626   0.484   2.464  1.4105  1.8646  0.1684
 2111SOL    HW2 6654   3.652   0.392   2.332  0.7898 -0.7133  1.7637
 2112SOL     OW 6655   2.669   4.954   4.958  0.1161  0.3377 -0.3031
 2112SOL    HW1 6656   2.592   4.892   4.945 -0.2982  0.9955 -1.0823
 2112SOL    HW2 6657   2.712   4.937   5.047  0.5182 -1.6087 -0.8196
 2113SOL     OW 6658   3.772   5.320   3.799  0.0483  0.3346 -0.1554
 2113SOL    HW1 6659   3.834   5.332   3.722 -1.0389 -1.5918 -1.4116
 2113SOL    HW2 6660   3.822   5.333   3.885  1.8870  0.0631 -1.1435
 2114SOL     OW 6661   5.544   3.603   0.928  0.0348  0.4907 -0.0493
 2114SOL    HW1 6662   5.479   3.664   0.882 -0.7841 -0.0638  0.3580
 2114SOL    HW2 6663   5.511   3.581   1.019 -0.7636 -2.2075 -0.8913
 2115SOL     OW 6664   4.509   4.123   3.020  0.2857 -0.3737  0.0624
 2115SOL    HW1 6665   4.589   4.141   2.963  1.3330 -1.9112  0.9906
 2115SOL    HW2 6666   4.515   4.031   3.058 -0.8897  0.2404  1.8492
 2116SOL     OW 6667   2.240   1.228   1.315  0.0580  0.1885  0.2268
 2116SOL    HW1 6668   2.284   1.292   1.252 -0.8875 -0.7214 -1.4337
 2116SOL    HW2 6669   2.141   1.230   1.300 -0.0737 -0.9350  0.8417
 2117SOL     OW 6670   4.810   2.023   5.248  0.0428  0.6544  0.0239
 2117SOL    HW1 6671   4.866   1.940   5.250 -0.9476 -0.0645 -0.8036
 2117SOL    HW2 6672   4.851   2.090   5.186 -0.8641 -0.5487 -1.9768
 2118SOL     OW 6673   3.496   0.103   0.098  0.3359  0.1583  0.3371
 2118SOL    HW1 6674   3.491   0.131   0.194 -0.1695  1.0912  0.0389
 2118SOL    HW2 6675   3.494   0.003   0.093  0.4983  0.0949  1.3000
 2119SOL     OW 6676   2.577   2.226   4.903  0.2324 -0.1998 -0.4217
 2119SOL    HW1 6677   2.621   2.280   4.831  0.2604 -0.4405 -0.5851
 2119SOL    HW2 6678   2.478   2.238   4.897  0.2911  0.7646  0.2790
 2120SOL     OW 6679   3.428   2.047   1.038 -0.2203  0.1065  0.0333
 2120SOL    HW1 6680   3.399   2.067   0.945 -0.3012  0.9402  0.2307
 2120SOL    HW2 6681   3.511   1.990   1.036 -0.3586 -0.0822 -0.5368
 2121SOL     OW 6682   1.445   5.334   3.769 -0.1683 -0.2372 -0.3289
 2121SOL    HW1 6683   1.433   5.402   3.696 -0.6367 -0.8350 -0.8268
 2121SOL    HW2 6684   1.410   5.371   3.855 -0.6155  0.0799 -0.6393
 2122SOL     OW 6685   1.962   3.011   3.512  0.0822  0.1811  0.3047
 2122SOL    HW1 6686   1.943   2.994   3.415  1.6546 -1.6435  0.2533
 2122SOL    HW2 6687   2.044   3.066   3.521  0.0416  0.1913  0.6105
 2123SOL     OW 6688   0.392   5.076   2.226 -0.0584  0.8108  0.4193
 2123SOL    HW1 6689   0.316   5.011   2.230 -0.6202  1.4571  0.3693
 2123SOL    HW2 6690   0.424   5.095   2.319 -0.7558  1.4600  0.5306
 2124SOL     OW 6691   2.688   1.976   5.453  0.5164 -0.0349  0.1053
 2124SOL    HW1 6692   2.660   2.068   5.425  3.6184  1.1246  0.4324
 2124SOL    HW2 6693   2.684   1.969   5.553  0.3691 -0.2573  0.0856
 2125SOL     OW 6694   2.869   4.729   3.555 -0.0498  0.5081  0.2918
 2125SOL    HW1 6695   2.947   4.684   3.599 -0.0466  0.9669  0.7548
 2125SOL    HW2 6696   2.847   4.680   3.470  0.3284 -0.0142  0.4857
 2126SOL     OW 6697   4.272   0.889   1.073 -0.1318 -0.4767  0.3988
 2126SOL    HW1 6698   4.185   0.866   1.028 -1.3371  0.6283  2.0257
 2126SOL    HW2 6699   4.319   0.959   1.019 -0.3296 -0.9549 -0.4094
 2127SOL     OW 6700   3.479   0.232   0.335  0.7072 -0.0691 -0.3555
 2127SOL    HW1 6701   3.575   0.237   0.362  0.5740  1.5091 -0.1118
 2127SOL    HW2 6702   3.436   0.322   0.345 -0.5289 -0.4983 -1.4669
 2128SOL     OW 6703   4.403   4.469   2.936 -0.0865 -0.4141  0.0647
 2128SOL    HW1 6704   4.485   4.450   2.991 -0.4254  1.4890  1.3218
 2128SOL    HW2 6705   4.363   4.383   2.906  2.0494 -1.4101 -0.1125
 2129SOL     OW 6706   1.546   0.718   3.962 -0.0002 -0.1668  0.2550
 2129SOL    HW1 6707   1.644   0.725   3.946 -0.1860 -0.6801 -1.3329
 2129SOL    HW2 6708   1.515   0.797   4.014  0.7848  1.6175 -1.8449
 2130SOL     OW 6709   4.821   1.222   3.749 -0.3067  0.5463  0.2894
 2130SOL    HW1 6710   4.732   1.248   3.787 -0.6733 -1.1434  0.6447
 2130SOL    HW2 6711   4.872   1.170   3.817  0.0972 -0.2765 -0.6302
 2131SOL     OW 6712   1.844   0.607   5.451  0.6473 -0.3653  0.2237
 2131SOL    HW1 6713   1.855   0.688   5.393  1.6058 -0.2240  0.5780
 2131SOL    HW2 6714   1.747   0.592   5.469  0.4531  0.7379  0.1914
 2132SOL     OW 6715   1.961   4.387   4.082 -0.2149 -0.4621 -0.3122
 2132SOL    HW1 6716   1.973   4.424   3.990  0.7454  1.8567  0.6908
 2132SOL    HW2 6717   1.870   4.345   4.089 -0.6333  0.0779 -2.0456
 2133SOL     OW 6718   4.031   0.169   4.376 -0.0167  0.1857  0.6256
 2133SOL    HW1 6719   4.004   0.081   4.415 -3.1488  0.7189 -0.0340
 2133SOL    HW2 6720   3.996   0.243   4.434 -0.4196  0.9619 -0.5549
 2134SOL     OW 6721   4.783   3.008   4.771 -0.6324 -0.8525  0.1042
 2134SOL    HW1 6722   4.730   2.974   4.693 -1.6086 -0.5623  0.6268
 2134SOL    HW2 6723   4.829   3.093   4.746 -0.7827 -0.8645 -0.2206
 2135SOL     OW 6724   2.255   4.113   2.879  0.3523  0.1272  0.2222
 2135SOL    HW1 6725   2.254   4.014   2.865  1.4967  0.0773  0.3714
 2135SOL    HW2 6726   2.262   4.159   2.790 -0.9189  0.1122  0.0999
 2136SOL     OW 6727   2.346   1.162   0.058 -0.7609  0.2555  0.0266
 2136SOL    HW1 6728   2.405   1.085   0.033  1.1871  1.1767  1.4817
 2136SOL    HW2 6729   2.349   1.176   0.157 -3.6173  0.2808  0.1900
 2137SOL     OW 6730   3.318   5.041   4.153 -0.5497 -0.1882 -0.4396
 2137SOL    HW1 6731   3.366   5.118   4.195 -1.1105  0.5342 -1.0958
 2137SOL    HW2 6732   3.331   5.043   4.054 -1.8554 -0.0185 -0.6222
 2138SOL     OW 6733   5.429   1.054   4.442  0.3936  0.2438  0.5081
 2138SOL    HW1 6734   5.342   1.010   4.421  0.9560 -0.5261 -0.2978
 2138SOL    HW2 6735   5.417   1.153   4.444 -0.6575  0.1199  1.2100
 2139SOL     OW 6736   2.370   4.221   2.625 -0.6508  0.2243 -0.5964
 2139SOL    HW1 6737   2.459   4.260   2.650 -1.0355  0.6197  0.1853
 2139SOL    HW2 6738   2.354   4.235   2.527 -0.3552  1.1794 -0.5164
 2140SOL     OW 6739   0.114   4.251   1.723 -0.2947 -0.4120 -0.7503
 2140SOL    HW1 6740   0.124   4.320   1.794 -0.4158 -0.7894 -0.3634
 2140SOL    HW2 6741   0.129   4.292   1.633  1.1144 -0.1992 -0.4256
 2141SOL     OW 6742   3.578   2.768   3.790 -0.2468  0.3524 -0.4016
 2141SOL    HW1 6743   3.580   2.866   3.771 -0.4918  0.4745  0.1820
 2141SOL    HW2 6744   3.629   2.720   3.720 -0.2335  0.8870 -0.7668
 2142SOL     OW 6745   3.108   4.489   1.394  0.0921 -0.5477  0.7605
 2142SOL    HW1 6746   3.054   4.522   1.316  0.9186 -0.8114  0.0640
 2142SOL    HW2 6747   3.067   4.522   1.479 -0.1623  0.7231  0.1704
 2143SOL     OW 6748   1.050   4.245   0.721 -0.3428  0.4652 -0.4290
 2143SOL    HW1 6749   1.013   4.302   0.795 -1.8933 -0.4267 -0.4775
 2143SOL    HW2 6750   0.995   4.162   0.713  1.8150 -1.0354 -0.4123
 2144SOL     OW 6751   4.321   0.592   4.340 -0.1882 -0.2727  0.9263
 2144SOL    HW1 6752   4.375   0.508   4.343  0.5837  0.1982  0.5857
 2144SOL    HW2 6753   4.230   0.572   4.305  0.5289 -0.7093 -0.8207
 2145SOL     OW 6754   1.694   3.752   3.934  0.1451 -0.0556  0.0257
 2145SOL    HW1 6755   1.600   3.751   3.900  0.5195 -1.7366 -1.0700
 2145SOL    HW2 6756   1.715   3.664   3.978  1.0252  0.5176  0.8089
 2146SOL     OW 6757   4.462   5.465   0.961 -0.0395 -0.5771  0.6125
 2146SOL    HW1 6758   4.478   5.511   0.874  0.5688  0.2977  1.1630
 2146SOL    HW2 6759   4.441   5.534   1.031  1.3649 -1.0741  1.5660
 2147SOL     OW 6760   5.459   0.660   0.806 -0.2550 -0.1425  0.0263
 2147SOL    HW1 6761   5.372   0.639   0.850 -1.0585  1.5118 -0.7145
 2147SOL    HW2 6762   5.443   0.706   0.720  1.3679  0.0373 -0.2100
 2148SOL     OW 6763   4.426   1.072   4.799  0.2369 -0.1168 -0.3295
 2148SOL    HW1 6764   4.343   1.125   4.816 -1.2284 -1.0006 -3.8673
 2148SOL    HW2 6765   4.487   1.123   4.739  0.4987 -0.9550 -0.7910
 2149SOL     OW 6766   2.360   2.049   4.385 -0.1643 -0.5804 -0.3551
 2149SOL    HW1 6767   2.337   2.106   4.464  0.8165  0.3468 -0.7169
 2149SOL    HW2 6768   2.282   1.991   4.362 -0.2455 -1.3951  1.7207
 2150SOL     OW 6769   2.859   4.306   4.329 -0.4570 -0.8189 -0.0609
 2150SOL    HW1 6770   2.881   4.360   4.410  0.5943 -0.2759 -0.6866
 2150SOL    HW2 6771   2.770   4.336   4.293 -0.7941 -0.8670  0.7052
 2151SOL     OW 6772   0.867   1.779   3.211  0.3654 -0.0921 -0.2521
 2151SOL    HW1 6773   0.795   1.740   3.269 -0.5532  1.6476 -0.1646
 2151SOL    HW2 6774   0.922   1.705   3.173 -0.2679 -1.3818  1.2058
 2152SOL     OW 6775   1.955   3.424   4.999 -0.1546 -0.4133  0.0651
 2152SOL    HW1 6776   2.005   3.495   4.950 -0.7334 -1.1879 -1.7138
 2152SOL    HW2 6777   1.870   3.404   4.951 -0.3920 -1.7429  0.9916
 2153SOL     OW 6778   5.326   4.747   5.383  0.2373  0.8097 -0.0030
 2153SOL    HW1 6779   5.361   4.696   5.462  2.5849  0.9493 -0.9004
 2153SOL    HW2 6780   5.226   4.755   5.391  0.0066 -2.0570  1.2506
 2154SOL     OW 6781   2.337   3.986   0.633 -0.1380 -0.5751 -0.3040
 2154SOL    HW1 6782   2.341   4.035   0.720  0.9542  0.9164 -1.1544
 2154SOL    HW2 6783   2.407   4.021   0.572 -1.0532 -1.4071 -1.8984
 2155SOL     OW 6784   2.794   1.744   2.762  0.2444 -0.6444 -0.1383
 2155SOL    HW1 6785   2.739   1.720   2.682 -1.0080  0.5395  0.3356
 2155SOL    HW2 6786   2.735   1.785   2.832  1.7248  0.6209  0.4140
 2156SOL     OW 6787   4.784   2.990   0.566 -0.1806 -0.3837  0.2540
 2156SOL    HW1 6788   4.857   2.995   0.635 -0.3467 -0.5772  0.4433
 2156SOL    HW2 6789   4.797   3.064   0.499  1.1650 -1.4225 -0.6904
 2157SOL     OW 6790   1.476   2.112   0.404  0.2366  0.4021 -0.0949
 2157SOL    HW1 6791   1.478   2.015   0.379  0.7846  0.0616  1.2119
 2157SOL    HW2 6792   1.430   2.164   0.332  0.3785 -0.7539 -1.0456
 2158SOL     OW 6793   2.544   3.164   3.252  0.7006  0.2713  0.2832
 2158SOL    HW1 6794   2.630   3.120   3.277  0.8193  0.6852  0.6270
 2158SOL    HW2 6795   2.468   3.117   3.298  0.8619  0.6567  0.9630
 2159SOL     OW 6796   2.429   1.649   3.034 -0.5002 -0.0909 -0.4033
 2159SOL    HW1 6797   2.342   1.680   2.996 -0.3534  0.2109 -0.4890
 2159SOL    HW2 6798   2.492   1.726   3.042  0.8995 -0.8063 -3.3108
 2160SOL     OW 6799   5.074   3.173   4.889  0.1124  0.3983 -0.1354
 2160SOL    HW1 6800   5.146   3.122   4.840  0.9848  0.7535  0.7369
 2160SOL    HW2 6801   5.010   3.211   4.824  1.6609  1.4883 -1.0837
 2161SOL     OW 6802   1.025   1.600   4.045  0.3651  0.3501  0.2904
 2161SOL    HW1 6803   1.051   1.637   3.956  2.3359  0.7303  0.9676
 2161SOL    HW2 6804   0.928   1.576   4.045  0.4576 -0.2742 -2.1610
 2162SOL     OW 6805   2.504   0.536   2.902  0.0963 -0.0057 -0.7895
 2162SOL    HW1 6806   2.520   0.591   2.820 -1.9495 -0.5647 -1.6213
 2162SOL    HW2 6807   2.564   0.567   2.975  0.1072  2.2945 -1.6984
 2163SOL     OW 6808   0.866   0.323   0.249 -0.2521 -0.6286  0.1537
 2163SOL    HW1 6809   0.814   0.298   0.168 -0.3434 -1.7537  0.5415
 2163SOL    HW2 6810   0.853   0.421   0.268 -1.4574 -0.6835 -0.3054
 2164SOL     OW 6811   0.185   5.133   4.155  0.3607  0.0772 -0.3743
 2164SOL    HW1 6812   0.245   5.054   4.146 -0.3155 -0.3641 -1.1684
 2164SOL    HW2 6813   0.187   5.166   4.249  2.0117  0.2203 -0.4418
 2165SOL     OW 6814   2.589   0.932   4.109 -0.3775  0.8137  0.3767
 2165SOL    HW1 6815   2.636   0.859   4.158  3.6305  2.5122 -0.5147
 2165SOL    HW2 6816   2.569   1.007   4.172  0.3052  1.0183  0.3600
 2166SOL     OW 6817   0.284   5.559   1.962 -0.0444 -0.7833 -0.7839
 2166SOL    HW1 6818   0.310   5.470   1.999 -1.4229 -1.7632 -2.0842
 2166SOL    HW2 6819   0.338   5.579   1.880 -1.7469 -1.8171 -2.2103
 2167SOL     OW 6820   2.092   2.507   3.228  0.2757  0.5323  0.1838
 2167SOL    HW1 6821   2.079   2.546   3.137 -0.0384 -0.2867 -0.1303
 2167SOL    HW2 6822   2.179   2.539   3.266  0.2048  1.2237 -0.2205
 2168SOL     OW 6823   4.340   5.124   1.963  0.6536 -0.0904 -0.1617
 2168SOL    HW1 6824   4.297   5.109   2.052 -0.7326 -0.5547 -0.8848
 2168SOL    HW2 6825   4.394   5.044   1.937  1.0882  0.0605  0.2717
 2169SOL     OW 6826   2.153   3.352   3.191 -0.1844  0.4535 -0.3379
 2169SOL    HW1 6827   2.130   3.388   3.100 -0.3502 -0.0486 -0.4998
 2169SOL    HW2 6828   2.141   3.252   3.191 -0.9875  0.5419  0.4818
 2170SOL     OW 6829   3.069   0.556   1.663 -0.1313 -0.1730 -0.1631
 2170SOL    HW1 6830   3.022   0.467   1.662 -0.9348  0.2206  0.7384
 2170SOL    HW2 6831   3.120   0.567   1.578 -2.5416 -0.1875 -1.7235
 2171SOL     OW 6832   3.608   3.164   1.396  0.2752  0.4017 -0.9177
 2171SOL    HW1 6833   3.594   3.260   1.368 -1.6791  0.0706 -1.2530
 2171SOL    HW2 6834   3.521   3.127   1.431  1.2754 -0.9296  0.2625
 2172SOL     OW 6835   5.308   2.545   0.809 -0.4543 -0.4547 -0.2854
 2172SOL    HW1 6836   5.339   2.520   0.718  0.3522  0.1028 -0.1711
 2172SOL    HW2 6837   5.347   2.481   0.876 -0.0270 -0.1250 -0.2096
 2173SOL     OW 6838   4.209   4.526   5.169 -0.3846 -0.4256  0.0655
 2173SOL    HW1 6839   4.162   4.605   5.130 -0.4034 -1.0144 -1.1714
 2173SOL    HW2 6840   4.156   4.443   5.151  0.3579 -0.9056  0.0244
 2174SOL     OW 6841   5.370   2.183   5.267  0.3929 -0.0349 -0.1019
 2174SOL    HW1 6842   5.292   2.126   5.289  0.5641 -1.4655 -2.7787
 2174SOL    HW2 6843   5.349   2.240   5.188  1.5273  0.7181  0.1102
 2175SOL     OW 6844   1.751   3.963   4.325 -0.6483  0.0451 -0.3423
 2175SOL    HW1 6845   1.685   4.020   4.373 -0.8737  1.0062 -1.7378
 2175SOL    HW2 6846   1.841   4.006   4.328 -0.0973 -1.1463  1.3542
 2176SOL     OW 6847   0.100   0.269   3.790 -0.3002 -0.3084  0.0378
 2176SOL    HW1 6848   0.129   0.351   3.741 -0.1811 -0.0230  0.5846
 2176SOL    HW2 6849   0.167   0.246   3.860 -1.7340  0.8113  1.8670
 2177SOL     OW 6850   2.162   1.287   4.153 -0.1884 -0.6119 -0.4058
 2177SOL    HW1 6851   2.184   1.191   4.172  2.0374 -0.1217 -0.2452
 2177SOL    HW2 6852   2.183   1.307   4.057  0.4961 -0.0236 -0.1437
 2178SOL     OW 6853   1.554   2.540   5.010  0.2191 -0.3789  0.1923
 2178SOL    HW1 6854   1.549   2.503   4.917  2.4853 -0.1065 -0.1012
 2178SOL    HW2 6855   1.521   2.635   5.010  1.2770  0.0067 -0.6095
 2179SOL     OW 6856   0.664   2.425   1.648 -0.2068  0.3806  0.4393
 2179SOL    HW1 6857   0.642   2.354   1.581 -0.6617  0.3670  0.5972
 2179SOL    HW2 6858   0.755   2.462   1.629 -0.4813  0.6464 -0.4239
 2180SOL     OW 6859   5.047   2.802   3.335 -0.2599  0.3342  0.5756
 2180SOL    HW1 6860   5.097   2.818   3.250 -0.4172  0.4532  0.5029
 2180SOL    HW2 6861   4.973   2.737   3.318  1.3974 -1.8341  1.2445
 2181SOL     OW 6862   4.366   5.360   1.848  0.4100 -0.8103 -0.0906
 2181SOL    HW1 6863   4.375   5.270   1.892  1.5061 -1.0482 -0.7669
 2181SOL    HW2 6864   4.303   5.352   1.771 -0.0845 -0.8223  0.3132
 2182SOL     OW 6865   5.323   1.723   1.357  0.1133 -0.0951 -0.0638
 2182SOL    HW1 6866   5.367   1.813   1.363 -0.7437  0.3575 -0.3954
 2182SOL    HW2 6867   5.392   1.654   1.337  1.2356  0.0577  2.7575
 2183SOL     OW 6868   3.904   1.083   3.093 -0.0937 -0.0136  0.1931
 2183SOL    HW1 6869   3.904   1.182   3.085 -1.0617 -0.0391 -0.2204
 2183SOL    HW2 6870   3.991   1.052   3.132  0.3650  0.9583 -0.0522
 2184SOL     OW 6871   3.804   0.712   0.813 -0.3238  0.0785 -0.0224
 2184SOL    HW1 6872   3.821   0.805   0.780  0.0700  0.7132  1.8766
 2184SOL    HW2 6873   3.721   0.711   0.868  1.8424  0.3082  3.5163
 2185SOL     OW 6874   0.078   5.276   2.333  0.1760  0.0032 -0.1106
 2185SOL    HW1 6875   0.001   5.335   2.309 -1.7629 -0.9548  3.1855
 2185SOL    HW2 6876   0.157   5.332   2.359 -0.0869  1.0047 -1.3446
 2186SOL     OW 6877   3.981   2.821   1.177 -0.2863  0.2229  0.0722
 2186SOL    HW1 6878   4.053   2.871   1.129 -1.1090 -0.7298 -2.3378
 2186SOL    HW2 6879   3.903   2.881   1.193 -0.8868  0.0437 -1.9242
 2187SOL     OW 6880   3.760   3.464   2.842  0.1798 -0.1622 -0.0897
 2187SOL    HW1 6881   3.748   3.559   2.871  0.6332 -0.0357 -0.3141
 2187SOL    HW2 6882   3.837   3.458   2.778 -0.0087 -0.6387 -0.2771
 2188SOL     OW 6883   2.825   0.035   0.550 -0.3132  0.1671  0.0198
 2188SOL    HW1 6884   2.847  -0.033   0.480  0.6974  0.6123 -0.1223
 2188SOL    HW2 6885   2.828   0.126   0.509  1.1898  0.5047  0.8161
 2189SOL     OW 6886   4.994   0.410   3.793  0.0545 -0.0371 -0.8663
 2189SOL    HW1 6887   4.898   0.432   3.777 -0.4368  0.4657  2.1423
 2189SOL    HW2 6888   5.052   0.482   3.753 -0.8707  0.2563 -1.7062
 2190SOL     OW 6889   4.525   3.150   4.243  0.4517  0.1426 -0.1292
 2190SOL    HW1 6890   4.588   3.217   4.203  1.0175  1.8005  3.2000
 2190SOL    HW2 6891   4.475   3.193   4.318 -2.7340 -1.9159 -0.8875
 2191SOL     OW 6892   1.148   4.961   3.498  0.1465 -0.1679 -0.8044
 2191SOL    HW1 6893   1.093   4.883   3.528  1.7129 -0.7145  0.7647
 2191SOL    HW2 6894   1.236   4.929   3.464 -0.1561  0.7566 -2.5869
 2192SOL     OW 6895   0.913   3.279   1.687  0.1387  0.3564  0.0866
 2192SOL    HW1 6896   0.902   3.180   1.684 -1.9142  0.5558 -0.5770
 2192SOL    HW2 6897   0.888   3.313   1.778 -0.0610  0.3563  0.0313
 2193SOL     OW 6898   1.732   1.217   3.246  0.7115  0.8706  0.0987
 2193SOL    HW1 6899   1.706   1.198   3.151  2.6568  1.3433 -0.5706
 2193SOL    HW2 6900   1.651   1.243   3.298 -0.1800  2.1519 -1.8228
 2194SOL     OW 6901   2.115   1.793   1.800 -0.2040 -0.5694 -0.2677
 2194SOL    HW1 6902   2.023   1.823   1.775 -0.1714  1.6812  1.9314
 2194SOL    HW2 6903   2.112   1.746   1.888  0.5693 -2.1128 -1.0216
 2195SOL     OW 6904   1.676   5.024   4.556  0.6302 -0.0241  0.2005
 2195SOL    HW1 6905   1.628   5.111   4.555  1.1424  0.3438  2.4850
 2195SOL    HW2 6906   1.774   5.040   4.567  0.7276 -0.8640  0.6743
 2196SOL     OW 6907   0.334   1.942   0.358 -0.0203  0.1317  0.7204
 2196SOL    HW1 6908   0.388   2.005   0.302 -0.8915  1.4376  1.2955
 2196SOL    HW2 6909   0.385   1.920   0.442 -1.1882  3.2448  2.4195
 2197SOL     OW 6910   3.563   0.896   2.561 -0.2664 -0.3770  0.7525
 2197SOL    HW1 6911   3.616   0.918   2.479 -1.4642 -1.2844 -0.3121
 2197SOL    HW2 6912   3.623   0.895   2.640  0.8471  1.0363 -0.0085
 2198SOL     OW 6913   1.719   2.404   4.488  0.9987 -0.2035  0.4239
 2198SOL    HW1 6914   1.810   2.429   4.521  0.2342  0.6234  1.9723
 2198SOL    HW2 6915   1.698   2.458   4.406  2.0751 -0.7550 -0.2382
 2199SOL     OW 6916   3.805   3.916   4.933  0.5854 -0.2956 -0.2525
 2199SOL    HW1 6917   3.881   3.876   4.986  0.2773  0.0655  0.4800
 2199SOL    HW2 6918   3.738   3.954   4.996 -1.1623 -2.2804 -0.8054
 2200SOL     OW 6919   1.653   4.025   5.122 -0.3511  0.0409 -0.2120
 2200SOL    HW1 6920   1.611   4.068   5.042 -0.8076  1.8076  0.9302
 2200SOL    HW2 6921   1.696   3.939   5.094 -1.7887 -0.1445 -2.0589
 2201SOL     OW 6922   3.818   3.075   4.162  0.4654 -0.2249  0.0029
 2201SOL    HW1 6923   3.721   3.062   4.183  0.7410 -0.0272  1.5618
 2201SOL    HW2 6924   3.843   3.021   4.082 -1.1748  0.6026 -1.1235
 2202SOL     OW 6925   3.141   5.010   4.535  0.4186  0.4219  0.2725
 2202SOL    HW1 6926   3.097   4.966   4.457  1.1676  1.0404 -0.5184
 2202SOL    HW2 6927   3.094   5.096   4.556  0.9810  0.8780 -0.3089
 2203SOL     OW 6928   3.553   1.458   1.970 -0.2107  0.3375 -0.0054
 2203SOL    HW1 6929   3.593   1.545   1.943 -0.4229  0.0562 -1.3149
 2203SOL    HW2 6930   3.622   1.402   2.016  0.7043  0.1661 -1.5168
 2204SOL     OW 6931   0.759   3.204   4.883 -0.3584 -0.0460 -0.0556
 2204SOL    HW1 6932   0.775   3.126   4.944  0.1130 -1.4962 -1.9542
 2204SOL    HW2 6933   0.840   3.220   4.827 -0.7763  1.2690 -0.3267
 2205SOL     OW 6934   2.072   1.373   4.719  0.3579 -0.2382  0.2757
 2205SOL    HW1 6935   2.129   1.382   4.638 -0.5253  0.4618 -0.2817
 2205SOL    HW2 6936   2.129   1.383   4.801  0.9002  1.5433 -0.2691
 2206SOL     OW 6937   4.237   0.334   2.099  0.6205 -0.2517  0.6934
 2206SOL    HW1 6938   4.261   0.238   2.087  1.3248  0.1023 -1.1185
 2206SOL    HW2 6939   4.137   0.343   2.097  0.4592 -1.0846  2.5270
 2207SOL     OW 6940   1.443   4.497   5.110  0.1342  0.2214 -0.2774
 2207SOL    HW1 6941   1.462   4.413   5.060 -0.9323 -0.1349 -0.1105
 2207SOL    HW2 6942   1.370   4.548   5.064  0.7946  1.0895 -0.4021
 2208SOL     OW 6943   1.831   3.659   3.227 -0.1885 -0.0921 -0.0253
 2208SOL    HW1 6944   1.746   3.701   3.196 -0.8954 -1.0028  0.6220
 2208SOL    HW2 6945   1.870   3.714   3.301  0.9295  1.4843 -1.6997
 2209SOL     OW 6946   1.468   0.630   2.439 -0.1393  0.0383  0.5573
 2209SOL    HW1 6947   1.437   0.535   2.431  1.7786 -0.7188  1.5547
 2209SOL    HW2 6948   1.477   0.670   2.348 -0.7933 -0.7884  0.1125
 2210SOL     OW 6949   4.073   4.879   2.153  0.4106 -0.4496  0.1707
 2210SOL    HW1 6950   4.055   4.915   2.062 -0.7213  1.3655  1.0474
 2210SOL    HW2 6951   4.009   4.804   2.173 -0.6927  0.4717  0.1881
 2211SOL     OW 6952   4.117   4.898   1.663  0.3273  0.1467  0.1302
 2211SOL    HW1 6953   4.145   4.991   1.686  1.1554 -0.1100  0.1866
 2211SOL    HW2 6954   4.181   4.833   1.703  0.7543 -0.3855 -1.3383
 2212SOL     OW 6955   3.427   5.344   1.861 -0.0298 -0.3651  0.1302
 2212SOL    HW1 6956   3.365   5.300   1.926 -0.2418 -1.0759 -0.5259
 2212SOL    HW2 6957   3.401   5.317   1.768  0.3863  0.4785 -0.2367
 2213SOL     OW 6958   4.157   2.992   4.792  0.8105  0.2491 -0.0450
 2213SOL    HW1 6959   4.221   2.915   4.792 -2.1346 -2.4872  1.3066
 2213SOL    HW2 6960   4.111   2.997   4.703  0.0567 -0.5079  0.2852
 2214SOL     OW 6961   3.417   3.089   0.119  0.4010  0.2454  0.2902
 2214SOL    HW1 6962   3.467   3.154   0.062  1.8917 -1.6366 -0.6875
 2214SOL    HW2 6963   3.374   3.020   0.061 -2.6413  1.2661  1.1842
 2215SOL     OW 6964   4.250   3.638   2.001  0.0560  0.1717 -0.2219
 2215SOL    HW1 6965   4.242   3.738   2.006  2.3331  0.5455 -2.1035
 2215SOL    HW2 6966   4.249   3.600   2.093 -2.9181  1.6728  0.4713
 2216SOL     OW 6967   2.047   2.120   3.382 -0.0196  0.2702  0.6214
 2216SOL    HW1 6968   2.034   2.085   3.475  2.0023 -3.3051 -0.2591
 2216SOL    HW2 6969   2.145   2.123   3.361 -0.3348  2.8985 -0.8214
 2217SOL     OW 6970   1.550   3.703   2.244  0.2316  0.5281  0.1283
 2217SOL    HW1 6971   1.523   3.637   2.173 -0.9326  1.3727 -0.2483
 2217SOL    HW2 6972   1.650   3.710   2.246  0.3145 -0.0025 -0.9808
 2218SOL     OW 6973   1.356   4.677   0.850  0.2593 -0.2763  0.4531
 2218SOL    HW1 6974   1.430   4.664   0.917 -0.3121  1.7924  1.5636
 2218SOL    HW2 6975   1.269   4.651   0.892 -0.1272  1.2207  0.6279
 2219SOL     OW 6976   3.611   3.435   2.601  0.0663 -0.2900 -0.8367
 2219SOL    HW1 6977   3.685   3.499   2.581  0.1189 -0.2686 -0.5752
 2219SOL    HW2 6978   3.600   3.426   2.700  0.1367 -0.7787 -0.8735
 2220SOL     OW 6979   2.670   4.283   2.243  0.0796 -0.1026  0.5119
 2220SOL    HW1 6980   2.591   4.344   2.240  1.0194  1.1222 -1.8158
 2220SOL    HW2 6981   2.639   4.188   2.241 -1.3542  0.3237  1.4531
 2221SOL     OW 6982   1.460   4.844   0.667 -0.1102 -0.2676  0.0922
 2221SOL    HW1 6983   1.460   4.806   0.574 -0.0665 -0.0316 -0.0055
 2221SOL    HW2 6984   1.406   4.785   0.727 -1.9212  0.6567 -0.5299
 2222SOL     OW 6985   3.854   3.192   3.207  0.4760  0.4928 -0.0645
 2222SOL    HW1 6986   3.826   3.288   3.212  0.5380  0.5154 -0.1363
 2222SOL    HW2 6987   3.773   3.134   3.199  0.4358  0.5354  0.0366
 2223SOL     OW 6988   3.841   4.523   3.388 -0.5341 -0.3756 -0.4801
 2223SOL    HW1 6989   3.796   4.589   3.448 -0.0446 -0.7212  0.2765
 2223SOL    HW2 6990   3.782   4.504   3.309 -0.3534  1.5273 -1.1101
 2224SOL     OW 6991   0.299   4.203   1.208 -0.3476  0.9924  0.0265
 2224SOL    HW1 6992   0.304   4.150   1.122  0.1834 -0.1004  0.7054
 2224SOL    HW2 6993   0.347   4.290   1.196  0.2440  0.5941 -0.6049
 2225SOL     OW 6994   4.553   3.027   4.940  0.0491 -0.2122 -0.0371
 2225SOL    HW1 6995   4.548   2.969   5.021  0.4653 -1.1517 -0.6731
 2225SOL    HW2 6996   4.644   3.021   4.900  0.5169  1.8522  0.5761
 2226SOL     OW 6997   1.161   0.904   3.792 -0.0693  1.0334  0.1659
 2226SOL    HW1 6998   1.093   0.889   3.720 -0.3365  0.4461  0.5368
 2226SOL    HW2 6999   1.126   0.974   3.855 -1.7708 -1.4067  2.1105
 2227SOL     OW 7000   1.627   5.047   1.305  0.1804  0.1520 -0.0952
 2227SOL    HW1 7001   1.596   5.120   1.366  2.3806  0.5337  0.6805
 2227SOL    HW2 7002   1.620   4.959   1.351 -0.3087  0.1559 -0.1602
 2228SOL     OW 7003   5.007   2.280   2.311 -0.5395 -0.1359  0.5570
 2228SOL    HW1 7004   5.020   2.197   2.366 -0.5338  1.1709  2.6686
 2228SOL    HW2 7005   5.085   2.341   2.325 -1.2714  0.8762  0.2826
 2229SOL     OW 7006   3.296   1.060   5.192  0.5029 -0.8451 -0.2581
 2229SOL    HW1 7007   3.279   1.073   5.290  0.3131 -0.2353 -0.3677
 2229SOL    HW2 7008   3.379   1.109   5.167  0.0492 -0.2299 -0.5824
 2230SOL     OW 7009   4.796   4.956   4.389  0.4069 -0.3841  0.3751
 2230SOL    HW1 7010   4.743   4.883   4.345  3.3357 -0.3925 -3.7287
 2230SOL    HW2 7011   4.748   5.043   4.378 -0.1768 -0.7968 -0.4821
 2231SOL     OW 7012   1.436   4.796   4.642  0.0888  0.7911  0.0287
 2231SOL    HW1 7013   1.452   4.785   4.741 -0.2954  3.4713  0.4546
 2231SOL    HW2 7014   1.445   4.892   4.617  1.2769  0.0479 -2.8084
 2232SOL     OW 7015   1.009   1.739   2.592  0.0202 -0.1895 -0.6519
 2232SOL    HW1 7016   0.951   1.660   2.574 -0.3148  0.2055 -1.3513
 2232SOL    HW2 7017   0.961   1.823   2.565 -0.1872  0.3959  1.3599
 2233SOL     OW 7018   4.834   2.785   5.386  0.4548 -0.0218  0.1798
 2233SOL    HW1 7019   4.781   2.710   5.346  0.3105  0.6250 -0.8727
 2233SOL    HW2 7020   4.847   2.768   5.484  1.2755 -1.9195 -0.2014
 2234SOL     OW 7021   1.348   4.882   5.230 -0.3822  0.4970  0.0594
 2234SOL    HW1 7022   1.300   4.953   5.179 -0.7933 -0.5641 -1.0819
 2234SOL    HW2 7023   1.289   4.802   5.238  1.0097 -0.6827 -1.0027
 2235SOL     OW 7024   2.418   1.636   0.244 -0.3661  0.3345  0.0674
 2235SOL    HW1 7025   2.483   1.672   0.312 -0.4077 -0.7677  0.7295
 2235SOL    HW2 7026   2.327   1.671   0.264 -0.5102 -0.5450  1.0514
 2236SOL     OW 7027   5.039   3.004   4.100  0.5701  0.0114  0.0470
 2236SOL    HW1 7028   4.974   2.930   4.119  1.4251 -0.8341 -0.2725
 2236SOL    HW2 7029   5.116   2.969   4.047  1.8729  0.7363  1.3899
 2237SOL     OW 7030   1.291   1.454   1.563  0.3045  0.2060 -0.4866
 2237SOL    HW1 7031   1.261   1.415   1.476 -1.1135 -0.1462  0.1206
 2237SOL    HW2 7032   1.375   1.505   1.550  0.8061 -0.8958 -1.8179
 2238SOL     OW 7033   1.448   3.675   4.591  0.1123  0.1155  0.6189
 2238SOL    HW1 7034   1.480   3.769   4.604  0.6794  0.3220 -1.8581
 2238SOL    HW2 7035   1.381   3.672   4.517 -0.1850 -1.3963  0.9076
 2239SOL     OW 7036   3.153   5.165   5.323 -0.7635  0.0586 -0.0496
 2239SOL    HW1 7037   3.058   5.191   5.338 -0.8104 -0.5575  0.7712
 2239SOL    HW2 7038   3.180   5.094   5.389 -0.3497 -1.2520 -1.5588
 2240SOL     OW 7039   0.899   1.454   2.329  0.3886 -0.2849  0.1281
 2240SOL    HW1 7040   0.988   1.474   2.372  1.3182  0.8237 -2.1452
 2240SOL    HW2 7041   0.845   1.538   2.325 -1.1581 -1.1021  2.1755
 2241SOL     OW 7042   3.172   2.174   3.312 -0.0225  0.2391  0.1721
 2241SOL    HW1 7043   3.115   2.096   3.339  0.9128 -0.2752  0.6945
 2241SOL    HW2 7044   3.138   2.212   3.226  0.1830 -1.4386 -0.6775
 2242SOL     OW 7045   1.953   2.268   0.834 -0.3489 -0.1480  0.5197
 2242SOL    HW1 7046   1.942   2.367   0.848 -1.1254 -0.3254  1.1950
 2242SOL    HW2 7047   1.894   2.218   0.897  0.6279 -1.0707  0.7256
 2243SOL     OW 7048   2.920   2.962   3.935 -0.0526 -0.2623  0.2795
 2243SOL    HW1 7049   2.992   2.980   3.869 -1.1229  1.3926 -0.4970
 2243SOL    HW2 7050   2.958   2.962   4.028  1.1992 -1.1140 -0.2064
 2244SOL     OW 7051   3.734   0.028   3.524 -0.0734  0.1650 -0.2273
 2244SOL    HW1 7052   3.831   0.027   3.500 -0.3200  0.0986 -1.2356
 2244SOL    HW2 7053   3.708   0.119   3.555 -0.1020  0.6657 -1.6804
 2245SOL     OW 7054   4.679   5.027   0.404  0.3840  0.1901  0.2748
 2245SOL    HW1 7055   4.667   5.057   0.499  0.4690  1.7375 -0.1676
 2245SOL    HW2 7056   4.766   4.978   0.395 -0.1346 -0.9355  1.1955
 2246SOL     OW 7057   3.647   0.258   3.551 -0.1431  0.0197 -0.2257
 2246SOL    HW1 7058   3.638   0.271   3.452  0.0840  0.4862 -0.1880
 2246SOL    HW2 7059   3.566   0.295   3.597 -0.5275 -0.7342 -0.2721
 2247SOL     OW 7060   1.566   5.577   2.026  0.1180  0.1398  0.8263
 2247SOL    HW1 7061   1.574   5.521   2.109  1.3466 -1.1436 -0.1114
 2247SOL    HW2 7062   1.565   5.518   1.946 -0.6500  1.3852 -0.1289
 2248SOL     OW 7063   4.743   0.526   3.740  0.0755 -0.3654 -0.2803
 2248SOL    HW1 7064   4.688   0.481   3.810  1.0980  0.7742  1.3474
 2248SOL    HW2 7065   4.704   0.508   3.650 -1.4357 -1.6926  0.5828
 2249SOL     OW 7066   0.468   2.363   3.892  0.5904  0.4130  0.3192
 2249SOL    HW1 7067   0.431   2.371   3.799 -0.1089 -0.3931  0.5229
 2249SOL    HW2 7068   0.434   2.280   3.935  1.4828  0.4087  1.0526
 2250SOL     OW 7069   4.300   4.356   3.664  0.1735 -0.4313 -0.1691
 2250SOL    HW1 7070   4.310   4.331   3.568 -1.6679 -0.5923 -0.3459
 2250SOL    HW2 7071   4.225   4.305   3.705  1.1286 -0.6072  1.4760
 2251SOL     OW 7072   2.892   1.069   0.216  0.1403  0.0755 -0.4492
 2251SOL    HW1 7073   2.846   1.125   0.146 -0.2623 -1.8331 -1.8065
 2251SOL    HW2 7074   2.968   1.120   0.255 -0.5131  1.7371 -1.2574
 2252SOL     OW 7075   4.921   3.956   5.139  0.0785 -0.1658  0.2202
 2252SOL    HW1 7076   4.885   3.867   5.168  0.2154  0.0768  1.1611
 2252SOL    HW2 7077   4.845   4.013   5.106 -0.0493 -0.5279 -0.1226
 2253SOL     OW 7078   1.149   4.729   5.218 -0.2728  0.4155 -0.0367
 2253SOL    HW1 7079   1.077   4.797   5.232  0.0256  0.6184  0.5335
 2253SOL    HW2 7080   1.125   4.644   5.265 -0.2758  0.3876 -0.0890
 2254SOL     OW 7081   1.584   3.760   3.090  0.5409  0.1010  0.2691
 2254SOL    HW1 7082   1.609   3.815   3.010  0.8697  0.0604  0.3410
 2254SOL    HW2 7083   1.523   3.813   3.149 -1.5449 -0.6641 -1.0937
 2255SOL     OW 7084   4.566   0.236   2.339 -0.5070  0.2076 -0.0477
 2255SOL    HW1 7085   4.519   0.148   2.346 -1.5676  0.5057 -2.5753
 2255SOL    HW2 7086   4.502   0.306   2.308  0.5569  1.6991  0.9414
 2256SOL     OW 7087   4.649   4.919   3.755 -0.0753 -0.4745 -0.3509
 2256SOL    HW1 7088   4.551   4.903   3.740  0.3087 -0.8620 -2.8496
 2256SOL    HW2 7089   4.677   4.873   3.840 -1.7845 -1.4978 -0.2832
 2257SOL     OW 7090   1.060   0.946   2.191 -0.0777  0.1456  0.0252
 2257SOL    HW1 7091   1.102   0.857   2.207 -2.2913 -1.3143 -1.6534
 2257SOL    HW2 7092   1.121   1.001   2.133  0.9620 -0.5614  0.4103
 2258SOL     OW 7093   2.695   5.306   3.745 -0.1103 -0.0355 -0.7401
 2258SOL    HW1 7094   2.605   5.344   3.766 -0.8222 -1.0542 -1.8010
 2258SOL    HW2 7095   2.691   5.256   3.659  1.2850 -0.7886 -0.4076
 2259SOL     OW 7096   0.126   3.079   4.682  0.4039 -0.3752 -0.6046
 2259SOL    HW1 7097   0.195   3.023   4.727  2.6276  2.0948 -0.6891
 2259SOL    HW2 7098   0.166   3.125   4.603 -1.1780  1.5227 -0.3973
 2260SOL     OW 7099   0.434   4.399   1.550 -0.9150  0.4446  0.3627
 2260SOL    HW1 7100   0.498   4.471   1.523 -0.6057 -0.1762 -0.5992
 2260SOL    HW2 7101   0.450   4.318   1.494 -1.6347 -0.1856  1.0536
 2261SOL     OW 7102   4.227   0.601   4.655  0.3027  0.2798 -0.0009
 2261SOL    HW1 7103   4.193   0.589   4.561  0.7173 -0.4000 -0.0740
 2261SOL    HW2 7104   4.293   0.529   4.675 -0.4030 -0.0769  1.1039
 2262SOL     OW 7105   4.472   4.208   0.321  0.4108  0.2500 -0.3881
 2262SOL    HW1 7106   4.440   4.125   0.368 -0.0008 -0.5475 -2.0047
 2262SOL    HW2 7107   4.490   4.187   0.225  0.0581  2.1053 -0.9009
 2263SOL     OW 7108   5.547   3.436   0.279 -0.5870 -0.1533 -0.3328
 2263SOL    HW1 7109   5.504   3.525   0.292 -2.7528 -1.1788 -0.0408
 2263SOL    HW2 7110   5.544   3.385   0.365 -3.4672 -2.1571 -1.4907
 2264SOL     OW 7111   1.284   5.550   4.774 -0.4054 -0.3564 -0.2511
 2264SOL    HW1 7112   1.254   5.581   4.684 -0.5403  0.6906  0.1386
 2264SOL    HW2 7113   1.220   5.482   4.809  0.0467 -1.3345 -1.2426
 2265SOL     OW 7114   3.418   5.143   2.291  0.3844 -0.2785  0.1834
 2265SOL    HW1 7115   3.346   5.075   2.307 -2.0315  2.0164 -0.1763
 2265SOL    HW2 7116   3.507   5.105   2.317 -0.7933 -3.5896 -0.2291
 2266SOL     OW 7117   3.256   1.494   3.775 -0.3289 -0.3317 -0.4265
 2266SOL    HW1 7118   3.314   1.415   3.754 -0.5288 -0.4533 -0.5302
 2266SOL    HW2 7119   3.200   1.473   3.855  2.8840  1.3599  2.5351
 2267SOL     OW 7120   2.347   4.052   3.936 -0.2852  0.0335  0.3318
 2267SOL    HW1 7121   2.306   4.096   3.856  1.4469  3.9973  1.3851
 2267SOL    HW2 7122   2.274   4.018   3.996 -1.6293 -1.9391 -2.1775
 2268SOL     OW 7123   2.933   5.471   3.780  0.5692  0.9588  0.1819
 2268SOL    HW1 7124   2.855   5.413   3.757  2.0572 -0.9155 -0.3615
 2268SOL    HW2 7125   2.948   5.468   3.879 -0.4111  1.8752  0.3825
 2269SOL     OW 7126   5.291   1.062   0.414  0.1166  0.0091 -0.3311
 2269SOL    HW1 7127   5.204   1.045   0.367 -0.4966  0.5890  0.5407
 2269SOL    HW2 7128   5.282   1.033   0.510 -0.1162  2.6615  0.5282
 2270SOL     OW 7129   4.022   0.018   1.087  0.0191 -0.0716  0.0425
 2270SOL    HW1 7130   4.070   0.073   1.019  0.2658 -2.0441 -1.4837
 2270SOL    HW2 7131   3.951   0.073   1.131  1.1486  1.8120 -0.3674
 2271SOL     OW 7132   2.123   0.751   0.681  0.0501  0.4670 -0.4460
 2271SOL    HW1 7133   2.156   0.658   0.694  0.2751  0.6570  0.3945
 2271SOL    HW2 7134   2.064   0.755   0.601  0.2770 -0.3367 -0.6547
 2272SOL     OW 7135   2.595   2.972   2.592 -0.0836  0.1680  0.4517
 2272SOL    HW1 7136   2.504   2.994   2.628 -0.2372 -0.0124  0.1736
 2272SOL    HW2 7137   2.655   2.949   2.668 -0.6404 -1.0557  0.5475
 2273SOL     OW 7138   3.948   0.956   5.020 -0.0372  0.5874  0.1341
 2273SOL    HW1 7139   3.923   0.949   4.924 -0.2998  0.4765  0.2079
 2273SOL    HW2 7140   3.982   0.867   5.052 -2.0969 -0.0604  0.7237
 2274SOL     OW 7141   4.357   4.116   0.856  0.1025  0.5518  0.5344
 2274SOL    HW1 7142   4.362   4.216   0.854  0.7927  0.5205 -1.0641
 2274SOL    HW2 7143   4.282   4.085   0.797  0.3422  0.1039  0.4620
 2275SOL     OW 7144   4.802   0.510   4.517 -0.3277  0.4624  0.1481
 2275SOL    HW1 7145   4.807   0.596   4.568  2.0437  1.4013 -1.4669
 2275SOL    HW2 7146   4.879   0.452   4.543 -0.4672 -0.0712 -0.6146
 2276SOL     OW 7147   5.238   2.104   3.053  0.3600  0.1626  0.2566
 2276SOL    HW1 7148   5.282   2.086   2.966  0.3128  0.6812  0.1240
 2276SOL    HW2 7149   5.180   2.026   3.078 -0.9399  0.6992 -0.9871
 2277SOL     OW 7150   2.246   1.702   0.578 -0.2855  0.1424  0.2611
 2277SOL    HW1 7151   2.242   1.747   0.489  2.0955 -0.8365 -0.4149
 2277SOL    HW2 7152   2.209   1.609   0.571 -0.1627  0.0892  0.3119
 2278SOL     OW 7153   2.586   1.215   0.743  0.2021 -0.0570  0.2446
 2278SOL    HW1 7154   2.545   1.306   0.735  0.0180 -0.1696 -0.1080
 2278SOL    HW2 7155   2.536   1.162   0.811  1.7785  0.9078  2.2697
 2279SOL     OW 7156   4.229   1.011   4.347  0.6046 -0.3769 -0.2642
 2279SOL    HW1 7157   4.286   0.945   4.396  0.8692 -0.7543 -1.0623
 2279SOL    HW2 7158   4.262   1.020   4.253 -0.5449 -0.4756 -0.6932
 2280SOL     OW 7159   3.776   1.648   2.538 -0.1295 -0.0425 -0.0167
 2280SOL    HW1 7160   3.840   1.571   2.534 -1.3441 -1.1114  0.5512
 2280SOL    HW2 7161   3.820   1.726   2.583  0.8034 -0.7123  0.2510
 2281SOL     OW 7162   4.825   5.483   1.678 -0.4040  0.6142  0.0626
 2281SOL    HW1 7163   4.825   5.569   1.730 -0.4942  0.2414  0.6947
 2281SOL    HW2 7164   4.738   5.473   1.630 -0.9372  0.2484  1.0678
 2282SOL     OW 7165   3.558   4.836   3.444  0.6180  0.1143  0.2756
 2282SOL    HW1 7166   3.597   4.759   3.494  1.2380  0.1707 -0.1079
 2282SOL    HW2 7167   3.529   4.806   3.354 -1.6582 -0.2762  1.0768
 2283SOL     OW 7168   0.519   4.166   1.379  0.2045  0.3515 -0.0615
 2283SOL    HW1 7169   0.513   4.092   1.447 -0.9630 -0.2674 -0.8084
 2283SOL    HW2 7170   0.439   4.163   1.319  0.7996  1.4134 -0.9465
 2284SOL     OW 7171   1.685   1.004   0.015  0.1961 -0.3494  0.2733
 2284SOL    HW1 7172   1.670   1.103   0.020  1.4439 -0.0332 -1.5846
 2284SOL    HW2 7173   1.783   0.985   0.013 -0.0235 -1.6621  0.9251
 2285SOL     OW 7174   3.707   0.467   4.786  0.1111 -0.4701 -0.5940
 2285SOL    HW1 7175   3.717   0.433   4.879  2.1697 -0.0229 -0.6105
 2285SOL    HW2 7176   3.682   0.391   4.726 -0.7766 -0.8522  0.2292
 2286SOL     OW 7177   4.082   4.310   4.668 -0.0571  0.8100  0.1634
 2286SOL    HW1 7178   4.168   4.270   4.699  0.3041  0.5675 -1.0990
 2286SOL    HW2 7179   4.012   4.296   4.738  0.4794 -0.5594  0.4641
 2287SOL     OW 7180   2.505   0.257   2.784 -1.2318 -0.3888 -0.2628
 2287SOL    HW1 7181   2.490   0.350   2.817 -3.1124 -1.3458  1.8316
 2287SOL    HW2 7182   2.418   0.217   2.757 -0.7236 -2.0979  0.5116
 2288SOL     OW 7183   4.843   1.647   2.892 -0.0856 -0.2055  0.1483
 2288SOL    HW1 7184   4.809   1.739   2.873 -2.0357  0.0599  4.0216
 2288SOL    HW2 7185   4.775   1.580   2.861 -0.5287 -0.0904  0.8450
 2289SOL     OW 7186   1.474   1.502   0.097 -0.1230  0.1102  0.3792
 2289SOL    HW1 7187   1.508   1.595   0.086 -0.7756  0.2211 -1.0577
 2289SOL    HW2 7188   1.414   1.498   0.177 -0.0976  0.9329  0.4535
 2290SOL     OW 7189   1.168   0.294   2.082  0.0208 -0.0664  0.1004
 2290SOL    HW1 7190   1.079   0.299   2.038  1.2948  1.1971 -2.5301
 2290SOL    HW2 7191   1.235   0.253   2.020  1.7841  1.1440  1.0923
 2291SOL     OW 7192   3.442   2.271   2.683  0.5317  0.3230 -0.9185
 2291SOL    HW1 7193   3.435   2.178   2.719 -1.2069  0.3927 -1.0168
 2291SOL    HW2 7194   3.419   2.337   2.755 -1.8044  0.5011 -1.7402
 2292SOL     OW 7195   3.250   4.320   3.911 -0.1548 -0.2069  0.5219
 2292SOL    HW1 7196   3.255   4.411   3.953 -0.0564 -0.2316  0.5621
 2292SOL    HW2 7197   3.164   4.276   3.939 -0.2967 -0.0479  0.3432
 2293SOL     OW 7198   4.370   4.689   0.397 -0.2471  0.0126  0.2364
 2293SOL    HW1 7199   4.341   4.752   0.468  1.7820 -0.0952  1.2261
 2293SOL    HW2 7200   4.427   4.617   0.436  0.0084 -0.6945 -1.3271
 2294SOL     OW 7201   0.314   1.536   4.435 -0.2417 -0.1303 -0.2388
 2294SOL    HW1 7202   0.338   1.474   4.510  0.2019  0.5426  0.1933
 2294SOL    HW2 7203   0.230   1.505   4.392 -2.6718  1.4895  2.9250
 2295SOL     OW 7204   0.642   2.774   4.098  0.2573  0.0803  0.1090
 2295SOL    HW1 7205   0.577   2.727   4.038 -0.6334  0.7376  0.5284
 2295SOL    HW2 7206   0.662   2.864   4.060 -0.2699  0.4781  0.7557
 2296SOL     OW 7207   5.124   5.010   5.209  0.0567  0.3018 -0.2970
 2296SOL    HW1 7208   5.061   4.992   5.134  0.5068 -0.4358 -0.5044
 2296SOL    HW2 7209   5.218   5.004   5.176  0.2701 -0.4264  0.4113
 2297SOL     OW 7210   3.474   4.873   1.684  0.0554 -0.2349 -0.2786
 2297SOL    HW1 7211   3.410   4.950   1.688 -0.4505 -0.5831 -1.2989
 2297SOL    HW2 7212   3.428   4.790   1.715 -0.0344 -0.4978 -1.0705
 2298SOL     OW 7213   3.929   4.065   0.845  0.2341  0.2951  0.0570
 2298SOL    HW1 7214   3.894   4.149   0.804  0.3611  0.3039 -0.0312
 2298SOL    HW2 7215   3.922   4.071   0.945 -2.1419 -0.5858  0.0086
 2299SOL     OW 7216   3.789   3.660   0.586 -0.0164  0.5317 -0.1318
 2299SOL    HW1 7217   3.804   3.711   0.670  0.1584  0.2513  0.0085
 2299SOL    HW2 7218   3.778   3.563   0.607  2.5848  0.0537 -0.6503
 2300SOL     OW 7219   3.164   2.140   4.449  0.1741  0.2388 -0.2606
 2300SOL    HW1 7220   3.243   2.090   4.484  0.8639  2.0655  0.9056
 2300SOL    HW2 7221   3.087   2.128   4.512 -0.4386 -1.2974 -1.2448
 2301SOL     OW 7222   4.190   4.412   0.546  0.2435 -0.5456 -0.4862
 2301SOL    HW1 7223   4.198   4.471   0.627 -1.2070  2.3905 -2.3069
 2301SOL    HW2 7224   4.280   4.404   0.502  0.3214  1.3916 -0.8114
 2302SOL     OW 7225   1.831   2.691   1.307  0.3921  0.0310 -0.0088
 2302SOL    HW1 7226   1.842   2.770   1.246  0.5499 -1.4447 -2.0026
 2302SOL    HW2 7227   1.736   2.660   1.303  0.9697 -1.7012 -1.7065
 2303SOL     OW 7228   1.178   0.069   4.499  0.5545  0.2634  0.5496
 2303SOL    HW1 7229   1.197   0.135   4.427  0.5316 -1.5591 -1.1921
 2303SOL    HW2 7230   1.081   0.075   4.526  0.3723  0.4207 -0.1345
 2304SOL     OW 7231   2.572   1.633   5.004 -0.2068 -0.0958 -0.1147
 2304SOL    HW1 7232   2.623   1.548   5.015 -0.9751 -0.3620  1.8186
 2304SOL    HW2 7233   2.525   1.633   4.916  2.8342  0.0639 -1.9068
 2305SOL     OW 7234   2.126   3.711   3.155  0.0970 -0.0742 -0.3125
 2305SOL    HW1 7235   2.035   3.687   3.187  0.6574  1.1173  2.4671
 2305SOL    HW2 7236   2.128   3.808   3.129  0.3522 -0.3575 -1.4203
 2306SOL     OW 7237   4.348   0.626   3.232  1.0419  0.2084  0.2549
 2306SOL    HW1 7238   4.375   0.546   3.285  0.7540  0.6825  1.1388
 2306SOL    HW2 7239   4.400   0.628   3.147  1.4769 -0.5978  0.4851
 2307SOL     OW 7240   4.348   4.646   1.705 -0.3277 -0.3701  0.0192
 2307SOL    HW1 7241   4.293   4.616   1.628 -0.0073  1.3318 -0.9309
 2307SOL    HW2 7242   4.433   4.687   1.671 -0.6192  1.2996  1.1955
 2308SOL     OW 7243   4.026   0.780   2.174  0.3106  0.6475  0.0203
 2308SOL    HW1 7244   4.121   0.807   2.155  0.4961 -0.6266 -1.0082
 2308SOL    HW2 7245   4.024   0.685   2.206 -0.7999 -0.3411 -2.7033
 2309SOL     OW 7246   0.725   0.881   0.021  0.6736 -0.2204  0.2219
 2309SOL    HW1 7247   0.655   0.844  -0.040  1.4166 -1.1302 -0.1170
 2309SOL    HW2 7248   0.696   0.970   0.056  0.5841  0.7406 -2.1251
 2310SOL     OW 7249   0.314   2.860   0.304  0.3435  0.1253  0.0449
 2310SOL    HW1 7250   0.282   2.945   0.262 -0.3201  0.2753  0.8310
 2310SOL    HW2 7251   0.267   2.846   0.391  0.7993 -0.8066  0.1539
 2311SOL     OW 7252   3.800   0.735   1.690 -1.2044 -0.4744  0.2416
 2311SOL    HW1 7253   3.879   0.738   1.750 -1.8171 -1.6875  1.1579
 2311SOL    HW2 7254   3.815   0.795   1.611 -0.3039  1.0264  1.4980
 2312SOL     OW 7255   5.076   5.437   2.447 -0.2204 -0.0006 -0.1056
 2312SOL    HW1 7256   5.084   5.393   2.358  0.0891  1.7603 -0.9889
 2312SOL    HW2 7257   5.102   5.533   2.439 -2.3180  0.7727  1.4114
 2313SOL     OW 7258   1.116   5.519   2.070 -0.8331 -0.7150  0.5759
 2313SOL    HW1 7259   1.187   5.469   2.020 -1.3330  1.1485 -2.2265
 2313SOL    HW2 7260   1.140   5.523   2.167  2.2649 -1.1707 -0.0762
 2314SOL     OW 7261   5.251   4.120   4.493 -0.3673  0.1382  1.0292
 2314SOL    HW1 7262   5.340   4.165   4.502 -0.8752  1.3712  0.1533
 2314SOL    HW2 7263   5.239   4.055   4.568  1.5855 -0.6479  0.7409
 2315SOL     OW 7264   0.345   0.216   2.775 -0.3419 -0.2505 -0.3577
 2315SOL    HW1 7265   0.278   0.166   2.831  0.0682  0.7076  1.0502
 2315SOL    HW2 7266   0.301   0.247   2.691 -1.4542 -0.3274  0.1697
 2316SOL     OW 7267   0.721   0.192   4.159  0.5891 -0.3970 -0.0777
 2316SOL    HW1 7268   0.749   0.200   4.063 -0.5066 -2.0728 -0.5850
 2316SOL    HW2 7269   0.622   0.176   4.164  0.5079  0.3863  1.3898
 2317SOL     OW 7270   2.882   0.740   3.096  0.3073 -0.2103  0.3592
 2317SOL    HW1 7271   2.960   0.677   3.102  1.1346  0.6739 -0.6133
 2317SOL    HW2 7272   2.860   0.774   3.187  0.3645 -1.2789  0.7895
 2318SOL     OW 7273   4.675   0.974   5.221 -0.4645  0.8007 -0.1133
 2318SOL    HW1 7274   4.756   1.012   5.177 -0.3265 -0.2777 -0.8238
 2318SOL    HW2 7275   4.593   1.017   5.183 -0.2392  2.5117  1.2039
 2319SOL     OW 7276   1.833   0.830   5.291 -0.0190  0.2182 -0.3519
 2319SOL    HW1 7277   1.783   0.914   5.270  0.0610  0.3288 -0.0917
 2319SOL    HW2 7278   1.886   0.802   5.211  0.7270  0.9503 -0.1226
 2320SOL     OW 7279   1.270   2.784   0.813  0.2758  0.5210  0.1573
 2320SOL    HW1 7280   1.291   2.723   0.889 -0.7241  1.4820  1.2217
 2320SOL    HW2 7281   1.257   2.729   0.730  2.1936 -0.4694  0.4554
 2321SOL     OW 7282   0.633   1.060   2.581 -0.1477  0.7369  0.0024
 2321SOL    HW1 7283   0.553   1.104   2.542 -0.3344  0.1812 -0.2501
 2321SOL    HW2 7284   0.685   1.127   2.635 -1.5917  0.7347  1.4432
 2322SOL     OW 7285   0.205   2.254   2.268 -0.2708  0.3227  0.4694
 2322SOL    HW1 7286   0.223   2.164   2.307 -0.9185  0.2771  0.6738
 2322SOL    HW2 7287   0.150   2.244   2.185  0.0876  0.5016  0.2050
 2323SOL     OW 7288   3.045   0.823   1.664  0.3525 -0.3507  0.2788
 2323SOL    HW1 7289   2.950   0.852   1.675 -0.0087 -0.8165 -1.4081
 2323SOL    HW2 7290   3.051   0.724   1.674  0.5662 -0.3865 -0.1757
 2324SOL     OW 7291   0.617   4.253   0.239 -0.1187 -0.0122  0.1537
 2324SOL    HW1 7292   0.589   4.347   0.263 -0.2918  0.1576 -0.6758
 2324SOL    HW2 7293   0.559   4.220   0.165  0.1988 -0.6387  0.1858
 2325SOL     OW 7294   4.433   4.692   2.729  0.0089 -0.1724 -0.2399
 2325SOL    HW1 7295   4.452   4.616   2.791  0.0996 -0.1213 -0.2049
 2325SOL    HW2 7296   4.489   4.683   2.647  0.2949  0.0603 -0.0706
 2326SOL     OW 7297   1.042   0.839   5.219 -0.3924  0.1248 -0.5370
 2326SOL    HW1 7298   1.089   0.902   5.159  0.3165 -1.5967 -1.8613
 2326SOL    HW2 7299   1.013   0.759   5.168 -1.9732 -0.2971  0.9198
 2327SOL     OW 7300   0.373   1.023   2.932 -0.0476 -0.5555  0.3440
 2327SOL    HW1 7301   0.316   0.977   3.001 -1.3409  0.6334  0.1059
 2327SOL    HW2 7302   0.467   0.989   2.939  0.3649  0.8182  3.9857
 2328SOL     OW 7303   3.665   5.037   2.330  0.5714  0.2066  0.0545
 2328SOL    HW1 7304   3.640   4.987   2.413  1.0978  0.8163  0.6012
 2328SOL    HW2 7305   3.645   4.981   2.249 -2.3490  0.5771  0.4204
 2329SOL     OW 7306   4.288   2.533   0.837  0.3907 -0.3864  0.0430
 2329SOL    HW1 7307   4.358   2.513   0.906 -0.0826 -2.7931 -0.0578
 2329SOL    HW2 7308   4.322   2.507   0.747  0.3592  1.0859 -0.4096
 2330SOL     OW 7309   0.245   1.433   1.122 -0.1401  0.5922  0.1657
 2330SOL    HW1 7310   0.218   1.336   1.128 -0.0966  0.5558 -0.2090
 2330SOL    HW2 7311   0.344   1.439   1.121 -0.1435  0.5552 -1.1030
 2331SOL     OW 7312   4.202   3.745   3.534  0.4862 -0.6521 -0.6559
 2331SOL    HW1 7313   4.148   3.804   3.593  0.8040  0.4727 -1.4481
 2331SOL    HW2 7314   4.162   3.654   3.531 -0.2354 -0.3776  0.2915
 2332SOL     OW 7315   0.331   1.551   5.102 -0.0903 -0.0243  0.7586
 2332SOL    HW1 7316   0.339   1.615   5.026 -3.4847 -0.5804 -0.2259
 2332SOL    HW2 7317   0.320   1.458   5.067 -0.9244 -0.3919  1.9047
 2333SOL     OW 7318   4.769   1.898   2.806 -0.3754 -0.3273  0.7721
 2333SOL    HW1 7319   4.857   1.944   2.818  0.9723 -2.8547  1.1369
 2333SOL    HW2 7320   4.701   1.964   2.773  1.7713  1.5591 -0.1113
 2334SOL     OW 7321   1.235   2.813   3.437  0.1047  0.5131  0.1654
 2334SOL    HW1 7322   1.248   2.853   3.527  0.3095  1.0688 -0.1066
 2334SOL    HW2 7323   1.159   2.860   3.390  0.4716  0.7194 -0.2276
 2335SOL     OW 7324   1.324   4.676   0.188 -0.2404  0.4410 -0.6621
 2335SOL    HW1 7325   1.241   4.721   0.155  0.5363  0.7578 -2.2864
 2335SOL    HW2 7326   1.392   4.673   0.115  1.1239  0.0141  0.5597
 2336SOL     OW 7327   2.745   3.842   3.196  0.0231  0.1010  0.1018
 2336SOL    HW1 7328   2.823   3.877   3.144 -0.0852  0.4617  0.1794
 2336SOL    HW2 7329   2.670   3.908   3.191 -0.0147  0.1026  0.6490
 2337SOL     OW 7330   4.235   1.638   2.477  0.7621 -0.4155 -0.3789
 2337SOL    HW1 7331   4.151   1.601   2.440 -1.9767  2.0798  2.7471
 2337SOL    HW2 7332   4.279   1.695   2.408 -2.2106  1.2345 -1.0768
 2338SOL     OW 7333   0.138   3.968   3.153  0.6094 -0.5826  0.3743
 2338SOL    HW1 7334   0.089   3.938   3.071  0.9083  0.5057 -0.2144
 2338SOL    HW2 7335   0.077   3.964   3.232 -0.1069 -0.2478 -0.1609
 2339SOL     OW 7336   4.475   1.091   0.611  0.8518  0.3344 -0.4022
 2339SOL    HW1 7337   4.493   1.173   0.665 -1.2757  0.8908 -0.4428
 2339SOL    HW2 7338   4.434   1.021   0.671  1.1169 -0.0977 -0.7198
 2340SOL     OW 7339   4.429   5.137   4.901  0.3522 -0.8448  0.1606
 2340SOL    HW1 7340   4.501   5.203   4.921  0.2097 -0.5337 -0.3448
 2340SOL    HW2 7341   4.441   5.057   4.960  1.0935 -0.7827  0.1094
 2341SOL     OW 7342   2.419   2.006   1.300  0.4980 -1.1264 -0.5426
 2341SOL    HW1 7343   2.391   2.008   1.396  0.0117  0.8429 -0.6772
 2341SOL    HW2 7344   2.339   2.016   1.242  1.0067  0.2176 -1.0555
 2342SOL     OW 7345   3.976   2.949   5.179 -0.2737  0.3707 -0.4935
 2342SOL    HW1 7346   4.059   2.899   5.157 -1.1961 -1.2920 -0.3893
 2342SOL    HW2 7347   3.981   2.982   5.274  1.2001  2.3459 -1.1969
 2343SOL     OW 7348   3.206   1.739   2.759 -0.2501  0.1108 -0.2890
 2343SOL    HW1 7349   3.260   1.780   2.832  0.1217 -2.8422  1.2622
 2343SOL    HW2 7350   3.113   1.775   2.761  0.3923  1.8203  0.0464
 2344SOL     OW 7351   4.272   2.368   5.054  0.3427 -0.3655 -0.1545
 2344SOL    HW1 7352   4.307   2.293   4.998  0.4833 -0.7372  0.4232
 2344SOL    HW2 7353   4.193   2.336   5.107  0.5905 -0.1941  0.3237
 2345SOL     OW 7354   3.295   4.106   0.234 -0.1528 -0.6204 -0.8710
 2345SOL    HW1 7355   3.365   4.150   0.179  0.4645 -0.3434  0.1104
 2345SOL    HW2 7356   3.215   4.086   0.177  0.3987 -0.1938 -1.8118
 2346SOL     OW 7357   2.632   4.649   4.176  0.1394  0.4033  0.1504
 2346SOL    HW1 7358   2.722   4.634   4.136  0.0032  0.4229 -0.1685
 2346SOL    HW2 7359   2.640   4.654   4.276  0.0719 -2.7895  0.4074
 2347SOL     OW 7360   1.877   2.876   2.476 -0.0674 -0.3815  0.3336
 2347SOL    HW1 7361   1.866   2.870   2.575 -1.7105 -0.2982  0.1777
 2347SOL    HW2 7362   1.965   2.919   2.455 -0.5042  1.3403  1.7961
 2348SOL     OW 7363   5.036   4.011   3.799 -0.5061 -0.7522 -0.0419
 2348SOL    HW1 7364   4.954   4.058   3.768 -0.3549 -1.3197 -1.3751
 2348SOL    HW2 7365   5.114   4.039   3.742  0.0490 -0.8886  0.6340
 2349SOL     OW 7366   4.916   3.685   5.165 -0.2672  0.3154  0.9016
 2349SOL    HW1 7367   5.010   3.669   5.136 -0.7872  0.7467 -1.1544
 2349SOL    HW2 7368   4.895   3.626   5.244  0.9910 -1.5248 -0.0617
 2350SOL     OW 7369   1.996   3.016   0.731 -0.0819  0.0907  0.0338
 2350SOL    HW1 7370   1.916   3.003   0.672 -0.2049 -0.0323  0.2228
 2350SOL    HW2 7371   2.066   3.067   0.682  0.3011 -1.0465 -0.6366
 2351SOL     OW 7372   0.830   3.982   2.769  0.4597  0.2328  0.1013
 2351SOL    HW1 7373   0.911   3.999   2.714  1.2048 -2.3553  0.2782
 2351SOL    HW2 7374   0.838   4.032   2.856  1.7593  0.2006  0.0230
 2352SOL     OW 7375   3.245   3.946   0.665 -0.1589 -0.1585 -0.6068
 2352SOL    HW1 7376   3.326   3.947   0.724 -0.0301  0.7606 -0.7835
 2352SOL    HW2 7377   3.245   3.861   0.612 -0.2753 -0.9981  0.6827
 2353SOL     OW 7378   3.362   1.022   0.381 -0.2992  0.4005 -0.0736
 2353SOL    HW1 7379   3.370   1.103   0.323  0.4351  1.8618  1.9505
 2353SOL    HW2 7380   3.285   1.033   0.443  0.0019 -0.2994  0.4384
 2354SOL     OW 7381   1.825   3.169   2.970 -0.1396 -0.0642 -0.1736
 2354SOL    HW1 7382   1.758   3.240   2.992  0.5108  1.0201 -1.5807
 2354SOL    HW2 7383   1.916   3.198   2.999 -0.1002 -1.1116  0.8465
 2355SOL     OW 7384   4.904   1.248   1.148  0.6661 -0.6226 -0.2564
 2355SOL    HW1 7385   4.901   1.156   1.188  0.9285 -0.2491  0.6487
 2355SOL    HW2 7386   4.996   1.268   1.117  0.8300 -0.3182  0.4069
 2356SOL     OW 7387   0.131   0.806   0.276 -0.5254 -0.0127  0.1226
 2356SOL    HW1 7388   0.211   0.865   0.266 -1.1536  0.6059 -1.6404
 2356SOL    HW2 7389   0.048   0.857   0.254 -0.9847 -1.8123 -2.8057
 2357SOL     OW 7390   2.107   5.529   1.530 -0.0711  0.4496  0.2677
 2357SOL    HW1 7391   2.134   5.564   1.620  1.2224  2.5803 -0.8695
 2357SOL    HW2 7392   2.127   5.431   1.525 -0.1162  0.3032  2.2626
 2358SOL     OW 7393   3.856   3.679   2.003  0.0171 -0.1990  0.4222
 2358SOL    HW1 7394   3.840   3.631   1.917 -0.7520  0.6993  0.0463
 2358SOL    HW2 7395   3.935   3.740   1.993 -0.7541  0.7566 -0.0330
 2359SOL     OW 7396   3.133   0.126   1.128 -0.1963 -0.3106  0.0835
 2359SOL    HW1 7397   3.179   0.197   1.074 -0.3812  0.9070  1.4511
 2359SOL    HW2 7398   3.076   0.070   1.068 -0.6459  1.1932 -0.9663
 2360SOL     OW 7399   1.152   3.952   0.835  0.0845  0.3419 -0.0990
 2360SOL    HW1 7400   1.166   3.878   0.900  1.0933  0.1822 -0.4806
 2360SOL    HW2 7401   1.076   4.009   0.866 -1.0268 -1.1067 -0.0448
 2361SOL     OW 7402   2.882   5.026   2.624  0.6124  0.2990 -0.1665
 2361SOL    HW1 7403   2.799   5.079   2.603 -0.1495 -0.3779  1.0172
 2361SOL    HW2 7404   2.949   5.039   2.552 -1.3209 -0.7842 -2.2931
 2362SOL     OW 7405   1.580   4.236   4.915 -0.2294  0.3278 -0.0073
 2362SOL    HW1 7406   1.650   4.295   4.874 -1.0365  1.7205  0.5544
 2362SOL    HW2 7407   1.502   4.230   4.853 -1.0178  1.5903  0.8201
 2363SOL     OW 7408   4.228   5.547   5.248  0.3070 -0.3738  0.3676
 2363SOL    HW1 7409   4.255   5.599   5.329 -0.9728  0.3783  0.3400
 2363SOL    HW2 7410   4.182   5.462   5.276 -2.0229  0.8511  0.5309
 2364SOL     OW 7411   1.148   1.034   1.063 -0.0831 -0.4151  0.4298
 2364SOL    HW1 7412   1.225   1.028   1.127  1.0484  0.3490 -0.7991
 2364SOL    HW2 7413   1.127   0.943   1.027  1.6654 -0.4054 -0.7773
 2365SOL     OW 7414   2.104   3.822   3.832  0.3934 -0.3147  0.1174
 2365SOL    HW1 7415   2.062   3.912   3.838  0.9078 -0.1257  1.2293
 2365SOL    HW2 7416   2.041   3.753   3.868 -0.6981 -0.6899 -2.3089
 2366SOL     OW 7417   4.483   2.126   2.489  0.3604 -0.2558  0.2449
 2366SOL    HW1 7418   4.464   2.036   2.448 -0.8637 -0.7794  1.8506
 2366SOL    HW2 7419   4.411   2.148   2.554  0.5422  2.0278 -0.2654
 2367SOL     OW 7420   4.961   2.180   5.084  0.2761 -0.8274 -0.3334
 2367SOL    HW1 7421   4.898   2.249   5.047  0.9789 -0.4494 -0.8474
 2367SOL    HW2 7422   4.983   2.113   5.013  1.9890  0.1572 -0.7987
 2368SOL     OW 7423   3.635   1.988   5.031 -0.2415  0.2779 -0.5942
 2368SOL    HW1 7424   3.582   1.906   5.009 -0.1601 -0.4107  1.6033
 2368SOL    HW2 7425   3.698   2.007   4.956 -1.6566 -0.4775 -2.0407
 2369SOL     OW 7426   4.553   3.411   4.035  0.1567 -0.3643  0.6662
 2369SOL    HW1 7427   4.580   3.341   3.968  0.1118 -1.0057  1.3075
 2369SOL    HW2 7428   4.615   3.408   4.113 -1.1380 -1.1693  1.6885
 2370SOL     OW 7429   2.027   1.651   1.282 -0.4007 -0.1598 -0.3895
 2370SOL    HW1 7430   1.973   1.705   1.347  0.5601  0.0968  0.2122
 2370SOL    HW2 7431   1.976   1.569   1.255 -1.9239  1.0480 -1.3693
 2371SOL     OW 7432   1.944   3.529   1.896  0.1408  0.2342 -0.2948
 2371SOL    HW1 7433   1.977   3.621   1.876  1.5523 -0.3782 -0.9281
 2371SOL    HW2 7434   1.984   3.496   1.982 -1.7394  0.8330  0.8831
 2372SOL     OW 7435   1.225   2.699   4.562 -0.1736 -0.0368 -0.0831
 2372SOL    HW1 7436   1.147   2.637   4.572  0.5020 -0.8269  0.4207
 2372SOL    HW2 7437   1.307   2.654   4.596  0.2947  1.2356  0.5260
 2373SOL     OW 7438   3.591   1.302   4.391 -0.1016  0.2909 -0.6124
 2373SOL    HW1 7439   3.603   1.350   4.304 -1.1514 -0.2301 -1.0583
 2373SOL    HW2 7440   3.564   1.367   4.462 -0.2211  0.5638 -0.9059
 2374SOL     OW 7441   4.191   3.616   2.607 -0.1558  0.2699  0.2681
 2374SOL    HW1 7442   4.259   3.559   2.652 -1.0032 -1.2666 -0.3243
 2374SOL    HW2 7443   4.237   3.676   2.541  0.7679  0.4204  1.0226
 2375SOL     OW 7444   1.540   0.900   0.540 -0.3817 -0.5644  0.0831
 2375SOL    HW1 7445   1.601   0.968   0.498 -0.1667 -0.5330  0.4433
 2375SOL    HW2 7446   1.541   0.911   0.639  2.0748 -3.0433  0.4717
 2376SOL     OW 7447   0.936   0.963   3.308  0.0745  0.0328 -0.1068
 2376SOL    HW1 7448   0.898   1.051   3.280  0.7513  0.0320 -1.0996
 2376SOL    HW2 7449   0.862   0.900   3.329 -0.4777  0.1852 -1.4864
 2377SOL     OW 7450   1.473   3.402   4.354  0.4845  0.0393 -0.3462
 2377SOL    HW1 7451   1.412   3.443   4.287  0.3624 -0.8152 -0.7729
 2377SOL    HW2 7452   1.559   3.453   4.357 -1.1355  3.0126  2.2375
 2378SOL     OW 7453   3.277   3.690   0.543 -0.1007 -0.0732 -0.1923
 2378SOL    HW1 7454   3.328   3.609   0.572  0.1203  0.3217  0.5473
 2378SOL    HW2 7455   3.337   3.750   0.490 -0.5352 -0.8491 -1.6419
 2379SOL     OW 7456   0.713   2.710   2.754  0.5142 -0.1764 -0.0175
 2379SOL    HW1 7457   0.765   2.788   2.718 -0.4364 -0.2793 -1.7005
 2379SOL    HW2 7458   0.738   2.628   2.704  0.9202 -0.8428  1.2187
 2380SOL     OW 7459   0.108   4.234   1.394 -0.4061 -0.0324  0.0910
 2380SOL    HW1 7460   0.043   4.158   1.385 -0.1309 -0.1035 -1.6541
 2380SOL    HW2 7461   0.182   4.223   1.327  1.8601 -0.3260  2.4906
 2381SOL     OW 7462   3.020   3.991   0.122  0.4157  0.5713  0.2200
 2381SOL    HW1 7463   3.094   3.956   0.066  1.6505  1.3403  1.3154
 2381SOL    HW2 7464   2.966   3.915   0.157 -0.9878  0.0816 -2.6765
 2382SOL     OW 7465   0.478   0.421   3.868  0.1475  0.0437 -0.6297
 2382SOL    HW1 7466   0.569   0.381   3.865  1.2567  2.4611 -1.4307
 2382SOL    HW2 7467   0.460   0.470   3.782 -0.8101  1.8473  0.5262
 2383SOL     OW 7468   0.636   5.007   2.138 -0.4280 -0.0560  0.3912
 2383SOL    HW1 7469   0.540   5.034   2.136 -0.0485  1.3607 -0.2584
 2383SOL    HW2 7470   0.643   4.907   2.135 -1.8868 -0.2323  1.6010
 2384SOL     OW 7471   5.210   0.781   5.079  0.1251 -0.0729 -0.0851
 2384SOL    HW1 7472   5.240   0.690   5.108  0.2593  0.0726  0.2342
 2384SOL    HW2 7473   5.223   0.791   4.980 -1.0779 -0.8685 -0.3505
 2385SOL     OW 7474   4.084   3.414   1.914  0.5338 -0.1875  0.6483
 2385SOL    HW1 7475   4.148   3.343   1.886  0.1840 -0.2331 -0.0576
 2385SOL    HW2 7476   4.135   3.495   1.943  0.9101 -0.1156 -0.2024
 2386SOL     OW 7477   4.925   5.185   2.053 -0.0505  0.3306 -0.8391
 2386SOL    HW1 7478   4.958   5.117   1.987 -0.0772 -1.8608  1.2717
 2386SOL    HW2 7479   4.827   5.170   2.069  0.6138 -1.4884  2.1480
 2387SOL     OW 7480   3.724   5.417   0.409 -0.3971  0.0924 -0.9727
 2387SOL    HW1 7481   3.639   5.466   0.430 -0.3618  0.1274 -0.9102
 2387SOL    HW2 7482   3.777   5.405   0.493 -0.2666  0.2094 -1.0377
 2388SOL     OW 7483   2.111   4.005   2.277 -0.0893 -0.2013  0.2594
 2388SOL    HW1 7484   2.012   3.991   2.282  0.0678 -2.1458 -0.9960
 2388SOL    HW2 7485   2.156   3.917   2.264  1.8583  0.6011  1.1941
 2389SOL     OW 7486   5.235   0.093   0.481 -0.3906 -0.3315  0.5012
 2389SOL    HW1 7487   5.260   0.089   0.578 -2.8034  1.4890  1.3073
 2389SOL    HW2 7488   5.298   0.153   0.432  0.8214 -1.2293  0.9225
 2390SOL     OW 7489   2.873   1.091   3.930 -0.0686 -0.2306  0.5274
 2390SOL    HW1 7490   2.814   1.057   3.857  1.2658 -1.2685 -0.1022
 2390SOL    HW2 7491   2.953   1.032   3.939  0.6812  0.9014  1.6436
 2391SOL     OW 7492   1.553   4.077   2.177  0.1419 -0.3745  0.7534
 2391SOL    HW1 7493   1.491   4.008   2.213  0.6722  0.0175  2.4959
 2391SOL    HW2 7494   1.544   4.162   2.230 -0.1359  0.7648 -1.0197
 2392SOL     OW 7495   1.795   4.022   3.995 -0.7408 -0.0766 -0.4778
 2392SOL    HW1 7496   1.740   3.942   3.969  1.0148 -0.9277 -1.8277
 2392SOL    HW2 7497   1.864   4.039   3.924  1.9453 -0.2121  1.9115
 2393SOL     OW 7498   0.282   1.026   2.636  0.0251  0.7771  0.1231
 2393SOL    HW1 7499   0.325   1.068   2.557 -2.3713  2.2215 -0.4948
 2393SOL    HW2 7500   0.352   1.008   2.706  2.1817 -0.3827 -2.1450
 2394SOL     OW 7501   4.479   1.260   1.175 -0.5022 -0.1138 -0.0666
 2394SOL    HW1 7502   4.531   1.225   1.253 -0.3222 -1.7679 -0.8900
 2394SOL    HW2 7503   4.452   1.355   1.193  0.5542 -0.0690  1.4809
 2395SOL     OW 7504   0.140   0.344   1.072 -0.4128  0.0914  0.3366
 2395SOL    HW1 7505   0.118   0.385   0.983 -1.2998  1.6062  1.2243
 2395SOL    HW2 7506   0.234   0.310   1.070  0.1729  1.6717 -0.6192
 2396SOL     OW 7507   0.426   4.203   4.637  0.4281 -0.3937  0.3418
 2396SOL    HW1 7508   0.507   4.232   4.586  1.4542 -0.2933  1.9540
 2396SOL    HW2 7509   0.455   4.152   4.718 -1.2000 -1.9469  0.0161
 2397SOL     OW 7510   3.016   3.089   4.749  0.0021 -0.1818  0.1483
 2397SOL    HW1 7511   2.937   3.073   4.691  0.2490  0.8545 -0.5020
 2397SOL    HW2 7512   3.088   3.023   4.727  0.1616  0.3161 -0.8680
 2398SOL     OW 7513   4.407   5.221   1.046  0.8253 -0.4380 -0.6642
 2398SOL    HW1 7514   4.415   5.316   1.017 -0.4882  0.1728  0.7943
 2398SOL    HW2 7515   4.490   5.195   1.097 -0.0090  0.9879  1.6058
 2399SOL     OW 7516   2.724   0.440   0.294 -0.1329  0.0128  0.2467
 2399SOL    HW1 7517   2.695   0.407   0.204  2.3371 -0.5580 -0.4008
 2399SOL    HW2 7518   2.738   0.539   0.290 -2.0102  0.3464  0.6364
 2400SOL     OW 7519   3.953   3.586   0.189  0.1183 -0.1914 -0.1123
 2400SOL    HW1 7520   3.991   3.544   0.272  1.8295 -0.2037 -0.8477
 2400SOL    HW2 7521   3.858   3.557   0.178 -0.0620 -0.4161  1.6797
 2401SOL     OW 7522   0.652  -0.024   4.751  0.1483  0.3907 -0.1799
 2401SOL    HW1 7523   0.597   0.040   4.696 -0.9863 -0.7370 -0.4165
 2401SOL    HW2 7524   0.748   0.002   4.747 -0.1798  1.5407 -1.0187
 2402SOL     OW 7525   3.694   5.102   4.509  0.2590  0.4768 -0.5366
 2402SOL    HW1 7526   3.666   5.190   4.549 -1.0678 -0.3256  0.3913
 2402SOL    HW2 7527   3.720   5.116   4.414 -0.4142  1.8098 -0.5532
 2403SOL     OW 7528   1.065   2.476   3.805  0.1589 -0.1496  0.7385
 2403SOL    HW1 7529   1.105   2.486   3.714  1.4911 -3.1699  0.8827
 2403SOL    HW2 7530   0.996   2.548   3.819  0.8975  1.2511 -2.0605
 2404SOL     OW 7531   5.512   3.745   1.681  0.5481 -0.3686  0.0516
 2404SOL    HW1 7532   5.557   3.830   1.651 -0.3330  0.3862  0.8246
 2404SOL    HW2 7533   5.497   3.748   1.780 -0.4603 -0.9571 -0.0696
 2405SOL     OW 7534   1.807   3.048   0.371  0.3187 -0.1700 -0.0390
 2405SOL    HW1 7535   1.798   3.146   0.388  1.0713 -0.1543  0.3412
 2405SOL    HW2 7536   1.732   2.999   0.415  0.4677  0.1631  0.6031
 2406SOL     OW 7537   2.147   0.089   3.138  0.8366 -0.7097 -0.4008
 2406SOL    HW1 7538   2.163   0.009   3.079  0.8081  0.8726 -2.7197
 2406SOL    HW2 7539   2.223   0.153   3.127  0.4152 -0.0082  0.6833
 2407SOL     OW 7540   0.033   3.917   2.495 -0.2683 -0.6284 -0.3012
 2407SOL    HW1 7541   0.008   3.832   2.542  0.5661 -1.3374 -1.1022
 2407SOL    HW2 7542   0.133   3.925   2.494 -0.2940 -0.3595 -1.4700
 2408SOL     OW 7543   0.613   5.078   0.507 -0.1146 -0.4888  0.3242
 2408SOL    HW1 7544   0.581   5.045   0.418 -0.5771  0.4068  0.1508
 2408SOL    HW2 7545   0.607   5.005   0.574 -0.5181 -0.9420 -0.1984
 2409SOL     OW 7546   5.418   2.118   2.573 -0.1229  0.0824  0.1433
 2409SOL    HW1 7547   5.491   2.186   2.584 -0.5022  0.9948 -2.3353
 2409SOL    HW2 7548   5.352   2.151   2.505 -0.0409 -2.9819 -1.5811
 2410SOL     OW 7549   2.143   4.181   1.725  0.5437 -0.0677  0.2114
 2410SOL    HW1 7550   2.116   4.091   1.691  1.6336 -0.3200 -0.0243
 2410SOL    HW2 7551   2.080   4.210   1.797 -1.4626  0.2090 -1.5514
 2411SOL     OW 7552   5.201   4.434   3.949  0.2617  0.1875  0.5655
 2411SOL    HW1 7553   5.243   4.377   4.020  1.5001  1.6419  1.0552
 2411SOL    HW2 7554   5.226   4.400   3.859  0.7315 -0.2135  0.8433
 2412SOL     OW 7555   0.609   3.887   1.067 -0.0850 -0.3302 -0.8201
 2412SOL    HW1 7556   0.616   3.852   1.161  0.6677  0.7751 -0.4391
 2412SOL    HW2 7557   0.649   3.979   1.063 -2.4182  0.7377 -1.6532
 2413SOL     OW 7558   0.289   3.414   1.533  0.3601 -0.0795 -0.1990
 2413SOL    HW1 7559   0.232   3.334   1.515 -0.5315  0.9549 -2.2833
 2413SOL    HW2 7560   0.280   3.440   1.629 -2.5362 -0.1427 -0.3546
 2414SOL     OW 7561   0.959   5.139   0.518 -0.4968  0.2511 -0.1162
 2414SOL    HW1 7562   0.922   5.094   0.599  0.3299 -0.0927  0.0848
 2414SOL    HW2 7563   0.886   5.185   0.468 -1.2071 -0.5337  0.1812
 2415SOL     OW 7564   3.537   4.993   4.869 -0.0150  0.1737 -0.2222
 2415SOL    HW1 7565   3.470   4.924   4.841 -0.4269  0.7738 -0.7565
 2415SOL    HW2 7566   3.489   5.078   4.891  0.2818 -0.2296  2.2920
 2416SOL     OW 7567   5.025   3.986   1.696  0.0150  0.7153  0.2269
 2416SOL    HW1 7568   5.048   3.896   1.731  1.7982  1.3986  0.9624
 2416SOL    HW2 7569   5.071   4.001   1.609  0.0086  1.0407  0.2775
 2417SOL     OW 7570   2.418   2.067   5.227 -0.4566 -0.1538  0.0961
 2417SOL    HW1 7571   2.333   2.039   5.182  0.1759  0.9779 -1.9520
 2417SOL    HW2 7572   2.482   2.100   5.158  0.2968  2.4907  1.9124
 2418SOL     OW 7573   3.077   3.647   1.214 -0.4362 -0.1679  0.0397
 2418SOL    HW1 7574   3.061   3.745   1.201 -0.3957 -0.1382  0.2070
 2418SOL    HW2 7575   3.011   3.611   1.280  0.5916  0.0897  1.2274
 2419SOL     OW 7576   4.032   3.524   4.081  0.0168  0.2951  0.4586
 2419SOL    HW1 7577   4.084   3.594   4.131  1.4447 -1.6607  1.8557
 2419SOL    HW2 7578   4.075   3.508   3.992  0.1858  0.5612  0.4903
 2420SOL     OW 7579   3.769   0.334   5.018  0.0595  0.5630 -0.1674
 2420SOL    HW1 7580   3.845   0.316   5.080  0.2999 -3.2353 -1.3204
 2420SOL    HW2 7581   3.685   0.295   5.057  0.1420 -1.5209 -1.8649
 2421SOL     OW 7582   4.373   4.529   3.310 -0.1281 -0.3645  0.0091
 2421SOL    HW1 7583   4.284   4.568   3.287  0.4523  1.5334  0.7891
 2421SOL    HW2 7584   4.366   4.429   3.312 -2.0734 -0.2810 -0.5291
 2422SOL     OW 7585   3.083   0.572   3.124 -0.2256  0.4358 -0.3765
 2422SOL    HW1 7586   3.169   0.540   3.085 -0.5819  0.2266 -1.0152
 2422SOL    HW2 7587   3.008   0.512   3.092 -0.6141  0.6640  0.0970
 2423SOL     OW 7588   1.479   1.536   0.722 -0.1765 -0.1589 -0.3291
 2423SOL    HW1 7589   1.568   1.579   0.733 -0.4296 -0.1402  2.3028
 2423SOL    HW2 7590   1.487   1.437   0.737 -0.2705 -0.4934 -2.2846
 2424SOL     OW 7591   1.654   3.760   1.430  0.2571  0.3244 -0.3328
 2424SOL    HW1 7592   1.572   3.817   1.424  1.4226  1.9226 -2.5197
 2424SOL    HW2 7593   1.639   3.674   1.382 -0.7851 -0.3435  1.1107
 2425SOL     OW 7594   1.316   4.267   2.580 -0.1213 -0.2300 -0.3588
 2425SOL    HW1 7595   1.225   4.258   2.620  0.0197  0.3754  0.1131
 2425SOL    HW2 7596   1.368   4.335   2.631  0.5453 -0.4625 -0.7214
 2426SOL     OW 7597   3.314   0.489   3.307  0.4595  0.0994 -0.7979
 2426SOL    HW1 7598   3.356   0.399   3.296 -0.8548 -0.4006 -2.1804
 2426SOL    HW2 7599   3.234   0.481   3.366  0.1050  0.2575 -1.2476
 2427SOL     OW 7600   2.529   3.862   4.298 -0.5086  0.0606 -0.0345
 2427SOL    HW1 7601   2.465   3.834   4.226  0.1184  2.1260 -1.4939
 2427SOL    HW2 7602   2.508   3.955   4.327  1.5265  0.6538 -0.2816
 2428SOL     OW 7603   3.017   3.666   5.246  0.4644  0.0359 -0.0890
 2428SOL    HW1 7604   2.938   3.629   5.198 -0.2060  1.1700  0.1005
 2428SOL    HW2 7605   3.050   3.747   5.198 -0.0008  0.9881  1.1384
 2429SOL     OW 7606   4.124   4.607   4.789 -0.0100 -0.3468 -0.0871
 2429SOL    HW1 7607   4.050   4.548   4.758 -0.8231  0.2827  0.6239
 2429SOL    HW2 7608   4.125   4.611   4.889 -0.8717  1.8870 -0.0998
 2430SOL     OW 7609   0.318   1.769   5.255 -0.0539  0.1639 -0.0504
 2430SOL    HW1 7610   0.339   1.681   5.214  1.1820 -0.2302  1.3448
 2430SOL    HW2 7611   0.362   1.842   5.202  2.8125 -0.4472  1.2823
 2431SOL     OW 7612   1.413   4.893   3.437  0.3721  0.3346  0.1147
 2431SOL    HW1 7613   1.474   4.911   3.359  1.4512 -0.6071  0.7128
 2431SOL    HW2 7614   1.388   4.797   3.439 -0.7886  0.6223  0.1487
 2432SOL     OW 7615   3.386   0.535   3.059  0.2569  0.1647  0.2376
 2432SOL    HW1 7616   3.367   0.515   3.155  1.3085 -1.4452  0.1341
 2432SOL    HW2 7617   3.428   0.625   3.051  0.1456  0.3159  1.2828
 2433SOL     OW 7618   3.887   3.015   5.439 -0.1479 -0.9198  0.6359
 2433SOL    HW1 7619   3.796   2.977   5.453 -0.3585 -0.6148  0.1213
 2433SOL    HW2 7620   3.916   3.064   5.521 -0.1187 -1.6821  1.0884
 2434SOL     OW 7621   4.944   4.489   1.695  0.0404 -0.2094 -0.3548
 2434SOL    HW1 7622   4.997   4.417   1.740  0.5683  0.4878  0.1629
 2434SOL    HW2 7623   4.857   4.451   1.664  0.8711 -1.4166 -1.3453
 2435SOL     OW 7624   3.545   4.584   1.956  0.2494  0.8234 -0.3017
 2435SOL    HW1 7625   3.557   4.645   2.034  2.0420  1.8537 -1.3283
 2435SOL    HW2 7626   3.634   4.561   1.917 -0.6070  0.7869 -2.3736
 2436SOL     OW 7627   2.885   2.256   5.541 -0.1071 -0.4231  0.1815
 2436SOL    HW1 7628   2.863   2.252   5.443 -0.2263  0.8085  0.1449
 2436SOL    HW2 7629   2.984   2.258   5.552 -0.0581 -1.7645  0.1574
 2437SOL     OW 7630   4.285   2.771   4.145 -0.4276  0.2818 -0.5841
 2437SOL    HW1 7631   4.204   2.715   4.167 -0.6584  0.5700 -0.7028
 2437SOL    HW2 7632   4.268   2.865   4.172  1.0564 -0.1882  2.3835
 2438SOL     OW 7633   4.119   5.008   2.943  0.0857  0.4147  0.0430
 2438SOL    HW1 7634   4.044   4.947   2.916  0.5619  0.7659 -2.2028
 2438SOL    HW2 7635   4.206   4.961   2.932  0.2923  0.3683  1.6461
 2439SOL     OW 7636   2.846   4.568   1.495 -0.0919  0.1245  0.3753
 2439SOL    HW1 7637   2.819   4.489   1.440  0.5888  1.2463 -1.6502
 2439SOL    HW2 7638   2.823   4.653   1.447  0.3236  1.1700  1.9272
 2440SOL     OW 7639   4.937   1.671   2.212  0.3277  0.3102 -0.0643
 2440SOL    HW1 7640   4.926   1.577   2.242 -2.5385  1.1517  1.9789
 2440SOL    HW2 7641   4.884   1.687   2.129  1.4637 -0.0250 -0.8733
 2441SOL     OW 7642   1.265   4.434   3.670 -0.0329 -0.5463  0.5682
 2441SOL    HW1 7643   1.348   4.405   3.622 -0.9571  0.0613 -1.5010
 2441SOL    HW2 7644   1.185   4.389   3.630 -0.9118  0.4738  1.1118
 2442SOL     OW 7645   4.160   1.470   3.633 -0.0792 -0.2311  0.5570
 2442SOL    HW1 7646   4.179   1.393   3.694  0.6827  1.2878  2.3454
 2442SOL    HW2 7647   4.227   1.471   3.559 -0.7922 -1.8987 -0.1654
 2443SOL     OW 7648   1.197   4.625   2.830 -0.8615  0.6593  0.6590
 2443SOL    HW1 7649   1.123   4.630   2.763 -0.7833 -1.0554  0.3968
 2443SOL    HW2 7650   1.284   4.612   2.783 -0.7561 -0.1550  1.0559
 2444SOL     OW 7651   3.927   0.252   4.796  0.1821 -0.2370 -0.4692
 2444SOL    HW1 7652   4.001   0.211   4.850 -0.4212  0.0880  0.6235
 2444SOL    HW2 7653   3.860   0.294   4.857 -0.5373  0.1190 -1.4770
 2445SOL     OW 7654   3.725   1.328   2.123  0.4251  0.3172 -0.5083
 2445SOL    HW1 7655   3.676   1.356   2.205  0.2067  0.5235 -0.7085
 2445SOL    HW2 7656   3.800   1.267   2.148 -0.4929 -0.7548 -0.2720
 2446SOL     OW 7657   0.467   4.130   5.564 -0.5472 -0.5779 -0.1640
 2446SOL    HW1 7658   0.377   4.173   5.557 -0.4478 -0.4727 -0.9430
 2446SOL    HW2 7659   0.528   4.170   5.495  0.7116  0.7961  1.6432
 2447SOL     OW 7660   4.500   4.533   2.052  0.2921 -0.2855 -0.2564
 2447SOL    HW1 7661   4.501   4.464   2.124 -1.1807 -1.3418 -1.1725
 2447SOL    HW2 7662   4.473   4.489   1.965 -1.5074  1.5708 -0.7130
 2448SOL     OW 7663   2.963   3.506   0.798 -0.1222 -0.4213 -0.4281
 2448SOL    HW1 7664   2.865   3.522   0.811 -0.0103 -0.1027  0.0326
 2448SOL    HW2 7665   2.977   3.459   0.711 -0.6230  0.2121 -0.8687
 2449SOL     OW 7666   0.096   2.212   5.357  0.1408 -0.2392 -0.2209
 2449SOL    HW1 7667   0.062   2.298   5.396  0.4326 -0.5046  0.6250
 2449SOL    HW2 7668   0.020   2.151   5.339 -0.2233  0.6481 -2.0179
 2450SOL     OW 7669   4.351   0.369   4.754  0.1997  0.4794  0.4086
 2450SOL    HW1 7670   4.389   0.286   4.794 -1.7005  0.0252  1.4308
 2450SOL    HW2 7671   4.305   0.347   4.668 -1.4569  0.1442  1.3251
 2451SOL     OW 7672   4.670   3.572   2.120  0.7991 -0.0485 -0.3750
 2451SOL    HW1 7673   4.688   3.504   2.190  0.4962 -0.5043 -0.7363
 2451SOL    HW2 7674   4.686   3.664   2.157 -0.6789 -0.2009  0.6962
 2452SOL     OW 7675   3.797   2.796   4.983  0.1149  0.2747  0.3321
 2452SOL    HW1 7676   3.860   2.862   5.025 -2.3648  2.8576  0.3277
 2452SOL    HW2 7677   3.744   2.750   5.054  0.0178  0.2682  0.2563
 2453SOL     OW 7678   0.083   3.389   4.179  0.0968 -0.0281 -0.2981
 2453SOL    HW1 7679   0.069   3.313   4.115 -0.9657 -1.4088  1.4654
 2453SOL    HW2 7680   0.067   3.476   4.131 -2.1710 -1.0519 -1.5932
 2454SOL     OW 7681   3.622   3.605   3.551 -0.1359 -0.1900  0.2658
 2454SOL    HW1 7682   3.556   3.596   3.477 -0.6778 -0.7090  0.8067
 2454SOL    HW2 7683   3.631   3.701   3.578  0.8509  0.1547 -1.1704
 2455SOL     OW 7684   4.497   2.680   1.164 -0.1948 -0.0395 -0.3008
 2455SOL    HW1 7685   4.411   2.636   1.192 -0.6201 -0.0774 -1.5940
 2455SOL    HW2 7686   4.481   2.734   1.082  0.7370  1.0792  0.2240
 2456SOL     OW 7687   0.006   2.296   2.995 -0.0799  0.2383 -0.3123
 2456SOL    HW1 7688   0.029   2.281   2.899  0.1913  0.8722 -0.3512
 2456SOL    HW2 7689   0.087   2.326   3.045 -0.1560 -0.3524  0.1747
 2457SOL     OW 7690   3.986   1.166   0.224  0.7216 -0.0107  0.7224
 2457SOL    HW1 7691   3.954   1.207   0.138  0.0807  1.5242  1.6355
 2457SOL    HW2 7692   4.067   1.111   0.207  0.6187  0.2756 -0.8583
 2458SOL     OW 7693   0.097   0.322   4.916 -0.3170 -0.6747 -0.3647
 2458SOL    HW1 7694   0.102   0.365   4.826  0.0233 -2.2532 -1.1317
 2458SOL    HW2 7695   0.174   0.259   4.928 -0.9561 -1.3174  0.5739
 2459SOL     OW 7696   0.766   5.254   5.218  0.3452  0.1111  0.0377
 2459SOL    HW1 7697   0.865   5.251   5.214  0.3791  0.4452  0.5266
 2459SOL    HW2 7698   0.728   5.179   5.163  0.8796 -0.6653  0.6984
 2460SOL     OW 7699   4.054   3.875   2.003  0.3330 -0.1631 -0.1806
 2460SOL    HW1 7700   4.077   3.881   1.906  0.9634 -1.3007 -0.1179
 2460SOL    HW2 7701   4.082   3.958   2.050 -3.3758  2.1470 -1.5929
 2461SOL     OW 7702   3.152   1.668   1.914  0.1055  0.1666  0.5918
 2461SOL    HW1 7703   3.213   1.615   1.973  0.6967  1.0903  0.8220
 2461SOL    HW2 7704   3.104   1.606   1.852  0.9397 -0.6184  0.7114
 2462SOL     OW 7705   3.902   4.338   2.407  0.8804  0.4729 -0.3522
 2462SOL    HW1 7706   3.907   4.273   2.484  0.6325 -1.0635 -1.5894
 2462SOL    HW2 7707   3.952   4.300   2.329 -0.7478  0.9775 -1.6745
 2463SOL     OW 7708   1.551   5.365   5.192 -0.4704  0.5178 -0.3826
 2463SOL    HW1 7709   1.584   5.386   5.100 -0.6688 -2.2789 -1.1762
 2463SOL    HW2 7710   1.616   5.306   5.238 -1.3680  0.1486  0.4547
 2464SOL     OW 7711   0.892   5.138   2.534  0.5843 -0.1269  0.4103
 2464SOL    HW1 7712   0.850   5.150   2.444  2.2089  1.2403 -0.2405
 2464SOL    HW2 7713   0.936   5.224   2.561  0.9291 -0.7942  2.0935
 2465SOL     OW 7714   5.517   1.480   1.061  0.4020 -0.6250 -0.9000
 2465SOL    HW1 7715   5.492   1.577   1.053 -1.7451 -0.9697  0.8779
 2465SOL    HW2 7716   5.616   1.472   1.071  0.5412  1.4571 -0.1750
 2466SOL     OW 7717   1.662   3.287   2.217  0.3522  0.0254 -0.0577
 2466SOL    HW1 7718   1.714   3.344   2.280  0.6290 -1.6126  1.2717
 2466SOL    HW2 7719   1.628   3.206   2.265 -0.6970 -0.5575 -1.6760
 2467SOL     OW 7720   0.796   4.635   5.431  0.4362 -0.4063 -0.1750
 2467SOL    HW1 7721   0.726   4.608   5.365 -1.1031 -0.0512  1.2445
 2467SOL    HW2 7722   0.779   4.728   5.463  2.5146  0.3096 -0.9485
 2468SOL     OW 7723   4.484   1.087   3.106 -0.3031 -0.0605 -0.5979
 2468SOL    HW1 7724   4.476   1.014   3.174 -0.6137  0.3850 -0.1501
 2468SOL    HW2 7725   4.531   1.052   3.025 -0.1502 -0.6644 -0.2542
 2469SOL     OW 7726   0.031   1.809   5.161  0.0407  0.3584 -0.0564
 2469SOL    HW1 7727  -0.030   1.789   5.084  0.6440  0.0501 -0.4704
 2469SOL    HW2 7728   0.122   1.774   5.140  0.5893  1.6235  0.1632
 2470SOL     OW 7729   4.918   0.354   5.214 -0.1969  0.3229  0.3396
 2470SOL    HW1 7730   4.953   0.293   5.143 -2.1101  0.6374 -0.9413
 2470SOL    HW2 7731   4.913   0.304   5.301  0.0485 -0.7598 -0.2516
 2471SOL     OW 7732   1.191   1.955   0.197  0.3801 -0.3551 -0.1488
 2471SOL    HW1 7733   1.244   2.039   0.205 -1.8586  1.0776  0.6671
 2471SOL    HW2 7734   1.237   1.881   0.247  1.5014  0.8325  0.6230
 2472SOL     OW 7735   4.526   4.103   4.406  0.3682 -0.6167 -0.5494
 2472SOL    HW1 7736   4.586   4.131   4.331  0.6983 -0.0978 -0.0987
 2472SOL    HW2 7737   4.487   4.184   4.449  0.9737 -0.8602  0.4814
 2473SOL     OW 7738   5.322   1.311   1.738 -0.1806  0.4756  0.4325
 2473SOL    HW1 7739   5.293   1.216   1.740  1.2781  0.0071  0.2079
 2473SOL    HW2 7740   5.320   1.345   1.643  2.4425 -0.3774  0.0062
 2474SOL     OW 7741   3.868   1.633   3.408  0.5719  0.2228  0.0858
 2474SOL    HW1 7742   3.949   1.656   3.354  0.6262 -2.3914 -1.1023
 2474SOL    HW2 7743   3.874   1.538   3.440 -1.5917  0.2498  0.7803
 2475SOL     OW 7744   2.209   4.114   4.463  0.4501  0.4309 -0.1662
 2475SOL    HW1 7745   2.221   4.123   4.562  0.1500  0.1203 -0.0993
 2475SOL    HW2 7746   2.298   4.114   4.419  0.5568  1.5273  0.0115
 2476SOL     OW 7747   2.285   1.892   3.459  0.5294  0.4060  0.0320
 2476SOL    HW1 7748   2.297   1.990   3.446 -0.2170  0.3205 -1.6233
 2476SOL    HW2 7749   2.232   1.875   3.542 -0.4139  1.4879 -0.3158
 2477SOL     OW 7750   2.576   5.380   3.213  0.3906 -0.3871 -0.1740
 2477SOL    HW1 7751   2.520   5.426   3.281 -0.8990 -0.5540 -1.0771
 2477SOL    HW2 7752   2.557   5.419   3.122  1.5207 -0.6589 -0.5459
 2478SOL     OW 7753   3.738   0.836   4.471 -0.2432  0.0831 -0.1299
 2478SOL    HW1 7754   3.657   0.879   4.433 -0.2987 -1.9004 -2.5117
 2478SOL    HW2 7755   3.820   0.886   4.442 -0.4859  1.0244  0.7550
 2479SOL     OW 7756   4.354   0.688   3.667 -0.1442 -0.2751  0.1948
 2479SOL    HW1 7757   4.352   0.636   3.753 -0.9047  0.8461  0.8818
 2479SOL    HW2 7758   4.433   0.750   3.667  1.1539 -1.8434 -0.9142
 2480SOL     OW 7759   4.834   1.516   3.133 -0.0111 -0.7992 -0.3581
 2480SOL    HW1 7760   4.857   1.568   3.050 -0.0350  1.2875  0.8644
 2480SOL    HW2 7761   4.913   1.460   3.160 -0.0584 -1.6297 -1.8372
 2481SOL     OW 7762   1.210   0.458   4.980 -0.6575 -0.5529 -0.9798
 2481SOL    HW1 7763   1.168   0.399   4.910 -1.6928 -1.4511  0.3352
 2481SOL    HW2 7764   1.265   0.402   5.042  1.4701  0.4446 -1.9062
 2482SOL     OW 7765   3.025   4.187   3.267 -0.0969  0.3406 -0.1323
 2482SOL    HW1 7766   3.007   4.210   3.363  0.7226  0.4492  0.0008
 2482SOL    HW2 7767   3.099   4.244   3.233 -0.2851  0.1948 -0.7926
 2483SOL     OW 7768   2.832   1.756   4.416  0.0261  0.1584 -0.4451
 2483SOL    HW1 7769   2.754   1.816   4.433  1.0398  1.1150  1.1144
 2483SOL    HW2 7770   2.885   1.790   4.339 -0.8640 -0.2918 -1.2794
 2484SOL     OW 7771   4.444   3.540   2.795  0.2235  0.3326  0.2015
 2484SOL    HW1 7772   4.422   3.635   2.818  0.7268  0.8613 -1.3920
 2484SOL    HW2 7773   4.539   3.533   2.767  0.0685 -0.5622 -0.1534
 2485SOL     OW 7774   2.858   4.205   0.043 -0.2294 -0.0363  0.0858
 2485SOL    HW1 7775   2.811   4.230   0.128  0.5394 -0.1672  0.5593
 2485SOL    HW2 7776   2.935   4.145   0.063  2.0674  2.5463 -0.2599
 2486SOL     OW 7777   4.356   0.533   0.370  0.1263 -0.3600  0.3230
 2486SOL    HW1 7778   4.305   0.583   0.300  0.9161 -0.2015 -0.1477
 2486SOL    HW2 7779   4.454   0.550   0.359  0.2529  0.0487  1.7554
 2487SOL     OW 7780   4.605   3.250   0.598  0.2202 -0.3680 -0.1826
 2487SOL    HW1 7781   4.635   3.156   0.587 -0.0415 -0.3596 -0.9791
 2487SOL    HW2 7782   4.507   3.257   0.577  0.4830  0.2852 -1.2298
 2488SOL     OW 7783   0.993   5.171   3.369 -0.1304 -0.7415 -0.1052
 2488SOL    HW1 7784   1.031   5.085   3.403 -1.5392 -1.0796  0.7434
 2488SOL    HW2 7785   0.924   5.204   3.434 -0.5765  0.3239 -1.0885
 2489SOL     OW 7786   2.426   0.646   3.291 -1.0106  0.0834 -0.5917
 2489SOL    HW1 7787   2.349   0.605   3.241 -1.6539 -0.3205  0.6917
 2489SOL    HW2 7788   2.408   0.642   3.389 -0.1761  1.6664 -0.3389
 2490SOL     OW 7789   1.121   0.346   3.718 -0.1938  0.6032 -0.0582
 2490SOL    HW1 7790   1.137   0.371   3.623 -2.5379 -0.2287 -0.7321
 2490SOL    HW2 7791   1.058   0.269   3.723  1.0757 -0.3966  2.1602
 2491SOL     OW 7792   4.798   1.863   3.242  0.7932 -0.2035  0.0896
 2491SOL    HW1 7793   4.869   1.865   3.312  0.0186 -0.0409  0.8939
 2491SOL    HW2 7794   4.761   1.770   3.234 -0.0277  0.0379  0.8624
 2492SOL     OW 7795   5.062   0.145   3.844  0.2749 -0.6932 -0.3120
 2492SOL    HW1 7796   5.030   0.237   3.824 -1.0615 -1.2372 -0.7724
 2492SOL    HW2 7797   4.991   0.079   3.820  2.3780 -2.1402 -3.2475
 2493SOL     OW 7798   2.345   5.157   2.395 -0.1682 -0.1689  0.3602
 2493SOL    HW1 7799   2.299   5.185   2.480  1.2530  1.5145  0.6107
 2493SOL    HW2 7800   2.335   5.229   2.326  0.0208 -0.8572 -0.4040
 2494SOL     OW 7801   2.916   4.284   2.844  0.1620  0.0305 -0.3737
 2494SOL    HW1 7802   2.861   4.201   2.859 -0.5402  0.4569 -0.5435
 2494SOL    HW2 7803   3.013   4.260   2.846 -0.0479 -1.0576 -1.8658
 2495SOL     OW 7804   0.421   0.264   0.946  0.7103  0.3121  0.4743
 2495SOL    HW1 7805   0.386   0.179   0.985 -2.0407  0.5223 -1.2644
 2495SOL    HW2 7806   0.440   0.251   0.849  0.6071  1.5801  0.2641
 2496SOL     OW 7807   0.694   3.400   0.521  0.0444 -0.0080 -0.4509
 2496SOL    HW1 7808   0.765   3.453   0.475 -0.8822  0.9920 -0.7860
 2496SOL    HW2 7809   0.610   3.454   0.525  0.1999  0.2190  2.9515
 2497SOL     OW 7810   4.096   2.320   2.166  0.5609  0.1723  0.2603
 2497SOL    HW1 7811   4.184   2.342   2.123  1.0464 -1.6607  0.2217
 2497SOL    HW2 7812   4.113   2.275   2.254 -0.3579  0.1284  0.4179
 2498SOL     OW 7813   2.696   3.930   1.436  0.0345  0.2158  0.0703
 2498SOL    HW1 7814   2.710   3.831   1.433  0.4702  0.2467  0.7663
 2498SOL    HW2 7815   2.766   3.971   1.495  0.2795  1.0220 -0.7602
 2499SOL     OW 7816   3.887   0.111   1.843 -0.0164 -0.3169  0.1351
 2499SOL    HW1 7817   3.922   0.121   1.936 -0.2111  0.6850  0.1098
 2499SOL    HW2 7818   3.950   0.155   1.779 -0.6435  0.3245 -0.0479
 2500SOL     OW 7819   1.952   1.490   2.923  0.0988  0.3078 -0.1922
 2500SOL    HW1 7820   1.957   1.399   2.881 -2.5767  0.0354 -0.1076
 2500SOL    HW2 7821   1.931   1.481   3.020  0.5285  1.0237 -0.0274
 2501SOL     OW 7822   3.216   2.713   4.431  0.2564  0.3126  0.0908
 2501SOL    HW1 7823   3.258   2.780   4.369  1.0919 -0.7124 -0.4718
 2501SOL    HW2 7824   3.211   2.624   4.386 -0.1583 -0.1952  1.1050
 2502SOL     OW 7825   1.792   2.934   3.704 -0.3974 -0.1548  0.8169
 2502SOL    HW1 7826   1.808   2.965   3.797  1.1958  2.0252 -0.0984
 2502SOL    HW2 7827   1.855   2.980   3.641  0.4244 -3.4544 -1.0872
 2503SOL     OW 7828   3.788   1.911   3.211  0.2718  0.4000  0.3666
 2503SOL    HW1 7829   3.735   1.952   3.286  0.8839  0.0635  0.9943
 2503SOL    HW2 7830   3.861   1.854   3.249  0.4726  0.0704 -0.4936
 2504SOL     OW 7831   1.526   5.102   3.195 -0.2186  0.2219 -0.0633
 2504SOL    HW1 7832   1.445   5.151   3.227 -0.2701 -0.0409  0.2082
 2504SOL    HW2 7833   1.515   5.079   3.098 -0.7360 -0.3564  0.1295
 2505SOL     OW 7834   1.081   5.022   2.217  0.2066 -0.4886  0.2712
 2505SOL    HW1 7835   0.991   5.047   2.253  0.1179 -0.8732  0.3180
 2505SOL    HW2 7836   1.152   5.065   2.272  0.0485  0.2799 -0.1049
 2506SOL     OW 7837   2.834   0.637   4.896 -0.0731  0.0719  0.4351
 2506SOL    HW1 7838   2.804   0.543   4.884 -0.2322  0.2562 -0.7383
 2506SOL    HW2 7839   2.763   0.690   4.942 -0.6348 -0.0231 -0.3068
 2507SOL     OW 7840   0.818   1.890   4.063 -0.0635 -0.0000  0.0585
 2507SOL    HW1 7841   0.739   1.846   4.020 -0.9177  0.4479  1.1164
 2507SOL    HW2 7842   0.887   1.912   3.994 -0.0789 -2.0031 -0.6350
 2508SOL     OW 7843   4.793   0.137   0.194 -0.1965  0.7594  0.4249
 2508SOL    HW1 7844   4.869   0.192   0.229  0.4214  1.2433 -1.5161
 2508SOL    HW2 7845   4.830   0.062   0.138 -1.1265  1.7937 -1.6768
 2509SOL     OW 7846   4.849   4.218   3.689 -0.1504 -0.4147  0.1517
 2509SOL    HW1 7847   4.834   4.249   3.595 -2.3554  0.7882  0.8133
 2509SOL    HW2 7848   4.899   4.288   3.739  1.6329 -1.3541 -0.2622
 2510SOL     OW 7849   3.317   3.632   4.583  0.2609 -0.3352 -0.2323
 2510SOL    HW1 7850   3.352   3.597   4.496 -0.4319 -1.0816 -0.2127
 2510SOL    HW2 7851   3.394   3.649   4.645  1.0501  2.5168 -1.7669
 2511SOL     OW 7852   0.218   5.389   1.579  0.0626  0.0213 -0.5185
 2511SOL    HW1 7853   0.305   5.413   1.535 -0.3156  0.8999 -0.8166
 2511SOL    HW2 7854   0.154   5.466   1.569  0.1194  0.4740  2.0053
 2512SOL     OW 7855   3.547   2.328   3.096  0.0747 -0.9334 -0.2788
 2512SOL    HW1 7856   3.553   2.253   3.031  0.4982 -1.4662  0.3661
 2512SOL    HW2 7857   3.506   2.295   3.181  0.7463 -0.5596  0.1940
 2513SOL     OW 7858   2.825   1.533   3.196  0.1980  0.2094 -0.2713
 2513SOL    HW1 7859   2.872   1.581   3.270 -0.2114 -2.4476  1.8946
 2513SOL    HW2 7860   2.727   1.527   3.217  0.0056 -0.2251 -1.2456
 2514SOL     OW 7861   2.251   1.034   4.183 -0.4416  0.1048 -0.6431
 2514SOL    HW1 7862   2.254   1.004   4.088  1.9312 -1.3401 -0.1970
 2514SOL    HW2 7863   2.202   0.966   4.238  0.5871 -0.4900 -0.4315
 2515SOL     OW 7864   3.231   4.489   2.158  0.5254  0.3885 -0.1904
 2515SOL    HW1 7865   3.137   4.521   2.144  0.1619 -0.9744 -1.0558
 2515SOL    HW2 7866   3.249   4.484   2.256 -0.2173  0.9114 -0.0140
 2516SOL     OW 7867   4.097   4.120   5.393 -0.1732  0.3607 -0.3911
 2516SOL    HW1 7868   4.138   4.102   5.483  0.1679 -0.6079 -0.7329
 2516SOL    HW2 7869   4.046   4.206   5.397 -1.8672 -0.6666  1.3135
 2517SOL     OW 7870   0.347   2.129   3.981 -0.4161  0.1246 -0.0193
 2517SOL    HW1 7871   0.335   2.111   4.079 -0.2421 -1.5404 -0.2776
 2517SOL    HW2 7872   0.267   2.094   3.931  0.8419 -1.9136 -0.7442
 2518SOL     OW 7873   1.022   2.737   4.251 -0.3650  0.0299 -0.2250
 2518SOL    HW1 7874   0.942   2.779   4.293 -1.3458 -0.6925 -1.3306
 2518SOL    HW2 7875   1.009   2.639   4.244  1.6656 -0.4885  1.7960
 2519SOL     OW 7876   4.661   1.787   0.272 -0.0808  0.2121  0.1161
 2519SOL    HW1 7877   4.581   1.782   0.333 -0.2343  1.5793  0.0642
 2519SOL    HW2 7878   4.661   1.708   0.211 -0.9498 -0.2241  0.6488
 2520SOL     OW 7879   1.565   3.095   1.472  0.0114 -0.2501  0.5048
 2520SOL    HW1 7880   1.520   3.107   1.383  0.3162 -0.4569  0.3228
 2520SOL    HW2 7881   1.499   3.116   1.545 -0.2377 -0.0713  0.2327
 2521SOL     OW 7882   5.370   1.486   4.914 -0.8432 -0.2679 -0.0036
 2521SOL    HW1 7883   5.435   1.495   4.838  0.2340 -0.9206  0.8202
 2521SOL    HW2 7884   5.397   1.409   4.972 -0.7727  1.1398  1.9028
 2522SOL     OW 7885   5.118   3.389   3.436  0.3736 -0.4542  0.2937
 2522SOL    HW1 7886   5.187   3.317   3.436 -1.4566 -2.2990 -0.8923
 2522SOL    HW2 7887   5.052   3.373   3.509 -1.5312 -1.5639 -1.5786
 2523SOL     OW 7888   1.269   2.069   5.165  0.3170  0.0886 -0.4428
 2523SOL    HW1 7889   1.284   2.166   5.178 -0.3050  0.4183 -1.9055
 2523SOL    HW2 7890   1.297   2.043   5.072  0.9358 -1.2362  0.0835
 2524SOL     OW 7891   4.091   1.789   3.283  0.0169  0.9049 -0.5121
 2524SOL    HW1 7892   4.115   1.781   3.380 -0.8199  2.0529 -0.1868
 2524SOL    HW2 7893   4.169   1.826   3.233  0.3501  0.6078 -0.2212
 2525SOL     OW 7894   5.571   1.333   2.410  0.5226 -0.4943  0.5979
 2525SOL    HW1 7895   5.518   1.345   2.494  0.8007  0.2412  0.6765
 2525SOL    HW2 7896   5.510   1.340   2.331 -0.1744 -3.5352  0.7491
 2526SOL     OW 7897   3.570   5.379   2.286  0.1492 -0.0502  0.0077
 2526SOL    HW1 7898   3.655   5.337   2.318  1.1060 -0.2438 -2.5230
 2526SOL    HW2 7899   3.494   5.317   2.300  1.0922 -1.5527 -1.1703
 2527SOL     OW 7900   3.251   4.585   4.407 -0.0758  0.0596  0.3481
 2527SOL    HW1 7901   3.276   4.598   4.503 -0.0879  1.6258  0.1606
 2527SOL    HW2 7902   3.298   4.504   4.372  0.5123 -0.1094  1.4708
 2528SOL     OW 7903   3.457   1.751   5.086 -0.2802 -0.1862  0.2699
 2528SOL    HW1 7904   3.419   1.659   5.094 -0.7294 -0.1896 -1.4901
 2528SOL    HW2 7905   3.385   1.814   5.056  0.2745  0.5331  0.4309
 2529SOL     OW 7906   1.770   4.220   3.596  0.3109 -0.7518  0.2340
 2529SOL    HW1 7907   1.829   4.224   3.515 -0.8739 -0.7329 -0.6691
 2529SOL    HW2 7908   1.823   4.245   3.677  1.8161 -1.8821 -0.3504
 2530SOL     OW 7909   4.030   5.406   3.189  0.0193 -0.0582 -0.7160
 2530SOL    HW1 7910   4.070   5.459   3.115 -0.0196  1.0642  0.0417
 2530SOL    HW2 7911   3.946   5.363   3.157 -0.7540  1.5474 -0.9684
 2531SOL     OW 7912   2.279   0.455   2.585  0.0325  0.7394  0.0518
 2531SOL    HW1 7913   2.208   0.421   2.524  1.1205  0.8960 -1.3460
 2531SOL    HW2 7914   2.248   0.447   2.680 -0.5075 -2.4436 -0.2771
 2532SOL     OW 7915   1.743   1.937   0.257 -0.4501  0.4136 -0.3974
 2532SOL    HW1 7916   1.689   2.011   0.217  0.1899  0.6122 -0.9086
 2532SOL    HW2 7917   1.759   1.866   0.189  0.1466  0.4760 -0.3292
 2533SOL     OW 7918   3.682   0.634   3.305 -0.2714 -0.1264  0.7392
 2533SOL    HW1 7919   3.713   0.541   3.286  0.4071  0.2793 -0.2027
 2533SOL    HW2 7920   3.607   0.632   3.372  0.6645 -1.2440  1.7923
 2534SOL     OW 7921   2.767   0.437   4.346 -0.0255  0.4353 -0.2859
 2534SOL    HW1 7922   2.711   0.517   4.366  1.1274  1.1758  0.0739
 2534SOL    HW2 7923   2.844   0.434   4.410 -0.2613 -1.1864 -0.0387
 2535SOL     OW 7924   0.653   2.496   3.273 -0.3713 -0.5865  0.2494
 2535SOL    HW1 7925   0.704   2.568   3.320  1.1103 -0.7277 -1.0675
 2535SOL    HW2 7926   0.555   2.517   3.275 -0.1176  0.5679  1.3581
 2536SOL     OW 7927   3.559   4.281   0.979  0.0960  0.0334 -0.7393
 2536SOL    HW1 7928   3.505   4.200   1.003 -1.5255  0.4746 -2.6450
 2536SOL    HW2 7929   3.632   4.292   1.046 -0.1700 -2.4688  0.0996
 2537SOL     OW 7930   4.243   0.370   1.102 -0.2723  0.5884 -0.2108
 2537SOL    HW1 7931   4.184   0.428   1.045 -1.5116 -0.3536  0.0641
 2537SOL    HW2 7932   4.216   0.380   1.198 -0.8190 -0.7523 -0.1982
 2538SOL     OW 7933   2.123   0.091   0.490 -0.8144  0.1274  0.0553
 2538SOL    HW1 7934   2.105   0.018   0.556 -3.0762  1.5073  1.0854
 2538SOL    HW2 7935   2.036   0.128   0.456  0.2722  0.5082 -2.5892
 2539SOL     OW 7936   1.830   4.414   3.026  0.2773  0.0221  0.5670
 2539SOL    HW1 7937   1.916   4.364   3.011  0.2218 -0.1605  0.8426
 2539SOL    HW2 7938   1.758   4.348   3.050  0.1455  0.2100  0.6876
 2540SOL     OW 7939   4.786   5.126   3.666 -0.0914  0.0934 -0.0412
 2540SOL    HW1 7940   4.737   5.045   3.697 -0.5961 -0.0454 -1.1292
 2540SOL    HW2 7941   4.821   5.177   3.745  0.5029 -1.3307  0.6488
 2541SOL     OW 7942   0.801   4.915   0.211  0.1351  0.1670 -0.0396
 2541SOL    HW1 7943   0.872   4.919   0.282 -0.6959  0.2607  0.8155
 2541SOL    HW2 7944   0.792   4.821   0.178  1.3666  0.3364 -0.9203
 2542SOL     OW 7945   3.915   3.184   1.983 -0.0792  0.2080 -0.5758
 2542SOL    HW1 7946   3.975   3.259   1.955 -0.8185 -0.1392 -3.4165
 2542SOL    HW2 7947   3.879   3.139   1.902 -1.2202 -1.9997  1.0608
 2543SOL     OW 7948   0.691   3.522   4.619  0.8404  0.2255  0.0852
 2543SOL    HW1 7949   0.664   3.442   4.564  1.1258  0.5146 -0.4763
 2543SOL    HW2 7950   0.759   3.575   4.570 -0.0576  1.3566  0.0286
 2544SOL     OW 7951   0.882   5.384   2.068  0.5402  0.0471 -0.4367
 2544SOL    HW1 7952   0.805   5.434   2.027 -0.2404  1.0058  1.9720
 2544SOL    HW2 7953   0.964   5.441   2.064  0.4186  0.2204 -0.5017
 2545SOL     OW 7954   2.659   2.075   1.494 -0.0605 -0.8610  0.3285
 2545SOL    HW1 7955   2.624   2.006   1.430  0.8114 -1.7413  0.7735
 2545SOL    HW2 7956   2.615   2.163   1.475 -1.0924 -1.4990 -0.3424
 2546SOL     OW 7957   0.602   2.775   2.096 -0.0859 -0.2591 -0.0254
 2546SOL    HW1 7958   0.620   2.678   2.111 -2.6168 -0.6784  0.8196
 2546SOL    HW2 7959   0.677   2.816   2.045 -0.1817 -3.3147 -2.9410
 2547SOL     OW 7960   4.475   1.803   3.983 -0.1200  0.1173  0.2486
 2547SOL    HW1 7961   4.403   1.833   4.046 -2.2222  0.8820 -2.3081
 2547SOL    HW2 7962   4.493   1.706   3.998 -0.2794  0.3425  2.2097
 2548SOL     OW 7963   1.583   2.615   1.272 -0.1203 -0.1875 -0.1167
 2548SOL    HW1 7964   1.527   2.696   1.289 -0.1927 -0.0293 -1.0428
 2548SOL    HW2 7965   1.569   2.549   1.346 -1.5614 -0.1627 -0.3308
 2549SOL     OW 7966   5.007   4.730   2.845 -0.4373 -0.0018 -0.0212
 2549SOL    HW1 7967   4.919   4.777   2.852  0.2018  1.3859 -0.8388
 2549SOL    HW2 7968   5.029   4.688   2.933 -2.1503 -0.8368  0.0420
 2550SOL     OW 7969   5.137   1.243   4.941  0.1025  0.4826  0.2392
 2550SOL    HW1 7970   5.202   1.269   5.013 -1.0654 -1.6921  2.2338
 2550SOL    HW2 7971   5.186   1.199   4.866  1.3250  2.5984 -0.2758
 2551SOL     OW 7972   4.642   4.451   3.069 -0.0962 -0.0240  0.0085
 2551SOL    HW1 7973   4.682   4.390   3.137 -0.5168 -0.7761 -0.4052
 2551SOL    HW2 7974   4.675   4.544   3.084  1.2285 -0.4886  0.1304
 2552SOL     OW 7975   0.032   4.352   3.692 -0.0637  0.4008  0.5682
 2552SOL    HW1 7976   0.079   4.356   3.604  0.7187 -0.5836  0.9314
 2552SOL    HW2 7977   0.078   4.287   3.752 -1.6748 -0.3383  1.0622
 2553SOL     OW 7978   5.407   2.861   2.448 -0.2832  0.0253 -0.7622
 2553SOL    HW1 7979   5.482   2.892   2.506 -0.1981  0.3662 -1.0546
 2553SOL    HW2 7980   5.378   2.770   2.478  1.2875 -0.7994 -1.6069
 2554SOL     OW 7981   2.935   1.507   2.435  0.8521  0.2692  0.3076
 2554SOL    HW1 7982   2.896   1.420   2.465  0.0268 -0.1504 -1.7787
 2554SOL    HW2 7983   3.021   1.490   2.387  0.0864  0.4081 -1.1897
 2555SOL     OW 7984   0.408   5.168   0.045 -0.2132 -0.6484 -0.6012
 2555SOL    HW1 7985   0.469   5.244   0.028 -1.3011  0.5338  0.5293
 2555SOL    HW2 7986   0.440   5.117   0.125 -1.2359  0.6391  0.6873
 2556SOL     OW 7987   4.937   4.911   0.426  0.4197  0.8468  0.3723
 2556SOL    HW1 7988   4.943   4.847   0.349 -0.9662  1.5454 -0.3505
 2556SOL    HW2 7989   4.896   4.864   0.505 -1.4287  1.0147 -0.4287
 2557SOL     OW 7990   4.850   4.499   0.332  0.1886 -0.2358  0.1415
 2557SOL    HW1 7991   4.812   4.551   0.408  1.0938  0.2926  0.2472
 2557SOL    HW2 7992   4.788   4.504   0.253  0.6899  1.8034 -0.1638
 2558SOL     OW 7993   2.429   4.083   2.029 -0.3937 -0.8503 -0.1198
 2558SOL    HW1 7994   2.486   4.098   1.948 -0.7710  0.4838 -0.1537
 2558SOL    HW2 7995   2.344   4.037   2.002  0.7184 -3.1362 -0.0270
 2559SOL     OW 7996   2.579   2.383   5.392 -0.1419 -0.1587  0.5398
 2559SOL    HW1 7997   2.641   2.312   5.359  0.2028  0.6339 -0.5947
 2559SOL    HW2 7998   2.486   2.361   5.364 -0.1583 -0.5767  0.9129
 2560SOL     OW 7999   4.271   3.446   3.567 -0.7661 -0.8958  0.4785
 2560SOL    HW1 8000   4.188   3.406   3.529 -1.1788 -0.2754  0.7258
 2560SOL    HW2 8001   4.351   3.399   3.528 -1.2361 -2.1822  1.0042
 2561SOL     OW 8002   4.040   5.312   2.585  0.7468 -0.3571  0.1551
 2561SOL    HW1 8003   4.041   5.270   2.676  1.7925  0.3547  0.4926
 2561SOL    HW2 8004   4.088   5.251   2.521  0.6741 -0.5082  0.2433
 2562SOL     OW 8005   2.950   0.943   0.987  0.9171  0.2789  0.2540
 2562SOL    HW1 8006   3.042   0.977   0.966  0.7832 -0.0692 -0.9666
 2562SOL    HW2 8007   2.892   0.951   0.905  0.0372 -0.0950  0.8271
 2563SOL     OW 8008   5.533   0.147   0.089  0.1217 -0.5310  0.0851
 2563SOL    HW1 8009   5.625   0.115   0.067 -0.1081  0.4422 -2.6293
 2563SOL    HW2 8010   5.467   0.104   0.028 -0.6263  2.0584 -1.0915
 2564SOL     OW 8011   4.207   1.219   4.870  0.0356  0.3289  0.1853
 2564SOL    HW1 8012   4.135   1.203   4.802  1.0647  1.0735 -1.1430
 2564SOL    HW2 8013   4.167   1.216   4.962 -1.4120 -0.6701 -0.4308
 2565SOL     OW 8014   1.313   5.041   1.010 -0.1350  0.1844 -0.5619
 2565SOL    HW1 8015   1.275   5.027   0.918 -1.4442  0.1603 -0.0462
 2565SOL    HW2 8016   1.303   5.137   1.035 -0.3923  0.0606 -0.1869
 2566SOL     OW 8017   4.956   4.642   5.522  0.2355  0.1292  0.2907
 2566SOL    HW1 8018   4.995   4.715   5.467 -1.3471 -0.0503 -1.1654
 2566SOL    HW2 8019   4.869   4.613   5.482  1.2527 -3.2257  0.2248
 2567SOL     OW 8020   1.311   1.826   1.522  0.1835  0.6410 -0.4222
 2567SOL    HW1 8021   1.245   1.871   1.582  1.4825  0.2603  1.3896
 2567SOL    HW2 8022   1.403   1.837   1.560  0.8642 -1.0239 -1.4800
 2568SOL     OW 8023   4.466   4.063   2.519 -0.0802  0.3601 -0.1604
 2568SOL    HW1 8024   4.511   3.987   2.566 -0.6916 -0.4356 -0.8348
 2568SOL    HW2 8025   4.457   4.042   2.422  1.0394  1.9237 -0.6492
 2569SOL     OW 8026   1.670   1.639   3.016 -0.0050 -0.1881  0.0411
 2569SOL    HW1 8027   1.669   1.610   2.920  1.2338 -0.5875  0.1222
 2569SOL    HW2 8028   1.673   1.738   3.022 -1.1968 -0.1188 -0.3021
 2570SOL     OW 8029   5.498   5.436   3.955  0.3078  0.6644 -0.0428
 2570SOL    HW1 8030   5.555   5.511   3.987  0.9803 -0.1196  0.6441
 2570SOL    HW2 8031   5.493   5.365   4.025 -2.0502  0.9773  0.1762
 2571SOL     OW 8032   4.151   1.159   4.063  0.2493 -0.1294  0.2710
 2571SOL    HW1 8033   4.180   1.082   4.006  1.0505 -0.5097  1.1458
 2571SOL    HW2 8034   4.058   1.144   4.095  0.4964 -0.8975  0.6654
 2572SOL     OW 8035   3.405   3.669   2.459  0.5046 -0.0250 -0.0529
 2572SOL    HW1 8036   3.431   3.584   2.415  1.9179 -0.9542  2.3958
 2572SOL    HW2 8037   3.306   3.681   2.454  0.4436 -0.9583 -1.7970
 2573SOL     OW 8038   3.408   4.403   4.233 -0.2789  0.6108 -0.6169
 2573SOL    HW1 8039   3.504   4.430   4.234 -0.6285  2.0295  1.4268
 2573SOL    HW2 8040   3.398   4.315   4.279  0.1248 -0.0067 -1.6774
 2574SOL     OW 8041   0.450   3.816   3.933  0.4990  0.0682  0.2530
 2574SOL    HW1 8042   0.502   3.730   3.935  0.7958  0.2039 -0.8729
 2574SOL    HW2 8043   0.377   3.813   4.001  1.0336 -0.7357  0.8056
 2575SOL     OW 8044   3.415   4.403   1.649 -0.4943 -0.2164 -0.2133
 2575SOL    HW1 8045   3.352   4.353   1.590 -2.2879 -0.1405  1.5180
 2575SOL    HW2 8046   3.379   4.495   1.665  0.0528 -0.1624  0.7968
 2576SOL     OW 8047   3.810   3.011   1.299 -0.4507 -0.5445 -0.1468
 2576SOL    HW1 8048   3.744   3.039   1.369  1.8670  0.0843  1.9507
 2576SOL    HW2 8049   3.842   3.091   1.249 -0.7876 -0.7531 -0.6981
 2577SOL     OW 8050   4.346   1.472   1.818  0.3839 -0.1232 -0.5762
 2577SOL    HW1 8051   4.421   1.530   1.788  0.5303  0.3184  0.6160
 2577SOL    HW2 8052   4.264   1.527   1.831  0.2389 -0.3618 -0.4648
 2578SOL     OW 8053   1.399   4.987   0.053 -0.5172 -0.4209  0.0228
 2578SOL    HW1 8054   1.451   4.902   0.044  0.0168 -0.4299  2.5030
 2578SOL    HW2 8055   1.461   5.060   0.083 -1.3457  0.3714 -0.1670
 2579SOL     OW 8056   2.336   3.705   1.051  0.3343 -0.1184 -0.1045
 2579SOL    HW1 8057   2.356   3.742   0.960  0.0017  1.5490  0.4561
 2579SOL    HW2 8058   2.237   3.695   1.061  0.4272 -1.5214 -0.3476
 2580SOL     OW 8059   1.049   4.432   0.474 -0.2593  0.1914  0.1354
 2580SOL    HW1 8060   1.066   4.356   0.537  1.1715 -0.0304 -0.4929
 2580SOL    HW2 8061   0.980   4.404   0.407 -2.4798  0.7260  2.0623
 2581SOL     OW 8062   3.216   3.489   3.516  0.0444  0.0701 -0.6363
 2581SOL    HW1 8063   3.272   3.480   3.598 -1.2039 -2.4028  0.0077
 2581SOL    HW2 8064   3.124   3.519   3.541  0.2304  1.4334 -1.4208
 2582SOL     OW 8065   5.234   0.946   5.308  0.0067 -1.0552  0.5036
 2582SOL    HW1 8066   5.307   0.935   5.376 -0.1851 -0.7772  0.7556
 2582SOL    HW2 8067   5.252   0.886   5.230  0.5443 -0.9379  0.5314
 2583SOL     OW 8068   3.265   1.633   2.519 -0.7324  0.5019  0.1271
 2583SOL    HW1 8069   3.361   1.609   2.534 -1.3851 -1.7248  1.1324
 2583SOL    HW2 8070   3.226   1.669   2.604 -0.6105  2.2408 -0.5116
 2584SOL     OW 8071   3.247   4.961   2.190  0.0911 -0.0449  0.1084
 2584SOL    HW1 8072   3.323   4.918   2.141 -0.7444 -2.7912  1.0159
 2584SOL    HW2 8073   3.161   4.936   2.145 -0.6981 -2.5908  2.7346
 2585SOL     OW 8074   1.253   1.497   2.981  0.3894  1.2105  0.4152
 2585SOL    HW1 8075   1.347   1.465   2.986 -0.7589 -2.5810  0.9806
 2585SOL    HW2 8076   1.241   1.555   2.901  2.2293 -2.2935 -2.7203
 2586SOL     OW 8077   1.789   2.853   2.047 -0.0055 -0.7698  0.0690
 2586SOL    HW1 8078   1.761   2.928   1.986 -1.4632 -1.1517  0.2363
 2586SOL    HW2 8079   1.794   2.768   1.995  0.0083 -0.8587  0.2165
 2587SOL     OW 8080   3.635   2.930   5.501  0.0207  0.5029  0.1278
 2587SOL    HW1 8081   3.537   2.912   5.487  0.7317 -3.5070 -1.1820
 2587SOL    HW2 8082   3.659   2.912   5.596 -0.3099 -0.0542  0.1139
 2588SOL     OW 8083   4.591   3.081   5.355  0.4763  0.3938  0.2616
 2588SOL    HW1 8084   4.605   3.136   5.273  0.0822  1.5142  0.9216
 2588SOL    HW2 8085   4.622   2.987   5.339 -0.6774  0.2750 -1.5548
 2589SOL     OW 8086   0.593   2.196   3.158  0.1376  0.6510 -0.4884
 2589SOL    HW1 8087   0.643   2.275   3.195  0.2072 -0.0048  0.8429
 2589SOL    HW2 8088   0.518   2.172   3.219 -1.6198  1.3532 -2.2424
 2590SOL     OW 8089   4.219   0.619   0.153  0.3644  0.4295  0.1144
 2590SOL    HW1 8090   4.296   0.627   0.091  1.1062  0.5558  1.0327
 2590SOL    HW2 8091   4.150   0.688   0.129  1.1684  1.2722  0.1715
 2591SOL     OW 8092   5.031   0.211   3.468  0.3129  0.1578 -0.4963
 2591SOL    HW1 8093   5.098   0.280   3.496  0.2200  0.3148 -0.6568
 2591SOL    HW2 8094   5.019   0.215   3.369  0.6217 -0.3749 -0.5615
 2592SOL     OW 8095   2.875   2.547   0.090 -0.5173  0.3431 -0.2253
 2592SOL    HW1 8096   2.971   2.572   0.103 -0.7694  1.2096  0.0467
 2592SOL    HW2 8097   2.869   2.454   0.055  0.3645 -0.2671  1.1705
 2593SOL     OW 8098   1.998   4.100   5.062 -0.1035 -0.0055  0.0630
 2593SOL    HW1 8099   2.097   4.104   5.047 -0.1388  0.7500  0.0159
 2593SOL    HW2 8100   1.975   4.014   5.108  0.9321  0.9850  2.6463
 2594SOL     OW 8101   0.389   4.229   0.427  0.1551  0.1192 -0.0075
 2594SOL    HW1 8102   0.391   4.236   0.328  1.4537 -2.6743 -0.2662
 2594SOL    HW2 8103   0.396   4.320   0.467  2.5477  1.1392 -2.4626
 2595SOL     OW 8104   3.547   0.097   3.967  0.0785 -0.5995  0.5681
 2595SOL    HW1 8105   3.519   0.005   3.942 -0.2725 -0.3666  0.0881
 2595SOL    HW2 8106   3.468   0.157   3.970  0.3440 -0.2423  0.5529
 2596SOL     OW 8107   2.207   1.180   0.854 -0.6347  0.2939 -0.3141
 2596SOL    HW1 8108   2.215   1.273   0.819 -0.4770 -0.6403 -3.0073
 2596SOL    HW2 8109   2.116   1.144   0.834 -0.2640 -0.5788 -0.5027
 2597SOL     OW 8110   5.233   4.100   3.607 -0.4697  0.1101 -0.3397
 2597SOL    HW1 8111   5.191   4.072   3.521  0.5812  1.0862 -1.2112
 2597SOL    HW2 8112   5.323   4.057   3.615 -0.5098  0.1219  0.2180
 2598SOL     OW 8113   4.481   2.612   0.309 -0.1699 -0.1390  0.6768
 2598SOL    HW1 8114   4.466   2.514   0.307  2.0464 -0.5444  1.3220
 2598SOL    HW2 8115   4.435   2.652   0.389  0.3300 -0.9372  1.3778
 2599SOL     OW 8116   4.107   0.565   0.925 -0.1150 -0.2733 -0.5573
 2599SOL    HW1 8117   4.115   0.657   0.888  1.2659  0.4889  1.4621
 2599SOL    HW2 8118   4.014   0.550   0.957 -0.6335 -0.0142 -1.8641
 2600SOL     OW 8119   3.626   4.826   2.124 -0.3690  0.0995  0.0468
 2600SOL    HW1 8120   3.720   4.791   2.125 -0.7603 -1.0080  1.5668
 2600SOL    HW2 8121   3.613   4.885   2.045  2.8815  3.7861  1.8956
 2601SOL     OW 8122   5.357   5.030   2.470 -0.0821 -0.2243  0.2446
 2601SOL    HW1 8123   5.454   5.042   2.493 -0.0063  2.3242 -1.0506
 2601SOL    HW2 8124   5.302   5.098   2.519 -0.9331 -0.2841 -0.5995
 2602SOL     OW 8125   4.332   3.046   4.069  0.1214 -0.2073 -0.0518
 2602SOL    HW1 8126   4.399   3.066   4.140 -1.9084  0.9491  1.6713
 2602SOL    HW2 8127   4.342   3.111   3.994  1.0694 -0.2139  0.0636
 2603SOL     OW 8128   4.041   2.130   1.974  1.1943 -0.0269  0.2614
 2603SOL    HW1 8129   4.066   2.036   1.997 -0.5286 -0.2513  1.4259
 2603SOL    HW2 8130   4.066   2.190   2.049 -0.7911 -0.1280  1.0643
 2604SOL     OW 8131   1.883   2.704   4.472 -0.0443 -0.0591 -0.1562
 2604SOL    HW1 8132   1.955   2.634   4.477 -0.0916 -0.2265 -1.4053
 2604SOL    HW2 8133   1.905   2.769   4.399 -0.8887  0.2100 -0.1821
 2605SOL     OW 8134   3.311   4.904   4.694  0.2000 -0.0890  0.5600
 2605SOL    HW1 8135   3.238   4.949   4.644  0.0276  0.1053  0.9775
 2605SOL    HW2 8136   3.396   4.910   4.643  0.3503  1.3569  0.9422
 2606SOL     OW 8137   4.359   0.065   1.356 -0.2666  0.0621 -0.1731
 2606SOL    HW1 8138   4.340   0.127   1.432 -0.9914 -0.8876  0.4356
 2606SOL    HW2 8139   4.320  -0.024   1.375 -0.8181 -0.0872 -1.8514
 2607SOL     OW 8140   2.023   1.958   4.085 -0.1875  0.3010  0.8184
 2607SOL    HW1 8141   1.994   2.052   4.101 -0.8049  0.0779  1.0444
 2607SOL    HW2 8142   2.100   1.957   4.022 -1.3433  0.8525 -0.6609
 2608SOL     OW 8143   0.742   1.396   0.166 -0.2951  0.4001 -0.2282
 2608SOL    HW1 8144   0.704   1.479   0.207 -0.5361  0.0619  0.2547
 2608SOL    HW2 8145   0.818   1.419   0.106 -1.0997  1.0713 -1.0139
 2609SOL     OW 8146   4.038   4.843   3.407  0.7264 -0.5529  0.2383
 2609SOL    HW1 8147   3.966   4.826   3.339 -0.7271 -1.5650  1.9608
 2609SOL    HW2 8148   4.047   4.764   3.467  2.0328  0.2774  1.1963
 2610SOL     OW 8149   2.817   1.509   5.371  0.3311  0.3159 -0.2729
 2610SOL    HW1 8150   2.770   1.483   5.456  1.4005 -0.1583  0.1850
 2610SOL    HW2 8151   2.790   1.602   5.346  0.2027  0.5609  0.7256
 2611SOL     OW 8152   1.111   4.877   3.906 -0.2544 -0.4176  0.3692
 2611SOL    HW1 8153   1.087   4.878   4.003 -2.0600  0.7552 -0.0446
 2611SOL    HW2 8154   1.165   4.795   3.886 -0.3851 -1.0031  2.2265
 2612SOL     OW 8155   0.076   3.218   1.583 -0.0793 -0.7357 -0.1043
 2612SOL    HW1 8156  -0.020   3.245   1.590  0.2689  0.2204  1.6608
 2612SOL    HW2 8157   0.104   3.175   1.670  1.0288 -1.2305 -0.6937
 2613SOL     OW 8158   1.670   1.809   1.168 -0.2164 -0.3643  0.6556
 2613SOL    HW1 8159   1.619   1.893   1.186  0.5943  0.0671  1.0142
 2613SOL    HW2 8160   1.763   1.818   1.205 -0.1073 -1.4070  0.6728
 2614SOL     OW 8161   3.763   3.106   2.429 -0.1790  0.1559  0.0789
 2614SOL    HW1 8162   3.769   3.188   2.372 -1.8819  0.1173 -0.2269
 2614SOL    HW2 8163   3.769   3.132   2.525  0.8047  0.4460 -0.0518
 2615SOL     OW 8164   5.362   2.610   2.571 -0.6425 -0.3113  0.4364
 2615SOL    HW1 8165   5.461   2.619   2.566 -0.7053  0.0784 -0.2805
 2615SOL    HW2 8166   5.335   2.588   2.665  0.0427  0.6686  0.8785
 2616SOL     OW 8167   4.248   1.996   4.593  0.1705 -0.4315  0.1501
 2616SOL    HW1 8168   4.322   2.033   4.538 -1.1989  0.5034 -1.1171
 2616SOL    HW2 8169   4.228   2.058   4.669  0.7870 -0.7881  0.6198
 2617SOL     OW 8170   4.044   2.974   0.390  0.5790  0.1343  0.2200
 2617SOL    HW1 8171   3.947   2.995   0.379  1.0920  1.5604 -2.8914
 2617SOL    HW2 8172   4.062   2.881   0.359  0.3310  0.2517 -0.2943
 2618SOL     OW 8173   2.383   4.821   4.070  0.1271  0.0709  0.1621
 2618SOL    HW1 8174   2.328   4.888   4.120  1.0090 -1.7062  3.8571
 2618SOL    HW2 8175   2.345   4.730   4.084  2.0089 -0.8094 -0.2084
 2619SOL     OW 8176   3.645   5.303   2.014  0.5697  0.0370  0.4335
 2619SOL    HW1 8177   3.636   5.340   2.107  2.3550 -1.6693  1.3763
 2619SOL    HW2 8178   3.572   5.340   1.956 -0.8821  0.8242  2.6117
 2620SOL     OW 8179   5.068   0.350   2.221 -0.1161 -0.1568 -0.1125
 2620SOL    HW1 8180   4.970   0.366   2.230 -0.0017  0.8122 -0.5206
 2620SOL    HW2 8181   5.085   0.251   2.211 -0.7643 -0.7351  3.3170
 2621SOL     OW 8182   0.393   2.706   0.739 -0.2655  0.1429  0.0782
 2621SOL    HW1 8183   0.358   2.707   0.833  2.2934  3.0598  1.1777
 2621SOL    HW2 8184   0.335   2.764   0.682 -1.3837 -1.0153 -0.0039
 2622SOL     OW 8185   0.591   2.941   3.854 -0.3778  0.2596 -0.1100
 2622SOL    HW1 8186   0.676   2.981   3.889  1.1927 -0.3655 -2.8967
 2622SOL    HW2 8187   0.515   3.004   3.871  1.0905  2.0264  0.2034
 2623SOL     OW 8188   1.225   3.444   5.368 -0.8571  0.2037  0.5052
 2623SOL    HW1 8189   1.196   3.372   5.306 -3.3133 -0.8658  2.6995
 2623SOL    HW2 8190   1.215   3.533   5.323 -0.2555 -0.6278 -1.3673
 2624SOL     OW 8191   3.051   1.686   0.803  0.1780 -0.3639 -0.5343
 2624SOL    HW1 8192   2.982   1.626   0.843  1.3443 -1.3770  0.0013
 2624SOL    HW2 8193   3.140   1.641   0.804  1.4276  1.9244  1.3255
 2625SOL     OW 8194   1.858   1.061   1.752  0.1360  0.2238  0.3612
 2625SOL    HW1 8195   1.783   1.020   1.701 -0.5257  1.6587  0.1237
 2625SOL    HW2 8196   1.899   0.993   1.812  1.1596 -1.6528 -2.2644
 2626SOL     OW 8197   3.525   4.898   4.540  0.4165 -0.2936 -0.2626
 2626SOL    HW1 8198   3.599   4.964   4.524  0.8927 -0.7563  0.0007
 2626SOL    HW2 8199   3.494   4.860   4.453  0.2159  0.1856 -0.4078
 2627SOL     OW 8200   3.647   0.497   0.768  1.0577 -0.2081 -0.0188
 2627SOL    HW1 8201   3.612   0.524   0.678  0.8306 -0.4720 -0.0118
 2627SOL    HW2 8202   3.715   0.563   0.799  0.6456  0.2548 -0.0845
 2628SOL     OW 8203   2.122   2.263   2.391 -0.0971 -0.1928  0.2752
 2628SOL    HW1 8204   2.119   2.172   2.349  0.4583  0.5490 -1.4526
 2628SOL    HW2 8205   2.035   2.310   2.375  0.4342  0.4393 -0.9521
 2629SOL     OW 8206   1.380   5.126   5.087  0.7486 -0.8876  0.6309
 2629SOL    HW1 8207   1.376   5.206   5.147  0.2527 -0.2502 -0.2256
 2629SOL    HW2 8208   1.473   5.116   5.050  0.4664  0.2123 -0.4434
 2630SOL     OW 8209   4.678   0.368   2.813 -0.4603 -0.7219  0.1623
 2630SOL    HW1 8210   4.762   0.314   2.812  1.3103  1.8222 -0.7151
 2630SOL    HW2 8211   4.649   0.386   2.719 -0.9827 -0.1514  0.4300
 2631SOL     OW 8212   4.028   4.385   4.172  0.0909  0.2508  0.0246
 2631SOL    HW1 8213   4.083   4.389   4.256  0.7512  0.0701 -0.3930
 2631SOL    HW2 8214   4.044   4.297   4.126  0.6012  0.8002 -0.8699
 2632SOL     OW 8215   2.555   2.685   4.386 -0.2413  0.1406 -0.2395
 2632SOL    HW1 8216   2.467   2.730   4.367 -2.8087 -2.8593  3.0587
 2632SOL    HW2 8217   2.542   2.586   4.385  3.0334 -0.4155  0.9242
 2633SOL     OW 8218   4.488   2.217   2.995  0.1046  0.4599 -0.6766
 2633SOL    HW1 8219   4.546   2.137   3.010 -0.7406 -0.1231 -0.4334
 2633SOL    HW2 8220   4.392   2.191   3.005 -0.4597  0.6382 -4.2109
 2634SOL     OW 8221   4.800   1.475   0.333 -0.9696 -0.0891 -0.0776
 2634SOL    HW1 8222   4.723   1.502   0.276 -1.1501 -0.5473 -0.0623
 2634SOL    HW2 8223   4.849   1.556   0.366  0.5924  0.2079 -2.8169
 2635SOL     OW 8224   3.810   3.338   4.590 -0.2156  0.2145  0.1908
 2635SOL    HW1 8225   3.715   3.369   4.593  0.3337  2.1108 -0.5102
 2635SOL    HW2 8226   3.856   3.361   4.677 -0.0687  0.4984  0.0409
 2636SOL     OW 8227   0.079   5.050   2.470 -0.1781  0.4293  0.0787
 2636SOL    HW1 8228   0.068   5.137   2.422  1.0991  0.1727 -0.7615
 2636SOL    HW2 8229   0.131   4.987   2.411  0.2336 -0.3754  1.2687
 2637SOL     OW 8230   0.225   0.705   0.950  0.1052 -0.1506 -0.0679
 2637SOL    HW1 8231   0.166   0.778   0.916  0.8787  0.4637 -0.1411
 2637SOL    HW2 8232   0.188   0.616   0.923 -1.6407  0.1353  1.2863
 2638SOL     OW 8233   2.396   5.347   0.593 -0.3270  0.4476 -0.5321
 2638SOL    HW1 8234   2.454   5.424   0.565 -0.8552  1.0348 -0.0256
 2638SOL    HW2 8235   2.416   5.268   0.535 -0.0325  1.0684 -1.2908
 2639SOL     OW 8236   1.179   3.386   4.900 -0.3238  0.7868  0.3530
 2639SOL    HW1 8237   1.089   3.391   4.859  0.0867 -0.6884 -0.7889
 2639SOL    HW2 8238   1.226   3.474   4.889 -0.3346  0.5391 -2.1504
 2640SOL     OW 8239   1.240   5.002   0.752 -0.1614  0.0177  0.6223
 2640SOL    HW1 8240   1.331   4.966   0.734  0.0085  0.1055  1.2880
 2640SOL    HW2 8241   1.200   5.036   0.667  1.3612  2.1402  0.6639
 2641SOL     OW 8242   1.208   2.747   1.234 -0.5712 -0.6065 -0.5606
 2641SOL    HW1 8243   1.120   2.746   1.188 -0.4559 -0.4080 -0.7869
 2641SOL    HW2 8244   1.235   2.841   1.254 -0.9763 -0.7204  0.6121
 2642SOL     OW 8245   3.922   4.602   4.504 -0.9604  0.5609 -0.5084
 2642SOL    HW1 8246   3.989   4.530   4.486 -3.1923 -2.8120  3.0972
 2642SOL    HW2 8247   3.969   4.688   4.519  2.7104 -1.5583  1.6842
 2643SOL     OW 8248   4.314   4.016   1.556 -0.2900  0.0950 -0.4028
 2643SOL    HW1 8249   4.344   3.980   1.468 -0.9421 -2.6054  0.3954
 2643SOL    HW2 8250   4.376   3.985   1.628 -1.8436 -0.9775  0.5371
 2644SOL     OW 8251   1.724   0.802   3.245 -0.6497 -0.3202  0.0703
 2644SOL    HW1 8252   1.684   0.836   3.159 -0.6702 -0.1055  0.1626
 2644SOL    HW2 8253   1.794   0.735   3.225 -1.4087 -1.0827 -0.0826
 2645SOL     OW 8254   3.075   0.894   0.100  0.0852  0.3280  0.2735
 2645SOL    HW1 8255   3.007   0.958   0.136 -0.4909 -0.2944  0.3133
 2645SOL    HW2 8256   3.053   0.802   0.132 -1.3857 -0.5460 -2.8624
 2646SOL     OW 8257   0.641   2.967   3.145 -0.2725 -0.4983  0.0488
 2646SOL    HW1 8258   0.558   2.948   3.092 -0.5663  0.0376  0.3123
 2646SOL    HW2 8259   0.713   2.997   3.083  0.1215 -2.1608 -0.3463
 2647SOL     OW 8260   2.111   2.248   1.304  0.3461  0.1888  0.0750
 2647SOL    HW1 8261   2.055   2.289   1.232  0.5556  1.1696  0.4558
 2647SOL    HW2 8262   2.206   2.274   1.292  0.5401 -0.4727  0.1355
 2648SOL     OW 8263   2.242   0.664   1.878  0.4158 -0.8155 -0.1029
 2648SOL    HW1 8264   2.318   0.704   1.828 -0.2326 -0.7391 -1.0499
 2648SOL    HW2 8265   2.211   0.581   1.831 -0.1443 -0.7933  0.2138
 2649SOL     OW 8266   3.407   1.628   1.594  0.1263  0.0340  0.1634
 2649SOL    HW1 8267   3.479   1.690   1.626 -1.2204  1.2173  1.0419
 2649SOL    HW2 8268   3.377   1.657   1.503  1.0671 -0.7731 -0.4300
 2650SOL     OW 8269   4.650   2.392   2.578  0.5919 -0.3620  0.3302
 2650SOL    HW1 8270   4.693   2.349   2.658  0.7386  0.0952  0.4992
 2650SOL    HW2 8271   4.562   2.348   2.561  1.2450 -1.5254 -0.2131
 2651SOL     OW 8272   0.394   2.268   0.493 -0.1823  0.4541 -0.5002
 2651SOL    HW1 8273   0.380   2.228   0.403  1.1384  1.6209 -1.2616
 2651SOL    HW2 8274   0.440   2.202   0.553  1.0064  0.4361 -1.4049
 2652SOL     OW 8275   1.352   3.704   1.178 -0.1344  0.7951 -0.1886
 2652SOL    HW1 8276   1.370   3.670   1.270 -1.8466  0.8494  0.1933
 2652SOL    HW2 8277   1.274   3.656   1.139  2.2392 -1.2716 -2.7952
 2653SOL     OW 8278   1.664   3.368   0.326  0.3050  0.4948 -0.0158
 2653SOL    HW1 8279   1.649   3.452   0.274  0.1665  0.8081  0.5159
 2653SOL    HW2 8280   1.640   3.289   0.271 -0.2368  0.8410 -0.2782
 2654SOL     OW 8281   4.131   2.135   2.376 -0.8288 -0.2369 -0.5777
 2654SOL    HW1 8282   4.064   2.061   2.378 -1.1252 -0.0401 -2.1317
 2654SOL    HW2 8283   4.221   2.097   2.351 -1.1478  0.0070 -2.1987
 2655SOL     OW 8284   1.504   4.832   3.717  0.1787  0.5975 -0.3559
 2655SOL    HW1 8285   1.583   4.879   3.679 -1.0232  1.3554 -2.0918
 2655SOL    HW2 8286   1.519   4.813   3.814  1.6455  2.4975 -0.1553
 2656SOL     OW 8287   2.927   0.311   0.446 -0.5506  0.1869 -0.0935
 2656SOL    HW1 8288   2.854   0.360   0.398  1.1853  1.6432 -1.4057
 2656SOL    HW2 8289   2.980   0.377   0.500 -0.6893 -0.9801  1.5174
 2657SOL     OW 8290   4.783   1.139   3.311 -0.0784 -0.6219 -0.1791
 2657SOL    HW1 8291   4.759   1.092   3.396  0.1238 -1.3489 -0.5175
 2657SOL    HW2 8292   4.882   1.152   3.307 -0.1913  0.5364  0.2651
 2658SOL     OW 8293   4.428   5.080   1.656  0.3219  0.3513  0.2312
 2658SOL    HW1 8294   4.419   5.006   1.723  1.1270  0.5845  0.6118
 2658SOL    HW2 8295   4.418   5.042   1.564 -0.1426 -0.0813  0.4533
 2659SOL     OW 8296   3.930   0.918   2.394 -0.0018 -0.5545 -0.4207
 2659SOL    HW1 8297   3.940   0.851   2.320 -1.1273 -0.1751 -0.9392
 2659SOL    HW2 8298   3.844   0.968   2.382 -0.3209 -0.6375  1.2763
 2660SOL     OW 8299   4.957   0.229   5.493  0.6315  0.1096 -0.2472
 2660SOL    HW1 8300   5.025   0.233   5.565  1.0945 -0.4506 -0.6388
 2660SOL    HW2 8301   4.911   0.140   5.495  1.2040 -0.2254 -1.1200
 2661SOL     OW 8302   5.052   3.292   2.681 -0.2217 -0.0640 -0.4462
 2661SOL    HW1 8303   5.059   3.232   2.602 -1.7230  0.0363 -0.6953
 2661SOL    HW2 8304   5.073   3.240   2.764  0.3179 -0.4432 -0.8143
 2662SOL     OW 8305   2.562  -0.003   0.502 -0.4187 -0.3267 -0.7307
 2662SOL    HW1 8306   2.541   0.094   0.485  1.0166  0.0462 -0.5530
 2662SOL    HW2 8307   2.654  -0.010   0.540 -1.2080 -1.6334  1.0713
 2663SOL     OW 8308   2.411   3.935   1.409 -0.3379 -0.4577 -0.1674
 2663SOL    HW1 8309   2.360   3.851   1.425 -0.6404  0.2587  3.6980
 2663SOL    HW2 8310   2.509   3.918   1.421 -0.0745 -0.7834 -2.4099
 2664SOL     OW 8311   4.232   0.996   1.905 -0.0482  0.4069 -0.4449
 2664SOL    HW1 8312   4.298   0.994   1.830 -0.3286  2.2358 -0.7773
 2664SOL    HW2 8313   4.258   0.928   1.973  2.1547  0.9951 -0.6036
 2665SOL     OW 8314   3.682   0.798   4.724  0.2371  0.5539 -0.1446
 2665SOL    HW1 8315   3.730   0.718   4.762  0.1120  0.4316 -0.2411
 2665SOL    HW2 8316   3.710   0.811   4.629  0.1276  0.5200 -0.1815
 2666SOL     OW 8317   3.289   4.060   4.695 -0.2176  0.2812 -0.0591
 2666SOL    HW1 8318   3.225   4.002   4.643  0.6924  0.6201 -1.6345
 2666SOL    HW2 8319   3.383   4.040   4.665  0.1927  1.7978  0.1605
 2667SOL     OW 8320   1.167   1.066   5.071  0.3467 -0.1851 -0.1426
 2667SOL    HW1 8321   1.231   1.022   5.007  2.3774 -1.7762  2.7156
 2667SOL    HW2 8322   1.215   1.136   5.124 -1.2501  1.0718 -0.2851
 2668SOL     OW 8323   1.012   2.887   5.212  0.4098  0.4310  0.2180
 2668SOL    HW1 8324   1.091   2.925   5.164  2.2331 -0.8559  2.0683
 2668SOL    HW2 8325   1.002   2.791   5.188  0.0731  0.3083  0.8321
 2669SOL     OW 8326   1.621   2.922   4.171  0.2082 -0.3508 -0.1899
 2669SOL    HW1 8327   1.669   2.943   4.256 -0.0447 -0.6361  0.0285
 2669SOL    HW2 8328   1.523   2.918   4.189  0.1604 -0.4851 -0.4802
 2670SOL     OW 8329   0.856   3.330   5.183  0.1056  0.1902 -0.9598
 2670SOL    HW1 8330   0.782   3.268   5.158 -0.4417 -0.4624  1.9188
 2670SOL    HW2 8331   0.834   3.423   5.153 -0.4767 -0.4582 -2.6606
 2671SOL     OW 8332   1.982   0.872   0.908  0.0952  0.3627 -0.6936
 2671SOL    HW1 8333   2.033   0.860   0.993  0.4796  0.1580 -0.9459
 2671SOL    HW2 8334   2.035   0.834   0.832 -1.3863 -1.8931 -0.6981
 2672SOL     OW 8335   5.523   1.294   3.339  0.2874  0.0289 -0.1537
 2672SOL    HW1 8336   5.554   1.205   3.372 -0.1932 -0.0667  0.0612
 2672SOL    HW2 8337   5.543   1.303   3.241  0.3784 -0.2989 -0.1654
 2673SOL     OW 8338   5.118   5.337   2.877 -0.3412  0.4411 -0.2107
 2673SOL    HW1 8339   5.215   5.350   2.854 -0.7784  1.0384 -1.7812
 2673SOL    HW2 8340   5.102   5.241   2.899  1.3816  0.8825  4.0701
 2674SOL     OW 8341   2.674   1.386   4.976  0.7401 -0.2726 -0.4932
 2674SOL    HW1 8342   2.612   1.308   4.981  0.4230  0.0286  0.4149
 2674SOL    HW2 8343   2.754   1.369   5.034  0.7686  0.0024 -0.4534
 2675SOL     OW 8344   0.044   2.609   5.144  0.5914  0.4535 -0.4994
 2675SOL    HW1 8345   0.060   2.599   5.242 -1.1027  0.2404 -0.2202
 2675SOL    HW2 8346   0.124   2.653   5.102  1.8654 -0.5796  0.7427
 2676SOL     OW 8347   0.826   3.184   4.342  0.1464  0.3398  0.4813
 2676SOL    HW1 8348   0.751   3.165   4.405  0.6498  2.3182  1.7626
 2676SOL    HW2 8349   0.899   3.231   4.391  1.6605 -0.3190 -1.0492
 2677SOL     OW 8350   5.168   3.125   1.897 -0.1338 -0.0058  0.2616
 2677SOL    HW1 8351   5.199   3.058   1.829 -2.0399 -0.7993  0.1070
 2677SOL    HW2 8352   5.201   3.216   1.873  1.4950 -0.6863 -0.1974
 2678SOL     OW 8353   4.543   1.334   3.023  0.0337 -0.2517  0.3136
 2678SOL    HW1 8354   4.631   1.358   3.064  0.5797 -1.7889  0.1018
 2678SOL    HW2 8355   4.518   1.241   3.049 -1.0674 -0.1808 -0.4158
 2679SOL     OW 8356   0.855   1.046   2.318 -0.1803  0.0919 -0.1211
 2679SOL    HW1 8357   0.932   1.011   2.265 -0.4334 -0.6337 -0.0273
 2679SOL    HW2 8358   0.772   0.998   2.290 -0.5122  0.5196  0.1262
 2680SOL     OW 8359   2.114   4.328   3.034  0.3358  0.1019  0.1674
 2680SOL    HW1 8360   2.180   4.263   2.996  0.6370  0.9034 -0.7167
 2680SOL    HW2 8361   2.164   4.405   3.075 -0.0316  0.1923  0.4446
 2681SOL     OW 8362   1.423   0.884  -0.019 -0.1353 -0.1146 -0.0544
 2681SOL    HW1 8363   1.374   0.822   0.042  0.5286 -1.0609 -0.4436
 2681SOL    HW2 8364   1.520   0.884   0.005 -0.0103  0.1892 -0.5397
 2682SOL     OW 8365   1.357   4.637   3.346  1.1214 -0.3006  0.4874
 2682SOL    HW1 8366   1.374   4.643   3.247  1.7429 -0.1427  0.5974
 2682SOL    HW2 8367   1.439   4.601   3.391  0.8106 -0.4458  0.9350
 2683SOL     OW 8368   2.938   4.036   3.864  0.0935  0.1033  0.2339
 2683SOL    HW1 8369   2.991   4.087   3.931  0.6828 -1.0186  0.6644
 2683SOL    HW2 8370   2.917   4.094   3.785  0.6001  1.0303  0.7713
 2684SOL     OW 8371   4.084   0.947   1.590 -0.2599 -0.2415 -0.1980
 2684SOL    HW1 8372   4.149   0.953   1.514  0.5259 -0.0543  0.4678
 2684SOL    HW2 8373   4.128   0.901   1.667 -0.8714  0.0321  0.3202
 2685SOL     OW 8374   3.056   5.502   1.626  0.5277 -0.0086 -0.0056
 2685SOL    HW1 8375   3.048   5.404   1.607  1.4622 -0.0679 -0.1166
 2685SOL    HW2 8376   3.054   5.553   1.539  1.5003 -0.0415 -0.0558
 2686SOL     OW 8377   2.862   0.615   2.846 -0.1553 -0.5721 -0.0157
 2686SOL    HW1 8378   2.831   0.520   2.845  1.2374 -1.0536  0.0412
 2686SOL    HW2 8379   2.844   0.655   2.936  2.1485 -1.8301  1.0812
 2687SOL     OW 8380   0.750   2.072   0.848 -0.3904 -0.1733 -0.0358
 2687SOL    HW1 8381   0.816   2.130   0.802  0.3520 -1.2084 -0.3108
 2687SOL    HW2 8382   0.677   2.047   0.785 -0.3117 -0.1552 -0.1331
 2688SOL     OW 8383   0.082   2.651   2.563  0.2022 -0.2121 -0.1374
 2688SOL    HW1 8384   0.133   2.664   2.649  2.6365 -0.5364 -1.4490
 2688SOL    HW2 8385   0.103   2.725   2.500 -2.1951  0.4655 -0.2478
 2689SOL     OW 8386   1.148   3.224   2.702  0.1468 -0.1571 -0.0272
 2689SOL    HW1 8387   1.057   3.250   2.670 -0.2582  1.4843  2.1957
 2689SOL    HW2 8388   1.217   3.277   2.653 -0.4605  2.3859  1.6781
 2690SOL     OW 8389   0.547   0.788   5.081 -0.3742  0.2014 -0.4781
 2690SOL    HW1 8390   0.570   0.758   4.989 -0.6780 -3.0001  0.3885
 2690SOL    HW2 8391   0.593   0.875   5.100  0.5829  0.3852 -3.2001
 2691SOL     OW 8392   4.112   3.236   2.464 -0.3992  0.0614  0.1754
 2691SOL    HW1 8393   4.148   3.144   2.449  0.8480  0.6353 -0.5203
 2691SOL    HW2 8394   4.049   3.235   2.542 -1.6773 -1.6773 -0.8099
 2692SOL     OW 8395   5.511   0.975   2.332 -0.5284  0.9552  0.4414
 2692SOL    HW1 8396   5.438   1.029   2.373 -1.3463  1.3236 -1.4367
 2692SOL    HW2 8397   5.542   1.017   2.247  0.7513 -0.0626  0.3572
 2693SOL     OW 8398   1.721   0.186   4.696 -0.7554  0.0919 -0.0586
 2693SOL    HW1 8399   1.795   0.250   4.678 -2.3903  1.5730 -2.0381
 2693SOL    HW2 8400   1.672   0.215   4.778 -0.6107  0.5414 -0.1293
 2694SOL     OW 8401   1.469   2.904   5.376  0.0206 -0.6246  0.2739
 2694SOL    HW1 8402   1.391   2.841   5.371  0.3398 -0.9716 -0.7608
 2694SOL    HW2 8403   1.551   2.853   5.403  0.6949 -1.1353 -2.4047
 2695SOL     OW 8404   4.072   3.233   0.830 -0.5570 -0.3672  0.1696
 2695SOL    HW1 8405   4.104   3.200   0.919 -0.1213 -0.2532  0.0551
 2695SOL    HW2 8406   4.075   3.333   0.828 -2.1588 -0.2859  0.6203
 2696SOL     OW 8407   4.734   4.174   5.152 -0.0957 -0.2614  0.4311
 2696SOL    HW1 8408   4.724   4.249   5.088 -0.0467 -0.6516 -0.0408
 2696SOL    HW2 8409   4.672   4.100   5.128  0.9598 -1.0178 -0.0689
 2697SOL     OW 8410   2.871   5.034   0.432  0.7639  0.0302  0.5487
 2697SOL    HW1 8411   2.966   5.017   0.456 -0.0424 -2.1501  2.5729
 2697SOL    HW2 8412   2.826   5.084   0.506  0.0849  0.1302  0.0826
 2698SOL     OW 8413   3.327   1.955   1.323 -0.3621 -0.6738  0.1084
 2698SOL    HW1 8414   3.360   1.992   1.236  3.1594  2.2074  2.3409
 2698SOL    HW2 8415   3.247   2.008   1.353  0.5079  0.6817  0.1273
 2699SOL     OW 8416   0.038   1.190   4.658  0.3830 -0.2720  0.1222
 2699SOL    HW1 8417   0.039   1.289   4.665  0.9474 -0.3640  1.9075
 2699SOL    HW2 8418   0.079   1.162   4.571 -1.9104  1.0705 -1.5076
 2700SOL     OW 8419   2.980   3.970   3.096  0.2183 -0.4585  0.5240
 2700SOL    HW1 8420   2.992   4.036   3.170  1.7960 -2.5440  2.2409
 2700SOL    HW2 8421   3.035   3.888   3.114  0.6072 -1.1227 -2.9316
 2701SOL     OW 8422   1.293   0.681   4.827  0.0839  0.1940  0.1211
 2701SOL    HW1 8423   1.260   0.615   4.894  0.4871  0.5201  0.6535
 2701SOL    HW2 8424   1.249   0.665   4.738  0.5616 -1.1155  0.1047
 2702SOL     OW 8425   2.840   4.658   0.992 -0.3466 -0.2466 -0.0209
 2702SOL    HW1 8426   2.940   4.664   0.999 -0.3862 -0.4603  0.8096
 2702SOL    HW2 8427   2.805   4.594   1.061 -1.0619 -0.1729 -0.3029
 2703SOL     OW 8428   4.438   5.006   2.533  0.0287  0.0440  0.5492
 2703SOL    HW1 8429   4.518   4.997   2.473 -1.8015 -0.8234 -1.9100
 2703SOL    HW2 8430   4.468   5.039   2.623  2.9044  1.5129 -0.8041
 2704SOL     OW 8431   5.376   0.485   0.363  0.3717  0.6757  0.6073
 2704SOL    HW1 8432   5.461   0.526   0.329  0.4774  0.8593  1.0707
 2704SOL    HW2 8433   5.330   0.551   0.423 -0.2044  0.6543  0.1930
 2705SOL     OW 8434   1.475   3.810   3.768  0.7417 -0.5360 -0.3012
 2705SOL    HW1 8435   1.459   3.768   3.678 -0.9143 -1.5001  0.3909
 2705SOL    HW2 8436   1.474   3.910   3.758 -1.1061 -0.5920 -1.1368
 2706SOL     OW 8437   2.799   0.594   3.541  0.1211  0.7327 -0.0586
 2706SOL    HW1 8438   2.790   0.529   3.466  1.7188 -0.2060  0.5207
 2706SOL    HW2 8439   2.735   0.670   3.527 -1.1514 -0.4918 -1.2135
 2707SOL     OW 8440   5.267   0.595   2.473 -0.8990  0.1373  0.2037
 2707SOL    HW1 8441   5.207   0.611   2.552 -0.4071  0.3032  0.5520
 2707SOL    HW2 8442   5.356   0.639   2.489 -0.7660  0.1025 -0.4092
 2708SOL     OW 8443   0.189   4.708   0.195 -0.3063  0.1061 -0.0528
 2708SOL    HW1 8444   0.195   4.714   0.096  0.5639 -1.0615 -0.0942
 2708SOL    HW2 8445   0.191   4.799   0.235 -0.1534  0.5588 -1.0765
 2709SOL     OW 8446   1.614   1.520   5.311  0.2347 -0.2944  0.0537
 2709SOL    HW1 8447   1.552   1.520   5.390  1.2407 -1.8670  0.9070
 2709SOL    HW2 8448   1.585   1.590   5.246 -2.2437 -0.7528  0.5478
 2710SOL     OW 8449   1.769   0.657   4.667  0.0814  0.1934  0.2685
 2710SOL    HW1 8450   1.741   0.681   4.574  1.0856  0.9176  0.1472
 2710SOL    HW2 8451   1.691   0.616   4.715 -1.6372  3.2958  0.3678
 2711SOL     OW 8452   2.268   4.895   1.506 -0.0632 -0.1343 -0.0009
 2711SOL    HW1 8453   2.267   4.978   1.562 -1.2236  0.9241 -1.4857
 2711SOL    HW2 8454   2.173   4.868   1.486  0.3148 -0.6728 -1.1295
 2712SOL     OW 8455   2.604   3.168   2.396 -0.2123  0.5053  0.2934
 2712SOL    HW1 8456   2.553   3.156   2.310  0.9880 -1.4414 -0.2275
 2712SOL    HW2 8457   2.596   3.085   2.451  0.4053  1.0981  1.3045
 2713SOL     OW 8458   4.773   5.167   1.438  0.0086 -0.0590 -1.0008
 2713SOL    HW1 8459   4.831   5.247   1.446  1.4412 -0.9815 -1.7104
 2713SOL    HW2 8460   4.749   5.133   1.528  1.5082 -0.2973 -0.6695
 2714SOL     OW 8461   5.047   5.379   4.313 -0.1119 -0.1588  0.6578
 2714SOL    HW1 8462   5.070   5.302   4.373 -2.0747  0.5962  2.4930
 2714SOL    HW2 8463   5.127   5.440   4.305  0.7384 -1.1978  1.0301
 2715SOL     OW 8464   1.541   3.185   1.143 -0.0521 -0.1243 -0.0996
 2715SOL    HW1 8465   1.445   3.214   1.131 -0.0694 -0.0065  0.3114
 2715SOL    HW2 8466   1.565   3.121   1.070 -0.3923 -0.0251 -0.3064
 2716SOL     OW 8467   1.882   1.462   1.527  0.8799 -0.4045  0.1527
 2716SOL    HW1 8468   1.843   1.423   1.611  0.2398  1.8741  0.9922
 2716SOL    HW2 8469   1.965   1.513   1.550  1.1475 -0.4310 -0.7426
 2717SOL     OW 8470   4.730   0.792   4.556  0.0797 -0.4893 -0.1344
 2717SOL    HW1 8471   4.670   0.836   4.489 -0.3029  0.9394  1.0869
 2717SOL    HW2 8472   4.743   0.853   4.634  2.2469 -1.2186  0.1444
 2718SOL     OW 8473   4.599   4.304   4.021  0.1918 -0.1367  0.1088
 2718SOL    HW1 8474   4.522   4.308   4.085 -1.1315  0.0478 -1.4417
 2718SOL    HW2 8475   4.627   4.208   4.010  0.7289 -0.1344  1.2639
 2719SOL     OW 8476   5.260   5.025   0.801  0.4454 -0.2403  0.1046
 2719SOL    HW1 8477   5.350   5.039   0.760  0.8111  0.6994  1.1881
 2719SOL    HW2 8478   5.236   4.928   0.796  0.6767 -0.2417 -1.8614
 2720SOL     OW 8479   2.076   3.686   2.652  0.4222  0.1696  0.2714
 2720SOL    HW1 8480   2.003   3.711   2.588  1.1715  1.9679  0.0585
 2720SOL    HW2 8481   2.130   3.611   2.613 -0.6207 -0.4347 -0.0547
 2721SOL     OW 8482   2.146   1.569   2.653  0.0708  0.1282  0.5487
 2721SOL    HW1 8483   2.195   1.595   2.570 -1.1789  2.0583  0.3407
 2721SOL    HW2 8484   2.056   1.532   2.628 -0.6005  1.3871  1.0213
 2722SOL     OW 8485   1.977   2.021   1.980  0.0412  0.5777 -0.1007
 2722SOL    HW1 8486   1.926   1.981   1.904  0.2574 -1.9643  0.9946
 2722SOL    HW2 8487   1.915   2.073   2.038 -1.2693 -1.8556  0.8097
 2723SOL     OW 8488   5.148   2.338   3.732  0.3270 -0.0664  0.9068
 2723SOL    HW1 8489   5.143   2.353   3.634  0.1769  2.3042  1.2322
 2723SOL    HW2 8490   5.145   2.425   3.780  0.5076 -1.1556  3.0349
 2724SOL     OW 8491   0.280   2.397   1.998  0.5952 -0.4808  0.3449
 2724SOL    HW1 8492   0.187   2.430   1.984  0.4008 -0.8787  0.6669
 2724SOL    HW2 8493   0.345   2.473   1.989  0.2410 -0.2052  0.1217
 2725SOL     OW 8494   2.112   3.733   5.280 -0.7805 -0.2276  0.1074
 2725SOL    HW1 8495   2.151   3.641   5.272  0.7944  0.3507  0.7127
 2725SOL    HW2 8496   2.142   3.774   5.366 -2.0278  0.6084  0.1604
 2726SOL     OW 8497   4.381   0.483   3.499  0.0237  0.4610  0.1327
 2726SOL    HW1 8498   4.370   0.569   3.551  0.2368  2.2122 -2.5295
 2726SOL    HW2 8499   4.292   0.438   3.492 -0.3322  1.0730  0.5536
 2727SOL     OW 8500   5.065   2.089   3.361  0.5804  0.1161  0.1412
 2727SOL    HW1 8501   5.135   2.133   3.305 -0.1430  1.5723  0.3361
 2727SOL    HW2 8502   4.975   2.129   3.341 -0.2390 -1.7605 -0.1603
 2728SOL     OW 8503   3.922   0.550   1.468  0.4673 -0.3566  0.1813
 2728SOL    HW1 8504   3.869   0.609   1.407  0.1707 -2.2032 -1.4694
 2728SOL    HW2 8505   3.885   0.555   1.560 -1.6136 -0.4007 -0.5993
 2729SOL     OW 8506   4.545   0.465   1.069  0.1212 -0.1041  0.3678
 2729SOL    HW1 8507   4.463   0.418   1.101 -0.6311  0.8524 -0.1108
 2729SOL    HW2 8508   4.553   0.452   0.970  0.3311  0.1439  0.3536
 2730SOL     OW 8509   1.071   4.531   1.624 -0.4824  0.8508 -0.6016
 2730SOL    HW1 8510   1.036   4.443   1.654  0.1980 -0.4357 -3.2662
 2730SOL    HW2 8511   1.003   4.602   1.642 -1.1346 -0.2092  1.3749
 2731SOL     OW 8512   5.193   4.027   0.351  0.2865  0.0156 -0.5558
 2731SOL    HW1 8513   5.204   4.111   0.404  0.3493 -0.4581  0.1953
 2731SOL    HW2 8514   5.237   4.037   0.262  0.4398  0.7159 -0.4032
 2732SOL     OW 8515   2.123   1.611   1.606 -0.5236 -0.8937  0.0633
 2732SOL    HW1 8516   2.111   1.679   1.678  0.4426 -0.0201 -0.5762
 2732SOL    HW2 8517   2.186   1.646   1.537 -0.2144 -2.3336 -0.4246
 2733SOL     OW 8518   1.279   1.964   2.424 -0.3041  0.0347  0.2450
 2733SOL    HW1 8519   1.197   2.007   2.463  0.7031  0.0895  2.4844
 2733SOL    HW2 8520   1.271   1.960   2.325 -3.4446 -0.8466  0.4416
 2734SOL     OW 8521   2.810   1.175   5.530 -0.2222 -0.3678 -0.8627
 2734SOL    HW1 8522   2.730   1.227   5.499  0.9008  1.5885 -0.6223
 2734SOL    HW2 8523   2.884   1.183   5.463  1.2416  1.5278  0.8405
 2735SOL     OW 8524   4.501   5.471   2.620 -0.2183  0.0317  0.3415
 2735SOL    HW1 8525   4.502   5.551   2.679 -0.1226  0.3327 -0.0651
 2735SOL    HW2 8526   4.434   5.405   2.654 -0.6648  0.5065  0.3871
 2736SOL     OW 8527   4.380   1.134   2.378  0.2568  0.5448  0.4604
 2736SOL    HW1 8528   4.436   1.215   2.400 -0.7456  1.0364  1.2834
 2736SOL    HW2 8529   4.385   1.069   2.455  1.5386 -0.4839 -0.4414
 2737SOL     OW 8530   1.982   4.960   5.207  0.1779 -0.3396 -0.2261
 2737SOL    HW1 8531   1.998   5.027   5.280 -2.1353 -0.7102  0.6944
 2737SOL    HW2 8532   2.062   4.900   5.200  0.8802  0.3552  1.2972
 2738SOL     OW 8533   0.079   0.177   1.895 -0.2708 -0.1103 -0.2181
 2738SOL    HW1 8534   0.083   0.269   1.935 -1.7533  0.1235 -0.5416
 2738SOL    HW2 8535   0.162   0.127   1.920  0.7544  1.4305 -0.3484
 2739SOL     OW 8536   5.479   2.015   2.288 -0.0305  0.5955 -0.2001
 2739SOL    HW1 8537   5.458   2.052   2.378 -0.7697 -0.2118 -0.0206
 2739SOL    HW2 8538   5.403   1.957   2.258  1.2380 -1.1207 -0.2595
 2740SOL     OW 8539   4.742   3.075   3.127  0.3795  0.1495 -0.4044
 2740SOL    HW1 8540   4.783   2.987   3.100  0.2063 -0.1972  0.4312
 2740SOL    HW2 8541   4.790   3.111   3.207  0.2722  0.6884 -0.5766
 2741SOL     OW 8542   4.919   0.510   3.187  0.4141 -0.2521 -0.1435
 2741SOL    HW1 8543   4.963   0.517   3.098  0.6256  1.6264  0.0534
 2741SOL    HW2 8544   4.824   0.481   3.175  0.8035 -1.2816 -0.8458
 2742SOL     OW 8545   3.972   1.499   0.532 -0.2795  0.1832  0.0209
 2742SOL    HW1 8546   3.931   1.431   0.471 -0.4839  1.1037 -0.9051
 2742SOL    HW2 8547   3.934   1.589   0.511  1.5136  0.9191 -0.2165
 2743SOL     OW 8548   3.158   5.035   2.731 -0.2012  0.4449 -0.1407
 2743SOL    HW1 8549   3.144   4.975   2.809 -0.6463 -1.6261 -1.7110
 2743SOL    HW2 8550   3.123   5.127   2.752  0.8232  0.3166  2.4629
 2744SOL     OW 8551   2.412   2.760   3.587  0.1296  0.1023  0.7060
 2744SOL    HW1 8552   2.321   2.780   3.622  0.6571  1.0425  1.5967
 2744SOL    HW2 8553   2.451   2.683   3.638 -0.3805 -0.7033 -0.0850
 2745SOL     OW 8554   4.567   2.825   2.046  0.1418 -0.2928 -0.7302
 2745SOL    HW1 8555   4.571   2.729   2.017 -3.2772 -0.4000 -1.2443
 2745SOL    HW2 8556   4.545   2.882   1.967 -1.6176  0.4115  0.2303
 2746SOL     OW 8557   2.457   1.823   4.513 -0.3084 -0.1317  0.3266
 2746SOL    HW1 8558   2.528   1.830   4.582 -1.3966 -1.1629  1.6020
 2746SOL    HW2 8559   2.443   1.913   4.471  0.3979  0.5200  1.4396
 2747SOL     OW 8560   3.494   1.313   0.557 -0.1841  0.4336  0.9839
 2747SOL    HW1 8561   3.546   1.394   0.587  2.2968 -1.1924  1.4046
 2747SOL    HW2 8562   3.544   1.267   0.484 -0.8325 -1.4545  1.6872
 2748SOL     OW 8563   2.636   0.620   3.119  0.3514  0.1523  0.1598
 2748SOL    HW1 8564   2.711   0.685   3.126  0.2452  0.2877  0.0279
 2748SOL    HW2 8565   2.565   0.644   3.186  0.1967  0.3225 -0.0663
 2749SOL     OW 8566   5.480   2.216   1.210  0.1374 -0.2637  0.5631
 2749SOL    HW1 8567   5.574   2.200   1.239  0.4016  0.0802 -0.0855
 2749SOL    HW2 8568   5.473   2.305   1.164 -0.5871 -0.1058  0.9650
 2750SOL     OW 8569   1.806   0.858   1.378 -0.1628 -0.5699  0.7092
 2750SOL    HW1 8570   1.805   0.770   1.330 -0.4931 -0.1266 -0.1182
 2750SOL    HW2 8571   1.810   0.932   1.311  0.2363  0.0430  1.4062
 2751SOL     OW 8572   4.472   1.320   0.242  0.3338  0.3146 -0.2339
 2751SOL    HW1 8573   4.552   1.372   0.213  0.2566  0.3375 -0.4089
 2751SOL    HW2 8574   4.425   1.283   0.162  0.6877 -0.4780 -0.0913
 2752SOL     OW 8575   0.125   4.072   4.783 -0.1877 -0.0701  0.5527
 2752SOL    HW1 8576   0.171   4.134   4.846 -1.2497  0.7759  0.5245
 2752SOL    HW2 8577   0.136   4.105   4.689 -2.1016  1.0323  0.6615
 2753SOL     OW 8578   0.183   4.477   0.970 -0.3216  0.2033 -0.0894
 2753SOL    HW1 8579   0.136   4.561   0.940 -0.7782 -0.0568 -0.1125
 2753SOL    HW2 8580   0.202   4.420   0.890 -0.8394 -0.1331  0.0222
 2754SOL     OW 8581   1.324   0.611   0.662 -0.0144  0.4015  0.2220
 2754SOL    HW1 8582   1.287   0.548   0.729  0.8473 -0.8114 -0.3990
 2754SOL    HW2 8583   1.383   0.678   0.708 -0.9619  0.8059  0.8864
 2755SOL     OW 8584   3.648   4.745   4.985 -0.1525  0.0484  0.4285
 2755SOL    HW1 8585   3.650   4.842   5.008 -0.6786 -0.1944  1.5975
 2755SOL    HW2 8586   3.607   4.732   4.895 -2.6550  0.7613  1.3816
 2756SOL     OW 8587   4.918   1.411   4.965 -0.4058 -0.5172 -0.1899
 2756SOL    HW1 8588   4.910   1.479   4.892  1.2859 -0.2360 -0.1620
 2756SOL    HW2 8589   5.002   1.358   4.952 -1.3208 -2.1246  0.2020
 2757SOL     OW 8590   1.988   1.038   3.756 -0.2339  0.0133  0.3753
 2757SOL    HW1 8591   1.901   1.023   3.803 -0.7748 -0.8337 -0.8565
 2757SOL    HW2 8592   1.982   1.121   3.700 -1.0062 -1.1683 -1.3599
 2758SOL     OW 8593   2.105   1.047   3.191  0.0941 -0.6576 -0.2597
 2758SOL    HW1 8594   2.181   1.081   3.135 -1.8463  1.3642 -1.8274
 2758SOL    HW2 8595   2.044   0.991   3.134 -1.1031  0.1560  0.1826
 2759SOL     OW 8596   4.226   5.537   2.493 -0.1776  0.0223  0.2376
 2759SOL    HW1 8597   4.197   5.456   2.544  0.0456  1.5019  2.9233
 2759SOL    HW2 8598   4.298   5.513   2.429 -1.6864 -2.2673 -0.7383
 2760SOL     OW 8599   4.524   0.141   2.779 -0.0358  0.0658  0.8079
 2760SOL    HW1 8600   4.532   0.078   2.855 -0.3045  0.2196  0.9655
 2760SOL    HW2 8601   4.535   0.235   2.812  2.7385  0.0196  0.2371
 2761SOL     OW 8602   0.217   4.738   1.845 -0.2563  0.1987  0.8514
 2761SOL    HW1 8603   0.311   4.705   1.838 -0.4057  0.0958 -1.4162
 2761SOL    HW2 8604   0.166   4.711   1.763 -1.2731  3.2481  0.3326
 2762SOL     OW 8605   3.995   1.718   2.185  0.3691 -0.0317 -0.2825
 2762SOL    HW1 8606   4.009   1.629   2.230 -2.0918 -0.2886  0.1173
 2762SOL    HW2 8607   3.897   1.738   2.182  0.8065  2.1646 -1.4062
 2763SOL     OW 8608   0.695   2.006   2.143  0.0182  0.1668  0.0463
 2763SOL    HW1 8609   0.616   2.060   2.114  0.3963  0.2849 -0.7796
 2763SOL    HW2 8610   0.664   1.926   2.193 -0.6034  0.4466  0.1202
 2764SOL     OW 8611   1.310   4.872   1.580 -0.0790 -0.5217 -0.7224
 2764SOL    HW1 8612   1.368   4.909   1.652 -1.0050  1.1098 -0.7774
 2764SOL    HW2 8613   1.337   4.910   1.492 -0.0511 -1.1905 -1.0086
 2765SOL     OW 8614   1.298   2.020   3.915  0.3918 -0.1726 -0.0292
 2765SOL    HW1 8615   1.288   2.119   3.922  0.0562 -0.0640 -1.6627
 2765SOL    HW2 8616   1.218   1.976   3.956  0.1956  0.2678  0.0689
 2766SOL     OW 8617   0.104   4.477   5.486  0.0359  0.2076 -0.2700
 2766SOL    HW1 8618   0.034   4.448   5.421 -0.6106  0.1425  0.4415
 2766SOL    HW2 8619   0.110   4.577   5.486 -1.0262  0.2835  0.6467
 2767SOL     OW 8620   2.114   3.421   4.666  0.3040 -0.6738 -0.3104
 2767SOL    HW1 8621   2.187   3.424   4.598 -1.1783 -0.3197 -1.9552
 2767SOL    HW2 8622   2.133   3.487   4.739  1.7651 -0.8270 -0.5241
 2768SOL     OW 8623   5.186   2.534   3.997 -0.1408 -0.8287 -0.2186
 2768SOL    HW1 8624   5.170   2.589   3.916  1.2381  1.7145  1.1340
 2768SOL    HW2 8625   5.103   2.533   4.054 -1.0369 -2.4448 -1.4612
 2769SOL     OW 8626   1.420   3.641   2.504  0.2312  0.0109 -0.1969
 2769SOL    HW1 8627   1.482   3.662   2.580  1.1720 -2.7306 -0.0922
 2769SOL    HW2 8628   1.458   3.675   2.419  0.0716  1.4880  0.2929
 2770SOL     OW 8629   5.110   4.046   1.458 -0.2279  0.7524  0.3752
 2770SOL    HW1 8630   5.165   4.124   1.430  0.1448  0.7941  1.1801
 2770SOL    HW2 8631   5.047   4.021   1.384  0.8429  0.7202 -0.5457
 2771SOL     OW 8632   0.382   4.506   2.293 -0.0279 -0.0119  0.3493
 2771SOL    HW1 8633   0.323   4.458   2.358 -0.0265 -1.1635 -0.4654
 2771SOL    HW2 8634   0.365   4.471   2.201  2.7842 -1.3055  0.2298
 2772SOL     OW 8635   4.426   5.376   3.601 -0.3030  0.0287 -0.2087
 2772SOL    HW1 8636   4.349   5.354   3.662 -0.1727 -0.6198 -0.2688
 2772SOL    HW2 8637   4.481   5.448   3.641  1.1269 -1.9530  1.6069
 2773SOL     OW 8638   0.398   0.481   5.302  0.3910 -0.6742  0.3177
 2773SOL    HW1 8639   0.363   0.402   5.250 -1.3134 -0.8302  1.6038
 2773SOL    HW2 8640   0.384   0.465   5.400  0.3971  1.0519  0.6311
 2774SOL     OW 8641   1.466   0.724   5.150 -0.0942  0.4008 -0.2571
 2774SOL    HW1 8642   1.386   0.702   5.206  0.3223 -0.0067  0.1834
 2774SOL    HW2 8643   1.481   0.823   5.151  0.9585  0.2675  1.8332
 2775SOL     OW 8644   5.217   0.307   3.016 -0.0608 -0.2262 -0.0124
 2775SOL    HW1 8645   5.166   0.393   3.021  0.3734  0.2194 -2.1681
 2775SOL    HW2 8646   5.306   0.318   3.060 -0.4188  0.0784  0.6522
 2776SOL     OW 8647   2.040   0.267   0.956 -0.2304 -0.4282 -0.7667
 2776SOL    HW1 8648   1.984   0.321   0.893 -0.7364  0.5966  0.5197
 2776SOL    HW2 8649   2.134   0.261   0.921 -0.2947  0.8438 -1.2047
 2777SOL     OW 8650   0.906   3.552   2.305  0.0066  0.1184 -0.3013
 2777SOL    HW1 8651   1.004   3.541   2.323 -0.1522 -1.8092 -0.3943
 2777SOL    HW2 8652   0.858   3.565   2.391  0.3893  1.7362 -0.3058
 2778SOL     OW 8653   4.400   1.694   5.278 -0.2210 -0.1343  0.0206
 2778SOL    HW1 8654   4.332   1.666   5.209 -0.0425  0.8529 -0.5745
 2778SOL    HW2 8655   4.490   1.659   5.252 -0.2848 -0.4070  0.1620
 2779SOL     OW 8656   2.245   2.092   1.955  0.6254 -0.7410  0.1940
 2779SOL    HW1 8657   2.148   2.068   1.949  0.6363 -0.4904 -1.7286
 2779SOL    HW2 8658   2.256   2.170   2.015 -0.6676  0.5311 -1.1327
 2780SOL     OW 8659   3.809   3.917   2.249 -0.4694 -0.0468  0.2182
 2780SOL    HW1 8660   3.831   3.921   2.152 -0.4734 -2.3555  0.0574
 2780SOL    HW2 8661   3.719   3.875   2.261 -0.3698  0.0087  1.2280
 2781SOL     OW 8662   5.005   4.472   3.483 -0.4735  0.2863 -0.4177
 2781SOL    HW1 8663   5.001   4.478   3.583 -0.1026 -2.2219 -0.1894
 2781SOL    HW2 8664   5.027   4.561   3.445 -0.0118  1.1634  1.7705
 2782SOL     OW 8665   0.207   5.148   5.380  0.0571 -0.8801 -0.4831
 2782SOL    HW1 8666   0.191   5.232   5.328  2.0524 -0.4410 -0.4433
 2782SOL    HW2 8667   0.286   5.160   5.441 -1.0000 -2.0446  1.2203
 2783SOL     OW 8668   1.408   4.565   3.062  0.1013 -0.1583 -0.0917
 2783SOL    HW1 8669   1.400   4.465   3.062 -0.5725 -0.1107  0.1942
 2783SOL    HW2 8670   1.352   4.604   2.989 -0.7067  0.0753  0.6338
 2784SOL     OW 8671   5.328   4.993   4.165 -0.3479 -0.5896  0.0393
 2784SOL    HW1 8672   5.230   4.990   4.183 -0.1326 -0.4575  1.3061
 2784SOL    HW2 8673   5.378   4.955   4.242  0.6381  0.1004 -0.2337
 2785SOL     OW 8674   3.314   1.504   5.126  0.3971 -0.5089  0.1189
 2785SOL    HW1 8675   3.232   1.471   5.081  0.2042 -0.2405  0.2740
 2785SOL    HW2 8676   3.305   1.493   5.225  0.3650 -0.0724  0.1666
 2786SOL     OW 8677   0.466   0.994   1.534  0.1309  0.3519  0.2988
 2786SOL    HW1 8678   0.513   0.938   1.601  0.2750 -0.4862 -0.4888
 2786SOL    HW2 8679   0.506   0.980   1.444 -1.8397 -0.6921 -0.4779
 2787SOL     OW 8680   3.064   0.950   0.651 -0.3160  0.4789  0.1719
 2787SOL    HW1 8681   3.132   1.016   0.683  0.1526  0.8153 -1.4337
 2787SOL    HW2 8682   2.979   0.962   0.702  1.0053 -0.5044  2.8382
 2788SOL     OW 8683   2.031   0.785   2.345  0.3694  0.2716 -0.2782
 2788SOL    HW1 8684   2.065   0.774   2.438 -1.9856  0.4873  0.6757
 2788SOL    HW2 8685   2.035   0.698   2.297  0.2482 -0.1933  0.5450
 2789SOL     OW 8686   4.509   1.825   2.407  0.2211  0.4110  0.8291
 2789SOL    HW1 8687   4.565   1.799   2.486  1.0630  1.5508  0.6407
 2789SOL    HW2 8688   4.513   1.753   2.338 -0.9813 -0.8655  2.0186
 2790SOL     OW 8689   1.998   1.499   3.529 -0.0026 -0.0964  0.1947
 2790SOL    HW1 8690   2.069   1.567   3.511 -0.8494  0.9496  0.6884
 2790SOL    HW2 8691   2.036   1.423   3.581  0.8243  0.2992  0.1772
 2791SOL     OW 8692   4.013   2.174   1.046  0.5468  0.1221 -0.0329
 2791SOL    HW1 8693   4.002   2.230   1.128 -0.6073  1.1462 -0.8403
 2791SOL    HW2 8694   3.959   2.091   1.054  0.3141  0.2938  0.1984
 2792SOL     OW 8695   1.174   3.838   3.571 -0.9078  0.5216 -0.3335
 2792SOL    HW1 8696   1.255   3.784   3.553 -1.0995 -0.2456  0.9523
 2792SOL    HW2 8697   1.111   3.833   3.493 -0.2999  0.0655 -0.7968
 2793SOL     OW 8698   1.553   1.645   3.887  0.5020  0.4379  0.1237
 2793SOL    HW1 8699   1.539   1.594   3.972  0.5490  1.8449  1.0108
 2793SOL    HW2 8700   1.649   1.641   3.860  0.2731 -1.0108 -0.5411
 2794SOL     OW 8701   1.678   3.605   2.621  0.0231  0.4232 -0.2872
 2794SOL    HW1 8702   1.657   3.547   2.700 -0.5185  0.3472 -0.4840
 2794SOL    HW2 8703   1.714   3.547   2.547 -0.3927  0.3494 -0.4369
 2795SOL     OW 8704   1.519   3.485   2.067 -0.4763 -1.0321  0.5975
 2795SOL    HW1 8705   1.557   3.416   2.129 -0.5079 -0.8014  0.8776
 2795SOL    HW2 8706   1.431   3.452   2.032 -0.3987 -1.2186  0.5739
 2796SOL     OW 8707   2.833   3.083   4.956  0.3725  0.8618  0.4037
 2796SOL    HW1 8708   2.748   3.118   4.916 -0.4472 -0.3205  1.0597
 2796SOL    HW2 8709   2.907   3.093   4.889 -1.4901 -3.8109 -2.9147
 2797SOL     OW 8710   1.568   2.532   2.196 -0.1825 -0.3528  0.2405
 2797SOL    HW1 8711   1.650   2.584   2.221 -1.0795  0.0902  2.5125
 2797SOL    HW2 8712   1.590   2.469   2.121  1.9139  0.5716  0.0063
 2798SOL     OW 8713   5.103   5.284   5.280 -0.4035  0.4038  0.3716
 2798SOL    HW1 8714   5.107   5.285   5.380  0.4785 -0.2142  0.3514
 2798SOL    HW2 8715   5.111   5.190   5.247 -2.7827  0.3385 -0.2358
 2799SOL     OW 8716   0.912   2.108   1.070  0.0351 -0.2708  0.2215
 2799SOL    HW1 8717   1.004   2.068   1.073  1.5638  2.9430 -0.1664
 2799SOL    HW2 8718   0.867   2.079   0.986  2.2304  1.0117 -1.5176
 2800SOL     OW 8719   2.224   3.324   5.055 -0.2163 -0.7787  0.5621
 2800SOL    HW1 8720   2.134   3.350   5.021 -0.8546 -1.8575  1.3465
 2800SOL    HW2 8721   2.278   3.407   5.072 -0.6272 -0.1600 -0.9966
 2801SOL     OW 8722   2.475   1.577   4.360  0.1754 -0.3120 -0.0782
 2801SOL    HW1 8723   2.484   1.671   4.393  0.0031  0.1372 -1.2726
 2801SOL    HW2 8724   2.539   1.561   4.285 -0.2764 -0.9255 -0.3487
 2802SOL     OW 8725   0.106   0.480   4.677 -0.3355  0.0676 -0.1856
 2802SOL    HW1 8726   0.175   0.542   4.714  0.4574 -0.7516 -0.2537
 2802SOL    HW2 8727   0.147   0.426   4.603 -0.1140 -2.6183  1.7937
 2803SOL     OW 8728   3.396   3.494   2.955  0.6422 -0.2571 -0.3392
 2803SOL    HW1 8729   3.426   3.590   2.960 -0.4079  0.0240  1.8455
 2803SOL    HW2 8730   3.467   3.435   2.992  0.2670 -0.0284  0.7802
 2804SOL     OW 8731   5.041   3.058   0.190  0.2290  0.2678 -0.0748
 2804SOL    HW1 8732   5.062   3.073   0.093 -0.3278  0.7463 -0.1244
 2804SOL    HW2 8733   5.121   3.084   0.245 -0.6592  3.6032 -0.1506
 2805SOL     OW 8734   1.962   2.536   0.256  0.0201 -0.0199 -0.3355
 2805SOL    HW1 8735   2.049   2.531   0.206  0.9634  1.0997  1.1172
 2805SOL    HW2 8736   1.921   2.626   0.243 -0.3541 -0.1533 -0.1004
 2806SOL     OW 8737   1.334   2.647   1.800 -0.4310 -0.0350  0.2078
 2806SOL    HW1 8738   1.264   2.624   1.868 -1.9711  2.1897 -0.5407
 2806SOL    HW2 8739   1.345   2.746   1.795  0.3354 -0.1798 -2.1331
 2807SOL     OW 8740   5.437   1.271   5.044 -0.0591  0.5794 -0.6335
 2807SOL    HW1 8741   5.377   1.245   5.120 -1.8387  2.2945 -1.3653
 2807SOL    HW2 8742   5.533   1.259   5.072 -0.6571  0.2965  1.5303
 2808SOL     OW 8743   3.397   0.625   5.092 -0.0976  0.0859  0.4633
 2808SOL    HW1 8744   3.396   0.552   5.161  0.9176 -1.7615 -1.3652
 2808SOL    HW2 8745   3.486   0.669   5.093 -0.5670  1.0627  1.2671
 2809SOL     OW 8746   1.307   4.422   4.526 -0.1783  0.1273  0.8833
 2809SOL    HW1 8747   1.280   4.507   4.573  0.8914  1.3411 -0.5811
 2809SOL    HW2 8748   1.227   4.381   4.483 -0.4183  1.5133 -0.0688
 2810SOL     OW 8749   3.973   4.100   5.162 -0.0709 -0.6648  0.3206
 2810SOL    HW1 8750   4.025   4.096   5.248  0.7802 -0.3946 -0.1680
 2810SOL    HW2 8751   3.996   4.184   5.113 -2.2331  0.3030  0.8480
 2811SOL     OW 8752   0.742   4.504   1.043  0.0332  0.6560 -0.4913
 2811SOL    HW1 8753   0.721   4.458   1.128 -2.8403  0.6513 -1.0849
 2811SOL    HW2 8754   0.763   4.600   1.061  0.1596  0.4873  0.2670
 2812SOL     OW 8755   3.202   5.498   2.145 -0.0530  0.3723 -0.2675
 2812SOL    HW1 8756   3.139   5.543   2.081 -0.0507  0.2523 -0.3556
 2812SOL    HW2 8757   3.229   5.562   2.216 -1.1964  0.0958  0.4450
 2813SOL     OW 8758   4.716   0.719   2.856  0.1323 -0.0365  0.0805
 2813SOL    HW1 8759   4.679   0.651   2.919 -3.7798  1.6052 -0.1118
 2813SOL    HW2 8760   4.706   0.686   2.762 -0.4286  0.1734  0.0587
 2814SOL     OW 8761   2.087   0.324   3.280 -0.0275 -0.2321  0.4937
 2814SOL    HW1 8762   2.078   0.321   3.379 -0.5657 -0.4753  0.4409
 2814SOL    HW2 8763   2.111   0.232   3.246 -1.8021 -0.6317  0.2252
 2815SOL     OW 8764   3.867   5.269   4.984 -0.1692  0.0776  1.1083
 2815SOL    HW1 8765   3.965   5.250   4.974 -0.4323 -0.6891 -0.2862
 2815SOL    HW2 8766   3.814   5.188   4.958 -1.2265  1.3899 -1.1907
 2816SOL     OW 8767   4.234   0.951   3.904 -0.3034 -0.5290  0.1345
 2816SOL    HW1 8768   4.304   0.886   3.931  2.3513  1.0399 -2.3929
 2816SOL    HW2 8769   4.237   0.965   3.805 -1.3783  2.6605  0.4252
 2817SOL     OW 8770   0.322   2.826   1.219  0.2353  0.2157  0.0914
 2817SOL    HW1 8771   0.259   2.873   1.281  0.5701  1.7010 -0.6602
 2817SOL    HW2 8772   0.399   2.789   1.272 -1.7097 -2.6034  1.1996
 2818SOL     OW 8773   1.617   0.565   3.346  0.0601  0.4474 -0.0044
 2818SOL    HW1 8774   1.657   0.645   3.301 -1.2772  2.0086  1.4386
 2818SOL    HW2 8775   1.534   0.592   3.394  1.1955 -1.1352  3.1475
 2819SOL     OW 8776   2.129   2.545   4.816  0.8373 -0.4606 -0.6194
 2819SOL    HW1 8777   2.185   2.462   4.821  2.4450  0.6152  0.0805
 2819SOL    HW2 8778   2.107   2.576   4.908  1.4566  0.6525 -0.8300
 2820SOL     OW 8779   2.392   4.313   0.669 -0.3145  0.2272  0.0606
 2820SOL    HW1 8780   2.367   4.383   0.602 -0.1153  0.3897  0.1568
 2820SOL    HW2 8781   2.310   4.265   0.699 -0.8189  2.1715  1.9783
 2821SOL     OW 8782   0.299   0.185   2.197  0.1906 -0.3798  0.4363
 2821SOL    HW1 8783   0.298   0.112   2.127 -2.8964  0.4131 -0.5211
 2821SOL    HW2 8784   0.208   0.194   2.236  1.0253  1.5846  2.0946
 2822SOL     OW 8785   4.699   2.726   0.587 -0.2228 -0.5132 -0.0027
 2822SOL    HW1 8786   4.730   2.817   0.613 -1.1229  0.3249 -1.6895
 2822SOL    HW2 8787   4.600   2.727   0.572 -0.2770 -1.8215  0.1076
 2823SOL     OW 8788   5.052   0.732   0.553 -0.4627 -0.1430  0.4828
 2823SOL    HW1 8789   5.071   0.823   0.589  2.0226  0.2370 -1.4698
 2823SOL    HW2 8790   5.133   0.674   0.565 -1.0745 -1.2859 -0.6273
 2824SOL     OW 8791   5.211   5.496   1.217 -0.1996  0.4603 -0.5435
 2824SOL    HW1 8792   5.207   5.467   1.122  1.4731 -0.9820 -0.2376
 2824SOL    HW2 8793   5.120   5.490   1.258 -0.6931 -0.1809 -1.6910
 2825SOL     OW 8794   5.276   0.798   0.192  0.1762 -0.3482 -0.1573
 2825SOL    HW1 8795   5.199   0.852   0.228  0.3956  0.1037 -0.3613
 2825SOL    HW2 8796   5.349   0.796   0.260  0.3725  0.0431 -0.3577
 2826SOL     OW 8797   3.715   5.171   4.251  0.0811 -0.0575 -0.1314
 2826SOL    HW1 8798   3.766   5.088   4.228  2.5326 -0.0468  4.2275
 2826SOL    HW2 8799   3.774   5.251   4.237 -1.6294  0.9086 -2.4945
 2827SOL     OW 8800   2.671   4.092   4.060 -0.1255 -0.1972  0.8933
 2827SOL    HW1 8801   2.655   4.045   4.146 -0.4921 -2.5161 -0.3533
 2827SOL    HW2 8802   2.626   4.041   3.986  1.0653  1.1196 -0.8144
 2828SOL     OW 8803   2.472   3.307   0.765  0.1036  0.3207  0.7296
 2828SOL    HW1 8804   2.563   3.338   0.791  0.0279 -0.0359  1.4504
 2828SOL    HW2 8805   2.465   3.304   0.666  0.3827  1.7850  0.6453
 2829SOL     OW 8806   1.959   3.913   0.814 -0.2358 -0.1707 -0.4257
 2829SOL    HW1 8807   2.003   3.973   0.881  0.4120 -1.7182  0.5964
 2829SOL    HW2 8808   1.860   3.916   0.827 -0.1047 -0.7054  0.8698
 2830SOL     OW 8809   4.400   3.057   2.813  0.4960  0.1851  0.4060
 2830SOL    HW1 8810   4.342   3.138   2.799  2.1210  1.2731 -0.2758
 2830SOL    HW2 8811   4.350   2.975   2.784 -1.9620  0.6105  2.9587
 2831SOL     OW 8812   5.005   4.247   2.764  0.7764  0.5063 -0.2164
 2831SOL    HW1 8813   5.052   4.231   2.678  0.2409  1.4803 -0.7151
 2831SOL    HW2 8814   4.971   4.341   2.766 -0.1001  0.1901  0.6311
 2832SOL     OW 8815   3.215   4.113   5.270  0.3352  0.5397  0.2395
 2832SOL    HW1 8816   3.288   4.176   5.244  0.6158  0.3276  0.5051
 2832SOL    HW2 8817   3.240   4.067   5.355 -0.7928  1.6051  1.1764
 2833SOL     OW 8818   3.105   0.401   2.178  0.5744  0.2117 -0.2394
 2833SOL    HW1 8819   3.122   0.497   2.199  1.7154  0.1446 -0.8039
 2833SOL    HW2 8820   3.117   0.385   2.080  0.4946 -0.5220 -0.1380
 2834SOL     OW 8821   2.685   0.131   1.739 -1.0981 -0.5080 -0.1243
 2834SOL    HW1 8822   2.676   0.032   1.733 -2.9965 -0.3851  0.0114
 2834SOL    HW2 8823   2.757   0.154   1.804 -0.7324 -1.7849 -0.0465
 2835SOL     OW 8824   5.138   4.986   3.879  0.1944 -0.0365 -0.5784
 2835SOL    HW1 8825   5.068   5.008   3.947 -0.8195 -2.3190 -0.7935
 2835SOL    HW2 8826   5.105   4.912   3.820  2.5716 -0.7814 -1.0807
 2836SOL     OW 8827   0.110   1.318   3.055 -0.4702 -0.2072  0.3365
 2836SOL    HW1 8828   0.063   1.385   2.997  0.2142  0.3206  0.3742
 2836SOL    HW2 8829   0.203   1.304   3.021  0.2679  0.8047  1.8042
 2837SOL     OW 8830   5.519   0.269   5.227  0.7653  0.1351  0.4406
 2837SOL    HW1 8831   5.456   0.283   5.150  0.4928  0.4291  0.7164
 2837SOL    HW2 8832   5.554   0.357   5.258  0.9600  0.0064  0.5891
 2838SOL     OW 8833   3.051   3.692   4.343  0.3782 -0.0894  0.0352
 2838SOL    HW1 8834   3.009   3.694   4.252  0.6166  0.1079 -0.0715
 2838SOL    HW2 8835   2.980   3.679   4.412  0.3191 -1.5339 -0.2597
 2839SOL     OW 8836   5.507   4.630   3.718 -0.2173  0.5871 -0.8286
 2839SOL    HW1 8837   5.532   4.533   3.711  1.9768  1.1338 -1.0918
 2839SOL    HW2 8838   5.439   4.652   3.648  1.5834 -0.0927 -2.9069
 2840SOL     OW 8839   3.991   3.845   0.078 -0.3371  0.1852 -0.6067
 2840SOL    HW1 8840   4.000   3.764   0.136  1.1515  0.0116 -1.0181
 2840SOL    HW2 8841   3.972   3.817  -0.016  0.7888  0.2445 -0.8732
 2841SOL     OW 8842   0.963   0.078   4.239 -1.0617  0.3974 -0.3128
 2841SOL    HW1 8843   0.877   0.117   4.204 -1.9079 -1.2522 -0.1506
 2841SOL    HW2 8844   0.954   0.061   4.338 -0.1093  1.2862 -0.0486
 2842SOL     OW 8845   1.143   4.032   3.766  0.8417  0.4377 -0.3118
 2842SOL    HW1 8846   1.218   4.082   3.809  0.5485  0.9732 -0.4106
 2842SOL    HW2 8847   1.177   3.987   3.683  1.4909 -0.8997  0.6498
 2843SOL     OW 8848   1.286   0.955   4.874  0.0372  0.1925 -0.6192
 2843SOL    HW1 8849   1.329   0.865   4.881 -2.0585 -0.8682 -0.5604
 2843SOL    HW2 8850   1.275   0.979   4.777 -0.3544 -0.1172 -0.6548
 2844SOL     OW 8851   0.744   4.943   5.416 -0.1593 -0.1312 -0.5908
 2844SOL    HW1 8852   0.786   4.880   5.351  0.5814 -1.2061  0.8866
 2844SOL    HW2 8853   0.805   5.022   5.430  0.3334 -0.5851 -0.1514
 2845SOL     OW 8854   0.190   0.506   3.648  0.0202  0.5286  0.2357
 2845SOL    HW1 8855   0.171   0.600   3.676 -0.2770  0.4990  0.1364
 2845SOL    HW2 8856   0.288   0.495   3.635 -0.0195  1.1008 -0.7155
 2846SOL     OW 8857   3.796   5.038   4.845 -0.2292  0.7201  0.1320
 2846SOL    HW1 8858   3.699   5.014   4.840  0.2498 -1.8893  1.7171
 2846SOL    HW2 8859   3.843   5.003   4.764 -0.5292  1.8948 -0.5858
 2847SOL     OW 8860   1.627   5.108   0.188 -0.2013  0.2482 -0.5634
 2847SOL    HW1 8861   1.716   5.062   0.192  0.1060  0.8316 -0.5092
 2847SOL    HW2 8862   1.588   5.113   0.279 -0.0690  0.4089 -0.5150
 2848SOL     OW 8863   0.990   4.260   3.607  0.0744 -0.4638  0.7006
 2848SOL    HW1 8864   0.895   4.239   3.586  0.0495 -0.0772  0.4236
 2848SOL    HW2 8865   1.008   4.242   3.703 -0.8564  1.5828  1.3010
 2849SOL     OW 8866   2.605   0.598   4.078 -0.1149  0.4828 -0.0982
 2849SOL    HW1 8867   2.626   0.578   3.983 -1.1687  0.0837 -0.2629
 2849SOL    HW2 8868   2.682   0.646   4.120  1.0384 -0.7918 -0.6837
 2850SOL     OW 8869   4.233   4.801   2.574 -0.6726 -0.2497  0.7643
 2850SOL    HW1 8870   4.289   4.882   2.557  0.6995 -1.1859  0.6724
 2850SOL    HW2 8871   4.278   4.743   2.642 -2.3433 -0.2618  1.9398
 2851SOL     OW 8872   3.851   0.350   0.599 -0.1802 -0.0118  0.2224
 2851SOL    HW1 8873   3.942   0.391   0.604 -0.0196 -0.3256 -0.0529
 2851SOL    HW2 8874   3.789   0.399   0.660  0.1522  0.2568  0.3505
 2852SOL     OW 8875   3.387   0.398   5.250  0.1741  0.5075 -0.1155
 2852SOL    HW1 8876   3.366   0.383   5.346  1.7983  1.9456  0.5239
 2852SOL    HW2 8877   3.304   0.386   5.195 -0.6971 -0.7378  1.3795
 2853SOL     OW 8878   4.714   2.657   0.930  0.0813 -0.2783 -0.4440
 2853SOL    HW1 8879   4.811   2.678   0.912  0.3649 -0.1684  1.0459
 2853SOL    HW2 8880   4.658   2.733   0.898  0.5574 -0.0085 -0.6623
 2854SOL     OW 8881   1.380   1.022   2.336  0.4066  0.0598  1.0493
 2854SOL    HW1 8882   1.472   1.011   2.372  0.0895 -1.7693  1.4175
 2854SOL    HW2 8883   1.316   0.968   2.392 -0.3336 -1.6632 -1.2982
 2855SOL     OW 8884   4.182   5.313   3.725 -0.0287  0.1683  0.1457
 2855SOL    HW1 8885   4.165   5.397   3.775  0.1011  0.4085 -0.2079
 2855SOL    HW2 8886   4.100   5.288   3.673 -0.1365 -0.0378  0.4108
 2856SOL     OW 8887   0.473   4.601   3.982 -0.0120 -0.0400 -0.7744
 2856SOL    HW1 8888   0.456   4.674   3.916 -0.5244 -1.3804 -2.1812
 2856SOL    HW2 8889   0.395   4.594   4.044  0.3706  1.0759 -0.1392
 2857SOL     OW 8890   3.922   5.352   0.605 -0.1234  0.0662  0.2185
 2857SOL    HW1 8891   3.919   5.432   0.665 -1.8448  1.3234 -1.4177
 2857SOL    HW2 8892   4.012   5.345   0.564  0.5549  0.1738  1.6277
 2858SOL     OW 8893   2.816   3.568   2.007 -0.1905 -0.3401  0.0079
 2858SOL    HW1 8894   2.780   3.479   1.981  0.9760 -0.9117  0.2654
 2858SOL    HW2 8895   2.907   3.579   1.967 -0.5023  0.9298 -0.3910
 2859SOL     OW 8896   2.123   0.692   3.578  0.0031 -0.2795  0.2163
 2859SOL    HW1 8897   2.033   0.664   3.544 -0.1941  0.9707 -0.3234
 2859SOL    HW2 8898   2.148   0.781   3.540  1.6975 -0.8184 -0.0552
 2860SOL     OW 8899   5.471   2.240   3.971  0.1521 -0.2780 -0.8572
 2860SOL    HW1 8900   5.533   2.301   3.922  0.7245 -1.0808 -1.1548
 2860SOL    HW2 8901   5.427   2.290   4.046  0.7673  0.4358 -0.9614
 2861SOL     OW 8902   3.066   4.963   4.058  0.2954  0.6363 -0.3355
 2861SOL    HW1 8903   3.145   4.999   4.107 -0.2350  0.7570  0.4511
 2861SOL    HW2 8904   2.984   5.014   4.084 -0.3756 -0.7210  0.3440
 2862SOL     OW 8905   4.416   5.378   3.162 -0.4562  0.0417  0.0202
 2862SOL    HW1 8906   4.394   5.423   3.248 -0.7682 -0.9098  0.4557
 2862SOL    HW2 8907   4.343   5.314   3.138 -0.2028  0.0348 -0.7658
 2863SOL     OW 8908   1.105   0.810   0.939 -0.0410 -0.4035  0.5748
 2863SOL    HW1 8909   1.119   0.737   1.006  0.2141 -0.3380  0.5921
 2863SOL    HW2 8910   1.117   0.773   0.846 -0.5602 -0.5333  0.5546
 2864SOL     OW 8911   4.149   4.008   0.691  0.2120  0.8282  0.2445
 2864SOL    HW1 8912   4.120   4.046   0.604 -0.8463 -1.5320 -0.5028
 2864SOL    HW2 8913   4.074   4.012   0.757 -0.3308 -0.9248 -0.2102
 2865SOL     OW 8914   3.829   3.492   1.803  0.0737 -0.5179  0.2023
 2865SOL    HW1 8915   3.923   3.467   1.826  1.5372  4.6133  1.0307
 2865SOL    HW2 8916   3.818   3.493   1.704  0.9101 -1.0098  0.0965
 2866SOL     OW 8917   5.396   1.278   5.422 -0.3018  0.3925 -0.1236
 2866SOL    HW1 8918   5.339   1.262   5.342  0.7981 -1.4131 -0.6029
 2866SOL    HW2 8919   5.479   1.327   5.394 -0.4043  0.6859  0.0915
 2867SOL     OW 8920   3.895   0.276   1.353 -0.1026 -0.0359 -0.4275
 2867SOL    HW1 8921   3.907   0.375   1.363 -1.3059 -0.0272  1.6155
 2867SOL    HW2 8922   3.870   0.254   1.259  0.3554  1.5629 -0.9572
 2868SOL     OW 8923   5.019   1.999   2.806  0.0418  0.3513  0.8573
 2868SOL    HW1 8924   4.993   2.075   2.746 -0.5534  0.0439  0.7121
 2868SOL    HW2 8925   5.117   1.982   2.798  0.2407  1.3175  1.1429
 2869SOL     OW 8926   2.365   5.158   2.971 -0.1040 -0.4495  0.0597
 2869SOL    HW1 8927   2.323   5.243   2.939  1.8743  1.1945  1.5826
 2869SOL    HW2 8928   2.353   5.150   3.070  1.8620 -0.6443  0.3219
 2870SOL     OW 8929   0.006   2.984   3.058  0.2190 -0.4641  0.0754
 2870SOL    HW1 8930  -0.051   3.022   2.986  0.1771 -2.2922 -0.9153
 2870SOL    HW2 8931   0.097   3.026   3.056  0.0640 -0.1611 -0.7179
 2871SOL     OW 8932   2.608   5.019   3.047 -0.2401  0.9898 -0.0522
 2871SOL    HW1 8933   2.672   5.009   2.970 -0.9821  1.0966 -0.7007
 2871SOL    HW2 8934   2.532   5.077   3.019 -0.0805  1.7602  1.0612
 2872SOL     OW 8935   0.827   5.347   4.311  0.0775  0.2454 -0.6787
 2872SOL    HW1 8936   0.758   5.317   4.377 -0.6796 -2.4694 -2.5237
 2872SOL    HW2 8937   0.841   5.446   4.320 -2.9552  0.6766  0.7682
 2873SOL     OW 8938   5.516   3.843   2.129 -0.5394  0.4465 -1.0058
 2873SOL    HW1 8939   5.608   3.805   2.128  0.5403  2.9093 -0.7436
 2873SOL    HW2 8940   5.468   3.811   2.211  0.5776  0.2856 -0.3967
 2874SOL     OW 8941   3.736   4.593   3.840  0.3751  0.4140  0.2279
 2874SOL    HW1 8942   3.640   4.621   3.843  0.0829 -0.5001 -0.2856
 2874SOL    HW2 8943   3.752   4.524   3.910  0.9239  1.3121  1.0167
 2875SOL     OW 8944   3.139   5.050   0.461 -0.5442  0.0398 -0.2567
 2875SOL    HW1 8945   3.164   5.139   0.423  1.2451 -1.1169 -1.9257
 2875SOL    HW2 8946   3.215   4.986   0.452 -2.0934 -1.9674 -0.0006
 2876SOL     OW 8947   3.340   4.658   1.767 -0.4241 -0.4211 -0.0329
 2876SOL    HW1 8948   3.243   4.655   1.791  0.0694 -0.2597  2.2099
 2876SOL    HW2 8949   3.395   4.626   1.845  1.3406 -0.4142 -1.2040
 2877SOL     OW 8950   3.697   1.678   3.844 -0.1456  0.2903  0.4308
 2877SOL    HW1 8951   3.731   1.737   3.771 -0.3309  0.7678  0.7279
 2877SOL    HW2 8952   3.749   1.694   3.928 -0.8033  0.7032  0.7661
 2878SOL     OW 8953   1.695   1.393   4.495  0.4542 -0.5190  0.0984
 2878SOL    HW1 8954   1.775   1.448   4.472  0.0571  1.2121  2.4670
 2878SOL    HW2 8955   1.706   1.357   4.588 -1.5573 -0.1310  0.5228
 2879SOL     OW 8956   0.692   5.330   1.001  0.4066  0.0410 -0.2340
 2879SOL    HW1 8957   0.652   5.401   0.944 -0.2418 -0.8859 -0.9654
 2879SOL    HW2 8958   0.766   5.285   0.951  0.6568  0.0406  0.1340
 2880SOL     OW 8959   0.077   5.420   1.026 -0.5732  0.2117 -0.0467
 2880SOL    HW1 8960   0.063   5.515   0.997 -0.1479 -0.0062 -1.0119
 2880SOL    HW2 8961   0.059   5.412   1.124  2.3497  1.9471  0.7648
 2881SOL     OW 8962   0.038   0.910   0.872 -0.3267  0.4472 -0.0323
 2881SOL    HW1 8963   0.084   0.994   0.841 -0.3037  0.9418  1.3073
 2881SOL    HW2 8964  -0.056   0.909   0.836 -0.7254  1.6533  0.9067
 2882SOL     OW 8965   4.843   4.523   5.153  0.1520  0.1498 -0.0660
 2882SOL    HW1 8966   4.816   4.570   5.237  0.3646 -0.2626  0.2368
 2882SOL    HW2 8967   4.857   4.590   5.080  1.7204  0.6907  0.6878
 2883SOL     OW 8968   5.279   3.233   3.749  0.3661 -0.4832 -0.1959
 2883SOL    HW1 8969   5.263   3.322   3.792  0.5140 -1.1607  1.3242
 2883SOL    HW2 8970   5.194   3.200   3.708  0.3797  0.4733 -1.0337
 2884SOL     OW 8971   0.955   0.838   4.834 -0.1728  0.0076 -0.3357
 2884SOL    HW1 8972   0.947   0.739   4.824  1.9709 -0.4204  1.3365
 2884SOL    HW2 8973   1.051   0.863   4.850 -0.8675  2.1313  1.0996
 2885SOL     OW 8974   0.282   5.203   1.272 -0.2589  0.6712 -0.0661
 2885SOL    HW1 8975   0.294   5.129   1.339 -1.1385  0.4810 -0.1069
 2885SOL    HW2 8976   0.355   5.197   1.204 -0.3704 -0.2241 -0.1252
 2886SOL     OW 8977   3.273   1.469   0.827  0.1611 -0.0358  0.3753
 2886SOL    HW1 8978   3.303   1.522   0.748  0.2108  0.8370  0.9539
 2886SOL    HW2 8979   3.327   1.385   0.835 -0.2093 -0.3939 -0.8104
 2887SOL     OW 8980   4.522   0.100   3.611 -0.2081  0.5194  0.1575
 2887SOL    HW1 8981   4.472   0.070   3.530 -0.5438  1.1989  0.1063
 2887SOL    HW2 8982   4.611   0.138   3.583 -0.7293  1.6597  0.0041
 2888SOL     OW 8983   5.449   4.356   5.323  0.2037  0.6360  0.7318
 2888SOL    HW1 8984   5.501   4.349   5.238 -1.9149 -1.7044 -0.5126
 2888SOL    HW2 8985   5.359   4.395   5.304 -0.5038 -0.4177  1.7541
 2889SOL     OW 8986   3.871   5.029   0.864 -0.0331  0.5802  0.2477
 2889SOL    HW1 8987   3.951   5.064   0.913  0.9626  1.2998 -1.7631
 2889SOL    HW2 8988   3.884   4.931   0.847  0.8812  0.8584 -0.8069
 2890SOL     OW 8989   5.157   3.579   1.180 -0.2633  0.6500  0.0099
 2890SOL    HW1 8990   5.100   3.598   1.099 -0.1897 -2.0569 -0.7710
 2890SOL    HW2 8991   5.250   3.558   1.150 -0.9821 -3.8619  0.2601
 2891SOL     OW 8992   2.124   2.895   1.416  0.1523 -0.4263  0.0362
 2891SOL    HW1 8993   2.134   2.988   1.381  1.7377  0.1563  1.9044
 2891SOL    HW2 8994   2.056   2.893   1.489 -1.1945 -1.1396 -1.1680
 2892SOL     OW 8995   4.621   5.288   5.046 -0.5488 -0.1582 -0.1042
 2892SOL    HW1 8996   4.613   5.212   5.110 -1.1786  0.0674  0.0944
 2892SOL    HW2 8997   4.710   5.331   5.056 -0.3609 -0.5894  0.0961
 2893SOL     OW 8998   0.588   1.612   1.540 -0.2633  0.4602  0.1003
 2893SOL    HW1 8999   0.561   1.608   1.636 -0.4071 -0.6261  0.0287
 2893SOL    HW2 9000   0.635   1.528   1.515 -0.2287  0.7325 -0.7841
 2894SOL     OW 9001   2.191   4.887   3.789  0.1896  0.3338 -0.8351
 2894SOL    HW1 9002   2.283   4.850   3.804 -0.1646 -0.0983  0.3990
 2894SOL    HW2 9003   2.174   4.960   3.855 -0.3685  0.3986 -1.0473
 2895SOL     OW 9004   1.804   5.160   4.197  0.1005 -0.0418 -0.0537
 2895SOL    HW1 9005   1.817   5.248   4.244  1.8096  0.0147 -0.5773
 2895SOL    HW2 9006   1.811   5.174   4.098  0.6769 -0.8002 -0.1310
 2896SOL     OW 9007   5.465   2.717   3.935  0.5978  0.2037 -0.0297
 2896SOL    HW1 9008   5.392   2.781   3.912 -0.7350 -1.8111 -1.8293
 2896SOL    HW2 9009   5.532   2.714   3.862 -0.8098 -2.3194 -1.3707
 2897SOL     OW 9010   5.239   5.467   0.226 -0.4194  0.5571  0.1999
 2897SOL    HW1 9011   5.254   5.498   0.320  1.7613 -1.3013  0.5619
 2897SOL    HW2 9012   5.258   5.369   0.221 -1.7241  0.3598 -1.9596
 2898SOL     OW 9013   1.910   0.182   1.471  0.0373 -0.3295 -0.0709
 2898SOL    HW1 9014   1.959   0.095   1.473  0.0571 -0.3156  1.6797
 2898SOL    HW2 9015   1.907   0.217   1.378  2.9962 -0.5397 -0.3167
 2899SOL     OW 9016   2.238   3.068   0.063  0.2682  0.2187 -0.5373
 2899SOL    HW1 9017   2.210   3.078   0.158  2.5028 -1.2454  0.3642
 2899SOL    HW2 9018   2.172   3.010   0.015  0.7486 -1.7798  1.0530
 2900SOL     OW 9019   2.825   1.778   1.341 -0.1899 -0.5527 -0.7424
 2900SOL    HW1 9020   2.744   1.792   1.398 -0.2086 -0.4149 -0.8031
 2900SOL    HW2 9021   2.889   1.718   1.389 -1.5399 -3.0271 -1.8390
 2901SOL     OW 9022   3.861   3.634   4.413 -0.0381  0.1265  0.4116
 2901SOL    HW1 9023   3.873   3.581   4.496 -3.0814  0.9408  1.4965
 2901SOL    HW2 9024   3.853   3.731   4.436  1.1793  0.6515 -1.1113
 2902SOL     OW 9025   1.836   5.216   1.221 -0.5466 -0.2581  0.2984
 2902SOL    HW1 9026   1.746   5.175   1.238 -0.2134 -0.9342  0.4191
 2902SOL    HW2 9027   1.823   5.307   1.181 -1.2676 -1.0302 -1.2743
 2903SOL     OW 9028   3.897   1.907   1.624  0.0757 -0.4167  0.0932
 2903SOL    HW1 9029   3.990   1.909   1.659 -0.1745  0.0003  0.7663
 2903SOL    HW2 9030   3.856   1.998   1.630 -0.1205 -0.4323 -0.9173
 2904SOL     OW 9031   3.749   0.211   0.374  0.0284  0.5478 -0.9091
 2904SOL    HW1 9032   3.772   0.269   0.453  3.2466  0.0421 -1.3446
 2904SOL    HW2 9033   3.787   0.252   0.291  0.9706 -1.3636 -1.4568
 2905SOL     OW 9034   1.879   1.764   0.050  0.3613 -0.7986  0.8296
 2905SOL    HW1 9035   1.888   1.701  -0.026 -0.8346  1.1649 -1.0653
 2905SOL    HW2 9036   1.965   1.813   0.064 -0.2025  0.9774 -1.3672
 2906SOL     OW 9037   4.842   2.479   1.450  0.0275  0.4776  0.1710
 2906SOL    HW1 9038   4.773   2.540   1.412 -0.1964 -0.1587 -0.4457
 2906SOL    HW2 9039   4.902   2.531   1.511  0.5139  1.5693 -1.1863
 2907SOL     OW 9040   3.863   1.216   4.374  0.0953  0.1426  0.1602
 2907SOL    HW1 9041   3.876   1.234   4.276 -0.8043 -2.6514 -0.5732
 2907SOL    HW2 9042   3.768   1.234   4.399  0.4054  1.1856  0.6428
 2908SOL     OW 9043   0.834   1.526   2.607 -0.6262  0.0473  0.0912
 2908SOL    HW1 9044   0.819   1.437   2.564  0.2153 -0.4939  0.8841
 2908SOL    HW2 9045   0.766   1.541   2.678  0.4191 -0.8816  1.3361
 2909SOL     OW 9046   1.107   0.382   2.384  0.6131  0.2585  0.3653
 2909SOL    HW1 9047   1.049   0.314   2.339 -1.2589  1.9392  0.0918
 2909SOL    HW2 9048   1.061   0.415   2.467  0.4075  2.7228 -0.6413
 2910SOL     OW 9049   3.739   5.047   0.044 -0.1650  0.3880  0.1394
 2910SOL    HW1 9050   3.836   5.045   0.069 -0.5524 -1.9280  1.8183
 2910SOL    HW2 9051   3.710   5.142   0.031  2.2701  1.1492 -0.3169
 2911SOL     OW 9052   4.781   4.002   3.470  0.4524  0.3126  0.6954
 2911SOL    HW1 9053   4.767   3.942   3.548 -0.0970  0.3682  0.6395
 2911SOL    HW2 9054   4.704   4.066   3.462  0.8865  0.8303  0.5805
 2912SOL     OW 9055   4.028   0.363   3.044 -0.4730 -0.2615 -0.0978
 2912SOL    HW1 9056   3.955   0.365   2.976 -0.8730 -2.6498  0.1749
 2912SOL    HW2 9057   4.117   0.374   2.999 -0.7808 -0.9263 -0.8817
 2913SOL     OW 9058   3.070   3.571   0.408 -0.3668 -0.8093 -0.5039
 2913SOL    HW1 9059   2.988   3.628   0.399  0.0030 -0.5602 -3.1016
 2913SOL    HW2 9060   3.148   3.629   0.432 -0.4128 -0.5634 -0.9318
 2914SOL     OW 9061   2.975   4.931   2.054  0.2659  0.3682 -0.0064
 2914SOL    HW1 9062   2.889   4.942   2.004  1.1629 -0.9385 -1.9703
 2914SOL    HW2 9063   2.960   4.875   2.135 -0.7565  0.3278 -0.2140
 2915SOL     OW 9064   4.209   2.791   2.506  0.3778  0.2095  0.0035
 2915SOL    HW1 9065   4.115   2.824   2.511  0.0263  0.0548 -3.1740
 2915SOL    HW2 9066   4.209   2.691   2.506  0.4685  0.2065 -0.5375
 2916SOL     OW 9067   4.094   1.415   3.180 -0.3994  0.7678 -0.2072
 2916SOL    HW1 9068   4.007   1.437   3.135 -0.7806  1.1469  0.6956
 2916SOL    HW2 9069   4.079   1.345   3.250  0.0971  0.5421 -0.3218
 2917SOL     OW 9070   4.125   4.992   4.916  0.3986 -0.3205  0.4787
 2917SOL    HW1 9071   4.112   5.018   4.820 -0.6861  1.3674  1.0380
 2917SOL    HW2 9072   4.151   5.073   4.969  1.1484 -1.2660  1.5867
 2918SOL     OW 9073   1.016   0.848   3.567 -0.0684  0.6519 -0.1810
 2918SOL    HW1 9074   0.953   0.772   3.582  0.4412  0.2132 -0.2165
 2918SOL    HW2 9075   0.967   0.925   3.527 -1.1325  1.2526  2.1198
 2919SOL     OW 9076   2.169   1.976   5.155  0.1513  0.5138  0.4352
 2919SOL    HW1 9077   2.170   1.902   5.088  2.5539  0.2516  0.6922
 2919SOL    HW2 9078   2.094   2.039   5.134 -1.8061 -1.8078  0.0669
 2920SOL     OW 9079   4.689   2.048   0.662 -0.3733  0.2498 -0.6205
 2920SOL    HW1 9080   4.706   2.138   0.623 -0.8496  0.8609  0.5680
 2920SOL    HW2 9081   4.609   2.007   0.619 -2.2768  1.8670  1.2058
 2921SOL     OW 9082   4.891   2.067   1.115  0.2693 -0.3486  0.2119
 2921SOL    HW1 9083   4.802   2.021   1.111  0.7960 -1.3915  0.3534
 2921SOL    HW2 9084   4.877   2.166   1.104 -0.9124 -0.4856  0.3307
 2922SOL     OW 9085   0.707   4.619   0.624 -0.7566  0.0514  0.3736
 2922SOL    HW1 9086   0.722   4.535   0.571  0.1963  0.9415 -0.8584
 2922SOL    HW2 9087   0.661   4.598   0.710  1.5797 -2.0897  1.2333
 2923SOL     OW 9088   5.485   3.065   4.911  0.2285  0.0399 -0.0907
 2923SOL    HW1 9089   5.475   3.141   4.976 -1.7463  0.4433 -0.8069
 2923SOL    HW2 9090   5.559   3.085   4.847  0.7716  0.6100  0.6934
 2924SOL     OW 9091   2.753   2.351   5.060  0.2154  0.0724  0.4838
 2924SOL    HW1 9092   2.693   2.303   4.996  0.7432 -0.0913  0.1040
 2924SOL    HW2 9093   2.837   2.379   5.013  0.8469 -0.5174  1.2097
 2925SOL     OW 9094   4.146   0.033   3.815 -0.3531 -0.2926  0.1665
 2925SOL    HW1 9095   4.049   0.057   3.828 -0.3193  0.7557 -1.2271
 2925SOL    HW2 9096   4.202   0.115   3.821  0.5599 -0.9925  1.6418
 2926SOL     OW 9097   1.246   2.011   2.153  0.5272 -0.0147  0.1819
 2926SOL    HW1 9098   1.236   2.104   2.187  0.4922  0.0778 -0.0821
 2926SOL    HW2 9099   1.169   1.989   2.093  0.8557  0.0025 -0.2504
 2927SOL     OW 9100   3.874   2.744   3.052  0.2344 -0.4081  0.3503
 2927SOL    HW1 9101   3.818   2.824   3.030  0.6592 -0.3043 -0.3837
 2927SOL    HW2 9102   3.942   2.769   3.122 -0.2634 -0.3893  0.8338
 2928SOL     OW 9103   3.206   2.230   2.373  0.4276 -0.1775  0.8133
 2928SOL    HW1 9104   3.135   2.186   2.428  0.7615 -2.0674 -0.2089
 2928SOL    HW2 9105   3.295   2.193   2.398  0.6038 -0.9081 -0.8347
 2929SOL     OW 9106   5.490   3.551   3.589  0.6569 -0.6450 -0.0828
 2929SOL    HW1 9107   5.546   3.513   3.662  0.4766 -1.1056 -0.1820
 2929SOL    HW2 9108   5.399   3.509   3.591  0.3704 -0.0401 -0.0376
 2930SOL     OW 9109   3.961   3.570   3.537 -0.1022 -0.1346  0.3816
 2930SOL    HW1 9110   3.862   3.555   3.545 -0.2976  0.2536 -1.0183
 2930SOL    HW2 9111   3.995   3.526   3.454  0.8931 -0.1800  0.7968
 2931SOL     OW 9112   3.150   3.412   4.262 -0.2318  0.1069  0.1511
 2931SOL    HW1 9113   3.111   3.500   4.290 -1.9219 -0.3544 -0.6714
 2931SOL    HW2 9114   3.232   3.428   4.206 -1.1525  1.1920 -0.9304
 2932SOL     OW 9115   0.169   4.195   4.542  0.3440  0.3665  0.1396
 2932SOL    HW1 9116   0.171   4.234   4.450 -1.4157 -0.6580 -0.3722
 2932SOL    HW2 9117   0.258   4.208   4.585  0.6338  2.5676 -0.9701
 2933SOL     OW 9118   4.571   0.847   3.674 -0.3309  0.0750  0.2596
 2933SOL    HW1 9119   4.596   0.930   3.624 -0.4646 -0.3672 -0.5588
 2933SOL    HW2 9120   4.621   0.769   3.635  0.4857 -0.1047  1.5941
 2934SOL     OW 9121   5.548   1.743   0.762  0.5515 -0.6004  0.1681
 2934SOL    HW1 9122   5.483   1.694   0.820  0.9231 -0.8382  0.3947
 2934SOL    HW2 9123   5.593   1.814   0.816  0.7581 -0.6938  0.1202
 2935SOL     OW 9124   3.161   5.403   5.014 -0.2794 -0.0120 -0.3221
 2935SOL    HW1 9125   3.209   5.402   5.102 -0.9100 -1.8811  0.0571
 2935SOL    HW2 9126   3.062   5.402   5.031 -0.4248  1.0504 -1.0744
 2936SOL     OW 9127   1.889   5.486   2.150 -0.3250  0.0606  0.8202
 2936SOL    HW1 9128   1.907   5.508   2.054  0.1288  0.8216  1.0736
 2936SOL    HW2 9129   1.975   5.465   2.196 -0.6585 -1.4701  0.7951
 2937SOL     OW 9130   0.683   4.347   0.504 -0.1356  0.3317 -0.3308
 2937SOL    HW1 9131   0.672   4.249   0.485  0.8800  0.3607 -1.2299
 2937SOL    HW2 9132   0.764   4.380   0.455  0.5261  1.2504  1.3282
 2938SOL     OW 9133   3.639   0.040   3.265 -0.0618  0.1969  0.5759
 2938SOL    HW1 9134   3.721   0.066   3.214 -0.0414  0.2685  0.6450
 2938SOL    HW2 9135   3.661   0.034   3.362 -0.6884  2.6500  0.9420
 2939SOL     OW 9136   5.304   0.930   3.395  0.7350  0.2672  0.3535
 2939SOL    HW1 9137   5.386   0.940   3.338  0.6902  0.5594  0.3393
 2939SOL    HW2 9138   5.224   0.914   3.336  1.0571 -1.9940  0.4357
 2940SOL     OW 9139   0.095   3.708   3.428  0.0457  0.3086 -0.1684
 2940SOL    HW1 9140   0.053   3.648   3.496  0.8989 -2.0183 -1.5377
 2940SOL    HW2 9141   0.167   3.762   3.470  0.1555 -0.6305  0.8951
 2941SOL     OW 9142   1.248   0.194   2.722 -0.4160 -1.0110  0.2123
 2941SOL    HW1 9143   1.244   0.294   2.722 -0.2436 -1.0048  0.3144
 2941SOL    HW2 9144   1.155   0.157   2.735 -0.3280 -0.8541  1.3845
 2942SOL     OW 9145   1.202   1.754   4.880 -0.4047  0.0043 -0.0605
 2942SOL    HW1 9146   1.111   1.740   4.920 -1.0197  3.5050  0.1577
 2942SOL    HW2 9147   1.272   1.721   4.943 -1.4222 -3.4671 -0.5646
 2943SOL     OW 9148   2.277   3.059   4.865  0.1778  0.1619 -0.7429
 2943SOL    HW1 9149   2.312   3.153   4.877  1.5399 -0.3046 -0.8496
 2943SOL    HW2 9150   2.335   2.996   4.917 -2.4696 -0.3686  1.8566
 2944SOL     OW 9151   1.880   4.972   4.372  0.4968  0.0547  0.2013
 2944SOL    HW1 9152   1.830   5.025   4.304  0.0462  0.8122  1.0930
 2944SOL    HW2 9153   1.886   5.024   4.457 -0.3842 -1.5017  1.2787
 2945SOL     OW 9154   5.492   4.804   1.325  0.0300 -0.1302 -0.0834
 2945SOL    HW1 9155   5.589   4.780   1.320  0.1308 -0.0332  1.1177
 2945SOL    HW2 9156   5.436   4.723   1.304  0.3648 -0.3678 -0.0610
 2946SOL     OW 9157   4.112   3.387   0.474 -0.4998 -0.1459 -0.5388
 2946SOL    HW1 9158   4.089   3.482   0.496 -1.2016 -0.6394  0.9424
 2946SOL    HW2 9159   4.028   3.337   0.453 -0.5565 -1.2233  1.9425
 2947SOL     OW 9160   2.727   4.971   1.964 -0.1380  0.0972  0.5898
 2947SOL    HW1 9161   2.674   4.896   1.925  1.4261 -0.6518 -0.1849
 2947SOL    HW2 9162   2.670   5.022   2.028 -2.1370  0.0150 -0.9966
 2948SOL     OW 9163   0.780   5.472   2.336  0.2267  0.1853  0.0907
 2948SOL    HW1 9164   0.681   5.457   2.330 -0.1970  2.3746  0.5955
 2948SOL    HW2 9165   0.827   5.413   2.270 -1.1915 -2.3499  1.1876
 2949SOL     OW 9166   4.675   1.487   1.824 -0.3963 -0.4296 -0.3737
 2949SOL    HW1 9167   4.670   1.498   1.724 -0.9224  1.9745 -0.1308
 2949SOL    HW2 9168   4.760   1.440   1.847 -0.8043 -2.1193 -1.9895
 2950SOL     OW 9169   5.577   2.505   1.959 -0.4545  0.4774 -0.4483
 2950SOL    HW1 9170   5.523   2.570   2.012  0.7544 -1.2804  3.3248
 2950SOL    HW2 9171   5.521   2.424   1.939 -0.2751  0.1908  0.1965
 2951SOL     OW 9172   0.561   3.023   3.426  0.3514  0.0094 -0.2085
 2951SOL    HW1 9173   0.609   2.962   3.488  0.5605 -0.7989 -1.1318
 2951SOL    HW2 9174   0.610   3.026   3.338  0.3256  1.4833 -0.1940
 2952SOL     OW 9175   4.577   5.286   0.008  0.0564 -0.3407 -0.6718
 2952SOL    HW1 9176   4.641   5.358  -0.018  2.0434 -0.6608  2.7942
 2952SOL    HW2 9177   4.511   5.322   0.073  1.6346 -1.6987  1.8221
 2953SOL     OW 9178   0.499   1.506   1.149  0.1999  0.3039 -0.1877
 2953SOL    HW1 9179   0.583   1.457   1.168  0.8558  1.9798  1.5997
 2953SOL    HW2 9180   0.520   1.601   1.126 -1.1514  0.6036 -0.2948
 2954SOL     OW 9181   2.791   3.183   4.185 -0.8975 -0.0332 -0.2083
 2954SOL    HW1 9182   2.701   3.139   4.179 -0.2472 -1.2713 -1.4585
 2954SOL    HW2 9183   2.862   3.114   4.171  0.3014  0.7527  1.6203
 2955SOL     OW 9184   2.117   1.060   0.442  0.0682  0.9830  0.2712
 2955SOL    HW1 9185   2.061   1.121   0.499 -0.5677  0.6170  0.0495
 2955SOL    HW2 9186   2.057   1.004   0.384  0.6995  1.5510 -0.9779
 2956SOL     OW 9187   3.848   0.163   3.107 -0.4392  0.2698  0.2416
 2956SOL    HW1 9188   3.819   0.139   3.014 -0.7397  0.0131  0.3967
 2956SOL    HW2 9189   3.944   0.191   3.106 -0.4633  0.3448 -0.1586
 2957SOL     OW 9190   5.369   2.874   3.258 -0.2170 -0.2825 -0.0947
 2957SOL    HW1 9191   5.291   2.904   3.204 -0.0178 -0.3528 -0.4299
 2957SOL    HW2 9192   5.454   2.903   3.212 -0.0182 -1.4868 -0.5047
 2958SOL     OW 9193   0.686   0.370   5.287  0.5475 -1.0396 -0.7141
 2958SOL    HW1 9194   0.707   0.376   5.190  2.0400  1.4606 -0.3079
 2958SOL    HW2 9195   0.613   0.434   5.310  1.1374 -0.6084  0.0245
 2959SOL     OW 9196   0.398   2.687   1.893  0.2040  0.1485  0.0152
 2959SOL    HW1 9197   0.307   2.728   1.898 -0.5738 -1.5990  3.1687
 2959SOL    HW2 9198   0.458   2.730   1.960  1.0900 -0.0584 -0.6313
 2960SOL     OW 9199   4.295   3.648   0.049  1.1349  0.3409  0.0727
 2960SOL    HW1 9200   4.294   3.572   0.114  1.4275  0.1285 -0.1745
 2960SOL    HW2 9201   4.201   3.677   0.031  1.0494  0.3956  0.5827
 2961SOL     OW 9202   4.745   0.131   3.145  0.1094  0.3350 -0.1386
 2961SOL    HW1 9203   4.840   0.136   3.112  0.0485 -0.2645 -0.4098
 2961SOL    HW2 9204   4.740   0.065   3.220 -0.1228  0.2625 -0.2190
 2962SOL     OW 9205   5.366   1.751   4.965  0.0228 -0.3451  0.0368
 2962SOL    HW1 9206   5.287   1.796   5.007  0.4711 -0.1086  0.6350
 2962SOL    HW2 9207   5.345   1.655   4.949  0.3996 -0.8571  2.3285
 2963SOL     OW 9208   2.903   0.346   3.454 -0.6832 -0.1639  0.4879
 2963SOL    HW1 9209   2.843   0.357   3.375 -1.9063  0.0001  1.4056
 2963SOL    HW2 9210   2.848   0.347   3.538  0.7213  1.1411  1.4409
 2964SOL     OW 9211   2.186   0.071   1.796 -0.4450  0.1570 -0.2780
 2964SOL    HW1 9212   2.109   0.018   1.832  0.9642 -0.9448  1.3006
 2964SOL    HW2 9213   2.200   0.151   1.854  0.5182 -0.4802  0.4050
 2965SOL     OW 9214   3.802   2.326   2.964 -0.6014 -0.4744  0.6560
 2965SOL    HW1 9215   3.725   2.340   3.025 -0.0604  1.5338  0.9502
 2965SOL    HW2 9216   3.851   2.413   2.951  1.3037 -1.5724  0.0699
 2966SOL     OW 9217   4.923   0.746   5.070 -0.1184  0.8225  0.2195
 2966SOL    HW1 9218   5.021   0.741   5.053 -0.2214  1.9100 -0.8203
 2966SOL    HW2 9219   4.898   0.840   5.092 -0.8431  0.4365  1.1299
 2967SOL     OW 9220   4.122   1.213   2.566 -0.0105 -0.1945 -0.5464
 2967SOL    HW1 9221   4.134   1.138   2.631  0.0733 -1.3162 -1.8090
 2967SOL    HW2 9222   4.103   1.176   2.475 -5.8578  1.2419 -0.2942
 2968SOL     OW 9223   2.364   2.742   5.340  0.1786 -0.6057 -0.4030
 2968SOL    HW1 9224   2.386   2.675   5.411 -0.5483 -2.0387 -1.4784
 2968SOL    HW2 9225   2.340   2.694   5.256 -1.4937  0.9804 -0.8868
 2969SOL     OW 9226   3.024   0.638   0.210 -0.2326  0.1846 -0.4449
 2969SOL    HW1 9227   2.928   0.661   0.198  0.4502  2.7717 -1.6624
 2969SOL    HW2 9228   3.058   0.678   0.295 -0.2014 -0.7228 -0.0167
 2970SOL     OW 9229   3.152   3.797   3.182  0.6686  0.3780  0.2228
 2970SOL    HW1 9230   3.170   3.704   3.148 -1.1596  0.2122 -0.4300
 2970SOL    HW2 9231   3.130   3.793   3.280 -1.9473 -0.3218 -0.3014
 2971SOL     OW 9232   2.140   5.389   3.773 -0.2764 -0.6609 -0.1176
 2971SOL    HW1 9233   2.131   5.398   3.674  1.1888  1.3096 -0.1102
 2971SOL    HW2 9234   2.208   5.453   3.807 -1.6972 -0.3321  2.3539
 2972SOL     OW 9235   2.633   0.696   0.454 -0.4009  0.4483 -0.0670
 2972SOL    HW1 9236   2.543   0.652   0.445 -0.2434  0.1138 -0.0108
 2972SOL    HW2 9237   2.639   0.772   0.389 -1.6381  2.0322  1.5700
 2973SOL     OW 9238   5.471   1.061   4.157 -0.6171  0.1921 -0.4084
 2973SOL    HW1 9239   5.397   1.124   4.131 -0.4005  1.8360  2.5045
 2973SOL    HW2 9240   5.491   1.073   4.254  1.0325 -2.8400 -0.2768
 2974SOL     OW 9241   1.479   5.425   3.043  0.0889  0.2525  0.1326
 2974SOL    HW1 9242   1.455   5.507   2.991  0.5280  0.5215  0.3505
 2974SOL    HW2 9243   1.415   5.414   3.119 -0.5428 -0.1276 -0.4323
 2975SOL     OW 9244   4.732   2.990   4.341  0.4958 -0.2656  0.8073
 2975SOL    HW1 9245   4.699   2.943   4.423  1.5064 -0.1401  1.2928
 2975SOL    HW2 9246   4.663   3.057   4.311  0.7965  0.8469  2.5049
 2976SOL     OW 9247   2.440   2.444   4.343 -0.0326  0.2194  0.3237
 2976SOL    HW1 9248   2.431   2.357   4.294 -0.8012 -0.9220  2.3596
 2976SOL    HW2 9249   2.367   2.506   4.314 -0.3096 -0.3265 -0.1761
 2977SOL     OW 9250   3.396   2.533   0.142 -0.5389 -0.3190 -0.1788
 2977SOL    HW1 9251   3.426   2.552   0.048  1.8761  0.3236  0.6389
 2977SOL    HW2 9252   3.401   2.435   0.159  0.4834 -0.2968 -0.2942
 2978SOL     OW 9253   3.549   2.104   0.080 -0.2156 -0.0259  0.2749
 2978SOL    HW1 9254   3.620   2.149   0.026 -0.4200  0.1354  0.1378
 2978SOL    HW2 9255   3.537   2.010   0.047 -3.3735  1.2561 -3.0410
 2979SOL     OW 9256   1.837   1.159   2.149  0.2618  0.1331  0.5091
 2979SOL    HW1 9257   1.904   1.231   2.130 -0.1403  0.6496  1.0045
 2979SOL    HW2 9258   1.773   1.152   2.073  1.3815 -0.9620 -0.3651
 2980SOL     OW 9259   4.787   4.116   2.904 -0.1896  0.9369  0.2090
 2980SOL    HW1 9260   4.794   4.126   3.003  1.1359 -0.5273  0.3064
 2980SOL    HW2 9261   4.867   4.159   2.860 -0.7419  1.5358 -0.2326
 2981SOL     OW 9262   2.050   1.665   3.150 -0.0857 -0.0297  0.1221
 2981SOL    HW1 9263   1.988   1.611   3.206 -2.8900 -0.5359 -3.1576
 2981SOL    HW2 9264   2.023   1.761   3.152  0.2613  0.0689  0.1948
 2982SOL     OW 9265   2.511   0.584   4.497  0.0641 -0.1947  0.2482
 2982SOL    HW1 9266   2.576   0.631   4.557 -0.2305  0.2694  0.2062
 2982SOL    HW2 9267   2.449   0.529   4.551 -0.0498  0.0362  0.3532
 2983SOL     OW 9268   5.067   2.867   2.177 -0.1322 -0.5626  0.2813
 2983SOL    HW1 9269   5.000   2.938   2.157 -1.7436 -1.5219  1.9658
 2983SOL    HW2 9270   5.153   2.908   2.207 -0.4811  0.6750 -0.3824
 2984SOL     OW 9271   2.871   1.661   5.100  0.7503 -0.5142  0.6125
 2984SOL    HW1 9272   2.772   1.645   5.108  0.9224 -2.2730 -0.4259
 2984SOL    HW2 9273   2.895   1.670   5.003  1.6689 -0.4950  0.8376
 2985SOL     OW 9274   0.297   2.770   1.539 -0.0055  0.0528 -0.1331
 2985SOL    HW1 9275   0.350   2.686   1.539  0.8477  0.5137 -2.3764
 2985SOL    HW2 9276   0.219   2.761   1.477  0.1772  0.9416 -0.5153
 2986SOL     OW 9277   1.488   1.347   5.052 -0.2452 -0.6601 -0.0322
 2986SOL    HW1 9278   1.424   1.326   5.125 -0.7064 -0.5083 -0.3831
 2986SOL    HW2 9279   1.488   1.272   4.985  1.5368 -1.6685  1.0245
 2987SOL     OW 9280   0.392   4.493   2.679  1.0541 -0.2761  0.7174
 2987SOL    HW1 9281   0.353   4.581   2.652  1.2697 -0.4305 -0.1531
 2987SOL    HW2 9282   0.492   4.498   2.676  1.0955 -0.2227  1.7967
 2988SOL     OW 9283   4.392   1.106   0.957 -0.5437 -0.2717 -0.0723
 2988SOL    HW1 9284   4.428   1.152   1.038 -0.4771 -0.3465 -0.0583
 2988SOL    HW2 9285   4.344   1.172   0.899 -1.1489 -0.3396  0.3401
 2989SOL     OW 9286   0.586   3.445   3.212  0.2186 -0.3726  0.2082
 2989SOL    HW1 9287   0.657   3.375   3.209  0.7468  0.0851  1.1942
 2989SOL    HW2 9288   0.596   3.506   3.133  0.9102 -0.3309  0.3223
 2990SOL     OW 9289   4.404   3.905   3.627 -0.1340  0.0255  0.4029
 2990SOL    HW1 9290   4.366   3.820   3.591 -1.2716  0.6619  0.0249
 2990SOL    HW2 9291   4.403   3.902   3.727 -0.8109 -0.1453  0.3984
 2991SOL     OW 9292   1.268   5.480   3.992 -0.0859 -0.1204  0.3312
 2991SOL    HW1 9293   1.276   5.429   4.078 -0.6571 -0.2361  0.3200
 2991SOL    HW2 9294   1.197   5.438   3.936 -0.8394  0.9260  0.4809
 2992SOL     OW 9295   5.449   1.816   4.690 -0.4860  0.5808  0.2467
 2992SOL    HW1 9296   5.545   1.793   4.674 -0.7481 -1.1076  0.9010
 2992SOL    HW2 9297   5.415   1.765   4.769 -2.1265  0.6174 -0.3963
 2993SOL     OW 9298   2.567   0.608   0.952  0.3824 -0.2598 -0.0201
 2993SOL    HW1 9299   2.639   0.616   0.884  0.2130 -1.2607 -0.3349
 2993SOL    HW2 9300   2.539   0.512   0.960 -1.6876  0.2204 -0.7244
 2994SOL     OW 9301   1.530   1.193   1.434 -0.1914  0.3106  0.5653
 2994SOL    HW1 9302   1.573   1.120   1.487 -1.8005 -0.8916  0.3079
 2994SOL    HW2 9303   1.473   1.153   1.362 -2.7721  1.6958  1.6736
 2995SOL     OW 9304   1.871   2.850   2.740  0.3571  0.2436  0.5355
 2995SOL    HW1 9305   1.833   2.875   2.829  0.9126  1.3166  0.4974
 2995SOL    HW2 9306   1.894   2.753   2.739  0.4492  0.2450  1.6020
 2996SOL     OW 9307   4.685   4.394   4.978  0.8291  0.5497  0.0303
 2996SOL    HW1 9308   4.598   4.444   4.984 -0.4755 -1.3734 -1.3526
 2996SOL    HW2 9309   4.751   4.433   5.042 -0.9320  2.2991  0.8882
 2997SOL     OW 9310   4.844   1.225   0.457  0.2285  0.1666  0.3372
 2997SOL    HW1 9311   4.753   1.187   0.446  0.6012 -0.4760 -0.5998
 2997SOL    HW2 9312   4.846   1.318   0.418  0.5727 -0.7146 -1.9048
 2998SOL     OW 9313   2.432   5.205   5.157 -0.0936  0.2440  0.4920
 2998SOL    HW1 9314   2.373   5.171   5.229  0.6262 -1.3448  0.3728
 2998SOL    HW2 9315   2.404   5.165   5.069  1.1515 -0.5847  0.4451
 2999SOL     OW 9316   3.524   2.253   1.204  0.2254  0.2456  0.0529
 2999SOL    HW1 9317   3.438   2.298   1.231  0.9837  0.4117  2.4618
 2999SOL    HW2 9318   3.504   2.175   1.145 -1.3664  1.7617 -1.5175
 3000SOL     OW 9319   0.052   5.019   3.263 -0.0808 -0.0419  0.1931
 3000SOL    HW1 9320   0.124   5.015   3.193  0.1264 -0.4035  0.4246
 3000SOL    HW2 9321   0.021   4.927   3.285  0.3599  0.0042  1.0878
 3001SOL     OW 9322   3.591   2.619   4.299  0.6735 -0.2717 -0.1892
 3001SOL    HW1 9323   3.600   2.679   4.219 -0.2130  1.0516  0.6604
 3001SOL    HW2 9324   3.571   2.526   4.269  1.1707  0.0253 -1.5195
 3002SOL     OW 9325   1.356   0.177   1.919 -0.1274 -0.0586 -0.3962
 3002SOL    HW1 9326   1.334   0.172   1.821  0.6735 -1.2513 -0.5381
 3002SOL    HW2 9327   1.424   0.108   1.941 -1.8446 -1.2817  1.4390
 3003SOL     OW 9328   1.261   3.220   2.074  0.5485  0.0290  0.1854
 3003SOL    HW1 9329   1.341   3.160   2.065  1.1748  0.7786  0.5225
 3003SOL    HW2 9330   1.261   3.287   1.999  0.6590  0.4864  0.5821
 3004SOL     OW 9331   5.144   2.252   1.995  0.3069 -0.3378  0.7022
 3004SOL    HW1 9332   5.103   2.230   1.906 -0.1515  0.4214  0.7093
 3004SOL    HW2 9333   5.135   2.174   2.056 -0.4803 -0.4443  0.4637
 3005SOL     OW 9334   1.766   3.653   5.447  0.3522 -0.1560  0.9780
 3005SOL    HW1 9335   1.841   3.701   5.493  0.5350  0.2156  0.3042
 3005SOL    HW2 9336   1.803   3.578   5.392  0.0973 -0.8660  1.7516
 3006SOL     OW 9337   2.726   3.782   1.089  0.2904 -0.4817  0.3389
 3006SOL    HW1 9338   2.805   3.843   1.082  0.0949 -0.1901  0.6527
 3006SOL    HW2 9339   2.689   3.765   0.998 -0.3967  0.8484  0.3523
 3007SOL     OW 9340   1.042   2.530   2.911  0.8676  0.3350  0.0772
 3007SOL    HW1 9341   1.084   2.538   3.001  0.8477  2.1849 -0.0399
 3007SOL    HW2 9342   0.945   2.555   2.917  0.1592 -2.1186  0.0007
 3008SOL     OW 9343   5.112   1.638   2.937  0.3274 -0.1568  0.3242
 3008SOL    HW1 9344   5.019   1.639   2.901  0.7906 -1.7244 -1.0819
 3008SOL    HW2 9345   5.128   1.721   2.991 -0.9344  1.6294 -1.8511
 3009SOL     OW 9346   2.383   2.664   4.729  0.0917 -0.0488  0.1491
 3009SOL    HW1 9347   2.364   2.739   4.665  0.8463 -1.1842 -1.4669
 3009SOL    HW2 9348   2.305   2.654   4.791 -0.3466  1.5729 -0.0781
 3010SOL     OW 9349   4.184   4.056   2.191  0.1644  0.7198 -0.6975
 3010SOL    HW1 9350   4.212   4.037   2.285  0.8502  0.8428 -0.8726
 3010SOL    HW2 9351   4.254   4.022   2.128 -0.5146  0.1897 -1.1923
 3011SOL     OW 9352   1.410   1.109   3.850  0.3189  0.1862 -0.2139
 3011SOL    HW1 9353   1.394   1.078   3.756 -0.2047 -0.4828  0.0856
 3011SOL    HW2 9354   1.450   1.201   3.849 -3.3381  1.9262 -1.0233
 3012SOL     OW 9355   0.012   3.344   3.218 -0.7953  0.1778 -0.0611
 3012SOL    HW1 9356   0.024   3.442   3.202 -2.1721  0.1958 -1.1464
 3012SOL    HW2 9357  -0.002   3.297   3.131  1.9682 -1.3631  0.1806
 3013SOL     OW 9358   3.106   5.338   1.243 -0.3558 -0.4662 -0.0190
 3013SOL    HW1 9359   3.132   5.243   1.257  0.6555 -0.1080  0.6240
 3013SOL    HW2 9360   3.037   5.343   1.170 -0.4020 -1.6718 -0.0850
 3014SOL     OW 9361   5.352   4.938   5.035 -0.0247 -0.0648  0.7194
 3014SOL    HW1 9362   5.336   4.845   5.065 -0.6341 -1.0238 -2.2228
 3014SOL    HW2 9363   5.445   4.947   5.000 -0.1293  0.2956  0.5223
 3015SOL     OW 9364   5.156   4.311   3.270  0.0021 -0.2050 -0.5586
 3015SOL    HW1 9365   5.113   4.374   3.335  0.7020  0.7405 -0.9785
 3015SOL    HW2 9366   5.196   4.234   3.319  0.0028  0.1910  0.0727
 3016SOL     OW 9367   4.973   1.257   0.694  0.4673 -0.6014  0.4746
 3016SOL    HW1 9368   5.070   1.237   0.706  0.8153 -0.0691 -1.0962
 3016SOL    HW2 9369   4.941   1.213   0.610 -1.1135 -2.2258  1.8768
 3017SOL     OW 9370   2.142   3.988   5.490 -0.3838  0.3621 -0.1852
 3017SOL    HW1 9371   2.241   3.991   5.501 -0.5052  0.8828  0.9424
 3017SOL    HW2 9372   2.103   4.077   5.517 -1.0549  0.6130 -1.8724
 3018SOL     OW 9373   4.471   4.377   4.415  0.2871  0.5031 -0.5777
 3018SOL    HW1 9374   4.542   4.443   4.390  0.6883  0.3345  0.1071
 3018SOL    HW2 9375   4.434   4.401   4.505  1.2435 -0.8676  0.2076
 3019SOL     OW 9376   0.941   4.718   2.052  0.0371  0.1967 -0.2063
 3019SOL    HW1 9377   0.956   4.795   1.991 -1.1293  1.4768  1.0391
 3019SOL    HW2 9378   1.020   4.707   2.113  1.8521 -1.9666 -2.6911
 3020SOL     OW 9379   1.613   4.369   4.514  0.4021 -0.0030 -0.2921
 3020SOL    HW1 9380   1.644   4.391   4.422  1.4735 -0.5155 -0.0660
 3020SOL    HW2 9381   1.514   4.384   4.521  0.1620 -0.7702 -1.7548
 3021SOL     OW 9382   0.404   0.028   1.094  0.2841 -0.0232 -0.1338
 3021SOL    HW1 9383   0.338  -0.042   1.119 -0.6553  1.3819  1.4567
 3021SOL    HW2 9384   0.455   0.057   1.175  1.2051  0.6160 -0.9118
 3022SOL     OW 9385   3.066   4.694   3.985  0.0422 -0.1813 -0.1965
 3022SOL    HW1 9386   3.070   4.791   4.009  1.9533  0.7087 -3.4717
 3022SOL    HW2 9387   3.158   4.654   3.993 -0.5360 -1.4803  0.1950
 3023SOL     OW 9388   1.688   3.239   0.777 -0.0873 -0.1173 -0.1482
 3023SOL    HW1 9389   1.645   3.326   0.751 -1.1630 -0.1906  1.2961
 3023SOL    HW2 9390   1.784   3.255   0.799  0.1188  0.4259 -1.3252
 3024SOL     OW 9391   0.557   1.536   0.382  0.0453  0.2023 -0.6384
 3024SOL    HW1 9392   0.546   1.455   0.438  0.7679  0.9524  0.6220
 3024SOL    HW2 9393   0.488   1.535   0.309 -1.3114 -0.5186  0.5880
 3025SOL     OW 9394   5.148   3.454   0.004  0.5676 -0.1475 -0.7757
 3025SOL    HW1 9395   5.219   3.407   0.057  0.0520  0.3704  0.4240
 3025SOL    HW2 9396   5.103   3.523   0.062 -0.1091  0.3622 -1.8655
 3026SOL     OW 9397   1.254   3.891   0.593  0.3071 -0.1300 -0.2873
 3026SOL    HW1 9398   1.185   3.921   0.660  0.3875  1.0809 -0.7264
 3026SOL    HW2 9399   1.344   3.925   0.620  0.6535 -1.1842 -0.0519
 3027SOL     OW 9400   5.281   3.692   1.452 -0.0187 -0.5359  0.4298
 3027SOL    HW1 9401   5.276   3.593   1.434  0.6222 -0.4641 -0.1878
 3027SOL    HW2 9402   5.373   3.716   1.483 -0.2043 -0.1460  0.6877
 3028SOL     OW 9403   5.217   0.485   4.235 -0.3248  0.2099  0.1815
 3028SOL    HW1 9404   5.301   0.432   4.218  0.3204  1.3501 -0.2885
 3028SOL    HW2 9405   5.208   0.501   4.334 -0.9933 -1.4886  0.4255
 3029SOL     OW 9406   2.304   0.283   0.859  0.4613  0.4524 -0.0022
 3029SOL    HW1 9407   2.398   0.292   0.889  0.2500  4.0795  0.0600
 3029SOL    HW2 9408   2.302   0.248   0.765  1.6470 -1.6754  0.6895
 3030SOL     OW 9409   4.724   0.077   1.422 -0.5066  0.5413 -0.2565
 3030SOL    HW1 9410   4.692   0.089   1.328  1.7742 -0.4170 -1.2246
 3030SOL    HW2 9411   4.666   0.010   1.468 -2.6717  2.2088 -0.3549
 3031SOL     OW 9412   3.794   2.150   1.617  0.2741  0.0777  0.0883
 3031SOL    HW1 9413   3.824   2.227   1.673 -1.5593  0.8159  0.1246
 3031SOL    HW2 9414   3.746   2.184   1.536 -1.7856 -0.9735  0.7806
 3032SOL     OW 9415   1.167   0.483   0.207  0.1403 -0.5638  0.1760
 3032SOL    HW1 9416   1.079   0.511   0.244 -0.2073  0.5239 -1.3694
 3032SOL    HW2 9417   1.187   0.389   0.234 -1.5640 -0.8853  0.4148
 3033SOL     OW 9418   3.169   1.559   3.182 -0.2477  0.1935 -0.4354
 3033SOL    HW1 9419   3.227   1.636   3.156  0.9216 -0.5625 -0.1967
 3033SOL    HW2 9420   3.114   1.583   3.262 -0.1550  0.8825 -0.5717
 3034SOL     OW 9421   1.734   2.930   2.958 -0.0014  0.5018 -0.0437
 3034SOL    HW1 9422   1.662   2.938   3.028 -0.7051  1.0269 -0.8132
 3034SOL    HW2 9423   1.780   3.018   2.947  0.1561  0.4015 -0.1923
 3035SOL     OW 9424   2.561   0.287   0.467 -0.6976 -0.3161  0.2655
 3035SOL    HW1 9425   2.554   0.344   0.549 -3.1265  1.2706 -0.9111
 3035SOL    HW2 9426   2.615   0.334   0.398  0.0581 -0.9626  0.4027
 3036SOL     OW 9427   4.636   0.438   3.490 -0.0672 -0.4699  0.2503
 3036SOL    HW1 9428   4.537   0.449   3.506  0.0465 -0.5459  1.0238
 3036SOL    HW2 9429   4.652   0.429   3.392 -1.0213 -2.4527  0.2236
 3037SOL     OW 9430   2.229   1.996   3.915 -0.1112 -0.1521 -0.0224
 3037SOL    HW1 9431   2.218   2.094   3.933  1.8643  0.3738 -1.3757
 3037SOL    HW2 9432   2.313   1.964   3.958  1.6270 -0.1831 -3.2003
 3038SOL     OW 9433   4.021   4.581   2.940  0.0553 -0.0388 -0.3178
 3038SOL    HW1 9434   4.043   4.507   2.877 -0.1988  0.3127 -0.8250
 3038SOL    HW2 9435   4.048   4.555   3.033 -0.7328 -1.0892 -0.3661
 3039SOL     OW 9436   1.260   3.718   2.014  0.1926 -0.2117 -0.1430
 3039SOL    HW1 9437   1.346   3.750   1.974 -0.0376 -0.8140 -1.1581
 3039SOL    HW2 9438   1.211   3.795   2.053  1.5697  0.0264  1.2114
 3040SOL     OW 9439   2.674   0.932   0.309  0.3500  0.0402 -0.4206
 3040SOL    HW1 9440   2.757   0.976   0.274 -0.1676  1.6212  0.2659
 3040SOL    HW2 9441   2.654   0.966   0.401 -0.5877 -0.9894 -0.2153
 3041SOL     OW 9442   2.372   0.801   3.065  0.0372 -0.1631 -0.2360
 3041SOL    HW1 9443   2.386   0.764   3.157  2.7367 -2.2383 -1.3504
 3041SOL    HW2 9444   2.315   0.739   3.012  1.5718 -0.9836 -1.0107
 3042SOL     OW 9445   0.157   0.096   0.746 -0.0565  0.1202 -0.0152
 3042SOL    HW1 9446   0.076   0.134   0.790  0.2367  0.9018 -0.1347
 3042SOL    HW2 9447   0.137   0.078   0.650  0.1795  1.2126 -0.2855
 3043SOL     OW 9448   3.893   1.609   1.337  0.4679 -0.2020 -0.2142
 3043SOL    HW1 9449   3.820   1.648   1.394 -1.4637 -1.5438 -1.6226
 3043SOL    HW2 9450   3.936   1.534   1.386  1.3159  0.9397  0.8459
 3044SOL     OW 9451   0.168   0.464   0.512  0.0425 -0.2218 -0.1708
 3044SOL    HW1 9452   0.164   0.448   0.414  2.4040 -0.3854 -0.3201
 3044SOL    HW2 9453   0.134   0.555   0.534  1.3569  0.6284 -1.4512
 3045SOL     OW 9454   3.823   4.081   3.535 -0.2350  0.2083 -0.0911
 3045SOL    HW1 9455   3.777   4.169   3.520 -0.8423 -0.1765 -0.5314
 3045SOL    HW2 9456   3.897   4.071   3.470 -0.4783  0.1836 -0.3677
 3046SOL     OW 9457   2.599   1.960   1.096 -0.0257  0.1939 -0.1922
 3046SOL    HW1 9458   2.696   1.969   1.117 -0.1729  0.8510  0.2566
 3046SOL    HW2 9459   2.546   1.977   1.179 -0.5394  0.3282 -0.5416
 3047SOL     OW 9460   3.507   2.949   2.684  0.0781  0.1338  0.0945
 3047SOL    HW1 9461   3.498   3.022   2.752 -1.1898 -0.2179  0.3136
 3047SOL    HW2 9462   3.603   2.920   2.681  0.5453  1.5365  0.2690
 3048SOL     OW 9463   0.741   0.046   1.917 -0.1188  0.6893 -0.3605
 3048SOL    HW1 9464   0.695  -0.026   1.864  1.3534  1.1438 -2.3978
 3048SOL    HW2 9465   0.677   0.120   1.935 -2.0682 -1.5387  2.9327
 3049SOL     OW 9466   4.222   5.162   0.229  0.0544  0.5632 -0.1392
 3049SOL    HW1 9467   4.312   5.126   0.255 -0.4814 -1.2685 -0.7056
 3049SOL    HW2 9468   4.235   5.242   0.169  1.3077  0.1586 -0.4501
 3050SOL     OW 9469   2.329   5.323   4.484  0.5695  0.7475  0.1898
 3050SOL    HW1 9470   2.361   5.273   4.404 -0.7586  1.4209 -0.8001
 3050SOL    HW2 9471   2.355   5.419   4.477 -0.5663  1.0564 -0.0470
 3051SOL     OW 9472   4.979   4.676   2.374 -0.2200 -0.3318  0.5226
 3051SOL    HW1 9473   5.007   4.687   2.278 -1.9939  3.6002  0.2558
 3051SOL    HW2 9474   4.937   4.586   2.386  3.0606 -2.3244 -1.4280
 3052SOL     OW 9475   1.868   0.464   4.932 -0.1680 -0.6284 -0.4006
 3052SOL    HW1 9476   1.797   0.528   4.962  2.5276  1.9210  1.0240
 3052SOL    HW2 9477   1.853   0.375   4.975 -1.0022  0.6147  2.0775
 3053SOL     OW 9478   3.948   5.306   3.588 -0.1764 -0.7263  0.2753
 3053SOL    HW1 9479   3.969   5.221   3.540 -2.0175 -0.7084 -0.6413
 3053SOL    HW2 9480   3.955   5.383   3.525 -0.8894 -0.4994  0.4576
 3054SOL     OW 9481   3.792   2.952   2.117 -0.1155  0.2928  0.5863
 3054SOL    HW1 9482   3.842   3.032   2.083  1.7423 -0.5694  1.1471
 3054SOL    HW2 9483   3.858   2.883   2.147 -1.5227 -2.8167 -2.8076
 3055SOL     OW 9484   0.573   3.823   3.428  0.1888  0.1282 -0.7410
 3055SOL    HW1 9485   0.637   3.832   3.505 -1.3242  0.5188  0.5192
 3055SOL    HW2 9486   0.564   3.727   3.404 -2.4742 -0.6055  2.4669
 3056SOL     OW 9487   5.476   0.117   3.297  0.0775 -0.1112  0.1649
 3056SOL    HW1 9488   5.499   0.182   3.224  0.7334 -1.6366 -1.0669
 3056SOL    HW2 9489   5.485   0.161   3.386  2.9370  0.8406 -0.4858
 3057SOL     OW 9490   2.704   0.411   3.270  0.3121  0.3016  0.1450
 3057SOL    HW1 9491   2.635   0.360   3.321  0.8350  1.2562  1.9179
 3057SOL    HW2 9492   2.660   0.474   3.207 -0.4691  1.1066  1.4595
 3058SOL     OW 9493   0.422   0.167   0.663  0.7130 -0.2235 -0.1721
 3058SOL    HW1 9494   0.420   0.232   0.587  1.6797 -0.8840 -0.8021
 3058SOL    HW2 9495   0.329   0.149   0.694  0.4359  1.4514  0.0374
 3059SOL     OW 9496   1.265   5.353   4.433 -0.7141 -0.1525 -0.1061
 3059SOL    HW1 9497   1.239   5.450   4.437 -0.0002  0.0260  1.5173
 3059SOL    HW2 9498   1.185   5.296   4.451 -0.9609  0.1845 -0.1170
 3060SOL     OW 9499   0.500   0.534   3.229  0.0970  0.1399  0.3434
 3060SOL    HW1 9500   0.436   0.513   3.154 -0.1213  0.7036  0.3692
 3060SOL    HW2 9501   0.457   0.598   3.292  0.1502 -0.5948  1.1468
 3061SOL     OW 9502   1.915   1.380   1.040  0.1618  0.5204  0.4504
 3061SOL    HW1 9503   1.856   1.456   1.013  0.7656  0.1294 -2.2567
 3061SOL    HW2 9504   1.882   1.295   0.999  0.8165 -0.2922  1.5360
 3062SOL     OW 9505   0.567   0.133   5.453 -0.1708  0.3676 -0.0094
 3062SOL    HW1 9506   0.599   0.177   5.368  0.8098 -0.6432 -0.1955
 3062SOL    HW2 9507   0.637   0.068   5.485 -1.4783 -0.9224  0.3434
 3063SOL     OW 9508   3.492   0.435   1.937 -0.3154  0.0824 -0.4853
 3063SOL    HW1 9509   3.514   0.487   1.855 -0.2729 -0.0914 -0.5851
 3063SOL    HW2 9510   3.539   0.347   1.934 -0.2192  0.1251 -0.2160
 3064SOL     OW 9511   3.811   2.395   3.717  0.2149  0.1247  0.2661
 3064SOL    HW1 9512   3.787   2.471   3.657 -0.1990 -0.6999 -0.6390
 3064SOL    HW2 9513   3.908   2.401   3.741 -0.2631  2.1541  2.0226
 3065SOL     OW 9514   3.358   4.865   0.064 -0.2070 -0.3345  0.4861
 3065SOL    HW1 9515   3.414   4.893   0.142  0.6406  0.4423 -0.3745
 3065SOL    HW2 9516   3.418   4.832  -0.010 -0.9331 -0.1532 -0.1927
 3066SOL     OW 9517   4.231   3.752   0.684 -0.3867  0.3680 -0.3863
 3066SOL    HW1 9518   4.196   3.845   0.689 -1.1670  0.0609 -0.0443
 3066SOL    HW2 9519   4.173   3.697   0.626  0.4576  0.2513 -1.1429
 3067SOL     OW 9520   2.687   1.961   3.381  0.0758 -0.1084  0.1909
 3067SOL    HW1 9521   2.611   2.015   3.415 -1.6129 -0.6726 -2.3691
 3067SOL    HW2 9522   2.760   2.021   3.350 -0.8179  0.6372 -0.5214
 3068SOL     OW 9523   2.924   5.550   2.904  0.4482  0.1279 -0.1235
 3068SOL    HW1 9524   2.907   5.452   2.913  0.3135  0.3099  2.5169
 3068SOL    HW2 9525   3.021   5.566   2.886  0.6781 -0.4778  0.5203
 3069SOL     OW 9526   1.053   1.492   4.519  0.5342 -0.2073 -0.2445
 3069SOL    HW1 9527   1.029   1.491   4.617 -1.7517  0.5549 -0.7386
 3069SOL    HW2 9528   1.014   1.412   4.474  3.1476 -1.5729 -0.2861
 3070SOL     OW 9529   4.976   2.595   4.748 -0.0036  0.0708  0.1301
 3070SOL    HW1 9530   5.004   2.607   4.653  0.9997  1.4162  0.5656
 3070SOL    HW2 9531   4.876   2.600   4.754 -0.0296  0.9045 -0.7407
 3071SOL     OW 9532   1.531   4.960   2.380 -1.1827  0.0363 -0.0254
 3071SOL    HW1 9533   1.590   4.905   2.322 -0.8278 -0.6164  0.9305
 3071SOL    HW2 9534   1.564   4.957   2.475 -1.8193  0.9655  0.2486
 3072SOL     OW 9535   3.829   2.299   2.436 -0.6026 -0.0812 -0.3506
 3072SOL    HW1 9536   3.794   2.314   2.528 -0.9420  0.7682 -0.6081
 3072SOL    HW2 9537   3.866   2.384   2.399  0.4091 -0.6354 -0.6463
 3073SOL     OW 9538   1.958   3.810   0.003  0.2015 -0.2197 -0.3590
 3073SOL    HW1 9539   1.903   3.851   0.077 -2.2138  0.5699 -2.4529
 3073SOL    HW2 9540   2.031   3.872  -0.022 -0.8071  0.9050 -0.6124
 3074SOL     OW 9541   5.383   4.605   0.066  0.8075  0.2502  0.4316
 3074SOL    HW1 9542   5.309   4.539   0.053 -0.5004  1.7415  0.0024
 3074SOL    HW2 9543   5.365   4.660   0.147  2.4170 -0.5622  1.3814
 3075SOL     OW 9544   1.884   1.116   0.892 -0.5593 -0.1780  0.2518
 3075SOL    HW1 9545   1.921   1.023   0.890  1.6504  0.6636 -1.1709
 3075SOL    HW2 9546   1.816   1.127   0.819 -0.8874 -0.6713  0.4750
 3076SOL     OW 9547   0.877   3.038   3.445 -0.2035  0.0740 -0.1186
 3076SOL    HW1 9548   0.832   3.121   3.410  1.4208 -0.2602 -3.3921
 3076SOL    HW2 9549   0.967   3.062   3.481 -0.5330 -0.0220  0.7728
 3077SOL     OW 9550   4.253   3.585   1.558 -0.4699 -0.1239 -0.4214
 3077SOL    HW1 9551   4.266   3.634   1.472  0.3279  0.7624  0.1939
 3077SOL    HW2 9552   4.340   3.580   1.607 -0.2234 -3.1312 -0.9524
 3078SOL     OW 9553   3.358   1.167   1.899 -0.2030 -0.6259 -0.1637
 3078SOL    HW1 9554   3.390   1.235   1.833  0.0748 -1.3079 -0.7505
 3078SOL    HW2 9555   3.280   1.117   1.862 -0.4954 -0.5412  0.3190
 3079SOL     OW 9556   2.652   5.075   3.553  0.0018  0.3169  0.5306
 3079SOL    HW1 9557   2.647   5.092   3.455  2.2681  1.5420  0.5624
 3079SOL    HW2 9558   2.562   5.091   3.594 -2.0319 -3.7508 -1.7227
 3080SOL     OW 9559   2.439   3.944   2.679 -0.0390 -0.9506  0.1747
 3080SOL    HW1 9560   2.351   3.926   2.722  1.4067  1.1992  4.5543
 3080SOL    HW2 9561   2.447   4.042   2.658  0.4552 -1.4975 -2.5566
 3081SOL     OW 9562   1.875   5.513   0.700 -0.8329 -0.4087  0.1863
 3081SOL    HW1 9563   1.849   5.434   0.756  3.3388 -3.5749 -1.8178
 3081SOL    HW2 9564   1.968   5.542   0.724 -0.7382  1.2664 -1.9137
 3082SOL     OW 9565   3.268   4.495   2.770  0.2174  0.1925 -0.1098
 3082SOL    HW1 9566   3.253   4.503   2.671  0.4112 -0.7927 -0.2377
 3082SOL    HW2 9567   3.203   4.552   2.818 -0.7718 -0.3308 -0.7824
 3083SOL     OW 9568   2.361   0.690   2.424 -0.0243  0.1162 -0.2932
 3083SOL    HW1 9569   2.361   0.690   2.324 -0.7257 -0.6333 -0.3037
 3083SOL    HW2 9570   2.288   0.630   2.457  2.4769 -2.5890  0.6579
 3084SOL     OW 9571   3.296   4.560   4.019 -0.1219 -0.0592 -0.0844
 3084SOL    HW1 9572   3.308   4.497   4.096 -0.0432  0.6425  0.4961
 3084SOL    HW2 9573   3.384   4.604   3.998 -0.6470  1.7292  1.2002
 3085SOL     OW 9574   4.560   0.986   3.921 -0.0076 -0.4076 -0.2476
 3085SOL    HW1 9575   4.541   1.078   3.889  0.4152 -0.7298 -1.4636
 3085SOL    HW2 9576   4.584   0.927   3.844  1.0346 -1.2166  0.6468
 3086SOL     OW 9577   4.075   3.492   0.838  0.0515  0.0029  0.2140
 3086SOL    HW1 9578   3.987   3.533   0.860 -0.4478 -0.7016 -0.4235
 3086SOL    HW2 9579   4.142   3.564   0.818 -0.3375  0.5436  0.8389
 3087SOL     OW 9580   3.189   4.786   3.449 -0.5118  0.2842 -0.4673
 3087SOL    HW1 9581   3.220   4.701   3.492 -0.4729 -0.2388 -1.5098
 3087SOL    HW2 9582   3.245   4.862   3.482  0.6238 -0.3565 -0.8664
 3088SOL     OW 9583   0.226   2.435   0.266 -0.2679  0.1681  0.4371
 3088SOL    HW1 9584   0.177   2.408   0.349 -0.6747  0.2421  0.2212
 3088SOL    HW2 9585   0.273   2.355   0.229 -0.4524  0.0334  0.4917
 3089SOL     OW 9586   0.477   0.098   4.140  1.1670  0.0413 -0.2494
 3089SOL    HW1 9587   0.503   0.014   4.092  2.1273 -0.4670  1.1083
 3089SOL    HW2 9588   0.408   0.076   4.209  1.6764  0.2964  0.3449
 3090SOL     OW 9589   4.733   4.812   2.599  0.3397  0.6626 -0.5151
 3090SOL    HW1 9590   4.678   4.745   2.549  1.1000  0.4532 -1.0888
 3090SOL    HW2 9591   4.810   4.841   2.542  1.1045  0.5761  0.4530
 3091SOL     OW 9592   3.547   1.418   5.036 -0.3766  0.1094 -0.2720
 3091SOL    HW1 9593   3.457   1.454   5.061 -1.7255 -2.3596 -1.2216
 3091SOL    HW2 9594   3.546   1.319   5.043  1.6177 -0.1407 -2.3570
 3092SOL     OW 9595   4.452   2.637   3.550  0.7769 -0.0644  0.4760
 3092SOL    HW1 9596   4.536   2.584   3.556  0.9820 -0.0314 -1.4773
 3092SOL    HW2 9597   4.375   2.581   3.582  0.8753 -1.9176 -2.1991
 3093SOL     OW 9598   1.439   5.159   3.515 -0.7409  0.1208 -0.0827
 3093SOL    HW1 9599   1.439   5.060   3.498 -0.1839  0.3725 -1.6929
 3093SOL    HW2 9600   1.416   5.176   3.611 -1.0001 -1.5583  0.1849
 3094SOL     OW 9601   2.556   3.943   3.504 -0.0224  0.5101 -0.0161
 3094SOL    HW1 9602   2.474   3.925   3.558 -1.3699  0.5168 -1.9408
 3094SOL    HW2 9603   2.614   3.862   3.505 -0.5828  0.1038  0.4958
 3095SOL     OW 9604   3.761   3.951   3.192  0.4456 -0.2517 -0.1397
 3095SOL    HW1 9605   3.714   4.027   3.237  1.1235 -0.3553  0.7847
 3095SOL    HW2 9606   3.860   3.968   3.194  0.6232 -1.2819  0.3340
 3096SOL     OW 9607   3.580   2.575   0.776 -0.0308  0.0331 -0.3307
 3096SOL    HW1 9608   3.509   2.564   0.706 -1.2375 -0.0694  0.8836
 3096SOL    HW2 9609   3.582   2.494   0.835 -0.1908  0.8252  0.7957
 3097SOL     OW 9610   4.767   1.412   4.346 -0.3241 -0.2876  0.5323
 3097SOL    HW1 9611   4.814   1.345   4.288  1.0793  0.8288  0.3247
 3097SOL    HW2 9612   4.716   1.476   4.288 -2.2733 -1.5527  0.7610
 3098SOL     OW 9613   1.553   0.165   1.488 -0.0289  0.1957  0.7091
 3098SOL    HW1 9614   1.565   0.220   1.405  3.0402  1.2086  1.6680
 3098SOL    HW2 9615   1.585   0.072   1.470  2.5831  0.9298  1.1899
 3099SOL     OW 9616   1.736   3.430   3.402 -0.2128 -0.3450  0.3724
 3099SOL    HW1 9617   1.733   3.500   3.331  0.7225  0.0552  0.7183
 3099SOL    HW2 9618   1.737   3.473   3.492 -1.8976 -0.8510  0.6824
 3100SOL     OW 9619   1.886   1.428   2.563 -0.0482 -0.1431  0.7352
 3100SOL    HW1 9620   1.915   1.373   2.485  0.6050  0.7890  0.3042
 3100SOL    HW2 9621   1.873   1.523   2.534  2.0926  0.6526  2.1029
 3101SOL     OW 9622   2.275   5.384   1.012  0.3866  0.0319 -0.0191
 3101SOL    HW1 9623   2.364   5.362   0.972  0.4008 -0.5604  0.3314
 3101SOL    HW2 9624   2.251   5.315   1.079  0.4974  1.1444  1.2133
 3102SOL     OW 9625   1.022   3.733   3.765  0.5839 -0.0371  0.4108
 3102SOL    HW1 9626   0.929   3.767   3.750  0.2086 -0.8211  0.8792
 3102SOL    HW2 9627   1.085   3.780   3.704 -0.5677 -1.7561 -2.2891
 3103SOL     OW 9628   4.913   4.186   0.445 -0.5242  0.3496 -0.1536
 3103SOL    HW1 9629   4.890   4.277   0.410  2.6616  1.3533  0.0873
 3103SOL    HW2 9630   4.944   4.194   0.540 -2.2537 -1.3534  0.6115
 3104SOL     OW 9631   0.057   1.561   3.420 -0.6490 -0.1856 -0.2963
 3104SOL    HW1 9632   0.067   1.464   3.397 -1.2887 -0.4416  0.4552
 3104SOL    HW2 9633  -0.014   1.601   3.363  0.1622  0.0550 -1.1691
 3105SOL     OW 9634   1.761   4.064   3.224 -0.0987 -0.0503 -0.0132
 3105SOL    HW1 9635   1.685   4.110   3.179  0.3678  0.6395 -0.1016
 3105SOL    HW2 9636   1.728   3.979   3.266 -0.5527 -0.7012 -1.6027
 3106SOL     OW 9637   5.243   4.569   3.642  0.7128 -0.1146  0.3901
 3106SOL    HW1 9638   5.254   4.472   3.664 -0.0179 -0.8080 -2.0348
 3106SOL    HW2 9639   5.186   4.612   3.712 -0.8262 -1.9794  0.3591
 3107SOL     OW 9640   4.745   3.401   1.451  0.2661  0.1199  0.2815
 3107SOL    HW1 9641   4.649   3.399   1.422  0.6458  1.9253 -1.2564
 3107SOL    HW2 9642   4.801   3.444   1.380  1.9130  0.9736  2.0029
 3108SOL     OW 9643   3.057   1.301   3.194  0.0691  0.1556  0.0979
 3108SOL    HW1 9644   3.113   1.384   3.201  1.3986 -0.7431  0.5356
 3108SOL    HW2 9645   3.031   1.287   3.099  0.3708  0.7395 -0.0788
 3109SOL     OW 9646   3.643   4.093   4.298 -0.3073 -0.4295 -0.6493
 3109SOL    HW1 9647   3.568   4.035   4.329 -0.0091 -1.0542 -1.0610
 3109SOL    HW2 9648   3.652   4.172   4.358  0.4456 -1.7386  1.0323
 3110SOL     OW 9649   1.794   4.358   1.736 -0.1452 -0.2045  0.2149
 3110SOL    HW1 9650   1.720   4.400   1.787  0.4493  0.8508  0.2347
 3110SOL    HW2 9651   1.872   4.342   1.796  0.5270  0.9669 -0.2994
 3111SOL     OW 9652   2.656   3.584   5.465 -0.3344 -0.1401  0.1737
 3111SOL    HW1 9653   2.656   3.532   5.380  0.8175  1.0119 -0.5795
 3111SOL    HW2 9654   2.744   3.573   5.511 -0.2729  0.6975  0.2737
 3112SOL     OW 9655   1.698   0.649   5.034  0.3676  0.2535 -0.7062
 3112SOL    HW1 9656   1.709   0.739   4.994  1.3337 -0.5773 -2.4022
 3112SOL    HW2 9657   1.608   0.643   5.079  0.1193  1.8957 -0.9360
 3113SOL     OW 9658   3.059   5.424   2.455 -0.0880 -0.3301 -0.7063
 3113SOL    HW1 9659   3.140   5.374   2.484 -0.4869 -1.6436 -1.7307
 3113SOL    HW2 9660   3.013   5.372   2.382 -0.9796  1.1501 -1.2307
 3114SOL     OW 9661   4.398   0.660   5.509  0.5910  0.0924 -0.0842
 3114SOL    HW1 9662   4.345   0.680   5.427  0.1655 -0.3905  0.0694
 3114SOL    HW2 9663   4.448   0.742   5.538  1.0584  0.1596 -1.0482
 3115SOL     OW 9664   3.316   1.340   3.420  0.2666 -0.4551 -0.2676
 3115SOL    HW1 9665   3.257   1.270   3.461 -0.4217  0.3357  0.1338
 3115SOL    HW2 9666   3.360   1.303   3.338  0.2336 -1.4819  0.1628
 3116SOL     OW 9667   3.489   2.771   0.277  0.6411 -0.1824  0.2305
 3116SOL    HW1 9668   3.458   2.690   0.228  2.0638 -1.5203  1.4448
 3116SOL    HW2 9669   3.412   2.834   0.290 -0.7290 -1.7801  0.1206
 3117SOL     OW 9670   2.315   2.939   1.122  0.2375 -0.2785 -0.2495
 3117SOL    HW1 9671   2.343   3.023   1.169  2.3476 -0.4095 -1.1858
 3117SOL    HW2 9672   2.373   2.863   1.152 -0.6724 -1.1079 -0.5275
 3118SOL     OW 9673   1.735   1.630   0.703  0.3731  0.2510  0.1960
 3118SOL    HW1 9674   1.724   1.716   0.652  0.6912 -0.0385 -0.3606
 3118SOL    HW2 9675   1.819   1.585   0.675  0.0535 -0.3982  0.2747
 3119SOL     OW 9676   4.278   0.269   1.548  0.1865  0.5031 -0.3605
 3119SOL    HW1 9677   4.292   0.353   1.496 -0.6197  0.6060 -0.4232
 3119SOL    HW2 9678   4.183   0.239   1.539  0.6290 -0.8168 -0.9280
 3120SOL     OW 9679   4.430   2.418   2.825  0.2290  0.5758 -0.6868
 3120SOL    HW1 9680   4.468   2.360   2.897 -2.2117  0.7632  0.9080
 3120SOL    HW2 9681   4.479   2.505   2.823  1.1860  0.0670 -0.1690
 3121SOL     OW 9682   3.452   2.833   2.965 -0.0864 -0.9526  0.3282
 3121SOL    HW1 9683   3.500   2.781   2.894 -0.1686 -1.1137  0.3903
 3121SOL    HW2 9684   3.468   2.931   2.951 -0.0926 -0.9843  0.0931
 3122SOL     OW 9685   2.353   1.667   2.458 -0.0795  0.1994 -0.2474
 3122SOL    HW1 9686   2.376   1.705   2.368 -2.9101 -2.8915 -2.4926
 3122SOL    HW2 9687   2.420   1.598   2.482  0.8385  1.2201  0.2383
 3123SOL     OW 9688   5.362   4.041   0.156  0.9865 -0.1474 -0.0429
 3123SOL    HW1 9689   5.439   4.013   0.213  0.7804 -0.5275  0.0514
 3123SOL    HW2 9690   5.382   4.131   0.116  0.7753  0.5104  1.2777
 3124SOL     OW 9691   3.337   5.388   1.040  0.2601 -0.6029  0.4410
 3124SOL    HW1 9692   3.428   5.393   1.082  0.4133  0.2125  0.0430
 3124SOL    HW2 9693   3.267   5.387   1.111  0.4958  1.2012  0.7614
 3125SOL     OW 9694   2.215   0.301   1.943 -0.1196  0.0018 -0.0016
 3125SOL    HW1 9695   2.126   0.342   1.964 -0.3817 -0.2960 -0.4808
 3125SOL    HW2 9696   2.264   0.281   2.028 -0.0237  1.2116  0.2335
 3126SOL     OW 9697   0.209   3.389   3.615  0.2668  0.0683 -0.2520
 3126SOL    HW1 9698   0.222   3.488   3.606  0.3657 -0.0982 -2.3883
 3126SOL    HW2 9699   0.275   3.341   3.557  0.8353 -1.3159  1.4473
 3127SOL     OW 9700   4.123   2.369   1.519 -0.3823  0.0733  0.5284
 3127SOL    HW1 9701   4.119   2.293   1.585  0.5796 -1.0555 -0.6640
 3127SOL    HW2 9702   4.074   2.343   1.436 -0.5030  0.9912  0.3046
 3128SOL     OW 9703   0.995   0.941   0.558 -0.1292  0.6579  0.1212
 3128SOL    HW1 9704   0.993   0.931   0.458 -1.3405  1.0178  0.1040
 3128SOL    HW2 9705   1.032   1.030   0.582 -1.6773  1.3804 -0.0766
 3129SOL     OW 9706   4.828   3.291   5.178  0.1418 -0.2236  0.2372
 3129SOL    HW1 9707   4.828   3.311   5.276 -0.5084  0.2028  0.1565
 3129SOL    HW2 9708   4.734   3.287   5.145  0.3617  1.8405 -0.7984
 3130SOL     OW 9709   1.135   0.498   1.470  0.3659  0.0700 -0.0429
 3130SOL    HW1 9710   1.121   0.457   1.560  2.6083  0.9266  0.7701
 3130SOL    HW2 9711   1.095   0.439   1.400 -0.6809 -1.0456  1.4411
 3131SOL     OW 9712   5.329   3.853   1.922 -0.1222  0.0329  0.6613
 3131SOL    HW1 9713   5.390   3.832   1.999 -0.0542 -1.4244  0.2471
 3131SOL    HW2 9714   5.324   3.952   1.910  0.7946  0.2488  1.7936
 3132SOL     OW 9715   0.281   1.269   4.906  0.1103 -0.3024  0.6321
 3132SOL    HW1 9716   0.333   1.184   4.908  0.1425 -0.2863  2.2313
 3132SOL    HW2 9717   0.206   1.263   4.972 -0.3652  0.6257  0.1954
 3133SOL     OW 9718   5.497   4.707   0.670  0.2855 -0.1567 -0.4054
 3133SOL    HW1 9719   5.450   4.652   0.601 -0.3778 -0.6661  0.4298
 3133SOL    HW2 9720   5.484   4.804   0.650  2.2196 -0.2607 -2.3958
 3134SOL     OW 9721   1.676   4.902   4.833  0.3370 -1.2309  0.2060
 3134SOL    HW1 9722   1.697   4.940   4.743  0.6628 -1.8594  0.0124
 3134SOL    HW2 9723   1.737   4.825   4.852  0.7870 -0.6344  1.2865
 3135SOL     OW 9724   0.634   3.171   1.406  0.8334 -0.6135 -0.0158
 3135SOL    HW1 9725   0.656   3.198   1.313  1.0361  0.1221  0.2338
 3135SOL    HW2 9726   0.693   3.095   1.434  3.1511  1.3102  0.6354
 3136SOL     OW 9727   3.393   3.733   5.193  0.0589 -0.3862  0.4987
 3136SOL    HW1 9728   3.296   3.734   5.171  0.1285 -0.6705  0.1750
 3136SOL    HW2 9729   3.446   3.771   5.117  0.2031 -0.2697  0.6557
 3137SOL     OW 9730   3.798   4.951   5.107  0.0016 -0.6226 -0.0443
 3137SOL    HW1 9731   3.874   4.985   5.163 -0.6320  0.4618  0.1865
 3137SOL    HW2 9732   3.815   4.976   5.011 -0.3540  0.1657  0.0938
 3138SOL     OW 9733   2.393   3.848   4.723 -0.5382 -0.7846  0.0349
 3138SOL    HW1 9734   2.439   3.934   4.701 -0.9369 -0.8391 -1.0370
 3138SOL    HW2 9735   2.299   3.867   4.751 -0.5360 -0.8565  0.0907
 3139SOL     OW 9736   1.551   1.479   4.117 -0.5226 -0.0392  0.5626
 3139SOL    HW1 9737   1.600   1.398   4.084 -1.6316 -0.9899  1.1777
 3139SOL    HW2 9738   1.484   1.452   4.186 -1.5347  1.2928  0.1532
 3140SOL     OW 9739   2.653   5.424   2.553 -0.1059 -1.1267 -0.3477
 3140SOL    HW1 9740   2.590   5.487   2.508  1.5000 -0.9076 -2.4323
 3140SOL    HW2 9741   2.680   5.461   2.642  1.3372  1.5753 -1.7915
 3141SOL     OW 9742   1.745   3.934   1.884 -0.2304 -0.5829  0.0967
 3141SOL    HW1 9743   1.696   4.016   1.915  0.0689 -0.6309  0.7242
 3141SOL    HW2 9744   1.717   3.856   1.940  0.0264 -0.7530 -0.0103
 3142SOL     OW 9745   0.913   5.396   0.717 -0.4199  0.3755 -0.3211
 3142SOL    HW1 9746   0.822   5.369   0.686 -1.4722  1.1005  1.8860
 3142SOL    HW2 9747   0.946   5.474   0.664 -2.4297  2.0289  0.7357
 3143SOL     OW 9748   4.933   1.401   1.883  0.7133 -0.1383 -0.0662
 3143SOL    HW1 9749   4.978   1.484   1.915  0.4817 -0.8518  2.2670
 3143SOL    HW2 9750   4.975   1.321   1.926 -1.4060 -0.9656  0.5911
 3144SOL     OW 9751   1.689   4.758   2.264  0.1497 -0.4644 -0.4553
 3144SOL    HW1 9752   1.615   4.704   2.304  0.4919  0.0592  0.9498
 3144SOL    HW2 9753   1.678   4.762   2.165 -1.5799 -0.5484 -0.2886
 3145SOL     OW 9754   1.546   2.902   3.587  0.2156  0.1856 -0.4009
 3145SOL    HW1 9755   1.646   2.902   3.594  0.1884 -1.6363  0.6206
 3145SOL    HW2 9756   1.506   2.910   3.679 -0.5641 -0.5080 -0.6688
 3146SOL     OW 9757   3.003   1.723   4.017  0.2588  0.0517 -0.5425
 3146SOL    HW1 9758   3.002   1.799   4.083  0.9033  1.1665 -1.7620
 3146SOL    HW2 9759   2.963   1.642   4.059 -2.1299  1.5291  0.2307
 3147SOL     OW 9760   0.978   4.140   3.942  0.5438  0.3679 -0.1625
 3147SOL    HW1 9761   0.953   4.083   4.019  0.7601 -0.0239 -0.3774
 3147SOL    HW2 9762   1.025   4.084   3.873 -0.7462  0.4524 -1.1355
 3148SOL     OW 9763   2.579   1.181   4.704 -0.0125 -0.1865 -0.0668
 3148SOL    HW1 9764   2.571   1.082   4.717  0.3172 -0.1172  0.7567
 3148SOL    HW2 9765   2.670   1.203   4.671  0.2961 -0.0747  0.8234
 3149SOL     OW 9766   2.479   2.419   4.623 -0.1348 -0.6127 -0.1447
 3149SOL    HW1 9767   2.476   2.407   4.524  0.3731  0.6506 -0.3283
 3149SOL    HW2 9768   2.418   2.494   4.649 -1.1197 -1.6519  0.6405
 3150SOL     OW 9769   4.251   5.155   4.691  0.0351  0.1999  0.0359
 3150SOL    HW1 9770   4.289   5.159   4.784 -1.6449  1.6068  0.7316
 3150SOL    HW2 9771   4.303   5.215   4.631  3.3221 -3.2251 -0.9397
 3151SOL     OW 9772   1.995   4.057   3.769 -0.0223  0.1022  0.0707
 3151SOL    HW1 9773   2.011   4.039   3.672  1.4401  0.3013  0.2474
 3151SOL    HW2 9774   2.003   4.155   3.787  2.4194 -0.1673  0.7978
 3152SOL     OW 9775   0.514   4.351   3.718  0.5038 -0.4354 -0.7228
 3152SOL    HW1 9776   0.464   4.265   3.729  0.0188 -0.0413  0.3374
 3152SOL    HW2 9777   0.554   4.377   3.806  1.1468  0.1286 -1.1703
 3153SOL     OW 9778   2.633   4.220   3.466 -0.4178  0.2924 -0.6699
 3153SOL    HW1 9779   2.657   4.237   3.370  0.9281  1.1193 -0.2121
 3153SOL    HW2 9780   2.613   4.123   3.478  0.1298  0.0436 -1.6442
 3154SOL     OW 9781   2.741   0.045   0.102  0.0917 -0.1836 -0.1051
 3154SOL    HW1 9782   2.816  -0.003   0.148  0.3174  0.7344  0.4991
 3154SOL    HW2 9783   2.653   0.015   0.141  0.0979 -1.4698 -1.0076
 3155SOL     OW 9784   0.789   2.472   4.660  0.1788 -0.2689  0.0105
 3155SOL    HW1 9785   0.812   2.464   4.757 -1.1774 -1.1288  0.2871
 3155SOL    HW2 9786   0.716   2.539   4.648 -1.4959 -2.0301 -0.0617
 3156SOL     OW 9787   1.233   1.642   5.173 -0.2990  0.0336 -0.5190
 3156SOL    HW1 9788   1.190   1.552   5.177  0.1887 -0.1655  0.4465
 3156SOL    HW2 9789   1.324   1.633   5.132 -0.0407  0.0012  0.0574
 3157SOL     OW 9790   0.814   0.913   2.921  0.8162  0.0082 -0.2571
 3157SOL    HW1 9791   0.838   0.828   2.874  1.7798  0.9312 -1.5061
 3157SOL    HW2 9792   0.738   0.896   2.984 -0.8234 -1.2277 -2.4447
 3158SOL     OW 9793   4.924   4.505   2.705  0.1404  0.1100  0.2404
 3158SOL    HW1 9794   4.950   4.601   2.704 -0.8416  0.3907  0.5484
 3158SOL    HW2 9795   4.840   4.493   2.653 -0.5681 -0.3249  1.4434
 3159SOL     OW 9796   3.249   1.586   1.087  0.2811 -0.1813  0.4996
 3159SOL    HW1 9797   3.250   1.546   0.996 -0.8036 -0.8784  0.7759
 3159SOL    HW2 9798   3.155   1.611   1.111  0.9166  3.0845  0.1201
 3160SOL     OW 9799   1.978   2.153   5.252 -0.2934 -0.1900 -0.1441
 3160SOL    HW1 9800   1.967   2.116   5.344  0.9169  1.9602  0.9403
 3160SOL    HW2 9801   1.893   2.196   5.223 -0.4055 -0.0484  0.3757
 3161SOL     OW 9802   2.183   5.452   0.763 -0.0737 -0.1930  0.2967
 3161SOL    HW1 9803   2.203   5.437   0.860 -0.3151  0.3288  0.4267
 3161SOL    HW2 9804   2.246   5.398   0.707  2.0522  1.7881  0.6714
 3162SOL     OW 9805   3.810   0.479   3.536 -0.1802  0.1509  0.8390
 3162SOL    HW1 9806   3.780   0.534   3.614  1.7494  2.5613  0.0313
 3162SOL    HW2 9807   3.760   0.392   3.534 -1.2266  0.5693  3.9457
 3163SOL     OW 9808   1.330   2.136   5.468  0.4945 -0.5729 -0.1735
 3163SOL    HW1 9809   1.239   2.094   5.460  0.2575  0.2609 -2.5872
 3163SOL    HW2 9810   1.336   2.216   5.408  2.5352 -0.0225  0.6593
 3164SOL     OW 9811   1.224   4.912   2.670 -0.1513  0.3145  0.1621
 3164SOL    HW1 9812   1.125   4.902   2.677 -0.2363  1.4522  0.8789
 3164SOL    HW2 9813   1.263   4.923   2.762  0.9588 -2.4990  0.1355
 3165SOL     OW 9814   4.597   2.457   0.678  0.2240 -0.1312  0.2619
 3165SOL    HW1 9815   4.623   2.545   0.639  0.7726  0.4316  1.8380
 3165SOL    HW2 9816   4.579   2.467   0.776 -1.3279 -1.4518  0.1645
 3166SOL     OW 9817   1.630   0.945   1.564  0.2108  0.0886  0.1020
 3166SOL    HW1 9818   1.702   0.917   1.501  1.4399  0.3114  1.3520
 3166SOL    HW2 9819   1.564   0.871   1.575  1.9503 -1.3663  1.2939
 3167SOL     OW 9820   0.737   1.310   0.463  0.7496 -0.1948  1.2248
 3167SOL    HW1 9821   0.785   1.311   0.375  1.7831  0.9621  1.7759
 3167SOL    HW2 9822   0.737   1.217   0.500  2.7106 -0.2239  1.2500
 3168SOL     OW 9823   1.616   1.787   2.338 -0.4737 -0.1753 -0.2704
 3168SOL    HW1 9824   1.700   1.784   2.392 -0.0147  0.3291 -0.9444
 3168SOL    HW2 9825   1.615   1.712   2.273 -0.9350 -0.6660  0.2915
 3169SOL     OW 9826   0.972   2.168   0.697  0.1373 -0.1014  0.1559
 3169SOL    HW1 9827   0.960   2.187   0.600 -0.8209  0.2687  0.3343
 3169SOL    HW2 9828   1.057   2.117   0.711  1.6404  2.0583 -0.5936
 3170SOL     OW 9829   2.029   1.690   4.105 -0.0113  0.2275 -0.0057
 3170SOL    HW1 9830   2.101   1.662   4.169  1.5885  2.4904 -0.6835
 3170SOL    HW2 9831   2.010   1.787   4.118 -1.0425  0.2724 -1.6621
 3171SOL     OW 9832   0.840   1.798   1.441 -0.8435  0.0825  0.1805
 3171SOL    HW1 9833   0.885   1.715   1.409  0.0786 -0.0350  1.6470
 3171SOL    HW2 9834   0.780   1.776   1.518 -0.3697  0.7822  0.7779
 3172SOL     OW 9835   2.534   0.281   4.042  0.3935 -0.8381 -0.6886
 3172SOL    HW1 9836   2.446   0.239   4.063  0.9204 -1.2785  0.7588
 3172SOL    HW2 9837   2.526   0.380   4.051  0.5498 -0.9925  1.5915
 3173SOL     OW 9838   0.279   1.687   4.144  0.4976 -0.3329 -0.0799
 3173SOL    HW1 9839   0.277   1.750   4.222  1.3330 -1.3735  0.8383
 3173SOL    HW2 9840   0.214   1.613   4.160 -0.6996  0.4281 -1.2927
 3174SOL     OW 9841   1.178   1.440   3.360 -0.2938  0.8650  0.1462
 3174SOL    HW1 9842   1.104   1.472   3.420 -1.6814 -1.9004  0.0868
 3174SOL    HW2 9843   1.159   1.466   3.266 -1.5445 -0.2511  0.0559
 3175SOL     OW 9844   4.094   3.908   0.411  0.2090 -0.4412 -0.3181
 3175SOL    HW1 9845   4.165   3.914   0.341  0.2226 -0.4976 -0.3092
 3175SOL    HW2 9846   4.005   3.926   0.369  0.2945  0.2453 -0.2031
 3176SOL     OW 9847   3.003   0.807   1.382 -0.3058  0.3863 -0.0523
 3176SOL    HW1 9848   2.964   0.897   1.361  0.0001  0.5039 -0.1152
 3176SOL    HW2 9849   3.031   0.805   1.478 -0.5669  0.2639  0.0226
 3177SOL     OW 9850   4.397   4.759   1.326 -0.1687  0.1994 -0.2580
 3177SOL    HW1 9851   4.338   4.766   1.246  1.1471 -3.4124 -1.7792
 3177SOL    HW2 9852   4.351   4.706   1.397  0.5242 -1.2498 -0.8322
 3178SOL     OW 9853   2.225   1.385   1.733  0.1290  0.0790  0.1694
 3178SOL    HW1 9854   2.298   1.405   1.799  1.7906 -0.1120 -1.5081
 3178SOL    HW2 9855   2.159   1.460   1.732  1.1032  0.9692  0.6995
 3179SOL     OW 9856   5.430   0.227   0.342 -0.0927 -0.3874 -0.1563
 3179SOL    HW1 9857   5.441   0.203   0.245  3.6696  1.4529 -0.3490
 3179SOL    HW2 9858   5.410   0.325   0.349 -0.3521 -0.5130  0.9394
 3180SOL     OW 9859   0.701   1.267   2.380  0.1233 -0.0823 -0.2399
 3180SOL    HW1 9860   0.771   1.338   2.367  1.7441 -1.4249  0.7450
 3180SOL    HW2 9861   0.744   1.177   2.374 -1.5619 -0.9608  0.3304
 3181SOL     OW 9862   0.723   0.643   1.378 -0.2320 -0.1458  0.0554
 3181SOL    HW1 9863   0.785   0.670   1.452 -0.3088 -1.0519  0.4715
 3181SOL    HW2 9864   0.636   0.613   1.416 -1.0123  1.2949 -0.5425
 3182SOL     OW 9865   3.981   2.667   1.421 -0.1314 -0.2275  0.0804
 3182SOL    HW1 9866   3.977   2.654   1.322 -1.5375 -0.1568  0.1178
 3182SOL    HW2 9867   3.992   2.578   1.466  0.8829 -0.2270 -0.1350
 3183SOL     OW 9868   0.423   5.401   3.016  0.4706 -0.0366  0.2817
 3183SOL    HW1 9869   0.473   5.484   2.993  0.7255 -0.1423  0.4472
 3183SOL    HW2 9870   0.403   5.349   2.932  1.1199 -0.2655  0.2658
 3184SOL     OW 9871   5.181   1.056   1.490  0.4714  0.4605  0.5663
 3184SOL    HW1 9872   5.248   1.131   1.487 -1.5168  2.3407 -2.2514
 3184SOL    HW2 9873   5.089   1.094   1.484 -0.6339 -2.2043 -0.7488
 3185SOL     OW 9874   2.240   1.620   3.408 -0.2517 -0.0903 -0.0379
 3185SOL    HW1 9875   2.213   1.613   3.312 -0.3608 -1.3836  0.0697
 3185SOL    HW2 9876   2.268   1.714   3.428  1.0496 -0.0786 -1.6726
 3186SOL     OW 9877   5.406   4.898   4.414  0.3332  0.3184  0.7208
 3186SOL    HW1 9878   5.342   4.822   4.423  0.5654  0.1829  1.2318
 3186SOL    HW2 9879   5.382   4.970   4.479  0.0575  0.7283  0.1769
 3187SOL     OW 9880   2.173   3.076   4.607 -0.0924 -0.1457 -0.2839
 3187SOL    HW1 9881   2.219   3.080   4.696 -0.3800  2.3192 -0.1511
 3187SOL    HW2 9882   2.075   3.062   4.621 -0.0871 -0.1326 -0.2328
 3188SOL     OW 9883   0.759   3.426   1.943  0.1573  0.0451  0.7239
 3188SOL    HW1 9884   0.811   3.492   1.998 -0.7361 -0.2764  2.0149
 3188SOL    HW2 9885   0.691   3.476   1.888 -0.5967  0.2302  1.7854
 3189SOL     OW 9886   0.496   3.700   5.102  0.5760  0.3581 -0.2987
 3189SOL    HW1 9887   0.529   3.748   5.020  1.4556 -0.0507 -0.1951
 3189SOL    HW2 9888   0.482   3.604   5.082 -1.2973  0.6394 -0.5312
 3190SOL     OW 9889   5.326   4.590   1.244 -0.3533  0.2058  0.5271
 3190SOL    HW1 9890   5.274   4.557   1.323  0.0440 -1.1860  0.2254
 3190SOL    HW2 9891   5.395   4.522   1.218 -0.2150  0.8180 -0.7841
 3191SOL     OW 9892   5.029   3.653   0.150  0.1552  0.5118  0.0741
 3191SOL    HW1 9893   5.099   3.678   0.217  2.7611 -1.9448 -1.5299
 3191SOL    HW2 9894   4.960   3.596   0.194 -0.3225  2.0349  1.4294
 3192SOL     OW 9895   0.765   2.285   5.123 -0.2822 -0.3646 -0.5287
 3192SOL    HW1 9896   0.707   2.205   5.107 -0.6293 -0.0676 -0.7818
 3192SOL    HW2 9897   0.815   2.274   5.208 -0.4254 -0.7957 -0.5007
 3193SOL     OW 9898   2.484   4.890   1.323 -0.3654  0.0564  0.2680
 3193SOL    HW1 9899   2.523   4.816   1.267  0.5499  0.9334 -0.2768
 3193SOL    HW2 9900   2.405   4.855   1.373  0.0994 -1.3208  0.0874
 3194SOL     OW 9901   2.246   1.428   0.257  0.4258 -0.6605  0.2280
 3194SOL    HW1 9902   2.163   1.444   0.204  1.0259 -1.9111 -1.1528
 3194SOL    HW2 9903   2.308   1.506   0.246  0.7239 -1.0760 -1.3086
 3195SOL     OW 9904   4.562   2.176   0.902 -0.4445  1.0579  0.0060
 3195SOL    HW1 9905   4.586   2.140   0.812  1.3019  1.3526  0.3103
 3195SOL    HW2 9906   4.473   2.220   0.898 -0.8740  0.1102 -1.3045
 3196SOL     OW 9907   0.346   2.170   1.111 -0.6622 -0.2471  0.1429
 3196SOL    HW1 9908   0.319   2.201   1.020  0.2374  0.7967  0.2214
 3196SOL    HW2 9909   0.435   2.208   1.135 -0.7151 -0.8109  1.3148
 3197SOL     OW 9910   3.663   4.553   0.635 -0.5278  0.3928  0.4890
 3197SOL    HW1 9911   3.738   4.577   0.573 -1.7141 -1.6231 -1.9151
 3197SOL    HW2 9912   3.600   4.630   0.642 -0.2355  0.7588 -0.6578
 3198SOL     OW 9913   3.510   5.181   0.699 -0.6715 -0.8732  0.2884
 3198SOL    HW1 9914   3.488   5.271   0.737  0.7981 -0.0652 -0.6880
 3198SOL    HW2 9915   3.603   5.181   0.663 -0.7539 -2.6961 -0.0380
 3199SOL     OW 9916   4.965   1.763   3.433  0.0236 -1.1874 -0.3009
 3199SOL    HW1 9917   4.995   1.671   3.409  2.4844 -0.6883  0.6080
 3199SOL    HW2 9918   4.918   1.761   3.521  3.1412 -1.2205  1.4995
 3200SOL     OW 9919   1.036   0.039   0.590  0.4904 -0.2675 -0.6341
 3200SOL    HW1 9920   1.020   0.071   0.497  1.5333 -0.5420 -0.9166
 3200SOL    HW2 9921   1.116   0.086   0.628  0.5061 -0.6847 -0.1373
 3201SOL     OW 9922   2.125   3.619   0.146  0.0214  0.2279  0.1218
 3201SOL    HW1 9923   2.089   3.609   0.239 -1.6069 -0.5648 -0.5512
 3201SOL    HW2 9924   2.065   3.680   0.094  2.0710  2.4075  0.1311
 3202SOL     OW 9925   5.064   3.945   5.379  0.1289 -0.0315  0.5971
 3202SOL    HW1 9926   5.054   3.944   5.280  2.1178 -1.6517  0.3588
 3202SOL    HW2 9927   5.134   3.879   5.407 -0.3131  0.4363  3.0858
 3203SOL     OW 9928   2.241   1.348   3.851  1.2015  0.6398 -0.5715
 3203SOL    HW1 9929   2.224   1.446   3.839 -0.1998  0.5434  0.4389
 3203SOL    HW2 9930   2.203   1.298   3.774  0.2996  0.7598 -0.2165
 3204SOL     OW 9931   5.243   5.325   1.577  0.1307 -0.8202 -0.5293
 3204SOL    HW1 9932   5.303   5.387   1.628 -0.3283 -0.7529 -0.0612
 3204SOL    HW2 9933   5.282   5.307   1.487  0.3352  0.0495 -0.6228
 3205SOL     OW 9934   5.116   0.221   0.805 -0.2627  0.4919 -0.0515
 3205SOL    HW1 9935   5.069   0.273   0.734  0.6542  1.2313 -0.1207
 3205SOL    HW2 9936   5.053   0.153   0.843 -0.5185 -0.5621 -2.1944
 3206SOL     OW 9937   2.773   3.803   3.872 -0.7114 -0.5421 -0.6535
 3206SOL    HW1 9938   2.812   3.894   3.860 -1.7750  0.0717  0.2974
 3206SOL    HW2 9939   2.675   3.811   3.893 -0.5606 -1.8104  0.7586
 3207SOL     OW 9940   0.519   3.118   0.075 -0.1140 -0.0827  0.1836
 3207SOL    HW1 9941   0.602   3.064   0.088 -0.3907 -0.5725 -0.0802
 3207SOL    HW2 9942   0.544   3.210   0.044  0.3596 -0.0349  0.7048
 3208SOL     OW 9943   4.335   4.065  -0.001  0.6040  0.3314 -0.6399
 3208SOL    HW1 9944   4.379   4.149   0.032 -0.5890  0.5522  0.4455
 3208SOL    HW2 9945   4.325   4.001   0.075 -2.2947  0.8796 -0.4410
 3209SOL     OW 9946   1.378   0.021   2.559  0.0687 -0.2946 -0.5363
 3209SOL    HW1 9947   1.334   0.072   2.633 -0.2385 -0.1696 -0.8041
 3209SOL    HW2 9948   1.343  -0.073   2.557 -0.7310  0.0165 -1.2169
 3210SOL     OW 9949   1.889   1.995   4.641  0.1884  0.1094 -0.3971
 3210SOL    HW1 9950   1.931   2.045   4.717  0.5267 -0.4008 -0.2422
 3210SOL    HW2 9951   1.897   1.897   4.657 -1.1832 -0.0004 -0.3190
 3211SOL     OW 9952   3.422   1.690   3.852  0.3653  0.5064 -0.3297
 3211SOL    HW1 9953   3.517   1.666   3.833  0.0879  0.3185 -1.5468
 3211SOL    HW2 9954   3.362   1.615   3.824 -0.1991  0.9176 -0.2406
 3212SOL     OW 9955   1.071   2.145   3.105  0.0823 -0.2357  0.2270
 3212SOL    HW1 9956   0.996   2.167   3.043  0.5403  0.7360 -0.0164
 3212SOL    HW2 9957   1.035   2.107   3.190 -0.5779 -1.1622 -0.4533
 3213SOL     OW 9958   0.294   2.427   5.095 -0.0248 -0.1884 -0.2052
 3213SOL    HW1 9959   0.322   2.422   5.191  1.2010  1.1144 -0.4574
 3213SOL    HW2 9960   0.198   2.456   5.089 -0.6663 -1.9962  0.6305
 3214SOL     OW 9961   4.412   1.990   5.441 -0.1035 -0.2536  0.3281
 3214SOL    HW1 9962   4.426   1.992   5.540  1.9115 -0.2422  0.0707
 3214SOL    HW2 9963   4.433   1.899   5.406  0.1380  0.0149 -0.2283
 3215SOL     OW 9964   3.597   1.574   0.568 -0.5337 -0.2472  0.2556
 3215SOL    HW1 9965   3.659   1.573   0.647 -0.0241 -1.9044 -0.1283
 3215SOL    HW2 9966   3.633   1.636   0.498 -0.8758  1.0653  1.1998
 3216SOL     OW 9967   2.720   3.368   0.432  0.6427  0.0783  0.3741
 3216SOL    HW1 9968   2.654   3.441   0.446  0.7155 -0.2098  2.5480
 3216SOL    HW2 9969   2.671   3.282   0.417  0.3474 -0.4735  3.7201
 3217SOL     OW 9970   1.453   0.622   3.597  0.4426 -0.4192 -0.7252
 3217SOL    HW1 9971   1.364   0.637   3.554 -0.0957 -0.5497  0.3025
 3217SOL    HW2 9972   1.439   0.596   3.693  1.4903 -2.8801 -1.1649
 3218SOL     OW 9973   1.953   0.394   4.688  0.0481 -0.3295 -0.0956
 3218SOL    HW1 9974   2.026   0.331   4.714  1.8847  0.7396 -2.3294
 3218SOL    HW2 9975   1.917   0.440   4.770  1.3582 -1.4100  1.1268
 3219SOL     OW 9976   3.021   1.503   1.720 -0.3148 -0.0405  0.0951
 3219SOL    HW1 9977   2.996   1.436   1.650 -0.2401  3.0773 -3.2667
 3219SOL    HW2 9978   2.938   1.547   1.755 -0.2273  0.6294 -0.5162
 3220SOL     OW 9979   3.334   1.678   1.334 -0.5420  0.3323  0.2079
 3220SOL    HW1 9980   3.331   1.776   1.315  0.1961  0.3565  0.1761
 3220SOL    HW2 9981   3.294   1.628   1.257 -1.9280  0.6465  0.6949
 3221SOL     OW 9982   0.564   3.545   1.778 -0.4292  0.5666 -0.2975
 3221SOL    HW1 9983   0.578   3.529   1.680 -0.6817 -1.2260 -0.0779
 3221SOL    HW2 9984   0.472   3.579   1.793 -1.1167 -1.0895 -0.5444
 3222SOL     OW 9985   1.857   0.874   4.035 -0.1724  0.0563 -0.1265
 3222SOL    HW1 9986   1.861   0.781   3.999 -2.4272  0.6770 -2.2121
 3222SOL    HW2 9987   1.811   0.933   3.970  1.1650  2.6879  1.1570
 3223SOL     OW 9988   3.393   3.786   1.859 -0.4507 -0.4202  0.5697
 3223SOL    HW1 9989   3.452   3.748   1.931 -0.3030 -1.3670 -0.0365
 3223SOL    HW2 9990   3.317   3.836   1.901  0.0071 -0.3864  1.3733
 3224SOL     OW 9991   3.823   0.961   0.342 -0.2239 -0.3933 -0.0901
 3224SOL    HW1 9992   3.749   1.002   0.395 -0.1247 -1.3238  0.8087
 3224SOL    HW2 9993   3.904   1.019   0.347  0.1892 -1.0798  1.8939
 3225SOL     OW 9994   0.688   4.770   2.405 -0.6654  0.4265 -0.1920
 3225SOL    HW1 9995   0.628   4.809   2.474 -1.6908 -1.9464  0.3492
 3225SOL    HW2 9996   0.783   4.780   2.433 -0.9736  1.2267  0.5980
 3226SOL     OW 9997   0.076   0.399   2.039 -0.9792  0.0004 -0.1090
 3226SOL    HW1 9998   0.023   0.475   2.002 -0.2530  0.8178  0.4749
 3226SOL    HW2 9999   0.140   0.434   2.108  0.8586 -0.8087 -1.3256
 3227SOL     OW10000   3.620   1.894   4.664  0.3369  0.5489  0.1163
 3227SOL    HW110001   3.680   1.948   4.723 -1.3821  0.7807  1.7526
 3227SOL    HW210002   3.667   1.810   4.638  1.4024  0.7284  1.3138
 3228SOL     OW10003   4.256   2.818   2.780 -0.1818 -0.3528  0.2409
 3228SOL    HW110004   4.183   2.874   2.820 -0.3421 -0.4777  0.1277
 3228SOL    HW210005   4.244   2.815   2.681 -0.0553 -0.4220  0.2280
 3229SOL     OW10006   3.139   4.592   0.755  0.1901  0.2184 -0.4665
 3229SOL    HW110007   3.055   4.588   0.701 -0.5703  1.1010  0.5908
 3229SOL    HW210008   3.194   4.511   0.737 -0.4387  0.0794 -1.8918
 3230SOL     OW10009   1.930   4.502   1.557  0.2456  0.5381 -0.0262
 3230SOL    HW110010   1.984   4.426   1.521 -1.1639  0.2228 -1.5903
 3230SOL    HW210011   1.848   4.466   1.602  1.2689  1.0061  2.3544
 3231SOL     OW10012   2.446   3.377   2.058 -0.0892 -0.3672 -0.2961
 3231SOL    HW110013   2.401   3.392   2.146 -2.7710 -2.2750 -1.2059
 3231SOL    HW210014   2.394   3.421   1.985  0.9352 -0.5177 -1.1466
 3232SOL     OW10015   1.648   3.938   2.884 -0.1979 -0.0169  0.5477
 3232SOL    HW110016   1.732   3.986   2.910  0.2940 -0.7588  0.3655
 3232SOL    HW210017   1.644   3.931   2.784  0.0325 -0.8488  0.5878
 3233SOL     OW10018   5.367   2.130   0.732 -0.3327 -0.0124 -0.5599
 3233SOL    HW110019   5.445   2.188   0.706 -1.1456  1.5408  0.3066
 3233SOL    HW210020   5.334   2.080   0.652  0.6043  0.4841 -1.2761
 3234SOL     OW10021   4.302   1.277   4.519  0.0111  1.0406  0.0677
 3234SOL    HW110022   4.300   1.208   4.446 -1.0557  0.3911  0.6788
 3234SOL    HW210023   4.372   1.252   4.585 -0.1205  0.7275  0.0945
 3235SOL     OW10024   2.945   4.681   0.576  0.0866  0.2029  0.1059
 3235SOL    HW110025   2.903   4.698   0.487  0.2587 -0.0394 -0.0225
 3235SOL    HW210026   2.931   4.760   0.636  1.2243  0.9752 -0.6131
 3236SOL     OW10027   3.360   4.282   3.056  0.0192 -0.4715 -0.1347
 3236SOL    HW110028   3.381   4.241   3.144  2.2551  1.8428  0.5645
 3236SOL    HW210029   3.446   4.297   3.006 -1.0147  0.1301 -1.8041
 3237SOL     OW10030   1.379   5.071   4.671  0.8014  0.4519 -0.1399
 3237SOL    HW110031   1.318   5.110   4.740  1.2178  0.0452  0.4738
 3237SOL    HW210032   1.434   5.145   4.631  0.9019  0.6328  0.3204
 3238SOL     OW10033   2.404   4.314   4.029 -0.6532 -0.2915 -0.1785
 3238SOL    HW110034   2.405   4.217   4.003 -0.6716 -0.0743 -1.0141
 3238SOL    HW210035   2.453   4.367   3.960  1.1429  0.0513  1.2857
 3239SOL     OW10036   5.049   1.327   3.978  0.0075  0.1089 -0.5226
 3239SOL    HW110037   5.049   1.247   3.918 -1.9350 -0.9116  0.7536
 3239SOL    HW210038   5.089   1.302   4.067  2.7556  1.5717 -1.2148
 3240SOL     OW10039   4.886   5.515   5.530 -0.0696 -0.5829  0.3140
 3240SOL    HW110040   4.840   5.462   5.459 -0.3511 -1.5537  1.1928
 3240SOL    HW210041   4.948   5.456   5.581 -1.1921 -0.3793  2.0230
 3241SOL     OW10042   1.090   1.157   4.215 -0.4264  0.0790 -0.0153
 3241SOL    HW110043   1.032   1.144   4.135 -1.1591 -0.7192  0.6227
 3241SOL    HW210044   1.161   1.086   4.217 -0.2201  0.2823 -0.1203
 3242SOL     OW10045   3.005   0.656   5.309  0.0966 -0.2586  0.2879
 3242SOL    HW110046   3.070   0.690   5.242 -1.5115  1.1175 -0.6438
 3242SOL    HW210047   2.990   0.726   5.379 -1.6542  0.1787 -0.4752
 3243SOL     OW10048   2.623   5.477   1.025 -0.0876  0.8967  0.5328
 3243SOL    HW110049   2.662   5.438   1.108 -1.2062 -1.4032  0.0446
 3243SOL    HW210050   2.600   5.404   0.961 -1.3769  2.4398 -0.8610
 3244SOL     OW10051   1.933   1.862   5.295 -0.3535 -0.5036 -0.2250
 3244SOL    HW110052   2.021   1.887   5.335 -0.4194 -0.8147  0.1250
 3244SOL    HW210053   1.918   1.763   5.307 -1.6322 -0.1488  1.5139
 3245SOL     OW10054   1.016   3.189   3.850  0.0044  0.1005 -0.1647
 3245SOL    HW110055   1.006   3.256   3.924 -2.6318  0.4330 -0.7409
 3245SOL    HW210056   1.110   3.194   3.814  0.5271  1.9177  1.2796
 3246SOL     OW10057   0.633   4.948   0.975 -0.2641  0.2515 -0.5832
 3246SOL    HW110058   0.645   4.922   0.879 -2.3783 -1.8348 -0.3667
 3246SOL    HW210059   0.573   5.028   0.981 -2.9222 -1.5768 -1.0157
 3247SOL     OW10060   1.659   0.342   2.076 -0.2666  0.1359 -0.3589
 3247SOL    HW110061   1.600   0.416   2.045 -1.3231 -0.4454  0.2141
 3247SOL    HW210062   1.614   0.254   2.059  1.8984 -0.5791 -3.1523
 3248SOL     OW10063   1.199   4.138   0.331  0.2464  0.2635  0.2966
 3248SOL    HW110064   1.267   4.066   0.316 -0.8014 -0.5024 -1.0538
 3248SOL    HW210065   1.246   4.226   0.341  1.4405 -0.2315 -0.6522
 3249SOL     OW10066   4.296   2.021   1.681  0.0535 -0.4026 -0.4199
 3249SOL    HW110067   4.230   2.094   1.699  0.7494  0.7764 -2.3514
 3249SOL    HW210068   4.378   2.035   1.736  0.3334  0.5287 -1.0496
 3250SOL     OW10069   0.610   0.700   2.324  0.4821  0.1165 -0.5574
 3250SOL    HW110070   0.677   0.761   2.281 -0.9620  2.3665  0.1842
 3250SOL    HW210071   0.530   0.691   2.264  0.0523  0.1854  0.0006
 3251SOL     OW10072   3.507   5.202   5.370  0.6134 -0.3659  0.1905
 3251SOL    HW110073   3.568   5.246   5.304 -1.0121  0.5871 -0.7062
 3251SOL    HW210074   3.505   5.103   5.352  0.1146 -0.1095 -1.2624
 3252SOL     OW10075   2.946   3.991   1.526 -0.4394  0.0441 -0.8481
 3252SOL    HW110076   3.041   4.021   1.528  0.0814 -1.5666 -0.0393
 3252SOL    HW210077   2.906   4.001   1.617 -1.3373  1.5107 -1.3703
 3253SOL     OW10078   1.925   4.257   3.349  0.4981 -0.0423 -0.1175
 3253SOL    HW110079   2.021   4.231   3.364  0.2199 -0.4451  1.1827
 3253SOL    HW210080   1.878   4.183   3.302  0.7600  0.0460 -0.5251
 3254SOL     OW10081   3.908   2.614   2.825 -0.1708 -0.0769 -0.1956
 3254SOL    HW110082   3.902   2.667   2.910 -0.6120 -0.9011  0.3082
 3254SOL    HW210083   4.002   2.581   2.813 -0.1775 -0.2402  0.1652
 3255SOL     OW10084   4.409   1.141   3.537 -0.6099 -0.3446  0.3440
 3255SOL    HW110085   4.333   1.081   3.562 -0.2821 -0.0813  2.0902
 3255SOL    HW210086   4.377   1.235   3.528 -0.7780 -0.4783 -0.5744
 3256SOL     OW10087   3.207   1.817   4.703 -0.0395  0.4206 -0.2796
 3256SOL    HW110088   3.114   1.836   4.672  0.2761  1.7148 -0.4975
 3256SOL    HW210089   3.211   1.820   4.803 -0.1971  0.4955 -0.2763
 3257SOL     OW10090   1.778   4.757   5.284  0.5992  0.1247 -0.2199
 3257SOL    HW110091   1.751   4.685   5.221  0.3939 -0.3240  0.3663
 3257SOL    HW210092   1.842   4.820   5.239 -0.5786  0.5921 -1.2915
 3258SOL     OW10093   2.897   4.369   5.339  1.0219  0.2722  0.2654
 3258SOL    HW110094   2.878   4.315   5.421 -0.9732  0.5297  0.0149
 3258SOL    HW210095   2.900   4.466   5.363  1.3970  0.2832  0.1834
 3259SOL     OW10096   5.185   3.389   1.812  0.6560  0.2643  0.1389
 3259SOL    HW110097   5.097   3.398   1.765  1.2499 -0.4912 -1.1838
 3259SOL    HW210098   5.201   3.469   1.870 -1.2043  0.0792  0.9603
 3260SOL     OW10099   1.823   1.334   1.761 -0.3267 -0.5920  0.0261
 3260SOL    HW110100   1.753   1.336   1.833 -1.5608 -1.1104 -1.1176
 3260SOL    HW210101   1.837   1.239   1.731 -0.4254 -0.2956 -0.9758
 3261SOL     OW10102   4.827   1.847   4.323 -0.3918  0.4876  0.0782
 3261SOL    HW110103   4.872   1.936   4.325 -0.5067  0.5680 -0.6104
 3261SOL    HW210104   4.828   1.811   4.230 -1.2303  0.2163  0.1614
 3262SOL     OW10105   0.555   0.506   1.593  0.0176  0.0198  0.1993
 3262SOL    HW110106   0.638   0.505   1.649  1.2399  0.3785 -1.4910
 3262SOL    HW210107   0.496   0.430   1.618  1.1310 -0.5823  1.0611
 3263SOL     OW10108   3.154   3.828   2.188 -0.0154  0.6439  0.3722
 3263SOL    HW110109   3.159   3.854   2.092  0.2125  0.8003  0.4280
 3263SOL    HW210110   3.177   3.906   2.246 -1.2010  0.8593  0.5816
 3264SOL     OW10111   3.982   2.562   1.127 -0.4161  0.2354 -0.0627
 3264SOL    HW110112   4.004   2.538   1.032  0.7089 -0.7077  0.4176
 3264SOL    HW210113   3.978   2.662   1.136 -0.3361  0.3398 -1.0510
 3265SOL     OW10114   4.329   2.270   1.273 -0.7230 -0.4480 -0.0427
 3265SOL    HW110115   4.415   2.295   1.316 -0.1801 -0.2154 -1.2353
 3265SOL    HW210116   4.299   2.181   1.308 -1.4840  0.7125  2.5032
 3266SOL     OW10117   4.800   0.391   1.008 -0.0766  0.8833 -0.3443
 3266SOL    HW110118   4.840   0.482   0.999  0.2988  0.7027 -0.5080
 3266SOL    HW210119   4.708   0.399   1.046 -0.0735  1.3367 -0.4268
 3267SOL     OW10120   1.313   2.201   0.192 -0.4228 -0.1161  0.2732
 3267SOL    HW110121   1.344   2.202   0.096  0.5550  1.2262  0.5791
 3267SOL    HW210122   1.245   2.273   0.206  0.8156  0.9656  0.9848
 3268SOL     OW10123   2.024   2.300   3.800 -0.2627  0.0134 -0.1603
 3268SOL    HW110124   1.954   2.266   3.737  0.6722  0.7715 -1.6541
 3268SOL    HW210125   2.114   2.291   3.758  0.3581  0.8471  0.9451
 3269SOL     OW10126   3.031   3.325   2.086  0.5052  0.3573  0.7420
 3269SOL    HW110127   2.968   3.302   2.012  2.1498 -1.6573 -0.1165
 3269SOL    HW210128   3.122   3.343   2.049  0.9028  1.3738  2.1137
 3270SOL     OW10129   0.237   1.129   4.446  0.4880 -0.5294 -0.4522
 3270SOL    HW110130   0.212   1.034   4.466  0.0148 -0.4050 -0.4337
 3270SOL    HW210131   0.229   1.145   4.348  0.5038 -0.4905 -0.4470
 3271SOL     OW10132   1.368   4.304   2.996  0.2970 -0.3980  0.4504
 3271SOL    HW110133   1.272   4.279   2.989  0.4990 -1.0174 -0.3094
 3271SOL    HW210134   1.401   4.335   2.906  0.8440 -0.3316  0.6664
 3272SOL     OW10135   4.740   3.294   3.623 -0.6202  0.7517  0.2652
 3272SOL    HW110136   4.812   3.360   3.646  0.9320 -0.6380 -0.4337
 3272SOL    HW210137   4.687   3.275   3.705  0.4599  1.0425  1.0665
 3273SOL     OW10138   0.670   4.019   3.985  0.1048 -0.0062  0.1254
 3273SOL    HW110139   0.710   4.111   3.985 -1.4168  0.7355  2.2279
 3273SOL    HW210140   0.577   4.023   3.949  0.2703 -0.9063 -0.4598
 3274SOL     OW10141   4.799   1.489   1.533  0.5363 -0.1771  0.0652
 3274SOL    HW110142   4.811   1.587   1.514 -1.4944 -0.0151 -0.6934
 3274SOL    HW210143   4.882   1.452   1.574  0.8549  2.1820  1.7303
 3275SOL     OW10144   1.713   2.521   2.485 -0.6700  0.7131  0.0475
 3275SOL    HW110145   1.694   2.571   2.401 -2.1680 -1.8531 -1.2584
 3275SOL    HW210146   1.629   2.513   2.539 -0.4588 -0.3070  0.2510
 3276SOL     OW10147   0.830   1.167   1.567  0.4462  0.0486  0.6490
 3276SOL    HW110148   0.859   1.189   1.660 -1.4031  1.9604  0.8348
 3276SOL    HW210149   0.759   1.097   1.569 -0.4760  0.9795  0.7821
 3277SOL     OW10150   4.000   1.273   3.434 -0.3917  0.4605  0.2456
 3277SOL    HW110151   4.033   1.315   3.518 -0.1750  3.5116 -1.2388
 3277SOL    HW210152   3.903   1.250   3.444 -0.9038  2.6093  0.7559
 3278SOL     OW10153   1.590   2.747   2.831 -0.3089  0.1892  0.3521
 3278SOL    HW110154   1.629   2.815   2.894 -0.9148 -0.6121  1.6314
 3278SOL    HW210155   1.661   2.717   2.767  0.3608  0.9266  0.7241
 3279SOL     OW10156   2.395   2.495   3.725 -0.1047 -0.2535 -0.6896
 3279SOL    HW110157   2.370   2.539   3.811  0.8077  1.4247 -1.2489
 3279SOL    HW210158   2.313   2.485   3.669 -0.6384 -1.0041  0.1984
 3280SOL     OW10159   2.688   5.361   2.292 -0.0562 -0.5891  0.1894
 3280SOL    HW110160   2.692   5.447   2.240  2.0478  0.4891  1.9727
 3280SOL    HW210161   2.655   5.379   2.385  0.4171 -1.7038  0.5939
 3281SOL     OW10162   3.983   5.017   1.924 -0.0233 -0.1103 -0.2692
 3281SOL    HW110163   4.041   5.042   1.846 -0.4223 -0.0810 -0.5592
 3281SOL    HW210164   3.900   4.973   1.890  0.3364 -1.1764  0.1942
 3282SOL     OW10165   4.628   4.296   4.730  0.6837 -0.3420  0.2386
 3282SOL    HW110166   4.658   4.327   4.820  3.2668  0.6564 -0.8629
 3282SOL    HW210167   4.635   4.197   4.725  0.1737 -0.4414  1.2280
 3283SOL     OW10168   1.041   4.393   4.036  0.1779  0.2739  0.2744
 3283SOL    HW110169   0.989   4.463   3.986  1.2029  0.7521 -0.1407
 3283SOL    HW210170   1.022   4.303   3.996  0.3799  0.5606 -0.4778
 3284SOL     OW10171   3.657   1.044   5.282  0.2142 -0.2172  0.4024
 3284SOL    HW110172   3.743   1.092   5.262 -0.3218  0.4343 -0.3750
 3284SOL    HW210173   3.655   0.957   5.234  0.2226 -0.0043  0.0161
 3285SOL     OW10174   3.977   1.938   0.427 -0.0745  0.0880 -0.4245
 3285SOL    HW110175   4.046   1.884   0.379  1.1720 -0.0486  1.4036
 3285SOL    HW210176   3.988   1.927   0.526 -1.1988  1.9509 -0.0226
 3286SOL     OW10177   1.338   1.669   0.518  0.3932  0.1064  0.2480
 3286SOL    HW110178   1.256   1.707   0.561 -1.4281 -3.0065 -0.1301
 3286SOL    HW210179   1.392   1.621   0.588  1.0969  0.8358  0.2164
 3287SOL     OW10180   0.065   5.341   1.300 -0.6561  0.1354  0.1560
 3287SOL    HW110181   0.085   5.425   1.351 -0.0068  0.8418 -1.2183
 3287SOL    HW210182   0.148   5.286   1.292 -0.8171 -0.0988  0.0889
 3288SOL     OW10183   5.146   4.426   5.552 -0.0862 -0.1636 -0.3789
 3288SOL    HW110184   5.097   4.512   5.539 -1.0436  0.0540  3.4559
 3288SOL    HW210185   5.089   4.350   5.520 -2.0958  0.2639  1.9043
 3289SOL     OW10186   1.372   3.237   4.764 -0.0630 -0.4215 -0.0888
 3289SOL    HW110187   1.449   3.187   4.805  1.1195  0.3504 -1.2768
 3289SOL    HW210188   1.307   3.261   4.835  2.4276  1.8729  1.6350
 3290SOL     OW10189   1.066   5.359   3.679  0.8209 -0.3227  0.2124
 3290SOL    HW110190   1.110   5.440   3.719 -0.6056  0.4867  0.1980
 3290SOL    HW210191   1.067   5.366   3.579 -2.2381  1.4071  0.1865
 3291SOL     OW10192   0.555   1.168   1.044  0.8089  0.4775 -0.0740
 3291SOL    HW110193   0.491   1.209   1.108  2.0085  0.1636  1.4104
 3291SOL    HW210194   0.594   1.085   1.085 -0.8509 -1.7177 -2.5837
 3292SOL     OW10195   1.221   0.690   2.921 -0.3750 -0.4117 -0.0913
 3292SOL    HW110196   1.304   0.672   2.973  0.6186 -0.5155 -1.6872
 3292SOL    HW210197   1.143   0.691   2.984  0.6269 -1.6803  1.2388
 3293SOL     OW10198   1.892   2.154   2.754 -0.9277  0.3552  0.2103
 3293SOL    HW110199   1.852   2.188   2.840 -0.9953 -0.7744  0.6365
 3293SOL    HW210200   1.958   2.221   2.720 -1.0293  0.9041  1.0547
 3294SOL     OW10201   4.347   2.636   2.147 -0.1295  0.5162  0.2876
 3294SOL    HW110202   4.432   2.633   2.095 -0.1893  1.0430  0.1519
 3294SOL    HW210203   4.269   2.621   2.086 -0.1470  0.1554  0.3922
 3295SOL     OW10204   1.690   0.702   1.984  0.1491  0.1780  0.5666
 3295SOL    HW110205   1.626   0.661   2.049  2.0579 -2.8551  0.7119
 3295SOL    HW210206   1.757   0.757   2.033 -1.5164  2.4522  0.5055
 3296SOL     OW10207   1.221   2.929   3.091 -0.0594  0.0054  0.0453
 3296SOL    HW110208   1.150   2.919   3.160  0.1716 -2.0173  0.0647
 3296SOL    HW210209   1.246   2.838   3.056  2.4392  0.6480 -0.0342
 3297SOL     OW10210   1.204   5.157   1.891  0.5445 -0.1507  0.1466
 3297SOL    HW110211   1.112   5.189   1.871  0.9068  1.1970  0.5391
 3297SOL    HW210212   1.199   5.065   1.930 -0.6866  0.1357  0.7366
 3298SOL     OW10213   0.941   2.396   0.850  0.1486 -0.5135 -0.1607
 3298SOL    HW110214   0.957   2.321   0.787  0.7433 -0.9451  0.4900
 3298SOL    HW210215   0.924   2.360   0.942  1.8469  0.1700  0.4638
 3299SOL     OW10216   5.293   1.437   1.990  0.4332 -0.2798 -0.4510
 3299SOL    HW110217   5.298   1.387   1.904  0.5946  1.8005 -1.7072
 3299SOL    HW210218   5.238   1.520   1.978  0.0437 -0.1808  1.5929
 3300SOL     OW10219   0.700   0.914   1.668 -0.0184  0.2127  0.0351
 3300SOL    HW110220   0.755   0.841   1.625 -0.5258 -0.3936  0.4051
 3300SOL    HW210221   0.722   0.919   1.765  1.1470  1.6033 -0.2632
 3301SOL     OW10222   2.181   2.502   0.947 -0.3562  0.6006  0.3801
 3301SOL    HW110223   2.101   2.531   0.894 -1.8255 -0.1684  2.0555
 3301SOL    HW210224   2.196   2.567   1.021 -1.0582 -0.5791  1.6071
 3302SOL     OW10225   5.296   0.130   1.662 -0.2291  0.1306 -0.0929
 3302SOL    HW110226   5.216   0.118   1.721 -1.1581 -3.3321 -1.7736
 3302SOL    HW210227   5.270   0.180   1.580  0.1345  1.6598  0.6998
 3303SOL     OW10228   3.205   4.153   0.493  0.0149  0.6484  0.3027
 3303SOL    HW110229   3.227   4.074   0.550  1.2123  1.7371  1.4502
 3303SOL    HW210230   3.257   4.149   0.408  0.3182  0.3623  0.5013
 3304SOL     OW10231   4.030   2.811   1.885 -0.1530  0.1370  0.5990
 3304SOL    HW110232   3.961   2.770   1.825  3.0534 -1.3466 -2.4652
 3304SOL    HW210233   4.048   2.905   1.857 -1.3292  0.7847  1.8861
 3305SOL     OW10234   3.940   5.260   2.086 -0.1620 -0.0859  0.3645
 3305SOL    HW110235   3.959   5.175   2.038  1.1243  0.5396 -0.2780
 3305SOL    HW210236   3.863   5.307   2.042  1.5607  0.9139 -1.7291
 3306SOL     OW10237   4.339   1.532   4.582  0.1770  0.1320  0.0331
 3306SOL    HW110238   4.324   1.445   4.537 -0.8693 -0.4239  1.3916
 3306SOL    HW210239   4.415   1.524   4.647 -1.0123 -0.3141  1.4309
 3307SOL     OW10240   1.710   0.027   0.255  0.2545  1.0800  0.1385
 3307SOL    HW110241   1.726  -0.018   0.343  0.8999  1.8934  0.4592
 3307SOL    HW210242   1.611   0.033   0.238  0.1329  0.6572  0.6662
 3308SOL     OW10243   4.588   5.067   5.399  0.3060 -0.1140  0.4245
 3308SOL    HW110244   4.682   5.059   5.366 -0.4391  1.2073 -2.3354
 3308SOL    HW210245   4.576   5.156   5.443  0.3158 -0.2799  0.7705
 3309SOL     OW10246   0.026   4.431   3.296  0.1906  0.3772  0.0345
 3309SOL    HW110247   0.101   4.419   3.361  1.5445  1.4354 -1.2706
 3309SOL    HW210248  -0.048   4.481   3.340  0.3678 -0.3976  1.2542
 3310SOL     OW10249   4.181   2.912   1.461  0.1989 -0.0449 -0.3560
 3310SOL    HW110250   4.129   2.827   1.453  1.3280 -0.6628 -1.6177
 3310SOL    HW210251   4.249   2.916   1.387  1.6978  0.8747  0.9997
 3311SOL     OW10252   3.000   0.491   4.466  0.4200  0.2561 -0.1567
 3311SOL    HW110253   3.063   0.452   4.532 -0.4868 -1.5054 -0.2858
 3311SOL    HW210254   3.049   0.556   4.407  1.7542  0.0378  0.6774
 3312SOL     OW10255   0.283   2.239   4.920  0.1949  0.7642 -0.3588
 3312SOL    HW110256   0.206   2.181   4.948  2.3581 -2.2266 -0.0473
 3312SOL    HW210257   0.300   2.308   4.991 -1.4896  0.7879  0.0733
 3313SOL     OW10258   1.291   1.823   1.871  0.1283  0.5601 -0.0852
 3313SOL    HW110259   1.360   1.855   1.936 -0.3083  1.6626 -0.1441
 3313SOL    HW210260   1.200   1.846   1.905 -0.0982  1.2926 -1.1453
 3314SOL     OW10261   4.788   4.478   4.597 -0.2538  0.1348  0.2074
 3314SOL    HW110262   4.720   4.416   4.637 -1.0688  0.6612 -0.3285
 3314SOL    HW210263   4.875   4.466   4.643 -0.6959 -0.6050  0.8717
 3315SOL     OW10264   3.240   4.837   5.086 -0.4042  0.0767 -0.1324
 3315SOL    HW110265   3.285   4.925   5.101  0.2932 -0.1376 -0.9184
 3315SOL    HW210266   3.182   4.843   5.004  0.8454 -0.6264 -1.0999
 3316SOL     OW10267   3.671   1.126   3.723 -0.1139  0.4234  0.0265
 3316SOL    HW110268   3.660   1.127   3.822  0.8604 -0.1708  0.1622
 3316SOL    HW210269   3.769   1.125   3.701 -0.3131  1.0681 -0.9523
 3317SOL     OW10270   1.195   2.639   4.936 -0.2271 -0.3216 -0.8554
 3317SOL    HW110271   1.137   2.705   4.888  0.5141  0.4659 -0.6925
 3317SOL    HW210272   1.283   2.682   4.958  0.5724 -1.6048 -1.4481
 3318SOL     OW10273   1.190   4.942   4.494 -0.0791  0.3815 -0.5475
 3318SOL    HW110274   1.209   4.864   4.434 -1.5576 -0.4027 -0.0574
 3318SOL    HW210275   1.270   4.962   4.549 -0.2696 -2.1689  0.8133
 3319SOL     OW10276   3.628   1.455   4.162  0.4609 -0.2068 -0.5505
 3319SOL    HW110277   3.604   1.443   4.065  0.7263 -0.0514 -0.6373
 3319SOL    HW210278   3.700   1.524   4.170  0.7773 -0.5622 -0.2836
 3320SOL     OW10279   5.304   3.752   0.779  0.6267 -0.3600 -0.6937
 3320SOL    HW110280   5.289   3.824   0.711  0.2311 -1.0478 -1.3579
 3320SOL    HW210281   5.316   3.793   0.869  0.2268  0.5242 -1.0290
 3321SOL     OW10282   5.141   1.449   4.669  0.0308 -0.1437 -0.5647
 3321SOL    HW110283   5.053   1.497   4.670  0.0792 -0.0425 -1.0591
 3321SOL    HW210284   5.198   1.483   4.744 -0.7218 -0.9157  0.3792
 3322SOL     OW10285   1.352   0.379   0.017 -0.1971  0.6070 -0.2964
 3322SOL    HW110286   1.280   0.447   0.030 -0.4591  0.3040 -0.1365
 3322SOL    HW210287   1.312   0.287   0.017  0.0310  0.4889 -1.4563
 3323SOL     OW10288   3.822   2.595   2.559  0.1372  1.1708  0.5455
 3323SOL    HW110289   3.904   2.559   2.514 -0.5458  0.6574 -0.3198
 3323SOL    HW210290   3.845   2.622   2.652  0.9739 -0.3265  0.8190
 3324SOL     OW10291   3.597   2.353   4.283 -0.7522 -0.0270 -0.8557
 3324SOL    HW110292   3.662   2.312   4.219 -1.2385  0.0409 -1.4052
 3324SOL    HW210293   3.528   2.285   4.308  0.5995 -0.7147  1.2624
 3325SOL     OW10294   2.243   3.516   4.193 -0.1876  0.5645 -0.3119
 3325SOL    HW110295   2.183   3.530   4.272 -0.0158  2.7112 -0.4892
 3325SOL    HW210296   2.287   3.603   4.170  2.3492 -0.7370 -0.7143
 3326SOL     OW10297   1.127   1.296   0.395  0.5649 -0.0963  0.1125
 3326SOL    HW110298   1.087   1.343   0.474 -0.6973  0.6439 -0.9244
 3326SOL    HW210299   1.185   1.221   0.426 -0.4033 -0.2152  1.7194
 3327SOL     OW10300   0.700   1.119   4.588 -0.0812  0.5805 -0.2229
 3327SOL    HW110301   0.798   1.105   4.572  0.0802  0.0249  1.1325
 3327SOL    HW210302   0.672   1.069   4.670 -2.0994 -1.5647 -2.1079
 3328SOL     OW10303   1.880   0.215   0.356  0.1988  0.0438  0.1003
 3328SOL    HW110304   1.823   0.157   0.298 -0.1048  0.0297  0.4109
 3328SOL    HW210305   1.902   0.299   0.307  1.6173 -0.8307 -0.7974
 3329SOL     OW10306   1.784   2.993   4.426  0.0803  0.0461 -0.7423
 3329SOL    HW110307   1.770   2.938   4.509  1.7280  1.1755  0.3505
 3329SOL    HW210308   1.707   3.054   4.413 -1.0407 -1.3828 -1.0963
 3330SOL     OW10309   5.313   5.233   3.389  0.1803  0.3623 -0.4376
 3330SOL    HW110310   5.233   5.216   3.331  0.3636 -0.7033 -0.4040
 3330SOL    HW210311   5.320   5.160   3.457 -0.6382  2.1151  1.6528
 3331SOL     OW10312   0.984   4.809   3.672 -0.2041  0.0606  0.1668
 3331SOL    HW110313   1.026   4.836   3.759  1.1376 -0.2233 -0.3807
 3331SOL    HW210314   0.960   4.712   3.675 -1.1399  0.2895  0.5871
 3332SOL     OW10315   0.543   3.372   4.419 -0.1282 -0.2341  0.5601
 3332SOL    HW110316   0.464   3.389   4.361  0.2352 -0.6636 -0.0769
 3332SOL    HW210317   0.550   3.274   4.438  0.1780 -0.1842  0.7148
 3333SOL     OW10318   0.225   0.021   0.079  0.0902 -0.0527 -0.1078
 3333SOL    HW110319   0.304   0.011   0.140  0.1446 -1.2764 -0.3646
 3333SOL    HW210320   0.252  -0.003  -0.014 -0.4402  0.1156 -0.3075
 3334SOL     OW10321   5.057   3.453   3.166 -0.6362 -0.6938  0.0604
 3334SOL    HW110322   5.071   3.438   3.264  0.0437  0.1143  0.0956
 3334SOL    HW210323   5.087   3.372   3.116 -0.8844 -1.0708  0.5057
 3335SOL     OW10324   3.609   2.000   0.320 -0.4858  0.2817 -0.2712
 3335SOL    HW110325   3.557   2.036   0.242 -0.6822  0.5923 -0.0002
 3335SOL    HW210326   3.701   2.041   0.320 -0.1981 -0.3410 -0.8051
 3336SOL     OW10327   3.452   1.387   1.728 -0.3693  0.1022 -0.1102
 3336SOL    HW110328   3.430   1.475   1.685 -0.9928  1.2738  2.4249
 3336SOL    HW210329   3.504   1.404   1.812  2.1055 -2.1496 -1.0412
 3337SOL     OW10330   3.951   5.098   5.311 -0.0055 -0.0085 -0.3764
 3337SOL    HW110331   3.991   5.014   5.347  1.3054  1.2164  1.2051
 3337SOL    HW210332   3.855   5.104   5.338  0.0477 -0.7088 -0.0008
 3338SOL     OW10333   3.628   3.328   4.346  0.1383  0.2541  0.2114
 3338SOL    HW110334   3.609   3.425   4.356 -1.0161 -0.0135  0.7315
 3338SOL    HW210335   3.593   3.296   4.258 -0.0551  0.1696  0.3198
 3339SOL     OW10336   2.019   0.733   5.089 -0.6998  0.5436  0.0059
 3339SOL    HW110337   1.959   0.657   5.066  1.3607 -1.0987 -0.2002
 3339SOL    HW210338   2.031   0.791   5.008 -0.4994 -0.1859 -0.4951
 3340SOL     OW10339   4.375   0.828   0.695 -0.2426  0.0662 -0.1765
 3340SOL    HW110340   4.284   0.814   0.733  0.3802 -0.5368  1.1980
 3340SOL    HW210341   4.443   0.785   0.756  0.8288 -1.0110 -2.0457
 3341SOL     OW10342   3.524   3.806   2.693  0.4524 -0.1733  0.0909
 3341SOL    HW110343   3.476   3.774   2.611 -0.1369  1.0973 -0.0755
 3341SOL    HW210344   3.619   3.828   2.669  1.1579 -2.6262  0.4076
 3342SOL     OW10345   3.199   3.523   2.646  0.3707  0.4553  0.3289
 3342SOL    HW110346   3.215   3.547   2.742  0.7058 -1.0807  0.6846
 3342SOL    HW210347   3.282   3.483   2.608  0.6512  2.1573 -1.0041
 3343SOL     OW10348   5.539   0.752   2.482  0.4270  0.0443  0.3313
 3343SOL    HW110349   5.538   0.841   2.435 -0.5670 -0.4212 -0.5697
 3343SOL    HW210350   5.494   0.760   2.571 -0.1177  0.3381  0.0347
 3344SOL     OW10351   2.634   3.371   5.309  0.5739 -0.2926  0.5281
 3344SOL    HW110352   2.582   3.322   5.380  0.2579 -1.8603 -0.7112
 3344SOL    HW210353   2.677   3.304   5.248  2.8118  0.9947  0.6045
 3345SOL     OW10354   2.358   1.541   1.924  0.7950  0.2196  0.4130
 3345SOL    HW110355   2.292   1.605   1.962  2.2958  2.0303  0.1505
 3345SOL    HW210356   2.398   1.486   1.997 -0.1166 -0.0712  0.7110
 3346SOL     OW10357   3.852   4.829   3.923  0.0340 -0.5173 -0.5548
 3346SOL    HW110358   3.948   4.841   3.898 -0.0521 -1.0680 -1.1669
 3346SOL    HW210359   3.814   4.752   3.872 -1.0945  0.5048 -1.2959
 3347SOL     OW10360   3.902   0.637   4.521  0.5183  0.0210 -0.2812
 3347SOL    HW110361   3.818   0.687   4.501 -0.9311 -1.8201  0.8547
 3347SOL    HW210362   3.921   0.643   4.619  1.0194 -0.6048 -0.3337
 3348SOL     OW10363   0.824   3.719   5.045 -0.9615 -0.1996  0.1937
 3348SOL    HW110364   0.837   3.665   5.128  0.0266 -0.2469  0.0095
 3348SOL    HW210365   0.848   3.664   4.965  1.8840  1.0380  0.0875
 3349SOL     OW10366   2.357   0.661   0.405 -0.0617  0.1681  0.3803
 3349SOL    HW110367   2.373   0.692   0.311 -1.5232  1.6148  0.5779
 3349SOL    HW210368   2.281   0.596   0.407 -0.2186  0.3588  0.6100
 3350SOL     OW10369   5.423   0.350   3.919  0.3287 -0.0911  0.6140
 3350SOL    HW110370   5.496   0.315   3.859  0.3924  1.3925 -0.2178
 3350SOL    HW210371   5.365   0.274   3.948  1.0481 -1.0271 -0.3046
 3351SOL     OW10372   1.258   3.015   5.169  0.0379  0.3447 -0.6977
 3351SOL    HW110373   1.319   3.008   5.248  0.5555  0.1901 -1.1036
 3351SOL    HW210374   1.218   3.106   5.166  0.1155  0.3936 -0.3302
 3352SOL     OW10375   3.712   5.311   5.215  0.1852  0.5911 -0.1871
 3352SOL    HW110376   3.649   5.381   5.181  0.3021  0.7645 -0.0532
 3352SOL    HW210377   3.782   5.293   5.145 -0.2207  0.1298 -0.4838
 3353SOL     OW10378   2.018   1.817   0.658 -0.2156  0.5365  0.0079
 3353SOL    HW110379   2.114   1.828   0.633 -0.4994 -0.9418 -1.9937
 3353SOL    HW210380   1.985   1.728   0.626 -2.1143  0.7655  1.1548
 3354SOL     OW10381   2.108   3.593   4.874  0.1894 -0.3069 -0.3903
 3354SOL    HW110382   2.199   3.592   4.915 -1.0039  2.4333  2.9063
 3354SOL    HW210383   2.097   3.677   4.820 -1.1808  1.0963  1.8707
 3355SOL     OW10384   4.719   5.133   2.426  0.1031 -0.2060 -0.3336
 3355SOL    HW110385   4.807   5.090   2.403  0.7549  1.0778 -0.2942
 3355SOL    HW210386   4.731   5.194   2.504 -0.9257 -0.3238 -0.0711
 3356SOL     OW10387   1.270   3.264   0.733 -0.0364 -0.1744  0.6768
 3356SOL    HW110388   1.305   3.264   0.640  0.6858 -0.5625  0.9416
 3356SOL    HW210389   1.322   3.329   0.789 -1.7914  1.6161  0.3464
 3357SOL     OW10390   2.351   3.421   4.524  0.6829 -0.0303  0.5399
 3357SOL    HW110391   2.371   3.516   4.501  1.3479  0.1129  1.6170
 3357SOL    HW210392   2.380   3.362   4.449  1.3317  0.5352  0.3361
 3358SOL     OW10393   1.747   0.084   3.710 -0.0583 -0.6811 -0.2684
 3358SOL    HW110394   1.652   0.079   3.740  0.2266 -0.7812  0.6795
 3358SOL    HW210395   1.757   0.041   3.621 -0.6393 -2.0851  0.3148
 3359SOL     OW10396   4.314   3.110   3.670 -0.8036  0.0134  0.9419
 3359SOL    HW110397   4.246   3.105   3.597  1.0062 -0.7186 -0.7727
 3359SOL    HW210398   4.342   3.018   3.695 -0.0611  0.3220  1.2665
 3360SOL     OW10399   4.014   2.459   0.607 -0.1473  0.6156 -0.8521
 3360SOL    HW110400   4.102   2.416   0.586 -0.4650 -0.7477  0.4834
 3360SOL    HW210401   3.939   2.397   0.581 -0.6383  0.7480  0.1956
 3361SOL     OW10402   3.659   4.744   4.195  0.0128  0.2012 -0.7399
 3361SOL    HW110403   3.689   4.653   4.224  0.1669  0.6052  0.4198
 3361SOL    HW210404   3.592   4.779   4.260 -1.4029  0.2000 -2.1367
 3362SOL     OW10405   2.319   2.560   5.111  0.2980  0.2586 -0.1712
 3362SOL    HW110406   2.248   2.625   5.081 -1.0833 -1.0097  0.2414
 3362SOL    HW210407   2.277   2.487   5.164  2.1188  0.1228  1.1635
 3363SOL     OW10408   0.524   2.441   0.944 -0.4850  0.4209 -0.4440
 3363SOL    HW110409   0.445   2.496   0.969 -1.1940 -0.0616 -1.5555
 3363SOL    HW210410   0.579   2.490   0.876  0.1352  0.7096  0.2446
 3364SOL     OW10411   3.002   0.863   4.692  0.1080  0.0716 -0.4387
 3364SOL    HW110412   3.095   0.843   4.661  0.2446 -0.4491  0.2607
 3364SOL    HW210413   3.005   0.894   4.787 -0.5316 -1.2943  0.0593
 3365SOL     OW10414   4.295   5.126   3.392 -0.3699 -0.9396 -0.1424
 3365SOL    HW110415   4.390   5.145   3.418 -0.1550 -2.4089  0.2542
 3365SOL    HW210416   4.280   5.154   3.297  0.9322 -2.0717 -0.7305
 3366SOL     OW10417   3.872   5.215   1.546  0.0370  0.5657 -0.3282
 3366SOL    HW110418   3.875   5.249   1.640 -0.5719 -1.4161  0.4436
 3366SOL    HW210419   3.955   5.164   1.526 -0.5042 -0.3412 -0.3183
 3367SOL     OW10420   4.564   0.628   2.152  0.8648 -0.4293  0.0517
 3367SOL    HW110421   4.500   0.568   2.200  1.8068 -2.2121 -0.7918
 3367SOL    HW210422   4.532   0.642   2.058  1.3772 -0.8332 -0.1907
 3368SOL     OW10423   0.352   3.312   3.150  0.1585 -0.2322  0.2098
 3368SOL    HW110424   0.434   3.363   3.177 -0.0988 -0.1087  0.7699
 3368SOL    HW210425   0.325   3.338   3.058  1.1130 -0.7280 -0.2306
 3369SOL     OW10426   0.546   3.331   3.652  0.0767  0.2189 -0.0423
 3369SOL    HW110427   0.642   3.302   3.652  0.3602  1.1034 -0.5722
 3369SOL    HW210428   0.496   3.283   3.580 -0.0319 -0.6783  0.6112
 3370SOL     OW10429   2.413   4.801   4.868  0.7913  0.6460 -0.4306
 3370SOL    HW110430   2.393   4.705   4.845  1.9507 -0.0897  1.3361
 3370SOL    HW210431   2.404   4.858   4.787  0.2721 -0.9935 -1.5792
 3371SOL     OW10432   4.797   4.902   1.787 -0.4279 -0.0575  0.2626
 3371SOL    HW110433   4.753   4.912   1.876 -1.0464  1.7273 -0.1969
 3371SOL    HW210434   4.846   4.987   1.765  0.7391 -0.9174 -0.5690
 3372SOL     OW10435   0.685   2.019   5.114  0.6076 -0.2016 -0.5302
 3372SOL    HW110436   0.727   1.978   5.033  1.4319 -1.5153  0.5204
 3372SOL    HW210437   0.723   1.977   5.196 -3.1911 -1.9352  0.5392
 3373SOL     OW10438   2.868   4.741   0.314  0.1220  0.4404 -0.6161
 3373SOL    HW110439   2.934   4.685   0.265  0.9086  2.1031 -1.5774
 3373SOL    HW210440   2.851   4.825   0.262 -3.5530 -0.3414 -0.9321
 3374SOL     OW10441   2.611   4.674   2.255 -0.1505 -0.2978  0.5733
 3374SOL    HW110442   2.552   4.645   2.330 -0.3616  0.2939  0.6368
 3374SOL    HW210443   2.616   4.774   2.252 -0.6776 -0.2904 -0.6139
 3375SOL     OW10444   1.811   2.088   0.679  0.0246  0.1816 -0.1056
 3375SOL    HW110445   1.885   2.024   0.661  0.4097 -0.3030  2.7148
 3375SOL    HW210446   1.848   2.175   0.710 -0.5260  0.1094  0.8175
 3376SOL     OW10447   5.421   2.071   1.627  0.2995  0.3562 -0.3191
 3376SOL    HW110448   5.404   2.170   1.637  0.1569  0.2700  0.3290
 3376SOL    HW210449   5.486   2.042   1.696 -1.6181 -0.4963  1.2232
 3377SOL     OW10450   2.797   3.487   1.668 -0.4054 -0.0733  0.4662
 3377SOL    HW110451   2.874   3.504   1.730  0.3287  0.0002 -0.4449
 3377SOL    HW210452   2.724   3.442   1.719 -0.5324  1.5500  1.8019
 3378SOL     OW10453   2.797   0.947   0.772  0.0909 -0.1334 -0.0704
 3378SOL    HW110454   2.725   1.013   0.752  0.6399 -0.0614 -1.9081
 3378SOL    HW210455   2.767   0.856   0.744  0.4308 -0.2198 -0.1563
 3379SOL     OW10456   4.679   0.732   4.170  0.1475 -0.1919  0.1254
 3379SOL    HW110457   4.768   0.690   4.190 -0.2331 -0.8274  0.4954
 3379SOL    HW210458   4.629   0.746   4.255 -0.1466  0.0761 -0.0912
 3380SOL     OW10459   2.632   3.622   2.180  0.3060 -0.0969  0.6591
 3380SOL    HW110460   2.640   3.555   2.254 -0.3608  1.0366  1.8063
 3380SOL    HW210461   2.705   3.608   2.113  1.2703 -0.7894  1.8282
 3381SOL     OW10462   1.051   0.733   3.165  0.0073 -0.8076 -0.5647
 3381SOL    HW110463   0.995   0.800   3.214 -0.3705  0.1802 -2.2783
 3381SOL    HW210464   0.992   0.661   3.129  0.0250 -0.5121 -1.1856
 3382SOL     OW10465   0.777   1.592   4.948 -0.1161  0.5009 -0.1999
 3382SOL    HW110466   0.813   1.629   5.033 -1.8276 -0.8862  1.2066
 3382SOL    HW210467   0.759   1.494   4.958 -2.8607  0.7866 -1.2136
 3383SOL     OW10468   0.774   3.843   0.306 -0.0386 -0.3481 -0.1006
 3383SOL    HW110469   0.794   3.767   0.244  1.9605 -0.9497  1.1759
 3383SOL    HW210470   0.859   3.877   0.345 -1.1703  0.2438  2.0152
 3384SOL     OW10471   3.881   4.467   0.910  0.7064  0.1595 -0.2718
 3384SOL    HW110472   3.818   4.481   0.987  2.3026  0.5240  1.0251
 3384SOL    HW210473   3.840   4.405   0.844 -0.8595  0.1112  0.6973
 3385SOL     OW10474   4.203   4.192   3.308  0.2367  0.0211 -0.0080
 3385SOL    HW110475   4.300   4.218   3.310 -0.1767  1.7610 -1.3877
 3385SOL    HW210476   4.156   4.233   3.386  0.3257  0.2895 -0.0974
 3386SOL     OW10477   2.963   1.342   1.099 -0.3968  0.4229 -0.7160
 3386SOL    HW110478   3.051   1.293   1.096  1.6295  3.4321  2.0115
 3386SOL    HW210479   2.906   1.302   1.171  1.6944  2.3479  2.2810
 3387SOL     OW10480   0.065   1.006   3.729 -0.6379 -0.2110  0.0029
 3387SOL    HW110481   0.129   1.041   3.661 -0.3060  2.6872  1.6243
 3387SOL    HW210482  -0.026   0.999   3.688  0.0644 -1.3290 -1.4620
 3388SOL     OW10483   1.512   4.685   2.757 -0.2707 -0.6044 -0.3471
 3388SOL    HW110484   1.464   4.761   2.713 -0.2212 -0.2134  0.2717
 3388SOL    HW210485   1.589   4.720   2.811  0.8349 -1.2338 -1.4618
 3389SOL     OW10486   2.517   3.835   3.927 -0.5477 -0.0447 -0.0169
 3389SOL    HW110487   2.467   3.921   3.925 -0.5757 -0.0132  1.0891
 3389SOL    HW210488   2.460   3.761   3.891 -0.8696  0.2406 -0.0880
 3390SOL     OW10489   4.083   3.171   4.990  0.2718  0.5775 -0.5250
 3390SOL    HW110490   4.112   3.099   4.927  0.4052 -0.2593  0.4735
 3390SOL    HW210491   4.010   3.137   5.049  0.1619  1.3406 -0.2097
 3391SOL     OW10492   0.842   2.058   1.912 -0.1993 -0.2398  0.0543
 3391SOL    HW110493   0.784   2.008   1.847 -0.9050  0.9773 -0.2989
 3391SOL    HW210494   0.801   2.055   2.003 -0.7749  0.4933 -0.1656
 3392SOL     OW10495   2.912   2.874   5.348  0.3729 -0.3599  0.5080
 3392SOL    HW110496   2.861   2.891   5.432 -2.6469  0.2266 -1.2821
 3392SOL    HW210497   2.851   2.830   5.281  1.9893  1.0763 -2.0696
 3393SOL     OW10498   1.959   5.274   0.095 -0.2979  0.0535  0.6123
 3393SOL    HW110499   1.955   5.372   0.077 -2.4054 -0.1893 -0.5679
 3393SOL    HW210500   1.924   5.256   0.187  0.9398  0.4392  1.1874
 3394SOL     OW10501   1.075   3.982   2.668 -0.1923 -0.1462 -0.1185
 3394SOL    HW110502   1.096   4.077   2.694  1.0428 -0.6148  0.6971
 3394SOL    HW210503   1.142   3.921   2.710 -1.6612 -1.5092  0.3489
 3395SOL     OW10504   4.988   1.431   0.105 -0.6229  0.1266 -0.2973
 3395SOL    HW110505   4.977   1.333   0.090 -0.6498  0.2103 -0.8408
 3395SOL    HW210506   4.939   1.457   0.188  0.8883 -0.6314  0.8813
 3396SOL     OW10507   1.875   4.657   2.883  0.1622  0.1485 -0.2870
 3396SOL    HW110508   1.822   4.586   2.929  0.1982  0.2131 -0.1446
 3396SOL    HW210509   1.969   4.658   2.918 -0.2369  1.2834  0.8566
 3397SOL     OW10510   4.539   3.585   2.467 -0.1517 -0.2087  0.3777
 3397SOL    HW110511   4.474   3.510   2.477 -1.1404  0.7766  1.4577
 3397SOL    HW210512   4.632   3.547   2.458 -0.6907 -1.5621  0.3030
 3398SOL     OW10513   4.821   5.226   3.920  0.1710  0.3752 -0.1498
 3398SOL    HW110514   4.895   5.288   3.946  2.3285 -1.5237 -1.3936
 3398SOL    HW210515   4.829   5.141   3.971  0.1958 -0.6716 -1.8202
 3399SOL     OW10516   0.317   2.428   0.718  0.2448  0.1091 -0.1753
 3399SOL    HW110517   0.366   2.514   0.728  2.3899 -1.0597 -0.1105
 3399SOL    HW210518   0.329   2.393   0.625  0.9581 -1.0067  0.3203
 3400SOL     OW10519   1.908   0.443   2.001  0.8486  0.5948 -1.0797
 3400SOL    HW110520   1.827   0.409   2.048  1.1186 -0.7259 -1.5210
 3400SOL    HW210521   1.898   0.430   1.903  1.0334  1.6913 -1.2554
 3401SOL     OW10522   0.751   2.132   3.870  0.3332 -0.1197  0.2180
 3401SOL    HW110523   0.764   2.228   3.845 -0.9806 -0.1100 -0.5600
 3401SOL    HW210524   0.679   2.125   3.938  0.7506 -0.5225  0.6233
 3402SOL     OW10525   0.531   5.041   0.252  0.3666 -0.3912  0.5498
 3402SOL    HW110526   0.625   5.033   0.217  0.3776 -0.0045  0.4941
 3402SOL    HW210527   0.503   4.952   0.289  0.2215 -0.8969 -0.7446
 3403SOL     OW10528   4.286   3.315   2.818 -0.4873 -0.2094 -0.0292
 3403SOL    HW110529   4.194   3.354   2.825 -0.3034  1.1065 -3.1845
 3403SOL    HW210530   4.349   3.385   2.784  0.5815 -2.2969 -2.6768
 3404SOL     OW10531   1.136   1.618   1.758  0.3067 -0.1271 -0.1975
 3404SOL    HW110532   1.179   1.593   1.672  2.3724  3.1382 -0.2963
 3404SOL    HW210533   1.204   1.661   1.818 -1.7406  0.5190  1.8115
 3405SOL     OW10534   5.190   0.233   2.756 -0.2962 -0.6800  0.2070
 3405SOL    HW110535   5.214   0.254   2.850  1.3822  0.7343 -0.4820
 3405SOL    HW210536   5.270   0.195   2.709 -0.6837 -0.0414 -1.0019
 3406SOL     OW10537   2.791   1.270   3.362 -0.1711  0.0495  0.4446
 3406SOL    HW110538   2.860   1.200   3.346  1.2543  0.7002  3.1862
 3406SOL    HW210539   2.821   1.357   3.322  0.2016  0.1191  0.8666
 3407SOL     OW10540   1.694   0.939   4.925 -0.3228  0.1370  0.5615
 3407SOL    HW110541   1.750   0.929   4.843  0.1212  0.7144  0.7949
 3407SOL    HW210542   1.638   1.022   4.917 -0.8925 -0.2460  0.4847
 3408SOL     OW10543   1.099   4.537   3.283  0.0511  0.2985  0.0099
 3408SOL    HW110544   1.188   4.574   3.309 -0.8325  2.4507  0.1894
 3408SOL    HW210545   1.027   4.590   3.328 -1.3463 -0.4934 -1.2271
 3409SOL     OW10546   2.188   3.152   3.521 -0.1423  0.2523 -0.0542
 3409SOL    HW110547   2.212   3.171   3.616  0.1931  0.1481 -0.1184
 3409SOL    HW210548   2.144   3.232   3.481  0.5305  0.6117 -0.0821
 3410SOL     OW10549   0.217   3.392   3.892 -0.9539 -0.2956  0.1014
 3410SOL    HW110550   0.230   3.390   3.793 -0.2693  1.8730  0.0992
 3410SOL    HW210551   0.137   3.448   3.914 -0.5100  0.0800  0.8064
 3411SOL     OW10552   1.075   1.307   3.626 -0.5617 -0.4431  0.2794
 3411SOL    HW110553   1.051   1.404   3.621  0.7547  0.0167  1.9071
 3411SOL    HW210554   1.132   1.283   3.548 -0.6994  0.1448 -0.0134
 3412SOL     OW10555   1.674   3.163   3.304 -0.0762  0.1875  0.4251
 3412SOL    HW110556   1.761   3.206   3.330 -0.7900  2.0834 -0.1326
 3412SOL    HW210557   1.688   3.066   3.288  2.7494  0.9480 -2.9429
 3413SOL     OW10558   2.129   3.816   4.457  0.1922  0.5862 -0.2029
 3413SOL    HW110559   2.135   3.909   4.420 -0.4435  0.6769 -0.0901
 3413SOL    HW210560   2.211   3.764   4.431  1.1645  1.5603  0.8240
 3414SOL     OW10561   3.023   1.682   1.500  0.0013 -0.3845  0.6232
 3414SOL    HW110562   3.031   1.629   1.585  1.1294 -0.8733  0.2400
 3414SOL    HW210563   3.074   1.768   1.510  0.4142 -0.5928  0.3331
 3415SOL     OW10564   1.880   2.370   2.309 -0.2996  0.3374  0.4568
 3415SOL    HW110565   1.840   2.281   2.289 -0.6041  1.0026 -2.2650
 3415SOL    HW210566   1.828   2.414   2.382 -1.2849 -0.9516  0.5754
 3416SOL     OW10567   5.530   0.526   5.360 -0.3753  0.1973 -0.5881
 3416SOL    HW110568   5.435   0.495   5.362 -1.1338  2.3801  0.8801
 3416SOL    HW210569   5.554   0.555   5.267 -1.6778  1.0514 -0.6843
 3417SOL     OW10570   4.488   1.574   1.570  0.0524 -0.3774  0.3678
 3417SOL    HW110571   4.536   1.567   1.483 -0.3418 -2.4457  0.2556
 3417SOL    HW210572   4.389   1.568   1.555  0.0052 -1.4654  0.9677
 3418SOL     OW10573   5.120   4.751   4.708 -0.2494  0.1090  0.1025
 3418SOL    HW110574   5.033   4.786   4.673  0.3199  1.5663  0.0779
 3418SOL    HW210575   5.166   4.823   4.761  0.8003 -0.7413  0.3828
 3419SOL     OW10576   2.858   2.046   1.200 -0.2662  0.4066 -0.6811
 3419SOL    HW110577   2.886   2.004   1.114  1.1912 -0.2571  0.0789
 3419SOL    HW210578   2.846   1.975   1.269  0.9583  1.0999  0.2885
 3420SOL     OW10579   1.887   2.824   0.239  0.6494 -0.6675  1.0539
 3420SOL    HW110580   1.971   2.829   0.185  0.1115  0.3686  0.2941
 3420SOL    HW210581   1.881   2.903   0.299 -0.9066  0.5533 -0.6099
 3421SOL     OW10582   5.223   0.167   5.356 -0.1200 -0.2658  0.1021
 3421SOL    HW110583   5.149   0.173   5.423 -0.3721  1.9043 -0.3040
 3421SOL    HW210584   5.200   0.100   5.285 -2.5488  1.5988 -0.9876
 3422SOL     OW10585   3.234   3.831   4.879 -0.2052  1.0740 -0.1194
 3422SOL    HW110586   3.191   3.846   4.968  0.1628  0.4208  0.1759
 3422SOL    HW210587   3.236   3.917   4.828 -0.4145  1.4532  0.5031
 3423SOL     OW10588   3.154   2.913   5.270 -0.2331 -0.1921 -0.0111
 3423SOL    HW110589   3.150   2.977   5.193 -1.7789  0.8045  0.8403
 3423SOL    HW210590   3.062   2.878   5.288  0.1238 -0.4932  1.3056
 3424SOL     OW10591   1.166   5.473   1.556 -0.0788  0.5272 -0.0685
 3424SOL    HW110592   1.194   5.409   1.484  1.1102 -0.1537  0.9579
 3424SOL    HW210593   1.067   5.466   1.571 -0.1651 -0.0989 -0.8858
 3425SOL     OW10594   0.393   0.285   1.612  0.2992 -0.0006 -0.0257
 3425SOL    HW110595   0.318   0.284   1.546  0.8043  0.7698 -0.6238
 3425SOL    HW210596   0.429   0.192   1.623 -1.0710 -0.4700  0.6616
 3426SOL     OW10597   5.387   0.885   5.509 -0.2864 -0.3605  0.0358
 3426SOL    HW110598   5.476   0.841   5.499 -0.4380 -0.9503  1.1046
 3426SOL    HW210599   5.346   0.858   5.596 -1.8189 -0.6486 -0.7471
 3427SOL     OW10600   0.025   3.795   4.401 -0.7569  0.0480 -0.1754
 3427SOL    HW110601   0.053   3.754   4.488 -0.4559 -0.1968 -0.3904
 3427SOL    HW210602   0.094   3.861   4.372 -1.9245  1.8746  0.9366
 3428SOL     OW10603   0.579   0.025   3.732 -0.0669  0.7144  0.1101
 3428SOL    HW110604   0.646   0.023   3.657  0.9999 -0.4308  1.0526
 3428SOL    HW210605   0.490  -0.003   3.697 -0.3509  3.1607 -1.3796
 3429SOL     OW10606   3.584   2.341   2.156 -0.2519 -0.2299 -0.4489
 3429SOL    HW110607   3.573   2.312   2.251  0.8991  0.6282 -0.0342
 3429SOL    HW210608   3.495   2.358   2.115 -0.7419  2.4950  1.4776
 3430SOL     OW10609   1.254   2.717   5.413 -0.1455  0.1627  0.3119
 3430SOL    HW110610   1.219   2.783   5.480  0.2849 -0.2702  0.9707
 3430SOL    HW210611   1.181   2.694   5.348 -0.5689  0.5764  0.6338
 3431SOL     OW10612   1.478   2.774   3.328  0.1795 -0.2334  0.2403
 3431SOL    HW110613   1.388   2.794   3.366  0.2438 -1.6921  1.2743
 3431SOL    HW210614   1.549   2.802   3.392  0.4829  0.9277 -0.5779
 3432SOL     OW10615   4.851   1.940   1.828  0.2210  0.3075 -0.3969
 3432SOL    HW110616   4.810   1.963   1.739  1.7870  1.3605 -0.8957
 3432SOL    HW210617   4.874   1.843   1.830  1.4228  0.5236 -1.7245
 3433SOL     OW10618   1.285   4.652   2.545  0.0483 -0.6849 -0.0274
 3433SOL    HW110619   1.279   4.746   2.577  0.4788 -0.7394  0.2204
 3433SOL    HW210620   1.196   4.608   2.554 -1.1964  0.7245 -3.4806
 3434SOL     OW10621   4.965   0.052   2.140  0.0459 -0.1688  0.2551
 3434SOL    HW110622   4.866   0.050   2.126 -0.0220  0.0370  0.7018
 3434SOL    HW210623   4.996  -0.038   2.170 -0.1420  0.0136  1.0111
 3435SOL     OW10624   4.225   1.028   0.212 -0.1122 -0.2676 -0.0535
 3435SOL    HW110625   4.220   0.974   0.128  0.6812  0.7156 -0.7555
 3435SOL    HW210626   4.284   0.981   0.278  0.6250 -0.2437 -0.6809
 3436SOL     OW10627   4.722   4.511   5.431  0.1192 -0.1051  0.5690
 3436SOL    HW110628   4.645   4.539   5.374 -0.1326  0.1998  1.0530
 3436SOL    HW210629   4.736   4.412   5.423 -0.7659 -0.2715  1.0169
 3437SOL     OW10630   1.143   5.136   3.131  0.0085  0.5389  0.1921
 3437SOL    HW110631   1.141   5.157   3.229 -0.4714 -1.4505  0.6452
 3437SOL    HW210632   1.050   5.116   3.100  0.2300  0.6586 -0.5615
 3438SOL     OW10633   1.590   5.353   1.005  0.4107  0.1891 -0.0594
 3438SOL    HW110634   1.557   5.426   0.944 -0.0644 -0.2443 -0.3213
 3438SOL    HW210635   1.673   5.385   1.052 -0.0497  1.0656  0.1728
 3439SOL     OW10636   4.458   1.849   1.941  0.2304  0.2160 -0.4768
 3439SOL    HW110637   4.506   1.831   1.856  0.1677  0.8211 -0.6465
 3439SOL    HW210638   4.361   1.867   1.922 -0.0664 -0.9344 -0.1459
 3440SOL     OW10639   1.289   4.420   0.302 -0.2973 -0.2313 -0.2842
 3440SOL    HW110640   1.200   4.398   0.340  0.9107 -0.6099  2.5427
 3440SOL    HW210641   1.292   4.518   0.278 -1.2009 -0.0462  0.3149
 3441SOL     OW10642   4.036   3.387   5.537  0.1485  0.1614  0.5018
 3441SOL    HW110643   4.046   3.474   5.585  2.2624  0.5504 -0.5343
 3441SOL    HW210644   3.982   3.402   5.454 -0.6877  0.1800  1.0429
 3442SOL     OW10645   3.407   2.890   4.928 -0.7361  0.0922  0.3061
 3442SOL    HW110646   3.469   2.968   4.922 -1.3188  0.6411  1.1706
 3442SOL    HW210647   3.449   2.811   4.884  0.2482  0.6476  0.2085
 3443SOL     OW10648   0.393   0.735   3.389  0.3656 -0.1318 -0.2770
 3443SOL    HW110649   0.446   0.804   3.439 -1.1793  0.7775  0.1950
 3443SOL    HW210650   0.317   0.780   3.342  0.1245 -1.3597 -1.0890
 3444SOL     OW10651   0.202   3.804   4.812  0.3289 -0.0943  0.8181
 3444SOL    HW110652   0.229   3.807   4.908  2.5926  0.7251  0.2044
 3444SOL    HW210653   0.203   3.896   4.773  1.7575 -0.6458 -0.5541
 3445SOL     OW10654   1.103   2.930   5.515 -0.7674  0.9564 -0.2444
 3445SOL    HW110655   1.051   2.943   5.431 -1.2297 -3.0896 -0.7791
 3445SOL    HW210656   1.046   2.884   5.583  0.6155  1.0525  1.0300
 3446SOL     OW10657   0.184   1.714   4.712  0.5438  0.1284 -0.1969
 3446SOL    HW110658   0.245   1.720   4.790 -0.2036  2.3791  0.2722
 3446SOL    HW210659   0.233   1.737   4.628  1.3718 -2.3837 -0.5119
 3447SOL     OW10660   3.372   0.832   0.639  0.4493  0.0501  0.0109
 3447SOL    HW110661   3.286   0.863   0.681  0.8993  0.8600  0.3559
 3447SOL    HW210662   3.447   0.889   0.672  0.7984  0.9004 -2.0639
 3448SOL     OW10663   1.383   2.926   2.413  0.3470 -0.0343 -0.3150
 3448SOL    HW110664   1.431   2.876   2.342  0.5546  1.6506 -1.4107
 3448SOL    HW210665   1.291   2.951   2.381 -0.3084 -0.9524  0.7687
 3449SOL     OW10666   1.149   2.544   3.537  0.0476 -0.0912 -0.0618
 3449SOL    HW110667   1.199   2.629   3.522 -2.9466  1.6765 -0.9002
 3449SOL    HW210668   1.153   2.488   3.454  1.4669 -0.4942  0.2571
 3450SOL     OW10669   2.285   2.223   4.612  0.1624  0.0765 -0.5138
 3450SOL    HW110670   2.265   2.170   4.694  2.3410 -1.9199 -1.1915
 3450SOL    HW210671   2.350   2.296   4.634 -1.2462  1.2452 -0.0148
 3451SOL     OW10672   0.237   5.255   3.449  0.3301 -0.1824 -0.2209
 3451SOL    HW110673   0.213   5.180   3.510 -0.0177 -0.4227 -0.6490
 3451SOL    HW210674   0.310   5.225   3.387  1.9555  0.6043  1.2116
 3452SOL     OW10675   0.597   4.346   3.961  0.1221 -0.1685  0.0497
 3452SOL    HW110676   0.544   4.427   3.984 -1.9616 -1.6407  0.6950
 3452SOL    HW210677   0.607   4.288   4.042  1.7759 -0.4954 -0.3389
 3453SOL     OW10678   4.469   4.780   2.133  0.3663  0.0968 -0.2556
 3453SOL    HW110679   4.389   4.780   2.194  0.4377 -0.5267 -0.1558
 3453SOL    HW210680   4.497   4.686   2.115  0.3458  0.2705 -1.2560
 3454SOL     OW10681   4.630   0.784   4.914 -0.1805 -0.0510 -0.0283
 3454SOL    HW110682   4.661   0.862   4.860 -0.9276 -0.7229 -1.4640
 3454SOL    HW210683   4.540   0.804   4.953 -0.3135 -0.1418 -0.2880
 3455SOL     OW10684   0.849   4.371   2.714  0.0146  0.4496 -0.4287
 3455SOL    HW110685   0.855   4.391   2.617  1.9710 -0.3623 -0.5146
 3455SOL    HW210686   0.773   4.308   2.731  1.9750 -2.6043 -2.0635
 3456SOL     OW10687   2.547   3.690   0.252  0.2403  0.0805 -0.2116
 3456SOL    HW110688   2.600   3.772   0.236 -0.1402  0.6861  1.4644
 3456SOL    HW210689   2.452   3.714   0.271 -0.0596 -0.8091 -0.4868
 3457SOL     OW10690   1.331   0.686   1.088  0.2518 -0.4315 -0.3374
 3457SOL    HW110691   1.346   0.763   1.150  1.2497  0.3513 -1.5087
 3457SOL    HW210692   1.353   0.600   1.135  1.8786  0.2085  0.1340
 3458SOL     OW10693   4.534   2.088   5.224 -0.1106  0.3672 -0.1319
 3458SOL    HW110694   4.628   2.054   5.215 -0.4123 -0.3792 -0.5464
 3458SOL    HW210695   4.491   2.042   5.302  0.0643  1.1879  0.4639
 3459SOL     OW10696   4.416   4.871   3.461  0.0749  0.6197  0.7474
 3459SOL    HW110697   4.382   4.958   3.427 -1.5505 -0.8326 -1.6102
 3459SOL    HW210698   4.353   4.835   3.530 -1.7619 -0.6859 -1.4944
 3460SOL     OW10699   2.346   5.093   3.234  0.1659 -0.4349 -0.2273
 3460SOL    HW110700   2.427   5.071   3.289 -0.6698  1.4683  1.9355
 3460SOL    HW210701   2.269   5.037   3.265  0.1009 -0.6480 -0.7552
 3461SOL     OW10702   2.014   1.992   2.272  0.0037 -0.2304 -0.1242
 3461SOL    HW110703   2.015   1.943   2.184 -0.7809 -3.3213  1.4374
 3461SOL    HW210704   2.068   1.941   2.339 -1.8249  0.4176  1.9620
 3462SOL     OW10705   4.575   5.233   2.986  0.0216  0.4436 -0.7184
 3462SOL    HW110706   4.528   5.314   3.021  1.6628  0.1011  2.7743
 3462SOL    HW210707   4.660   5.261   2.941  0.2907  0.7309 -0.0508
 3463SOL     OW10708   0.857   3.473   3.831 -0.3804 -0.5001 -0.1541
 3463SOL    HW110709   0.949   3.473   3.869 -0.8425  0.8798  1.0676
 3463SOL    HW210710   0.792   3.441   3.901 -0.9933  0.0018 -0.4786
 3464SOL     OW10711   5.353   5.365   0.687  0.9542 -0.0378 -0.1585
 3464SOL    HW110712   5.424   5.381   0.620 -0.6479  0.0531 -1.9192
 3464SOL    HW210713   5.392   5.321   0.768  2.6278 -2.2184 -2.0133
 3465SOL     OW10714   2.505   0.858   0.850  0.2533 -0.9321  0.1795
 3465SOL    HW110715   2.482   0.846   0.754 -2.6403 -2.9864  0.9985
 3465SOL    HW210716   2.519   0.769   0.893 -0.0604 -0.1740  1.9641
 3466SOL     OW10717   3.151   2.489   4.267  0.0952  0.3316  0.2944
 3466SOL    HW110718   3.094   2.546   4.207  1.1037  1.6782  0.5538
 3466SOL    HW210719   3.227   2.451   4.214  2.2543  3.2888  1.0068
 3467SOL     OW10720   5.301   2.966   4.025  0.9170  0.5992 -0.3260
 3467SOL    HW110721   5.273   3.034   4.093 -1.4242  0.7328 -1.3425
 3467SOL    HW210722   5.346   3.012   3.949  0.2199  0.9041 -0.5590
 3468SOL     OW10723   1.297   3.303   1.250 -0.5074  0.6773 -0.4385
 3468SOL    HW110724   1.368   3.362   1.289 -1.6231  0.8615  1.4348
 3468SOL    HW210725   1.209   3.325   1.292 -1.5861  0.0093 -2.2406
 3469SOL     OW10726   0.383   1.474   3.277 -0.3307 -0.4914  0.7948
 3469SOL    HW110727   0.316   1.527   3.224 -3.4695 -5.1112 -0.4554
 3469SOL    HW210728   0.452   1.436   3.215 -0.3345 -0.9167  1.0480
 3470SOL     OW10729   3.358   1.583   3.502 -0.3663 -0.2483 -1.4517
 3470SOL    HW110730   3.341   1.503   3.444  0.6890 -0.6310 -1.2434
 3470SOL    HW210731   3.302   1.576   3.585 -2.4203  0.6454 -2.6890
 3471SOL     OW10732   4.330   0.484   2.563  0.0533 -0.3458 -0.1020
 3471SOL    HW110733   4.268   0.554   2.600 -0.9422 -1.0510 -0.4041
 3471SOL    HW210734   4.302   0.394   2.596  0.6689 -0.7203 -0.5877
 3472SOL     OW10735   4.770   0.218   3.548  0.2750  0.1669  0.1225
 3472SOL    HW110736   4.737   0.313   3.546  0.0426  0.0772 -0.8472
 3472SOL    HW210737   4.865   0.215   3.519 -0.0023  0.0030 -0.7923
 3473SOL     OW10738   1.145   3.016   2.236 -0.0781 -0.6443 -0.0403
 3473SOL    HW110739   1.149   3.053   2.143  0.4907 -0.7458 -0.0582
 3473SOL    HW210740   1.056   3.037   2.276  0.6353  1.8818  0.4276
 3474SOL     OW10741   1.947   1.257   2.780  0.2242  0.0547  0.1479
 3474SOL    HW110742   1.924   1.161   2.766  0.3608  0.1528 -0.7805
 3474SOL    HW210743   1.940   1.307   2.694 -1.2942  1.2099  0.8845
 3475SOL     OW10744   1.249   4.257   1.099 -0.3826  0.2607 -0.3087
 3475SOL    HW110745   1.237   4.158   1.111  1.1080  0.3501  2.7960
 3475SOL    HW210746   1.339   4.275   1.061 -0.2702  0.4551  0.0470
 3476SOL     OW10747   4.273   3.664   1.302 -0.0126  0.4397 -0.0324
 3476SOL    HW110748   4.318   3.753   1.313  0.4600  0.3607 -1.1668
 3476SOL    HW210749   4.258   3.646   1.205  1.2207 -1.3490  0.0590
 3477SOL     OW10750   0.797   3.241   3.222 -0.2665 -0.0509 -0.5070
 3477SOL    HW110751   0.844   3.306   3.162 -0.1848 -0.2345 -0.6418
 3477SOL    HW210752   0.784   3.155   3.173 -0.0732 -0.2473 -0.2118
 3478SOL     OW10753   5.121   4.205   2.533 -0.5610  0.1876 -0.2203
 3478SOL    HW110754   5.185   4.131   2.512 -1.3846 -1.3112  2.1273
 3478SOL    HW210755   5.170   4.292   2.537  0.8878 -0.5713 -0.6497
 3479SOL     OW10756   1.323   1.473   0.334  0.1977 -0.3209  0.2706
 3479SOL    HW110757   1.315   1.547   0.400  0.2616 -0.2945  0.2495
 3479SOL    HW210758   1.249   1.408   0.347 -1.3732  1.0477 -1.3581
 3480SOL     OW10759   5.542   4.549   4.552 -0.4043 -0.0394  0.1611
 3480SOL    HW110760   5.576   4.604   4.628  0.4082 -0.9812  0.5002
 3480SOL    HW210761   5.456   4.587   4.519 -0.3346  0.8753  0.9997
 3481SOL     OW10762   4.649   1.415   4.968  0.7049  0.2800  0.6754
 3481SOL    HW110763   4.748   1.403   4.955  0.9664  0.0209  2.7128
 3481SOL    HW210764   4.629   1.425   5.065 -1.4571 -1.2338  0.4411
 3482SOL     OW10765   1.720   0.672   0.225  0.0138 -0.2248  0.2895
 3482SOL    HW110766   1.663   0.601   0.183  0.2054 -0.6668  0.7715
 3482SOL    HW210767   1.687   0.762   0.196 -0.0407 -0.5130 -0.5758
 3483SOL     OW10768   1.022   4.568   3.017 -0.0933 -0.2132 -0.5677
 3483SOL    HW110769   1.085   4.593   2.945  0.7598  0.8253  0.4941
 3483SOL    HW210770   1.073   4.538   3.098 -0.9458  0.3512  0.2082
 3484SOL     OW10771   4.373   5.438   5.027  0.2326 -0.1097  0.5532
 3484SOL    HW110772   4.454   5.388   5.059 -0.4351 -1.2635  0.4683
 3484SOL    HW210773   4.328   5.481   5.106  0.2215 -0.5205  0.7726
 3485SOL     OW10774   2.087  -0.014   4.446 -0.4332  0.2985 -0.3670
 3485SOL    HW110775   2.040   0.047   4.381 -0.4184  0.2211 -0.4502
 3485SOL    HW210776   2.182   0.018   4.457 -0.1018 -0.3369 -1.2387
 3486SOL     OW10777   5.419   3.720   2.338  0.2320 -0.2489  0.1325
 3486SOL    HW110778   5.331   3.674   2.347 -0.0094  0.2668  0.4485
 3486SOL    HW210779   5.458   3.735   2.429 -0.2805  1.2797  0.1349
 3487SOL     OW10780   2.448   1.123   0.972 -0.3645 -0.1674 -0.7474
 3487SOL    HW110781   2.473   1.026   0.971 -0.8547 -0.3028 -0.3746
 3487SOL    HW210782   2.358   1.135   0.931 -0.8775 -0.0488  0.3795
 3488SOL     OW10783   0.996   0.118   1.381  0.1395  0.2980 -0.0780
 3488SOL    HW110784   1.067   0.082   1.441  1.4846  2.5248 -0.2227
 3488SOL    HW210785   0.922   0.157   1.436 -1.2372 -2.3084  0.0763
 3489SOL     OW10786   0.279   0.768   2.756 -0.0756  0.2068  0.0527
 3489SOL    HW110787   0.243   0.843   2.700 -0.9329  0.5184  0.9848
 3489SOL    HW210788   0.316   0.696   2.697  0.2470  1.1138 -0.8662
 3490SOL     OW10789   5.030   2.612   4.273  0.0474 -0.4044 -0.5687
 3490SOL    HW110790   5.083   2.646   4.351 -0.6332 -0.1540 -0.2083
 3490SOL    HW210791   5.052   2.516   4.258 -0.3891 -0.6732  0.4263
 3491SOL     OW10792   0.100   0.044   2.877 -0.1222  0.8238  0.3120
 3491SOL    HW110793   0.107  -0.056   2.884 -2.4341  0.4157 -1.6370
 3491SOL    HW210794   0.052   0.079   2.958 -1.9202 -0.0857 -0.2944
 3492SOL     OW10795   2.241   1.419   5.234  0.0189 -0.3578  0.0141
 3492SOL    HW110796   2.322   1.476   5.248 -0.8869  0.7970  0.7828
 3492SOL    HW210797   2.255   1.330   5.276  0.8095 -0.0888  0.3389
 3493SOL     OW10798   1.539   4.424   1.444 -0.6049 -0.8405 -0.6291
 3493SOL    HW110799   1.448   4.466   1.440 -0.9622 -1.4473  0.6881
 3493SOL    HW210800   1.597   4.466   1.374 -1.9406 -0.5853 -1.6445
 3494SOL     OW10801   2.430   3.691   2.861  0.4615 -0.7246 -0.2632
 3494SOL    HW110802   2.397   3.613   2.807  1.3425 -0.1442 -1.7069
 3494SOL    HW210803   2.497   3.660   2.928  1.3074 -1.1677 -1.2733
 3495SOL     OW10804   3.571   0.224   5.165 -0.0564 -0.1854  0.0381
 3495SOL    HW110805   3.495   0.287   5.173 -0.4817 -0.7682  0.7518
 3495SOL    HW210806   3.625   0.225   5.250  0.8423  0.3589 -0.5268
 3496SOL     OW10807   4.766   3.666   4.774  0.1143  0.0564 -0.2905
 3496SOL    HW110808   4.859   3.655   4.811 -0.1370 -0.7783  0.1205
 3496SOL    HW210809   4.772   3.692   4.678  0.8310 -2.4548 -1.0103
 3497SOL     OW10810   2.394   4.086   5.351 -0.7139  0.0273  0.1859
 3497SOL    HW110811   2.481   4.115   5.389  0.0548 -0.1463 -1.3868
 3497SOL    HW210812   2.410   4.026   5.272 -2.2544 -0.9928  0.5921
 3498SOL     OW10813   1.869   0.355   3.959 -0.0568  0.1863 -0.2482
 3498SOL    HW110814   1.925   0.432   3.989 -0.1232 -0.1529  0.7949
 3498SOL    HW210815   1.781   0.358   4.005  0.0029 -0.6071 -0.0624
 3499SOL     OW10816   4.412   0.571   5.176 -0.2930  0.7729 -0.0750
 3499SOL    HW110817   4.448   0.509   5.106 -1.4390 -0.1390  0.1204
 3499SOL    HW210818   4.488   0.624   5.215  0.9401 -1.3308  0.5619
 3500SOL     OW10819   0.101   1.584   3.929 -0.1226 -0.2238  0.2125
 3500SOL    HW110820   0.014   1.548   3.894  0.7586 -2.5161  0.2434
 3500SOL    HW210821   0.135   1.654   3.866 -1.1450 -0.5422 -0.7248
 3501SOL     OW10822   2.863   2.378   3.350  0.4236 -0.0477  0.1421
 3501SOL    HW110823   2.918   2.462   3.345  0.5442 -0.1672 -0.5681
 3501SOL    HW210824   2.777   2.398   3.397  1.1947  0.0751  1.5650
 3502SOL     OW10825   0.725   0.255   2.251 -0.4198 -0.0022 -0.3405
 3502SOL    HW110826   0.812   0.210   2.234  0.0362  0.2098  1.3153
 3502SOL    HW210827   0.741   0.342   2.298 -1.5787 -0.9068  1.9005
 3503SOL     OW10828   2.553   1.865   0.450  0.1226 -0.6174 -0.4495
 3503SOL    HW110829   2.566   1.801   0.526  0.3983 -0.3829 -0.3001
 3503SOL    HW210830   2.587   1.955   0.476 -0.0643 -0.4623 -0.7420
 3504SOL     OW10831   0.426   4.848   5.010 -0.5500 -0.1690  1.2032
 3504SOL    HW110832   0.420   4.796   4.924  1.0331  2.0750 -0.3690
 3504SOL    HW210833   0.368   4.929   5.004  2.6815  2.3019  0.3630
 3505SOL     OW10834   3.586   0.888   1.890  0.1748 -0.2353 -0.5079
 3505SOL    HW110835   3.619   0.978   1.917 -0.9127  0.0140  0.0566
 3505SOL    HW210836   3.651   0.818   1.922 -0.0221  0.2111  0.9386
 3506SOL     OW10837   0.275   5.397   4.953  0.0327 -0.6102 -0.4979
 3506SOL    HW110838   0.243   5.413   5.047 -0.5136  0.6936 -0.8783
 3506SOL    HW210839   0.373   5.379   4.954  0.3893  1.1467  0.2048
 3507SOL     OW10840   5.405   2.275   1.923  0.9505  0.1922 -0.2133
 3507SOL    HW110841   5.312   2.274   1.960  0.8067 -0.1191 -0.5709
 3507SOL    HW210842   5.401   2.283   1.824  1.3327  1.0500 -0.1645
 3508SOL     OW10843   0.640   3.114   4.531  0.3993 -0.2005  0.0338
 3508SOL    HW110844   0.613   3.145   4.622 -1.3197  0.2407 -0.5990
 3508SOL    HW210845   0.582   3.038   4.503 -1.3543  1.7587 -1.9805
 3509SOL     OW10846   3.670   5.367   4.541  0.0683 -0.3825  0.0637
 3509SOL    HW110847   3.765   5.384   4.514  0.4083 -1.0377  0.8311
 3509SOL    HW210848   3.652   5.410   4.629  0.3030 -2.0738  0.9764
 3510SOL     OW10849   1.562   1.152   3.553  0.6527 -0.4466  0.4242
 3510SOL    HW110850   1.616   1.088   3.498  1.1002  0.6808 -0.4975
 3510SOL    HW210851   1.468   1.117   3.562  1.4754 -2.3930  1.9958
 3511SOL     OW10852   3.260   2.887   3.160 -0.3745 -0.4703 -0.4717
 3511SOL    HW110853   3.344   2.859   3.114  0.5569 -1.8059  1.8574
 3511SOL    HW210854   3.182   2.840   3.119 -0.0922  0.9632 -2.8175
 3512SOL     OW10855   0.086   0.186   2.366  0.5266 -0.6510 -0.0108
 3512SOL    HW110856   0.071   0.133   2.450 -1.0711  1.9947  1.5202
 3512SOL    HW210857   0.004   0.181   2.309 -0.9453  2.3487  1.5788
 3513SOL     OW10858   0.081   1.930   0.286  0.5217 -0.4999 -0.0098
 3513SOL    HW110859   0.030   1.889   0.362 -0.3447  2.4021  1.1591
 3513SOL    HW210860   0.179   1.926   0.306  0.2740  1.3444  2.0479
 3514SOL     OW10861   5.085   1.898   1.053  0.0981 -0.3584  0.3505
 3514SOL    HW110862   5.068   1.872   0.958  0.1824 -0.2824  0.3137
 3514SOL    HW210863   5.018   1.966   1.081 -0.4263 -0.9760  0.6042
 3515SOL     OW10864   2.931   5.291   1.051 -0.1219 -0.0121  0.1465
 3515SOL    HW110865   2.896   5.245   1.132  0.5313  0.9032  0.9726
 3515SOL    HW210866   2.928   5.229   0.973  0.3025 -1.2830  1.1197
 3516SOL     OW10867   1.966   3.142   5.443 -0.1779  0.8169 -0.5739
 3516SOL    HW110868   1.913   3.088   5.509  1.4171  0.2456  0.2947
 3516SOL    HW210869   1.960   3.098   5.353 -1.3387  0.8924 -0.5512
 3517SOL     OW10870   5.303   1.501   0.559 -0.2501 -0.5250 -0.9841
 3517SOL    HW110871   5.345   1.506   0.650 -1.2188  1.2709 -0.5786
 3517SOL    HW210872   5.354   1.437   0.502  2.4345  0.7741 -0.2126
 3518SOL     OW10873   1.385   0.043   1.239  0.5262  0.2765  0.2311
 3518SOL    HW110874   1.342   0.131   1.259  2.5405  1.1340  1.0928
 3518SOL    HW210875   1.324  -0.031   1.269 -0.5297  1.4041  0.9853
 3519SOL     OW10876   5.260   3.961   4.697 -0.4596  0.0939  0.4138
 3519SOL    HW110877   5.335   3.985   4.758 -0.1236 -0.0618  0.0690
 3519SOL    HW210878   5.178   3.940   4.750 -0.5302  1.1917  0.7501
 3520SOL     OW10879   5.423   5.177   5.396 -0.6902  0.0100  0.0694
 3520SOL    HW110880   5.522   5.188   5.394 -0.7133  0.2746  0.4620
 3520SOL    HW210881   5.385   5.201   5.306 -0.3365 -0.7283 -0.2899
 3521SOL     OW10882   3.638   3.919   1.287 -0.6265  0.0789 -0.4403
 3521SOL    HW110883   3.690   3.972   1.221 -0.2703  1.9461  1.2334
 3521SOL    HW210884   3.542   3.945   1.283 -0.4582  0.9028  0.3522
 3522SOL     OW10885   0.091   0.543   0.267  0.8156  0.0331 -0.3943
 3522SOL    HW110886   0.116   0.640   0.268 -0.1847  0.3086 -0.8822
 3522SOL    HW210887   0.100   0.507   0.175 -1.2625  0.3471 -0.7556
 3523SOL     OW10888   2.195   2.618   1.392  0.0243 -0.3339 -0.4738
 3523SOL    HW110889   2.196   2.718   1.404 -0.6853 -0.2010 -1.4358
 3523SOL    HW210890   2.104   2.583   1.412  0.3570 -0.8419  0.1785
 3524SOL     OW10891   1.001   0.091   2.742  0.2792 -0.5210  1.0517
 3524SOL    HW110892   0.977   0.006   2.790 -0.8914 -0.4333  0.6651
 3524SOL    HW210893   0.917   0.138   2.715  0.9158  0.1887  0.2572
 3525SOL     OW10894  -0.026   3.378   1.965  0.0797  0.0212  0.2108
 3525SOL    HW110895   0.052   3.405   1.908  0.3988 -1.2374  0.0414
 3525SOL    HW210896  -0.011   3.411   2.059 -0.1998  1.6279 -0.2677
 3526SOL     OW10897   0.604   2.540   3.622 -0.1074 -0.1267  0.5893
 3526SOL    HW110898   0.661   2.474   3.670 -0.6368 -1.3565 -0.4196
 3526SOL    HW210899   0.657   2.581   3.547 -1.1317 -3.2144 -2.0848
 3527SOL     OW10900   4.335   3.937   1.297 -0.7041  0.4181 -0.1527
 3527SOL    HW110901   4.239   3.962   1.301 -1.0717 -0.9093 -0.1753
 3527SOL    HW210902   4.381   3.993   1.228 -1.5805  0.7123 -0.5110
 3528SOL     OW10903   1.562   3.143   4.361 -0.4393  0.2651  0.2299
 3528SOL    HW110904   1.496   3.098   4.420  0.0061 -0.0115  0.5239
 3528SOL    HW210905   1.532   3.237   4.343 -0.7354  0.2534  0.6425
 3529SOL     OW10906   3.820   0.952   4.188 -0.2248  0.0290  0.8738
 3529SOL    HW110907   3.723   0.953   4.213 -0.9203  1.7032 -1.5901
 3529SOL    HW210908   3.851   1.045   4.169  1.3722 -0.6716 -0.2105
 3530SOL     OW10909   4.899   0.799   0.316 -0.0448  0.0894 -0.8338
 3530SOL    HW110910   4.955   0.766   0.392 -1.3696  0.5507  0.3707
 3530SOL    HW210911   4.858   0.721   0.269 -1.7266 -0.1161  0.8924
 3531SOL     OW10912   1.311   1.356   5.472  0.5349 -0.2761  0.3157
 3531SOL    HW110913   1.345   1.443   5.508 -0.5020  0.6671 -0.9155
 3531SOL    HW210914   1.268   1.304   5.546  3.0892 -0.7947  1.5625
 3532SOL     OW10915   1.634   2.483   5.264 -0.2462  0.2152 -0.1839
 3532SOL    HW110916   1.553   2.490   5.322  0.0502 -1.7412  0.5428
 3532SOL    HW210917   1.612   2.514   5.172 -0.9694  2.5771  0.6960
 3533SOL     OW10918   1.251   2.666   0.183 -0.3080  0.7243 -0.2606
 3533SOL    HW110919   1.231   2.572   0.210  0.1012  0.3391 -1.2553
 3533SOL    HW210920   1.346   2.688   0.205 -0.6242  1.1877  0.7074
 3534SOL     OW10921   1.961   0.414   5.259  0.0139  0.2487 -0.0156
 3534SOL    HW110922   1.898   0.478   5.304 -0.5734 -0.3850  0.0809
 3534SOL    HW210923   1.908   0.347   5.207  0.5807 -0.7153  0.6230
 3535SOL     OW10924   4.670   0.506   1.806  0.7426 -0.2334  0.8506
 3535SOL    HW110925   4.733   0.465   1.872  0.3068 -0.2820  1.2395
 3535SOL    HW210926   4.584   0.456   1.806  1.1616 -1.0433 -0.6871
 3536SOL     OW10927   0.591   2.636   0.549  0.4866  0.2032 -0.2811
 3536SOL    HW110928   0.517   2.653   0.613  0.9267 -0.3652  0.3886
 3536SOL    HW210929   0.555   2.632   0.456 -0.3876 -0.5479  0.0879
 3537SOL     OW10930   4.552   4.363   1.098  0.6232  0.0504 -0.1653
 3537SOL    HW110931   4.484   4.371   1.025  1.0780 -0.9527 -0.7186
 3537SOL    HW210932   4.507   4.372   1.187 -0.1908 -0.3071 -0.5283
 3538SOL     OW10933   1.460   4.505   0.602  0.2112  0.0239  0.0383
 3538SOL    HW110934   1.448   4.569   0.526  1.4753 -0.3548 -0.5022
 3538SOL    HW210935   1.415   4.541   0.683 -0.5569  0.7736 -0.6973
 3539SOL     OW10936   2.151   1.842   3.707 -0.1876  0.6794  0.2240
 3539SOL    HW110937   2.196   1.892   3.781  0.0164  0.7925  0.0288
 3539SOL    HW210938   2.056   1.826   3.730 -0.0953  0.6109  0.5601
 3540SOL     OW10939   4.882   5.240   0.220  0.2883  0.1662 -0.0587
 3540SOL    HW110940   4.814   5.312   0.238  1.5119  1.1283  0.8610
 3540SOL    HW210941   4.950   5.240   0.293  0.9734 -1.1581 -0.6785
 3541SOL     OW10942   2.339   1.183   0.333  0.4430  0.0830 -0.5549
 3541SOL    HW110943   2.296   1.266   0.298  2.2829  1.9056  1.2134
 3541SOL    HW210944   2.275   1.135   0.393 -0.6370  0.1908 -1.5755
 3542SOL     OW10945   5.531   1.043   0.262 -0.1156 -0.1996  0.2815
 3542SOL    HW110946   5.436   1.066   0.283 -0.2441 -1.5914  1.3285
 3542SOL    HW210947   5.552   1.073   0.169 -2.0358 -1.1922 -0.5303
 3543SOL     OW10948   4.986   3.833   2.310  0.0879 -0.2895  0.1417
 3543SOL    HW110949   5.044   3.756   2.340  0.1892 -0.8508 -1.4043
 3543SOL    HW210950   5.044   3.911   2.288  0.2320 -0.6466 -0.8008
 3544SOL     OW10951   5.041   0.369   0.295 -0.1396 -0.4230 -0.5292
 3544SOL    HW110952   4.961   0.423   0.269 -0.2048 -0.3028 -0.0804
 3544SOL    HW210953   5.058   0.379   0.393  1.1998  0.5894 -0.8275
 3545SOL     OW10954   0.241   5.332   4.654  0.1025 -0.1448 -0.0203
 3545SOL    HW110955   0.205   5.340   4.747 -0.8053 -0.2526 -0.3542
 3545SOL    HW210956   0.302   5.253   4.649 -1.3014 -1.2767  0.0482
 3546SOL     OW10957   5.065   0.680   3.326 -0.5832 -0.0449  0.4655
 3546SOL    HW110958   5.040   0.774   3.302 -2.6350 -0.4541  0.8349
 3546SOL    HW210959   4.998   0.617   3.288  1.6818 -1.5780 -1.2788
 3547SOL     OW10960   3.695   1.373   0.814 -0.0155  0.5440  0.5153
 3547SOL    HW110961   3.777   1.359   0.871 -0.5844 -0.2310  1.1800
 3547SOL    HW210962   3.680   1.470   0.800  0.8807  0.7017  0.6017
 3548SOL     OW10963   2.932   0.228   3.869 -0.1178 -0.1033 -0.3447
 3548SOL    HW110964   3.019   0.189   3.899 -0.5936  0.1419  1.4600
 3548SOL    HW210965   2.866   0.223   3.944 -1.3664  0.5996 -1.3691
 3549SOL     OW10966   4.007   4.038   1.126  0.3138 -0.4028 -0.1767
 3549SOL    HW110967   4.071   3.971   1.086  1.4161  0.9279 -0.7137
 3549SOL    HW210968   4.018   4.037   1.226  0.8086 -0.5438 -0.2270
 3550SOL     OW10969   5.095   0.733   4.204 -0.2841  0.0451 -0.0261
 3550SOL    HW110970   5.175   0.674   4.197 -0.8321 -0.5765 -1.3846
 3550SOL    HW210971   5.013   0.678   4.216 -0.6410  0.6215  0.2624
 3551SOL     OW10972   0.607   1.756   1.115  0.2425 -0.6466 -0.3000
 3551SOL    HW110973   0.655   1.797   1.193 -0.2320 -0.0921 -0.2967
 3551SOL    HW210974   0.646   1.789   1.030  0.6989 -1.1812 -0.3101
 3552SOL     OW10975   0.265   3.378   1.892  0.1462  0.1944  0.1375
 3552SOL    HW110976   0.353   3.393   1.937 -0.4092 -1.3167  1.8553
 3552SOL    HW210977   0.254   3.281   1.874 -1.3914  0.2894  0.4562
 3553SOL     OW10978   0.629   3.413   0.891  0.0280 -0.4220 -0.2062
 3553SOL    HW110979   0.581   3.326   0.898 -0.9242  0.2285  2.6905
 3553SOL    HW210980   0.592   3.477   0.958  0.7655  2.2232 -2.1804
 3554SOL     OW10981   2.004   0.873   1.907  0.1266  0.0348  0.3325
 3554SOL    HW110982   2.086   0.816   1.907  0.7772  0.9372 -0.7412
 3554SOL    HW210983   1.956   0.863   1.994  1.7818  0.0844  1.2806
 3555SOL     OW10984   3.477   4.308   0.111  0.4789 -0.0855  0.2612
 3555SOL    HW110985   3.460   4.393   0.061  3.9034 -0.0363 -1.0646
 3555SOL    HW210986   3.516   4.329   0.200 -0.6049 -0.2782  0.7957
 3556SOL     OW10987   3.252   4.762   3.155  0.1357 -0.3646  0.1128
 3556SOL    HW110988   3.336   4.708   3.161  0.7737  0.7905  2.7593
 3556SOL    HW210989   3.193   4.741   3.233 -0.9936  0.5600 -0.4593
 3557SOL     OW10990   0.717   1.278   3.382 -0.1134  0.2100  0.3281
 3557SOL    HW110991   0.782   1.339   3.336  0.3607 -0.3976  0.1689
 3557SOL    HW210992   0.679   1.214   3.315 -1.9557  1.4360  0.1285
 3558SOL     OW10993   4.683   1.968   4.698 -0.4203 -0.1104  0.3127
 3558SOL    HW110994   4.728   2.042   4.748  0.0060 -0.5215  0.5438
 3558SOL    HW210995   4.625   2.007   4.627  2.1894  0.4063 -1.6822
 3559SOL     OW10996   3.953   2.518   2.316  0.0572 -0.3702 -0.3763
 3559SOL    HW110997   4.039   2.477   2.285  0.7197 -0.7717  1.8299
 3559SOL    HW210998   3.945   2.610   2.278  2.0987  0.1593  0.3302
 3560SOL     OW10999   1.257   2.381   5.004  0.2780 -0.5934 -0.4736
 3560SOL    HW111000   1.275   2.478   4.987  1.4067 -0.6470  0.3123
 3560SOL    HW211001   1.209   2.342   4.925  0.6592  0.3830 -1.2090
 3561SOL     OW11002   0.427   0.804   3.849 -0.5412 -0.0066 -0.2346
 3561SOL    HW111003   0.342   0.755   3.829 -0.8958  0.8957 -1.0437
 3561SOL    HW211004   0.415   0.860   3.931 -0.6889  0.0067 -0.2646
 3562SOL     OW11005   3.403   0.053   4.679  0.1928 -0.4482  0.0602
 3562SOL    HW111006   3.356  -0.034   4.696  1.4211 -0.7685  2.2023
 3562SOL    HW211007   3.423   0.097   4.767  0.3483  1.6015 -0.9614
 3563SOL     OW11008   2.761   3.487   4.025 -0.1475  0.3691 -0.0469
 3563SOL    HW111009   2.804   3.577   4.033  1.9548 -0.7168  2.1076
 3563SOL    HW211010   2.826   3.422   3.987 -1.7441 -0.2579 -1.8881
 3564SOL     OW11011   2.686   5.161   1.735  0.3120  0.2430  0.4826
 3564SOL    HW111012   2.724   5.093   1.798 -0.2259  0.1826  0.7439
 3564SOL    HW211013   2.706   5.133   1.641 -1.8495 -1.5219  0.4551
 3565SOL     OW11014   4.077   2.252   2.626 -0.0435 -0.0667  0.1042
 3565SOL    HW111015   3.986   2.263   2.666 -0.0323 -1.0644  0.4372
 3565SOL    HW211016   4.068   2.217   2.533 -0.0493  1.6897 -0.5864
 3566SOL     OW11017   2.065   5.019   3.218 -0.2158 -0.3375  0.1229
 3566SOL    HW111018   2.036   5.114   3.215  1.1297  0.1076  0.5435
 3566SOL    HW211019   1.996   4.962   3.173 -0.3033  1.0040 -1.5345
 3567SOL     OW11020   5.139   5.374   0.971 -0.2880  0.3595 -0.3096
 3567SOL    HW111021   5.194   5.378   0.887 -0.4930 -0.9059 -0.5210
 3567SOL    HW211022   5.131   5.279   1.001  0.7509  0.8756  1.8122
 3568SOL     OW11023   1.451   1.621   1.842 -0.0555 -0.3286  0.3255
 3568SOL    HW111024   1.439   1.613   1.941  1.0583  1.0762  0.5956
 3568SOL    HW211025   1.406   1.704   1.810  1.9773  0.7441  0.1267
 3569SOL     OW11026   0.585   3.785   1.322  0.0651  0.7557  0.3921
 3569SOL    HW111027   0.665   3.733   1.352  0.4848  0.2652 -1.4704
 3569SOL    HW211028   0.535   3.818   1.402 -0.4606 -2.8149  1.7165
 3570SOL     OW11029   1.320   0.693   4.321 -0.5177 -0.6155 -0.1752
 3570SOL    HW111030   1.230   0.658   4.348 -0.0856  1.1471  4.5728
 3570SOL    HW211031   1.391   0.644   4.371  0.5998  2.0154  0.9806
 3571SOL     OW11032   1.753   4.576   1.313  0.3526  0.7680  0.1921
 3571SOL    HW111033   1.773   4.535   1.224 -1.2398  1.5323 -0.5462
 3571SOL    HW211034   1.815   4.537   1.382 -1.0828 -2.9582 -0.3931
 3572SOL     OW11035   2.115   1.694   2.051 -0.1713  0.2796  0.1941
 3572SOL    HW111036   2.050   1.664   2.122 -0.3416  1.3468  0.5218
 3572SOL    HW211037   2.188   1.748   2.094  0.5617 -0.3410 -0.2626
 3573SOL     OW11038   4.786   0.764   3.904 -0.2874 -0.3875 -0.2020
 3573SOL    HW111039   4.760   0.672   3.874  0.7424 -0.3344 -1.3660
 3573SOL    HW211040   4.734   0.789   3.985 -1.2163 -1.6523 -0.3759
 3574SOL     OW11041   3.362   4.140   3.322  0.5431 -0.2383  0.2500
 3574SOL    HW111042   3.301   4.125   3.400  0.2541  0.1770  0.1089
 3574SOL    HW211043   3.325   4.096   3.241  0.6462 -0.3444  0.2605
 3575SOL     OW11044   1.348   2.103   4.585  0.3514  0.0338  0.1923
 3575SOL    HW111045   1.426   2.155   4.550  0.6896  0.0238  0.9081
 3575SOL    HW211046   1.298   2.062   4.509  0.5915  0.6810 -0.3218
 3576SOL     OW11047   4.570   0.399   2.559  0.7444 -0.5735  0.0546
 3576SOL    HW111048   4.557   0.316   2.504  1.1969 -0.5053 -0.1594
 3576SOL    HW211049   4.486   0.453   2.557  1.8577  1.3794 -3.8414
 3577SOL     OW11050   4.338   3.590   4.077 -0.8324 -0.1094 -0.0018
 3577SOL    HW111051   4.389   3.505   4.071  1.3575  1.1768 -0.9724
 3577SOL    HW211052   4.327   3.616   4.174 -0.0326 -0.6486  0.2359
 3578SOL     OW11053   2.217   0.895   1.535  0.4806 -0.2465  0.1156
 3578SOL    HW111054   2.295   0.852   1.581  1.3499  2.0255  0.9103
 3578SOL    HW211055   2.239   0.910   1.439  0.5082 -0.7593  0.0397
 3579SOL     OW11056   5.254   1.473   0.003 -0.1259  0.8574 -0.1743
 3579SOL    HW111057   5.278   1.379  -0.023  1.0784  1.0807  0.0997
 3579SOL    HW211058   5.161   1.474   0.041 -0.1829 -0.2051 -0.2512
 3580SOL     OW11059   3.228   1.813   3.510 -0.4833  0.3336 -0.6056
 3580SOL    HW111060   3.273   1.724   3.498  0.1611  0.5663 -0.0055
 3580SOL    HW211061   3.267   1.859   3.590 -1.1184  0.9707 -0.6544
 3581SOL     OW11062   3.873   4.283   3.234  0.3254 -0.0655  0.0711
 3581SOL    HW111063   3.887   4.361   3.295 -0.5897  0.8512 -0.8381
 3581SOL    HW211064   3.794   4.230   3.264 -1.2253  1.3827 -1.2089
 3582SOL     OW11065   3.339   1.551   2.089  0.1403 -0.6062  0.0419
 3582SOL    HW111066   3.370   1.632   2.139  0.9602 -0.9769  0.1461
 3582SOL    HW211067   3.418   1.507   2.045 -0.5972  0.0257 -2.0576
 3583SOL     OW11068   1.622   1.571   2.199 -0.0480  0.0010  0.6471
 3583SOL    HW111069   1.529   1.564   2.164 -0.0665 -0.4566  0.7719
 3583SOL    HW211070   1.646   1.485   2.246  0.7562 -0.2420 -0.1733
 3584SOL     OW11071   4.604   2.162   1.780  0.1227  0.1741 -0.1839
 3584SOL    HW111072   4.612   2.128   1.874  1.6857 -0.5630 -0.5594
 3584SOL    HW211073   4.685   2.136   1.728 -0.2711  1.4329 -1.4809
 3585SOL     OW11074   3.422   4.313   5.220  0.1847  0.2070 -0.1158
 3585SOL    HW111075   3.431   4.337   5.124 -0.0040 -1.1309 -0.4866
 3585SOL    HW211076   3.512   4.310   5.263  0.5673 -1.8998 -0.9616
 3586SOL     OW11077   4.527   2.439   0.961 -0.2814  0.3219 -0.1076
 3586SOL    HW111078   4.589   2.511   0.993 -0.2753  0.3581 -0.1985
 3586SOL    HW211079   4.567   2.350   0.981  0.8783  0.3117 -2.1172
 3587SOL     OW11080   2.377   4.293   1.713 -0.9443 -0.0623 -0.5918
 3587SOL    HW111081   2.286   4.252   1.713 -0.9806  0.0087  0.3801
 3587SOL    HW211082   2.372   4.387   1.682 -0.7824 -0.8949 -3.4657
 3588SOL     OW11083   0.396   0.644   4.295  0.2544  0.4382 -0.1525
 3588SOL    HW111084   0.398   0.574   4.367  0.2709 -0.7077 -1.2181
 3588SOL    HW211085   0.394   0.599   4.206  0.6900  1.8217 -0.8884
 3589SOL     OW11086   1.386   3.899   2.283  0.3964  0.2060  0.5442
 3589SOL    HW111087   1.359   3.911   2.379 -1.7339 -0.6376  0.0868
 3589SOL    HW211088   1.435   3.812   2.274 -0.7141 -0.4418  0.6300
 3590SOL     OW11089   5.294   1.853   3.981  0.0228  0.1719  0.5575
 3590SOL    HW111090   5.256   1.934   4.025 -0.7070 -0.6274  1.4241
 3590SOL    HW211091   5.388   1.839   4.014  0.2104  0.7461  0.2814
 3591SOL     OW11092   1.846   2.189   3.590 -0.4635  0.0722  0.1545
 3591SOL    HW111093   1.782   2.205   3.515 -0.3362 -0.4621 -0.0677
 3591SOL    HW211094   1.803   2.130   3.659 -0.3055 -0.0761  0.1275
 3592SOL     OW11095   0.856   3.980   3.211  0.6427  0.1760  0.0579
 3592SOL    HW111096   0.910   3.953   3.291 -1.7066 -0.3735  1.5293
 3592SOL    HW211097   0.858   3.907   3.143 -0.3682 -0.9768  1.2330
 3593SOL     OW11098   5.377   1.706   0.994 -0.2307 -0.3181  0.2828
 3593SOL    HW111099   5.408   1.800   1.011  1.6313 -0.8664  0.0942
 3593SOL    HW211100   5.279   1.700   1.014 -1.1683  2.4113 -2.7007
 3594SOL     OW11101   4.048   1.490   2.328  0.5292  0.1766  0.0100
 3594SOL    HW111102   4.008   1.466   2.416  1.6232  0.2323  0.5415
 3594SOL    HW211103   4.067   1.407   2.276 -0.7424  0.1719 -0.4744
 3595SOL     OW11104   2.542   1.626   1.231  0.1412  0.1841 -0.4588
 3595SOL    HW111105   2.467   1.690   1.247 -1.0169 -0.8725 -1.4532
 3595SOL    HW211106   2.581   1.642   1.140  0.5570  0.1795 -0.2822
 3596SOL     OW11107   2.124   4.620   3.014 -0.2545  0.0221  0.1729
 3596SOL    HW111108   2.105   4.595   3.109 -1.2133  0.5854  0.1416
 3596SOL    HW211109   2.161   4.713   3.010 -0.2827  0.0270 -0.0026
 3597SOL     OW11110   3.847   1.577   4.123  0.1156 -0.6204 -0.6117
 3597SOL    HW111111   3.870   1.503   4.060  2.2206  0.3491 -1.0699
 3597SOL    HW211112   3.931   1.609   4.167 -0.8956  0.8596  0.2796
 3598SOL     OW11113   3.166   3.913   1.920  0.0278  0.1899  0.7200
 3598SOL    HW111114   3.133   3.868   1.837  1.6313  0.7162 -0.2317
 3598SOL    HW211115   3.100   3.983   1.948 -1.8721 -1.8015  1.4991
 3599SOL     OW11116   0.817   3.763   0.960  0.1152  0.0357 -0.2571
 3599SOL    HW111117   0.801   3.707   0.878 -0.5140 -0.6268  0.2928
 3599SOL    HW211118   0.735   3.818   0.979 -0.2538 -0.7776  0.6303
 3600SOL     OW11119   3.357   3.778   4.055 -0.0506 -0.0122  0.8214
 3600SOL    HW111120   3.327   3.870   4.030 -0.2874 -0.7180 -1.7799
 3600SOL    HW211121   3.297   3.711   4.013  1.4558 -1.4045  0.7815
 3601SOL     OW11122   1.483   3.952   4.629  0.0818  0.4216 -0.5828
 3601SOL    HW111123   1.526   4.012   4.562  1.8324 -0.2589 -0.1188
 3601SOL    HW211124   1.549   3.928   4.699 -0.2227 -2.7850 -1.2493
 3602SOL     OW11125   2.214   3.764   2.249  0.0679  0.1864  0.5002
 3602SOL    HW111126   2.303   3.759   2.294  0.7415 -1.2137 -0.9387
 3602SOL    HW211127   2.181   3.672   2.228 -1.3146  0.7178  0.2039
 3603SOL     OW11128   2.888   4.561   4.118  0.0345 -0.3480 -0.0435
 3603SOL    HW111129   2.844   4.485   4.070 -1.0968  0.5864 -0.5296
 3603SOL    HW211130   2.953   4.606   4.056  0.5416 -0.7843  0.1724
 3604SOL     OW11131   0.890   5.038   3.080 -0.9197  0.2632  0.0739
 3604SOL    HW111132   0.816   5.055   3.015  0.1261 -0.7723 -1.4398
 3604SOL    HW211133   0.891   4.941   3.104 -0.7091  0.4680  0.9317
 3605SOL     OW11134   1.062   2.476   4.555 -0.3810 -0.0960 -0.1094
 3605SOL    HW111135   0.962   2.474   4.557 -0.6133  3.7540 -0.1601
 3605SOL    HW211136   1.098   2.448   4.644 -1.5952 -0.1933  0.3702
 3606SOL     OW11137   2.704   0.344   0.731 -0.2357  0.4946  0.0411
 3606SOL    HW111138   2.797   0.335   0.767  0.2337 -0.4682 -1.3221
 3606SOL    HW211139   2.646   0.273   0.770  0.0827 -0.0806 -0.5156
 3607SOL     OW11140   1.121   1.238   0.124  0.7375  0.3065 -0.0318
 3607SOL    HW111141   1.126   1.138   0.127  1.2191  0.2658 -1.7232
 3607SOL    HW211142   1.108   1.273   0.217 -2.7393 -1.4849  0.3276
 3608SOL     OW11143   1.936   2.436   3.474 -0.4956  0.6997  0.0491
 3608SOL    HW111144   1.876   2.368   3.517 -0.6100  0.6093 -0.2521
 3608SOL    HW211145   2.027   2.395   3.459 -0.6781  0.4777 -0.4945
 3609SOL     OW11146   4.795   4.054   0.801 -0.9867  0.3148 -0.3626
 3609SOL    HW111147   4.774   4.038   0.898 -1.9086  0.7260 -0.4825
 3609SOL    HW211148   4.879   4.108   0.794 -0.7275 -0.0072  0.1952
 3610SOL     OW11149   4.222   2.167   3.078  0.2423  0.2551  0.4025
 3610SOL    HW111150   4.267   2.108   3.144 -1.0530  1.2209  2.2279
 3610SOL    HW211151   4.125   2.144   3.074  0.6481 -1.5499 -3.1901
 3611SOL     OW11152   4.212   3.602   1.051 -0.1146  0.1141 -0.3620
 3611SOL    HW111153   4.266   3.535   1.000  0.3085 -1.0748  1.5503
 3611SOL    HW211154   4.116   3.573   1.054 -0.0879  0.0313 -0.2761
 3612SOL     OW11155   0.017   1.918   1.802 -0.6437 -0.2999  0.1818
 3612SOL    HW111156   0.065   1.876   1.724 -2.3386  0.9888 -1.6274
 3612SOL    HW211157  -0.057   1.858   1.831 -0.4962 -0.4249  0.3030
 3613SOL     OW11158   5.285   5.206   0.305 -0.0173 -0.4189 -0.4838
 3613SOL    HW111159   5.206   5.186   0.363 -0.3118 -1.2956 -1.1470
 3613SOL    HW211160   5.295   5.132   0.238  0.0490  0.7462 -1.8082
 3614SOL     OW11161   1.993   5.564   4.948  0.3328  0.1690  0.2633
 3614SOL    HW111162   1.944   5.478   4.933 -1.7212  0.7776  2.7216
 3614SOL    HW211163   2.074   5.567   4.890  0.6854 -3.5772  0.3237
 3615SOL     OW11164   3.164   1.401   4.053  1.1017 -0.7310 -0.0872
 3615SOL    HW111165   3.245   1.456   4.071  0.9823 -0.2206 -1.0603
 3615SOL    HW211166   3.087   1.435   4.107  1.8542 -2.1504  2.0218
 3616SOL     OW11167   3.709   3.459   0.181 -0.1678 -0.8683 -0.5339
 3616SOL    HW111168   3.652   3.508   0.247  1.4229 -0.7047  0.7540
 3616SOL    HW211169   3.650   3.408   0.118 -1.8020  0.9910 -0.6040
 3617SOL     OW11170   5.085   3.097   2.508  0.1379  0.4319 -0.5090
 3617SOL    HW111171   5.070   3.000   2.489 -2.1128  0.8931 -1.5753
 3617SOL    HW211172   5.127   3.140   2.428  0.9578  0.3719 -0.1113
 3618SOL     OW11173   4.619   1.980   1.052  0.3215 -0.6189  0.1095
 3618SOL    HW111174   4.558   1.908   1.019  0.2102 -0.9349  0.9869
 3618SOL    HW211175   4.615   2.058   0.989 -0.0590 -1.1137 -0.4931
 3619SOL     OW11176   1.328   5.328   2.025  0.6028  0.3102 -0.0645
 3619SOL    HW111177   1.266   5.252   2.005  0.2982  0.1562  1.4047
 3619SOL    HW211178   1.404   5.325   1.960  0.4429 -1.0790 -0.2347
 3620SOL     OW11179   3.380   4.845   3.755 -0.2504 -0.0278  0.1214
 3620SOL    HW111180   3.414   4.910   3.688 -0.5696  1.0501  0.9776
 3620SOL    HW211181   3.280   4.854   3.763 -0.3633 -0.9679 -0.1022
 3621SOL     OW11182   3.198   3.364   1.391 -0.2558 -0.0753 -0.3682
 3621SOL    HW111183   3.263   3.439   1.404  1.2699 -1.2372 -1.1637
 3621SOL    HW211184   3.111   3.402   1.360 -0.8599  1.7835  2.9965
 3622SOL     OW11185   0.788   1.614   5.447  0.3311  0.4490 -0.0205
 3622SOL    HW111186   0.711   1.562   5.411  0.2760  1.1660 -0.9777
 3622SOL    HW211187   0.865   1.552   5.464 -0.5811 -0.3599  1.4322
 3623SOL     OW11188   3.295   1.444   0.302  0.6791  0.4937  0.1409
 3623SOL    HW111189   3.344   1.530   0.289  1.7666  0.3995  2.9900
 3623SOL    HW211190   3.356   1.376   0.343 -1.0978 -0.4535  1.3789
 3624SOL     OW11191   3.772   2.166   5.453 -0.0557  0.1660  0.3910
 3624SOL    HW111192   3.788   2.258   5.418  1.7249 -0.1472  0.3159
 3624SOL    HW211193   3.775   2.101   5.377 -0.8399 -0.0185  0.5098
 3625SOL     OW11194   2.121   3.140   1.325 -0.3699  0.2051  0.5480
 3625SOL    HW111195   2.026   3.120   1.303  0.7101 -2.8888 -2.0943
 3625SOL    HW211196   2.158   3.205   1.259  0.0774 -0.8733 -0.2898
 3626SOL     OW11197   5.097   4.409   0.283  0.2619 -0.3423 -0.1614
 3626SOL    HW111198   5.004   4.443   0.296 -0.1205 -0.8307 -1.4962
 3626SOL    HW211199   5.113   4.391   0.186  0.4042 -4.0155  0.4285
 3627SOL     OW11200   5.199   3.055   0.949  0.2849  0.4568  0.3025
 3627SOL    HW111201   5.185   3.152   0.927  3.6177  1.0588  0.3962
 3627SOL    HW211202   5.181   3.040   1.046 -0.7031  0.8266  0.1945
 3628SOL     OW11203   3.038   4.838   5.281  0.0261  0.0364 -0.4020
 3628SOL    HW111204   3.125   4.827   5.233 -0.6508  1.9005 -2.1815
 3628SOL    HW211205   3.053   4.891   5.365  0.5203  0.9899 -1.0742
 3629SOL     OW11206   2.559   1.418   2.171  0.2624  0.1588  0.2847
 3629SOL    HW111207   2.561   1.350   2.245 -2.7354 -0.1375  0.2211
 3629SOL    HW211208   2.538   1.508   2.209  1.6912  0.6087  0.0713
 3630SOL     OW11209   5.510   1.531   1.329 -0.5406  0.0486 -0.1902
 3630SOL    HW111210   5.491   1.453   1.270 -0.5402 -0.2899  0.2476
 3630SOL    HW211211   5.608   1.547   1.333 -0.6400  1.1822 -1.6735
 3631SOL     OW11212   3.557   2.593   2.544  0.5161  0.0649 -0.3962
 3631SOL    HW111213   3.652   2.568   2.526  0.6728 -0.1187  0.6653
 3631SOL    HW211214   3.497   2.526   2.500  0.9084 -0.9892  0.6306
 3632SOL     OW11215   0.229   5.237   1.793  0.2206  0.7743  0.5548
 3632SOL    HW111216   0.146   5.183   1.778  1.1163 -0.9229  1.4893
 3632SOL    HW211217   0.244   5.297   1.714  0.5532 -2.1774 -1.7812
 3633SOL     OW11218   4.063   5.223   4.499  0.8948  0.0721  0.1069
 3633SOL    HW111219   4.034   5.144   4.445 -2.4019  0.2566  1.3917
 3633SOL    HW211220   4.119   5.192   4.576  2.4450 -0.5634 -1.1960
 3634SOL     OW11221   5.479   5.235   4.122  0.8201 -0.5474 -0.1672
 3634SOL    HW111222   5.563   5.208   4.168 -0.2327  0.8799  2.8615
 3634SOL    HW211223   5.419   5.156   4.112  1.3878 -1.0286  0.2189
 3635SOL     OW11224   4.171   0.484   1.365 -0.3985  0.3322 -0.3778
 3635SOL    HW111225   4.233   0.553   1.329  1.0906 -1.4517 -1.4642
 3635SOL    HW211226   4.111   0.524   1.434  3.5643  1.7815  2.6047
 3636SOL     OW11227   2.724   4.685   5.573  0.1212  0.2532  0.3305
 3636SOL    HW111228   2.684   4.758   5.518 -2.1852 -1.7310 -0.8526
 3636SOL    HW211229   2.808   4.653   5.529 -0.4990  0.1990 -0.8663
 3637SOL     OW11230   4.839   4.384   4.182 -0.9861  0.0190 -0.1688
 3637SOL    HW111231   4.875   4.309   4.238 -0.9786  0.1310 -0.0211
 3637SOL    HW211232   4.772   4.348   4.118  0.3765 -0.4068 -1.3989
 3638SOL     OW11233   4.301   2.164   2.735 -0.0126  0.1053 -0.1622
 3638SOL    HW111234   4.330   2.250   2.777  0.3553  0.1188 -0.4410
 3638SOL    HW211235   4.216   2.179   2.684 -0.3324  0.1424  0.3700
 3639SOL     OW11236   3.890   4.673   1.616 -0.1729 -0.3574  0.0723
 3639SOL    HW111237   3.805   4.699   1.569 -0.1969  1.1740  0.8904
 3639SOL    HW211238   3.959   4.744   1.601  0.2088 -0.4451  1.3298
 3640SOL     OW11239   1.592   5.295   5.538 -0.1985  0.2047  0.1284
 3640SOL    HW111240   1.610   5.240   5.457  1.4659  0.9548 -0.0506
 3640SOL    HW211241   1.620   5.245   5.620  0.9003  0.5860 -0.0009
 3641SOL     OW11242   2.498   1.123   4.272 -0.3853 -0.0353 -0.3190
 3641SOL    HW111243   2.406   1.086   4.258 -0.7036 -0.3231  2.1483
 3641SOL    HW211244   2.500   1.179   4.354  1.5283  0.4709 -0.6504
 3642SOL     OW11245   0.419   4.262   5.223 -0.7185  0.0656 -1.0198
 3642SOL    HW111246   0.346   4.286   5.288 -1.3186 -1.3638 -1.1080
 3642SOL    HW211247   0.498   4.229   5.274 -0.5860  0.4737 -0.9611
 3643SOL     OW11248   2.835   3.320   3.343 -0.0607  0.4895 -0.7399
 3643SOL    HW111249   2.750   3.368   3.320  0.1065  0.4839 -1.3895
 3643SOL    HW211250   2.857   3.254   3.270  0.5977  0.6273 -0.6721
 3644SOL     OW11251   3.596   0.165   4.225 -0.0378  0.4110 -0.4525
 3644SOL    HW111252   3.562   0.099   4.291 -0.2893  0.1376 -0.8550
 3644SOL    HW211253   3.577   0.133   4.132  1.8176 -0.0524 -0.7199
 3645SOL     OW11254   3.331   5.315   1.603 -0.1443  0.8960  0.1504
 3645SOL    HW111255   3.315   5.392   1.541 -0.7594  0.1254 -0.6738
 3645SOL    HW211256   3.421   5.275   1.583 -0.4064  0.5533 -0.3614
 3646SOL     OW11257   1.554   4.106   4.424  0.1311  0.3318 -0.2650
 3646SOL    HW111258   1.475   4.110   4.363  0.0931  0.0252 -0.2377
 3646SOL    HW211259   1.584   4.198   4.446 -0.2468  0.4499 -0.2430
 3647SOL     OW11260   2.175   4.202   3.356 -0.1145  0.1649 -0.1857
 3647SOL    HW111261   2.197   4.294   3.325 -0.5272 -0.0511 -1.1549
 3647SOL    HW211262   2.212   4.135   3.291 -1.8382 -0.2721 -0.7703
 3648SOL     OW11263   4.927   5.317   3.533 -0.2049 -0.2773  0.2642
 3648SOL    HW111264   5.017   5.276   3.514 -0.5801 -1.0052  0.0335
 3648SOL    HW211265   4.865   5.247   3.567 -0.7539  0.1826  0.2191
 3649SOL     OW11266   5.546   4.287   5.077 -0.6591 -0.4082 -0.4217
 3649SOL    HW111267   5.555   4.340   4.993 -1.3970 -0.4962 -0.5642
 3649SOL    HW211268   5.472   4.220   5.066  0.7897 -2.0622 -0.5664
 3650SOL     OW11269   1.993   4.547   2.009  0.1690  0.3676 -0.3295
 3650SOL    HW111270   2.033   4.611   1.944 -1.6258  1.8656 -0.0174
 3650SOL    HW211271   1.896   4.534   1.988  0.2743 -1.5750  0.1698
 3651SOL     OW11272   0.442   4.647   1.275  0.7182  0.0627  0.1298
 3651SOL    HW111273   0.447   4.700   1.190 -0.7397 -0.5506 -0.3658
 3651SOL    HW211274   0.527   4.657   1.325  1.6504  0.3768 -1.4454
 3652SOL     OW11275   0.369   0.670   0.390 -0.9245  0.4570  0.4774
 3652SOL    HW111276   0.429   0.694   0.467 -2.6027  1.7303  1.4685
 3652SOL    HW211277   0.274   0.681   0.418 -1.7213 -2.4421 -0.7362
 3653SOL     OW11278   3.972   0.989   1.272  0.3989 -0.5940  0.8517
 3653SOL    HW111279   4.062   0.966   1.309 -0.0502 -0.0749  2.3293
 3653SOL    HW211280   3.902   0.971   1.341 -0.2453  2.6467  1.1921
 3654SOL     OW11281   2.976   5.273   4.672 -0.4435 -0.1237  0.2898
 3654SOL    HW111282   2.922   5.290   4.589 -0.0832  0.7306  0.2166
 3654SOL    HW211283   2.930   5.205   4.729 -1.7660  0.8158  0.3766
 3655SOL     OW11284   0.089   5.417   0.248  0.0311 -0.2106  0.0224
 3655SOL    HW111285   0.123   5.495   0.196  1.1947  1.0130  2.4160
 3655SOL    HW211286   0.046   5.351   0.187 -0.7616  2.1641 -2.1393
 3656SOL     OW11287   0.566   3.426   5.065  0.0633  0.3019 -0.2557
 3656SOL    HW111288   0.594   3.414   4.969 -1.1759 -0.2880 -0.5704
 3656SOL    HW211289   0.570   3.338   5.112  0.3451  0.5293  0.1526
 3657SOL     OW11290   0.731   1.816   0.075  0.2174  0.4218  0.2532
 3657SOL    HW111291   0.742   1.726   0.033  1.2809  0.5866  0.1447
 3657SOL    HW211292   0.643   1.820   0.123  0.3900 -0.8670  0.7239
 3658SOL     OW11293   1.982   2.461   2.090  0.6080  0.1935 -0.3708
 3658SOL    HW111294   2.077   2.430   2.085  0.3052 -0.8324  0.0899
 3658SOL    HW211295   1.944   2.437   2.180 -0.4282 -0.4113 -0.9608
 3659SOL     OW11296   0.432   4.012   3.146 -0.1607 -0.3846  0.2459
 3659SOL    HW111297   0.486   4.056   3.217 -0.4575 -2.2255  1.7108
 3659SOL    HW211298   0.335   4.018   3.170 -0.3266 -0.3539 -0.4175
 3660SOL     OW11299   1.131   2.296   2.013 -0.1852  0.2422 -0.6736
 3660SOL    HW111300   1.117   2.279   2.111 -0.0006  2.9645 -0.1021
 3660SOL    HW211301   1.045   2.284   1.965 -0.4262 -0.4603 -0.0991
 3661SOL     OW11302   2.967   5.485   0.765 -0.0970 -0.3062  0.0671
 3661SOL    HW111303   2.922   5.528   0.687 -0.5728 -2.3414 -0.8354
 3661SOL    HW211304   2.932   5.526   0.850 -1.8993 -0.2044 -0.6789
 3662SOL     OW11305   2.116   1.992   1.416  0.6679 -0.6493 -0.2517
 3662SOL    HW111306   2.115   2.078   1.365  1.5641 -1.0161 -0.9345
 3662SOL    HW211307   2.025   1.973   1.451  0.1327 -0.1097 -1.2795
 3663SOL     OW11308   1.852   5.001   2.015 -0.0927  0.8337 -0.1064
 3663SOL    HW111309   1.840   5.080   2.075  0.4661  0.6150  0.3051
 3663SOL    HW211310   1.948   4.995   1.986 -0.1349  0.3249 -0.1538
 3664SOL     OW11311   0.071   0.978   1.309  1.0623 -0.2299 -0.3450
 3664SOL    HW111312   0.017   0.935   1.381  1.6063 -2.1445 -1.0262
 3664SOL    HW211313   0.144   0.916   1.280  1.1290  0.6595 -2.2302
 3665SOL     OW11314   5.448   1.308   0.428 -0.0400  0.3133  0.0806
 3665SOL    HW111315   5.474   1.337   0.335 -0.6385  0.3832 -0.0690
 3665SOL    HW211316   5.422   1.212   0.427  0.9011  0.0419  0.3728
 3666SOL     OW11317   0.797   4.686   5.002 -0.1115  0.4333  0.1944
 3666SOL    HW111318   0.730   4.651   5.068  0.4050 -2.6913 -0.7870
 3666SOL    HW211319   0.750   4.710   4.917 -0.2299  0.2392  0.2052
 3667SOL     OW11320   5.387   0.228   0.840  0.1609 -0.2886 -0.2168
 3667SOL    HW111321   5.416   0.292   0.769  0.6056  3.1834  2.8011
 3667SOL    HW211322   5.287   0.227   0.844  0.1470  1.3192  0.5245
 3668SOL     OW11323   2.907   1.820   2.317  0.0719  0.2880 -0.1860
 3668SOL    HW111324   2.887   1.875   2.236 -0.5463 -0.3968 -0.5104
 3668SOL    HW211325   2.918   1.724   2.291 -3.1612 -0.5006  0.8177
 3669SOL     OW11326   5.347   5.507   5.513  0.1247 -0.2378  0.4232
 3669SOL    HW111327   5.341   5.466   5.604  0.9676 -1.4319 -0.0370
 3669SOL    HW211328   5.256   5.537   5.484 -0.5189 -1.6923  0.8443
 3670SOL     OW11329   3.675   1.069   2.927  0.4660  0.1713  0.4677
 3670SOL    HW111330   3.752   1.077   2.989  0.8970  0.9078 -0.1431
 3670SOL    HW211331   3.682   0.983   2.875 -0.3028 -0.8235  1.9350
 3671SOL     OW11332   4.507   3.588   3.659  0.2220 -0.4990 -0.0259
 3671SOL    HW111333   4.414   3.554   3.644 -0.1695  0.2463  0.6062
 3671SOL    HW211334   4.562   3.575   3.576 -0.1457 -1.8670 -0.0714
 3672SOL     OW11335   1.807   5.418   4.305 -0.4195 -0.4872 -0.2447
 3672SOL    HW111336   1.777   5.422   4.400 -0.0583  0.4640 -0.1593
 3672SOL    HW211337   1.857   5.502   4.282 -1.2827 -0.2812 -1.5315
 3673SOL     OW11338   0.852   4.432   0.307  0.0729  0.1901  0.0020
 3673SOL    HW111339   0.787   4.396   0.240  0.5870  1.8715 -1.4745
 3673SOL    HW211340   0.872   4.528   0.286  0.2039  0.8192  2.6310
 3674SOL     OW11341   3.236   3.949   5.508  0.0672  0.2247 -0.5385
 3674SOL    HW111342   3.207   3.855   5.493  0.5006 -0.0992  0.5469
 3674SOL    HW211343   3.336   3.954   5.502  0.1400  0.3648  0.6373
 3675SOL     OW11344   3.866   0.637   3.767  0.3916 -0.3155 -0.2684
 3675SOL    HW111345   3.939   0.584   3.725  0.3983 -0.5060 -0.0210
 3675SOL    HW211346   3.896   0.731   3.783  0.7703 -0.5295  0.3223
 3676SOL     OW11347   2.932   5.246   2.260  0.0678 -0.1300  0.1867
 3676SOL    HW111348   2.967   5.270   2.169  2.5793  1.2364  1.4042
 3676SOL    HW211349   2.839   5.281   2.270 -0.5990 -1.0333 -2.0885
 3677SOL     OW11350   4.098   1.227   2.026 -0.2308 -0.0044  0.0648
 3677SOL    HW111351   4.047   1.254   1.944 -2.9993 -1.7138  1.0966
 3677SOL    HW211352   4.157   1.149   2.005 -1.8045 -1.1979 -0.1279
 3678SOL     OW11353   4.707   3.994   3.764 -0.3365 -0.4285 -0.1174
 3678SOL    HW111354   4.740   4.085   3.740  1.2177 -0.9206  0.0707
 3678SOL    HW211355   4.652   3.999   3.848  0.8512  0.1632  0.6448
 3679SOL     OW11356   5.311   1.809   2.213 -0.1576 -0.1625  0.1576
 3679SOL    HW111357   5.270   1.773   2.297  0.9045  1.3249  1.3963
 3679SOL    HW211358   5.396   1.759   2.194  0.3835  0.4480  0.8620
 3680SOL     OW11359   1.962   2.457   0.529 -0.3967 -0.1153 -0.1099
 3680SOL    HW111360   1.871   2.428   0.556 -0.5431  2.2547  2.3542
 3680SOL    HW211361   1.958   2.507   0.442 -1.6153  0.8045  0.4614
 3681SOL     OW11362   4.930   5.474   1.283  0.1983  0.1088 -0.2852
 3681SOL    HW111363   4.944   5.407   1.356 -2.1735  1.7827  1.8770
 3681SOL    HW211364   4.898   5.560   1.322 -1.2199  1.0982 -3.3148
 3682SOL     OW11365   2.997   1.269   1.571  0.0596 -0.1274 -0.1941
 3682SOL    HW111366   3.096   1.256   1.569 -0.2219 -2.9227  0.2934
 3682SOL    HW211367   2.961   1.267   1.478  0.4162  0.6063 -0.3532
 3683SOL     OW11368   3.038   0.655   1.035 -0.7483 -0.8884  0.1983
 3683SOL    HW111369   3.021   0.751   1.010  0.9217 -0.7241 -0.4756
 3683SOL    HW211370   2.973   0.627   1.106 -1.1834  0.7827  0.5106
 3684SOL     OW11371   2.039   0.387   2.444  0.2966  0.2475 -0.0524
 3684SOL    HW111372   1.960   0.388   2.505  0.0470  1.4776 -0.3829
 3684SOL    HW211373   2.032   0.462   2.378  0.9928 -0.5357 -1.0487
 3685SOL     OW11374   2.090   4.084   0.996  0.1294  0.0362 -0.3779
 3685SOL    HW111375   2.013   4.147   1.007  1.0658  1.2169 -0.4543
 3685SOL    HW211376   2.105   4.034   1.082  0.7601  1.5364  0.4124
 3686SOL     OW11377   5.444   2.330   3.381  0.7776 -0.0521  0.4570
 3686SOL    HW111378   5.369   2.369   3.327  1.8176  0.8697 -0.3667
 3686SOL    HW211379   5.442   2.369   3.473  0.5045  0.2987  0.3049
 3687SOL     OW11380   2.389   5.088   2.679 -0.1966 -0.2082 -0.1929
 3687SOL    HW111381   2.415   5.096   2.776 -1.8128 -1.9599  0.4468
 3687SOL    HW211382   2.311   5.149   2.661 -0.6186 -0.7067 -0.0815
 3688SOL     OW11383   1.081   2.218   4.302  0.0533 -0.0896 -0.0190
 3688SOL    HW111384   1.148   2.292   4.312  0.5145 -0.4464 -0.3729
 3688SOL    HW211385   1.118   2.134   4.343 -0.6404 -0.0270  0.7503
 3689SOL     OW11386   0.776   3.607   1.383  0.3871 -0.0281 -0.1493
 3689SOL    HW111387   0.747   3.536   1.448  1.1585  0.7210  1.0583
 3689SOL    HW211388   0.777   3.569   1.291 -2.3567 -0.6659 -0.0061
 3690SOL     OW11389   1.486   0.998   4.444 -0.2518 -0.0375  0.2259
 3690SOL    HW111390   1.413   1.003   4.513 -0.1313 -1.6036  0.5022
 3690SOL    HW211391   1.445   0.994   4.353 -0.5194 -0.5623  0.3629
 3691SOL     OW11392   4.100   4.118   4.195 -0.7992 -0.3032 -0.2009
 3691SOL    HW111393   4.053   4.073   4.119  1.2939  1.3141 -2.6708
 3691SOL    HW211394   4.171   4.057   4.231 -1.5705 -0.9514  0.2539
 3692SOL     OW11395   0.010   3.259   3.470 -0.5974 -0.1910 -0.3869
 3692SOL    HW111396   0.059   3.324   3.529  0.9133 -0.5267 -1.2246
 3692SOL    HW211397   0.034   3.276   3.375  0.7353 -2.6886 -0.5574
 3693SOL     OW11398   2.112   5.381   3.497 -0.0055  0.3314  0.2854
 3693SOL    HW111399   2.032   5.404   3.443 -0.8517 -0.8135  1.0054
 3693SOL    HW211400   2.117   5.282   3.509  0.3800  0.5091  1.9194
 3694SOL     OW11401   4.766   3.403   3.232  0.0527 -0.3189  0.7346
 3694SOL    HW111402   4.851   3.396   3.179  0.0478  2.2680  0.2601
 3694SOL    HW211403   4.692   3.434   3.172 -0.1793  1.7299  1.9847
 3695SOL     OW11404   2.842   0.897   1.936  0.3592  0.1811 -0.5722
 3695SOL    HW111405   2.747   0.887   1.968  0.7347 -2.3032 -0.0041
 3695SOL    HW211406   2.844   0.958   1.857 -1.5861  1.0058 -0.0378
 3696SOL     OW11407   2.053   2.377   5.094 -0.2419 -0.5958  0.2958
 3696SOL    HW111408   2.042   2.292   5.147 -0.3593 -1.2408 -0.7334
 3696SOL    HW211409   1.980   2.441   5.119 -0.0526 -0.7191  1.2062
 3697SOL     OW11410   4.709   2.627   4.649  0.8577 -0.1165  0.9542
 3697SOL    HW111411   4.732   2.556   4.582 -2.2573  0.0934 -0.4935
 3697SOL    HW211412   4.627   2.599   4.700 -0.2319  2.2617  0.5981
 3698SOL     OW11413   0.114   5.319   2.901  0.7711 -0.0931  0.5153
 3698SOL    HW111414   0.113   5.310   3.001 -3.4029  0.4971  0.7350
 3698SOL    HW211415   0.049   5.255   2.861  0.7864  1.1158 -1.6055
 3699SOL     OW11416   3.916   0.354   4.543 -0.1631  0.1319 -0.4374
 3699SOL    HW111417   3.928   0.322   4.637 -1.7978 -0.4581 -0.3864
 3699SOL    HW211418   3.897   0.452   4.543 -1.3864 -0.0825 -0.0075
 3700SOL     OW11419   2.194   4.837   0.392  0.1302 -0.3968 -0.0599
 3700SOL    HW111420   2.272   4.832   0.455 -0.8526 -0.0933  1.2279
 3700SOL    HW211421   2.169   4.933   0.379  0.4611 -0.4402 -1.1230
 3701SOL     OW11422   4.553   1.760   3.498  0.3105  0.6687  0.4960
 3701SOL    HW111423   4.543   1.672   3.543  0.7091  0.5276  0.3100
 3701SOL    HW211424   4.592   1.748   3.407 -1.9086  0.7959 -0.5470
 3702SOL     OW11425   0.155   3.172   1.124  0.3147 -0.0460  0.1022
 3702SOL    HW111426   0.240   3.223   1.139  0.5238  0.0306 -1.2697
 3702SOL    HW211427   0.166   3.107   1.049 -1.3439  1.2625 -1.3833
 3703SOL     OW11428   4.056   5.009   4.024  0.4079 -0.2622 -0.0560
 3703SOL    HW111429   4.049   5.003   3.925 -1.0104  1.0643 -0.0845
 3703SOL    HW211430   4.147   5.040   4.050  0.9640 -1.1685 -0.9033
 3704SOL     OW11431   4.544   3.980   0.699 -0.4439 -0.7104  0.0438
 3704SOL    HW111432   4.628   3.991   0.752 -0.7051 -1.3260  0.5980
 3704SOL    HW211433   4.469   4.029   0.745 -0.5130 -0.6192 -0.1623
 3705SOL     OW11434   1.685   0.134   1.203 -0.1228 -0.3508 -0.3513
 3705SOL    HW111435   1.668   0.229   1.229  1.9683 -0.2194  0.7343
 3705SOL    HW211436   1.598   0.089   1.184 -1.2207  1.5314 -0.0267
 3706SOL     OW11437   4.481   0.371   4.339 -0.0295  0.3584  0.1549
 3706SOL    HW111438   4.536   0.335   4.414 -0.8770  1.0235  1.1301
 3706SOL    HW211439   4.502   0.321   4.255  2.3833  0.9009  0.3710
 3707SOL     OW11440   5.140   0.149   2.454  0.0451 -0.1305  0.4944
 3707SOL    HW111441   5.046   0.180   2.466  0.3907  0.6006  1.4082
 3707SOL    HW211442   5.203   0.215   2.496  0.8786 -1.3839  1.2774
 3708SOL     OW11443   3.433   3.417   1.666  0.4460 -0.1514  0.2516
 3708SOL    HW111444   3.450   3.320   1.681  2.8784  0.4418  2.0289
 3708SOL    HW211445   3.439   3.437   1.568  0.4332 -1.6907 -0.0897
 3709SOL     OW11446   3.473   2.745   1.541  0.6428 -0.6105  0.1462
 3709SOL    HW111447   3.415   2.826   1.537 -0.2804 -1.2985 -0.9912
 3709SOL    HW211448   3.566   2.768   1.513  1.3855  0.8240  3.3342
 3710SOL     OW11449   1.627   5.111   4.992  0.3266  0.2004 -0.5008
 3710SOL    HW111450   1.698   5.126   5.060  0.4132  2.1205 -0.9488
 3710SOL    HW211451   1.650   5.033   4.935  0.2680 -1.4396  1.5983
 3711SOL     OW11452   0.445   1.534   3.697 -0.2260 -0.4244  0.0840
 3711SOL    HW111453   0.386   1.455   3.712 -0.3560 -0.1964  0.8457
 3711SOL    HW211454   0.408   1.591   3.624  0.0697 -1.2566 -0.7318
 3712SOL     OW11455   5.025   2.071   1.489  0.2111  0.1188  0.0910
 3712SOL    HW111456   5.046   2.154   1.437  0.5032 -0.3968 -0.6389
 3712SOL    HW211457   5.064   1.992   1.442 -1.1175 -0.5818  0.1054
 3713SOL     OW11458   3.196   0.423   1.905 -0.2715 -0.2922 -0.0897
 3713SOL    HW111459   3.294   0.443   1.901  0.0314 -1.6281 -4.1866
 3713SOL    HW211460   3.149   0.473   1.833 -1.8773 -2.5561 -0.7296
 3714SOL     OW11461   1.210   1.981   4.403 -0.3196  0.1180  0.1873
 3714SOL    HW111462   1.148   1.903   4.413  0.5214 -0.6384 -0.3800
 3714SOL    HW211463   1.297   1.950   4.365 -0.6646  1.6474 -2.0344
 3715SOL     OW11464   1.649   0.507   1.545  0.2896 -0.1010 -0.0780
 3715SOL    HW111465   1.734   0.548   1.578  0.4518 -1.3109  1.1080
 3715SOL    HW211466   1.617   0.439   1.611 -2.5027  1.4510  0.3171
 3716SOL     OW11467   4.821   1.736   4.079  0.4997 -0.0833  0.2098
 3716SOL    HW111468   4.905   1.700   4.038  0.8612  0.5137  0.4011
 3716SOL    HW211469   4.799   1.824   4.037  0.3156  0.0571  0.5937
 3717SOL     OW11470   4.696   4.602   1.059 -0.2259 -0.7303 -0.1238
 3717SOL    HW111471   4.625   4.648   1.005  1.0546 -1.4614 -2.5578
 3717SOL    HW211472   4.667   4.509   1.078 -1.2864 -0.0621  1.7541
 3718SOL     OW11473   0.211   3.676   0.284 -0.6158 -0.2980  0.1431
 3718SOL    HW111474   0.113   3.669   0.302 -0.9396  2.9164  0.1682
 3718SOL    HW211475   0.236   3.772   0.272  2.8427 -0.8155  1.8438
 3719SOL     OW11476   1.945   2.845   1.624 -0.7922  0.1898  0.8787
 3719SOL    HW111477   1.963   2.750   1.600  1.0369  1.0090 -1.3367
 3719SOL    HW211478   1.997   2.869   1.706  0.3440 -0.2015  0.2925
 3720SOL     OW11479   4.429   5.083   2.815  0.4046  0.6658  0.1103
 3720SOL    HW111480   4.415   5.002   2.873  1.1317 -0.2688 -0.9642
 3720SOL    HW211481   4.480   5.152   2.866 -0.9937  0.8270  1.3411
 3721SOL     OW11482   1.899   5.429   3.336  0.0145  0.2568  0.4422
 3721SOL    HW111483   1.884   5.346   3.282  0.2741  0.2828  0.3260
 3721SOL    HW211484   1.911   5.507   3.274 -1.2539  0.5732  0.5622
 3722SOL     OW11485   5.563   3.920   2.919  0.0162 -0.5318 -0.4959
 3722SOL    HW111486   5.495   3.847   2.916  0.0273 -0.5211 -0.9548
 3722SOL    HW211487   5.531   3.998   2.865 -0.1745 -0.0384  0.3106
 3723SOL     OW11488   3.955   2.342   1.297  0.1290 -0.1964 -0.8143
 3723SOL    HW111489   3.874   2.336   1.354  0.5724  0.0105 -0.1537
 3723SOL    HW211490   3.951   2.424   1.241  0.2065  0.1852 -0.2671
 3724SOL     OW11491   1.161   5.361   0.518  0.7125 -0.0479 -0.5037
 3724SOL    HW111492   1.094   5.288   0.530 -0.1679  0.5720 -1.4065
 3724SOL    HW211493   1.128   5.444   0.562  2.0125 -0.3366  1.0890
 3725SOL     OW11494   0.732   2.406   3.806  0.3286  0.2432  0.0954
 3725SOL    HW111495   0.792   2.464   3.861  0.0020 -1.3744  2.2839
 3725SOL    HW211496   0.644   2.396   3.853 -1.1303  1.2166 -2.2358
 3726SOL     OW11497   2.826   5.123   1.215  0.3653 -0.1160 -0.1903
 3726SOL    HW111498   2.770   5.122   1.297  1.0045  1.0969  0.2811
 3726SOL    HW211499   2.835   5.029   1.180  0.3997 -0.7038  1.3252
 3727SOL     OW11500   3.106   4.980  -0.014 -0.0461  0.1673  0.0846
 3727SOL    HW111501   3.189   4.932   0.015 -1.3763 -2.0844  0.4169
 3727SOL    HW211502   3.069   5.031   0.064 -0.1104 -0.5609  0.5408
 3728SOL     OW11503   1.543   2.598   3.123 -0.3187  0.1337  0.0951
 3728SOL    HW111504   1.516   2.679   3.173 -1.0519 -0.4410  0.6551
 3728SOL    HW211505   1.465   2.564   3.070 -0.0553 -0.2691 -0.0396
 3729SOL     OW11506  -0.017   1.778   4.071  0.0179 -0.4674 -0.3939
 3729SOL    HW111507   0.016   1.796   4.164  1.9151  1.2187 -1.2938
 3729SOL    HW211508   0.044   1.712   4.027 -0.0259 -0.2023 -0.8605
 3730SOL     OW11509   1.069   0.704   0.697  0.0774  0.0858  0.0098
 3730SOL    HW111510   1.152   0.659   0.666 -0.6094 -0.2537 -1.4158
 3730SOL    HW211511   1.061   0.793   0.653 -0.0477  0.3471  0.5561
 3731SOL     OW11512   2.449   0.510   1.398 -0.0314  0.0338 -0.2189
 3731SOL    HW111513   2.352   0.489   1.391 -0.2309  0.8861 -0.1063
 3731SOL    HW211514   2.501   0.425   1.406 -0.7560 -0.4313 -0.3755
 3732SOL     OW11515   3.113   1.110   4.993  0.0880 -0.3174 -0.2522
 3732SOL    HW111516   3.174   1.102   5.072 -0.5421 -0.6871  0.2133
 3732SOL    HW211517   3.088   1.018   4.962  0.1442 -0.1685 -0.7309
 3733SOL     OW11518   2.151   4.831   3.384 -0.7824  0.4065  0.0945
 3733SOL    HW111519   2.107   4.899   3.325 -1.1017 -0.1926 -0.3693
 3733SOL    HW211520   2.247   4.821   3.356 -0.5092  1.2367  0.6843
 3734SOL     OW11521   2.755   1.213   1.736  0.3591  0.2274  0.0118
 3734SOL    HW111522   2.843   1.218   1.690  1.1131 -1.7637  1.1164
 3734SOL    HW211523   2.763   1.251   1.829  0.1655 -0.3248  0.2598
 3735SOL     OW11524   0.484   0.415   2.885 -0.5775  0.0056 -0.0211
 3735SOL    HW111525   0.459   0.330   2.838 -0.3986 -0.1113  0.0940
 3735SOL    HW211526   0.402   0.454   2.928 -1.2812  1.4057 -2.4426
 3736SOL     OW11527   0.968   2.469   3.180 -0.0667  0.4632 -0.2651
 3736SOL    HW111528   0.932   2.402   3.244  0.5457 -0.5110 -0.9112
 3736SOL    HW211529   0.896   2.494   3.114 -0.4598  0.8827  0.3095
 3737SOL     OW11530   2.418   3.640   3.494  0.1030  0.7161  0.7571
 3737SOL    HW111531   2.508   3.675   3.467  0.7147 -1.2617  0.0413
 3737SOL    HW211532   2.379   3.588   3.418 -0.7392 -0.1309  1.7448
 3738SOL     OW11533   3.335   5.344   4.018  0.1302 -0.3948  0.2365
 3738SOL    HW111534   3.387   5.353   4.103  0.4192  0.3849 -0.0129
 3738SOL    HW211535   3.398   5.345   3.940 -0.2599  1.2221 -0.1114
 3739SOL     OW11536   5.180   3.737   0.374  0.5706  0.1061 -0.4930
 3739SOL    HW111537   5.152   3.832   0.389  3.0483  0.8273 -0.1317
 3739SOL    HW211538   5.138   3.679   0.445  0.4368  1.1960  0.3430
 3740SOL     OW11539   0.480   3.138   0.873  0.2046 -0.3114 -0.4158
 3740SOL    HW111540   0.544   3.068   0.841  1.5107 -0.0522  1.4332
 3740SOL    HW211541   0.397   3.095   0.906  0.5608 -0.8968 -0.2747
 3741SOL     OW11542   1.287   4.669   3.786 -0.5647  0.2938  0.0439
 3741SOL    HW111543   1.282   4.585   3.732  1.2995 -0.8601  1.5311
 3741SOL    HW211544   1.327   4.742   3.731  0.3375 -0.5626 -0.4703
 3742SOL     OW11545   2.442   5.523   1.461 -0.5692  0.2029  0.1053
 3742SOL    HW111546   2.452   5.512   1.560 -1.8580  1.4258  0.4051
 3742SOL    HW211547   2.356   5.570   1.442 -1.6895 -2.3649 -1.7379
 3743SOL     OW11548   0.541   0.150   5.053  0.3123 -0.5752 -0.0584
 3743SOL    HW111549   0.594   0.079   5.098  0.9271 -0.9032 -1.2839
 3743SOL    HW211550   0.602   0.217   5.012 -0.2555  0.2549  0.4145
 3744SOL     OW11551   5.390   1.653   4.417  0.3761  0.1947  0.2120
 3744SOL    HW111552   5.440   1.726   4.371 -0.2292  0.8510  0.5929
 3744SOL    HW211553   5.316   1.691   4.471 -2.3093 -0.8898 -2.4130
 3745SOL     OW11554   0.291   0.052   4.623  0.0209  0.3596  0.0940
 3745SOL    HW111555   0.274  -0.047   4.617 -2.0692  0.6637 -0.0246
 3745SOL    HW211556   0.278   0.082   4.717  0.4438  0.5501  0.0909
 3746SOL     OW11557   5.451   0.046   1.284  0.0545 -0.1409 -0.2562
 3746SOL    HW111558   5.358   0.009   1.281 -0.5835  1.2672  1.0774
 3746SOL    HW211559   5.462   0.114   1.212  0.1243 -0.4315 -0.5243
 3747SOL     OW11560   1.750   0.059   2.360  0.2697  0.1641 -0.1888
 3747SOL    HW111561   1.780   0.011   2.278 -0.3541 -0.9608  0.2075
 3747SOL    HW211562   1.700   0.142   2.335  0.8652  0.3064 -0.9099
 3748SOL     OW11563   5.123   5.165   4.477  0.5288 -0.2206  0.1303
 3748SOL    HW111564   5.196   5.172   4.545  0.6314  0.3767 -0.0293
 3748SOL    HW211565   5.131   5.079   4.427  0.8343 -0.3727  0.4402
 3749SOL     OW11566   3.790   4.941   3.559  0.1162  0.3247  0.3199
 3749SOL    HW111567   3.731   4.914   3.483  1.3264  2.2155 -1.3824
 3749SOL    HW211568   3.741   5.004   3.619  0.0452  1.1218 -0.5505
 3750SOL     OW11569   0.511   5.351   4.447  0.2497  0.2863  0.0686
 3750SOL    HW111570   0.503   5.313   4.355 -0.6310 -1.4098  0.7847
 3750SOL    HW211571   0.544   5.445   4.442 -0.5830  0.5269 -2.0183
 3751SOL     OW11572   5.461   4.142   1.032 -0.0673 -0.1328 -0.1500
 3751SOL    HW111573   5.412   4.229   1.033  0.5509  0.2531 -1.0087
 3751SOL    HW211574   5.535   4.147   0.964  0.3390 -1.1328  0.1975
 3752SOL     OW11575   0.948   0.669   2.050 -0.0659  0.1634 -0.3117
 3752SOL    HW111576   0.905   0.584   2.021  1.0579  0.0905 -1.9217
 3752SOL    HW211577   0.984   0.658   2.143 -0.5809 -0.8671 -0.2165
 3753SOL     OW11578   4.232   1.979   0.865  0.0855 -0.5506 -0.3893
 3753SOL    HW111579   4.264   2.051   0.926  1.1854 -0.7418 -0.7227
 3753SOL    HW211580   4.222   2.016   0.773  1.8703 -1.0867 -0.8370
 3754SOL     OW11581   2.998   0.679   4.216  0.0507  0.1062  0.7407
 3754SOL    HW111582   2.900   0.685   4.238 -0.3847 -0.2491 -0.9324
 3754SOL    HW211583   3.016   0.593   4.168  1.0993  0.3738  0.6328
 3755SOL     OW11584   2.025   1.294   2.014 -0.0449 -0.3889  0.6678
 3755SOL    HW111585   2.052   1.219   1.955  0.3828 -0.0436  0.4147
 3755SOL    HW211586   1.975   1.363   1.961 -1.4399 -1.0096  1.1256
 3756SOL     OW11587   4.404   5.320   2.202 -0.5710  0.1668  0.1544
 3756SOL    HW111588   4.322   5.262   2.201 -1.5826  1.5631 -0.4418
 3756SOL    HW211589   4.482   5.267   2.169 -1.2751 -1.1043  0.4540
 3757SOL     OW11590   1.538   4.633   1.058 -0.3654 -0.1329  0.6335
 3757SOL    HW111591   1.526   4.731   1.071 -2.0483 -0.4234  1.5463
 3757SOL    HW211592   1.633   4.608   1.073  0.6707  1.6922 -2.0713
 3758SOL     OW11593   2.524   0.362   2.208 -0.4417  0.7009  0.2629
 3758SOL    HW111594   2.439   0.310   2.201 -1.1726  1.9793 -0.8023
 3758SOL    HW211595   2.525   0.412   2.295 -0.2923 -0.0877  0.7319
 3759SOL     OW11596   2.240   3.852   2.814 -0.2329  0.9133 -0.2594
 3759SOL    HW111597   2.171   3.810   2.754  0.2772  0.4332 -0.5229
 3759SOL    HW211598   2.311   3.784   2.835  1.1323  1.8954 -1.4804
 3760SOL     OW11599   4.676   0.094   1.114  0.8863 -0.5386  0.0728
 3760SOL    HW111600   4.583   0.115   1.082  0.6790 -1.4882 -0.0068
 3760SOL    HW211601   4.739   0.166   1.085  0.0681  0.4259  0.6626
 3761SOL     OW11602   1.509   3.292   3.121  0.2398 -0.2379 -0.3281
 3761SOL    HW111603   1.555   3.253   3.201 -2.1954  0.0873  1.3409
 3761SOL    HW211604   1.466   3.220   3.068 -1.1208 -0.1758  0.6666
 3762SOL     OW11605   4.223   4.573   1.442 -0.2932  0.0753 -0.5911
 3762SOL    HW111606   4.124   4.582   1.437 -0.3643 -0.8236 -1.0546
 3762SOL    HW211607   4.249   4.479   1.417  0.7589  0.6392 -1.7180
 3763SOL     OW11608   3.947   2.779   0.039 -0.2483 -0.0004 -0.0270
 3763SOL    HW111609   3.894   2.807   0.120 -0.8202  0.6401 -0.6052
 3763SOL    HW211610   3.943   2.852  -0.030  1.5765  0.1560 -0.0202
 3764SOL     OW11611   3.620   4.347   3.044  0.7242  0.6106  0.6759
 3764SOL    HW111612   3.583   4.432   3.083  0.2188  1.2002 -0.9996
 3764SOL    HW211613   3.687   4.369   2.973 -1.7722 -0.1896 -2.1547
 3765SOL     OW11614   2.372   0.377   4.602 -0.4734 -0.0594  0.0847
 3765SOL    HW111615   2.283   0.338   4.622 -0.1072 -0.2149  1.4780
 3765SOL    HW211616   2.435   0.360   4.678  0.6290  0.4061 -0.6878
 3766SOL     OW11617   5.391   5.068   3.801 -0.0338 -0.6394  0.2412
 3766SOL    HW111618   5.469   5.006   3.808  1.4528  0.8515 -1.8804
 3766SOL    HW211619   5.310   5.023   3.839  0.9723 -3.8340 -1.0332
 3767SOL     OW11620   5.532   0.853   1.602 -0.2183  0.5157  0.1215
 3767SOL    HW111621   5.502   0.773   1.654  0.0563  0.8197  0.7593
 3767SOL    HW211622   5.559   0.926   1.665  0.4023  0.7913 -0.4445
 3768SOL     OW11623   2.280   4.447   3.310 -0.5513 -0.3895  0.0606
 3768SOL    HW111624   2.332   4.453   3.225  0.2913 -0.2030  0.5706
 3768SOL    HW211625   2.202   4.509   3.307 -1.3446 -1.3990 -1.1141
 3769SOL     OW11626   4.701   1.564   0.608 -0.1482 -0.5518  0.7454
 3769SOL    HW111627   4.758   1.593   0.685 -1.1186  3.9820  0.0471
 3769SOL    HW211628   4.758   1.529   0.534  1.2546 -0.4970  1.7764
 3770SOL     OW11629   3.184   0.875   2.727  0.2434 -0.0763  0.1766
 3770SOL    HW111630   3.104   0.935   2.719  0.4588  0.0608 -1.3337
 3770SOL    HW211631   3.218   0.876   2.821 -0.8743  0.7193  0.5869
 3771SOL     OW11632   3.795   0.857   2.076 -0.1154  0.4971 -0.1685
 3771SOL    HW111633   3.715   0.823   2.126  0.2093  0.3427  0.2624
 3771SOL    HW211634   3.874   0.799   2.097  0.1389  0.7229 -0.4869
 3772SOL     OW11635   0.134   1.800   1.580 -0.1040 -0.1268 -0.5972
 3772SOL    HW111636   0.089   1.823   1.495 -1.2658  0.6437  0.1969
 3772SOL    HW211637   0.232   1.788   1.564 -0.3087 -0.0458 -2.0265
 3773SOL     OW11638   5.318   0.288   1.174 -0.5908 -0.0666  0.1070
 3773SOL    HW111639   5.252   0.352   1.136 -1.0079 -1.3287 -1.4251
 3773SOL    HW211640   5.399   0.285   1.115  0.3101  0.5347  1.2767
 3774SOL     OW11641   4.845   1.759   4.996  0.3717 -0.1394  0.5253
 3774SOL    HW111642   4.927   1.710   5.026  0.9216  1.8290  2.5043
 3774SOL    HW211643   4.871   1.840   4.944 -0.4481 -0.7044 -0.8227
 3775SOL     OW11644   0.450   3.890   0.196  0.3580 -0.3473  0.5078
 3775SOL    HW111645   0.467   3.985   0.170  1.8295 -0.5122  0.7888
 3775SOL    HW211646   0.376   3.853   0.139  2.3274 -0.1964 -2.3968
 3776SOL     OW11647   5.394   1.002   4.937  0.2383  0.8416  0.2018
 3776SOL    HW111648   5.390   1.101   4.924  1.5453  0.6110 -2.5249
 3776SOL    HW211649   5.326   0.958   4.879  1.0156  0.0497 -0.1236
 3777SOL     OW11650   4.102   3.852   1.722 -0.0829  0.4351  0.1212
 3777SOL    HW111651   4.173   3.914   1.690 -0.7404  0.3042 -1.6655
 3777SOL    HW211652   4.114   3.762   1.679  0.1725 -0.3896  1.7897
 3778SOL     OW11653   2.557   1.131   3.299 -0.1601 -0.2631  0.3417
 3778SOL    HW111654   2.557   1.060   3.369  0.8780 -1.0476 -0.4375
 3778SOL    HW211655   2.635   1.192   3.313 -0.2018 -0.1558  0.1153
 3779SOL     OW11656   0.969   3.091   1.275  0.0065 -0.0556 -0.1484
 3779SOL    HW111657   0.942   3.092   1.179 -0.1408  1.5275 -0.1037
 3779SOL    HW211658   0.917   3.159   1.326  0.7385 -0.2304  0.8738
 3780SOL     OW11659   3.751   1.292   1.618 -0.3998  0.0325  0.4228
 3780SOL    HW111660   3.690   1.319   1.544 -0.4394 -0.3709  0.3060
 3780SOL    HW211661   3.697   1.264   1.697 -0.4885 -3.0199 -0.5956
 3781SOL     OW11662   3.677   4.369   5.082 -0.1768 -0.0117 -0.3430
 3781SOL    HW111663   3.654   4.453   5.133 -0.7520  0.0647 -0.7181
 3781SOL    HW211664   3.604   4.349   5.017 -0.7903 -1.6251  0.7702
 3782SOL     OW11665   1.504   0.556   4.491 -0.8720 -0.0951 -0.2233
 3782SOL    HW111666   1.565   0.635   4.481  0.4792 -1.0360  0.2234
 3782SOL    HW211667   1.498   0.530   4.587 -1.0546 -0.7251 -0.4018
 3783SOL     OW11668   0.847   0.354   0.824 -0.2726 -0.1974 -1.0303
 3783SOL    HW111669   0.947   0.352   0.833 -0.4236  0.6481  1.4803
 3783SOL    HW211670   0.811   0.261   0.825  0.3760 -0.4460 -0.2507
 3784SOL     OW11671   0.658   2.266   4.529  0.0951  0.0907  0.0463
 3784SOL    HW111672   0.719   2.334   4.570 -2.0154  2.0383  0.1552
 3784SOL    HW211673   0.582   2.247   4.591 -1.3575  0.5228 -1.5312
 3785SOL     OW11674   2.741   1.496   0.333  0.2792 -0.1568  0.8283
 3785SOL    HW111675   2.699   1.406   0.328 -1.9354  0.7496  1.5574
 3785SOL    HW211676   2.806   1.507   0.259 -0.5546 -1.7911 -0.2067
 3786SOL     OW11677   2.604   4.773   1.851  0.1238 -0.3322 -0.5337
 3786SOL    HW111678   2.538   4.766   1.776  0.3987  1.7841 -1.0503
 3786SOL    HW211679   2.614   4.684   1.895 -3.7443 -0.5870  0.1590
 3787SOL     OW11680   2.659   1.237   3.593  0.1779 -0.0700 -0.2907
 3787SOL    HW111681   2.661   1.330   3.630 -0.0887 -0.5126  0.9005
 3787SOL    HW211682   2.704   1.235   3.504 -0.6188  1.3701 -0.7536
 3788SOL     OW11683   1.532   4.392   3.867 -0.5221  0.0683 -0.3266
 3788SOL    HW111684   1.479   4.452   3.927  2.8399  4.4649 -1.1914
 3788SOL    HW211685   1.502   4.406   3.772 -0.7829 -0.9787 -0.4100
 3789SOL     OW11686   0.466   5.167   1.026  0.0856 -0.0098  0.5773
 3789SOL    HW111687   0.408   5.186   0.946 -1.6808 -0.7126  1.6222
 3789SOL    HW211688   0.549   5.222   1.021 -1.3339  2.1970 -0.2932
 3790SOL     OW11689   4.560   0.221   0.022  0.4398  0.1136 -0.4199
 3790SOL    HW111690   4.614   0.170   0.089 -0.4033  0.0460  0.2308
 3790SOL    HW211691   4.550   0.315   0.051  0.4329  0.1946 -0.6782
 3791SOL     OW11692   2.775   0.215   3.650  0.1699 -0.3079  0.1277
 3791SOL    HW111693   2.852   0.215   3.714  0.0085 -1.3138  0.3497
 3791SOL    HW211694   2.691   0.195   3.700  0.0315 -1.0501 -0.3775
 3792SOL     OW11695   2.320   0.561   2.115  0.2832  0.3093  0.6059
 3792SOL    HW111696   2.296   0.595   2.024 -1.6248 -0.4839  0.7527
 3792SOL    HW211697   2.416   0.534   2.117  0.0171 -0.9957 -1.6002
 3793SOL     OW11698   1.305   4.601   1.466 -0.0451  0.2911 -0.4178
 3793SOL    HW111699   1.225   4.566   1.514  2.1144 -1.8578  1.9255
 3793SOL    HW211700   1.326   4.693   1.498 -0.5102  0.1351  0.3543
 3794SOL     OW11701   2.262   0.541   1.055 -0.2027  0.3072 -0.0902
 3794SOL    HW111702   2.259   0.639   1.037 -0.8244  0.1940 -0.6229
 3794SOL    HW211703   2.356   0.508   1.044 -0.2799  0.5381 -1.5554
 3795SOL     OW11704   2.091   4.727   2.542 -0.5738 -0.2441 -0.0641
 3795SOL    HW111705   1.999   4.760   2.520 -1.2982 -1.3204  1.1606
 3795SOL    HW211706   2.085   4.663   2.618  1.4115  1.0290  1.2601
 3796SOL     OW11707   5.177   4.433   4.323 -0.4067  0.7660  0.4005
 3796SOL    HW111708   5.086   4.390   4.317 -0.5339  0.5277  3.0583
 3796SOL    HW211709   5.242   4.381   4.268 -1.5163 -0.0803 -0.1538
 3797SOL     OW11710   3.232   0.305   0.917 -0.4382  0.4190  0.4058
 3797SOL    HW111711   3.218   0.228   0.855  1.5467  0.7254 -0.4955
 3797SOL    HW211712   3.162   0.374   0.901 -1.8353 -0.8570  0.7509
 3798SOL     OW11713   1.228   1.744   2.279 -0.0509  0.5518 -0.1712
 3798SOL    HW111714   1.142   1.760   2.231 -0.7557  1.2019  1.2635
 3798SOL    HW211715   1.243   1.816   2.346  0.0692 -1.1571  1.7375
 3799SOL     OW11716   2.232   1.391   4.962  0.7089  0.6670 -0.4132
 3799SOL    HW111717   2.196   1.404   5.054  2.5940  0.7810  0.3388
 3799SOL    HW211718   2.303   1.320   4.963  1.5322  1.4305 -1.5635
 3800SOL     OW11719   2.369   3.595   4.985 -0.1573 -0.3256 -0.0925
 3800SOL    HW111720   2.449   3.639   4.944 -1.6972  0.7671 -2.1232
 3800SOL    HW211721   2.368   3.612   5.084  2.0060 -0.2661 -0.0394
 3801SOL     OW11722   4.952   3.858   4.583  0.2838  0.0562 -0.1024
 3801SOL    HW111723   4.988   3.840   4.492  1.6391  1.2574  0.1561
 3801SOL    HW211724   4.985   3.788   4.647 -0.9039 -0.9540 -0.5513
 3802SOL     OW11725   0.661   2.395   4.268 -0.5187  0.0178  0.1615
 3802SOL    HW111726   0.574   2.436   4.241  0.3506  2.1010  0.3365
 3802SOL    HW211727   0.658   2.371   4.365 -0.3143  1.8244  0.6491
 3803SOL     OW11728   4.128   1.924   4.284 -0.2431 -0.6119 -0.5373
 3803SOL    HW111729   4.095   1.885   4.199 -2.5656  0.6649 -0.2861
 3803SOL    HW211730   4.135   1.852   4.353 -0.4583 -1.2767 -1.1956
 3804SOL     OW11731   2.572   5.139   2.109 -0.0265  0.7086 -0.1172
 3804SOL    HW111732   2.610   5.214   2.162  0.7652  0.5117 -0.3883
 3804SOL    HW211733   2.512   5.084   2.167 -0.1481  1.2035  0.2349
 3805SOL     OW11734   0.239   3.717   2.127 -0.2388  0.0428  0.0165
 3805SOL    HW111735   0.319   3.776   2.133  0.0643 -0.3799  0.2063
 3805SOL    HW211736   0.243   3.648   2.199 -0.5983 -0.1976 -0.1876
 3806SOL     OW11737   1.957   2.578   1.522 -0.3455  0.3423 -0.2556
 3806SOL    HW111738   1.904   2.532   1.593 -0.2882 -0.6269 -0.8197
 3806SOL    HW211739   1.896   2.607   1.449 -0.2134 -0.0635 -0.5323
 3807SOL     OW11740   4.933   4.998   3.066  0.0512  0.1128  0.6500
 3807SOL    HW111741   4.899   4.945   2.988 -1.3902  3.5109 -1.2525
 3807SOL    HW211742   4.855   5.030   3.120  0.9466 -0.5700  2.4098
 3808SOL     OW11743   0.948   4.792   0.836 -0.2079  0.3318  0.2328
 3808SOL    HW111744   0.944   4.732   0.756  2.3074  0.9661 -0.4793
 3808SOL    HW211745   0.913   4.883   0.812 -1.7616 -0.1389  0.6155
 3809SOL     OW11746   2.193   5.382   4.193  0.4345 -0.6130 -0.3386
 3809SOL    HW111747   2.208   5.284   4.211  1.5234 -0.2066  1.2191
 3809SOL    HW211748   2.101   5.407   4.223  0.3217 -1.0686 -0.2926
 3810SOL     OW11749   1.580   3.158   0.128 -0.1963 -0.3232 -0.5769
 3810SOL    HW111750   1.580   3.102   0.211  1.7913 -1.1166 -1.0733
 3810SOL    HW211751   1.486   3.186   0.108 -0.7682 -0.2826  1.7974
 3811SOL     OW11752   0.365   0.466   0.021 -0.2953  0.0043  0.6035
 3811SOL    HW111753   0.425   0.484   0.098 -1.0680  2.0217  0.7830
 3811SOL    HW211754   0.317   0.379   0.036 -0.7731  0.5574  2.6435
 3812SOL     OW11755   1.509   2.419   1.447 -0.3870  0.1687 -0.2605
 3812SOL    HW111756   1.499   2.436   1.546 -0.4213 -1.3662  0.0213
 3812SOL    HW211757   1.443   2.350   1.419 -0.9241  1.1669 -1.5475
 3813SOL     OW11758   0.943   5.505   3.131 -0.0010  0.3326 -0.5295
 3813SOL    HW111759   0.921   5.436   3.199 -1.0000  1.1966  0.0459
 3813SOL    HW211760   0.960   5.460   3.043 -3.9758 -0.5329 -1.0541
 3814SOL     OW11761   4.494   0.819   2.456 -0.7638 -0.2326 -0.5594
 3814SOL    HW111762   4.395   0.805   2.457 -0.5064 -2.5362 -1.2996
 3814SOL    HW211763   4.524   0.840   2.363 -0.3386 -1.8302 -0.8138
 3815SOL     OW11764   0.847   3.657   0.118  0.8137  0.5814 -0.1266
 3815SOL    HW111765   0.916   3.595   0.082  1.8819  2.3387 -1.2216
 3815SOL    HW211766   0.820   3.723   0.047 -1.5338  0.3588  0.4639
 3816SOL     OW11767   3.578   4.900   0.223  0.1141  0.1962  0.1490
 3816SOL    HW111768   3.645   4.942   0.161 -0.4961  0.0480 -0.6331
 3816SOL    HW211769   3.604   4.806   0.241  0.1191  0.1363 -0.1609
 3817SOL     OW11770   3.285   1.158   0.631  0.1879 -0.8704  0.2116
 3817SOL    HW111771   3.217   1.207   0.684  0.9457 -0.9077  1.2631
 3817SOL    HW211772   3.360   1.220   0.606  0.8484 -1.3175  1.0130
 3818SOL     OW11773   1.962   2.530   0.794  0.1895  0.4890  0.4055
 3818SOL    HW111774   1.914   2.616   0.810 -2.4517 -0.8644  0.3023
 3818SOL    HW211775   1.971   2.514   0.696 -1.0806 -0.2036  0.3784
 3819SOL     OW11776   2.627   5.122   2.574 -0.2231  0.1050 -0.0258
 3819SOL    HW111777   2.646   5.219   2.557  2.1848 -0.4235 -0.8670
 3819SOL    HW211778   2.531   5.110   2.597 -1.0922  2.4209 -2.0272
 3820SOL     OW11779   1.444   1.245   2.160  0.3295  0.4446  1.0732
 3820SOL    HW111780   1.390   1.178   2.211  1.5693 -1.6188 -0.1971
 3820SOL    HW211781   1.383   1.306   2.110 -0.9014 -1.3682  0.2513
 3821SOL     OW11782   5.057   1.380   3.074  0.3650 -0.1227  0.0243
 3821SOL    HW111783   4.995   1.353   3.000 -0.8629 -0.0660  0.9830
 3821SOL    HW211784   5.108   1.461   3.047 -1.0967  0.7455 -0.2549
 3822SOL     OW11785   2.749   0.705   4.637  0.2425  0.0776 -0.0751
 3822SOL    HW111786   2.834   0.758   4.628 -0.4330  1.1408 -0.3307
 3822SOL    HW211787   2.755   0.649   4.719  1.2538  0.0293 -0.1614
 3823SOL     OW11788   4.098   4.622   3.580 -0.1218 -0.4410  0.6423
 3823SOL    HW111789   4.172   4.555   3.580  0.8382  0.5875  1.2285
 3823SOL    HW211790   4.081   4.653   3.674  0.0628  0.7714  0.2943
 3824SOL     OW11791   0.875   3.600   5.290 -0.4229 -0.2037  0.3315
 3824SOL    HW111792   0.885   3.523   5.352  0.2033  0.7033  1.3966
 3824SOL    HW211793   0.929   3.678   5.324  0.7739  0.0265 -1.8529
 3825SOL     OW11794   4.917   3.785   3.381 -0.1122  0.0580 -0.1821
 3825SOL    HW111795   4.865   3.865   3.412 -0.6749 -0.4191  0.1519
 3825SOL    HW211796   4.893   3.764   3.286 -3.0321 -2.0009  0.8281
 3826SOL     OW11797   3.794   0.414   5.495 -0.1071  0.1056  0.0664
 3826SOL    HW111798   3.739   0.331   5.492 -0.4368  0.3217  0.0296
 3826SOL    HW211799   3.785   0.457   5.585  1.2018 -0.6550  0.5738
 3827SOL     OW11800   5.291   1.331   3.681  0.4211 -0.2002  0.6599
 3827SOL    HW111801   5.234   1.346   3.762  1.1101 -3.0705  1.8258
 3827SOL    HW211802   5.379   1.376   3.694  0.0231  0.5174  0.8935
 3828SOL     OW11803   0.662   2.483   1.186  0.2372  0.0882  0.5297
 3828SOL    HW111804   0.751   2.438   1.182  1.1495  1.8075  0.0827
 3828SOL    HW211805   0.608   2.457   1.106  1.0910  0.4425 -0.1877
 3829SOL     OW11806   3.676   0.174   5.455  0.3585 -0.0629 -0.4047
 3829SOL    HW111807   3.605   0.147   5.519 -0.1366  0.1027 -0.8769
 3829SOL    HW211808   3.732   0.094   5.431  1.0602  0.0345  0.8459
 3830SOL     OW11809   0.119   0.998   4.815 -0.2193 -0.3659 -0.0533
 3830SOL    HW111810   0.095   1.083   4.768  0.3796  0.3214  0.8710
 3830SOL    HW211811   0.056   0.984   4.892  1.2850  0.6413  1.4273
 3831SOL     OW11812   3.898   3.138   4.411 -0.1767  0.2628 -0.0342
 3831SOL    HW111813   3.846   3.121   4.327 -0.1201  0.4893 -0.1152
 3831SOL    HW211814   3.858   3.215   4.460  1.1636  1.6458 -1.0198
 3832SOL     OW11815   3.867   4.940   4.200 -0.0564  0.2218 -0.0207
 3832SOL    HW111816   3.810   4.859   4.184  0.9120 -0.5309  0.2752
 3832SOL    HW211817   3.927   4.954   4.122  0.4052  0.1212  0.3125
 3833SOL     OW11818   5.257   1.697   0.362 -0.2958 -0.2871  0.1953
 3833SOL    HW111819   5.159   1.675   0.361 -0.3674  0.0253  0.2641
 3833SOL    HW211820   5.304   1.637   0.426 -0.4536 -0.3992  0.2053
 3834SOL     OW11821   0.830   5.162   2.241  0.0226  0.0664  0.4588
 3834SOL    HW111822   0.841   5.231   2.170  0.5062  0.8673  1.2957
 3834SOL    HW211823   0.766   5.092   2.210 -1.5674  1.6122  0.1208
 3835SOL     OW11824   5.194   4.589   4.977  0.2850 -0.2181 -0.3105
 3835SOL    HW111825   5.225   4.528   4.905 -1.0720 -0.9261 -0.3192
 3835SOL    HW211826   5.270   4.606   5.041  0.2398 -3.4420  0.7698
 3836SOL     OW11827   2.201   4.459   0.113 -0.0861 -0.3128 -0.8891
 3836SOL    HW111828   2.130   4.487   0.048  0.4248  1.2841 -0.8172
 3836SOL    HW211829   2.187   4.507   0.200  1.2067  0.2408 -0.9548
 3837SOL     OW11830   1.281   3.093   3.312 -0.7894 -0.1395 -0.3792
 3837SOL    HW111831   1.377   3.092   3.340 -0.5627  1.9803 -0.9208
 3837SOL    HW211832   1.269   3.032   3.233 -0.0527 -0.9704  0.1319
 3838SOL     OW11833   0.920   0.793   2.452 -0.4655 -0.0576 -0.1506
 3838SOL    HW111834   0.947   0.772   2.546  0.6591  0.5930 -0.3215
 3838SOL    HW211835   0.883   0.886   2.447  0.1956  0.1900 -0.4885
 3839SOL     OW11836   4.588   0.433   0.810  0.4498 -0.5271  0.6907
 3839SOL    HW111837   4.686   0.453   0.809  0.2795  0.4382  1.5619
 3839SOL    HW211838   4.565   0.374   0.732  1.4217  0.6728 -0.5416
 3840SOL     OW11839   3.931   1.333   0.942  0.1599 -0.4637  0.3768
 3840SOL    HW111840   3.956   1.257   0.882  1.3101 -0.1812  0.4775
 3840SOL    HW211841   4.009   1.394   0.953 -0.7376  0.7454  0.2965
 3841SOL     OW11842   4.989   1.001   4.816  0.4742  0.1835 -0.0981
 3841SOL    HW111843   5.084   1.033   4.818  0.5163  0.0616 -0.1074
 3841SOL    HW211844   4.984   0.916   4.762  0.0796  1.0986 -1.5693
 3842SOL     OW11845   3.518   3.940   4.659  0.1177 -0.7560 -0.1996
 3842SOL    HW111846   3.521   3.844   4.687 -0.9231 -1.2844 -1.7725
 3842SOL    HW211847   3.483   3.947   4.566 -1.2927  1.2609  0.4073
 3843SOL     OW11848   2.826   4.328   0.891  0.7231 -0.6072  0.2324
 3843SOL    HW111849   2.726   4.330   0.885  0.6652 -0.6144  1.1403
 3843SOL    HW211850   2.860   4.249   0.841  0.0961 -2.1141  2.0758
 3844SOL     OW11851   4.789   3.917   1.577  0.4556  0.5786  0.0530
 3844SOL    HW111852   4.867   3.957   1.624 -0.3512  2.8776 -0.4447
 3844SOL    HW211853   4.814   3.893   1.483  0.6646  0.9765  0.0064
 3845SOL     OW11854   0.795   2.140   2.993  0.3095 -0.2555  0.1266
 3845SOL    HW111855   0.718   2.161   3.053  0.0560 -0.7296 -0.0333
 3845SOL    HW211856   0.797   2.042   2.974 -0.1896  0.0085 -1.4322
 3846SOL     OW11857   1.501   3.769   0.309 -0.0373 -0.3699  0.5022
 3846SOL    HW111858   1.573   3.767   0.377  0.5759 -2.2358 -0.1329
 3846SOL    HW211859   1.516   3.696   0.242 -0.9369  1.0046 -1.3060
 3847SOL     OW11860   4.762   1.709   2.596  0.3595  0.6695 -0.3519
 3847SOL    HW111861   4.746   1.778   2.668 -0.6296  1.7354 -1.5432
 3847SOL    HW211862   4.854   1.720   2.559  0.5760  0.6665  0.1788
 3848SOL     OW11863   0.319   0.588   4.828  0.5180  0.5232  0.0683
 3848SOL    HW111864   0.326   0.686   4.810 -2.2452  0.5275 -1.4583
 3848SOL    HW211865   0.290   0.574   4.922  0.1085  1.1994  0.0465
 3849SOL     OW11866   4.255   4.799   1.106  0.1032  0.1216  0.2724
 3849SOL    HW111867   4.196   4.732   1.061  2.0323 -2.0144  0.7386
 3849SOL    HW211868   4.319   4.837   1.040  2.4550 -2.4798  0.8709
 3850SOL     OW11869   1.758   4.105   1.628  0.6536 -0.4031 -0.3299
 3850SOL    HW111870   1.797   4.181   1.680  0.7622 -0.9339  0.3752
 3850SOL    HW211871   1.760   4.022   1.683 -3.0779 -0.1134  0.4577
 3851SOL     OW11872   0.877   1.102   5.047 -0.4120 -0.3121 -0.3868
 3851SOL    HW111873   0.970   1.100   5.084 -0.4814  0.8532 -0.1216
 3851SOL    HW211874   0.816   1.050   5.106 -0.5179  1.4924  1.1755
 3852SOL     OW11875   1.636   0.014   2.597 -0.0355 -0.0639 -0.1732
 3852SOL    HW111876   1.537   0.025   2.605 -0.3801 -2.8720  0.6211
 3852SOL    HW211877   1.663   0.019   2.501 -0.9309  0.7688 -0.3877
 3853SOL     OW11878   2.225   4.543   1.656  0.3008 -0.5519 -0.1972
 3853SOL    HW111879   2.159   4.574   1.724  0.5295  2.0852 -1.0271
 3853SOL    HW211880   2.187   4.558   1.564 -0.1287 -4.2878 -0.7760
 3854SOL     OW11881   2.984   1.918   2.722  0.6056 -0.2622  0.0518
 3854SOL    HW111882   2.922   1.842   2.737 -0.6426  0.7574  0.2395
 3854SOL    HW211883   2.996   1.969   2.807  2.2122 -0.7832  0.1754
 3855SOL     OW11884   4.387   0.474   2.278 -0.2551 -0.8581 -0.2010
 3855SOL    HW111885   4.315   0.422   2.231 -2.7788  1.7135  0.5629
 3855SOL    HW211886   4.364   0.482   2.375  0.7144  0.6044 -0.0696
 3856SOL     OW11887   0.445   5.001   3.445  0.4963 -0.0398 -0.1722
 3856SOL    HW111888   0.524   5.040   3.493 -0.3087 -0.6704  1.7573
 3856SOL    HW211889   0.476   4.959   3.360  2.3129 -0.5479  0.6745
 3857SOL     OW11890   0.086   3.079   2.222  0.3703 -0.3405  0.0590
 3857SOL    HW111891   0.078   3.130   2.307 -0.7314 -0.7056  0.1810
 3857SOL    HW211892   0.013   3.106   2.159  2.8460  2.1990 -2.0284
 3858SOL     OW11893   1.408   3.483   3.378  0.1349 -0.8463  0.3931
 3858SOL    HW111894   1.326   3.455   3.329 -0.3034 -2.2918  1.8577
 3858SOL    HW211895   1.482   3.418   3.362  1.2863  0.8153 -1.4758
 3859SOL     OW11896   1.129   1.169   3.871  0.1404 -0.0409 -0.1749
 3859SOL    HW111897   1.106   1.211   3.783  1.6866  0.9058 -0.1697
 3859SOL    HW211898   1.227   1.152   3.874  0.2823  0.8959  1.7562
 3860SOL     OW11899   2.621   0.381   5.089 -0.0500  0.3796  0.1379
 3860SOL    HW111900   2.682   0.415   5.160  0.3004 -0.2783  0.1556
 3860SOL    HW211901   2.666   0.388   5.000 -1.0277  2.5732 -0.2398
 3861SOL     OW11902   1.965   4.947   3.985  0.1696  0.3774 -0.7176
 3861SOL    HW111903   1.982   4.849   3.974 -0.9428  0.2946 -1.9148
 3861SOL    HW211904   1.867   4.962   4.000  0.3221  1.3184 -0.5951
 3862SOL     OW11905   4.368   4.373   0.898  0.5382  0.0937  0.3264
 3862SOL    HW111906   4.335   4.443   0.835  1.1614  0.2092  0.1222
 3862SOL    HW211907   4.301   4.359   0.971 -1.4573 -1.9013 -1.7279
 3863SOL     OW11908   5.401   2.438   0.515  0.4129 -0.0754  0.3799
 3863SOL    HW111909   5.464   2.363   0.539  2.0818  0.6348 -1.5090
 3863SOL    HW211910   5.310   2.400   0.496  1.2817 -1.6966 -0.7882
 3864SOL     OW11911   1.600   3.835   4.882  0.2198  0.7209 -0.0602
 3864SOL    HW111912   1.658   3.774   4.937  0.1222  0.6637 -0.0207
 3864SOL    HW211913   1.511   3.844   4.926 -0.7107 -1.2053 -1.3776
 3865SOL     OW11914   3.551   0.656   1.731 -0.1532 -0.1145  0.2185
 3865SOL    HW111915   3.635   0.695   1.692 -0.3973 -0.7803 -1.0108
 3865SOL    HW211916   3.484   0.730   1.744  0.3505  0.3025  0.5136
 3866SOL     OW11917   0.213   0.664   5.473  0.4900  0.2623 -0.1650
 3866SOL    HW111918   0.132   0.614   5.441 -0.3774  1.7271 -0.3643
 3866SOL    HW211919   0.266   0.606   5.535 -1.7514 -0.1166  1.5338
 3867SOL     OW11920   4.095   1.623   4.206 -0.0043 -0.6928 -0.4557
 3867SOL    HW111921   4.178   1.594   4.158  0.0502  0.4877 -1.1131
 3867SOL    HW211922   4.117   1.644   4.301  0.2498 -1.3255 -0.3713
 3868SOL     OW11923   1.948   4.338   3.753 -0.4808 -0.0114 -0.6076
 3868SOL    HW111924   1.867   4.390   3.781 -0.8982  0.4409 -2.5227
 3868SOL    HW211925   2.031   4.386   3.783 -0.8949  0.3922 -0.0911
 3869SOL     OW11926   3.436   2.295   1.742 -0.3509  0.2224 -0.4648
 3869SOL    HW111927   3.521   2.267   1.786 -1.2083 -3.2930 -0.7748
 3869SOL    HW211928   3.457   2.342   1.657  1.2548  0.6567  0.1233
 3870SOL     OW11929   4.235   1.252   1.700  0.3411  0.0512  0.0630
 3870SOL    HW111930   4.247   1.327   1.766 -0.7346 -0.4079  0.8003
 3870SOL    HW211931   4.156   1.197   1.726 -0.1571 -0.0991 -1.6668
 3871SOL     OW11932   0.379   3.239   3.438  0.2517 -0.3069  0.1184
 3871SOL    HW111933   0.431   3.154   3.440  0.8651  0.0436 -0.5447
 3871SOL    HW211934   0.370   3.271   3.344  0.8952  0.8748  0.4335
 3872SOL     OW11935   3.839   1.588   4.985 -0.0556  0.0326 -0.7921
 3872SOL    HW111936   3.745   1.585   5.018  0.4801 -0.4398  0.7890
 3872SOL    HW211937   3.844   1.544   4.896 -1.3837  0.3379 -1.0365
 3873SOL     OW11938   1.799   1.481   5.007 -0.4726  0.0341 -0.1281
 3873SOL    HW111939   1.763   1.441   4.923 -1.6099  2.7359 -1.0522
 3873SOL    HW211940   1.724   1.494   5.072 -0.0814  0.2964  0.2745
 3874SOL     OW11941   1.699   5.482   4.589 -0.0757 -0.0436 -0.2425
 3874SOL    HW111942   1.672   5.574   4.616 -1.2273 -0.1696 -0.9221
 3874SOL    HW211943   1.750   5.439   4.663  0.6988  1.2264 -0.0186
 3875SOL     OW11944   0.908   4.646   0.159 -0.2502 -0.4795 -0.4471
 3875SOL    HW111945   0.858   4.640   0.073  0.0089  1.5260 -0.7728
 3875SOL    HW211946   0.992   4.698   0.146 -0.1011 -0.3183  0.9652
 3876SOL     OW11947   4.266   1.783   2.722  0.1208  0.3478 -0.7263
 3876SOL    HW111948   4.205   1.862   2.730  0.9148  0.8818  0.2909
 3876SOL    HW211949   4.260   1.745   2.630 -1.3129  0.7382 -0.8155
 3877SOL     OW11950   3.597   3.940   3.620 -0.0674 -0.1968  0.2054
 3877SOL    HW111951   3.682   3.977   3.582 -0.4645 -0.0898 -0.6120
 3877SOL    HW211952   3.578   3.983   3.708  0.2156  0.5035 -0.0698
 3878SOL     OW11953   3.389   2.030   2.429 -0.5670  0.1786  0.2038
 3878SOL    HW111954   3.357   1.957   2.369 -1.0426  0.5496 -0.0011
 3878SOL    HW211955   3.438   1.991   2.507  0.3661 -0.2989 -0.5976
 3879SOL     OW11956   4.033   0.232   0.865 -0.2170 -0.1653  0.1346
 3879SOL    HW111957   4.065   0.315   0.818  0.2280 -0.0154  0.6885
 3879SOL    HW211958   3.970   0.183   0.806 -3.2175  2.3132  1.0219
 3880SOL     OW11959   0.268   5.430   2.434 -0.3347 -0.3386  0.3230
 3880SOL    HW111960   0.353   5.482   2.447 -0.7597  0.5009 -0.1471
 3880SOL    HW211961   0.191   5.482   2.472 -1.2190  0.8963 -2.7958
 3881SOL     OW11962   3.970   0.470   1.761  0.0036  0.2965 -0.0531
 3881SOL    HW111963   3.890   0.493   1.816 -0.6573 -1.1094 -0.3686
 3881SOL    HW211964   4.032   0.549   1.756 -0.0944  0.5980  2.3484
 3882SOL     OW11965   4.199   3.554   2.265 -0.3789 -0.0566 -0.3211
 3882SOL    HW111966   4.234   3.465   2.293 -0.0490  0.0416 -0.4231
 3882SOL    HW211967   4.100   3.558   2.283  0.0572  0.5371  2.2292
 3883SOL     OW11968   2.161   2.829   3.657 -0.4240  0.1485  0.2834
 3883SOL    HW111969   2.102   2.753   3.686 -0.1979 -1.1097 -2.2373
 3883SOL    HW211970   2.117   2.877   3.581  1.7687 -0.9878 -1.8570
 3884SOL     OW11971   4.069   1.106   0.829 -0.8979  0.0493 -0.1396
 3884SOL    HW111972   4.157   1.154   0.822 -1.0229  0.6076  1.5412
 3884SOL    HW211973   4.075   1.018   0.782 -0.4792  1.4121 -2.8527
 3885SOL     OW11974   1.175   4.921   1.997  0.7027 -0.0911  0.1338
 3885SOL    HW111975   1.239   4.848   2.019 -0.2756 -0.1879  3.2050
 3885SOL    HW211976   1.129   4.951   2.081 -0.7280  2.3759 -1.3999
 3886SOL     OW11977   4.371   4.747   4.064  0.5177 -0.2482  0.1365
 3886SOL    HW111978   4.312   4.768   4.142 -0.3458 -1.0923 -0.2548
 3886SOL    HW211979   4.349   4.655   4.030  1.0298  0.0186 -0.9591
 3887SOL     OW11980   1.376   2.428   0.740  0.0335 -0.0369 -0.4951
 3887SOL    HW111981   1.435   2.436   0.820 -2.2286 -0.2841  1.2885
 3887SOL    HW211982   1.394   2.342   0.693  0.0084 -0.8646  0.9584
 3888SOL     OW11983   4.628   3.367   0.848 -0.0988  0.5736 -0.5972
 3888SOL    HW111984   4.633   3.316   0.763  1.5669 -1.4556  0.6339
 3888SOL    HW211985   4.590   3.458   0.830 -2.5456 -0.7875 -2.9865
 3889SOL     OW11986   3.575   3.039   3.748  0.1699 -0.3342  0.3385
 3889SOL    HW111987   3.665   3.055   3.790  1.2223 -0.2839 -1.7942
 3889SOL    HW211988   3.521   3.123   3.753  1.5412  0.6834 -1.2720
 3890SOL     OW11989   2.403   4.746   1.673  0.7558 -0.4255 -0.2387
 3890SOL    HW111990   2.342   4.667   1.682  0.9722 -0.4677  0.8847
 3890SOL    HW211991   2.372   4.802   1.596  0.7006 -1.6754 -1.1685
 3891SOL     OW11992   4.460   3.645   5.397  0.2991  0.3346 -0.0986
 3891SOL    HW111993   4.483   3.742   5.403  3.2432 -0.2605 -0.3688
 3891SOL    HW211994   4.398   3.620   5.472 -2.4468  2.7984 -1.3302
 3892SOL     OW11995   3.073   4.648   2.873 -0.2559  0.5374  0.0486
 3892SOL    HW111996   3.066   4.732   2.926 -0.0912  2.0812 -2.2013
 3892SOL    HW211997   3.042   4.666   2.779  2.2190 -1.2250 -1.2013
 3893SOL     OW11998   4.873   2.688   3.761 -0.1244 -0.4204 -0.1409
 3893SOL    HW111999   4.870   2.589   3.742 -1.5412 -0.6213  0.9731
 3893SOL    HW212000   4.832   2.706   3.850  1.6778  1.0185  0.4603
 3894SOL     OW12001   3.780   3.034   0.414  0.1964  0.0465 -0.3571
 3894SOL    HW112002   3.788   3.131   0.438 -0.2699 -0.3534  1.5765
 3894SOL    HW212003   3.758   2.981   0.496 -0.4185 -1.6011 -1.5368
 3895SOL     OW12004   0.152   2.854   1.748 -0.7045  0.6294  0.0405
 3895SOL    HW112005   0.192   2.944   1.763  1.5028  0.0050 -1.5908
 3895SOL    HW212006   0.193   2.812   1.666 -1.2753 -2.0423  1.0156
 3896SOL     OW12007   0.791   4.228   4.982 -0.2002 -0.1508  0.0387
 3896SOL    HW112008   0.865   4.241   5.048 -1.2308 -0.3127  1.2668
 3896SOL    HW212009   0.813   4.150   4.923 -0.0805 -1.2467  1.4446
 3897SOL     OW12010   1.366   1.589   2.096 -0.0121  0.9284 -0.3015
 3897SOL    HW112011   1.313   1.516   2.053  1.7320 -0.9751  0.5925
 3897SOL    HW212012   1.306   1.645   2.153 -1.4355  0.3373 -1.1710
 3898SOL     OW12013   4.540   4.625   3.653 -1.1607  0.5121 -0.2709
 3898SOL    HW112014   4.512   4.537   3.692 -0.9364  0.1480 -0.9219
 3898SOL    HW212015   4.476   4.696   3.682 -1.1214  0.2115  0.5832
 3899SOL     OW12016   2.230   3.145   4.023  0.0975  0.1216  0.4606
 3899SOL    HW112017   2.205   3.054   3.990  1.3453  0.0046 -0.1987
 3899SOL    HW212018   2.235   3.144   4.123 -0.7438 -0.2904  0.5108
 3900SOL     OW12019   0.633   0.054   4.429 -0.0010 -0.1539 -0.1656
 3900SOL    HW112020   0.616   0.108   4.511  1.0077 -0.5703  0.3347
 3900SOL    HW212021   0.679   0.111   4.361  0.4395 -0.1874  0.1007
 3901SOL     OW12022   3.937   0.640   4.790 -0.0606  0.0854  0.2387
 3901SOL    HW112023   4.025   0.606   4.823 -0.7303 -0.8026  1.1853
 3901SOL    HW212024   3.865   0.575   4.815 -1.1297  1.2748  0.3509
 3902SOL     OW12025   4.886   3.270   4.734  0.5935  0.1063  0.0471
 3902SOL    HW112026   4.824   3.348   4.748 -1.5406 -1.2764 -1.2511
 3902SOL    HW212027   4.947   3.290   4.657  0.4957  0.7324  0.1230
 3903SOL     OW12028   4.649   1.323   5.511 -0.6111 -0.4885 -0.3789
 3903SOL    HW112029   4.724   1.262   5.537  0.2654  0.8530  0.3709
 3903SOL    HW212030   4.565   1.270   5.498  0.5203 -2.0883 -1.5939
 3904SOL     OW12031   0.200   4.993   2.716  0.4143 -0.3358 -0.0950
 3904SOL    HW112032   0.162   5.016   2.627  0.9202 -0.6713 -0.4068
 3904SOL    HW212033   0.133   5.012   2.787  0.1776  0.3910 -0.5004
 3905SOL     OW12034   3.810   4.394   3.995  0.0125 -0.1034  0.3229
 3905SOL    HW112035   3.782   4.300   4.013 -1.2231 -0.0584 -1.1468
 3905SOL    HW212036   3.888   4.418   4.053 -1.1975 -1.1939  2.5195
 3906SOL     OW12037   1.256   2.422   4.359 -0.1586  0.2558  0.2359
 3906SOL    HW112038   1.203   2.446   4.440 -0.0475 -0.6352  0.5854
 3906SOL    HW212039   1.289   2.505   4.314 -0.8038  0.7753  0.7121
 3907SOL     OW12040   5.156   4.958   1.219 -0.4344 -0.3858  0.6194
 3907SOL    HW112041   5.065   4.944   1.259 -0.6655  2.6673  1.4066
 3907SOL    HW212042   5.222   4.974   1.292  0.7752 -2.3994  0.0406
 3908SOL     OW12043   0.196   1.929   0.972  0.3635 -0.0643  0.3326
 3908SOL    HW112044   0.262   1.854   0.968 -0.1596 -0.6202  1.6315
 3908SOL    HW212045   0.218   1.989   1.049  1.6192  1.9811 -1.4871
 3909SOL     OW12046   0.548   5.364   4.964 -0.6003 -0.1997  0.1865
 3909SOL    HW112047   0.569   5.402   4.874 -1.9093 -0.3299 -0.2033
 3909SOL    HW212048   0.606   5.406   5.033  0.7710 -0.4579 -0.7752
 3910SOL     OW12049   0.236   1.200   3.557 -0.0635  0.1761 -0.2642
 3910SOL    HW112050   0.331   1.201   3.525 -0.7532  1.4863 -2.5253
 3910SOL    HW212051   0.224   1.270   3.627  0.8657 -0.8042  0.9094
 3911SOL     OW12052   1.404   0.138   4.135  0.1133 -0.4715  0.2257
 3911SOL    HW112053   1.484   0.108   4.187  0.1368  0.2281  0.6001
 3911SOL    HW212054   1.335   0.065   4.136  0.1616 -0.5174  1.1381
 3912SOL     OW12055   2.123   4.199   0.372 -0.4534  0.0029 -0.0677
 3912SOL    HW112056   2.113   4.116   0.426 -1.9719  0.5184  0.4759
 3912SOL    HW212057   2.127   4.279   0.432  0.4859  0.3795 -0.6065
 3913SOL     OW12058   5.448   5.273   0.909  0.1319  0.0968  0.0506
 3913SOL    HW112059   5.451   5.191   0.967 -0.6432  0.4593  0.6183
 3913SOL    HW212060   5.506   5.344   0.949  0.2379  0.0717 -0.0570
 3914SOL     OW12061   5.458   0.690   2.871 -0.2865 -0.2909 -0.1445
 3914SOL    HW112062   5.384   0.690   2.939 -1.7786 -0.1099 -1.7091
 3914SOL    HW212063   5.546   0.694   2.918 -1.1623 -2.3491  1.8618
 3915SOL     OW12064   1.048   4.893   4.867 -0.2575  0.2518  0.6587
 3915SOL    HW112065   1.014   4.876   4.774  0.1264  0.2405  0.5186
 3915SOL    HW212066   1.066   4.806   4.912 -1.9890  0.1998  1.3363
 3916SOL     OW12067   2.636   1.921   4.256  0.2255 -0.0096  0.8451
 3916SOL    HW112068   2.631   1.995   4.323  0.9496  0.5576  0.2793
 3916SOL    HW212069   2.696   1.947   4.181 -1.2675 -0.2711 -0.4934
 3917SOL     OW12070   2.679   4.840   4.622  0.6800 -0.3408  0.5658
 3917SOL    HW112071   2.743   4.872   4.552  0.0102 -2.4157 -1.0976
 3917SOL    HW212072   2.624   4.917   4.655  2.0830  0.9555 -0.0271
 3918SOL     OW12073   4.116   2.369   4.073 -0.5080  0.6624 -0.4843
 3918SOL    HW112074   4.106   2.275   4.042 -3.1039  0.4318  0.8254
 3918SOL    HW212075   4.213   2.394   4.073  0.2184 -1.9088 -1.0930
 3919SOL     OW12076   1.979   4.157   4.302  0.1547  0.6249 -0.2613
 3919SOL    HW112077   2.049   4.170   4.372 -2.0803  2.3406  1.8224
 3919SOL    HW212078   1.980   4.235   4.239 -0.8219  1.4396  0.6990
 3920SOL     OW12079   0.275   2.476   4.551  0.2817 -0.1808 -0.4430
 3920SOL    HW112080   0.287   2.572   4.576  2.3448 -0.4015 -0.3940
 3920SOL    HW212081   0.239   2.469   4.458 -1.1757  0.6159  0.0338
 3921SOL     OW12082   3.212   0.933   3.019  0.1531 -0.1433 -0.4218
 3921SOL    HW112083   3.242   0.990   3.096  1.6093 -0.5860 -0.6271
 3921SOL    HW212084   3.112   0.931   3.015  0.0715  1.3453  0.3614
 3922SOL     OW12085   1.687   1.915   2.983  0.3512 -0.1672 -0.3901
 3922SOL    HW112086   1.735   1.978   3.045  2.9148 -1.3402 -1.0604
 3922SOL    HW212087   1.688   1.953   2.890  0.3408 -0.3888 -0.4802
 3923SOL     OW12088   4.195   4.560   0.785 -0.0259 -0.0362 -0.1622
 3923SOL    HW112089   4.167   4.567   0.881  1.4899  0.5813  0.2536
 3923SOL    HW212090   4.202   4.651   0.745 -2.5506 -0.3205 -1.4950
 3924SOL     OW12091   0.104   1.908   3.335 -0.3329  0.0144 -0.5649
 3924SOL    HW112092   0.072   1.991   3.290 -0.1141  0.8550  0.7851
 3924SOL    HW212093   0.112   1.924   3.433  0.4228 -1.3869 -0.3719
 3925SOL     OW12094   4.097   2.821   0.653 -0.2059 -0.5975  0.2372
 3925SOL    HW112095   4.074   2.849   0.560  1.5889 -0.2456 -0.1332
 3925SOL    HW212096   4.015   2.787   0.698 -1.3427  0.2433 -1.0954
 3926SOL     OW12097   3.764   0.404   3.899 -0.3699 -0.0501  0.6047
 3926SOL    HW112098   3.773   0.498   3.866 -1.4809 -0.1102  0.0621
 3926SOL    HW212099   3.669   0.375   3.890 -0.4126 -0.6196  2.4483
 3927SOL     OW12100   1.219   0.703   3.426  0.0145  0.7012 -0.0195
 3927SOL    HW112101   1.183   0.679   3.336  0.2788 -0.0624  0.0718
 3927SOL    HW212102   1.157   0.768   3.470 -0.8057  0.0609 -0.2170
 3928SOL     OW12103   1.089   2.998   1.926 -0.1115  0.0522 -0.5354
 3928SOL    HW112104   1.051   2.994   1.833 -0.6326 -0.9516 -0.2883
 3928SOL    HW212105   1.189   3.001   1.921 -0.0588 -1.6202 -1.1161
 3929SOL     OW12106   0.517   0.510   0.234 -0.2530  0.6569 -0.5169
 3929SOL    HW112107   0.460   0.577   0.280  0.1350  0.0762  0.8530
 3929SOL    HW212108   0.606   0.550   0.213 -0.3010  0.8051 -0.4390
 3930SOL     OW12109   4.160   1.783   1.711 -0.0322 -0.2684 -0.1023
 3930SOL    HW112110   4.144   1.737   1.798  3.0366 -0.5563  0.4188
 3930SOL    HW212111   4.219   1.863   1.725 -1.2743  1.0254 -1.6661
 3931SOL     OW12112   3.692   0.770   5.113  0.1581 -0.4594 -0.1560
 3931SOL    HW112113   3.778   0.764   5.062 -0.7991 -1.9137 -1.7166
 3931SOL    HW212114   3.699   0.716   5.197  0.4630 -1.4291 -0.7824
 3932SOL     OW12115   1.928   3.079   5.149 -0.1556 -0.1643 -0.5725
 3932SOL    HW112116   1.967   3.029   5.071 -0.1143 -0.0268 -0.6403
 3932SOL    HW212117   1.917   3.176   5.125 -3.5915 -0.6946 -1.7795
 3933SOL     OW12118   2.046   3.507   4.374  0.0081  0.2846 -0.1101
 3933SOL    HW112119   2.007   3.418   4.353 -0.2396  0.0602  1.1837
 3933SOL    HW212120   1.997   3.548   4.451  0.1717  1.5091 -0.6298
 3934SOL     OW12121   4.555   4.019   3.987 -0.1753  0.5141  0.2353
 3934SOL    HW112122   4.594   3.999   4.076  0.8378 -1.3059 -0.5693
 3934SOL    HW212123   4.455   4.013   3.992 -0.1236  0.3133  1.1999
 3935SOL     OW12124   5.047   3.823   2.650  0.4558  0.1803  0.6181
 3935SOL    HW112125   4.961   3.874   2.653  0.1921 -0.2590  0.6259
 3935SOL    HW212126   5.083   3.824   2.557 -0.6764 -1.4388  0.1075
 3936SOL     OW12127   4.099   1.023   3.280  0.0807  0.2721 -0.6167
 3936SOL    HW112128   4.140   0.942   3.323  1.9200  1.0534 -0.8148
 3936SOL    HW212129   4.070   1.087   3.352  0.2831  0.2186 -0.4856
 3937SOL     OW12130   2.486   0.092   1.193 -0.1974 -0.4901 -0.0467
 3937SOL    HW112131   2.394   0.061   1.217 -0.5335  0.7065  0.2580
 3937SOL    HW212132   2.529   0.025   1.133 -1.1136 -1.2600  0.1398
 3938SOL     OW12133   5.023   1.047   0.342 -0.4239  0.3865 -0.0592
 3938SOL    HW112134   4.973   0.961   0.334 -1.2697  1.0705 -3.6254
 3938SOL    HW212135   4.971   1.111   0.399 -0.2603 -1.0198  1.7892
 3939SOL     OW12136   0.078   4.198   4.156 -0.5822 -0.4851 -0.5640
 3939SOL    HW112137   0.092   4.282   4.209 -0.0251 -0.0361 -1.3921
 3939SOL    HW212138   0.112   4.120   4.207 -0.5985 -0.1378 -0.0151
 3940SOL     OW12139   0.434   1.096   0.548 -0.4247 -0.7035 -0.2091
 3940SOL    HW112140   0.522   1.078   0.503  0.5802  0.8932  1.0114
 3940SOL    HW212141   0.444   1.086   0.647 -0.5121  3.1033  0.3382
 3941SOL     OW12142   4.361   3.419   5.256  0.4095 -0.6758 -0.3239
 3941SOL    HW112143   4.409   3.480   5.319  0.1389  0.5968 -1.3144
 3941SOL    HW212144   4.311   3.350   5.309  1.0347 -0.2967  0.8088
 3942SOL     OW12145   1.200   2.353   2.511 -0.0721  0.2662 -0.5488
 3942SOL    HW112146   1.180   2.442   2.469  0.4664  0.9256  0.5496
 3942SOL    HW212147   1.231   2.366   2.605  0.7044 -1.0365 -0.5873
 3943SOL     OW12148   2.780   4.346   3.221 -0.1264  0.0334  0.0709
 3943SOL    HW112149   2.770   4.405   3.141  0.7471  3.1431  2.0629
 3943SOL    HW212150   2.875   4.315   3.228  0.0472  0.6433  0.4517
 3944SOL     OW12151   5.379   1.054   3.619 -0.7897  0.1373 -0.2882
 3944SOL    HW112152   5.343   1.135   3.665  1.4183  0.9041  0.2109
 3944SOL    HW212153   5.351   1.055   3.523  1.8993  3.4084 -1.2536
 3945SOL     OW12154   3.727   1.315   2.773  0.9030  0.3944  0.2065
 3945SOL    HW112155   3.761   1.393   2.826 -0.8457  1.1498  0.2644
 3945SOL    HW212156   3.720   1.236   2.834 -1.3945  1.3379  1.2766
 3946SOL     OW12157   5.183   4.696   4.007 -0.1673  0.7659 -0.1658
 3946SOL    HW112158   5.212   4.603   3.984  0.3511  1.1708 -1.2156
 3946SOL    HW212159   5.211   4.759   3.934  0.1134  1.8607  0.8449
 3947SOL     OW12160   4.814   1.977   2.254  0.2849 -0.0028  0.1173
 3947SOL    HW112161   4.753   1.984   2.176 -1.2225 -1.3439  1.1080
 3947SOL    HW212162   4.850   1.884   2.261  0.6790  0.1892  0.8068
 3948SOL     OW12163   1.741   2.250   2.961  0.0850  0.6290 -0.1677
 3948SOL    HW112164   1.692   2.330   2.925  0.0416  1.8112  2.2549
 3948SOL    HW212165   1.792   2.277   3.043 -0.1063 -1.8834  0.8753
 3949SOL     OW12166   0.918   1.873   4.307 -0.3544 -0.3467  0.4189
 3949SOL    HW112167   0.883   1.877   4.213 -1.8605 -0.8350  0.9187
 3949SOL    HW212168   0.902   1.960   4.352  1.8233  0.4363 -0.2240
 3950SOL     OW12169   4.570   3.818   2.625  0.0025 -0.0105 -0.2120
 3950SOL    HW112170   4.559   3.737   2.567 -0.2571 -0.1171 -0.0191
 3950SOL    HW212171   4.511   3.808   2.706  0.6498 -0.0416  0.2630
 3951SOL     OW12172   4.834   0.538   0.233 -0.2351  0.4319 -0.0323
 3951SOL    HW112173   4.878   0.593   0.162 -0.4322  0.8865  0.1996
 3951SOL    HW212174   4.745   0.506   0.200 -1.5484  2.8203  0.9267
 3952SOL     OW12175   0.588   1.119   3.175 -0.0920 -0.4644 -0.0101
 3952SOL    HW112176   0.609   1.027   3.144 -1.1456 -0.6362 -0.2417
 3952SOL    HW212177   0.492   1.125   3.202 -0.8109  1.1878 -2.5103
 3953SOL     OW12178   2.436   2.562   0.002  0.5909 -0.3000  0.1907
 3953SOL    HW112179   2.494   2.600   0.075 -0.5453 -1.6735  1.8898
 3953SOL    HW212180   2.488   2.495  -0.050  1.0131 -0.3359  0.6496
 3954SOL     OW12181   5.028   0.431   2.673 -0.2861 -0.3339  0.8534
 3954SOL    HW112182   5.103   0.371   2.700 -0.1565 -0.5706 -0.0282
 3954SOL    HW212183   4.976   0.389   2.600 -0.1315  0.6762  0.1401
 3955SOL     OW12184   1.528   4.725   5.559 -0.4759  0.6016 -0.7695
 3955SOL    HW112185   1.624   4.755   5.557 -0.3332  0.2012 -0.0261
 3955SOL    HW212186   1.510   4.666   5.480 -0.0450  0.4803 -0.7793
 3956SOL     OW12187   4.044   4.326   3.491 -0.3202  0.4428 -0.1676
 3956SOL    HW112188   4.005   4.407   3.447 -1.0565  0.7342  1.0022
 3956SOL    HW212189   4.010   4.318   3.584 -0.1183 -1.1250 -0.1999
 3957SOL     OW12190   4.013   0.258   0.219  0.6784 -0.3369 -0.1602
 3957SOL    HW112191   4.029   0.171   0.266  2.1366  0.1188  0.2428
 3957SOL    HW212192   4.020   0.245   0.120 -0.7798 -0.9779 -0.2103
 3958SOL     OW12193   1.004   0.144   1.861 -0.6280 -0.1862 -0.0140
 3958SOL    HW112194   1.041   0.092   1.937 -0.8458  2.6413  2.1913
 3958SOL    HW212195   0.905   0.154   1.871 -0.4517  1.6466  0.3783
 3959SOL     OW12196   4.851   0.382   1.942 -0.2690 -0.2443  0.4664
 3959SOL    HW112197   4.933   0.406   1.995  0.1697 -0.8174  0.0500
 3959SOL    HW212198   4.794   0.319   1.996  0.0940 -0.6954  0.3228
 3960SOL     OW12199   4.500   1.973   2.774 -0.0886 -0.4295 -0.2245
 3960SOL    HW112200   4.443   2.055   2.773 -0.8180 -0.9208 -1.4580
 3960SOL    HW212201   4.442   1.892   2.765  0.5920 -1.1138  1.2767
 3961SOL     OW12202   3.637   4.801   2.922  0.1157 -0.1918  0.2122
 3961SOL    HW112203   3.600   4.754   2.842  1.7409 -2.3251  0.6378
 3961SOL    HW212204   3.609   4.753   3.005  1.0662  0.1299  0.7270
 3962SOL     OW12205   1.881   3.015   4.720 -0.7093  0.1400 -0.2952
 3962SOL    HW112206   1.786   2.986   4.709 -1.3922  2.1945 -0.2215
 3962SOL    HW212207   1.889   3.112   4.701  1.0585  0.4098  1.4158
 3963SOL     OW12208   3.539   1.627   2.626  0.6362  0.4165  0.0093
 3963SOL    HW112209   3.625   1.645   2.578  1.7083 -0.6648  1.4347
 3963SOL    HW212210   3.529   1.529   2.640 -1.0661  0.4987 -0.5028
 3964SOL     OW12211   1.238   1.724   4.622  0.2872 -0.0704 -0.3109
 3964SOL    HW112212   1.312   1.784   4.590 -0.0274  0.0922 -0.7569
 3964SOL    HW212213   1.234   1.726   4.722  1.4670 -0.7938 -0.2373
 3965SOL     OW12214   2.897   5.118   4.185 -0.1360 -0.3645  0.3094
 3965SOL    HW112215   2.802   5.140   4.158 -0.9596 -1.1156  2.4323
 3965SOL    HW212216   2.918   5.164   4.271  1.5094 -0.1226 -0.1979
 3966SOL     OW12217   0.906   3.975   4.148  0.2849 -0.4235 -0.1584
 3966SOL    HW112218   0.823   3.943   4.102  0.6274 -1.2438 -0.2110
 3966SOL    HW212219   0.982   3.913   4.129  1.0033  0.4954 -0.3701
 3967SOL     OW12220   4.775   4.711   3.169 -0.3263  0.2199  0.1130
 3967SOL    HW112221   4.783   4.706   3.269  0.0581 -0.0353  0.0720
 3967SOL    HW212222   4.689   4.756   3.145  0.1590  1.4186  0.5674
 3968SOL     OW12223   4.784   1.042   4.269  0.1988  0.3106  0.5201
 3968SOL    HW112224   4.766   1.098   4.189  0.1757 -0.1026  0.2302
 3968SOL    HW212225   4.699   0.999   4.300  0.5383 -1.1606 -0.4845
 3969SOL     OW12226   5.083   3.645   4.721 -0.3675 -0.1133 -0.3899
 3969SOL    HW112227   5.146   3.672   4.793 -1.7213 -1.5915  1.4209
 3969SOL    HW212228   5.135   3.612   4.642  1.1294  1.0866  0.0409
 3970SOL     OW12229   2.452   2.810   4.025  0.1002  0.3249  0.0403
 3970SOL    HW112230   2.546   2.818   3.992  0.4651 -0.0069  0.9830
 3970SOL    HW212231   2.446   2.846   4.118  0.1282 -2.9140  1.4466
 3971SOL     OW12232   3.034   2.329   4.004  0.2864  0.2399 -0.4567
 3971SOL    HW112233   3.127   2.347   4.036  0.5396 -2.4833  0.5411
 3971SOL    HW212234   3.025   2.234   3.977 -2.0010  0.6632 -1.4258
 3972SOL     OW12235   4.492   3.046   0.238 -0.0739 -0.0128 -0.1762
 3972SOL    HW112236   4.587   3.052   0.267 -0.0602 -1.0581  0.0551
 3972SOL    HW212237   4.434   3.031   0.318 -0.1858 -1.5372 -0.5007
 3973SOL     OW12238   2.632   2.458   3.481  0.1249  0.2213  0.1414
 3973SOL    HW112239   2.634   2.455   3.581  0.4015  0.4320  0.1429
 3973SOL    HW212240   2.566   2.391   3.447 -0.3591  0.5222  0.4827
 3974SOL     OW12241   4.260   2.539   1.221  0.1115  0.1002 -0.0485
 3974SOL    HW112242   4.289   2.450   1.256  0.3340  0.3355  0.3663
 3974SOL    HW212243   4.170   2.531   1.180 -1.1121  0.2579  2.4535
 3975SOL     OW12244   0.973   1.774   4.578 -0.1811 -0.2097  0.5318
 3975SOL    HW112245   0.892   1.720   4.554  0.3103 -1.7629  2.1706
 3975SOL    HW212246   1.056   1.725   4.551  0.3453 -1.4199  3.9071
 3976SOL     OW12247   3.805   2.843   1.754  0.2645  0.4608 -0.8704
 3976SOL    HW112248   3.793   2.811   1.660  1.4234 -0.3498 -0.7729
 3976SOL    HW212249   3.716   2.851   1.799 -0.1726 -3.4335 -0.6979
 3977SOL     OW12250   2.980   2.861   3.529  0.3745 -0.2167 -0.0320
 3977SOL    HW112251   3.071   2.850   3.488  0.2465  0.8834 -0.6418
 3977SOL    HW212252   2.918   2.794   3.488  0.9070 -1.0394  0.4544
 3978SOL     OW12253   4.226   1.084   3.044 -0.6881 -0.0844 -0.5607
 3978SOL    HW112254   4.177   1.069   3.130 -1.2429  3.2147 -0.1487
 3978SOL    HW212255   4.324   1.078   3.060 -0.8145 -0.6244  0.0441
 3979SOL     OW12256   3.236   1.279   1.096 -0.4151  0.4476  0.0485
 3979SOL    HW112257   3.276   1.321   1.177 -0.0583 -0.0341  0.1205
 3979SOL    HW212258   3.298   1.290   1.018 -0.3917  0.1892  0.0314
 3980SOL     OW12259   0.619   1.660   3.323 -0.6544 -0.6652 -0.3105
 3980SOL    HW112260   0.567   1.707   3.252 -2.0761 -0.9037  0.5353
 3980SOL    HW212261   0.573   1.574   3.346  0.4895 -1.2162  0.0057
 3981SOL     OW12262   2.575   1.335   5.413  0.1952  0.0166 -0.0797
 3981SOL    HW112263   2.521   1.394   5.353  1.2254  1.6955  0.5881
 3981SOL    HW212264   2.564   1.366   5.508  2.4140  0.5125  0.0563
 3982SOL     OW12265   5.083   2.023   2.449  0.0867 -0.2939  0.2213
 3982SOL    HW112266   5.058   1.927   2.447  0.0595 -0.3299  1.3965
 3982SOL    HW212267   5.033   2.069   2.523 -0.8738  0.9148 -1.1073
 3983SOL     OW12268   4.559   0.436   4.959 -0.2630 -0.5620 -0.0446
 3983SOL    HW112269   4.496   0.431   4.883  0.2244 -0.2552 -0.4739
 3983SOL    HW212270   4.644   0.387   4.935 -0.8415 -2.1899  1.0343
 3984SOL     OW12271   5.323   4.477   1.840  0.2170 -0.2105  0.6229
 3984SOL    HW112272   5.336   4.379   1.834 -1.0813 -0.3336 -0.6506
 3984SOL    HW212273   5.329   4.518   1.749 -0.0955  0.7711  1.0282
 3985SOL     OW12274   1.849   3.295   2.662 -0.4442  0.2922  0.4782
 3985SOL    HW112275   1.860   3.335   2.571  0.2236 -1.5266 -0.2941
 3985SOL    HW212276   1.757   3.316   2.697 -0.9913  0.3817 -0.9468
 3986SOL     OW12277   3.520   0.513   3.729 -0.2279 -0.1081 -0.0913
 3986SOL    HW112278   3.506   0.563   3.644  0.2659  0.3180  0.0729
 3986SOL    HW212279   3.554   0.576   3.799  0.3588 -0.6655  0.1287
 3987SOL     OW12280   1.666   0.368   2.357 -0.2184 -0.5655  0.0738
 3987SOL    HW112281   1.658   0.377   2.258 -0.3806  1.3592  0.2211
 3987SOL    HW212282   1.575   0.363   2.398 -0.3090  1.8592  0.3151
 3988SOL     OW12283   3.147   4.457   3.109  0.3120  0.0360  0.6115
 3988SOL    HW112284   3.131   4.525   3.038  0.3413  0.0696  0.6371
 3988SOL    HW212285   3.225   4.400   3.084  0.4150  0.1443  0.6886
 3989SOL     OW12286   0.236   0.608   1.889 -0.0195 -0.2567 -0.0199
 3989SOL    HW112287   0.263   0.672   1.817 -3.8900 -0.2694 -1.7385
 3989SOL    HW212288   0.251   0.514   1.858 -0.7612 -0.2443 -0.4394
 3990SOL     OW12289   3.288   5.080   1.731  0.8557 -0.2294  0.0922
 3990SOL    HW112290   3.194   5.052   1.750  1.1567 -0.6134  1.1057
 3990SOL    HW212291   3.289   5.171   1.690  0.0766  0.0235  0.6221
 3991SOL     OW12292   4.083   0.608   3.192 -0.1485  0.1395  0.2339
 3991SOL    HW112293   4.182   0.616   3.179 -0.0786 -1.5709 -0.5407
 3991SOL    HW212294   4.049   0.527   3.144 -2.3248  1.9425 -1.5074
 3992SOL     OW12295   5.408   3.614   4.881 -0.5590  0.1245 -0.3355
 3992SOL    HW112296   5.366   3.530   4.848  0.4811 -0.4995 -0.1443
 3992SOL    HW212297   5.506   3.598   4.894 -0.7076  0.6831  1.8614
 3993SOL     OW12298   2.931   1.558   3.638 -0.6905 -0.0817 -0.4201
 3993SOL    HW112299   2.948   1.472   3.686 -2.3787 -0.2794 -0.0888
 3993SOL    HW212300   2.958   1.635   3.696  0.4132 -0.3619 -0.5392
 3994SOL     OW12301   2.980   4.582   2.091  0.6826 -0.2989  0.6866
 3994SOL    HW112302   2.936   4.648   2.152 -0.2785  0.5865 -0.8992
 3994SOL    HW212303   2.944   4.491   2.109 -1.9808  0.3883 -0.5640
 3995SOL     OW12304   2.874   2.804   4.767 -0.4500  0.0303 -0.1882
 3995SOL    HW112305   2.922   2.836   4.849 -0.7598 -0.6627  0.2727
 3995SOL    HW212306   2.778   2.787   4.789 -0.4618 -0.4641 -0.6106
 3996SOL     OW12307   4.705   2.180   0.285  0.0913 -0.0909 -0.3794
 3996SOL    HW112308   4.609   2.193   0.308  0.1162 -0.4680 -0.0468
 3996SOL    HW212309   4.761   2.197   0.366  0.2699 -0.2862 -0.4610
 3997SOL     OW12310   3.668   0.107   2.862  0.4145  0.5832  0.1086
 3997SOL    HW112311   3.604   0.179   2.887  2.1152  1.3625  2.5874
 3997SOL    HW212312   3.622   0.018   2.871 -0.4753  1.1367  1.4317
 3998SOL     OW12313   0.657   5.102   5.014  0.0416  0.1242 -0.1335
 3998SOL    HW112314   0.604   5.018   5.008 -0.1728  0.3455 -1.6753
 3998SOL    HW212315   0.606   5.177   4.972  0.4023  0.9551  0.8528
 3999SOL     OW12316   3.652   0.220   1.460 -0.1290  0.2206  0.2947
 3999SOL    HW112317   3.746   0.237   1.430  0.1352 -2.0309 -0.3066
 3999SOL    HW212318   3.606   0.308   1.474  1.4699  1.3892 -1.2347
 4000SOL     OW12319   0.971   5.495   3.980  0.1440  0.3201 -0.2991
 4000SOL    HW112320   1.001   5.538   4.065  2.0003 -0.8396 -0.3208
 4000SOL    HW212321   0.887   5.444   3.997 -0.1732  1.0834  0.5238
 4001SOL     OW12322   3.144   2.607   0.056 -0.9329  0.8074 -0.1054
 4001SOL    HW112323   3.225   2.588   0.110 -0.9295 -0.0473 -0.3998
 4001SOL    HW212324   3.163   2.589  -0.041 -0.8464  2.5855 -0.4590
 4002SOL     OW12325   5.023   0.925   5.482  0.0620  0.7840  0.2681
 4002SOL    HW112326   5.031   1.020   5.512  1.0950  0.9841 -0.5868
 4002SOL    HW212327   5.085   0.909   5.405  0.7363 -0.8694  1.1043
 4003SOL     OW12328   5.291   1.248   3.036 -0.6038 -0.0928 -0.1787
 4003SOL    HW112329   5.317   1.157   3.070  0.6941 -0.6170 -2.3300
 4003SOL    HW212330   5.198   1.269   3.064 -0.4034 -1.4058  1.6559
 4004SOL     OW12331   3.582   1.970   2.606  0.0539 -1.2283  0.2087
 4004SOL    HW112332   3.534   1.886   2.630  0.3417 -0.9976  1.6866
 4004SOL    HW212333   3.681   1.953   2.604  0.2211 -0.6369  1.9288
 4005SOL     OW12334   5.007   0.349   0.584 -0.3258 -0.4146  0.0695
 4005SOL    HW112335   4.922   0.402   0.579  0.7443  1.3071 -3.2132
 4005SOL    HW212336   4.988   0.253   0.563 -1.4614  0.0397 -1.1157
 4006SOL     OW12337   1.793   1.588   3.796 -0.3266 -0.1727  0.1391
 4006SOL    HW112338   1.790   1.522   3.721 -0.3665  1.3391 -1.2456
 4006SOL    HW212339   1.843   1.669   3.767  0.4151  0.1100  2.0721
 4007SOL     OW12340   3.146   2.273   5.521 -0.3959  0.2468 -0.1103
 4007SOL    HW112341   3.234   2.277   5.568  1.0931  1.2648 -2.7232
 4007SOL    HW212342   3.149   2.332   5.440 -2.2772 -2.3310 -2.2423
 4008SOL     OW12343   4.835   4.434   2.418  0.6711  0.3247 -0.0458
 4008SOL    HW112344   4.835   4.337   2.440  0.4515  0.7701  2.1335
 4008SOL    HW212345   4.751   4.456   2.369 -0.5615 -0.1800  1.7150
 4009SOL     OW12346   0.835   4.804   3.943  0.4247  0.2426  0.4944
 4009SOL    HW112347   0.892   4.859   3.882 -0.3189  1.4508  0.8702
 4009SOL    HW212348   0.784   4.864   4.004 -0.9897 -0.8354  0.4025
 4010SOL     OW12349   4.850   2.853   4.992  0.5884 -0.0492  0.2295
 4010SOL    HW112350   4.827   2.894   4.904  1.0769 -0.1660  0.0436
 4010SOL    HW212351   4.816   2.759   4.995 -0.8348  0.4619  0.7883
 4011SOL     OW12352   2.649   1.380   2.793 -0.6400 -0.0921  0.5491
 4011SOL    HW112353   2.570   1.366   2.853 -0.9673  0.9606  0.3807
 4011SOL    HW212354   2.728   1.405   2.849 -0.2271 -1.7728  0.7832
 4012SOL     OW12355   5.258   2.762   2.868 -0.0313 -0.0398  0.1619
 4012SOL    HW112356   5.328   2.703   2.829 -0.9842 -1.0684 -0.0663
 4012SOL    HW212357   5.286   2.858   2.860  1.4171 -0.4325  0.2708
 4013SOL     OW12358   1.113   1.399   4.883 -0.3325 -0.2665  0.4371
 4013SOL    HW112359   1.060   1.465   4.829 -2.9859 -2.1143  0.6159
 4013SOL    HW212360   1.094   1.414   4.981  0.2395 -0.3639  0.5651
 4014SOL     OW12361   0.958   4.067   2.061 -0.6482 -0.1460 -0.2403
 4014SOL    HW112362   1.027   4.000   2.089 -1.7025 -1.2629 -0.2335
 4014SOL    HW212363   0.990   4.159   2.085  0.4987 -0.6931  0.4402
 4015SOL     OW12364   0.635   0.497   1.956 -0.8610 -0.4016  0.0043
 4015SOL    HW112365   0.566   0.430   1.929 -0.2855 -0.0672 -2.5309
 4015SOL    HW212366   0.590   0.582   1.982 -1.4536 -0.2307 -1.4842
 4016SOL     OW12367   1.784   3.478   3.687  0.3128  0.3569  0.1814
 4016SOL    HW112368   1.872   3.521   3.666  0.3878 -0.2134 -0.7373
 4016SOL    HW212369   1.796   3.409   3.758  0.5865  0.3439  0.1218
 4017SOL     OW12370   0.341   3.607   1.356  0.0580  0.3932  0.2757
 4017SOL    HW112371   0.308   3.550   1.431  1.0166 -1.0313 -0.3449
 4017SOL    HW212372   0.278   3.684   1.342 -1.0521 -0.2763  1.4044
 4018SOL     OW12373   2.102   3.916   1.654  0.6550 -0.0814  0.0900
 4018SOL    HW112374   2.185   3.876   1.615  1.1336 -1.7022  2.5220
 4018SOL    HW212375   2.024   3.856   1.634  0.4206  0.4215 -0.5264
 4019SOL     OW12376   1.863   0.054   1.907 -0.1027 -0.0435 -0.1755
 4019SOL    HW112377   1.806  -0.002   1.847 -1.2991 -0.0491  0.9210
 4019SOL    HW212378   1.871   0.146   1.868  1.4583 -0.7815 -1.7274
 4020SOL     OW12379   4.652   2.755   3.111  0.2965 -0.0045  0.4019
 4020SOL    HW112380   4.578   2.806   3.154  0.6114  0.6959  0.1261
 4020SOL    HW212381   4.621   2.716   3.025  0.5517  1.2564 -0.2913
 4021SOL     OW12382   4.689   2.693   3.970 -0.3236  0.0889  0.8464
 4021SOL    HW112383   4.758   2.718   4.038  0.5566 -1.8966  0.7535
 4021SOL    HW212384   4.655   2.601   3.989  0.0457 -0.5794 -1.4279
 4022SOL     OW12385   1.691   1.865   0.533 -0.2630 -0.0898  0.5745
 4022SOL    HW112386   1.704   1.889   0.437 -1.1133 -1.5430  0.0612
 4022SOL    HW212387   1.717   1.943   0.591  2.1668  0.1294 -0.6992
 4023SOL     OW12388   0.435   0.885   4.127  0.5541 -0.4155 -0.3760
 4023SOL    HW112389   0.347   0.932   4.137  0.3886 -0.2971 -2.1846
 4023SOL    HW212390   0.429   0.795   4.170 -0.3410 -0.2778 -0.1878
 4024SOL     OW12391   3.492   3.821   4.955  0.0204 -0.5792 -0.1168
 4024SOL    HW112392   3.398   3.825   4.923 -1.5680  0.0144  3.9851
 4024SOL    HW212393   3.530   3.913   4.961  0.3558 -0.6935 -0.4443
 4025SOL     OW12394   2.606   4.924   5.432  0.2620 -1.4194 -0.6714
 4025SOL    HW112395   2.645   4.994   5.492 -1.0867  0.6735 -2.0906
 4025SOL    HW212396   2.507   4.921   5.446 -0.0921 -0.8408 -2.7614
 4026SOL     OW12397   5.222   2.580   1.761 -0.7926  0.1244  0.5361
 4026SOL    HW112398   5.306   2.633   1.768 -0.2140 -0.4652 -1.3734
 4026SOL    HW212399   5.206   2.533   1.847 -0.0283  1.4712  1.4554
 4027SOL     OW12400   4.882   2.806   2.934 -0.1360  0.1140 -0.1614
 4027SOL    HW112401   4.796   2.788   2.980 -0.1760  0.0677 -0.2539
 4027SOL    HW212402   4.866   2.862   2.853 -0.1143 -0.1308 -0.3367
 4028SOL     OW12403   5.105   0.630   1.747  0.5595  0.3052  0.0776
 4028SOL    HW112404   5.035   0.594   1.685  2.4533 -0.6033 -1.6505
 4028SOL    HW212405   5.164   0.693   1.697 -0.2038  2.7377  2.0372
 4029SOL     OW12406   0.822   4.912   3.494  0.4173 -0.5119 -0.4405
 4029SOL    HW112407   0.774   4.983   3.545 -0.8360 -1.4910 -0.2044
 4029SOL    HW212408   0.887   4.866   3.555  0.0466 -0.6546 -0.1540
 4030SOL     OW12409   0.718   0.353   1.266 -0.0304  0.2550 -0.1332
 4030SOL    HW112410   0.747   0.427   1.326 -0.2812  0.3968 -0.1849
 4030SOL    HW212411   0.669   0.391   1.187 -0.9907 -0.0203  0.3156
 4031SOL     OW12412   2.191   2.099   0.792 -0.0584  0.0200 -0.6228
 4031SOL    HW112413   2.150   2.012   0.818  0.5376  0.3150  1.4881
 4031SOL    HW212414   2.122   2.171   0.796 -0.5470 -0.3010 -2.3509
 4032SOL     OW12415   1.778   1.580   0.967 -0.2130 -0.4397  0.5999
 4032SOL    HW112416   1.741   1.579   0.874 -2.8819 -2.4050  1.5295
 4032SOL    HW212417   1.751   1.664   1.013  0.1253  0.0290 -0.0549
 4033SOL     OW12418   1.750   3.661   5.052  0.2944  0.1895 -0.5244
 4033SOL    HW112419   1.670   3.625   5.101 -0.3903  1.3250 -0.7740
 4033SOL    HW212420   1.826   3.596   5.061 -0.5400 -0.7514  0.0101
 4034SOL     OW12421   2.089   4.687   3.632 -0.2421  0.0553  0.2747
 4034SOL    HW112422   2.087   4.770   3.687  2.2775 -1.0708  2.2844
 4034SOL    HW212423   2.144   4.702   3.550  0.8897  0.1976  1.0405
 4035SOL     OW12424   4.358   2.492   4.311  0.3340  0.4853 -0.5324
 4035SOL    HW112425   4.429   2.561   4.296  0.7978  0.4734  1.3820
 4035SOL    HW212426   4.381   2.409   4.260  1.4618  0.6368 -0.2987
 4036SOL     OW12427   0.340   2.254   2.880 -0.5314 -0.1127 -0.3180
 4036SOL    HW112428   0.245   2.252   2.847 -0.8625 -0.1474  0.6235
 4036SOL    HW212429   0.355   2.178   2.943 -0.5027  1.0954  1.1905
 4037SOL     OW12430   1.359   3.710   4.302 -0.5497 -0.2317 -0.6688
 4037SOL    HW112431   1.328   3.635   4.243  0.7254 -0.3992 -1.1636
 4037SOL    HW212432   1.447   3.744   4.269 -0.2367  0.2754  0.6309
 4038SOL     OW12433   3.004   4.249   3.560  0.1875  0.2297  0.2592
 4038SOL    HW112434   3.079   4.308   3.588 -0.5654  1.3704 -0.0412
 4038SOL    HW212435   2.917   4.289   3.589 -0.4518  0.1626 -1.4354
 4039SOL     OW12436   4.235   0.962   1.355  0.2521 -0.1792 -0.0126
 4039SOL    HW112437   4.282   0.896   1.297  1.0022 -0.1634  0.5588
 4039SOL    HW212438   4.298   1.037   1.377  0.5130 -0.9522  2.0803
 4040SOL     OW12439   0.276   2.328   4.290 -0.8671  0.1932  0.1301
 4040SOL    HW112440   0.310   2.234   4.294 -0.1957  0.4379  0.2213
 4040SOL    HW212441   0.338   2.385   4.237  0.6114  1.3504  2.8808
 4041SOL     OW12442   2.712   2.802   3.945 -0.3695  0.0473  0.0039
 4041SOL    HW112443   2.802   2.841   3.924 -0.5083 -0.2815 -1.3153
 4041SOL    HW212444   2.722   2.733   4.017  0.2700  0.7143  0.5730
 4042SOL     OW12445   1.554   4.294   2.362  0.4588  0.0931  0.1605
 4042SOL    HW112446   1.641   4.330   2.395  0.5176 -0.1014  0.2172
 4042SOL    HW212447   1.514   4.234   2.432  0.7253 -0.5571 -0.2389
 4043SOL     OW12448   3.170   1.078   1.287 -0.3022  0.2185  0.1513
 4043SOL    HW112449   3.218   1.105   1.204  0.8167 -1.7263  0.1178
 4043SOL    HW212450   3.072   1.071   1.268 -0.0641 -0.1837 -0.9865
 4044SOL     OW12451   4.800   5.288   2.855  0.0533 -0.3537  0.2659
 4044SOL    HW112452   4.862   5.354   2.898 -0.2373  0.8610 -1.1057
 4044SOL    HW212453   4.830   5.270   2.762 -0.7026 -1.0418  0.1483
 4045SOL     OW12454   3.911   2.820   4.069 -0.1367  0.3069  0.1334
 4045SOL    HW112455   3.946   2.820   3.975 -0.5815 -1.1282 -0.0605
 4045SOL    HW212456   3.934   2.733   4.112 -0.3059  0.7924  1.2323
 4046SOL     OW12457   5.427   3.042   2.829 -0.4145 -0.2361 -0.1430
 4046SOL    HW112458   5.480   3.008   2.751 -0.1191  0.3398 -0.1997
 4046SOL    HW212459   5.457   3.135   2.851 -0.7226 -0.2751  0.4507
 4047SOL     OW12460   5.128   1.809   3.163  0.2805  0.0338 -0.4027
 4047SOL    HW112461   5.216   1.806   3.209  0.7735  1.6648 -1.1505
 4047SOL    HW212462   5.056   1.779   3.226  1.1219  0.6800  0.9188
 4048SOL     OW12463   2.530   0.447   2.484 -0.1700 -0.4067 -0.3284
 4048SOL    HW112464   2.579   0.520   2.531 -1.0827  0.0228 -0.0237
 4048SOL    HW212465   2.433   0.452   2.506 -0.0128 -2.8942  1.2483
 4049SOL     OW12466   0.969   0.490   2.615 -0.2703  0.0774 -0.0820
 4049SOL    HW112467   1.058   0.507   2.658  0.6966 -1.5421 -1.2979
 4049SOL    HW212468   0.928   0.408   2.655 -1.1071  0.6661  0.2828
 4050SOL     OW12469   0.357   1.850   1.852  0.0015  0.1533  0.1108
 4050SOL    HW112470   0.418   1.807   1.918  1.2306 -1.8542 -2.1772
 4050SOL    HW212471   0.293   1.782   1.816  0.4786  0.7366 -1.9667
 4051SOL     OW12472   0.973   5.374   2.911  0.8702 -0.4108  0.1127
 4051SOL    HW112473   0.877   5.364   2.886 -0.0223  1.5213  2.3412
 4051SOL    HW212474   1.027   5.302   2.867 -1.2397 -0.4188 -2.7476
 4052SOL     OW12475   1.998   2.887   4.023 -0.1702  0.1784 -0.4752
 4052SOL    HW112476   2.022   2.891   4.120 -0.3817 -1.3234 -0.3390
 4052SOL    HW212477   2.082   2.875   3.969 -0.2634 -2.2622 -0.2008
 4053SOL     OW12478   1.181   3.680   3.212  0.0761  0.0635 -0.2991
 4053SOL    HW112479   1.218   3.589   3.229 -1.2365 -1.0202 -2.8046
 4053SOL    HW212480   1.256   3.746   3.209  1.0387 -0.8745  1.6466
 4054SOL     OW12481   3.307   5.430   3.216 -0.8557 -0.0525  0.3221
 4054SOL    HW112482   3.283   5.358   3.150  0.1121 -2.5633  2.5167
 4054SOL    HW212483   3.224   5.479   3.244 -1.5575 -0.3149 -1.1661
 4055SOL     OW12484   3.419   0.763   1.413 -0.3600 -0.3760  0.3473
 4055SOL    HW112485   3.380   0.840   1.463  0.8388  1.4123 -1.3162
 4055SOL    HW212486   3.389   0.767   1.317 -0.0324 -1.8230  0.1568
 4056SOL     OW12487   4.930   4.941   5.034 -0.2151 -0.4317  0.0824
 4056SOL    HW112488   4.865   4.994   4.980 -0.6242  0.0879  1.0685
 4056SOL    HW212489   4.926   4.845   5.006 -1.9919 -0.5588  0.6644
 4057SOL     OW12490   3.063   2.089   4.893 -0.1042  0.0479  0.5839
 4057SOL    HW112491   3.130   2.017   4.904  0.4996  0.8117  2.2410
 4057SOL    HW212492   3.103   2.177   4.921 -1.4119  0.7171  0.4444
 4058SOL     OW12493   4.132   2.762   0.242  0.0176 -0.1044 -0.3040
 4058SOL    HW112494   4.066   2.774   0.167  0.3449 -1.3305 -0.8222
 4058SOL    HW212495   4.225   2.769   0.205  0.1827 -0.1737  0.0958
 4059SOL     OW12496   4.857   0.630   0.936 -0.3707 -0.9247  0.0767
 4059SOL    HW112497   4.791   0.681   0.991 -0.1622 -0.6080  0.0401
 4059SOL    HW212498   4.945   0.678   0.938 -0.7484 -0.0505 -1.7473
 4060SOL     OW12499   3.301   2.743   2.596  0.6520  0.0507 -0.4875
 4060SOL    HW112500   3.326   2.829   2.640  0.2076  0.2852 -0.6849
 4060SOL    HW212501   3.383   2.692   2.571  0.9149 -0.0945  0.6318
 4061SOL     OW12502   1.274   1.667   5.437  0.0182  0.4082 -0.3580
 4061SOL    HW112503   1.262   1.654   5.339 -0.9044 -0.0879 -0.1975
 4061SOL    HW212504   1.184   1.681   5.480  0.4642  1.2592  0.3310
 4062SOL     OW12505   3.241   5.390   4.762  0.8565  0.5690  0.6304
 4062SOL    HW112506   3.201   5.400   4.853  2.6525 -1.2435  1.7049
 4062SOL    HW212507   3.169   5.364   4.697 -0.5579  2.4135  1.3353
 4063SOL     OW12508   3.408   4.060   1.061 -0.1525 -0.6910 -0.0154
 4063SOL    HW112509   3.432   3.995   0.988  0.7324 -1.1646  0.6745
 4063SOL    HW212510   3.378   4.010   1.141  1.6097 -0.3319  0.9158
 4064SOL     OW12511   3.561   2.733   5.186 -0.1114 -0.5739 -0.5077
 4064SOL    HW112512   3.466   2.759   5.171  0.2572  0.3306 -1.4391
 4064SOL    HW212513   3.613   2.813   5.218  0.4153 -0.9511 -0.4034
 4065SOL     OW12514   4.339   0.681   1.286 -0.3576 -1.3603  0.1631
 4065SOL    HW112515   4.313   0.703   1.192 -0.2827 -1.8115  0.0367
 4065SOL    HW212516   4.436   0.657   1.290  0.1063  0.3710  0.6446
 4066SOL     OW12517   0.812   0.080   0.867 -0.1504 -0.0079 -0.0775
 4066SOL    HW112518   0.870   0.009   0.826  1.1777  1.4027 -0.7245
 4066SOL    HW212519   0.716   0.059   0.847  0.3784  0.1141 -3.2143
 4067SOL     OW12520   0.184   1.594   0.606  0.4189  0.0521  0.2206
 4067SOL    HW112521   0.279   1.614   0.630  0.4047 -0.6933  0.9526
 4067SOL    HW212522   0.125   1.666   0.642  0.7847  1.0513 -1.1068
 4068SOL     OW12523   1.720   5.143   3.395  0.5227 -0.5110 -0.7801
 4068SOL    HW112524   1.693   5.132   3.299  0.5205  1.2366 -1.0115
 4068SOL    HW212525   1.645   5.185   3.446  0.7186 -0.9529 -0.1209
 4069SOL     OW12526   2.596   0.902   1.235  0.4361 -0.0985  0.0757
 4069SOL    HW112527   2.693   0.922   1.247  0.8690 -1.3471 -1.1384
 4069SOL    HW212528   2.583   0.803   1.224 -0.7886  0.1866 -1.3070
 4070SOL     OW12529   1.450   2.822   1.411 -0.1099  0.0182 -0.5890
 4070SOL    HW112530   1.521   2.865   1.467  0.2226  0.8928 -1.6337
 4070SOL    HW212531   1.372   2.884   1.402  0.2033  0.2632 -1.7804
 4071SOL     OW12532   2.200   2.697   1.124  0.2669 -0.2787 -0.3532
 4071SOL    HW112533   2.204   2.650   1.212  0.7429 -1.7369 -1.1266
 4071SOL    HW212534   2.193   2.796   1.140 -3.6496 -0.6614  1.3483
 4072SOL     OW12535   2.128   3.565   2.890  0.0133 -0.2769 -0.3707
 4072SOL    HW112536   2.171   3.633   2.949  0.2913 -0.6690 -0.1211
 4072SOL    HW212537   2.107   3.607   2.802 -0.9557  0.4824  0.2012
 4073SOL     OW12538   0.710   3.960   2.167 -0.1544  0.5083 -0.0238
 4073SOL    HW112539   0.779   4.012   2.117 -0.4950  0.8046 -0.1891
 4073SOL    HW212540   0.726   3.970   2.265 -0.6279  1.5104 -0.0312
 4074SOL     OW12541   4.551   5.067   4.141  0.0285  0.2973  0.0145
 4074SOL    HW112542   4.572   5.132   4.214  1.4320  0.1119 -0.2011
 4074SOL    HW212543   4.557   5.113   4.053  0.0250  0.1138 -0.0813
 4075SOL     OW12544   4.984   4.133   4.587  0.0575  0.0994  0.7738
 4075SOL    HW112545   5.080   4.145   4.564  0.1942  1.2926  1.8404
 4075SOL    HW212546   4.963   4.036   4.593  0.8799 -0.1915 -0.6687
 4076SOL     OW12547   4.919   0.760   1.395  0.1959  0.5427 -0.4170
 4076SOL    HW112548   4.853   0.815   1.447 -1.0003 -0.9950 -0.2263
 4076SOL    HW212549   4.944   0.679   1.448  0.6802  0.0803 -1.3333
 4077SOL     OW12550   3.530   0.467   4.131  0.4263 -0.1965  0.2640
 4077SOL    HW112551   3.527   0.562   4.100 -0.7013 -1.2654 -3.3896
 4077SOL    HW212552   3.625   0.439   4.142  1.0197  0.2921 -2.6664
 4078SOL     OW12553   1.673   1.413   1.344  0.1427  0.1472  0.4447
 4078SOL    HW112554   1.641   1.327   1.385 -0.6888  0.8598  1.3104
 4078SOL    HW212555   1.755   1.444   1.393 -0.6016  0.7748  1.3067
 4079SOL     OW12556   3.768   0.109   2.499  0.0040  0.0317 -0.0304
 4079SOL    HW112557   3.719   0.173   2.557  0.6738 -0.3623  1.0179
 4079SOL    HW212558   3.739   0.015   2.521 -0.8951 -0.0493 -1.4708
 4080SOL     OW12559   3.188   0.021   2.867 -0.3317 -0.1201  0.2142
 4080SOL    HW112560   3.245  -0.060   2.850  1.5123  1.2209 -0.3548
 4080SOL    HW212561   3.235   0.080   2.932 -1.5321  0.6122  0.4268
 4081SOL     OW12562   1.460   1.636   4.328 -0.5062  0.4893  0.1783
 4081SOL    HW112563   1.418   1.675   4.246  0.4016  1.5026  0.1726
 4081SOL    HW212564   1.552   1.602   4.306 -0.4610  0.2831  0.6632
 4082SOL     OW12565   4.742   4.026   4.211  0.7325 -0.1298 -0.4516
 4082SOL    HW112566   4.750   3.936   4.254  1.7398 -0.0067 -0.3442
 4082SOL    HW212567   4.832   4.070   4.210  0.4287  0.5022 -1.3137
 4083SOL     OW12568   0.442   2.635   0.308 -0.2879  0.2165  0.0586
 4083SOL    HW112569   0.384   2.560   0.278  0.2873  0.2196 -1.1109
 4083SOL    HW212570   0.391   2.721   0.304 -1.3006 -0.1749  2.4212
 4084SOL     OW12571   4.355   4.277   5.320  0.5426 -0.0838  0.3927
 4084SOL    HW112572   4.348   4.183   5.353 -0.4439  0.2405  1.1759
 4084SOL    HW212573   4.340   4.278   5.221  1.8475 -0.8803  0.1618
 4085SOL     OW12574   0.136   4.782   4.350 -0.3563  0.1322  0.0104
 4085SOL    HW112575   0.207   4.833   4.398 -0.5455  0.3498  0.0608
 4085SOL    HW212576   0.049   4.829   4.359  0.1158  1.8803 -3.1087
 4086SOL     OW12577   4.156   5.387   1.271 -0.1370 -0.3960 -0.2815
 4086SOL    HW112578   4.119   5.457   1.210 -0.6199 -1.1244 -0.8492
 4086SOL    HW212579   4.082   5.348   1.326  0.0839 -0.6454 -0.1554
 4087SOL     OW12580   3.935   2.493   2.003 -0.3984  0.2828  0.7461
 4087SOL    HW112581   3.839   2.514   2.021 -0.6915 -1.3709  1.3025
 4087SOL    HW212582   3.978   2.458   2.087  0.4372  0.1640  0.2790
 4088SOL     OW12583   1.222   0.279   4.308  0.3807 -0.3805 -0.5864
 4088SOL    HW112584   1.290   0.261   4.237 -0.4915 -1.3037 -1.2043
 4088SOL    HW212585   1.148   0.335   4.270 -0.4312 -1.4561 -0.6080
 4089SOL     OW12586   4.907   1.537   5.381 -0.6291  0.8008 -0.2286
 4089SOL    HW112587   4.877   1.632   5.372  1.2358  1.5878  1.1843
 4089SOL    HW212588   4.932   1.518   5.476 -1.1196 -1.1799 -0.4481
 4090SOL     OW12589   5.433   5.095   2.223 -0.1083  0.1404 -0.0053
 4090SOL    HW112590   5.529   5.103   2.249 -0.3674 -0.9888  1.4014
 4090SOL    HW212591   5.380   5.064   2.301 -1.8209  1.7353 -0.4704
 4091SOL     OW12592   1.756   5.510  -0.012  0.9079  0.2587 -0.0511
 4091SOL    HW112593   1.691   5.435  -0.027 -0.1499  1.2347 -0.5267
 4091SOL    HW212594   1.767   5.525   0.086  0.7238 -0.1762  0.0405
 4092SOL     OW12595   4.763   2.107   2.500 -0.3663  0.0898 -0.5239
 4092SOL    HW112596   4.669   2.139   2.497 -0.1943  0.6013 -0.5138
 4092SOL    HW212597   4.791   2.075   2.409  0.6961  3.5798 -1.5872
 4093SOL     OW12598   5.236   4.455   2.568 -0.3703 -0.0980 -0.6488
 4093SOL    HW112599   5.157   4.514   2.553  0.2869  1.3921  1.2664
 4093SOL    HW212600   5.285   4.485   2.650  0.7772 -2.5182 -0.3382
 4094SOL     OW12601   3.587   3.984   3.901  0.3190 -0.4988  0.1913
 4094SOL    HW112602   3.606   3.897   3.946  0.3657 -0.2200  0.7198
 4094SOL    HW212603   3.665   4.046   3.915  0.1217 -0.2414  0.1451
 4095SOL     OW12604   0.982   2.454   0.402 -0.2901 -0.5387 -0.2581
 4095SOL    HW112605   1.042   2.442   0.481  0.1692  0.1292 -0.4928
 4095SOL    HW212606   0.896   2.407   0.418 -0.7535  0.7194  1.2515
 4096SOL     OW12607   0.755   3.588   2.538  0.0110 -0.2566 -0.2293
 4096SOL    HW112608   0.687   3.515   2.540 -0.8437  0.5223 -0.0089
 4096SOL    HW212609   0.710   3.676   2.554  1.1279  0.2381  0.3646
 4097SOL     OW12610   5.021   4.260   5.148  0.6532 -0.0388  0.4356
 4097SOL    HW112611   4.971   4.180   5.183  0.3928  0.2968  0.8506
 4097SOL    HW212612   4.961   4.341   5.153  1.6492  0.6499  2.1956
 4098SOL     OW12613   1.500   3.155   2.642 -0.2466 -0.0207 -0.8261
 4098SOL    HW112614   1.432   3.221   2.609 -0.1243  0.7671  0.4584
 4098SOL    HW212615   1.561   3.130   2.566 -2.1577 -1.0354 -2.1119
 4099SOL     OW12616   1.907   3.425   1.362 -0.0558  0.1075 -0.1326
 4099SOL    HW112617   1.920   3.474   1.276 -0.6800 -0.7121 -0.7011
 4099SOL    HW212618   1.979   3.453   1.427 -0.4301  1.8153 -0.3983
 4100SOL     OW12619   2.357   1.152   3.569  0.2266  0.0856 -0.1817
 4100SOL    HW112620   2.407   1.122   3.650  1.5736  0.3030 -0.8985
 4100SOL    HW212621   2.403   1.232   3.530  0.6508 -1.0313 -2.1223
 4101SOL     OW12622   0.455   3.539   4.763  0.7540 -0.6198 -0.8737
 4101SOL    HW112623   0.370   3.580   4.730  1.5022  2.7213  0.9278
 4101SOL    HW212624   0.525   3.547   4.691  0.8939  1.5384 -0.5741
 4102SOL     OW12625   0.990   3.359   4.448 -0.6734 -0.0654  0.3981
 4102SOL    HW112626   0.947   3.449   4.454 -0.3729  0.1586 -0.6340
 4102SOL    HW212627   1.086   3.366   4.477 -0.3081  0.2196 -0.7989
 4103SOL     OW12628   1.413   4.795   4.944  0.1049 -0.2445 -0.2988
 4103SOL    HW112629   1.389   4.784   5.041  1.3903  0.8834  0.1699
 4103SOL    HW212630   1.489   4.859   4.935 -0.5107  0.2834 -2.1333
 4104SOL     OW12631   0.067   3.777   5.409 -0.1598 -0.4406  0.0480
 4104SOL    HW112632   0.029   3.700   5.460 -1.0484  0.0471  0.1394
 4104SOL    HW212633   0.135   3.743   5.344 -0.3333 -1.2688  0.2868
 4105SOL     OW12634   4.922   0.533   1.562  0.0832 -0.1432  0.0080
 4105SOL    HW112635   4.960   0.442   1.547  0.8956  0.5733 -3.1671
 4105SOL    HW212636   4.823   0.530   1.554  0.1658 -0.6522 -0.9585
 4106SOL     OW12637   1.455   2.298   2.371  0.2694 -0.0944 -0.4046
 4106SOL    HW112638   1.367   2.286   2.416 -0.5175 -0.8202 -2.0513
 4106SOL    HW212639   1.464   2.393   2.341 -0.1498 -0.1132 -0.6018
 4107SOL     OW12640   4.855   4.168   2.467  0.3007  0.6682 -0.4498
 4107SOL    HW112641   4.954   4.184   2.472  0.3198  0.2263  0.7858
 4107SOL    HW212642   4.827   4.108   2.542 -0.6364 -0.6383 -1.7888
 4108SOL     OW12643   1.273   4.746   4.299 -0.2568  0.7212  0.1376
 4108SOL    HW112644   1.251   4.801   4.218  0.3377 -0.2515 -0.7132
 4108SOL    HW212645   1.210   4.669   4.305  0.7412 -0.1601 -0.3851
 4109SOL     OW12646   3.325   3.459   5.069  0.6174  0.3505  0.1486
 4109SOL    HW112647   3.402   3.435   5.009  0.1517 -1.7625  0.3513
 4109SOL    HW212648   3.241   3.463   5.015  0.5053  0.4541  0.3282
 4110SOL     OW12649   2.756   0.617   0.741 -0.2832 -0.5898 -0.0824
 4110SOL    HW112650   2.730   0.676   0.665  0.1851 -0.4248 -0.1177
 4110SOL    HW212651   2.749   0.521   0.713 -1.3022 -0.5683  0.0587
 4111SOL     OW12652   0.051   3.262   2.425  0.1131  0.1240 -0.0509
 4111SOL    HW112653  -0.020   3.296   2.363 -0.5239 -0.9733  0.0413
 4111SOL    HW212654   0.137   3.307   2.406 -0.1293 -0.0005 -1.5704
 4112SOL     OW12655   1.365   4.201   0.651  0.1859  0.0422  0.3050
 4112SOL    HW112656   1.269   4.189   0.677  0.4220 -0.9508  0.7703
 4112SOL    HW212657   1.387   4.299   0.648 -0.7488  0.2692  0.5045
 4113SOL     OW12658   1.988   1.266   0.580  0.3523  0.4880  0.5094
 4113SOL    HW112659   1.924   1.217   0.639  1.2929 -0.1723  1.0148
 4113SOL    HW212660   1.938   1.317   0.510 -0.7221  0.2157  1.0631
 4114SOL     OW12661   5.135   0.162   0.137  0.0289  0.4917 -0.0899
 4114SOL    HW112662   5.116   0.199   0.228 -0.2468 -1.3061  0.6278
 4114SOL    HW212663   5.154   0.064   0.145  1.1748  0.5325 -1.8394
 4115SOL     OW12664   5.046   1.509   0.626  0.4031  0.0592  0.0849
 4115SOL    HW112665   5.010   1.418   0.646  0.0324  0.3885  0.9734
 4115SOL    HW212666   5.145   1.505   0.612  0.4635 -0.3998  0.6377
 4116SOL     OW12667   5.105   0.739   2.627  0.3961 -0.3017  0.1824
 4116SOL    HW112668   5.085   0.801   2.551  0.7699 -1.6039 -1.0227
 4116SOL    HW212669   5.023   0.687   2.649  0.0735  0.6077  1.2170
 4117SOL     OW12670   5.111   5.244   0.687  0.2691 -0.0600 -0.4151
 4117SOL    HW112671   5.137   5.156   0.728  0.1067 -1.3311 -2.8418
 4117SOL    HW212672   5.194   5.296   0.667  0.3924  0.1528  0.5745
 4118SOL     OW12673   4.907   1.807   3.691  0.3106  0.4388  0.4330
 4118SOL    HW112674   4.960   1.773   3.768 -0.8306  0.4481  1.2449
 4118SOL    HW212675   4.810   1.794   3.709 -0.1635  3.4460  0.4809
 4119SOL     OW12676   0.988   3.244   2.443 -0.1237 -1.0433  0.2721
 4119SOL    HW112677   0.942   3.200   2.366 -0.4749 -0.9686  0.4368
 4119SOL    HW212678   0.920   3.280   2.506  0.1644 -0.7523  0.4180
 4120SOL     OW12679   4.716   0.100   4.736  0.0548  0.3145  0.2720
 4120SOL    HW112680   4.765   0.182   4.765 -1.8550  1.1693  1.3194
 4120SOL    HW212681   4.646   0.077   4.805  0.0653 -1.7861 -0.3464
 4121SOL     OW12682   5.295   3.845   2.803  0.0409 -0.2591  0.1223
 4121SOL    HW112683   5.215   3.815   2.751  0.0819  0.3307 -0.3042
 4121SOL    HW212684   5.274   3.933   2.846  0.4374 -0.1366  0.0617
 4122SOL     OW12685   4.387   5.001   0.865  0.3434 -0.3274  0.4497
 4122SOL    HW112686   4.305   5.009   0.807 -0.2827 -1.5621  1.1140
 4122SOL    HW212687   4.391   5.078   0.928  0.3641  0.3905 -0.4149
 4123SOL     OW12688   0.978   3.773   0.637  0.4205  0.2177 -0.4648
 4123SOL    HW112689   1.000   3.744   0.544  0.3467 -1.1286 -0.0763
 4123SOL    HW212690   0.908   3.712   0.676  0.8756  0.4045  0.6781
 4124SOL     OW12691   3.708   4.288   4.548 -0.4103  0.1839  0.2239
 4124SOL    HW112692   3.691   4.379   4.587 -0.6946  0.3157 -0.2052
 4124SOL    HW212693   3.710   4.220   4.621  0.9774  0.6932  0.6895
 4125SOL     OW12694   5.047   1.666   3.917  0.2116 -0.3914 -0.3006
 4125SOL    HW112695   5.062   1.568   3.909  0.8375 -0.2377 -1.1293
 4125SOL    HW212696   5.134   1.712   3.935  0.0120  0.0738 -0.4969
 4126SOL     OW12697   0.313   3.558   2.990 -0.3530  0.0704  0.5108
 4126SOL    HW112698   0.255   3.576   3.070  1.5035 -0.5687  2.0832
 4126SOL    HW212699   0.352   3.645   2.958 -1.5478  0.4027 -0.0768
 4127SOL     OW12700   2.393   3.691   4.488  0.4549  0.0630  0.5457
 4127SOL    HW112701   2.446   3.744   4.422 -0.3216 -0.2912 -0.3893
 4127SOL    HW212702   2.395   3.737   4.577  0.8085  0.9999  0.0676
 4128SOL     OW12703   4.987   4.424   3.778 -0.2108  0.0931 -0.0371
 4128SOL    HW112704   5.068   4.438   3.834 -1.0269 -2.0465  1.8456
 4128SOL    HW212705   4.924   4.500   3.790  1.0756  1.3545 -0.8575
 4129SOL     OW12706   2.778   2.039   4.049  0.0589  0.2091  0.1117
 4129SOL    HW112707   2.865   2.041   4.000  0.4829 -0.3688  0.8201
 4129SOL    HW212708   2.706   2.011   3.986  0.6627 -0.9352 -0.0932
 4130SOL     OW12709   4.869   2.047   3.590 -0.1649  1.1354  0.3244
 4130SOL    HW112710   4.860   1.948   3.599 -0.6677  1.2074  0.6313
 4130SOL    HW212711   4.858   2.073   3.494  0.7908  0.8163  0.1145
 4131SOL     OW12712   1.640   0.378   1.298 -0.6650 -0.0470 -0.0534
 4131SOL    HW112713   1.641   0.415   1.391  0.0012 -1.2497  0.4370
 4131SOL    HW212714   1.556   0.406   1.252 -0.5121  1.4699  0.5230
 4132SOL     OW12715   0.404   2.801   4.763 -0.1824 -0.0419  0.0166
 4132SOL    HW112716   0.377   2.887   4.806  3.1792  0.5373  1.3116
 4132SOL    HW212717   0.437   2.738   4.834 -0.3057 -1.4750 -1.1613
 4133SOL     OW12718   1.412   3.704   3.529  0.2951  0.2939  0.0659
 4133SOL    HW112719   1.461   3.764   3.466  0.1948  0.5433  0.2245
 4133SOL    HW212720   1.407   3.612   3.491  2.3066 -0.1505  0.7408
 4134SOL     OW12721   0.787   0.459   1.750  0.1275 -0.0316 -0.2092
 4134SOL    HW112722   0.871   0.511   1.761 -1.0688  2.5913 -2.2800
 4134SOL    HW212723   0.735   0.458   1.836  1.7339 -0.8021  0.7875
 4135SOL     OW12724   0.478   4.550   4.389  0.2917 -1.0561 -0.0781
 4135SOL    HW112725   0.385   4.516   4.374 -0.0069  0.0147 -0.7853
 4135SOL    HW212726   0.474   4.645   4.418  1.2113 -0.1642 -2.5869
 4136SOL     OW12727   1.691   3.945   0.829  0.2985 -0.0811  0.3293
 4136SOL    HW112728   1.645   3.966   0.743  1.2910 -1.1298 -0.4933
 4136SOL    HW212729   1.628   3.897   0.889 -0.6952  1.4686  0.5959
 4137SOL     OW12730   0.100   4.541   2.841 -0.2647  0.7457  0.0105
 4137SOL    HW112731   0.149   4.454   2.849 -0.7530  0.5048  0.4332
 4137SOL    HW212732   0.140   4.595   2.767 -2.1597 -1.2926 -2.7052
 4138SOL     OW12733   4.001   1.316   5.062 -0.1104  0.1116 -0.2496
 4138SOL    HW112734   4.000   1.292   4.965  1.2333 -1.8740  0.1712
 4138SOL    HW212735   3.984   1.415   5.072 -1.5835  0.1438 -2.3778
 4139SOL     OW12736   2.342   2.383   1.307 -0.6302  0.7183  0.4273
 4139SOL    HW112737   2.315   2.478   1.321  2.8154  2.0672 -0.8482
 4139SOL    HW212738   2.400   2.353   1.383  0.6035  0.6695 -0.4976
 4140SOL     OW12739   1.573   0.420   0.792 -0.1273 -0.1414  0.3430
 4140SOL    HW112740   1.619   0.456   0.873  0.6328  0.1216 -0.1885
 4140SOL    HW212741   1.616   0.458   0.710 -1.3112  0.1048 -0.1788
 4141SOL     OW12742   4.511   2.547   4.811  0.5457 -0.1314  1.1382
 4141SOL    HW112743   4.579   2.501   4.868  0.3812  0.0832  1.5117
 4141SOL    HW212744   4.434   2.485   4.794 -1.4168  1.0653  4.6398
 4142SOL     OW12745   4.935   1.030   1.293 -0.5530  0.2329 -0.1599
 4142SOL    HW112746   4.938   0.934   1.321 -1.1798  0.4503  0.6874
 4142SOL    HW212747   4.955   1.088   1.372  0.6134  0.7943 -0.8375
 4143SOL     OW12748   4.768   3.085   2.452  0.0797  0.2301  0.3266
 4143SOL    HW112749   4.861   3.106   2.422  0.3614 -0.6075  0.5665
 4143SOL    HW212750   4.717   3.043   2.377  0.7278 -1.6992  0.9121
 4144SOL     OW12751   0.940   5.346   4.637  0.2277  0.2817  0.3503
 4144SOL    HW112752   0.979   5.289   4.564  1.1942  0.5405  0.6437
 4144SOL    HW212753   0.996   5.337   4.719  0.2072  1.3833  0.5046
 4145SOL     OW12754   0.358   0.696   1.655  0.6232 -0.5583  0.1175
 4145SOL    HW112755   0.434   0.645   1.615  0.6155 -1.3579  1.0693
 4145SOL    HW212756   0.284   0.704   1.588  1.9738  1.2833 -1.2471
 4146SOL     OW12757   3.782   4.723   5.541  0.4784  0.1824 -0.3655
 4146SOL    HW112758   3.844   4.793   5.577 -0.0491  1.4727 -1.8246
 4146SOL    HW212759   3.832   4.665   5.476  0.5670  0.1497 -0.2682
 4147SOL     OW12760   4.487   1.674   0.478  0.2088 -0.1267  0.4548
 4147SOL    HW112761   4.433   1.596   0.449 -0.2998  0.1470  0.6615
 4147SOL    HW212762   4.559   1.644   0.540 -0.5900 -0.3004  1.3115
 4148SOL     OW12763   0.101   1.607   2.916 -0.5370 -0.4104  0.5854
 4148SOL    HW112764   0.014   1.559   2.905 -0.6174 -0.2292  0.4325
 4148SOL    HW212765   0.157   1.593   2.834  0.7374 -2.8703  1.7473
 4149SOL     OW12766   1.912   4.147   4.790 -0.3537  0.7326  0.0886
 4149SOL    HW112767   1.844   4.220   4.787  0.9984  2.0752  0.5166
 4149SOL    HW212768   1.929   4.121   4.886  0.5872  1.2739  0.0808
 4150SOL     OW12769   5.015   3.317   0.865  0.3363 -0.5430  0.0488
 4150SOL    HW112770   5.059   3.406   0.861 -0.9929  0.1011 -3.1057
 4150SOL    HW212771   4.938   3.321   0.928  0.3334  0.5223 -0.0086
 4151SOL     OW12772   4.296   0.312   2.893 -0.2792 -0.5101 -0.5085
 4151SOL    HW112773   4.279   0.243   2.963  1.0876  0.0126  0.3760
 4151SOL    HW212774   4.301   0.268   2.803 -0.6151 -1.3899 -0.1062
 4152SOL     OW12775   2.094   4.436   4.302 -0.0995 -0.4929  0.0904
 4152SOL    HW112776   2.156   4.514   4.310 -2.2331  1.2222  1.2097
 4152SOL    HW212777   2.066   4.425   4.207 -0.0631  0.3723 -0.0303
 4153SOL     OW12778   1.132   1.267   2.279  0.2063  0.1361  0.0075
 4153SOL    HW112779   1.118   1.228   2.370 -0.0370  0.2599  0.0233
 4153SOL    HW212780   1.138   1.367   2.286 -0.1623  0.1682 -0.1562
 4154SOL     OW12781   3.551   5.046   1.977  0.3425 -0.0102  0.4363
 4154SOL    HW112782   3.474   5.062   1.915 -1.2328  1.0311  2.5171
 4154SOL    HW212783   3.588   5.134   2.008  1.7719 -0.5048  0.1986
 4155SOL     OW12784   0.937   1.234   5.377 -0.4923 -0.1136 -0.0181
 4155SOL    HW112785   0.969   1.142   5.402 -0.4991 -0.2192 -0.3951
 4155SOL    HW212786   0.918   1.286   5.461 -2.5049 -1.1513  0.2428
 4156SOL     OW12787   2.156   0.242   4.781 -0.5741 -0.0838 -0.5452
 4156SOL    HW112788   2.159   0.143   4.784  0.8160 -0.0740 -0.8289
 4156SOL    HW212789   2.202   0.280   4.861  2.5541  0.2639 -2.3235
 4157SOL     OW12790   4.056   3.115   3.052 -0.3842 -0.0694 -0.0582
 4157SOL    HW112791   3.993   3.126   3.129 -0.0183 -2.0770  0.5901
 4157SOL    HW212792   4.143   3.079   3.085 -0.0301 -0.4365 -1.3516
 4158SOL     OW12793   0.622   2.201   1.506 -0.4666 -0.5316  0.6443
 4158SOL    HW112794   0.586   2.135   1.572 -1.1505 -0.1685  0.6419
 4158SOL    HW212795   0.702   2.162   1.460  0.1083 -0.7350  1.7811
 4159SOL     OW12796   4.780   1.460   1.278 -0.7388  0.0135  0.6965
 4159SOL    HW112797   4.787   1.477   1.376 -1.3026  1.3309  0.5200
 4159SOL    HW212798   4.844   1.387   1.253 -1.4096 -1.1606  2.2232
 4160SOL     OW12799   5.378   2.603   3.160 -0.4533  0.5828 -0.1937
 4160SOL    HW112800   5.304   2.569   3.102  0.6790  0.2041 -1.4673
 4160SOL    HW212801   5.348   2.686   3.207 -0.8494  1.9920 -2.7716
 4161SOL     OW12802   2.426   4.917   2.285 -0.1300 -0.4385 -0.0795
 4161SOL    HW112803   2.392   4.996   2.337 -0.8311 -0.8715  0.1415
 4161SOL    HW212804   2.348   4.860   2.258  0.2974 -0.5872 -1.0078
 4162SOL     OW12805   4.949   1.919   0.607  0.1068 -0.0630 -0.4842
 4162SOL    HW112806   4.979   1.860   0.682  0.8883  1.3764  0.3640
 4162SOL    HW212807   4.863   1.964   0.632 -0.5321 -0.8687 -1.1644
 4163SOL     OW12808   4.969   5.508   3.008  0.6720 -0.2259  0.3443
 4163SOL    HW112809   5.047   5.465   2.961  0.2905 -1.4002  0.7433
 4163SOL    HW212810   4.946   5.454   3.089  0.2196  0.8042  0.9135
 4164SOL     OW12811   3.813   5.496   5.433  0.1198  0.1265 -0.7413
 4164SOL    HW112812   3.833   5.441   5.514  1.6819  0.7437 -0.6787
 4164SOL    HW212813   3.786   5.436   5.358 -0.6627 -0.5053  0.0139
 4165SOL     OW12814   1.822   5.221   2.205 -0.4584 -0.2187 -0.0895
 4165SOL    HW112815   1.736   5.215   2.255  0.0097 -0.3587  0.7242
 4165SOL    HW212816   1.848   5.317   2.194 -1.2578 -0.1224 -1.3122
 4166SOL     OW12817   5.029   1.416   1.630  0.1983 -0.0311 -0.3868
 4166SOL    HW112818   5.007   1.401   1.726 -0.1660  1.1119 -0.2791
 4166SOL    HW212819   5.104   1.481   1.622  0.4554 -0.3793 -0.8769
 4167SOL     OW12820   4.076   0.524   2.315 -0.3285 -0.1225  0.1725
 4167SOL    HW112821   4.074   0.509   2.414 -0.1925  1.2356  0.3911
 4167SOL    HW212822   4.010   0.462   2.271 -1.5032  0.3182  1.2623
 4168SOL     OW12823   0.038   0.527   5.096  0.0673  0.2159  0.0482
 4168SOL    HW112824   0.122   0.581   5.093  0.1806  0.0460  0.0930
 4168SOL    HW212825   0.056   0.437   5.054  0.8606 -1.1174  2.9984
 4169SOL     OW12826   3.791   4.098   0.489 -0.0663 -0.0864  0.3525
 4169SOL    HW112827   3.791   4.031   0.414  1.6407 -0.6642  0.8173
 4169SOL    HW212828   3.882   4.140   0.496 -0.6945  1.2041  1.0258
 4170SOL     OW12829   2.248   5.091   1.698  0.9585 -0.2253 -0.8073
 4170SOL    HW112830   2.314   5.146   1.750  0.1848  0.8992 -0.9872
 4170SOL    HW212831   2.155   5.115   1.725  0.4399  1.4071 -3.6111
 4171SOL     OW12832   0.130   2.668   0.133 -0.6964 -0.0553  0.2394
 4171SOL    HW112833   0.157   2.588   0.186 -1.5079 -0.0229  0.7207
 4171SOL    HW212834   0.119   2.747   0.194 -0.6496  0.2363 -0.1223
 4172SOL     OW12835   5.169   3.699   5.081  0.0794 -0.1217  0.0835
 4172SOL    HW112836   5.188   3.710   5.179 -0.3366  0.0625  0.1462
 4172SOL    HW212837   5.253   3.672   5.033  0.2807 -0.2264  0.4929
 4173SOL     OW12838   1.221   2.352   2.811 -0.2796  0.3673  0.3301
 4173SOL    HW112839   1.171   2.422   2.862 -1.2302  0.0710 -0.1698
 4173SOL    HW212840   1.255   2.283   2.875  1.0934  1.5207  0.8797
 4174SOL     OW12841   4.859   0.589   0.669  0.8448  0.0045  0.5266
 4174SOL    HW112842   4.835   0.624   0.760  2.2316  0.7637  0.6240
 4174SOL    HW212843   4.917   0.656   0.622  0.9776 -0.8254 -0.5224
 4175SOL     OW12844   0.798   0.289   2.712 -0.3003 -0.0968  0.1830
 4175SOL    HW112845   0.721   0.351   2.698  0.3966  1.0862  1.2711
 4175SOL    HW212846   0.799   0.259   2.808  0.2906 -0.5042  0.0550
 4176SOL     OW12847   2.655   1.642   0.582 -0.4472 -0.3335  0.2813
 4176SOL    HW112848   2.619   1.561   0.628 -1.3976 -0.6687 -1.0000
 4176SOL    HW212849   2.694   1.616   0.494  1.2931  0.3082  0.8245
 4177SOL     OW12850   2.099   5.281   2.007 -0.3252  0.2227  0.6790
 4177SOL    HW112851   2.089   5.183   2.022 -0.7270  0.3870  1.5638
 4177SOL    HW212852   2.136   5.324   2.089  2.6506  0.4347 -0.6604
 4178SOL     OW12853   3.936   2.882   2.468 -0.5904 -0.5060 -0.3577
 4178SOL    HW112854   3.854   2.828   2.489 -0.8212  0.2321  0.7447
 4178SOL    HW212855   3.910   2.976   2.448  0.0513  0.0602  1.3024
 4179SOL     OW12856   4.195   4.468   2.227 -0.0442 -1.0067  0.8319
 4179SOL    HW112857   4.179   4.559   2.189  1.6482 -1.2109 -0.4664
 4179SOL    HW212858   4.140   4.401   2.176  0.7909 -1.0379 -0.0576
 4180SOL     OW12859   2.672   4.037   5.176 -0.2290 -0.0569 -0.3256
 4180SOL    HW112860   2.634   3.948   5.199 -2.1646  0.6717 -0.5244
 4180SOL    HW212861   2.729   4.070   5.252 -0.5857 -0.8701  0.3043
 4181SOL     OW12862   3.071   3.147   5.411  0.1992  0.2973  0.0011
 4181SOL    HW112863   3.088   3.067   5.354 -2.2034 -0.4194  0.1666
 4181SOL    HW212864   3.084   3.231   5.357  1.2751 -0.2308 -0.5909
 4182SOL     OW12865   3.108   0.747   0.447  0.3232 -0.3663  0.1845
 4182SOL    HW112866   3.073   0.821   0.504 -0.5822 -1.0083  0.4779
 4182SOL    HW212867   3.205   0.763   0.429  0.5267  0.0902  1.5227
 4183SOL     OW12868   2.074   0.759   2.613  0.0215 -0.8772  0.8314
 4183SOL    HW112869   2.154   0.794   2.662  0.1431 -1.9087  1.3793
 4183SOL    HW212870   2.037   0.680   2.660 -1.4421 -0.3240  0.6756
 4184SOL     OW12871   0.332   3.967   1.781 -0.4195  0.0641  0.0992
 4184SOL    HW112872   0.333   3.876   1.823 -2.1734 -0.4233 -0.8173
 4184SOL    HW212873   0.243   3.983   1.739  0.0316  2.0248 -0.2024
 4185SOL     OW12874   4.791   3.873   5.432 -0.3414 -0.0681 -0.0896
 4185SOL    HW112875   4.882   3.908   5.453  0.6150 -0.8535 -2.6009
 4185SOL    HW212876   4.797   3.775   5.414 -1.6232 -0.0653 -0.5970
 4186SOL     OW12877   2.319   3.556   3.254  0.3119  0.0251 -0.3689
 4186SOL    HW112878   2.267   3.627   3.205 -1.2092 -0.8980 -0.1474
 4186SOL    HW212879   2.268   3.470   3.253  2.1650 -1.1279 -0.7130
 4187SOL     OW12880   1.700   2.217   4.167  0.0817  0.4173  0.3341
 4187SOL    HW112881   1.617   2.229   4.221  0.3188  1.3401  0.5128
 4187SOL    HW212882   1.683   2.151   4.094 -1.2170  1.5298 -0.4429
 4188SOL     OW12883   1.268   1.675   1.288 -0.4692  0.0776 -0.2046
 4188SOL    HW112884   1.283   1.730   1.370 -1.0291 -0.2174  0.1034
 4188SOL    HW212885   1.176   1.635   1.292 -0.0947 -0.8180 -0.4610
 4189SOL     OW12886   4.748   2.328   4.545 -0.2809 -0.0445  0.1234
 4189SOL    HW112887   4.833   2.322   4.493  0.9940  1.3409  1.9169
 4189SOL    HW212888   4.688   2.251   4.520  0.7986 -0.1859 -2.3198
 4190SOL     OW12889   2.070   4.692   4.041 -0.9064  0.7919 -0.0964
 4190SOL    HW112890   2.015   4.616   4.076  0.3457 -0.2080 -0.2267
 4190SOL    HW212891   2.132   4.659   3.970 -1.4055  2.2424 -1.2718
 4191SOL     OW12892   1.600   0.521   5.359 -0.0616 -0.2463  0.3300
 4191SOL    HW112893   1.561   0.595   5.305  1.5895  0.6447  0.2815
 4191SOL    HW212894   1.559   0.520   5.450 -1.8963 -0.9052 -0.4460
 4192SOL     OW12895   0.962   4.845   2.406  0.0314  0.5222 -0.0391
 4192SOL    HW112896   0.954   4.929   2.460 -0.6319  0.2296  0.3199
 4192SOL    HW212897   1.024   4.862   2.329  0.5026  1.1211  0.4525
 4193SOL     OW12898   0.777   1.803   0.905  0.4806  0.1667  0.2291
 4193SOL    HW112899   0.764   1.734   0.834  0.9844 -0.8393  1.0882
 4193SOL    HW212900   0.775   1.894   0.863  1.4864 -0.4126 -1.1922
 4194SOL     OW12901   4.594   0.613   1.319 -0.1265  0.0477 -0.0459
 4194SOL    HW112902   4.603   0.548   1.394 -1.1388  0.3977  0.3949
 4194SOL    HW212903   4.625   0.570   1.234  2.5293  0.1361  0.7572
 4195SOL     OW12904   0.563   1.768   2.897  0.7606  0.1022 -0.6012
 4195SOL    HW112905   0.541   1.678   2.860  1.2667  0.2869 -1.3697
 4195SOL    HW212906   0.662   1.780   2.899  0.6973  0.6060 -0.4253
 4196SOL     OW12907   4.249   2.803   0.865  0.3129 -0.1368  0.2456
 4196SOL    HW112908   4.248   2.706   0.889 -1.3395 -0.2351 -0.0874
 4196SOL    HW212909   4.186   2.820   0.789  0.2053  1.2664  0.6070
 4197SOL     OW12910   2.987   0.647   1.911 -0.1573 -0.0481  0.4634
 4197SOL    HW112911   2.946   0.738   1.907 -0.5165  0.0352  3.5511
 4197SOL    HW212912   3.016   0.620   1.820  0.0742  3.1887 -0.5515
 4198SOL     OW12913   3.542   0.464   1.518 -0.2024 -0.0522  0.2340
 4198SOL    HW112914   3.582   0.526   1.585  0.8805  0.6818 -1.0529
 4198SOL    HW212915   3.487   0.517   1.452  0.3658 -0.4853 -0.6115
 4199SOL     OW12916   4.788   2.187   4.784  0.1045 -0.1902 -0.4889
 4199SOL    HW112917   4.764   2.240   4.702 -0.3880 -0.5358 -0.5676
 4199SOL    HW212918   4.887   2.171   4.785  0.7963  3.2802  1.0329
 4200SOL     OW12919   4.328   3.459   0.271 -0.0634  0.9279  0.4919
 4200SOL    HW112920   4.258   3.416   0.329 -0.2090  1.7387  0.9334
 4200SOL    HW212921   4.372   3.532   0.322  2.7467 -1.0074  1.0820
 4201SOL     OW12922   0.060   3.968   0.627  0.0305 -0.3548  0.3803
 4201SOL    HW112923   0.081   4.019   0.711 -0.4645  0.4645  0.0216
 4201SOL    HW212924   0.134   3.904   0.608  1.1368  0.8931  0.3431
 4202SOL     OW12925   0.090   3.604   3.160  0.0019 -0.6997  0.2312
 4202SOL    HW112926   0.005   3.637   3.121  0.3866 -0.0955 -0.1210
 4202SOL    HW212927   0.106   3.651   3.248 -1.1744 -2.5088  1.4718
 4203SOL     OW12928   2.249   5.259   0.031  0.2394  0.1552  0.2865
 4203SOL    HW112929   2.306   5.217   0.101  0.8373 -0.3153 -0.4554
 4203SOL    HW212930   2.152   5.242   0.051  0.4589 -1.4599  0.0910
 4204SOL     OW12931   0.218   4.235   5.416 -0.3569 -0.7117  0.6280
 4204SOL    HW112932   0.175   4.320   5.445 -0.2483 -1.8259  4.7268
 4204SOL    HW212933   0.148   4.171   5.384 -0.5152  0.5193 -1.7228
 4205SOL     OW12934   2.673   2.164   0.143 -0.3147 -0.0586  0.0576
 4205SOL    HW112935   2.756   2.195   0.097  0.5467 -1.7265  0.3962
 4205SOL    HW212936   2.639   2.236   0.204  0.6527  0.7977 -0.3927
 4206SOL     OW12937   3.277   2.996   4.301 -0.2890  0.5800  0.1894
 4206SOL    HW112938   3.354   2.999   4.238  0.6190  0.0981  1.2609
 4206SOL    HW212939   3.268   3.085   4.346  0.8434  0.0863  1.4512
 4207SOL     OW12940   2.935   4.057   1.957 -0.3883  0.0477 -0.3276
 4207SOL    HW112941   2.858   4.023   1.903 -0.4973  0.7236 -0.6173
 4207SOL    HW212942   2.964   4.146   1.921 -0.8347  0.7970  1.0792
 4208SOL     OW12943   3.178   0.098   0.741  0.1536 -0.5768 -0.1397
 4208SOL    HW112944   3.189   0.114   0.643  1.9034  0.3361  0.1612
 4208SOL    HW212945   3.092   0.051   0.758 -0.2562 -0.6027 -2.0934
 4209SOL     OW12946   1.452   5.571   4.980 -0.0601 -0.2081 -0.5996
 4209SOL    HW112947   1.385   5.553   4.908  2.3306  0.5313 -3.1716
 4209SOL    HW212948   1.519   5.497   4.982  1.8913  1.4449 -1.6615
 4210SOL     OW12949   1.261   4.598   1.809 -0.2656 -0.2574  0.2570
 4210SOL    HW112950   1.268   4.696   1.829 -1.4820 -0.1960  0.4259
 4210SOL    HW212951   1.194   4.583   1.736 -0.2324 -0.9830  0.3651
 4211SOL     OW12952   1.380   3.316   0.475 -0.4260  0.1520  0.2482
 4211SOL    HW112953   1.425   3.241   0.428 -0.9315  0.8338 -1.3913
 4211SOL    HW212954   1.362   3.390   0.411 -1.5207  0.9614  1.4275
 4212SOL     OW12955   3.126   3.889   5.116 -0.4877 -0.2290 -0.3118
 4212SOL    HW112956   3.155   3.964   5.176 -0.4995 -1.6155  1.5109
 4212SOL    HW212957   3.044   3.918   5.066 -1.1005  0.6412  1.1202
 4213SOL     OW12958   2.852   4.927   4.425  0.4775 -0.1344  0.2760
 4213SOL    HW112959   2.826   4.970   4.339 -2.7036 -1.6970  0.3100
 4213SOL    HW212960   2.897   4.840   4.406  0.2799 -0.2172  0.1840
 4214SOL     OW12961   4.752   0.152   0.809 -0.1685 -0.4275  0.0944
 4214SOL    HW112962   4.833   0.108   0.846 -0.6736 -1.0632  0.4668
 4214SOL    HW212963   4.741   0.242   0.850  0.8540  0.0545 -0.6481
 4215SOL     OW12964   3.340   4.787   1.107  0.1213 -0.1984 -0.2663
 4215SOL    HW112965   3.392   4.719   1.055  2.6197  2.0729 -0.9305
 4215SOL    HW212966   3.364   4.779   1.204  1.8270  0.8336 -0.5666
 4216SOL     OW12967   1.723   4.523   1.994 -0.3550 -0.6871 -0.0568
 4216SOL    HW112968   1.636   4.492   2.034 -0.5472  0.9638  0.9258
 4216SOL    HW212969   1.705   4.595   1.927  0.2508 -0.0417  0.4498
 4217SOL     OW12970   3.611   0.673   3.935 -0.0850  0.2497  0.4999
 4217SOL    HW112971   3.706   0.687   3.964 -0.0842 -0.6441  0.9731
 4217SOL    HW212972   3.549   0.707   4.006 -0.0905 -0.8371  1.0438
 4218SOL     OW12973   1.757   5.237   0.832  0.2903  0.4794  0.5722
 4218SOL    HW112974   1.722   5.180   0.758 -0.8138  2.3238 -0.4157
 4218SOL    HW212975   1.690   5.244   0.905  1.1925 -0.9622  1.5834
 4219SOL     OW12976   0.714   3.260   1.168 -0.1720  0.1246  0.0531
 4219SOL    HW112977   0.742   3.348   1.129  1.3162  0.2067  1.2234
 4219SOL    HW212978   0.731   3.187   1.101 -1.5474  0.7016 -0.9778
 4220SOL     OW12979   1.787   2.711   4.049 -0.1119  0.2469 -0.3274
 4220SOL    HW112980   1.703   2.759   4.074 -0.9161 -1.4131  0.3325
 4220SOL    HW212981   1.862   2.776   4.043 -0.8504  1.4252  1.9061
 4221SOL     OW12982   4.656   4.741   5.091 -0.3006 -0.1216 -0.2065
 4221SOL    HW112983   4.735   4.760   5.032 -0.1232 -0.4892 -0.0958
 4221SOL    HW212984   4.599   4.671   5.048 -0.7712  0.4179 -0.4615
 4222SOL     OW12985   2.655   3.753   0.834  0.0773 -0.2208 -0.0292
 4222SOL    HW112986   2.693   3.822   0.772 -1.3211  0.1534 -0.5189
 4222SOL    HW212987   2.562   3.729   0.804  0.3400 -1.9330  0.4549
 4223SOL     OW12988   2.562   1.826   2.024  0.7222 -0.3948  0.5891
 4223SOL    HW112989   2.659   1.834   2.000  0.3975  1.5314 -0.2894
 4223SOL    HW212990   2.506   1.845   1.943 -0.3915  1.2895  1.6938
 4224SOL     OW12991   4.905   0.259   2.486 -0.0033 -0.0377 -0.6591
 4224SOL    HW112992   4.869   0.300   2.402 -0.8637 -0.1674 -0.3631
 4224SOL    HW212993   4.840   0.192   2.522 -0.1686  0.7948  0.6953
 4225SOL     OW12994   3.350   0.987   4.710 -0.8585 -0.2075  0.2242
 4225SOL    HW112995   3.310   0.927   4.640 -0.3576  0.8976 -1.0637
 4225SOL    HW212996   3.392   0.931   4.781 -3.3271 -1.3839  0.8638
 4226SOL     OW12997   5.382   4.217   1.816 -0.1788  0.3667 -0.5573
 4226SOL    HW112998   5.471   4.214   1.771 -0.1565  2.3235 -0.6998
 4226SOL    HW212999   5.394   4.215   1.915  0.1662  2.2834 -0.5254
 4227SOL     OW13000   1.520   4.084   3.636 -0.0971  0.0865  0.2271
 4227SOL    HW113001   1.614   4.110   3.658 -0.0107  1.4852 -1.5379
 4227SOL    HW213002   1.460   4.110   3.712  0.7121  0.8224  0.6341
 4228SOL     OW13003   4.749   2.326   5.008 -0.0175  0.0148  0.0176
 4228SOL    HW113004   4.741   2.277   4.921  0.3923 -0.9412  0.5010
 4228SOL    HW213005   4.675   2.299   5.068 -0.2224  0.5739  0.0233
 4229SOL     OW13006   4.752   5.473   3.379  0.7376  0.1506 -0.1087
 4229SOL    HW113007   4.830   5.445   3.436  0.9584 -0.1731 -0.5676
 4229SOL    HW213008   4.667   5.455   3.429  0.9695  1.5381  0.8611
 4230SOL     OW13009   1.135   5.397   0.865  0.4406 -0.3566 -0.0211
 4230SOL    HW113010   1.044   5.391   0.823  1.2311  0.5453 -1.9796
 4230SOL    HW213011   1.158   5.492   0.882  1.0943 -0.5717  0.3352
 4231SOL     OW13012   2.426   1.203   4.957 -0.4656 -0.1773  0.1411
 4231SOL    HW113013   2.451   1.201   4.860 -0.6141 -0.9882  0.1075
 4231SOL    HW213014   2.398   1.111   4.985  0.0586 -0.0535  1.0836
 4232SOL     OW13015   1.511   4.387   3.599 -0.5654 -0.1167 -0.2028
 4232SOL    HW113016   1.566   4.441   3.534 -2.3882 -0.5010 -2.1866
 4232SOL    HW213017   1.564   4.307   3.628  0.8957  0.9099  0.0741
 4233SOL     OW13018   0.478   1.998   1.680 -0.3298  0.2313  0.5879
 4233SOL    HW113019   0.464   1.946   1.595  1.5695  0.4706  0.0889
 4233SOL    HW213020   0.408   1.972   1.746 -2.6293  0.8898 -1.4241
 4234SOL     OW13021   5.576   2.136   2.065  0.0497  0.2783  0.4205
 4234SOL    HW113022   5.497   2.180   2.024  0.2490 -0.2478 -0.5636
 4234SOL    HW213023   5.546   2.079   2.142 -0.9618 -2.0576 -1.5550
 4235SOL     OW13024   2.838   1.947   1.682 -0.1467 -0.1155  0.1416
 4235SOL    HW113025   2.921   1.986   1.644 -1.0635 -0.6034 -2.5645
 4235SOL    HW213026   2.759   1.980   1.630 -1.5084 -0.8951  1.6304
 4236SOL     OW13027   3.805   5.254   2.331  0.0284 -0.3211 -0.2399
 4236SOL    HW113028   3.876   5.250   2.261 -0.4298 -1.6657 -0.6563
 4236SOL    HW213029   3.758   5.166   2.336 -2.2160  0.7651 -0.6254
 4237SOL     OW13030   5.214   3.026   0.587  0.1542 -0.1535 -0.0965
 4237SOL    HW113031   5.174   2.936   0.568 -1.7113  0.8982 -1.4061
 4237SOL    HW213032   5.306   3.013   0.625 -1.3425 -2.6942  3.1841
 4238SOL     OW13033   1.428   2.727   2.266 -0.1012  0.1325 -0.0352
 4238SOL    HW113034   1.339   2.717   2.220  0.3956 -1.9768 -0.6735
 4238SOL    HW213035   1.491   2.658   2.230  1.2182  0.3341  1.7664
 4239SOL     OW13036   0.673   5.106   3.605 -0.1567  0.5398 -0.7764
 4239SOL    HW113037   0.616   5.127   3.684  1.2792  1.3021  0.0919
 4239SOL    HW213038   0.722   5.188   3.577  2.5067 -0.6335  0.1572
 4240SOL     OW13039   2.456   1.568   5.324 -0.1302  0.1079  0.3093
 4240SOL    HW113040   2.402   1.623   5.388  0.7553  0.7035  0.5694
 4240SOL    HW213041   2.548   1.608   5.316  0.2682 -0.8786 -0.1205
 4241SOL     OW13042   1.481   4.430   2.079  0.1483  0.1367  0.8444
 4241SOL    HW113043   1.474   4.368   2.157 -0.5436 -0.9204 -0.0379
 4241SOL    HW213044   1.419   4.400   2.007 -0.8917  2.3734  0.7274
 4242SOL     OW13045   0.691   3.142   1.993  0.0616  0.4100 -0.3921
 4242SOL    HW113046   0.756   3.217   1.998  0.0936  0.3277  0.4984
 4242SOL    HW213047   0.638   3.150   1.909  2.2507 -0.3669 -1.9585
 4243SOL     OW13048   1.480   3.787   1.850  0.0282  0.0255 -0.5189
 4243SOL    HW113049   1.519   3.879   1.843  0.4039 -0.2038 -1.7441
 4243SOL    HW213050   1.554   3.720   1.851 -0.1618 -0.2217  2.1193
 4244SOL     OW13051   5.157   1.871   5.091  0.6554  0.1201  0.1929
 4244SOL    HW113052   5.122   1.778   5.103  0.4231  0.3217  1.2164
 4244SOL    HW213053   5.182   1.909   5.180  0.7391  1.0409 -0.2076
 4245SOL     OW13054   3.853   4.756   0.794  0.2406  0.1374 -0.1878
 4245SOL    HW113055   3.842   4.666   0.838 -0.8319  0.3799  0.0530
 4245SOL    HW213056   3.890   4.743   0.702  1.3504 -0.4577  0.3105
 4246SOL     OW13057   1.361   3.717   1.609 -0.1367 -0.4097 -0.5761
 4246SOL    HW113058   1.365   3.800   1.554 -1.1574  1.7321  2.3155
 4246SOL    HW213059   1.404   3.734   1.698 -1.7679 -2.4554  0.6903
 4247SOL     OW13060   4.564   2.976   3.775 -0.1496 -0.3113  0.3957
 4247SOL    HW113061   4.617   2.892   3.785  1.4600  0.8160  1.7390
 4247SOL    HW213062   4.576   3.013   3.683  2.9292  0.8561  1.1727
 4248SOL     OW13063   5.287   4.699   0.289 -0.5751 -0.1851  0.3783
 4248SOL    HW113064   5.316   4.631   0.356 -1.1841 -0.9532 -0.1274
 4248SOL    HW213065   5.189   4.717   0.299 -0.7205 -0.4757 -0.4419
 4249SOL     OW13066   0.402   2.265   4.640  0.7433 -0.7118 -0.1921
 4249SOL    HW113067   0.367   2.253   4.733  0.7614 -2.7201 -0.3875
 4249SOL    HW213068   0.348   2.335   4.593 -0.2886 -0.7787  0.8359
 4250SOL     OW13069   3.536   0.616   0.539  0.3633  0.3417 -0.1242
 4250SOL    HW113070   3.473   0.691   0.558 -1.1135 -1.3913  2.5608
 4250SOL    HW213071   3.569   0.622   0.445 -2.4178  2.3353 -1.0964
 4251SOL     OW13072   3.837   3.875   0.301  0.7645 -0.4601 -0.0285
 4251SOL    HW113073   3.877   3.860   0.211  0.8430 -0.1264 -0.0506
 4251SOL    HW213074   3.772   3.802   0.322 -1.4518  0.9485 -1.5895
 4252SOL     OW13075   3.334   4.870   0.474  0.0424  0.4077  0.0541
 4252SOL    HW113076   3.348   4.796   0.409  1.4714  1.0412 -0.3924
 4252SOL    HW213077   3.416   4.927   0.478 -0.5214  1.1629  1.4200
 4253SOL     OW13078   1.722   3.401   1.046  0.4186  0.4015 -0.0955
 4253SOL    HW113079   1.649   3.407   0.977  0.5086  0.4042 -0.1913
 4253SOL    HW213080   1.700   3.327   1.110  0.4718  0.2089 -0.2947
 4254SOL     OW13081   0.068   4.887   4.981 -0.0628 -0.2558  0.2673
 4254SOL    HW113082   0.082   4.826   5.059  0.4248 -0.5779 -0.0661
 4254SOL    HW213083   0.127   4.967   4.990 -1.4678  0.7342  1.2530
 4255SOL     OW13084   2.750   5.100   0.051 -0.2637 -0.3105  0.2604
 4255SOL    HW113085   2.710   5.157   0.123  0.2059  0.4671 -0.0895
 4255SOL    HW213086   2.845   5.080   0.074 -0.4864 -1.1421  0.4884
 4256SOL     OW13087   4.001  -0.000   3.438  0.5269  0.4338  0.1674
 4256SOL    HW113088   4.067   0.074   3.428  1.2683 -0.1986  0.2713
 4256SOL    HW213089   3.992  -0.047   3.350  1.0139 -0.1306  0.4103
 4257SOL     OW13090   0.664   1.742   4.748  0.1510 -0.3732 -0.6120
 4257SOL    HW113091   0.708   1.688   4.821 -0.7646 -1.5771 -0.9026
 4257SOL    HW213092   0.687   1.702   4.659  0.5435  0.5542 -0.9317
 4258SOL     OW13093   4.631   1.246   1.454  0.2446  0.0344  0.3271
 4258SOL    HW113094   4.650   1.339   1.424  3.1260 -1.3059 -2.7803
 4258SOL    HW213095   4.709   1.211   1.507  0.4589 -1.3534 -0.8224
 4259SOL     OW13096   1.041   4.891   0.408 -0.6072  0.0553  0.2027
 4259SOL    HW113097   1.031   4.809   0.465  1.5252  0.2496  0.9277
 4259SOL    HW213098   1.018   4.972   0.461  1.3473  0.2339  0.8406
 4260SOL     OW13099   0.700   0.258   3.865  0.0745  0.1274  0.2545
 4260SOL    HW113100   0.768   0.282   3.794  0.5390  0.5454  0.8303
 4260SOL    HW213101   0.643   0.183   3.832  1.4606 -0.9060  0.1291
 4261SOL     OW13102   0.063   2.696   3.083 -0.4470 -0.2944 -0.3730
 4261SOL    HW113103  -0.024   2.656   3.111 -0.5683 -0.5064 -1.0485
 4261SOL    HW213104   0.054   2.796   3.080 -0.2530 -0.2207  0.9330
 4262SOL     OW13105   4.954   4.735   0.229 -0.0127 -0.0485 -0.5475
 4262SOL    HW113106   4.924   4.653   0.279  2.8514  0.3902  2.1874
 4262SOL    HW213107   4.956   4.715   0.131  1.5377 -3.6660  0.0605
 4263SOL     OW13108   4.633   0.974   2.882  0.4469 -0.5162 -0.0432
 4263SOL    HW113109   4.662   1.020   2.798 -1.4895 -0.4953 -0.7584
 4263SOL    HW213110   4.656   0.877   2.876  3.0444 -0.0263  0.7587
 4264SOL     OW13111   3.969   4.522   1.411  0.3315 -0.1874 -0.3078
 4264SOL    HW113112   3.905   4.527   1.487  1.3741 -1.0933  0.6789
 4264SOL    HW213113   3.951   4.596   1.346 -0.5318  0.6473  0.8551
 4265SOL     OW13114   0.518   0.481   1.109 -0.3335  0.0517 -0.1741
 4265SOL    HW113115   0.462   0.418   1.055 -0.0913 -0.4487  0.1533
 4265SOL    HW213116   0.463   0.521   1.182  0.0568 -1.5295  1.0495
 4266SOL     OW13117   4.781   3.107   0.264  0.3035 -0.3926 -0.5094
 4266SOL    HW113118   4.750   3.132   0.173  0.8034  0.4268 -0.4657
 4266SOL    HW213119   4.881   3.115   0.268  0.2909 -0.5031  0.0870
 4267SOL     OW13120   3.982   4.372   5.489  0.4677  0.7235  0.0443
 4267SOL    HW113121   3.950   4.435   5.418  1.1302  0.6014 -0.3798
 4267SOL    HW213122   3.910   4.358   5.556  0.3250  1.9936  0.1901
 4268SOL     OW13123   4.464   5.526   2.346 -0.0200  0.0384 -0.1338
 4268SOL    HW113124   4.472   5.451   2.281 -0.8354 -0.5423  0.4271
 4268SOL    HW213125   4.505   5.500   2.433 -2.1311 -0.5777  0.7334
 4269SOL     OW13126   2.197   3.420   1.293  0.4465 -0.1480 -0.4507
 4269SOL    HW113127   2.296   3.424   1.277  0.3021 -1.3546 -1.7618
 4269SOL    HW213128   2.155   3.505   1.261  0.8111 -0.4706 -1.8326
 4270SOL     OW13129   0.235   1.522   2.655  0.5911 -0.1065  0.2393
 4270SOL    HW113130   0.258   1.501   2.560 -0.5342 -2.9468  0.5143
 4270SOL    HW213131   0.314   1.501   2.713  0.4551 -0.7799  0.1871
 4271SOL     OW13132   3.447   3.914   4.382  0.4184 -0.1311  0.3984
 4271SOL    HW113133   3.377   3.983   4.369  0.7058  0.0809 -0.0570
 4271SOL    HW213134   3.417   3.828   4.342  0.9859  0.3225 -1.0725
 4272SOL     OW13135   3.007   3.542   4.597  0.3096  0.2766 -0.1737
 4272SOL    HW113136   3.060   3.457   4.605  1.5863  1.0050 -0.5702
 4272SOL    HW213137   3.025   3.600   4.676  1.7421  1.3823 -1.2453
 4273SOL     OW13138   0.417   1.977   5.076 -0.2615 -0.3559  0.2349
 4273SOL    HW113139   0.374   2.058   5.035  0.5486 -0.0022  0.0462
 4273SOL    HW213140   0.515   1.995   5.088 -0.1071 -1.2499  0.3595
 4274SOL     OW13141   3.480   3.743   3.025  0.1178  0.2580  0.2198
 4274SOL    HW113142   3.524   3.826   2.990 -1.5630  0.9856 -0.2894
 4274SOL    HW213143   3.447   3.760   3.118 -0.5750  0.3036 -0.0303
 4275SOL     OW13144   2.222   3.403   3.773  0.2153 -0.1109  0.4196
 4275SOL    HW113145   2.158   3.364   3.840 -1.3884 -2.3454 -2.1982
 4275SOL    HW213146   2.282   3.330   3.739  1.4547  1.1184 -0.1134
 4276SOL     OW13147   0.054   4.484   0.265  0.1097 -0.4366 -0.5405
 4276SOL    HW113148  -0.012   4.437   0.206 -1.4859  0.7281  0.2363
 4276SOL    HW213149   0.094   4.561   0.215 -0.0081 -0.4337 -0.6315
 4277SOL     OW13150   2.577   2.978   3.750  0.1834  0.4573  0.0250
 4277SOL    HW113151   2.591   2.882   3.774  0.9124  0.5638  0.0463
 4277SOL    HW213152   2.636   3.003   3.674 -0.1867  0.8269 -0.1465
 4278SOL     OW13153   2.622   2.725   4.873 -0.1491  0.5581  0.1682
 4278SOL    HW113154   2.545   2.692   4.820 -0.2074  1.6620 -0.4710
 4278SOL    HW213155   2.647   2.657   4.943 -0.7295 -0.4539 -0.5872
 4279SOL     OW13156   3.368   3.014   0.366 -0.6010  0.5737 -0.1683
 4279SOL    HW113157   3.336   3.085   0.429  1.3161  1.1566  0.1916
 4279SOL    HW213158   3.396   3.055   0.280 -1.0655  0.0399 -0.5835
 4280SOL     OW13159   4.896   5.212   4.649  0.4760 -0.1280 -0.0671
 4280SOL    HW113160   4.957   5.166   4.584 -0.3616 -1.7363  0.2121
 4280SOL    HW213161   4.896   5.310   4.632  1.2265 -0.3761 -1.6816
 4281SOL     OW13162   5.150   3.199   2.284  0.3941 -0.2715 -0.3917
 4281SOL    HW113163   5.191   3.280   2.243  2.3982 -1.2247 -0.3946
 4281SOL    HW213164   5.102   3.146   2.214  2.2849 -0.9754 -1.2051
 4282SOL     OW13165   0.531   0.174   4.642  0.2154 -0.1427  0.2047
 4282SOL    HW113166   0.439   0.140   4.623  0.3498  0.2529 -1.2670
 4282SOL    HW213167   0.526   0.267   4.678  0.0674  0.1887 -0.6611
 4283SOL     OW13168   3.069   2.048   2.989 -0.0160  0.4023  0.1610
 4283SOL    HW113169   3.072   2.141   3.024  1.3638  0.9024 -1.2032
 4283SOL    HW213170   2.985   2.003   3.022 -1.4937  2.5923 -0.3717
 4284SOL     OW13171   1.133   3.889   2.186 -0.2946 -0.5950  0.2916
 4284SOL    HW113172   1.225   3.882   2.225 -0.3260  3.4349  1.4551
 4284SOL    HW213173   1.065   3.877   2.259 -0.5947 -0.2404  0.0708
 4285SOL     OW13174   1.917   2.302   3.179 -0.2708 -0.0541  0.1008
 4285SOL    HW113175   1.959   2.391   3.197  0.7546 -0.2916 -0.9913
 4285SOL    HW213176   1.968   2.231   3.227 -0.1354 -0.2157 -0.2777
 4286SOL     OW13177   2.377   3.435   2.763 -0.0742  0.1883  0.2727
 4286SOL    HW113178   2.352   3.374   2.688  0.3379  0.9576 -0.5075
 4286SOL    HW213179   2.389   3.382   2.847 -0.5513 -0.6827 -0.2025
 4287SOL     OW13180   3.048   0.018   3.215 -0.0181 -0.0305  0.9308
 4287SOL    HW113181   3.011   0.071   3.291 -0.6572  0.9798 -0.0491
 4287SOL    HW213182   3.099   0.078   3.154 -0.0258 -0.7071  0.2377
 4288SOL     OW13183   0.933   0.147   5.440 -0.0070 -0.3667  0.4136
 4288SOL    HW113184   0.887   0.231   5.468 -0.7903 -1.3751  2.3188
 4288SOL    HW213185   0.960   0.154   5.344  0.5192  2.2758  0.6865
 4289SOL     OW13186   1.451   2.591   2.561  0.0296  0.4694 -0.0869
 4289SOL    HW113187   1.449   2.615   2.658  0.0185 -0.1294  0.0670
 4289SOL    HW213188   1.398   2.658   2.509 -0.8238  0.2326  0.4531
 4290SOL     OW13189   4.177   2.290   0.303 -0.0604  0.0968 -0.3814
 4290SOL    HW113190   4.130   2.369   0.264  0.3955  1.4570  1.6676
 4290SOL    HW213191   4.131   2.206   0.274 -0.1579  1.0186 -3.1769
 4291SOL     OW13192   2.378   5.403   2.283  0.0597 -0.3387 -0.3849
 4291SOL    HW113193   2.406   5.475   2.347 -0.5251 -0.7143  0.3071
 4291SOL    HW213194   2.427   5.415   2.197  0.4102  0.5374 -0.0805
 4292SOL     OW13195   0.111   5.336   3.177 -0.1092  0.1683  0.2210
 4292SOL    HW113196   0.174   5.405   3.213  0.2024  0.1603 -0.2988
 4292SOL    HW213197   0.110   5.257   3.237  0.3984  0.1608  0.2227
 4293SOL     OW13198   4.911   0.376   4.070  0.2969  0.3070 -0.5758
 4293SOL    HW113199   4.820   0.413   4.051 -0.5032 -1.4445 -0.3888
 4293SOL    HW213200   4.971   0.393   3.992 -0.4842  0.5935 -1.1208
 4294SOL     OW13201   2.536   1.038   1.800 -0.1653 -0.9198  0.2748
 4294SOL    HW113202   2.619   1.075   1.757  0.0226 -0.3904  1.0884
 4294SOL    HW213203   2.481   1.113   1.837 -0.5235 -1.3427  0.6029
 4295SOL     OW13204   2.865   1.037   1.225  0.3744  0.1924  0.3318
 4295SOL    HW113205   2.888   1.033   1.128 -0.7077 -2.0689  0.1221
 4295SOL    HW213206   2.820   1.124   1.245  0.8036  0.7794 -1.1136
 4296SOL     OW13207   2.589   5.032   0.852  1.1182 -0.8532  0.0790
 4296SOL    HW113208   2.513   4.968   0.842  0.9756 -0.5628 -0.8297
 4296SOL    HW213209   2.642   5.009   0.933 -1.0282  0.1206  1.8418
 4297SOL     OW13210   4.277   0.367   5.349 -0.2735  0.0687 -0.0834
 4297SOL    HW113211   4.331   0.420   5.284 -1.4900  2.4634  0.7324
 4297SOL    HW213212   4.325   0.362   5.437 -1.2036  2.1546  0.6264
 4298SOL     OW13213   4.556   2.589   1.936 -0.4234 -0.0326  0.0596
 4298SOL    HW113214   4.633   2.525   1.935  0.1704  0.6929 -0.7331
 4298SOL    HW213215   4.491   2.564   1.864 -0.5327 -0.1524  0.1987
 4299SOL     OW13216   3.318   2.765   3.702  0.2588  0.3569  0.3500
 4299SOL    HW113217   3.320   2.702   3.624  0.4143  1.2062 -0.3437
 4299SOL    HW213218   3.410   2.774   3.740  0.0261 -0.7543  1.2136
 4300SOL     OW13219   3.899   1.660   4.680 -0.1329  0.2134  0.1585
 4300SOL    HW113220   3.951   1.584   4.643  0.3666  0.7371 -0.2382
 4300SOL    HW213221   3.804   1.655   4.649  0.0050  0.0010 -0.2309
 4301SOL     OW13222   2.934   4.424   4.578  0.5831 -0.1060  0.2289
 4301SOL    HW113223   2.949   4.519   4.603  0.2413 -0.2488  0.9860
 4301SOL    HW213224   3.021   4.382   4.552  0.6734  0.5205 -0.5197
 4302SOL     OW13225   2.403   1.218   1.977  0.2815 -0.3408  0.2785
 4302SOL    HW113226   2.445   1.273   2.049 -1.1652  1.4589 -0.1748
 4302SOL    HW213227   2.304   1.224   1.984  0.1016 -0.8176 -1.3467
 4303SOL     OW13228   2.376   4.552   4.135 -0.0597  0.0795  0.1750
 4303SOL    HW113229   2.383   4.458   4.102  0.7687  0.3259 -0.3819
 4303SOL    HW213230   2.467   4.591   4.143 -0.4323  1.0952 -0.3675
 4304SOL     OW13231   0.429   4.773   1.030  0.2149 -0.0324 -0.1146
 4304SOL    HW113232   0.505   4.830   0.999  1.7805 -0.8899  1.8828
 4304SOL    HW213233   0.343   4.824   1.019  1.2677  1.7302 -0.6772
 4305SOL     OW13234   1.360   3.867   4.986 -0.1307 -0.4985  0.3903
 4305SOL    HW113235   1.293   3.802   5.023 -2.0229  0.4842 -1.1498
 4305SOL    HW213236   1.318   3.956   4.976  1.2734  0.0379 -1.1253
 4306SOL     OW13237   3.186   1.100   4.344 -0.4016  0.1561 -0.4890
 4306SOL    HW113238   3.222   1.127   4.433 -0.7876 -2.2460  0.4416
 4306SOL    HW213239   3.094   1.139   4.332 -0.2331  0.7309  0.0055
 4307SOL     OW13240   4.258   2.970   3.223 -0.2976  0.3195  0.1988
 4307SOL    HW113241   4.306   2.914   3.291 -1.1540 -1.0180 -0.2489
 4307SOL    HW213242   4.284   3.066   3.234  3.3759 -0.4027 -0.7498
 4308SOL     OW13243   0.464   2.040   2.466 -0.5178  0.7180 -0.2145
 4308SOL    HW113244   0.491   2.136   2.465  0.4140  0.4863  0.6108
 4308SOL    HW213245   0.482   2.002   2.557 -0.5193 -0.3294 -0.6415
 4309SOL     OW13246   1.770   4.393   4.728  0.4502 -0.7002  0.0180
 4309SOL    HW113247   1.709   4.370   4.652 -0.7381 -2.9202  1.5286
 4309SOL    HW213248   1.802   4.487   4.717  0.3254 -0.9052 -3.1755
 4310SOL     OW13249   1.750   4.549   0.665  0.6548 -0.4642 -0.6755
 4310SOL    HW113250   1.790   4.463   0.699  2.8344  0.1797 -1.4014
 4310SOL    HW213251   1.651   4.542   0.666  0.5451 -1.3053  3.6684
 4311SOL     OW13252   2.047   0.568   2.201 -0.2786 -0.2889 -0.2566
 4311SOL    HW113253   2.143   0.548   2.184  0.1876 -1.5857  3.1624
 4311SOL    HW213254   1.993   0.539   2.122  2.1481  1.5862 -2.7774
 4312SOL     OW13255   3.124   1.932   5.232 -0.0918  0.0475 -0.1452
 4312SOL    HW113256   3.102   1.838   5.260 -1.0461  0.5717  0.9456
 4312SOL    HW213257   3.045   1.973   5.188  0.3617  0.3144 -0.7254
 4313SOL     OW13258   4.821   3.585   4.505  0.1197  0.0786  0.0286
 4313SOL    HW113259   4.882   3.664   4.500 -0.6312  0.6486 -0.3456
 4313SOL    HW213260   4.875   3.503   4.523  0.8008  0.8177  1.5947
 4314SOL     OW13261   2.996   0.450   0.848 -0.0033 -0.3703 -0.2462
 4314SOL    HW113262   3.013   0.454   0.750  0.3195 -0.2915 -0.1898
 4314SOL    HW213263   2.998   0.543   0.886  0.6284 -0.4567 -0.0466
 4315SOL     OW13264   4.498   3.269   2.154 -0.0113  0.0100  0.1116
 4315SOL    HW113265   4.476   3.290   2.058  0.3095  1.3439  0.3115
 4315SOL    HW213266   4.428   3.310   2.213 -0.2757 -0.9139  0.4557
 4316SOL     OW13267   0.697   1.753   0.449  0.5178  0.5807  0.1037
 4316SOL    HW113268   0.646   1.678   0.405  2.1980 -0.4476 -0.1814
 4316SOL    HW213269   0.632   1.823   0.480 -0.9828 -0.2151 -1.0587
 4317SOL     OW13270   5.216   4.043   4.243 -0.5623  0.7408  0.2462
 4317SOL    HW113271   5.292   3.983   4.218 -0.4456  0.7745  0.5234
 4317SOL    HW213272   5.219   4.062   4.341 -1.5112 -0.0656  0.4451
 4318SOL     OW13273   4.535   1.330   2.454  0.3580 -0.5463  0.2322
 4318SOL    HW113274   4.606   1.268   2.487  0.0703 -0.1683  1.6283
 4318SOL    HW213275   4.507   1.391   2.529 -2.1304 -1.3429  0.0220
 4319SOL     OW13276   1.594   5.238   2.365  0.3308 -0.1839 -0.0252
 4319SOL    HW113277   1.556   5.146   2.353 -0.3513  0.1188 -0.2268
 4319SOL    HW213278   1.612   5.254   2.462  0.6813 -0.6196 -0.0158
 4320SOL     OW13279   5.212   4.263   0.509  0.7292  0.4206 -0.3859
 4320SOL    HW113280   5.274   4.320   0.563 -2.3447  2.6722  1.0378
 4320SOL    HW213281   5.176   4.315   0.432 -0.5261 -0.3069 -0.3185
 4321SOL     OW13282   0.293   3.131   5.473 -0.6288  0.3663  0.2488
 4321SOL    HW113283   0.306   3.061   5.403 -0.9985 -0.1149  0.6492
 4321SOL    HW213284   0.376   3.139   5.529 -0.8440 -0.2831  0.6676
 4322SOL     OW13285   1.108   5.377   4.881  0.5530  0.7034  0.3812
 4322SOL    HW113286   1.135   5.282   4.892 -0.2565  0.5475  1.1092
 4322SOL    HW213287   1.050   5.405   4.958  0.3385  1.6242 -0.0965
 4323SOL     OW13288   1.846   4.838   2.474  0.1513 -0.1577 -0.2313
 4323SOL    HW113289   1.863   4.936   2.472  1.5690 -0.3767 -2.4134
 4323SOL    HW213290   1.788   4.812   2.396 -3.8986 -0.5856  2.5976
 4324SOL     OW13291   0.678   0.412   3.073 -0.0532 -0.0633 -0.5935
 4324SOL    HW113292   0.631   0.453   3.151  0.1724 -1.1016  0.1129
 4324SOL    HW213293   0.623   0.423   2.991 -1.6504 -1.3937  0.2401
 4325SOL     OW13294   3.774   3.595   5.146 -1.1753  0.3365 -0.4791
 4325SOL    HW113295   3.687   3.636   5.171 -1.3857 -0.2904 -0.1862
 4325SOL    HW213296   3.846   3.665   5.151 -1.4756  0.5928  0.3315
 4326SOL     OW13297   3.766   2.897   0.647 -0.2854 -0.1964  0.0690
 4326SOL    HW113298   3.820   2.813   0.638  0.2752  0.1025  0.5741
 4326SOL    HW213299   3.689   2.881   0.709 -1.3817 -0.9029 -1.3973
 4327SOL     OW13300   1.434   4.531   5.382  0.0080  0.2144 -0.0927
 4327SOL    HW113301   1.364   4.479   5.431 -0.3202  0.9228  0.2057
 4327SOL    HW213302   1.418   4.526   5.284 -0.6025  0.5541 -0.0178
 4328SOL     OW13303   0.790   3.106   0.416 -0.0572 -0.4773 -0.0925
 4328SOL    HW113304   0.727   3.174   0.378 -1.2119 -1.3620  0.1843
 4328SOL    HW213305   0.783   3.106   0.516 -0.2474 -1.1500 -0.0990
 4329SOL     OW13306   3.605   0.284   4.630 -0.1013  0.6354 -0.4446
 4329SOL    HW113307   3.594   0.346   4.553 -1.3304  1.3920  0.2954
 4329SOL    HW213308   3.548   0.203   4.617  0.9439 -0.0257 -1.0680
 4330SOL     OW13309   3.680   4.549   1.082 -0.4841  0.0667 -0.0924
 4330SOL    HW113310   3.613   4.598   1.025 -0.4075 -0.4425 -0.6297
 4330SOL    HW213311   3.634   4.475   1.131 -0.7031  1.0008  1.1357
 4331SOL     OW13312   4.373   5.522   3.366 -0.0610  0.3125 -0.2582
 4331SOL    HW113313   4.288   5.574   3.354 -1.1731 -1.3142  0.1780
 4331SOL    HW213314   4.359   5.452   3.436  1.0779 -1.1938 -1.4841
 4332SOL     OW13315   0.751   0.612   0.140  0.4585  0.0525 -0.0517
 4332SOL    HW113316   0.792   0.649   0.224 -1.0409 -0.1051  0.7859
 4332SOL    HW213317   0.740   0.685   0.073 -1.7296  1.0660  1.2894
 4333SOL     OW13318   3.034   4.951   1.040 -0.4560  0.3678 -0.3662
 4333SOL    HW113319   3.070   4.999   1.120 -0.3842  1.9654 -1.2972
 4333SOL    HW213320   3.057   4.854   1.045  2.8402  1.0366 -0.2383
 4334SOL     OW13321   3.663   1.438   3.314  0.4029  0.6762 -0.1286
 4334SOL    HW113322   3.579   1.434   3.260  0.9032  2.0010 -1.0659
 4334SOL    HW213323   3.671   1.355   3.369 -1.5582  0.5661  0.0733
 4335SOL     OW13324   2.152   3.972   1.235  0.5911  0.8071 -0.4797
 4335SOL    HW113325   2.106   3.984   1.323 -0.0768  1.7784 -0.9441
 4335SOL    HW213326   2.250   3.961   1.249  0.3769 -0.0065  0.4423
 4336SOL     OW13327   2.669   0.806   5.056 -0.4198 -0.0787  0.4143
 4336SOL    HW113328   2.685   0.894   5.100 -0.7551 -0.2563  0.8965
 4336SOL    HW213329   2.577   0.804   5.017 -0.5255 -0.3220  0.6700
 4337SOL     OW13330   2.601   4.872   2.490 -0.5459  0.2633  0.0151
 4337SOL    HW113331   2.524   4.903   2.433  0.9077 -0.3329 -2.4508
 4337SOL    HW213332   2.647   4.951   2.530 -1.8691  0.6797  0.7833
 4338SOL     OW13333   0.641   4.200   2.737  0.4970  0.1082  0.2981
 4338SOL    HW113334   0.690   4.116   2.759 -0.0541  0.0337  1.2884
 4338SOL    HW213335   0.582   4.225   2.813 -0.8123  0.3404 -0.7659
 4339SOL     OW13336   5.051   5.306   0.018  0.0333  0.6819  0.1962
 4339SOL    HW113337   4.972   5.280   0.074 -0.1660  3.9972  1.6452
 4339SOL    HW213338   5.121   5.235   0.025 -1.1275 -0.3325  2.3771
 4340SOL     OW13339   2.876   3.183   0.054  0.4586  0.0361  0.0325
 4340SOL    HW113340   2.958   3.167  -0.001  0.3524  1.7983 -0.6916
 4340SOL    HW213341   2.889   3.265   0.110 -0.6854  0.1442  0.1541
 4341SOL     OW13342   0.731   2.414   1.907  0.2915 -0.5647 -0.1104
 4341SOL    HW113343   0.774   2.503   1.917 -1.2630  0.0836  1.1887
 4341SOL    HW213344   0.688   2.408   1.817  0.3439  0.0305 -0.1789
 4342SOL     OW13345   3.536   1.678   2.268  0.6654 -0.1390  0.3176
 4342SOL    HW113346   3.549   1.601   2.330 -1.4460 -0.9949 -0.2135
 4342SOL    HW213347   3.457   1.732   2.298  1.0609  0.8064 -0.2952
 4343SOL     OW13348   4.124   5.290   5.004  0.0045  0.3283  0.1334
 4343SOL    HW113349   4.102   5.304   5.100 -1.6487  3.4056 -0.5328
 4343SOL    HW213350   4.205   5.343   4.980  2.2464 -2.7271  0.3057
 4344SOL     OW13351   3.152   3.330   4.699  0.2467  0.3350  0.0088
 4344SOL    HW113352   3.105   3.251   4.739  1.9490 -0.2688  0.9526
 4344SOL    HW213353   3.219   3.365   4.765 -0.3066  2.4557 -0.4854
 4345SOL     OW13354   3.928   1.407   3.912  0.7382 -0.4165  0.0714
 4345SOL    HW113355   3.972   1.493   3.883 -0.7321  0.3758  0.1137
 4345SOL    HW213356   3.932   1.341   3.837 -0.3596  0.5726 -0.8992
 4346SOL     OW13357   3.044   4.604   3.721 -0.2258  0.0464 -0.2845
 4346SOL    HW113358   3.113   4.535   3.704  1.4328  1.7583 -0.7931
 4346SOL    HW213359   3.050   4.635   3.816  1.1410  1.6418 -0.8526
 4347SOL     OW13360   3.988   0.855   3.863 -0.0574 -0.0436 -0.0350
 4347SOL    HW113361   3.956   0.816   3.949  0.3447  1.1705  0.6858
 4347SOL    HW213362   4.078   0.896   3.876 -0.3202  0.8245 -0.8384
 4348SOL     OW13363   2.929   2.021   2.122 -0.1844 -0.4890 -0.1478
 4348SOL    HW113364   3.021   2.021   2.084  0.6174  0.6932  1.6673
 4348SOL    HW213365   2.915   2.104   2.176 -0.9618 -2.3592  2.7562
 4349SOL     OW13366   2.991   5.242   1.522  0.5028  0.0109 -0.0642
 4349SOL    HW113367   2.981   5.157   1.574 -0.4556  0.3971  0.4040
 4349SOL    HW213368   3.018   5.220   1.428 -0.8455 -0.8930 -0.2742
 4350SOL     OW13369   3.994   1.757   3.810  0.4686  0.2341 -0.0878
 4350SOL    HW113370   4.091   1.733   3.810  0.2554 -0.6771 -0.7066
 4350SOL    HW213371   3.966   1.787   3.719  0.3122  1.1290  0.2460
 4351SOL     OW13372   5.175   2.522   3.027  0.4103  0.0073  0.4186
 4351SOL    HW113373   5.141   2.438   2.986 -1.9756  0.4647  1.3201
 4351SOL    HW213374   5.171   2.596   2.960 -1.2950  0.2523  0.7660
 4352SOL     OW13375   5.538   3.256   5.085  0.5709  0.2322  0.6893
 4352SOL    HW113376   5.472   3.318   5.125 -1.5732  0.2460 -2.5314
 4352SOL    HW213377   5.567   3.189   5.154 -2.1244  0.7649  2.4810
 4353SOL     OW13378   1.624   2.999   0.578 -0.0746 -0.1868  0.3071
 4353SOL    HW113379   1.624   3.039   0.669  0.6768 -0.0712  0.2606
 4353SOL    HW213380   1.622   2.899   0.586  0.4521 -0.1895  0.4645
 4354SOL     OW13381   3.430   1.314   3.663  0.3849  0.0597 -0.2876
 4354SOL    HW113382   3.410   1.216   3.659 -3.8119  0.7604 -0.1478
 4354SOL    HW213383   3.427   1.352   3.570 -3.3190  0.8039  0.0099
 4355SOL     OW13384   2.526   3.549   2.551  0.2721  0.3647 -0.1486
 4355SOL    HW113385   2.489   3.542   2.643 -0.8090 -1.5163 -0.6671
 4355SOL    HW213386   2.561   3.641   2.536  1.4238  0.4510  2.4627
 4356SOL     OW13387   2.331   3.002   3.336 -0.1279 -0.7663 -0.1696
 4356SOL    HW113388   2.385   2.925   3.371  1.2959  0.5006  0.5101
 4356SOL    HW213389   2.295   3.055   3.414  0.1571  0.1099 -0.6261
 4357SOL     OW13390   1.807   1.700   3.396 -0.4663  0.2067 -0.2061
 4357SOL    HW113391   1.827   1.646   3.478  1.2263  2.1063  0.7003
 4357SOL    HW213392   1.732   1.657   3.346 -1.4362 -1.1148  2.2178
 4358SOL     OW13393   4.487   1.678   2.174 -0.2598 -0.3381 -0.3184
 4358SOL    HW113394   4.465   1.725   2.089  1.4586  1.2822  0.0735
 4358SOL    HW213395   4.477   1.579   2.160  1.1968 -0.2232 -2.8244
 4359SOL     OW13396   3.649   5.431   4.928  0.5103  0.0650  0.0403
 4359SOL    HW113397   3.600   5.467   5.007 -1.9392 -0.9825 -0.8726
 4359SOL    HW213398   3.724   5.372   4.959  0.5160  0.8205  1.5413
 4360SOL     OW13399   1.034   4.924   1.565 -0.0505 -0.6646 -0.4626
 4360SOL    HW113400   1.133   4.910   1.567 -0.2148 -2.5793  3.1898
 4360SOL    HW213401   0.988   4.842   1.599 -2.5727  1.6560  2.3076
 4361SOL     OW13402   1.834   1.410   0.417 -0.1435  0.0792  0.0094
 4361SOL    HW113403   1.744   1.393   0.457  0.6923 -3.9292  0.5913
 4361SOL    HW213404   1.842   1.362   0.330  1.3672  0.5889 -0.1596
 4362SOL     OW13405   4.456   1.787   0.961 -0.2849  0.3995  0.0384
 4362SOL    HW113406   4.368   1.821   0.929  0.4364  0.8651 -1.5846
 4362SOL    HW213407   4.453   1.688   0.972 -0.8784  0.3616 -0.4652
 4363SOL     OW13408   0.358   4.433   2.027  0.0263 -0.1384 -0.6309
 4363SOL    HW113409   0.258   4.433   2.031  0.0085 -1.2868 -0.9337
 4363SOL    HW213410   0.389   4.372   1.954  0.9680 -0.4731  0.0336
 4364SOL     OW13411   1.131   4.186   3.010  0.4857  0.1212  0.1008
 4364SOL    HW113412   1.031   4.182   3.006  0.5023  0.0362 -0.3882
 4364SOL    HW213413   1.162   4.179   3.105 -0.0231  1.3240  0.3792
 4365SOL     OW13414   0.949   1.266   4.411  0.1404  0.0079 -0.3825
 4365SOL    HW113415   0.988   1.221   4.330 -1.2948 -2.0307 -0.0150
 4365SOL    HW213416   0.862   1.309   4.387 -0.3705 -0.7453  0.0933
 4366SOL     OW13417   4.359   3.354   2.390 -0.0086 -0.2020  0.8399
 4366SOL    HW113418   4.424   3.299   2.442 -0.8387 -1.9757  0.0987
 4366SOL    HW213419   4.266   3.327   2.415 -0.5206 -2.6613 -2.8643
 4367SOL     OW13420   1.061   4.880   4.172  0.3588 -0.1932 -0.3414
 4367SOL    HW113421   1.043   4.978   4.186  1.2776 -0.2536  1.6348
 4367SOL    HW213422   1.002   4.827   4.233 -2.3091 -1.1407 -3.4369
 4368SOL     OW13423   3.276   2.338   1.327 -0.1998  0.2730  0.1838
 4368SOL    HW113424   3.223   2.254   1.338  1.4447 -0.8460 -0.1273
 4368SOL    HW213425   3.215   2.412   1.300 -1.3776 -1.3290 -1.8214
 4369SOL     OW13426   4.046   5.089   3.475 -0.1791  0.3300 -0.1992
 4369SOL    HW113427   4.136   5.115   3.442 -0.8239  1.8763 -0.8590
 4369SOL    HW213428   4.036   4.990   3.473  2.1183 -0.0178  1.5953
 4370SOL     OW13429   3.336   1.367   1.340 -0.3693  0.1498  0.1280
 4370SOL    HW113430   3.301   1.460   1.352 -2.4341 -0.4198 -0.9975
 4370SOL    HW213431   3.303   1.310   1.415 -1.2518 -0.2135 -0.5193
 4371SOL     OW13432   3.983   1.965   3.951 -0.3587  0.1876  0.1069
 4371SOL    HW113433   3.996   1.879   3.902 -0.8915  1.0134 -1.5648
 4371SOL    HW213434   3.889   1.970   3.985 -0.3766  0.1781  0.0593
 4372SOL     OW13435   4.971   0.095   0.539 -0.0137  0.1763  0.1384
 4372SOL    HW113436   4.936   0.015   0.587 -1.1198  0.4211 -0.2310
 4372SOL    HW213437   5.068   0.082   0.520  0.3443 -0.1375  1.9743
 4373SOL     OW13438   3.755   3.376   3.578  0.6568  0.2696 -0.0710
 4373SOL    HW113439   3.704   3.458   3.555 -1.6095 -0.4839  1.8955
 4373SOL    HW213440   3.698   3.295   3.560  1.3210 -0.6376  1.6706
 4374SOL     OW13441   1.379   4.746   2.036  0.1746  0.0415  0.1154
 4374SOL    HW113442   1.459   4.804   2.019 -0.7217  1.1351 -0.4853
 4374SOL    HW213443   1.399   4.652   2.006  1.3599  0.1948  0.3607
 4375SOL     OW13444   3.811   2.025   4.827  0.3889 -0.0571 -0.4357
 4375SOL    HW113445   3.800   2.113   4.781 -1.0032 -0.4367 -0.8638
 4375SOL    HW213446   3.873   1.968   4.772  0.7418  0.3905 -0.5168
 4376SOL     OW13447   3.168   5.015   3.663  0.1940  0.2130  0.3068
 4376SOL    HW113448   3.182   5.093   3.725 -3.1047  1.7779 -0.7040
 4376SOL    HW213449   3.070   4.998   3.652  0.7584 -2.4789 -1.5635
 4377SOL     OW13450   4.801   4.259   2.013 -0.1070 -0.5266 -0.3468
 4377SOL    HW113451   4.756   4.205   2.084 -2.1786  1.3102 -0.1487
 4377SOL    HW213452   4.899   4.268   2.035 -0.2735 -1.7960  1.0771
 4378SOL     OW13453   0.787   0.232   1.565 -0.6259  0.2622 -0.1422
 4378SOL    HW113454   0.692   0.236   1.532 -1.2371 -1.4683  1.2217
 4378SOL    HW213455   0.808   0.315   1.615 -0.7693  1.4782 -1.9864
 4379SOL     OW13456   4.397   5.261   0.637 -0.4273 -0.4175  0.1175
 4379SOL    HW113457   4.482   5.207   0.634 -0.4607 -0.5770  1.3448
 4379SOL    HW213458   4.420   5.357   0.657 -0.5681 -0.6185  1.3269
 4380SOL     OW13459   0.901   3.375   2.658  0.0714  0.0638  0.2406
 4380SOL    HW113460   0.850   3.460   2.644 -1.6465 -0.7334  1.3187
 4380SOL    HW213461   0.850   3.315   2.720  1.7579 -1.3190  0.3674
 4381SOL     OW13462   3.171   5.313   3.547  0.1157  0.6450 -0.0597
 4381SOL    HW113463   3.083   5.307   3.500  0.0598  0.8776  0.0154
 4381SOL    HW213464   3.157   5.305   3.646  0.0904  1.4373  0.0133
 4382SOL     OW13465   5.193   2.097   4.003  0.0302 -0.0078 -0.3687
 4382SOL    HW113466   5.270   2.157   3.982 -0.1734  1.1272  1.7944
 4382SOL    HW213467   5.127   2.100   3.929  0.7978  1.1669 -1.0347
 4383SOL     OW13468   3.777   0.529   1.943 -0.3264 -0.2215 -0.2192
 4383SOL    HW113469   3.678   0.520   1.941 -0.1579 -3.3178 -0.0924
 4383SOL    HW213470   3.816   0.461   2.006  1.9565 -0.4292 -1.7118
 4384SOL     OW13471   1.997   0.751   1.567  0.4464 -0.5140 -0.0802
 4384SOL    HW113472   1.948   0.793   1.491  0.6841  0.6101  0.3712
 4384SOL    HW213473   2.084   0.797   1.580 -0.1056  0.1165  1.6326
 4385SOL     OW13474   5.112   0.438   1.101  0.2174 -0.4039  0.4172
 4385SOL    HW113475   5.108   0.520   1.158 -1.2211 -0.5291  0.5482
 4385SOL    HW213476   5.024   0.390   1.106  0.8056 -1.6030 -0.1802
 4386SOL     OW13477   1.629   4.060   2.547 -0.2377  0.5778 -0.0865
 4386SOL    HW113478   1.538   4.026   2.521 -0.3946  1.1288 -0.2698
 4386SOL    HW213479   1.692   3.983   2.554 -0.6048  0.2373 -0.4362
 4387SOL     OW13480   4.403   4.887   5.103  0.3783  1.0739 -0.3075
 4387SOL    HW113481   4.486   4.833   5.115 -0.4511  0.0769  1.2484
 4387SOL    HW213482   4.360   4.863   5.016  1.1094  0.7537 -0.5861
 4388SOL     OW13483   3.816   5.374   1.787 -0.4285 -0.0712  0.0747
 4388SOL    HW113484   3.821   5.474   1.788 -1.0164 -0.0244 -0.7987
 4388SOL    HW213485   3.772   5.341   1.871  1.0349  0.3103  1.0261
 4389SOL     OW13486   0.951   1.720   2.135 -0.5223 -0.0178 -0.5013
 4389SOL    HW113487   0.867   1.735   2.187 -0.0599 -2.5234  1.1398
 4389SOL    HW213488   0.930   1.676   2.048 -0.8751 -1.2367  0.1950
 4390SOL     OW13489   2.536   1.751   3.507 -0.1393 -0.5091  0.1289
 4390SOL    HW113490   2.609   1.784   3.448 -0.1601 -0.9386 -0.1429
 4390SOL    HW213491   2.451   1.799   3.484  0.0932  0.1162  0.5664
 4391SOL     OW13492   4.613   2.158   3.669 -0.2649 -0.4286  0.4230
 4391SOL    HW113493   4.707   2.138   3.642  0.1952  0.3841  1.3467
 4391SOL    HW213494   4.597   2.127   3.763 -0.5769  0.3907  0.6584
 4392SOL     OW13495   2.393   5.345   4.777 -0.5945  0.1155  0.2602
 4392SOL    HW113496   2.362   5.334   4.682  1.9994  2.4950 -1.0140
 4392SOL    HW213497   2.366   5.266   4.831 -1.9712 -1.4254 -2.5114
 4393SOL     OW13498   5.198   0.922   1.156 -0.8783  0.1154  0.6353
 4393SOL    HW113499   5.282   0.971   1.131 -2.1177  1.3408 -1.3942
 4393SOL    HW213500   5.137   0.983   1.206 -1.4030 -0.1426  0.3179
 4394SOL     OW13501   0.895   4.735   1.719 -0.0055  0.2829  0.3210
 4394SOL    HW113502   0.808   4.686   1.721 -0.2049  0.6216  0.0492
 4394SOL    HW213503   0.880   4.831   1.741  0.1297  0.5829 -0.8410
 4395SOL     OW13504   1.530   0.526   4.777  0.1418 -0.2498  0.1218
 4395SOL    HW113505   1.519   0.439   4.825 -1.9803 -0.6487 -0.9575
 4395SOL    HW213506   1.462   0.591   4.808  0.4865  0.3923 -0.4288
 4396SOL     OW13507   4.296   2.207   0.997 -0.2306 -0.1077 -0.6223
 4396SOL    HW113508   4.196   2.209   1.004 -0.1898 -0.2038  0.0446
 4396SOL    HW213509   4.336   2.233   1.085  0.3307 -1.2778 -0.5162
 4397SOL     OW13510   0.602   5.323   5.431  0.0277  0.0014  0.6909
 4397SOL    HW113511   0.666   5.369   5.493 -1.8138  0.0754  2.6733
 4397SOL    HW213512   0.652   5.287   5.353  2.1130  2.0436  0.9602
 4398SOL     OW13513   3.674   4.170  -0.015  0.3805  0.1496 -0.0432
 4398SOL    HW113514   3.739   4.133   0.051 -0.2618 -0.7737  0.0898
 4398SOL    HW213515   3.605   4.225   0.032 -0.4689 -1.0566  0.1695
 4399SOL     OW13516   0.485   1.985   1.279 -0.1523 -0.3724  0.1188
 4399SOL    HW113517   0.558   2.053   1.287  0.0884 -0.6188  0.0343
 4399SOL    HW213518   0.407   2.026   1.232  0.6489 -0.6491 -1.5552
 4400SOL     OW13519   2.040   2.965   4.923  0.0573 -0.0315 -0.3910
 4400SOL    HW113520   2.124   3.012   4.894  1.3264 -2.0367 -0.1726
 4400SOL    HW213521   1.980   2.954   4.844  0.4865  0.4993 -0.7974
 4401SOL     OW13522   3.629   3.481   0.987 -0.1279  0.3430  0.2108
 4401SOL    HW113523   3.677   3.536   1.055  0.1682 -0.6590  0.8266
 4401SOL    HW213524   3.689   3.463   0.909  0.3469 -0.4997  0.7610
 4402SOL     OW13525   0.766   0.676   4.568 -0.1315  0.6423 -0.4281
 4402SOL    HW113526   0.720   0.652   4.483 -0.9776  0.0805  0.1790
 4402SOL    HW213527   0.848   0.729   4.547 -0.3051  0.4792 -1.5915
 4403SOL     OW13528   0.459   5.481   1.457 -0.2746  0.3034  0.0925
 4403SOL    HW113529   0.509   5.397   1.434 -1.7425 -0.1614 -1.6409
 4403SOL    HW213530   0.501   5.559   1.410 -2.0145 -0.3359 -2.7835
 4404SOL     OW13531   1.310   0.136   1.640  0.2485 -0.4193 -0.2618
 4404SOL    HW113532   1.375   0.138   1.564  0.0506  0.0494 -0.4231
 4404SOL    HW213533   1.242   0.065   1.623  0.6934 -0.8859 -0.1097
 4405SOL     OW13534   2.899   1.917   0.976 -0.3970  0.1198  0.5170
 4405SOL    HW113535   2.983   1.964   0.949 -0.9811  1.0420  0.2486
 4405SOL    HW213536   2.919   1.821   0.994  0.4135 -0.0704 -1.1873
 4406SOL     OW13537   1.699   5.271   3.909 -0.4575  0.1205  0.3353
 4406SOL    HW113538   1.608   5.284   3.870 -1.5786  1.2069  3.0425
 4406SOL    HW213539   1.743   5.360   3.921  1.3840 -0.4463 -1.7314
 4407SOL     OW13540   1.386   1.874   2.687 -0.2859  0.1814  0.3421
 4407SOL    HW113541   1.475   1.916   2.705 -0.1597 -0.2321  0.6679
 4407SOL    HW213542   1.359   1.894   2.592  0.1186  0.3658  0.2632
 4408SOL     OW13543   3.067   1.784   3.753 -0.0918  0.5207  0.1983
 4408SOL    HW113544   3.163   1.764   3.736 -0.0274  0.1541  0.9949
 4408SOL    HW213545   3.042   1.755   3.845 -0.7673  1.3267  0.2824
 4409SOL     OW13546   2.648   2.397   3.770 -0.2340 -0.0899  0.1976
 4409SOL    HW113547   2.553   2.427   3.762 -0.1342  0.2121  0.0988
 4409SOL    HW213548   2.667   2.374   3.865 -0.5689 -0.7234  0.1150
 4410SOL     OW13549   3.612   0.338   0.984  0.3341  0.2877 -0.4856
 4410SOL    HW113550   3.650   0.398   0.913  2.1848 -0.2889 -0.0308
 4410SOL    HW213551   3.539   0.386   1.033  0.8488  1.6700 -1.0351
 4411SOL     OW13552   2.673   5.137   3.273 -0.2595 -0.1017 -0.2964
 4411SOL    HW113553   2.661   5.075   3.196 -2.9321  0.0396 -0.0761
 4411SOL    HW213554   2.637   5.227   3.249  1.8916  0.9043  0.0278
 4412SOL     OW13555   1.738   2.214   0.450 -0.3278  0.0656 -0.5651
 4412SOL    HW113556   1.666   2.152   0.417 -1.0939  1.1347 -0.9674
 4412SOL    HW213557   1.772   2.181   0.538 -1.8566 -0.0640  0.0165
 4413SOL     OW13558   2.188   0.934   3.442  0.5055  0.5239  0.6867
 4413SOL    HW113559   2.260   0.989   3.486  0.1555  0.7393  0.9980
 4413SOL    HW213560   2.158   0.979   3.358 -0.8349  1.6191  1.7003
 4414SOL     OW13561   1.910   2.167   1.706 -0.1758  0.0731  0.2189
 4414SOL    HW113562   1.983   2.218   1.663 -0.9972  1.0981  0.0055
 4414SOL    HW213563   1.890   2.206   1.796  1.5743 -2.0791  1.6635
 4415SOL     OW13564   3.743   2.801   1.479  0.1657 -0.4645 -0.1103
 4415SOL    HW113565   3.815   2.737   1.451  2.2265  1.2464  0.9645
 4415SOL    HW213566   3.741   2.879   1.416 -0.3910 -0.2406  0.1732
 4416SOL     OW13567   3.553   4.319   0.722 -0.5666  0.0590 -0.3388
 4416SOL    HW113568   3.548   4.328   0.821  0.1409 -0.6704 -0.2188
 4416SOL    HW213569   3.604   4.396   0.684 -1.5146  0.7593 -0.2352
 4417SOL     OW13570   4.471   4.520   5.329 -0.3779 -0.5780 -0.3380
 4417SOL    HW113571   4.413   4.599   5.346  0.8695  0.1280  0.8799
 4417SOL    HW213572   4.414   4.438   5.319 -1.6208  0.2565 -0.2994
 4418SOL     OW13573   4.738   0.217   0.453 -0.1033  0.4545  0.3564
 4418SOL    HW113574   4.811   0.168   0.501  1.0841  1.9070  0.1220
 4418SOL    HW213575   4.742   0.197   0.356 -0.1778  0.3399  0.3770
 4419SOL     OW13576   3.915   4.961   4.609 -0.1301  0.1919  0.4649
 4419SOL    HW113577   3.818   4.972   4.590 -0.6804 -3.7238  0.1986
 4419SOL    HW213578   3.968   4.984   4.527 -0.9420  0.7885  0.0951
 4420SOL     OW13579   4.655   0.697   5.220 -0.6956  0.0078  0.5262
 4420SOL    HW113580   4.662   0.796   5.225  2.1048 -0.1434  1.7114
 4420SOL    HW213581   4.716   0.656   5.288  2.5850 -2.5039 -3.4412
 4421SOL     OW13582   5.110   3.561   0.863 -0.0295  0.2295  0.4481
 4421SOL    HW113583   5.042   3.616   0.912 -1.2779 -0.9965  0.1373
 4421SOL    HW213584   5.179   3.622   0.823 -0.9320  1.5103  0.7640
 4422SOL     OW13585   4.605   4.361   2.279 -0.1949  0.4988  0.5419
 4422SOL    HW113586   4.558   4.348   2.366 -2.8998 -1.8691 -1.1120
 4422SOL    HW213587   4.656   4.278   2.256 -1.7479 -0.0153 -1.2950
 4423SOL     OW13588   2.109   4.363   0.585  0.1360 -0.2447  0.2897
 4423SOL    HW113589   2.014   4.351   0.615 -0.0355  2.5514  1.2192
 4423SOL    HW213590   2.112   4.431   0.512  1.3003 -1.7017 -1.0756
 4424SOL     OW13591   0.898   2.249   0.137  0.1600  0.0728 -0.5137
 4424SOL    HW113592   0.884   2.150   0.133  0.0354  0.1066 -1.0031
 4424SOL    HW213593   0.993   2.269   0.160  0.0096 -0.1595  0.3340
 4425SOL     OW13594   3.841   4.290   0.709  0.3253 -0.2803  0.5217
 4425SOL    HW113595   3.898   4.304   0.628  0.0662 -0.2420  0.3453
 4425SOL    HW213596   3.745   4.295   0.684  0.2400  0.4773  0.9543
 4426SOL     OW13597   5.318   4.624   1.602 -0.2905  0.2271 -0.1433
 4426SOL    HW113598   5.261   4.565   1.545  2.2142 -0.4223 -2.1596
 4426SOL    HW213599   5.260   4.692   1.648 -2.6036 -0.0612 -2.4176
 4427SOL     OW13600   2.801   4.314   3.964 -0.1566 -0.0772 -0.1826
 4427SOL    HW113601   2.740   4.243   3.999  0.9146 -0.2890  1.3446
 4427SOL    HW213602   2.811   4.303   3.865 -2.4531 -0.1167 -0.4837
 4428SOL     OW13603   3.279   3.690   1.419 -0.3595  0.1510  0.2383
 4428SOL    HW113604   3.354   3.755   1.405  1.5469 -1.6290  1.6087
 4428SOL    HW213605   3.227   3.680   1.334  0.3189  2.1544 -0.4778
 4429SOL     OW13606   1.957   0.249   1.217  0.5400  0.1957 -0.3156
 4429SOL    HW113607   1.992   0.281   1.129  1.9720 -0.8333 -0.1605
 4429SOL    HW213608   1.864   0.213   1.206 -0.2048  2.1604 -0.9224
 4430SOL     OW13609   5.355   5.291   1.325 -0.2270  0.1993 -0.3202
 4430SOL    HW113610   5.452   5.307   1.309 -0.2172  0.8475  0.3317
 4430SOL    HW213611   5.302   5.362   1.278 -0.3257  0.4706  0.1900
 4431SOL     OW13612   3.159   2.498   3.350  0.1414 -0.4031  0.1658
 4431SOL    HW113613   3.215   2.565   3.398 -1.2039  1.7302 -1.0783
 4431SOL    HW213614   3.187   2.494   3.254 -0.8746 -0.3678 -0.1406
 4432SOL     OW13615   4.656   3.004   3.503 -0.5978 -0.2546  0.1403
 4432SOL    HW113616   4.738   2.956   3.536 -1.6121 -1.5632  0.8733
 4432SOL    HW213617   4.673   3.102   3.502  1.1113 -0.5304 -0.1180
 4433SOL     OW13618   1.641   5.476   1.429 -0.1891 -0.1552 -0.1401
 4433SOL    HW113619   1.711   5.463   1.359 -0.7297 -0.5354 -0.6165
 4433SOL    HW213620   1.558   5.427   1.403 -0.6249  0.2626  0.4347
 4434SOL     OW13621   0.442   3.518   0.473 -0.6919 -0.2574  0.5365
 4434SOL    HW113622   0.351   3.544   0.508 -0.9354 -0.4142  0.0285
 4434SOL    HW213623   0.439   3.513   0.374  0.6385  2.6710  0.2492
 4435SOL     OW13624   5.522   3.003   3.485 -0.1585  0.5225 -0.2183
 4435SOL    HW113625   5.438   2.989   3.433 -1.2303  2.2888  0.9529
 4435SOL    HW213626   5.547   3.100   3.483  1.1362  0.2284  0.5314
 4436SOL     OW13627   0.795   1.938   4.894  0.0522 -0.2815 -0.7852
 4436SOL    HW113628   0.752   1.896   4.814 -0.0982  1.7232 -1.8098
 4436SOL    HW213629   0.864   2.004   4.864  0.1875  0.3147  0.7477
 4437SOL     OW13630   4.809   2.208   3.336  0.6927  0.3118  0.0497
 4437SOL    HW113631   4.832   2.300   3.366 -1.7337  0.7446  0.8488
 4437SOL    HW213632   4.730   2.212   3.274 -1.7573 -1.3318  2.7792
 4438SOL     OW13633   1.876   1.806   1.472 -0.1993  0.1430  0.3015
 4438SOL    HW113634   1.827   1.891   1.453  1.2604  1.3384  1.5931
 4438SOL    HW213635   1.818   1.744   1.525 -1.7056 -0.2273 -1.6618
 4439SOL     OW13636   4.488   4.757   3.156 -0.2717  0.1405 -0.3048
 4439SOL    HW113637   4.443   4.669   3.170 -0.5828  0.0503 -1.6772
 4439SOL    HW213638   4.483   4.811   3.240  1.3046 -1.7261  1.1052
 4440SOL     OW13639   4.018   2.839   3.248  0.4631  0.1170  0.4083
 4440SOL    HW113640   3.974   2.901   3.313  1.1362  0.0282  0.9538
 4440SOL    HW213641   4.112   2.867   3.233  0.3199  0.1311 -0.5373
 4441SOL     OW13642   4.371   2.752   0.123 -0.1957 -0.0892 -0.7781
 4441SOL    HW113643   4.410   2.843   0.134 -0.2337  0.2156 -2.8313
 4441SOL    HW213644   4.419   2.687   0.183  1.5956  0.7907 -1.2022
 4442SOL     OW13645   2.776   2.573   5.354  0.0876  0.1165  0.1871
 4442SOL    HW113646   2.807   2.585   5.448  0.8065 -2.4333  0.3472
 4442SOL    HW213647   2.682   2.537   5.354 -0.1081  0.6086 -0.1090
 4443SOL     OW13648   0.744   0.591   0.964  0.2420 -0.0480 -0.1822
 4443SOL    HW113649   0.754   0.514   0.900 -1.5157  1.3286 -2.2267
 4443SOL    HW213650   0.671   0.571   1.029  1.9568 -1.4008  1.4684
 4444SOL     OW13651   2.550   4.317   0.898  0.2008 -0.1253 -0.6201
 4444SOL    HW113652   2.493   4.306   0.817 -1.9128  3.3450  0.1666
 4444SOL    HW213653   2.522   4.251   0.967 -1.3376 -0.0084 -1.0830
 4445SOL     OW13654   1.158   1.391   1.290  0.1295 -0.0969 -0.5279
 4445SOL    HW113655   1.217   1.380   1.210 -1.2426 -1.4471 -1.3945
 4445SOL    HW213656   1.120   1.302   1.316 -0.3380  0.5093  0.9418
 4446SOL     OW13657   0.505   1.611   3.990 -0.6310 -0.3186  0.2080
 4446SOL    HW113658   0.486   1.616   3.892 -1.0729 -1.8690  0.1881
 4446SOL    HW213659   0.431   1.653   4.041  0.2001  1.6795 -0.1200
 4447SOL     OW13660   0.904   3.051   1.007  0.0657 -0.0352 -0.0501
 4447SOL    HW113661   0.926   3.095   0.921 -2.3190  0.2703 -0.5679
 4447SOL    HW213662   0.932   2.955   1.004  1.2502  0.3045 -0.5878
 4448SOL     OW13663   1.679   2.015   5.426  0.0585  0.6306  0.5201
 4448SOL    HW113664   1.601   1.953   5.423  1.1405 -0.7637  0.2951
 4448SOL    HW213665   1.761   1.967   5.394  0.5122  2.8506 -1.9406
 4449SOL     OW13666   4.857   2.965   2.715 -0.6363 -0.2576  0.2578
 4449SOL    HW113667   4.780   3.024   2.692 -0.1700 -0.0275 -0.7353
 4449SOL    HW213668   4.907   2.940   2.632  0.0093 -0.8955  0.8223
 4450SOL     OW13669   0.794   2.650   3.453  0.1605 -0.1231  0.1753
 4450SOL    HW113670   0.785   2.726   3.516  1.3550  0.9768 -0.9139
 4450SOL    HW213671   0.891   2.638   3.428 -0.2717 -0.4044 -1.5450
 4451SOL     OW13672   0.846   3.667   3.526 -0.6263  0.7042 -0.2184
 4451SOL    HW113673   0.822   3.684   3.622  1.7466 -0.4603  0.6621
 4451SOL    HW213674   0.802   3.582   3.495 -0.3658  0.3806  0.2823
 4452SOL     OW13675   4.937   1.181   1.508 -0.3115  0.1493 -0.1657
 4452SOL    HW113676   4.987   1.262   1.538  0.9627 -0.1357 -1.3947
 4452SOL    HW213677   4.872   1.154   1.579  0.8232  0.9315  1.2358
 4453SOL     OW13678   3.182   1.202   3.869 -0.4756  0.6171  0.2317
 4453SOL    HW113679   3.164   1.247   3.956 -3.0776  1.3393 -0.5683
 4453SOL    HW213680   3.243   1.124   3.883  0.9270  1.9921  2.2905
 4454SOL     OW13681   0.959   4.308   5.201  0.2400  0.0664 -0.9405
 4454SOL    HW113682   0.968   4.362   5.117  0.0649  2.7523  0.6438
 4454SOL    HW213683   0.996   4.360   5.278 -2.6164 -0.8463  1.2129
 4455SOL     OW13684   1.968   3.823   1.972 -0.5860  1.0583 -0.6984
 4455SOL    HW113685   1.901   3.895   1.950 -0.6639  0.5577 -2.2203
 4455SOL    HW213686   2.057   3.865   1.991 -0.1026  1.5268 -3.5981
 4456SOL     OW13687   1.189   5.115   4.882  0.2201 -0.4233 -0.5394
 4456SOL    HW113688   1.237   5.107   4.970 -0.2093  0.5508 -0.1937
 4456SOL    HW213689   1.149   5.027   4.858  2.2402 -1.3007 -0.8934
 4457SOL     OW13690   0.997   1.164   4.822 -0.3456 -0.3893 -0.2011
 4457SOL    HW113691   1.046   1.248   4.842 -0.5388 -0.3988  0.3296
 4457SOL    HW213692   0.952   1.131   4.905 -0.1003 -1.1282 -0.3553
 4458SOL     OW13693   3.735   1.690   1.544 -0.2017 -0.2098  0.3628
 4458SOL    HW113694   3.799   1.757   1.582  0.2788 -0.4217 -0.0574
 4458SOL    HW213695   3.661   1.737   1.497  0.3057  0.0284 -0.2076
 4459SOL     OW13696   0.872   2.288   3.353  0.8150  0.3691  0.1869
 4459SOL    HW113697   0.796   2.306   3.416  2.0334  1.1986  1.4848
 4459SOL    HW213698   0.890   2.190   3.350  0.8558  0.3241  1.3217
 4460SOL     OW13699   5.507   0.635   1.932  0.5386 -0.1472 -0.0622
 4460SOL    HW113700   5.607   0.635   1.937  0.5618  1.3544 -0.0031
 4460SOL    HW213701   5.480   0.633   1.836  0.6932  1.3361 -0.1683
 4461SOL     OW13702   3.661   3.137   3.487  0.6099 -1.2121 -0.2791
 4461SOL    HW113703   3.605   3.081   3.548 -0.4737  1.1232  1.0118
 4461SOL    HW213704   3.625   3.133   3.394 -1.0580 -0.6344  0.3155
 4462SOL     OW13705   2.290   1.744   1.361 -0.6178  0.2045  0.2922
 4462SOL    HW113706   2.201   1.748   1.314  0.0866  1.3821 -1.0345
 4462SOL    HW213707   2.309   1.832   1.404 -0.1281 -0.0732  0.6533
 4463SOL     OW13708   2.397   4.809   0.838 -0.5536 -0.6393 -0.0152
 4463SOL    HW113709   2.303   4.779   0.854 -0.7729 -0.3445 -0.7036
 4463SOL    HW213710   2.460   4.735   0.861 -0.8235 -0.2167  2.2253
 4464SOL     OW13711   4.527   2.838   5.146  0.1100  0.3365  0.4297
 4464SOL    HW113712   4.566   2.748   5.167  0.0062 -0.1849 -1.4166
 4464SOL    HW213713   4.467   2.867   5.221  1.2151 -0.4933  1.6702
 4465SOL     OW13714   0.395   1.755   4.906  0.3047  0.7417  0.3612
 4465SOL    HW113715   0.393   1.831   4.971  1.8697  1.1590 -0.0224
 4465SOL    HW213716   0.478   1.762   4.850  0.1224 -0.8625 -0.1610
 4466SOL     OW13717   5.114   5.119   1.000 -0.0231  0.0105 -0.3582
 4466SOL    HW113718   5.177   5.080   0.932 -0.7145 -1.3987 -0.2402
 4466SOL    HW213719   5.116   5.063   1.083 -2.3482 -0.8680 -0.8093
 4467SOL     OW13720   0.643   1.147   0.113 -0.4645 -0.0969  0.4490
 4467SOL    HW113721   0.656   1.245   0.132 -0.3046  0.0630 -0.4401
 4467SOL    HW213722   0.545   1.127   0.112 -0.6441  0.5856 -1.7550
 4468SOL     OW13723   4.560   4.588   1.437  0.1204 -0.0567 -0.1130
 4468SOL    HW113724   4.521   4.664   1.385  0.0259 -1.3527 -2.0550
 4468SOL    HW213725   4.502   4.507   1.426  0.2318 -0.4565  1.8770
 4469SOL     OW13726   3.244   1.038   5.471 -0.2354  0.0971 -0.2555
 4469SOL    HW113727   3.324   1.070   5.521 -1.7795  2.7598  0.7425
 4469SOL    HW213728   3.180   0.994   5.533 -1.4998  2.0842 -0.0603
 4470SOL     OW13729   0.638   4.077   0.665 -0.3770 -0.1108  0.6681
 4470SOL    HW113730   0.565   4.119   0.719 -0.6308 -0.4140  0.5696
 4470SOL    HW213731   0.597   4.024   0.590 -0.0430 -0.0406  0.4345
 4471SOL     OW13732   5.371   2.894   5.123  0.2835  0.2525 -0.0518
 4471SOL    HW113733   5.442   2.936   5.066  1.4764 -0.7996  0.6015
 4471SOL    HW213734   5.331   2.816   5.075  0.5223  0.0389  0.0855
 4472SOL     OW13735   2.137   0.674   2.973  0.5286 -0.3984 -0.2827
 4472SOL    HW113736   2.102   0.613   2.901 -1.9673 -0.4989  0.8892
 4472SOL    HW213737   2.096   0.764   2.962  1.3226  0.0177  0.1343
 4473SOL     OW13738   4.644   2.870   4.577  0.1807  0.7805 -0.4987
 4473SOL    HW113739   4.685   2.779   4.585 -0.5526  0.4556 -0.3124
 4473SOL    HW213740   4.547   2.861   4.554 -0.8067  1.3682  2.8380
 4474SOL     OW13741   1.166   0.114   5.177 -0.4397 -0.1575  0.0576
 4474SOL    HW113742   1.216   0.028   5.188 -1.3437 -1.0379 -2.1158
 4474SOL    HW213743   1.227   0.191   5.193  0.6759 -1.2007  0.9537
 4475SOL     OW13744   1.720   4.719   0.363 -0.1282 -0.0110  0.3960
 4475SOL    HW113745   1.774   4.754   0.440 -0.5166  1.1867  0.1491
 4475SOL    HW213746   1.750   4.764   0.279 -1.3407  0.5123  0.2265
 4476SOL     OW13747   3.153   0.147   4.920  0.5600  0.8019 -0.0909
 4476SOL    HW113748   3.127   0.051   4.915 -0.7463  1.1386 -0.0724
 4476SOL    HW213749   3.252   0.155   4.907  0.7403 -0.5634  0.2362
 4477SOL     OW13750   4.279   0.089   5.528 -0.6203 -0.0622  0.4429
 4477SOL    HW113751   4.360   0.140   5.559 -0.8223  0.4322  0.1568
 4477SOL    HW213752   4.202   0.152   5.517 -1.2839 -0.6538  1.5175
 4478SOL     OW13753   0.505   4.625   1.917  0.0755 -0.2283  0.6405
 4478SOL    HW113754   0.539   4.667   2.000 -2.0099 -0.2325  1.5728
 4478SOL    HW213755   0.441   4.551   1.940  0.8050 -1.4298 -0.9710
 4479SOL     OW13756   0.201   4.363   3.490  0.1225  0.1704  0.7631
 4479SOL    HW113757   0.229   4.271   3.517 -0.8090 -0.4630 -0.3339
 4479SOL    HW213758   0.279   4.425   3.496  1.1453 -1.0032  0.1619
 4480SOL     OW13759   3.497   0.623   4.585 -0.2972 -0.0095 -0.3602
 4480SOL    HW113760   3.536   0.569   4.510 -0.8029 -0.9846  0.0591
 4480SOL    HW213761   3.563   0.693   4.613 -0.5063  1.0585 -2.3828
 4481SOL     OW13762   0.184   0.376   2.537  0.9289 -0.5291 -0.3726
 4481SOL    HW113763   0.105   0.386   2.597  0.1441 -2.3783 -1.0183
 4481SOL    HW213764   0.164   0.307   2.467  1.6265  1.8280 -3.0707
 4482SOL     OW13765   2.492   3.405   3.947 -0.1882 -0.1248  0.5473
 4482SOL    HW113766   2.435   3.479   3.984 -0.6515 -0.4502  0.4851
 4482SOL    HW213767   2.588   3.427   3.963 -0.2938  0.7298  0.0888
 4483SOL     OW13768   5.503   5.004   0.634  0.0864  0.4685 -0.1478
 4483SOL    HW113769   5.567   5.080   0.632  2.0212 -1.0894 -0.8030
 4483SOL    HW213770   5.478   4.978   0.541 -2.1300  1.4892  0.0987
 4484SOL     OW13771   0.060   3.406   4.622  0.8200  1.2302 -0.1578
 4484SOL    HW113772  -0.002   3.446   4.554  1.0772  0.8765 -0.6121
 4484SOL    HW213773   0.099   3.322   4.585  1.0575  1.0982  0.3890
 4485SOL     OW13774   4.999   0.332   4.600 -0.1170  0.0852 -0.1286
 4485SOL    HW113775   5.082   0.277   4.595 -0.4902 -0.4017 -1.3242
 4485SOL    HW213776   4.962   0.329   4.693  1.4334  0.6898  0.5386
 4486SOL     OW13777   1.791   2.461   1.699 -0.0664  0.7035 -0.1205
 4486SOL    HW113778   1.697   2.495   1.707 -0.0016  0.8786 -0.0986
 4486SOL    HW213779   1.803   2.383   1.760 -0.1941  0.6896 -0.1121
 4487SOL     OW13780   3.234   0.107   5.441  0.1332 -0.1134 -0.4958
 4487SOL    HW113781   3.307   0.171   5.462  0.5144 -0.5459 -0.4912
 4487SOL    HW213782   3.154   0.157   5.409  0.0393  0.4526  0.5812
 4488SOL     OW13783   0.778   2.552   2.976 -0.3270  0.3920 -0.0953
 4488SOL    HW113784   0.755   2.603   2.893 -2.1011 -0.7073 -0.3164
 4488SOL    HW213785   0.705   2.488   2.998  0.7565 -0.3635  1.5362
 4489SOL     OW13786   0.617   0.845   3.098  0.3460  0.1006 -0.2010
 4489SOL    HW113787   0.583   0.786   3.025  1.5140  0.4908 -1.1065
 4489SOL    HW213788   0.616   0.795   3.185  0.7248 -1.0542 -0.8326
 4490SOL     OW13789   1.444   0.633   3.079  0.2422  0.1314 -0.2061
 4490SOL    HW113790   1.539   0.616   3.053 -0.1868 -3.7804  0.2139
 4490SOL    HW213791   1.441   0.686   3.164  1.9762  0.8839 -0.5731
 4491SOL     OW13792   3.742   0.494   0.222 -0.0550  0.2393 -0.3038
 4491SOL    HW113793   3.826   0.482   0.275  0.4739 -0.3633 -1.2688
 4491SOL    HW213794   3.704   0.585   0.241  0.5796  0.3656  0.4469
 4492SOL     OW13795   3.173   0.902   3.592  0.0400 -0.1162  0.0481
 4492SOL    HW113796   3.269   0.931   3.597  0.6972 -2.0168 -0.8484
 4492SOL    HW213797   3.155   0.861   3.503 -1.3309 -0.7673  0.5964
 4493SOL     OW13798   4.479   0.078   1.921  0.6148 -0.4055  0.4553
 4493SOL    HW113799   4.415   0.062   1.996  0.4786 -0.0162  0.4236
 4493SOL    HW213800   4.480  -0.002   1.860  0.5917 -0.6487  0.7713
 4494SOL     OW13801   2.322   4.796   1.961 -0.0074 -0.3809  0.3689
 4494SOL    HW113802   2.409   4.801   1.913  0.2169  1.3980  0.8957
 4494SOL    HW213803   2.308   4.703   1.995  2.8001 -0.2264  2.2711
 4495SOL     OW13804   0.275   2.714   3.245  0.3800  0.5709  0.0142
 4495SOL    HW113805   0.192   2.703   3.191  0.5792  0.3820 -0.2543
 4495SOL    HW213806   0.262   2.787   3.312  0.0073  0.5590 -0.0456
 4496SOL     OW13807   3.944   1.958   2.369 -0.2399  0.0626  0.4728
 4496SOL    HW113808   3.860   1.999   2.405 -0.1819  0.9572 -0.3706
 4496SOL    HW213809   3.929   1.926   2.276  0.8925  2.1862 -0.5053
 4497SOL     OW13810   4.569   3.860   1.867  0.0362  0.6593  0.7063
 4497SOL    HW113811   4.548   3.762   1.861  0.7009  0.4517  1.6272
 4497SOL    HW213812   4.592   3.894   1.775  0.5133 -0.2138  0.4905
 4498SOL     OW13813   5.275   3.517   2.877  0.2059 -0.1929 -0.1832
 4498SOL    HW113814   5.262   3.429   2.922 -0.6201  0.2275  0.4327
 4498SOL    HW213815   5.191   3.543   2.830 -0.0390  0.8843  0.7904
 4499SOL     OW13816   2.517   0.359   1.068 -0.2991  0.5668  0.0317
 4499SOL    HW113817   2.472   0.287   1.121 -0.9217  0.9275 -0.0056
 4499SOL    HW213818   2.614   0.361   1.092 -0.2212 -0.4509 -0.1522
 4500SOL     OW13819   0.614   0.098   1.310 -0.3579 -0.1332  0.2170
 4500SOL    HW113820   0.657   0.179   1.269 -2.6168 -0.9042 -4.2338
 4500SOL    HW213821   0.668   0.017   1.289 -1.8757 -0.6228 -2.1413
 4501SOL     OW13822   0.346   0.862   4.451 -0.3108  0.1285 -0.3457
 4501SOL    HW113823   0.441   0.879   4.425 -0.3686  0.0817 -0.5942
 4501SOL    HW213824   0.319   0.771   4.419 -0.1042 -0.3025  0.6778
 4502SOL     OW13825   4.541   0.695   0.860  0.9894 -0.0753  0.0512
 4502SOL    HW113826   4.568   0.714   0.954  0.8112 -0.1602  0.1213
 4502SOL    HW213827   4.539   0.596   0.846  0.4652 -0.0786  0.1245
 4503SOL     OW13828   4.373   3.099   4.584 -0.2699  0.3038 -0.3466
 4503SOL    HW113829   4.318   3.103   4.667 -1.2140  0.8141 -0.9839
 4503SOL    HW213830   4.384   3.004   4.556 -2.3543  0.2487 -1.1821
 4504SOL     OW13831   2.186   5.522   4.758  0.1362  0.0546  0.2935
 4504SOL    HW113832   2.267   5.477   4.795  0.2147  0.5703  0.7643
 4504SOL    HW213833   2.151   5.470   4.680  1.4204  0.2855 -0.4717
 4505SOL     OW13834   1.456   2.132   0.671  0.1865  0.0191 -0.3148
 4505SOL    HW113835   1.529   2.080   0.715  0.7100  0.3074 -0.8216
 4505SOL    HW213836   1.452   2.107   0.574 -0.9405 -0.5995 -0.1201
 4506SOL     OW13837   1.655   4.647   4.623 -0.0003 -0.0689 -0.0442
 4506SOL    HW113838   1.575   4.705   4.610  1.6848  2.3475 -0.3705
 4506SOL    HW213839   1.648   4.566   4.565  0.1439  2.6806 -4.3730
 4507SOL     OW13840   2.157   0.880   4.370  0.1890  0.1304  0.0815
 4507SOL    HW113841   2.159   0.784   4.341  1.1431  0.1140  0.1621
 4507SOL    HW213842   2.230   0.896   4.436 -2.2603  0.0474  2.9945
 4508SOL     OW13843   0.284   5.384   0.779 -0.5147  0.3805  0.5748
 4508SOL    HW113844   0.268   5.474   0.739  0.6508  0.1485 -0.4864
 4508SOL    HW213845   0.221   5.370   0.855 -3.0793  0.7173 -1.3302
 4509SOL     OW13846   1.391   0.385   2.358  0.6861  0.3215 -0.0170
 4509SOL    HW113847   1.428   0.295   2.335  1.7159  0.4778  0.9497
 4509SOL    HW213848   1.291   0.381   2.358  0.6261 -1.7371  3.2425
 4510SOL     OW13849   3.730   4.669   3.585 -0.0240  0.3904 -0.3346
 4510SOL    HW113850   3.741   4.629   3.676 -0.0431  1.2567  0.0491
 4510SOL    HW213851   3.764   4.762   3.584 -1.0409  0.7770 -0.9213
 4511SOL     OW13852   4.090   3.506   3.777  0.0186 -0.1612 -0.5052
 4511SOL    HW113853   4.166   3.462   3.729 -0.7167 -1.2866 -0.6859
 4511SOL    HW213854   4.044   3.570   3.715  0.2043 -0.2342 -0.7192
 4512SOL     OW13855   5.512   2.175   0.282 -0.1883  0.1938 -0.0945
 4512SOL    HW113856   5.556   2.088   0.261  1.4161  0.5929  1.4047
 4512SOL    HW213857   5.416   2.171   0.256  0.2166 -1.4768 -1.4565
 4513SOL     OW13858   4.330   3.241   3.258  0.1152  0.0275  0.1747
 4513SOL    HW113859   4.390   3.273   3.331 -0.1793  0.3545  0.2791
 4513SOL    HW213860   4.385   3.213   3.180  0.4012  0.5320  0.1865
 4514SOL     OW13861   2.487   4.110   4.416  0.0919 -0.3771 -0.1426
 4514SOL    HW113862   2.524   4.196   4.380 -0.1370 -0.0081  0.4727
 4514SOL    HW213863   2.517   4.099   4.511 -1.4306 -0.0172  0.4015
 4515SOL     OW13864   5.029   4.742   1.738  0.6008 -0.8704 -0.3548
 4515SOL    HW113865   5.027   4.648   1.705  0.2108 -1.1149  0.3512
 4515SOL    HW213866   4.936   4.778   1.742  0.7789 -0.3040 -1.0190
 4516SOL     OW13867   2.007   2.681   2.957  0.0729  0.5655 -0.6171
 4516SOL    HW113868   1.930   2.675   3.021 -0.8862  0.5007 -1.7410
 4516SOL    HW213869   1.995   2.613   2.885  2.3566 -0.9854  0.3819
 4517SOL     OW13870   5.131   4.903   1.947 -0.1368 -0.0326 -0.2020
 4517SOL    HW113871   5.102   4.868   1.858 -1.8070  1.3359 -0.2626
 4517SOL    HW213872   5.103   4.840   2.019 -1.4481  0.2464 -0.4409
 4518SOL     OW13873   4.497   3.561   1.634  0.1237  0.0166 -0.3205
 4518SOL    HW113874   4.496   3.568   1.733 -0.4263 -1.8042 -0.1561
 4518SOL    HW213875   4.543   3.476   1.607  0.5509  0.6395 -1.6419
 4519SOL     OW13876   1.040   3.112   0.794 -0.4477  0.0642 -0.2256
 4519SOL    HW113877   0.968   3.154   0.738 -1.2922  0.6143  1.2382
 4519SOL    HW213878   1.126   3.162   0.780 -0.6550  0.2290 -0.9753
 4520SOL     OW13879   4.110   1.997   2.850 -0.4850  0.4555  0.3885
 4520SOL    HW113880   4.190   2.053   2.828 -0.0267 -0.3698 -0.0994
 4520SOL    HW213881   4.048   2.049   2.909  0.7715  0.8337  1.4274
 4521SOL     OW13882   4.665   3.426   4.747  0.7396  0.4035  0.1625
 4521SOL    HW113883   4.567   3.414   4.758  0.5158 -0.5748 -2.2888
 4521SOL    HW213884   4.692   3.518   4.777 -0.2920 -0.3509  3.9582
 4522SOL     OW13885   2.701   1.753   5.310 -0.0237  0.1972  0.0235
 4522SOL    HW113886   2.773   1.782   5.248  1.6462 -1.1303  1.2367
 4522SOL    HW213887   2.674   1.830   5.369  1.4256  0.3734  0.4862
 4523SOL     OW13888   4.131   4.816   5.307  0.1523 -0.4268  0.3073
 4523SOL    HW113889   4.122   4.799   5.209  1.5686 -0.1309  0.0993
 4523SOL    HW213890   4.186   4.899   5.321  0.7458 -0.9783  1.3566
 4524SOL     OW13891   3.359   0.721   2.509  0.0718  0.0343 -0.1818
 4524SOL    HW113892   3.446   0.770   2.504  0.4097 -0.6083 -0.7855
 4524SOL    HW213893   3.294   0.774   2.563  0.9918  0.2724  0.7106
 4525SOL     OW13894   0.919   1.978   0.219 -0.0229  0.5484 -0.0525
 4525SOL    HW113895   1.014   1.969   0.190  0.3047 -1.4868  1.3875
 4525SOL    HW213896   0.865   1.901   0.183 -0.4907  0.2301  1.2320
 4526SOL     OW13897   4.697   4.513   4.365  0.4824  0.2698  0.2173
 4526SOL    HW113898   4.749   4.490   4.448  0.2636 -0.0960  0.2578
 4526SOL    HW213899   4.738   4.467   4.286 -0.9316 -1.6824  0.5459
 4527SOL     OW13900   0.583   3.643   5.398  0.4016  0.2698 -0.2670
 4527SOL    HW113901   0.648   3.706   5.440  0.9595  0.9932 -2.0864
 4527SOL    HW213902   0.586   3.654   5.298 -0.6982 -1.4792 -0.5417
 4528SOL     OW13903   3.698   1.977   3.990  0.3672  0.0218  0.2922
 4528SOL    HW113904   3.709   1.947   3.895  0.5221 -1.4865  0.7570
 4528SOL    HW213905   3.601   1.989   4.010  0.2785 -0.4347  0.1532
 4529SOL     OW13906   2.107   3.078   3.169  0.1822  0.0658  0.8367
 4529SOL    HW113907   2.180   3.043   3.227 -0.3125 -0.4314  1.1725
 4529SOL    HW213908   2.104   3.025   3.084 -0.1678 -0.3020  1.0779
 4530SOL     OW13909   4.103   0.803   0.796 -0.3265 -0.1809 -0.0605
 4530SOL    HW113910   4.091   0.769   0.702  0.7643  0.3698 -0.4189
 4530SOL    HW213911   4.021   0.851   0.825  0.6260  3.0672 -2.2242
 4531SOL     OW13912   3.750   4.491   2.839 -0.0310  0.0237  0.1635
 4531SOL    HW113913   3.835   4.530   2.875  0.7646 -0.6436 -0.9405
 4531SOL    HW213914   3.689   4.564   2.808  1.5844  0.4554 -2.2397
 4532SOL     OW13915   0.077   4.860   3.603  1.0854 -0.3734 -0.4071
 4532SOL    HW113916   0.056   4.869   3.506 -3.0263  0.2885  0.3954
 4532SOL    HW213917   0.045   4.772   3.637 -0.8502  0.7867  0.9814
 4533SOL     OW13918   4.174   5.303   0.467 -0.2207 -0.2912 -0.0285
 4533SOL    HW113919   4.178   5.240   0.389  0.1503 -0.9373  0.5028
 4533SOL    HW213920   4.258   5.296   0.521 -1.3877 -1.6085  1.7611
 4534SOL     OW13921   2.381   0.630   3.566 -0.4317 -0.3768 -0.0074
 4534SOL    HW113922   2.284   0.653   3.577 -0.4817 -1.1255  1.3045
 4534SOL    HW213923   2.400   0.543   3.612  1.3813  0.9964  2.0139
 4535SOL     OW13924   5.007   0.715   4.749 -0.3386 -0.2556  0.4631
 4535SOL    HW113925   4.998   0.686   4.654 -1.5992  0.5611  0.3038
 4535SOL    HW213926   4.994   0.636   4.809  1.4292 -0.9698 -0.0205
 4536SOL     OW13927   4.801   1.984   3.988 -0.2058 -0.0437  0.3063
 4536SOL    HW113928   4.876   2.019   3.932 -0.6601  2.9527  1.3964
 4536SOL    HW213929   4.714   2.010   3.945 -0.5756 -0.2081  0.9570
 4537SOL     OW13930   0.722   3.551   4.260  0.2745 -0.1120  0.4530
 4537SOL    HW113931   0.663   3.489   4.312 -2.1275  0.4823 -1.3850
 4537SOL    HW213932   0.683   3.565   4.169  2.7739  1.1663 -0.5048
 4538SOL     OW13933   4.639   0.455   1.551  0.2506 -0.6233 -0.4328
 4538SOL    HW113934   4.664   0.464   1.647  1.3472 -1.5022 -0.6148
 4538SOL    HW213935   4.589   0.369   1.537 -0.1646 -0.3598 -0.6114
 4539SOL     OW13936   5.062   5.140   3.273  0.0306 -0.2833  0.6588
 4539SOL    HW113937   5.013   5.080   3.337 -1.8310  1.3757  0.8740
 4539SOL    HW213938   5.036   5.117   3.180 -0.1506 -0.2405  0.6999
 4540SOL     OW13939   3.565   4.963   5.240  0.5379  0.1189 -0.2923
 4540SOL    HW113940   3.490   4.996   5.182  0.5278 -0.1277 -0.4194
 4540SOL    HW213941   3.645   4.945   5.184  0.1626 -1.2657 -0.4158
 4541SOL     OW13942   3.271   1.268   4.700  0.2540 -0.0813 -0.3132
 4541SOL    HW113943   3.265   1.168   4.700 -0.9049 -0.0275 -0.0202
 4541SOL    HW213944   3.274   1.301   4.794 -1.8777  0.2505 -0.3012
 4542SOL     OW13945   1.620   2.945   4.713  0.0046 -0.7628  0.4933
 4542SOL    HW113946   1.551   2.957   4.642 -0.3985 -0.6465  0.9002
 4542SOL    HW213947   1.615   2.851   4.748 -2.1019  0.0829  2.7126
 4543SOL     OW13948   3.307   3.992   3.107 -0.0723  0.3438 -1.0897
 4543SOL    HW113949   3.320   4.006   3.009 -2.0285 -0.0097 -1.4389
 4543SOL    HW213950   3.236   3.923   3.122  0.2168  0.3657  0.5805
 4544SOL     OW13951   4.235   4.344   1.141 -0.3940 -0.4635  0.3634
 4544SOL    HW113952   4.179   4.425   1.126 -1.2692 -0.7099  1.9968
 4544SOL    HW213953   4.206   4.299   1.226  1.1078 -1.6119  0.3125
 4545SOL     OW13954   4.557   5.543   2.998 -0.1521  0.4495 -0.2200
 4545SOL    HW113955   4.629   5.596   3.042 -1.2851  0.8658  1.2291
 4545SOL    HW213956   4.509   5.488   3.066 -0.5501 -0.6039 -1.3147
 4546SOL     OW13957   0.957   3.412   3.078 -0.0423 -0.3000 -0.0817
 4546SOL    HW113958   1.028   3.404   3.147 -2.2514  0.7867  2.4948
 4546SOL    HW213959   0.979   3.488   3.016  1.2314 -0.2759  0.3788
 4547SOL     OW13960   1.512   2.656   3.879  0.3961 -0.6248 -0.6198
 4547SOL    HW113961   1.544   2.572   3.835  1.0689 -0.8455  0.2705
 4547SOL    HW213962   1.590   2.713   3.904  0.0093 -0.3524 -0.0075
 4548SOL     OW13963   0.439   1.911   5.450 -0.1424 -0.0101 -0.0341
 4548SOL    HW113964   0.442   1.867   5.540 -0.5886  1.0192  0.5020
 4548SOL    HW213965   0.393   1.851   5.385  2.2695 -1.8058 -0.2019
 4549SOL     OW13966   1.856   4.367   0.130 -0.6345  0.0209 -0.1818
 4549SOL    HW113967   1.809   4.416   0.203  0.3502  0.2809  0.2938
 4549SOL    HW213968   1.870   4.428   0.052  0.4741  0.4839  0.3602
 4550SOL     OW13969   1.670   3.512   4.049  0.0273  0.0466  0.3105
 4550SOL    HW113970   1.682   3.419   4.014  3.2250  0.7362 -0.8033
 4550SOL    HW213971   1.683   3.513   4.148  1.5076 -0.4968  0.1360
 4551SOL     OW13972   2.584   5.371   5.283  0.5832 -0.0170 -0.3424
 4551SOL    HW113973   2.535   5.309   5.222 -1.5090  1.4690 -0.2954
 4551SOL    HW213974   2.588   5.462   5.243  1.1850  0.4666  0.7516
 4552SOL     OW13975   5.244   3.484   2.592  0.7894 -0.4163 -0.2712
 4552SOL    HW113976   5.232   3.402   2.649 -0.5580 -0.3746 -0.4452
 4552SOL    HW213977   5.298   3.551   2.642 -0.0130 -0.5428  0.8194
 4553SOL     OW13978   4.885   5.399   0.656 -0.5507 -0.2706 -0.4422
 4553SOL    HW113979   4.961   5.335   0.661  0.2486  0.6694 -0.2934
 4553SOL    HW213980   4.835   5.399   0.743  0.7327  0.8290  0.3403
 4554SOL     OW13981   2.449   3.773   2.029  0.5464 -0.0833 -0.1581
 4554SOL    HW113982   2.351   3.781   2.048  0.4851 -0.1862 -0.4242
 4554SOL    HW213983   2.493   3.722   2.102  0.4893  0.4031  0.2199
 4555SOL     OW13984   4.509   2.222   2.243 -0.5018 -0.2028 -0.1549
 4555SOL    HW113985   4.597   2.256   2.211 -0.3669  1.5373  1.8764
 4555SOL    HW213986   4.514   2.203   2.341 -1.8452 -2.0543 -0.3937
 4556SOL     OW13987   3.728   1.120   1.911  0.4624 -0.4535 -1.4608
 4556SOL    HW113988   3.810   1.076   1.950  0.1391 -1.0842 -1.4739
 4556SOL    HW213989   3.684   1.176   1.981  1.3974  0.6203 -1.7039
 4557SOL     OW13990   4.775   4.851   0.920  0.6505  0.2517 -0.4106
 4557SOL    HW113991   4.802   4.947   0.916 -0.6032  0.6065 -0.7427
 4557SOL    HW213992   4.833   4.803   0.985 -0.0513  1.7054  1.3856
 4558SOL     OW13993   0.295   1.688   3.508 -0.0868 -0.3728 -0.5707
 4558SOL    HW113994   0.246   1.604   3.484 -3.5770  1.3966 -0.3527
 4558SOL    HW213995   0.299   1.748   3.428 -1.7297  1.0193  0.3293
 4559SOL     OW13996   4.778   2.075   1.593  0.0693 -0.3766 -0.2728
 4559SOL    HW113997   4.867   2.039   1.563 -0.1460 -2.1673  1.0400
 4559SOL    HW213998   4.706   2.041   1.532  0.3722  2.5147 -2.4217
 4560SOL     OW13999   4.875   2.798   4.159 -0.5330 -0.1261 -0.3432
 4560SOL    HW114000   4.845   2.856   4.235 -3.1536 -2.2366  0.4021
 4560SOL    HW214001   4.938   2.728   4.193 -0.4742 -0.1004 -0.4008
 4561SOL     OW14002   1.581   0.257   4.930  0.6294  0.1771  0.3612
 4561SOL    HW114003   1.600   0.304   5.016  1.3651 -2.4161  1.7108
 4561SOL    HW214004   1.527   0.175   4.948  2.5293 -1.5571 -1.3299
 4562SOL     OW14005   0.202   1.684   3.148  0.1271  0.0998 -0.4412
 4562SOL    HW114006   0.163   1.659   3.060 -0.6898  1.9855 -0.6437
 4562SOL    HW214007   0.143   1.751   3.193  0.5465 -0.7837  1.5333
 4563SOL     OW14008   4.874   1.011   2.342  0.3185 -0.6396  0.1490
 4563SOL    HW114009   4.969   0.980   2.344 -0.4334 -3.1485  0.3408
 4563SOL    HW214010   4.852   1.060   2.426  1.5704  0.5262 -0.1655
 4564SOL     OW14011   3.291   2.752   5.111 -0.0119  0.3459  0.0420
 4564SOL    HW114012   3.329   2.805   5.035 -1.3575  0.5365 -0.5268
 4564SOL    HW214013   3.233   2.811   5.167 -1.2780 -0.4260 -0.4182
 4565SOL     OW14014   3.352   3.809   3.606  0.6280  0.1250  0.1773
 4565SOL    HW114015   3.434   3.863   3.623  0.7925 -0.2667  0.6641
 4565SOL    HW214016   3.273   3.853   3.649  0.6082  0.4177 -0.1539
 4566SOL     OW14017   0.629   1.876   4.487 -0.2067 -0.5657  0.0920
 4566SOL    HW114018   0.692   1.942   4.445 -1.6458  0.4224 -0.6212
 4566SOL    HW214019   0.660   1.783   4.469 -0.5551 -0.1920 -2.9718
 4567SOL     OW14020   4.235   0.966   3.631  0.4251 -0.3897  0.6108
 4567SOL    HW114021   4.254   0.879   3.586  1.4068 -0.1055  0.4589
 4567SOL    HW214022   4.139   0.991   3.617  0.1010 -1.5192  0.7935
 4568SOL     OW14023   1.484   4.589   2.342 -0.7144  0.0372  0.4375
 4568SOL    HW114024   1.412   4.601   2.411 -0.1349 -1.3672  1.3414
 4568SOL    HW214025   1.524   4.497   2.351  1.0692  0.7096 -0.1519
 4569SOL     OW14026   3.810   2.372   1.796  0.1199 -0.0313  0.3510
 4569SOL    HW114027   3.731   2.433   1.802  1.1524  1.7843 -2.2933
 4569SOL    HW214028   3.882   2.405   1.856  0.4664  1.1145 -0.6425
 4570SOL     OW14029   0.909   4.697   1.334 -0.3262 -0.0566  0.0569
 4570SOL    HW114030   0.986   4.634   1.343 -1.6237 -1.5647  1.3322
 4570SOL    HW214031   0.890   4.713   1.237  2.7461  1.9476 -0.3436
 4571SOL     OW14032   3.589   5.214   1.188  0.0117 -0.0186 -0.0112
 4571SOL    HW114033   3.618   5.307   1.166  0.6332 -0.3511 -0.6449
 4571SOL    HW214034   3.587   5.202   1.287 -2.5574  1.4333  0.2057
 4572SOL     OW14035   4.696   0.153   2.107  0.0684  0.1178  0.0237
 4572SOL    HW114036   4.618   0.133   2.049  0.0558 -1.2158  0.4749
 4572SOL    HW214037   4.665   0.172   2.200  0.2555 -0.1226  0.1362
 4573SOL     OW14038   1.971   4.323   2.643  0.0381 -0.0059 -0.0991
 4573SOL    HW114039   1.996   4.410   2.686 -3.4369  0.3299  1.5687
 4573SOL    HW214040   1.971   4.333   2.544  1.8383  1.1880 -0.0218
 4574SOL     OW14041   2.032   1.902   0.944  0.3590  0.4061 -0.5790
 4574SOL    HW114042   1.958   1.962   0.974  0.9513  0.2639  1.2620
 4574SOL    HW214043   2.012   1.870   0.851 -0.2022  3.0081 -1.4422
 4575SOL     OW14044   3.395   2.550   0.540 -0.9600 -0.5932  0.5964
 4575SOL    HW114045   3.300   2.527   0.517  0.0435 -2.8314 -1.8141
 4575SOL    HW214046   3.409   2.648   0.530 -2.6376 -0.4281 -0.5050
 4576SOL     OW14047   0.100   1.412   5.435 -0.2567 -0.1749  0.0582
 4576SOL    HW114048   0.129   1.506   5.452 -0.1735  0.0253 -1.0678
 4576SOL    HW214049   0.151   1.350   5.495  1.1242  0.3426 -0.5348
 4577SOL     OW14050   2.157   4.696   0.906  0.4036 -0.8612 -0.1201
 4577SOL    HW114051   2.151   4.600   0.876  1.0408 -1.6455  2.0222
 4577SOL    HW214052   2.095   4.710   0.983  1.5281 -0.0050  0.6507
 4578SOL     OW14053   5.549   2.612   4.155 -0.0654 -0.7309 -0.0401
 4578SOL    HW114054   5.491   2.533   4.177  2.7474 -2.9768 -0.1904
 4578SOL    HW214055   5.527   2.645   4.063 -1.7673 -0.8031  0.2976
 4579SOL     OW14056   2.389   3.262   2.976 -0.2782  0.1149  0.7784
 4579SOL    HW114057   2.291   3.280   2.966 -0.0133  1.1246 -0.2783
 4579SOL    HW214058   2.408   3.230   3.069 -1.2234  2.6435  1.9341
 4580SOL     OW14059   2.065   2.517   4.224  0.0556 -0.0930  0.1525
 4580SOL    HW114060   2.076   2.432   4.276 -0.3587  0.4358  1.1383
 4580SOL    HW214061   1.997   2.503   4.152 -0.6331 -0.3831  0.8391
 4581SOL     OW14062   2.785   0.856   1.654 -0.2021 -0.2956  0.4701
 4581SOL    HW114063   2.723   0.778   1.659 -0.2450 -0.2240  1.2936
 4581SOL    HW214064   2.740   0.931   1.606 -0.0237 -0.8851 -0.6497
 4582SOL     OW14065   4.915   4.638   4.078  0.6527  0.0744 -0.2628
 4582SOL    HW114066   5.012   4.648   4.055  1.5741 -1.6806  2.4238
 4582SOL    HW214067   4.897   4.545   4.108 -0.8264  1.3877  3.5063
 4583SOL     OW14068   0.233   3.731   1.060 -0.1735  0.1991  0.2518
 4583SOL    HW114069   0.316   3.676   1.056 -1.3343 -1.7427  1.5106
 4583SOL    HW214070   0.165   3.693   0.998 -0.1551  1.8308 -0.8345
 4584SOL     OW14071   0.593   3.827   4.894 -0.3044  0.3280 -0.4103
 4584SOL    HW114072   0.590   3.841   4.795  0.4285  0.8419 -0.3650
 4584SOL    HW214073   0.683   3.791   4.919 -0.8591 -0.8633 -0.0556
 4585SOL     OW14074   1.541   0.371   3.562 -0.0390 -0.1529  0.3077
 4585SOL    HW114075   1.631   0.348   3.526  1.2012  0.6846  2.6930
 4585SOL    HW214076   1.523   0.469   3.547 -1.4055 -0.6219 -1.7200
 4586SOL     OW14077   3.839   5.275   3.039  0.5463  0.2890 -0.0331
 4586SOL    HW114078   3.850   5.187   3.085  1.2138 -0.5775 -1.7435
 4586SOL    HW214079   3.742   5.294   3.027  0.3646 -1.4065 -1.7229
 4587SOL     OW14080   0.950   3.864   1.494 -0.6103  0.8811 -0.1313
 4587SOL    HW114081   0.873   3.827   1.546 -0.1609  0.9201  0.5791
 4587SOL    HW214082   0.916   3.910   1.413 -1.3470  1.0254  0.2495
 4588SOL     OW14083   3.752   4.420   2.196 -0.1053 -0.3954 -0.0878
 4588SOL    HW114084   3.805   4.348   2.242 -0.3431 -1.3818 -1.3216
 4588SOL    HW214085   3.666   4.381   2.162  0.4690  0.0705 -2.1736
 4589SOL     OW14086   0.793   3.005   0.144 -0.1433 -0.1398 -0.3970
 4589SOL    HW114087   0.843   2.919   0.155  1.2150  0.6314 -0.2024
 4589SOL    HW214088   0.780   3.047   0.234 -1.5441 -0.5293 -0.4047
 4590SOL     OW14089   2.604   0.313   0.043 -0.2243  0.1116  0.0201
 4590SOL    HW114090   2.675   0.263  -0.005 -0.5880  0.2750 -0.7082
 4590SOL    HW214091   2.522   0.256   0.051  0.7822 -1.0649  3.1718
 4591SOL     OW14092   0.907   0.174   3.657 -0.6306 -0.8890  0.1618
 4591SOL    HW114093   0.914   0.166   3.557  0.6059  0.2535  0.1242
 4591SOL    HW214094   0.986   0.131   3.700  0.0592  0.6378  0.4968
 4592SOL     OW14095   1.076   2.997   2.885 -1.1893  0.4815 -0.0670
 4592SOL    HW114096   1.128   2.986   2.970 -0.4850  1.2578 -0.3861
 4592SOL    HW214097   1.118   3.068   2.830 -0.6513 -1.1169 -1.8217
 4593SOL     OW14098   1.799   0.593   4.245  0.0239  0.1584  0.5944
 4593SOL    HW114099   1.795   0.681   4.291 -0.5949 -0.5563  1.9677
 4593SOL    HW214100   1.872   0.594   4.177  0.0873  1.6836  0.6649
 4594SOL     OW14101   3.635   5.089   3.733  0.0015  0.5517 -0.1862
 4594SOL    HW114102   3.630   5.043   3.821  0.7819 -0.1471 -0.4984
 4594SOL    HW214103   3.677   5.180   3.745  4.0144 -1.0544 -0.3149
 4595SOL     OW14104   1.877   4.842   3.149  0.2286 -0.0628 -0.3924
 4595SOL    HW114105   1.809   4.875   3.083  0.6152  1.1239 -0.2089
 4595SOL    HW214106   1.890   4.744   3.136 -2.9393 -0.7781  0.8108
 4596SOL     OW14107   3.928   5.311   1.079 -0.2516 -0.4096  0.5846
 4596SOL    HW114108   3.845   5.315   1.024 -0.2788 -1.2663  0.5511
 4596SOL    HW214109   3.967   5.403   1.088  0.4546 -0.4208 -1.8989
 4597SOL     OW14110   0.236   1.554   2.082 -0.0030  0.2405  0.2172
 4597SOL    HW114111   0.213   1.457   2.091  0.1759  0.3578  2.7273
 4597SOL    HW214112   0.244   1.578   1.985  2.8195 -2.9236 -0.5062
 4598SOL     OW14113   3.744   3.513   4.115  0.6513 -0.3771  0.2467
 4598SOL    HW114114   3.708   3.555   4.197  1.3509  0.6218  0.0588
 4598SOL    HW214115   3.844   3.509   4.120  0.6595 -1.0832 -0.1901
 4599SOL     OW14116   0.341   2.159   5.482 -0.4390 -0.0194 -0.0887
 4599SOL    HW114117   0.261   2.177   5.425  0.1175 -0.1982 -0.9447
 4599SOL    HW214118   0.371   2.064   5.469 -0.9899 -0.4205  1.3920
 4600SOL     OW14119   1.602   1.264   2.563  0.0885 -0.4482  0.3503
 4600SOL    HW114120   1.640   1.333   2.502 -0.5901  0.0739  0.5121
 4600SOL    HW214121   1.630   1.173   2.531  2.0972 -0.0731  0.8995
 4601SOL     OW14122   0.470   1.257   1.388  0.1918  0.3532  0.6376
 4601SOL    HW114123   0.458   1.356   1.397 -1.4688  0.1703  0.6648
 4601SOL    HW214124   0.539   1.226   1.454 -0.6250  1.2514  1.9682
 4602SOL     OW14125   4.889   5.008   4.066  0.0929  0.4273  0.0306
 4602SOL    HW114126   4.829   4.930   4.050  1.2003 -0.4809  0.1619
 4602SOL    HW214127   4.923   5.006   4.160  1.6478 -0.0632 -0.5061
 4603SOL     OW14128   2.363   4.072   0.909 -0.1797  0.4271 -0.2002
 4603SOL    HW114129   2.273   4.067   0.952 -0.1563  0.9347 -0.0838
 4603SOL    HW214130   2.433   4.042   0.974  0.0806  3.1203  0.8697
 4604SOL     OW14131   4.545   5.213   3.899  0.1626  0.0330 -1.0335
 4604SOL    HW114132   4.642   5.240   3.896  0.4288 -0.7425 -0.0699
 4604SOL    HW214133   4.488   5.293   3.881  0.9547  1.0811  0.7561
 4605SOL     OW14134   2.184   3.494   2.502  0.7030  0.8077 -0.0994
 4605SOL    HW114135   2.214   3.403   2.530  1.8424  1.2779  0.2621
 4605SOL    HW214136   2.090   3.489   2.469  0.8226 -0.5351 -0.2938
 4606SOL     OW14137   2.566   1.438   0.106  0.4952 -0.2613  0.0081
 4606SOL    HW114138   2.503   1.504   0.145  1.3077  0.1728  0.6252
 4606SOL    HW214139   2.592   1.371   0.175 -0.0411 -1.0232 -0.5131
 4607SOL     OW14140   5.471   1.964   0.998 -0.2754  0.0651  0.1456
 4607SOL    HW114141   5.471   2.056   1.038 -0.0422 -0.0044  0.3093
 4607SOL    HW214142   5.563   1.940   0.970 -0.3485 -0.0922  0.0371
 4608SOL     OW14143   3.421   1.045   3.624  0.0635  0.3077 -0.6132
 4608SOL    HW114144   3.418   1.037   3.525 -1.3909  0.3034 -0.5832
 4608SOL    HW214145   3.513   1.072   3.653  0.9427 -1.2365 -1.8376
 4609SOL     OW14146   1.114   1.774   0.639  0.5852  0.0181  0.3094
 4609SOL    HW114147   1.045   1.732   0.697  1.4507 -1.0590  0.5954
 4609SOL    HW214148   1.147   1.858   0.681 -0.0604  0.1744  0.5006
 4610SOL     OW14149   0.642   4.190   5.348 -0.6586 -0.1165  0.4013
 4610SOL    HW114150   0.719   4.251   5.331  0.0815  0.1800  3.9079
 4610SOL    HW214151   0.642   4.115   5.282  0.9865  1.3460 -1.3441
 4611SOL     OW14152   2.961   4.640   5.428 -0.1023  0.3303  0.0893
 4611SOL    HW114153   2.970   4.715   5.362 -0.2896  1.2317  1.0535
 4611SOL    HW214154   3.035   4.647   5.495 -0.3881 -0.0846  0.4447
 4612SOL     OW14155   5.391   1.499   2.971 -0.7791 -0.0103  0.4501
 4612SOL    HW114156   5.320   1.560   2.936  1.3794  0.7203 -3.1840
 4612SOL    HW214157   5.350   1.411   2.997 -3.3295  1.3999  1.5783
 4613SOL     OW14158   3.172   1.367   0.054  0.1609  0.0035 -0.0952
 4613SOL    HW114159   3.198   1.365   0.150  0.2321 -1.8752 -0.1010
 4613SOL    HW214160   3.223   1.438   0.006  0.0530  1.0245  1.2549
 4614SOL     OW14161   3.605   0.185   1.904  0.4677 -0.0926 -0.2147
 4614SOL    HW114162   3.700   0.165   1.878  0.4467  0.0882 -0.4325
 4614SOL    HW214163   3.577   0.124   1.979  0.5495 -0.5695 -0.5682
 4615SOL     OW14164   2.094   0.050   0.088  0.0342 -0.1226  0.4952
 4615SOL    HW114165   2.016   0.094   0.045  0.5510  0.1763 -0.1417
 4615SOL    HW214166   2.178   0.101   0.069  0.4582 -0.6768  0.8053
 4616SOL     OW14167   3.691   3.192   4.997 -0.2296 -0.3712 -0.2062
 4616SOL    HW114168   3.718   3.112   5.050  2.7509 -0.7918 -2.1725
 4616SOL    HW214169   3.643   3.163   4.914 -1.0580  0.0418  0.1146
 4617SOL     OW14170   0.948   0.384   4.494  0.4116  0.2578 -0.2802
 4617SOL    HW114171   0.946   0.343   4.586  1.9264 -0.2511 -0.4503
 4617SOL    HW214172   0.860   0.368   4.449 -0.0923 -0.1385  0.7990
 4618SOL     OW14173   3.720   1.722   4.320  0.3166 -0.3764 -0.0403
 4618SOL    HW114174   3.751   1.817   4.326 -1.1550  0.1675 -0.4938
 4618SOL    HW214175   3.759   1.680   4.237  0.7020 -0.0648 -0.0210
 4619SOL     OW14176   3.675   3.933   1.820 -0.0412  0.2924 -0.1095
 4619SOL    HW114177   3.704   3.965   1.911 -1.2512  0.6028  0.1904
 4619SOL    HW214178   3.621   3.850   1.831 -0.9923  0.8482 -0.4417
 4620SOL     OW14179   1.935   1.574   2.245  0.2952  0.0266 -0.1421
 4620SOL    HW114180   1.852   1.540   2.202  0.6833 -1.6896  0.4010
 4620SOL    HW214181   1.915   1.608   2.336  0.4181 -2.1439  0.7630
 4621SOL     OW14182   1.211   0.474   0.867  0.0836  0.0171 -0.2313
 4621SOL    HW114183   1.145   0.527   0.920  0.4908  0.1251  0.1796
 4621SOL    HW214184   1.164   0.424   0.794 -0.6650 -1.0689  0.9539
 4622SOL     OW14185   0.506   2.983   1.573  0.0296 -0.1335  0.3788
 4622SOL    HW114186   0.526   3.076   1.543 -0.8269  1.4988  4.2437
 4622SOL    HW214187   0.423   2.950   1.527 -0.4460  1.5793 -0.0733
 4623SOL     OW14188   1.381   4.235   4.733 -0.1605 -0.5246 -0.3763
 4623SOL    HW114189   1.360   4.301   4.661 -0.0566 -0.3960 -0.2884
 4623SOL    HW214190   1.296   4.199   4.771 -0.2342 -1.6343 -1.5184
 4624SOL     OW14191   4.293   0.587   2.875 -0.3075  0.5593  0.1512
 4624SOL    HW114192   4.223   0.622   2.812 -1.1256 -0.5032  0.4273
 4624SOL    HW214193   4.283   0.487   2.882  0.6980  0.4992  0.8680
 4625SOL     OW14194   4.177   1.535   0.726 -0.3942  0.4048  0.0137
 4625SOL    HW114195   4.184   1.615   0.786  1.3674  1.2707 -1.2486
 4625SOL    HW214196   4.086   1.533   0.684 -0.5596  1.5898  0.2734
 4626SOL     OW14197   1.597   4.039   0.602 -0.2747  0.3372  0.0679
 4626SOL    HW114198   1.651   4.109   0.556 -1.1904  0.7675 -0.3830
 4626SOL    HW214199   1.509   4.078   0.630 -0.0116 -0.1096  1.5739
 4627SOL     OW14200   5.114   4.055   2.256  0.0400  0.9352 -0.5327
 4627SOL    HW114201   5.087   4.126   2.190 -2.0587  1.7825  1.0925
 4627SOL    HW214202   5.190   4.088   2.312  0.1771  1.2259 -0.8903
 4628SOL     OW14203   0.069   2.561   0.719  0.7044  0.1639 -0.0803
 4628SOL    HW114204   0.149   2.503   0.733  0.1941 -0.6634 -0.4447
 4628SOL    HW214205   0.028   2.539   0.630  1.7954  2.6939 -1.3135
 4629SOL     OW14206   1.276   2.290   3.948  0.0585  0.4631  0.7362
 4629SOL    HW114207   1.209   2.356   3.915 -3.3273 -2.3101  1.5414
 4629SOL    HW214208   1.270   2.282   4.047 -0.6483 -1.9281  0.5778
 4630SOL     OW14209   1.060   3.988   1.700 -0.0494  0.0628  0.2607
 4630SOL    HW114210   1.020   3.945   1.780  1.8977 -0.5930  0.9150
 4630SOL    HW214211   1.029   3.940   1.617 -0.9844 -0.0970  0.6901
 4631SOL     OW14212   0.360   5.489   3.610 -0.2187  0.0077 -0.1650
 4631SOL    HW114213   0.304   5.532   3.540 -0.8712  1.8557  1.4156
 4631SOL    HW214214   0.329   5.395   3.625 -1.8507  0.4795 -0.4498
 4632SOL     OW14215   0.296   1.489   2.388  0.2409 -0.1968  0.0430
 4632SOL    HW114216   0.302   1.528   2.297  2.5092  1.5182  0.8116
 4632SOL    HW214217   0.216   1.429   2.395  0.5887 -1.2543 -3.3523
 4633SOL     OW14218   3.640   4.169   3.257  0.1238 -0.5181 -0.4345
 4633SOL    HW114219   3.559   4.147   3.312  0.1000  0.3541 -0.1024
 4633SOL    HW214220   3.616   4.237   3.188  0.8396  0.6758  0.4609
 4634SOL     OW14221   3.594   5.403   3.065 -0.4164  0.1558  0.3243
 4634SOL    HW114222   3.612   5.461   3.145  1.6664  0.5886 -0.3896
 4634SOL    HW214223   3.508   5.431   3.022  0.5076  2.8070  0.0007
 4635SOL     OW14224   0.256   1.347   3.832  0.2390 -0.0567  0.3024
 4635SOL    HW114225   0.257   1.432   3.885  1.0216 -0.5171  1.0464
 4635SOL    HW214226   0.191   1.283   3.872 -1.0258  0.4901 -0.7881
 4636SOL     OW14227   1.242   1.063   0.541 -0.0038 -0.1128 -0.1528
 4636SOL    HW114228   1.314   1.015   0.491 -0.2899  0.5329 -1.1944
 4636SOL    HW214229   1.262   1.059   0.639  1.3324 -0.1420 -0.4117
 4637SOL     OW14230   1.169   1.236   2.961  0.1955 -0.4450 -0.2616
 4637SOL    HW114231   1.189   1.334   2.970 -0.9660 -0.1675 -0.5696
 4637SOL    HW214232   1.194   1.205   2.870  0.7642 -0.4876 -0.0937
 4638SOL     OW14233   2.192   2.372   0.679  0.2960  0.0177 -0.2525
 4638SOL    HW114234   2.193   2.398   0.775  2.8731  1.0379 -0.4728
 4638SOL    HW214235   2.098   2.371   0.645 -0.5655  0.7689  1.9512
 4639SOL     OW14236   1.835   3.703   2.202  0.4813  0.3246  0.7420
 4639SOL    HW114237   1.878   3.686   2.113 -0.5312 -1.4559  0.5538
 4639SOL    HW214238   1.861   3.631   2.266  0.4600  1.0918  1.6471
 4640SOL     OW14239   4.517   4.776   0.900 -0.6177  0.2477 -0.0554
 4640SOL    HW114240   4.464   4.860   0.888  0.7289  1.1567  0.1020
 4640SOL    HW214241   4.611   4.799   0.926  0.0392 -1.2693 -0.9100
 4641SOL     OW14242   3.499   2.628   5.462 -0.3724  0.0847  0.2572
 4641SOL    HW114243   3.595   2.639   5.489 -0.6605  0.9301  0.9561
 4641SOL    HW214244   3.494   2.609   5.364  0.4986  0.1515  0.1927
 4642SOL     OW14245   0.470   1.051   0.816 -0.3530  0.3890 -0.5496
 4642SOL    HW114246   0.476   1.100   0.903 -0.5715 -1.4175  0.5556
 4642SOL    HW214247   0.547   0.988   0.808 -0.5566  0.2490 -1.4769
 4643SOL     OW14248   3.865   1.551   1.800  0.0542  0.0603 -0.3591
 4643SOL    HW114249   3.824   1.536   1.710 -0.7913 -2.3432  0.3623
 4643SOL    HW214250   3.818   1.627   1.846 -0.1147  0.6982 -1.5632
 4644SOL     OW14251   3.430   3.490   5.351 -0.8361 -0.3411 -0.3838
 4644SOL    HW114252   3.408   3.574   5.301 -1.1164 -0.1424  0.0612
 4644SOL    HW214253   3.494   3.435   5.298  0.4690  0.8232 -0.0637
 4645SOL     OW14254   4.675   3.720   0.912  0.1138  0.3832 -0.2464
 4645SOL    HW114255   4.595   3.686   0.862 -0.4634  0.7734  0.4053
 4645SOL    HW214256   4.645   3.782   0.985  0.8751 -0.8904  1.1954
 4646SOL     OW14257   5.310   2.446   4.434  0.3378  0.2557 -0.2104
 4646SOL    HW114258   5.322   2.346   4.433 -0.4873  0.1059 -2.9537
 4646SOL    HW214259   5.390   2.488   4.476  1.3881 -1.4964 -0.3327
 4647SOL     OW14260   2.285   3.409   0.257  0.3755  0.3698  0.4151
 4647SOL    HW114261   2.351   3.367   0.194 -0.8206 -0.3878 -0.3630
 4647SOL    HW214262   2.254   3.496   0.219 -1.4214 -0.7428 -0.8218
 4648SOL     OW14263   1.173   3.382   3.264  0.1835  0.2534  0.0293
 4648SOL    HW114264   1.119   3.394   3.347 -1.2724 -0.4183 -0.7632
 4648SOL    HW214265   1.193   3.285   3.251 -0.5216  0.2214 -0.9253
 4649SOL     OW14266   2.582   3.936   2.961  0.0177  0.0185  0.0182
 4649SOL    HW114267   2.546   3.887   3.040  1.8015  0.6659  1.2879
 4649SOL    HW214268   2.514   3.936   2.888 -1.0849 -1.9188  0.9770
 4650SOL     OW14269   5.234   3.631   5.329  0.4202 -0.1829  0.5901
 4650SOL    HW114270   5.214   3.576   5.410  0.1434  0.6117  1.0702
 4650SOL    HW214271   5.288   3.711   5.355 -1.7636  1.4548  0.4517
 4651SOL     OW14272   5.455   1.058   1.103  0.0591  0.3766  0.3794
 4651SOL    HW114273   5.492   1.015   1.021 -0.2158  0.0522  0.4220
 4651SOL    HW214274   5.505   1.026   1.184 -1.4060 -1.4301  0.6359
 4652SOL     OW14275   0.457   5.564   1.738  0.0432  0.2244  0.0378
 4652SOL    HW114276   0.504   5.488   1.783 -0.5474 -0.0042  0.2757
 4652SOL    HW214277   0.448   5.543   1.640  1.0374  0.5793 -0.1437
 4653SOL     OW14278   2.799   2.827   2.776 -0.5211 -0.3952 -0.1160
 4653SOL    HW114279   2.760   2.750   2.726 -0.6030 -0.7480  0.4805
 4653SOL    HW214280   2.891   2.846   2.742 -0.5217 -0.7224 -0.3010
 4654SOL     OW14281   0.929   5.347   0.207 -0.0210 -0.6542 -0.3676
 4654SOL    HW114282   0.907   5.273   0.144 -1.1781 -1.0369  0.4456
 4654SOL    HW214283   0.876   5.336   0.291 -0.8271  1.5189 -0.5264
 4655SOL     OW14284   2.341   2.877   4.486  0.1322  0.1120 -0.2817
 4655SOL    HW114285   2.302   2.948   4.545  0.0989 -0.4963  0.4401
 4655SOL    HW214286   2.385   2.920   4.407  0.8680  1.0068  0.5767
 4656SOL     OW14287   1.831   2.317   1.933 -0.2096  0.3094  0.0492
 4656SOL    HW114288   1.873   2.390   1.987 -0.2424  1.7357 -1.7437
 4656SOL    HW214289   1.740   2.296   1.970  0.6626 -0.4238  1.9028
 4657SOL     OW14290   0.386   4.714   4.770  0.8248 -0.0901 -0.0549
 4657SOL    HW114291   0.409   4.764   4.686  0.0404 -0.2277 -0.3593
 4657SOL    HW214292   0.393   4.616   4.753 -0.2479 -0.1450 -0.2429
 4658SOL     OW14293   4.594   4.560   0.746  0.3858  0.2596  0.1895
 4658SOL    HW114294   4.551   4.629   0.804  1.5546  1.2835 -0.1106
 4658SOL    HW214295   4.644   4.495   0.803 -1.2888 -0.8036  0.5237
 4659SOL     OW14296   2.571   4.347   4.313  0.6180  0.1085 -0.2579
 4659SOL    HW114297   2.526   4.372   4.227 -1.7147  0.6665  1.0551
 4659SOL    HW214298   2.566   4.424   4.377  0.3434 -1.0397  1.1440
 4660SOL     OW14299   3.088   1.273   1.939  0.2627  0.5408 -0.7519
 4660SOL    HW114300   3.178   1.309   1.913  1.3537 -2.2459 -1.2772
 4660SOL    HW214301   3.070   1.294   2.035  1.8756  0.5004 -0.4029
 4661SOL     OW14302   0.963   1.707   0.369 -0.0777 -0.0330  0.1067
 4661SOL    HW114303   0.867   1.712   0.395 -0.5700 -2.3452 -1.0175
 4661SOL    HW214304   1.020   1.736   0.447 -1.6240  3.2965  0.1721
 4662SOL     OW14305   2.112   5.411   5.328 -0.5507 -0.0747 -0.2183
 4662SOL    HW114306   2.034   5.468   5.353 -0.3082  1.3662 -2.4885
 4662SOL    HW214307   2.197   5.455   5.358 -0.4729 -0.4590  0.1400
 4663SOL     OW14308   4.654   0.691   0.531 -0.2336 -0.0363  0.2780
 4663SOL    HW114309   4.724   0.638   0.578 -1.6155 -1.7709  0.4668
 4663SOL    HW214310   4.592   0.732   0.598  0.0998  0.8134  0.0823
 4664SOL     OW14311   2.129   1.362   3.270  0.3434  0.7193 -0.4289
 4664SOL    HW114312   2.057   1.399   3.212  0.1856  0.4244 -0.4222
 4664SOL    HW214313   2.103   1.374   3.366  0.7334  1.4665 -0.4050
 4665SOL     OW14314   5.386   1.791   3.721  0.3097 -0.5423 -0.2735
 4665SOL    HW114315   5.331   1.844   3.655  0.3361  0.7151  0.6958
 4665SOL    HW214316   5.359   1.815   3.814  2.3454 -0.0527  0.2396
 4666SOL     OW14317   0.981   1.582   4.758  0.0859  0.5173  0.0615
 4666SOL    HW114318   0.907   1.594   4.824  0.2711 -1.5298  0.7385
 4666SOL    HW214319   0.986   1.661   4.698 -0.0908  2.4789  2.4748
 4667SOL     OW14320   0.423   1.172   2.439  0.4778  0.4452 -0.6277
 4667SOL    HW114321   0.356   1.166   2.365  0.7727 -0.1017 -0.8527
 4667SOL    HW214322   0.493   1.240   2.415 -0.0630  1.1193 -0.3310
 4668SOL     OW14323   5.102   4.909   2.468  0.5916  0.0846 -0.1964
 4668SOL    HW114324   5.201   4.913   2.454  0.9829 -2.3674  1.1930
 4668SOL    HW214325   5.068   4.819   2.441 -1.5841  1.3878 -2.1117
 4669SOL     OW14326   5.313   4.160   4.996  0.3542 -0.2222 -0.3507
 4669SOL    HW114327   5.227   4.156   5.047 -0.3963 -0.3640 -1.5989
 4669SOL    HW214328   5.331   4.072   4.953  0.7231  0.0334 -0.7307
 4670SOL     OW14329   3.636   1.879   1.049 -0.7291  0.4763  0.3639
 4670SOL    HW114330   3.731   1.892   1.079 -0.3191 -1.6862  0.1976
 4670SOL    HW214331   3.609   1.784   1.066 -3.0962  1.1793  0.9644
 4671SOL     OW14332   0.842   2.925   1.443 -0.2288 -0.0295 -0.1608
 4671SOL    HW114333   0.890   2.967   1.366  1.3307  0.1903  0.8679
 4671SOL    HW214334   0.844   2.825   1.434  3.3058 -0.2597  1.3251
 4672SOL     OW14335   4.163   2.585   1.953 -0.0360 -0.7514  0.3405
 4672SOL    HW114336   4.082   2.528   1.966 -0.7442  0.0562 -0.3406
 4672SOL    HW214337   4.134   2.679   1.933  1.0925 -0.1561  1.4071
 4673SOL     OW14338   3.928   0.202   3.894 -0.1108 -0.3875 -0.6832
 4673SOL    HW114339   3.877   0.273   3.845 -0.1968 -0.3642 -0.5584
 4673SOL    HW214340   3.984   0.244   3.965 -0.2062 -0.4497 -0.5704
 4674SOL     OW14341   1.897   3.278   4.346  0.1590  0.0558  0.2398
 4674SOL    HW114342   1.872   3.216   4.420  2.1744 -1.7057 -0.4706
 4674SOL    HW214343   1.895   3.228   4.259 -0.5702  1.6621 -0.7080
 4675SOL     OW14344   1.958   5.070   4.957  0.0960  0.6712 -0.0929
 4675SOL    HW114345   1.942   5.021   5.043  2.3403 -0.1835 -0.0872
 4675SOL    HW214346   1.976   5.004   4.884 -0.5614  1.4162 -0.9483
 4676SOL     OW14347   3.415   3.417   4.801  0.0347  0.3801  0.3833
 4676SOL    HW114348   3.458   3.358   4.734 -1.0563 -1.2056  1.0145
 4676SOL    HW214349   3.437   3.513   4.781  0.8029 -0.1388 -1.4257
 4677SOL     OW14350   4.924   3.502   3.645 -0.3724  0.1822 -0.3133
 4677SOL    HW114351   4.971   3.532   3.728 -0.8224 -0.1217  0.0598
 4677SOL    HW214352   4.882   3.581   3.600 -0.0706  0.3587 -0.2889
 4678SOL     OW14353   5.321   3.891   1.000  0.4839  0.3276 -0.0953
 4678SOL    HW114354   5.300   3.876   1.097  0.8202 -0.6475 -0.1620
 4678SOL    HW214355   5.354   3.984   0.987 -0.4347  0.7697  0.5754
 4679SOL     OW14356   0.138   0.763   2.981  0.2097  0.2859  0.6476
 4679SOL    HW114357   0.181   0.761   2.891 -0.8846  0.0193  0.1188
 4679SOL    HW214358   0.105   0.855   3.001 -2.0762 -0.2256 -0.4779
 4680SOL     OW14359   1.034   2.891   3.286 -0.4594 -0.0934 -0.1655
 4680SOL    HW114360   0.966   2.951   3.328 -0.7428 -0.5047 -0.0199
 4680SOL    HW214361   0.987   2.826   3.225 -0.0626  0.4568 -1.0803
 4681SOL     OW14362   2.599   3.650   1.555  0.5282  0.1580 -0.3726
 4681SOL    HW114363   2.695   3.628   1.571  0.5561  1.0944  0.8434
 4681SOL    HW214364   2.555   3.672   1.642 -0.9078 -0.6922 -0.8537
 4682SOL     OW14365   4.144   4.046   4.530  0.5700 -0.4933  0.0081
 4682SOL    HW114366   4.182   4.016   4.442  0.3679  0.8437 -0.5645
 4682SOL    HW214367   4.054   4.086   4.515 -0.7317 -2.7686  1.2213
 4683SOL     OW14368   0.971   2.628   5.121 -0.2656  0.2005  0.6970
 4683SOL    HW114369   1.027   2.664   5.046 -1.5823  3.0761  0.9417
 4683SOL    HW214370   1.024   2.562   5.174  2.0726  1.0940 -0.4009
 4684SOL     OW14371   5.012   3.362   4.505  0.2879 -0.9696 -0.3558
 4684SOL    HW114372   4.999   3.291   4.436  1.3401 -0.5379 -1.0171
 4684SOL    HW214373   5.100   3.406   4.491 -0.5529  0.8247 -0.2824
 4685SOL     OW14374   4.707   2.718   2.679 -0.4287  0.1611  0.0555
 4685SOL    HW114375   4.761   2.634   2.677 -1.2913 -0.4112  0.0557
 4685SOL    HW214376   4.718   2.767   2.593  0.7272  0.4800  0.3703
 4686SOL     OW14377   3.044   1.216   2.945  0.2965 -0.1863 -0.7597
 4686SOL    HW114378   3.108   1.233   2.870  3.3826 -2.5332  1.0865
 4686SOL    HW214379   2.966   1.164   2.912  0.0805  1.2865 -2.7823
 4687SOL     OW14380   0.603   0.879   4.382 -0.1510 -0.2257 -0.2450
 4687SOL    HW114381   0.662   0.906   4.458  1.0464  1.5000 -1.7104
 4687SOL    HW214382   0.621   0.938   4.303 -1.8456 -1.5053 -1.6636
 4688SOL     OW14383   5.102   1.623   1.957  0.3866  0.3243  0.0399
 4688SOL    HW114384   5.103   1.685   2.035  0.8957  1.6530 -0.9924
 4688SOL    HW214385   5.049   1.664   1.883 -0.7493 -1.2558 -0.0810
 4689SOL     OW14386   3.992   3.200   1.115 -0.4329 -0.5649 -0.3067
 4689SOL    HW114387   4.063   3.130   1.118 -0.7927 -1.0480 -1.9011
 4689SOL    HW214388   3.911   3.163   1.070 -0.8571  0.6786 -0.6136
 4690SOL     OW14389   5.397   3.757   3.314 -0.2114 -0.4662 -0.0800
 4690SOL    HW114390   5.484   3.740   3.362  0.1680 -0.9364 -0.9098
 4690SOL    HW214391   5.321   3.736   3.375  0.2567  0.0448  0.6960
 4691SOL     OW14392   2.861   3.992   2.649  0.3761  0.4225 -0.2731
 4691SOL    HW114393   2.836   3.992   2.746  0.0376  1.6540 -0.3389
 4691SOL    HW214394   2.827   3.909   2.605 -0.1489  0.2176  0.5033
 4692SOL     OW14395   2.579   3.780   5.220 -0.2158  0.4726 -0.1221
 4692SOL    HW114396   2.563   3.773   5.319 -0.1984  0.6544 -0.1048
 4692SOL    HW214397   2.501   3.826   5.177 -0.0458  0.7578 -0.1334
 4693SOL     OW14398   1.509   1.964   4.341 -0.1438 -0.2330  0.6072
 4693SOL    HW114399   1.540   2.059   4.343 -2.0676  0.4566  0.1812
 4693SOL    HW214400   1.560   1.914   4.271 -1.3768  1.3937 -1.5811
 4694SOL     OW14401   0.591   2.219   1.198 -0.2865  0.2379 -0.1059
 4694SOL    HW114402   0.674   2.181   1.157 -0.6295 -0.1902 -0.4127
 4694SOL    HW214403   0.613   2.306   1.244  0.9652 -1.3003  2.4374
 4695SOL     OW14404   4.188   4.369   0.133  0.5065  0.0340 -0.3254
 4695SOL    HW114405   4.139   4.390   0.049  0.5947 -0.9632 -0.6415
 4695SOL    HW214406   4.276   4.416   0.133 -0.5719  2.1597  0.4284
 4696SOL     OW14407   1.663   1.512   2.787 -0.1046  0.5802  0.4929
 4696SOL    HW114408   1.750   1.463   2.801  0.4384  1.2190 -0.4694
 4696SOL    HW214409   1.644   1.517   2.689 -1.1766  0.5587  0.6906
 4697SOL     OW14410   3.279   5.422   5.275 -0.5337  0.2997 -0.2663
 4697SOL    HW114411   3.269   5.492   5.346  0.6412  0.7625 -0.5304
 4697SOL    HW214412   3.246   5.334   5.310  0.9903  0.2745  1.2678
 4698SOL     OW14413   4.492   0.952   2.209  0.4472 -0.2074 -0.2156
 4698SOL    HW114414   4.460   1.020   2.275  0.3685  0.0426 -0.5105
 4698SOL    HW214415   4.565   0.992   2.153  1.4438 -0.8443  0.6053
 4699SOL     OW14416   0.113   1.345   0.642 -0.4954  0.0485 -0.2725
 4699SOL    HW114417   0.124   1.444   0.630 -3.2416  0.7082  1.7067
 4699SOL    HW214418   0.043   1.311   0.578 -1.0968 -0.1726  0.4920
 4700SOL     OW14419   1.069   1.726   3.830 -0.4197  0.5004 -0.6408
 4700SOL    HW114420   1.122   1.727   3.746  1.6687  0.6787  0.6151
 4700SOL    HW214421   1.015   1.810   3.837  0.3765  1.0674 -1.2015
 4701SOL     OW14422   3.850   0.237   1.087  0.2697  0.3947 -0.1157
 4701SOL    HW114423   3.760   0.269   1.056  0.3922  0.4605 -0.4108
 4701SOL    HW214424   3.918   0.261   1.018  0.9134  2.5265  1.1575
 4702SOL     OW14425   5.103   0.645   3.591  0.2609 -0.2219 -0.2061
 4702SOL    HW114426   5.163   0.702   3.648  0.0710 -0.9580  0.7566
 4702SOL    HW214427   5.121   0.663   3.494  1.9234 -0.3231  0.0706
 4703SOL     OW14428   0.362   2.703   2.254 -0.1836 -0.2689 -0.3732
 4703SOL    HW114429   0.409   2.758   2.185 -0.1097  0.5668  0.3321
 4703SOL    HW214430   0.401   2.721   2.344 -2.0220  0.7173  0.3017
 4704SOL     OW14431   4.819   3.945   0.531  0.1173  0.3543  0.1773
 4704SOL    HW114432   4.791   3.975   0.622  0.8994  1.6056  0.0348
 4704SOL    HW214433   4.879   4.014   0.490 -1.7133  0.7621 -2.0623
 4705SOL     OW14434   5.051   3.712   3.058  0.0502 -0.3346  0.4565
 4705SOL    HW114435   5.064   3.634   3.120  0.2575  0.2327  1.1452
 4705SOL    HW214436   5.056   3.681   2.963  1.1465 -1.0080  0.7186
 4706SOL     OW14437   1.623   3.056   2.395  0.0191 -0.0487 -0.1968
 4706SOL    HW114438   1.544   3.001   2.420 -0.5520  1.3495  1.2715
 4706SOL    HW214439   1.707   3.005   2.411 -0.5012 -0.5776  0.9219
 4707SOL     OW14440   1.899   2.518   5.309  0.2927 -0.3105 -0.4219
 4707SOL    HW114441   1.923   2.615   5.303 -1.6998  0.2837  0.3717
 4707SOL    HW214442   1.799   2.508   5.306  0.4109 -2.2628  0.4828
 4708SOL     OW14443   5.415   2.338   1.645 -0.2103 -0.0370  0.0245
 4708SOL    HW114444   5.506   2.379   1.645 -0.1276 -0.2115 -0.5147
 4708SOL    HW214445   5.364   2.368   1.564 -0.9832  0.8181  0.8110
 4709SOL     OW14446   5.274   0.517   4.496 -0.2482  0.0946 -0.5783
 4709SOL    HW114447   5.308   0.460   4.571 -1.0048 -1.4316 -1.3432
 4709SOL    HW214448   5.348   0.576   4.462  0.0586  0.9618  1.4472
 4710SOL     OW14449   4.635   0.495   3.990  0.0079  0.5266 -0.4031
 4710SOL    HW114450   4.602   0.566   4.052 -2.2347 -0.9936  0.2756
 4710SOL    HW214451   4.603   0.405   4.021  0.2019 -0.4843 -2.8435
 4711SOL     OW14452   3.056   1.414   2.702  0.7981  0.0888 -0.1340
 4711SOL    HW114453   2.992   1.449   2.770  1.4648  0.4986  0.2987
 4711SOL    HW214454   3.007   1.395   2.617 -0.0093 -0.2291  0.3898
 4712SOL     OW14455   4.055   3.000   2.798 -0.8534 -0.6176 -0.6028
 4712SOL    HW114456   4.069   3.034   2.891  0.8314 -2.2587 -0.1845
 4712SOL    HW214457   3.958   3.004   2.774 -1.4535 -1.0385  1.5971
 4713SOL     OW14458   4.718   5.422   5.339  0.0879 -0.2700  0.0756
 4713SOL    HW114459   4.739   5.369   5.257 -1.7926  1.2370 -1.4946
 4713SOL    HW214460   4.690   5.515   5.312  1.5531  1.0099  2.5832
 4714SOL     OW14461   3.515   0.059   2.129  0.2886 -0.2932  0.4076
 4714SOL    HW114462   3.540  -0.022   2.183  0.4513  1.4157  3.0412
 4714SOL    HW214463   3.423   0.089   2.154  0.1068  0.1844 -0.7705
 4715SOL     OW14464   3.597   0.731   2.209 -0.1851 -0.1096  0.9786
 4715SOL    HW114465   3.521   0.707   2.149  0.2797 -0.1614  0.4044
 4715SOL    HW214466   3.629   0.649   2.256  0.3281 -0.3182  0.2703
 4716SOL     OW14467   5.244   3.522   4.493  0.3050 -0.6620 -0.1194
 4716SOL    HW114468   5.258   3.615   4.459 -2.2420  0.0175  0.5134
 4716SOL    HW214469   5.308   3.460   4.447  0.7382  1.0657 -2.0065
 4717SOL     OW14470   3.570   4.593   5.189  0.4407  0.7240  0.4815
 4717SOL    HW114471   3.507   4.640   5.251 -0.9386  0.5451 -0.7334
 4717SOL    HW214472   3.595   4.654   5.114  1.1079  0.5253  0.5351
 4718SOL     OW14473   4.560   1.974   1.486  0.5750 -0.2126 -0.1420
 4718SOL    HW114474   4.609   1.934   1.408  0.1914 -0.1058 -0.4394
 4718SOL    HW214475   4.475   2.016   1.454  1.7383  2.3402 -0.1370
 4719SOL     OW14476   1.069   1.910   1.986  0.5023  0.1299 -0.0161
 4719SOL    HW114477   1.035   1.834   2.041  0.0420  0.4122  0.1008
 4719SOL    HW214478   0.995   1.976   1.972  0.9912  0.7372  0.1998
 4720SOL     OW14479   0.384   1.208   1.734 -0.1957  0.1819  0.1476
 4720SOL    HW114480   0.411   1.112   1.746  1.8816  0.8049  0.7371
 4720SOL    HW214481   0.352   1.221   1.640  1.2956 -0.6994 -0.5227
 4721SOL     OW14482   1.725   2.647   4.694 -0.5766 -0.5680  0.3300
 4721SOL    HW114483   1.756   2.683   4.605 -1.3362  0.5496  0.4969
 4721SOL    HW214484   1.786   2.573   4.722  1.3872  0.8884  0.1782
 4722SOL     OW14485   3.955   0.952   3.613 -0.2094 -0.3389 -0.0206
 4722SOL    HW114486   3.908   0.907   3.537 -1.6818  0.4013  0.4144
 4722SOL    HW214487   3.953   0.892   3.693 -0.5362 -0.2482  0.0384
 4723SOL     OW14488   3.589   4.067   5.026 -0.3010 -0.1379  0.7439
 4723SOL    HW114489   3.629   4.095   5.113  1.6206  0.0545 -0.1571
 4723SOL    HW214490   3.592   4.143   4.961 -1.4039 -0.3782  0.3914
 4724SOL     OW14491   1.036   1.581   3.127  0.3974 -0.0513  0.5386
 4724SOL    HW114492   0.974   1.502   3.129 -0.6502  0.6779 -1.0404
 4724SOL    HW214493   1.114   1.560   3.068 -0.3554  0.3711 -0.6568
 4725SOL     OW14494   1.558   3.439   4.684  0.3317  0.5406 -0.2796
 4725SOL    HW114495   1.490   3.372   4.712  0.6797  0.9776  1.7879
 4725SOL    HW214496   1.513   3.526   4.663 -0.0573 -0.1127 -2.4057
 4726SOL     OW14497   3.914   1.919   1.061 -0.2653  0.6217 -0.5776
 4726SOL    HW114498   3.927   1.927   1.160  3.4186  0.7094 -0.9369
 4726SOL    HW214499   3.967   1.842   1.027 -1.6390  0.4717 -2.5212
 4727SOL     OW14500   4.512   3.119   1.465  0.1587 -0.4142 -0.1807
 4727SOL    HW114501   4.429   3.167   1.435 -0.3900 -1.1364  0.1390
 4727SOL    HW214502   4.576   3.112   1.389  0.6755  1.6631  0.0150
 4728SOL     OW14503   3.999   1.762   2.990  0.1475 -0.1278 -0.3574
 4728SOL    HW114504   4.036   1.740   3.081  2.7147 -2.2069 -1.7571
 4728SOL    HW214505   4.045   1.843   2.954  0.6302 -0.4784 -0.5555
 4729SOL     OW14506   1.641   1.864   3.544 -0.4577  0.0995 -0.4620
 4729SOL    HW114507   1.692   1.803   3.483  0.9706  0.5402  0.2438
 4729SOL    HW214508   1.570   1.812   3.591 -1.5317 -0.2713 -2.3866
 4730SOL     OW14509   1.369   3.023   0.835 -0.1153  0.1205 -0.0183
 4730SOL    HW114510   1.325   2.937   0.812  3.7862 -1.9273 -0.6935
 4730SOL    HW214511   1.314   3.099   0.799 -3.5932 -1.9583  0.4317
 4731SOL     OW14512   2.332   3.879   5.142 -0.4406  0.1625 -0.5764
 4731SOL    HW114513   2.296   3.933   5.066 -1.5476 -1.4036 -1.2177
 4731SOL    HW214514   2.258   3.826   5.184  0.6800 -1.2980 -0.3570
 4732SOL     OW14515   0.830   5.323   3.550  0.3789  0.1267 -0.2504
 4732SOL    HW114516   0.774   5.406   3.550  0.9340  0.5364 -1.5696
 4732SOL    HW214517   0.915   5.340   3.601 -0.1080 -0.0851  0.6504
 4733SOL     OW14518   3.167   4.073   2.345  0.4016  0.2017  0.6496
 4733SOL    HW114519   3.082   4.054   2.295 -0.4124  1.4230  1.5102
 4733SOL    HW214520   3.145   4.119   2.431  2.0321  2.4401 -0.0363
 4734SOL     OW14521   1.390   3.868   3.256 -0.0876 -0.3415  0.1509
 4734SOL    HW114522   1.318   3.937   3.246 -1.2320 -1.5537 -0.1358
 4734SOL    HW214523   1.451   3.895   3.330  0.2049  1.5905 -0.7292
 4735SOL     OW14524   1.813   3.634   1.095 -0.1716  0.1914 -0.7258
 4735SOL    HW114525   1.728   3.685   1.085  0.2760  0.9439 -0.7526
 4735SOL    HW214526   1.800   3.540   1.064 -0.5727  0.7133 -2.1733
 4736SOL     OW14527   3.633   1.753   3.541 -0.2833 -0.0144 -0.6317
 4736SOL    HW114528   3.548   1.702   3.527 -1.3075  1.8570 -1.5782
 4736SOL    HW214529   3.710   1.699   3.508 -1.2753 -1.1166 -1.2133
 4737SOL     OW14530   0.423   1.958   3.751 -0.0385 -0.0714  0.4531
 4737SOL    HW114531   0.397   2.032   3.813  0.6600  0.3593  0.2433
 4737SOL    HW214532   0.523   1.952   3.746 -0.0821 -0.1495 -0.5685
 4738SOL     OW14533   2.153   4.558   0.399  0.8276 -0.2185  0.1235
 4738SOL    HW114534   2.252   4.541   0.393  1.0340  0.5701  1.0688
 4738SOL    HW214535   2.137   4.654   0.421 -0.2210  0.1123 -1.8022
 4739SOL     OW14536   2.658   1.052   2.465  0.4712 -0.1113 -0.3877
 4739SOL    HW114537   2.633   1.043   2.562  0.5155 -1.1241 -0.4687
 4739SOL    HW214538   2.604   1.126   2.424  1.4705  1.3104  0.7530
 4740SOL     OW14539   0.764   2.345   0.497 -0.1191 -0.1812 -0.4130
 4740SOL    HW114540   0.700   2.361   0.573  0.1650  1.1931 -0.4300
 4740SOL    HW214541   0.779   2.247   0.486  0.1132 -0.3985  1.5332
 4741SOL     OW14542   3.873   2.123   0.275  0.2541 -0.0805 -0.1936
 4741SOL    HW114543   3.913   2.062   0.344 -0.5390 -0.6471 -0.2155
 4741SOL    HW214544   3.934   2.129   0.196  0.6426 -0.3284  0.0864
 4742SOL     OW14545   0.922   5.091   5.023 -0.5964 -0.2666  0.1014
 4742SOL    HW114546   0.978   5.034   4.962 -0.9740 -2.3398  1.5590
 4742SOL    HW214547   0.833   5.107   4.981  0.3633  1.4768 -1.4212
 4743SOL     OW14548   1.552   1.923   3.925 -0.0541 -0.6236  0.5094
 4743SOL    HW114549   1.464   1.969   3.915 -0.0351 -0.8493 -0.8324
 4743SOL    HW214550   1.539   1.824   3.916  0.3861 -0.6286 -0.1588
 4744SOL     OW14551   1.105   3.697   0.420 -0.5993  0.3959 -0.0964
 4744SOL    HW114552   1.108   3.718   0.322 -1.3538  1.5500  0.1116
 4744SOL    HW214553   1.160   3.764   0.470 -0.5293  0.0384  0.3126
 4745SOL     OW14554   2.259   2.310   4.898 -0.2873 -0.1191  0.4242
 4745SOL    HW114555   2.210   2.230   4.866 -0.4393 -0.3136  1.1277
 4745SOL    HW214556   2.209   2.352   4.974  0.7507 -0.4855  1.3423
 4746SOL     OW14557   5.100   3.475   2.150  0.2497 -0.2138 -0.1359
 4746SOL    HW114558   5.130   3.547   2.087  1.1460 -2.0526 -1.9290
 4746SOL    HW214559   5.025   3.424   2.108 -0.0181 -0.6650  0.8757
 4747SOL     OW14560   4.303   3.863   0.213 -0.7280 -0.2226  0.0693
 4747SOL    HW114561   4.312   3.786   0.151 -0.3801 -0.8549  0.8783
 4747SOL    HW214562   4.350   3.842   0.299 -1.1485  0.6458  0.5267
 4748SOL     OW14563   3.974   5.262   4.005  0.1519  0.3313  0.0778
 4748SOL    HW114564   3.948   5.292   4.097 -0.4766  1.9211 -0.5821
 4748SOL    HW214565   3.996   5.164   4.007 -0.7193  0.1271  1.7373
 4749SOL     OW14566   0.317   0.626   5.089  0.5351  0.0587 -0.0298
 4749SOL    HW114567   0.382   0.702   5.084 -0.5322  0.9801 -0.2112
 4749SOL    HW214568   0.332   0.575   5.174  0.1790  1.4949  0.9280
 4750SOL     OW14569   3.153   4.165   1.013 -0.5387  0.0432  0.5132
 4750SOL    HW114570   3.150   4.263   1.032  1.0469  0.1364  0.4106
 4750SOL    HW214571   3.248   4.136   1.003 -1.0127 -1.3771 -0.1494
 4751SOL     OW14572   4.919   1.171   0.109 -0.2625  0.0640  0.5592
 4751SOL    HW114573   4.951   1.140   0.198 -2.0593 -2.2160  0.5014
 4751SOL    HW214574   4.853   1.105   0.072 -0.5806  1.6091 -1.8730
 4752SOL     OW14575   2.697   0.762   4.293 -0.6316  0.5139  0.3229
 4752SOL    HW114576   2.754   0.818   4.352 -0.8673  1.2678 -0.1458
 4752SOL    HW214577   2.623   0.721   4.346 -1.4355  1.9886  0.3930
 4753SOL     OW14578   4.043   2.219   5.146  0.7048 -0.2749  0.0796
 4753SOL    HW114579   4.070   2.138   5.095  0.1675  0.6550 -1.7837
 4753SOL    HW214580   3.944   2.221   5.155  0.5321  1.0755 -1.5960
 4754SOL     OW14581   1.874   5.190   0.360  0.1684 -0.0636  0.1708
 4754SOL    HW114582   1.804   5.253   0.393  1.0256  0.5946  0.7748
 4754SOL    HW214583   1.941   5.173   0.432 -0.4252 -2.2672  0.2704
 4755SOL     OW14584   2.606   5.356   1.300  0.6094  0.1342 -0.2294
 4755SOL    HW114585   2.696   5.371   1.341  0.7435  0.8075 -0.7581
 4755SOL    HW214586   2.543   5.426   1.332  0.4290  0.0211 -0.3365
 4756SOL     OW14587   3.010   3.352   0.269 -0.3022  0.1420 -0.2725
 4756SOL    HW114588   3.005   3.268   0.323  0.4086 -1.0930 -2.0171
 4756SOL    HW214589   3.056   3.423   0.322 -0.6469 -0.6506  1.1413
 4757SOL     OW14590   4.595   4.796   1.626  0.1716 -0.0118 -0.4381
 4757SOL    HW114591   4.620   4.728   1.557  0.5564  0.3450 -0.6493
 4757SOL    HW214592   4.677   4.829   1.672  0.0382  0.7112 -0.7134
 4758SOL     OW14593   4.547   2.694   4.259 -0.3422  0.0930 -0.2541
 4758SOL    HW114594   4.502   2.723   4.175 -1.1334  0.8609  0.4166
 4758SOL    HW214595   4.646   2.689   4.244 -0.4884  0.0520 -1.2675
 4759SOL     OW14596   4.344   4.270   5.047  0.2172  0.6738  0.0803
 4759SOL    HW114597   4.401   4.318   4.980  3.0078  0.3620  2.0414
 4759SOL    HW214598   4.354   4.171   5.034 -3.2831  0.4271 -2.1302
 4760SOL     OW14599   0.635   0.685   4.851  0.3272  0.3087 -0.1459
 4760SOL    HW114600   0.647   0.606   4.911 -0.5983 -0.1310 -0.5100
 4760SOL    HW214601   0.665   0.661   4.759  2.1208  1.1092  0.1934
 4761SOL     OW14602   2.180   2.898   2.923  0.1882  0.2672  0.2406
 4761SOL    HW114603   2.152   2.814   2.969  1.6415 -0.0208  0.6628
 4761SOL    HW214604   2.115   2.920   2.851  0.8920 -2.4658 -1.4121
 4762SOL     OW14605   3.100   1.414   4.986  0.1642  0.0378 -0.3930
 4762SOL    HW114606   3.036   1.478   4.942 -0.1252  1.2382  1.6755
 4762SOL    HW214607   3.049   1.333   5.016  0.1906 -0.3471 -1.3285
 4763SOL     OW14608   3.626   5.053   1.000  0.2032  0.1946 -0.2563
 4763SOL    HW114609   3.724   5.052   0.980  0.2718 -0.1468  0.0695
 4763SOL    HW214610   3.609   5.110   1.081  0.2337 -0.3555  0.1450
 4764SOL     OW14611   1.688   5.003   0.679 -0.0910 -0.2734 -0.1988
 4764SOL    HW114612   1.603   4.950   0.678  0.4359 -1.1326 -1.3767
 4764SOL    HW214613   1.759   4.953   0.630  0.5112  1.4069 -1.0963
 4765SOL     OW14614   1.644   3.005   0.933 -0.0476  0.3256  0.4453
 4765SOL    HW114615   1.668   3.094   0.893 -0.3514  0.7619  1.2090
 4765SOL    HW214616   1.548   2.985   0.913  0.0693  0.0720  0.1161
 4766SOL     OW14617   2.337   1.964   1.547 -1.2186 -0.0363  0.0386
 4766SOL    HW114618   2.347   2.049   1.598 -2.6651  2.8770 -3.9535
 4766SOL    HW214619   2.248   1.962   1.502  0.5873 -1.0706 -4.0252
 4767SOL     OW14620   4.517   5.407   0.266  0.0430  0.2420  1.0630
 4767SOL    HW114621   4.467   5.489   0.295 -0.2007  0.5362 -0.1490
 4767SOL    HW214622   4.599   5.396   0.323  1.1500  2.4566  0.0070
 4768SOL     OW14623   2.064   2.366   5.454 -0.2243  0.0992 -0.1567
 4768SOL    HW114624   2.018   2.293   5.504 -1.6752  0.9236 -0.2195
 4768SOL    HW214625   1.999   2.410   5.392  1.2405 -0.1414 -1.9469
 4769SOL     OW14626   2.573   0.916   4.694  0.2208  0.1013  0.4834
 4769SOL    HW114627   2.643   0.851   4.664  1.0645  1.8059 -1.4341
 4769SOL    HW214628   2.521   0.875   4.769  1.0550 -2.5516 -0.2560
 4770SOL     OW14629   5.388   4.113   3.272 -0.6668  0.4748  0.2589
 4770SOL    HW114630   5.370   4.037   3.210 -1.0069 -0.5881  1.6321
 4770SOL    HW214631   5.420   4.192   3.219 -0.7824 -0.4514 -1.2369
 4771SOL     OW14632   0.439   0.681   2.064  0.6224 -0.3754 -0.8725
 4771SOL    HW114633   0.372   0.608   2.055 -0.9175  0.6967  1.1517
 4771SOL    HW214634   0.392   0.769   2.076  2.3572  0.3993  0.8479
 4772SOL     OW14635   3.059   1.601   4.413  0.3627  0.0948  0.0124
 4772SOL    HW114636   3.037   1.562   4.324 -0.1572 -1.7080  0.8866
 4772SOL    HW214637   2.986   1.665   4.439  0.6483  0.8347 -0.9441
 4773SOL     OW14638   3.611   3.021   3.222 -0.4803  0.2463  0.7275
 4773SOL    HW114639   3.529   3.041   3.168  1.1622 -0.1828 -2.1162
 4773SOL    HW214640   3.619   2.922   3.235  1.1177 -0.0504 -1.8187
 4774SOL     OW14641   1.753   2.345   0.206  0.2329  0.3402 -0.1067
 4774SOL    HW114642   1.741   2.315   0.300  0.5726  2.3394  0.6301
 4774SOL    HW214643   1.828   2.411   0.201 -2.1717  3.2270 -1.0286
 4775SOL     OW14644   0.753   4.370   3.307  0.7745  0.3284 -1.1465
 4775SOL    HW114645   0.766   4.448   3.367  2.1517 -0.5028 -0.3071
 4775SOL    HW214646   0.727   4.290   3.361 -5.2333  1.0007 -2.3092
 4776SOL     OW14647   0.731   1.645   3.673 -0.1139  0.0584  0.3179
 4776SOL    HW114648   0.639   1.609   3.688  0.6213 -1.5507  1.2899
 4776SOL    HW214649   0.730   1.744   3.680 -1.7693  0.0753  0.2770
 4777SOL     OW14650   1.698   4.439   0.352 -0.3907  0.0301  0.3468
 4777SOL    HW114651   1.718   4.535   0.368 -0.4379  0.1432 -0.2451
 4777SOL    HW214652   1.608   4.416   0.389 -0.2739  0.1541  0.7046
 4778SOL     OW14653   4.289   3.272   3.893 -0.5242 -0.3727 -0.3056
 4778SOL    HW114654   4.323   3.366   3.891 -1.4457 -0.0312 -0.3255
 4778SOL    HW214655   4.326   3.222   3.814 -0.0451 -0.0308 -0.3058
 4779SOL     OW14656   4.866   2.747   0.109 -0.4308 -0.3406  0.1673
 4779SOL    HW114657   4.891   2.665   0.161 -0.6162 -0.1600  0.5460
 4779SOL    HW214658   4.784   2.788   0.149 -1.1816 -0.7684 -0.8862
 4780SOL     OW14659   2.558   5.394   2.911  0.4539  0.0964 -0.5185
 4780SOL    HW114660   2.458   5.403   2.911  0.4673  0.2445 -0.8815
 4780SOL    HW214661   2.599   5.472   2.864  0.6295 -1.1845 -2.6217
 4781SOL     OW14662   2.134   3.175   0.296  0.1763 -0.3564 -0.1480
 4781SOL    HW114663   2.195   3.246   0.259 -1.4336  0.7871 -0.6940
 4781SOL    HW214664   2.047   3.215   0.323 -0.0435 -1.8026  1.5290
 4782SOL     OW14665   3.766   2.423   0.201 -0.3113  0.0861  0.6311
 4782SOL    HW114666   3.728   2.334   0.173  0.6679  0.3360 -1.7444
 4782SOL    HW214667   3.866   2.418   0.201 -0.2152  0.3817  3.5207
 4783SOL     OW14668   4.805   3.780   3.646 -0.1294  0.1973 -0.6724
 4783SOL    HW114669   4.766   3.845   3.711 -0.3144 -0.2955 -0.2840
 4783SOL    HW214670   4.731   3.729   3.602  0.0753 -0.9280  0.2585
 4784SOL     OW14671   0.101   3.957   1.603 -0.8110 -0.4431  0.0697
 4784SOL    HW114672   0.121   4.053   1.625  0.9072 -1.2428  2.4353
 4784SOL    HW214673   0.142   3.933   1.515 -0.0794  0.6430  0.0978
 4785SOL     OW14674   2.888   5.347   5.065 -0.2909  0.1125  0.1094
 4785SOL    HW114675   2.872   5.298   5.151  0.1907 -0.3849 -0.0836
 4785SOL    HW214676   2.903   5.281   4.991 -3.2591  0.4169 -0.9149
 4786SOL     OW14677   3.636   4.335   0.386  0.1552  0.0526 -0.0775
 4786SOL    HW114678   3.570   4.372   0.452 -1.4573  0.3304 -1.7686
 4786SOL    HW214679   3.677   4.252   0.423 -1.6555 -0.5143  0.7709
 4787SOL     OW14680   1.694   0.733   3.612 -0.3277  0.0803 -0.6637
 4787SOL    HW114681   1.596   0.726   3.595 -0.1595  0.1767 -1.7407
 4787SOL    HW214682   1.723   0.827   3.597 -0.2082  0.2478  0.5045
 4788SOL     OW14683   2.465   1.368   2.972  1.0300 -0.1509  0.0222
 4788SOL    HW114684   2.469   1.464   2.997  1.0532 -0.3877  0.9793
 4788SOL    HW214685   2.445   1.313   3.054 -0.2446 -0.8554 -0.7276
 4789SOL     OW14686   3.198   0.818   4.310  0.0122 -0.4584  0.1142
 4789SOL    HW114687   3.129   0.767   4.260  1.7229 -1.4065 -1.4029
 4789SOL    HW214688   3.181   0.916   4.299 -1.2465 -0.6704  0.0429
 4790SOL     OW14689   3.802   2.281   0.477  0.1742  0.4982  0.2486
 4790SOL    HW114690   3.709   2.311   0.458 -0.7648 -1.4196  1.5008
 4790SOL    HW214691   3.833   2.217   0.406  0.5973  1.1959 -0.2111
 4791SOL     OW14692   3.320   5.339   2.522 -0.4107  0.5487  0.2713
 4791SOL    HW114693   3.311   5.255   2.467 -3.0568 -0.8937  2.6246
 4791SOL    HW214694   3.340   5.315   2.617 -2.0989  2.4566  1.2007
 4792SOL     OW14695   5.424   4.258   2.072 -0.1299 -0.2630  0.4053
 4792SOL    HW114696   5.354   4.301   2.129  0.4843  0.4786  0.6250
 4792SOL    HW214697   5.473   4.190   2.125  0.9753  0.9849  1.0518
 4793SOL     OW14698   4.518   1.245   1.762  0.5546 -0.0325  0.4755
 4793SOL    HW114699   4.421   1.267   1.747 -0.0554 -1.2184  2.3246
 4793SOL    HW214700   4.555   1.305   1.832  1.6214  1.3682 -1.2026
 4794SOL     OW14701   3.392   3.336   1.061 -0.5275 -0.2328 -0.4894
 4794SOL    HW114702   3.469   3.399   1.061  1.0812 -2.0611 -2.0070
 4794SOL    HW214703   3.315   3.377   1.012 -0.3166  1.3512  0.4396
 4795SOL     OW14704   4.206   4.816   0.599 -0.7226 -0.0156  0.1603
 4795SOL    HW114705   4.218   4.905   0.643 -1.8165 -0.5522  1.6154
 4795SOL    HW214706   4.123   4.818   0.543 -1.5353 -0.5419  1.3352
 4796SOL     OW14707   3.313   1.797   3.175  0.5452  0.6215  0.6741
 4796SOL    HW114708   3.275   1.829   3.262 -0.8206 -0.3931  0.4908
 4796SOL    HW214709   3.409   1.773   3.187  0.5355  1.0771  1.7409
 4797SOL     OW14710   2.963   5.496   0.202 -0.2426  0.2063 -0.4118
 4797SOL    HW114711   2.951   5.450   0.290 -0.7714  0.1319 -0.5180
 4797SOL    HW214712   3.021   5.440   0.143  1.1909  0.8654  0.3344
 4798SOL     OW14713   2.577   1.039   0.533  0.2344  0.2627  0.6330
 4798SOL    HW114714   2.567   1.101   0.610  1.3388 -0.3370  1.2801
 4798SOL    HW214715   2.497   0.978   0.528 -0.0848  0.6486  0.9827
 4799SOL     OW14716   0.202   2.187   1.716  0.4582 -0.2625  0.2882
 4799SOL    HW114717   0.143   2.268   1.716  0.4276 -0.2837 -0.2016
 4799SOL    HW214718   0.269   2.194   1.643  1.6250  0.1522  1.3567
 4800SOL     OW14719   1.324   4.358   4.076  0.1036 -0.2556 -0.5225
 4800SOL    HW114720   1.366   4.447   4.090  0.7708 -0.7439  0.7084
 4800SOL    HW214721   1.231   4.370   4.041  0.2001  0.9173 -0.3991
 4801SOL     OW14722   2.068   4.910   0.757 -0.1649 -0.1541  0.2911
 4801SOL    HW114723   2.046   4.973   0.831 -1.1318 -2.7259  2.3577
 4801SOL    HW214724   2.123   4.834   0.792 -2.8817 -2.8855 -0.8744
 4802SOL     OW14725   3.924   4.735   1.236  0.4586  0.5431 -0.3912
 4802SOL    HW114726   3.911   4.811   1.299  1.7518  2.0024 -1.8054
 4802SOL    HW214727   3.858   4.741   1.161 -0.5965 -0.7733  0.3852
 4803SOL     OW14728   0.568   3.351   5.498 -0.2107 -0.1428  0.0464
 4803SOL    HW114729   0.542   3.446   5.480 -2.5087 -0.6594  0.3317
 4803SOL    HW214730   0.645   3.325   5.440 -1.8652  0.8056 -2.7613
 4804SOL     OW14731   3.193   0.247   4.246 -0.5538 -0.1869 -0.4289
 4804SOL    HW114732   3.124   0.177   4.228 -0.9620  0.2128 -0.4373
 4804SOL    HW214733   3.221   0.242   4.342  0.2983 -1.1363 -0.7124
 4805SOL     OW14734   2.959   1.678   3.393  0.0128  0.4628  0.2247
 4805SOL    HW114735   2.953   1.777   3.378  1.0837  0.8612  2.1647
 4805SOL    HW214736   2.949   1.658   3.490 -1.8069 -1.5310 -0.3016
 4806SOL     OW14737   0.118   4.112   0.862 -0.5572 -0.3284  0.2335
 4806SOL    HW114738   0.147   4.189   0.805 -0.1814 -0.9514 -0.4247
 4806SOL    HW214739   0.198   4.074   0.909 -0.8824  0.2739  1.3162
 4807SOL     OW14740   4.363   1.383   3.497 -0.6748  0.0166 -0.5418
 4807SOL    HW114741   4.363   1.386   3.397 -2.0115  0.5476 -0.5414
 4807SOL    HW214742   4.442   1.433   3.533 -1.0893  1.2394 -1.3066
 4808SOL     OW14743   5.197   4.438   5.232 -0.4913 -0.5510  0.3011
 4808SOL    HW114744   5.146   4.359   5.199 -0.4804 -0.6290  0.4682
 4808SOL    HW214745   5.197   4.510   5.163  1.3436 -1.5038 -0.7890
 4809SOL     OW14746   3.258   0.225   4.511 -0.4445  0.3193 -0.0502
 4809SOL    HW114747   3.248   0.319   4.543  0.4615  0.7580 -0.9989
 4809SOL    HW214748   3.318   0.174   4.573  0.0391  0.7131 -0.1917
 4810SOL     OW14749   0.651   1.452   1.969 -0.3414 -0.0897  0.0845
 4810SOL    HW114750   0.684   1.378   2.027  0.7790  0.3330  0.0027
 4810SOL    HW214751   0.724   1.518   1.954 -1.4106  1.2196  0.4257
 4811SOL     OW14752   5.365   0.372   4.688 -0.0154  0.8456  0.1281
 4811SOL    HW114753   5.461   0.401   4.684  0.8301 -0.9338  3.2647
 4811SOL    HW214754   5.319   0.420   4.762 -1.0930  0.5391 -0.3266
 4812SOL     OW14755   1.596   4.049   1.132 -0.2118  0.3215 -0.1896
 4812SOL    HW114756   1.637   4.058   1.223 -1.6760  0.5970  0.4831
 4812SOL    HW214757   1.564   4.139   1.101 -0.0881  0.1582 -0.8157
 4813SOL     OW14758   1.796   4.438   2.406 -0.2605 -0.3627 -0.2317
 4813SOL    HW114759   1.806   4.511   2.339  1.8341  1.1551  1.5883
 4813SOL    HW214760   1.778   4.477   2.496  0.9811 -2.0663  0.8192
 4814SOL     OW14761   0.219   2.746   4.565 -0.3265  0.4327  0.0874
 4814SOL    HW114762   0.291   2.756   4.633 -0.2614  1.4441 -0.1106
 4814SOL    HW214763   0.218   2.827   4.506 -0.5548 -0.3110 -0.9450
 4815SOL     OW14764   0.677   5.377   1.702 -0.6010  0.4598 -0.6226
 4815SOL    HW114765   0.758   5.422   1.663 -1.6060  2.0966 -0.9070
 4815SOL    HW214766   0.634   5.321   1.632  0.2010 -0.3349 -0.5024
 4816SOL     OW14767   1.043   5.172   4.462  0.0381 -0.0293 -0.8365
 4816SOL    HW114768   1.102   5.094   4.481  0.8888  0.9726  0.8914
 4816SOL    HW214769   0.997   5.159   4.374  0.4506 -2.2675 -0.7681
 4817SOL     OW14770   1.371   0.907   1.223  0.5471  0.2522 -0.1639
 4817SOL    HW114771   1.449   0.953   1.180  0.3829 -0.4236 -1.2199
 4817SOL    HW214772   1.361   0.940   1.317  0.3562  2.4577 -0.8883
 4818SOL     OW14773   2.415   4.671   5.229  1.0598 -0.1287 -0.2050
 4818SOL    HW114774   2.392   4.633   5.319  0.7690  0.0535 -0.2006
 4818SOL    HW214775   2.371   4.760   5.218 -0.5765 -1.0148 -1.3094
 4819SOL     OW14776   1.499   3.366   3.698  0.2741  0.0324 -0.5098
 4819SOL    HW114777   1.598   3.375   3.697  0.2655  0.2639  0.4259
 4819SOL    HW214778   1.457   3.457   3.709  0.0401 -0.3037  1.9338
 4820SOL     OW14779   0.728   0.052   0.301  0.4090  0.3876  0.2542
 4820SOL    HW114780   0.673   0.112   0.243 -0.4349 -1.6251 -1.1159
 4820SOL    HW214781   0.824   0.078   0.292  0.1202  1.2220 -0.6840
 4821SOL     OW14782   2.054   0.414   4.430 -0.4137 -0.1386 -0.3725
 4821SOL    HW114783   1.993   0.365   4.367  1.3238 -2.5979 -0.3150
 4821SOL    HW214784   2.026   0.396   4.524 -1.0403  0.7702 -0.3825
 4822SOL     OW14785   4.399   4.023   2.043 -0.0785  0.4652  0.0441
 4822SOL    HW114786   4.417   4.122   2.038  1.7741  0.3234  2.3779
 4822SOL    HW214787   4.445   3.978   1.966 -0.9315  1.3771 -1.0409
 4823SOL     OW14788   0.360   5.035   1.467  0.3333  0.3445  0.1888
 4823SOL    HW114789   0.408   4.953   1.436  0.2077 -0.2241  1.4466
 4823SOL    HW214790   0.275   5.008   1.512 -0.4664  1.2619 -0.7145
 4824SOL     OW14791   2.240   2.060   1.081 -0.0636 -0.5935 -0.2121
 4824SOL    HW114792   2.280   2.149   1.061  1.0980 -0.3754  2.5761
 4824SOL    HW214793   2.159   2.046   1.024 -0.3990  2.3183 -0.6039
 4825SOL     OW14794   2.285   2.593   3.942  1.0138  0.1839  0.7081
 4825SOL    HW114795   2.250   2.538   4.018  0.4250  0.6765  0.7962
 4825SOL    HW214796   2.328   2.676   3.977 -1.3034  1.5938  0.4596
 4826SOL     OW14797   4.926   2.358   1.743  0.2459 -0.2123 -0.5013
 4826SOL    HW114798   4.895   2.396   1.655 -1.0332  1.0316  0.4296
 4826SOL    HW214799   4.977   2.274   1.727  0.8362  0.4683 -2.4916
 4827SOL     OW14800   2.820   0.854   3.317 -0.8032 -0.0574  0.0367
 4827SOL    HW114801   2.876   0.936   3.328 -1.3676  0.4457 -0.7327
 4827SOL    HW214802   2.767   0.839   3.401 -0.3612  0.1038  0.3478
 4828SOL     OW14803   5.510   0.828   4.628  0.0700  0.6043  0.0113
 4828SOL    HW114804   5.487   0.905   4.568  0.4337 -0.1056 -1.0428
 4828SOL    HW214805   5.579   0.858   4.694 -0.4952  1.4491  0.2513
 4829SOL     OW14806   4.194   3.886   1.014  0.1032  0.0236 -0.1903
 4829SOL    HW114807   4.214   3.790   0.996 -0.7742  0.0175 -1.3015
 4829SOL    HW214808   4.232   3.943   0.940 -1.6226  0.2369 -0.9939
 4830SOL     OW14809   5.399   0.752   0.478  0.1992  0.3722  0.4890
 4830SOL    HW114810   5.496   0.746   0.502  0.2329 -0.6069  0.1797
 4830SOL    HW214811   5.354   0.821   0.534  0.2587 -1.8148  3.4613
 4831SOL     OW14812   0.577   3.623   0.194  0.3630  0.0476 -0.5633
 4831SOL    HW114813   0.672   3.611   0.164  0.5743 -0.5584  0.3103
 4831SOL    HW214814   0.554   3.720   0.191  1.3436  0.3242  0.1611
 4832SOL     OW14815   4.057   4.754   0.181  0.5049  0.2175  0.0103
 4832SOL    HW114816   4.137   4.725   0.129  1.0721  1.5001  0.1347
 4832SOL    HW214817   4.040   4.689   0.255  0.6887 -0.7249 -0.7618
 4833SOL     OW14818   1.120   2.454   1.285  0.1973 -0.0485  0.3513
 4833SOL    HW114819   1.186   2.410   1.223 -0.3946  0.8808 -1.0037
 4833SOL    HW214820   1.142   2.551   1.294 -0.7335  0.1888  0.2059
 4834SOL     OW14821   0.791   5.513  -0.006 -0.2494  0.1693 -0.1533
 4834SOL    HW114822   0.842   5.588  -0.049  0.3421 -0.0590  0.1374
 4834SOL    HW214823   0.842   5.479   0.073 -0.5464 -0.4986 -0.2441
 4835SOL     OW14824   4.220   1.561   5.095  0.1619 -0.0363 -0.0352
 4835SOL    HW114825   4.192   1.548   5.000  0.5945  0.6336 -0.2622
 4835SOL    HW214826   4.258   1.476   5.131  0.0167 -0.2859 -0.4672
 4836SOL     OW14827   1.515   2.728   0.269  0.0709 -0.3712  0.2845
 4836SOL    HW114828   1.553   2.724   0.361  1.3927  0.5060 -0.1976
 4836SOL    HW214829   1.492   2.823   0.247 -3.6065 -0.9356  0.9826
 4837SOL     OW14830   2.391   4.437   3.079 -0.3302 -0.7093 -0.0693
 4837SOL    HW114831   2.442   4.355   3.053 -0.3457 -0.3300 -1.3414
 4837SOL    HW214832   2.404   4.509   3.011 -1.5528 -0.1770  0.2180
 4838SOL     OW14833   4.747   3.856   2.157  0.1839  0.3227 -0.3514
 4838SOL    HW114834   4.837   3.827   2.189  0.1169  0.1989 -0.2767
 4838SOL    HW214835   4.739   3.839   2.059  0.2179  0.2724 -0.3452
 4839SOL     OW14836   0.161   0.732   3.780  0.1075  0.2459 -0.0972
 4839SOL    HW114837   0.092   0.680   3.831 -0.0889  0.9907  0.4274
 4839SOL    HW214838   0.122   0.820   3.753  0.6007  0.3434 -0.5016
 4840SOL     OW14839   1.330   3.455   0.247  0.0347 -0.0967 -0.0390
 4840SOL    HW114840   1.365   3.444   0.154 -0.9061  1.2854 -0.5970
 4840SOL    HW214841   1.296   3.548   0.259  0.4765 -0.1300  1.8269
 4841SOL     OW14842   4.889   0.558   4.275  0.0265  0.8615 -0.3733
 4841SOL    HW114843   4.897   0.486   4.207 -0.8041  1.1742 -0.8255
 4841SOL    HW214844   4.841   0.524   4.355 -5.1549  2.0293 -2.5407
 4842SOL     OW14845   0.418   4.535   3.527 -0.2598 -0.0813 -0.0587
 4842SOL    HW114846   0.463   4.484   3.600 -1.0406  0.2573  0.6795
 4842SOL    HW214847   0.397   4.628   3.558 -0.5527  0.0888 -0.7336
 4843SOL     OW14848   5.042   0.934   3.255  0.0548 -0.3460  0.1740
 4843SOL    HW114849   4.996   0.977   3.178  1.2177  0.4125 -0.1251
 4843SOL    HW214850   5.032   0.991   3.336  1.0041  0.1812 -0.0564
 4844SOL     OW14851   0.312   0.237   5.207  0.4967 -0.5052  0.1261
 4844SOL    HW114852   0.364   0.179   5.144 -0.7071  1.1353 -2.5988
 4844SOL    HW214853   0.220   0.201   5.218  0.7641 -0.8959  1.1611
 4845SOL     OW14854   3.302   0.004   1.432 -0.0093 -0.3560 -0.1499
 4845SOL    HW114855   3.293   0.093   1.475 -0.0373 -0.2509 -0.3708
 4845SOL    HW214856   3.217  -0.019   1.385 -0.2566 -0.8242  0.5186
 4846SOL     OW14857   5.398   4.668   5.142 -0.0468  0.2598 -0.2177
 4846SOL    HW114858   5.363   4.693   5.232 -0.9401  0.0879 -0.4990
 4846SOL    HW214859   5.498   4.668   5.143  0.0172 -1.8169  1.3725
 4847SOL     OW14860   0.871   3.570   4.830 -0.5137 -0.1447  0.2403
 4847SOL    HW114861   0.956   3.594   4.784 -1.9850  1.6915 -1.7229
 4847SOL    HW214862   0.798   3.558   4.762 -2.0665 -0.6774  1.9074
 4848SOL     OW14863   1.638   5.388   4.940 -0.3118 -0.4931 -0.4169
 4848SOL    HW114864   1.589   5.304   4.919 -2.1675  0.5291 -0.4248
 4848SOL    HW214865   1.723   5.392   4.887 -2.0683 -0.6043 -3.4592
 4849SOL     OW14866   2.203   5.270   2.618 -0.1732 -0.1332 -0.2624
 4849SOL    HW114867   2.226   5.341   2.684 -0.3797  1.2491 -1.6362
 4849SOL    HW214868   2.105   5.253   2.620  0.1228 -1.9924  1.5985
 4850SOL     OW14869   0.985   2.828   4.902  0.2366  0.1542 -0.2592
 4850SOL    HW114870   0.981   2.869   4.810 -0.6158  0.4606 -0.0927
 4850SOL    HW214871   0.897   2.786   4.924  1.0522 -1.7242 -0.3785
 4851SOL     OW14872   0.550   4.215   4.194  0.5634 -0.1855  0.2295
 4851SOL    HW114873   0.459   4.231   4.231  0.0660  0.0597 -1.0498
 4851SOL    HW214874   0.608   4.172   4.264 -0.4415 -0.0870  1.1380
 4852SOL     OW14875   0.339   0.996   0.236  0.4702 -0.9452  0.6081
 4852SOL    HW114876   0.337   1.008   0.137 -0.4723 -1.1952  0.5928
 4852SOL    HW214877   0.319   1.084   0.280  0.7292 -0.8707  0.5811
 4853SOL     OW14878   2.122   5.259   5.091 -0.5430  0.0756  0.0305
 4853SOL    HW114879   2.115   5.165   5.124 -1.2741  0.2877  0.5028
 4853SOL    HW214880   2.100   5.323   5.165  0.6021  0.6429 -0.1026
 4854SOL     OW14881   0.320   2.626   1.038  0.1930 -0.5045 -0.6701
 4854SOL    HW114882   0.227   2.591   1.044  0.1926 -0.2292  2.0455
 4854SOL    HW214883   0.331   2.705   1.098  2.0012 -0.0589 -1.5014
 4855SOL     OW14884   3.055   2.742   3.010 -0.1357  0.2403 -0.5462
 4855SOL    HW114885   3.057   2.779   2.917 -0.4888  0.6605 -0.3902
 4855SOL    HW214886   2.961   2.718   3.034 -0.1531  0.7895 -0.0466
 4856SOL     OW14887   0.713   0.384   4.338  0.1046  0.1579  0.3532
 4856SOL    HW114888   0.704   0.471   4.288  0.3034 -0.5174 -0.8896
 4856SOL    HW214889   0.726   0.310   4.273  1.5093 -0.6213  1.4753
 4857SOL     OW14890   5.151   2.296   0.521 -0.0566 -0.2104  0.5907
 4857SOL    HW114891   5.094   2.340   0.452  0.0768  0.9073  1.1612
 4857SOL    HW214892   5.102   2.293   0.608  0.5714  0.3611  0.9774
 4858SOL     OW14893   2.383   0.025   4.451 -0.2139 -0.7731  0.2380
 4858SOL    HW114894   2.469   0.045   4.403  1.5103  1.7462  3.8765
 4858SOL    HW214895   2.331   0.110   4.462 -1.2410 -1.5250  1.4582
 4859SOL     OW14896   4.351   1.557   4.070 -0.2045 -0.1440 -0.4905
 4859SOL    HW114897   4.425   1.556   4.136  0.2481 -0.0427 -0.9933
 4859SOL    HW214898   4.348   1.470   4.022 -0.9716 -0.4778  0.1374
 4860SOL     OW14899   3.269   5.155   0.932  0.3714  0.4567 -0.0164
 4860SOL    HW114900   3.285   5.247   0.967 -0.0327  0.4015  0.3275
 4860SOL    HW214901   3.185   5.118   0.972  0.3243  0.0845 -0.4457
 4861SOL     OW14902   3.578   1.719   3.185  0.7100  0.1094  0.0299
 4861SOL    HW114903   3.636   1.799   3.170  0.8767 -0.1020 -0.4704
 4861SOL    HW214904   3.630   1.651   3.238  0.1407  0.8322  1.5785
 4862SOL     OW14905   1.566   1.761   5.193 -0.2378 -0.1263  0.1671
 4862SOL    HW114906   1.591   1.818   5.114  0.2109 -0.8636 -0.2416
 4862SOL    HW214907   1.502   1.811   5.251  1.9124  1.7345  1.0940
 4863SOL     OW14908   0.858   2.196   2.316  0.6437 -0.4782  0.0504
 4863SOL    HW114909   0.816   2.204   2.407 -0.2073 -0.0295 -0.3673
 4863SOL    HW214910   0.819   2.118   2.268  2.9641 -2.3462  1.0033
 4864SOL     OW14911   0.559   4.221   0.954  0.0760 -0.4958  0.3707
 4864SOL    HW114912   0.549   4.258   0.862  0.8701 -0.9768  0.0758
 4864SOL    HW214913   0.512   4.281   1.019  2.7101  2.0699  0.1401
 4865SOL     OW14914   5.329   3.861   5.468  0.6110  0.6408  0.0217
 4865SOL    HW114915   5.373   3.784   5.513 -1.7460 -0.8016  0.0353
 4865SOL    HW214916   5.316   3.935   5.533 -1.9878 -1.0858  1.6526
 4866SOL     OW14917   2.012   3.084   2.704  0.0251  0.2711  0.4979
 4866SOL    HW114918   1.952   3.160   2.678  0.0594  1.2969  3.1692
 4866SOL    HW214919   1.958   3.002   2.722 -0.2894  0.4547  0.3877
 4867SOL     OW14920   1.142   3.811   4.418  0.0309  0.2270 -0.2026
 4867SOL    HW114921   1.161   3.883   4.484  1.1381 -1.4787  1.4620
 4867SOL    HW214922   1.228   3.777   4.379 -0.5567  0.6941 -2.0127
 4868SOL     OW14923   4.855   0.808   3.624  0.0953  0.9970  0.3861
 4868SOL    HW114924   4.840   0.838   3.718  2.0241  0.5205  0.8960
 4868SOL    HW214925   4.926   0.738   3.622 -0.1635  0.7272 -1.3986
 4869SOL     OW14926   0.652   3.646   3.035 -0.5910  0.0896 -0.1304
 4869SOL    HW114927   0.730   3.709   3.041 -0.7296  0.1019  2.8298
 4869SOL    HW214928   0.570   3.697   3.007 -0.0024  0.4775 -1.2088
 4870SOL     OW14929   3.005   0.119   1.382 -0.2432 -0.4120 -0.2632
 4870SOL    HW114930   3.027   0.132   1.285  0.9193  0.1872  0.0709
 4870SOL    HW214931   2.925   0.173   1.405 -0.6506 -0.7110 -0.9266
 4871SOL     OW14932   1.672   0.133   3.999  0.1225 -0.1771  0.7745
 4871SOL    HW114933   1.664   0.060   4.067  0.2788 -0.1798  0.7905
 4871SOL    HW214934   1.769   0.147   3.976 -0.0951 -2.6084 -2.0903
 4872SOL     OW14935   2.894   3.585   3.744 -0.2347  0.5745 -0.0987
 4872SOL    HW114936   2.820   3.632   3.792 -0.7796 -1.3978  1.1533
 4872SOL    HW214937   2.859   3.500   3.705  0.6625  1.1882 -2.4154
 4873SOL     OW14938   1.689   4.290   2.702  0.5322 -0.0747  0.1947
 4873SOL    HW114939   1.675   4.200   2.661  0.1934 -0.5358  1.2706
 4873SOL    HW214940   1.777   4.327   2.673  0.9720 -1.0435  0.2508
 4874SOL     OW14941   2.889   4.698   4.720 -0.0415  0.1736 -0.4757
 4874SOL    HW114942   2.878   4.644   4.804 -0.3066 -2.3723 -2.0434
 4874SOL    HW214943   2.802   4.742   4.698  0.1126  1.1372  0.6990
 4875SOL     OW14944   1.966   5.115   2.838  0.1887  0.3809  0.7612
 4875SOL    HW114945   1.969   5.198   2.781 -0.5201  0.9387  1.5027
 4875SOL    HW214946   2.017   5.132   2.923 -0.5326  0.3098  1.2171
 4876SOL     OW14947   2.157   0.625   4.314 -0.7301  0.4605 -0.0508
 4876SOL    HW114948   2.252   0.602   4.291 -0.3371  1.7606  0.2061
 4876SOL    HW214949   2.120   0.553   4.373 -0.0084 -0.2124 -0.3910
 4877SOL     OW14950   2.961   1.017   2.695 -0.0438 -0.0789 -0.3349
 4877SOL    HW114951   2.958   1.112   2.664 -0.1188  0.3642  0.9497
 4877SOL    HW214952   2.909   1.009   2.780 -0.7222 -1.4549 -0.8573
 4878SOL     OW14953   0.213   4.945   0.337  0.7910 -0.4224 -0.0977
 4878SOL    HW114954   0.241   5.041   0.344  0.7151 -0.3292 -0.9418
 4878SOL    HW214955   0.194   4.909   0.428  1.9126  0.0333  0.3368
 4879SOL     OW14956   0.526   3.096   4.175 -0.0839  0.1752  0.2206
 4879SOL    HW114957   0.465   3.115   4.098 -1.5931  0.0855  1.3735
 4879SOL    HW214958   0.611   3.148   4.162  0.0344 -0.4440 -1.8895
 4880SOL     OW14959   1.351   3.945   4.064  0.3132  0.1400 -0.4444
 4880SOL    HW114960   1.412   3.877   4.104  0.3946 -0.1109 -0.9868
 4880SOL    HW214961   1.259   3.907   4.057  0.2039  0.3382 -0.0939
 4881SOL     OW14962   3.248   3.414   5.557 -0.1756 -0.1698  0.0564
 4881SOL    HW114963   3.316   3.423   5.484  1.5599 -2.7295  1.2195
 4881SOL    HW214964   3.170   3.361   5.524 -0.4148  0.5379 -0.5369
 4882SOL     OW14965   0.220   1.573   1.349  0.0283 -0.2360  0.0893
 4882SOL    HW114966   0.242   1.522   1.266 -1.2609  0.2771 -0.5908
 4882SOL    HW214967   0.255   1.666   1.341  1.0958 -0.5679  0.7134
 4883SOL     OW14968   1.263   5.321   2.601  0.3507 -0.3355  0.6552
 4883SOL    HW114969   1.204   5.291   2.676 -0.9146  0.8613  0.1860
 4883SOL    HW214970   1.270   5.248   2.533 -0.1049 -0.7114  1.0041
 4884SOL     OW14971   1.424   1.763   3.677 -0.4743 -0.2339  0.2947
 4884SOL    HW114972   1.326   1.766   3.661 -0.5523 -1.4943  0.4284
 4884SOL    HW214973   1.446   1.686   3.736  0.6125 -0.0338  0.1828
 4885SOL     OW14974   4.006   3.269   3.495  0.7635  0.1502  0.4783
 4885SOL    HW114975   3.915   3.309   3.508  0.9380  0.4837  0.7030
 4885SOL    HW214976   4.043   3.299   3.407  0.8499  0.3964  0.5984
 4886SOL     OW14977   0.578   3.931   0.447 -0.0883 -0.7896  0.2110
 4886SOL    HW114978   0.667   3.907   0.410 -0.1766  2.1699 -2.2579
 4886SOL    HW214979   0.509   3.926   0.375 -1.0216  1.3462  0.8687
 4887SOL     OW14980   3.200   1.823   1.706  0.0269 -0.1236 -0.4310
 4887SOL    HW114981   3.286   1.793   1.665 -0.7260  0.0860 -2.2476
 4887SOL    HW214982   3.172   1.757   1.776  0.2433 -1.7309 -1.8001
 4888SOL     OW14983   3.552   1.159   5.053  0.2602  0.1295 -0.2739
 4888SOL    HW114984   3.522   1.089   4.988  0.2176  0.5352 -0.7001
 4888SOL    HW214985   3.592   1.115   5.133 -0.3416 -0.3923 -0.2562
 4889SOL     OW14986   0.536   3.021   2.189  0.6794 -0.0540 -0.5340
 4889SOL    HW114987   0.589   3.075   2.124  1.2286  0.1702  0.0993
 4889SOL    HW214988   0.568   2.927   2.189  0.8268 -0.0027 -0.4187
 4890SOL     OW14989   2.349   3.162   3.747 -0.0511  0.9691  0.3002
 4890SOL    HW114990   2.419   3.091   3.739  1.1421  2.1548 -0.0855
 4890SOL    HW214991   2.308   3.158   3.838  0.4616  0.2159  0.5108
 4891SOL     OW14992   1.689   2.460   0.587  0.1105 -0.0493  0.1185
 4891SOL    HW114993   1.683   2.371   0.541  1.3020 -0.7236  1.1820
 4891SOL    HW214994   1.652   2.451   0.680  0.2523  0.5737  0.2393
 4892SOL     OW14995   2.306   4.444   5.131  0.5174  0.2550 -0.4930
 4892SOL    HW114996   2.249   4.424   5.212  1.1034 -1.3951 -0.4412
 4892SOL    HW214997   2.374   4.513   5.154 -0.7880  1.5143 -0.2654
 4893SOL     OW14998   3.297   1.141   3.189 -0.3012  0.0449  0.2046
 4893SOL    HW114999   3.362   1.156   3.114 -0.4900 -0.7801 -0.1359
 4893SOL    HW215000   3.208   1.179   3.164 -0.1172  0.6084  0.4044
 4894SOL     OW15001   0.323   1.249   0.345  0.2697 -0.1462 -0.4401
 4894SOL    HW115002   0.265   1.326   0.372 -1.2152 -1.4250  0.1731
 4894SOL    HW215003   0.374   1.216   0.424 -1.6199 -1.8315  0.1738
 4895SOL     OW15004   2.563   4.674   1.173 -0.2383  0.2621 -0.3012
 4895SOL    HW115005   2.572   4.591   1.227 -3.5900  0.4239  0.7236
 4895SOL    HW215006   2.547   4.649   1.077 -0.8082 -0.2591 -0.0759
 4896SOL     OW15007   3.084   0.191   0.267 -0.1956 -0.1108  0.4541
 4896SOL    HW115008   3.030   0.250   0.327 -0.2505 -2.1299  2.5183
 4896SOL    HW215009   3.026   0.116   0.233  0.5627 -0.6364  0.2914
 4897SOL     OW15010   0.331   1.143   3.256 -0.1511  0.2847  0.0363
 4897SOL    HW115011   0.315   1.237   3.286  0.4844  0.6744 -0.8012
 4897SOL    HW215012   0.243   1.096   3.244 -0.5978  1.4239 -1.5231
 4898SOL     OW15013   3.367   5.365   2.827  0.0925  0.2462 -0.3122
 4898SOL    HW115014   3.446   5.307   2.805 -0.1839  0.3098 -1.5468
 4898SOL    HW215015   3.305   5.315   2.888  0.0424 -0.6321 -1.0485
 4899SOL     OW15016   0.700   4.471   2.273  0.3740  0.0077 -0.7472
 4899SOL    HW115017   0.651   4.396   2.316  0.8380  0.3875  0.4720
 4899SOL    HW215018   0.634   4.534   2.231 -0.2543  0.7017  1.1735
 4900SOL     OW15019   5.470   4.046   1.294  0.7842 -0.3758  0.0138
 4900SOL    HW115020   5.414   3.963   1.304 -1.4537  1.0821  0.2675
 4900SOL    HW215021   5.490   4.061   1.197 -0.6513 -0.0729 -0.2506
 4901SOL     OW15022   1.905   2.161   0.047  0.0706  0.2272 -0.2607
 4901SOL    HW115023   1.870   2.238   0.100  1.4260  0.7311 -0.0730
 4901SOL    HW215024   1.829   2.116  -0.000 -0.6255  2.4769 -1.4444
 4902SOL     OW15025   4.739   2.796   2.376  0.3676  0.2750 -0.1661
 4902SOL    HW115026   4.684   2.847   2.310 -0.0943  0.2248  0.1733
 4902SOL    HW215027   4.740   2.699   2.351  0.9690  0.3868 -0.6212
 4903SOL     OW15028   4.021   3.340   2.855 -1.2137  0.3390 -0.0944
 4903SOL    HW115029   4.020   3.257   2.911  1.4343  0.1137 -0.2660
 4903SOL    HW215030   4.010   3.420   2.913  2.2760  0.1624  1.0420
 4904SOL     OW15031   0.270   0.501   3.094 -0.4166  0.2146  0.1596
 4904SOL    HW115032   0.241   0.595   3.079  2.2597  1.4009  1.7080
 4904SOL    HW215033   0.191   0.440   3.084 -2.2204  2.5538 -0.9500
 4905SOL     OW15034   2.632   4.177   5.431 -0.1817 -0.8645  0.1284
 4905SOL    HW115035   2.692   4.168   5.510 -0.4837 -0.5174  0.3996
 4905SOL    HW215036   2.675   4.236   5.363  0.3302 -1.6219 -0.2190
 4906SOL     OW15037   2.406   3.320   4.792 -0.4563  0.1351  0.7660
 4906SOL    HW115038   2.381   3.345   4.698  0.1222  0.9007  0.8126
 4906SOL    HW215039   2.369   3.388   4.856 -0.8370 -0.3750  1.0998
 4907SOL     OW15040   2.627   1.025   1.508  0.3163 -0.5561  0.0069
 4907SOL    HW115041   2.628   1.011   1.409 -0.3446 -1.3701  0.1062
 4907SOL    HW215042   2.578   1.109   1.529  1.2588  0.1243 -0.3945
 4908SOL     OW15043   0.122   0.069   0.417 -0.0489  0.0466  0.1517
 4908SOL    HW115044   0.089  -0.016   0.374  1.9484  0.2765 -2.0208
 4908SOL    HW215045   0.051   0.139   0.412 -1.3648 -1.1559  1.0924
 4909SOL     OW15046   0.515   4.860   3.180 -0.2158  0.1168 -0.0187
 4909SOL    HW115047   0.494   4.871   3.082  2.0967  1.8848 -0.4091
 4909SOL    HW215048   0.610   4.887   3.196  0.0333 -1.9804  2.4571
 4910SOL     OW15049   2.065   3.236   1.585 -0.2535 -0.3381  0.1994
 4910SOL    HW115050   2.069   3.335   1.571  0.5328 -0.1864  1.3453
 4910SOL    HW215051   2.090   3.189   1.500 -1.4435  0.4167 -0.5996
 4911SOL     OW15052   2.153   0.489   0.724 -0.4037  0.6905 -0.7673
 4911SOL    HW115053   2.213   0.461   0.799  0.2382  0.2355 -1.4321
 4911SOL    HW215054   2.167   0.427   0.646 -0.6238  1.5116 -1.4694
 4912SOL     OW15055   1.507   1.268   4.333 -0.3143 -0.2902  0.2402
 4912SOL    HW115056   1.558   1.335   4.388 -0.9880 -0.1963  0.7677
 4912SOL    HW215057   1.548   1.178   4.344  1.5138  0.2435 -1.6318
 4913SOL     OW15058   1.943   0.867   0.340  0.2238  0.5892  0.2891
 4913SOL    HW115059   1.902   0.795   0.395  0.6241  0.9065  1.0187
 4913SOL    HW215060   1.993   0.827   0.263 -2.2292  0.2141 -1.2169
 4914SOL     OW15061   5.215   4.526   2.080 -0.1861  0.2036  0.5448
 4914SOL    HW115062   5.243   4.502   1.987 -0.9028  0.2352  0.3172
 4914SOL    HW215063   5.286   4.582   2.123  1.3940 -1.9746  0.9671
 4915SOL     OW15064   3.419   1.258   0.864 -0.2178 -0.0324  0.2542
 4915SOL    HW115065   3.510   1.294   0.882  0.2283 -1.8410  1.9032
 4915SOL    HW215066   3.425   1.184   0.797 -0.5545  0.1570  0.0097
 4916SOL     OW15067   2.103   4.865   0.124 -0.0184  0.4690 -0.6385
 4916SOL    HW115068   2.106   4.821   0.213  1.7005  2.6357  0.4606
 4916SOL    HW215069   2.149   4.807   0.056  0.5131 -0.2651  0.3285
 4917SOL     OW15070   0.858   2.459   2.292  0.2073 -0.1987  0.6804
 4917SOL    HW115071   0.855   2.359   2.304 -0.4231 -0.0025  2.2612
 4917SOL    HW215072   0.944   2.494   2.330  0.8380 -0.2104 -0.6679
 4918SOL     OW15073   0.465   1.466   1.779  0.1011  0.0361 -0.1378
 4918SOL    HW115074   0.435   1.381   1.737 -1.8216  0.9121 -0.6751
 4918SOL    HW215075   0.530   1.446   1.852 -0.0776 -1.8556 -0.4415
 4919SOL     OW15076   5.465   3.086   0.697 -0.0555 -0.3798  0.0861
 4919SOL    HW115077   5.412   3.145   0.759 -2.0569 -1.4330 -0.5199
 4919SOL    HW215078   5.562   3.111   0.703 -0.7313  2.7347  0.1008
 4920SOL     OW15079   0.478   4.779   0.203  0.0918 -0.0202  0.2706
 4920SOL    HW115080   0.469   4.829   0.117 -0.8265 -0.4638  0.1021
 4920SOL    HW215081   0.387   4.759   0.240  0.4009 -2.3145 -0.0887
 4921SOL     OW15082   5.541   5.276   3.744 -0.0810  0.1956 -0.3841
 4921SOL    HW115083   5.486   5.200   3.778  0.1337  0.2705  0.1449
 4921SOL    HW215084   5.547   5.347   3.814  1.3906 -0.1785 -0.1015
 4922SOL     OW15085   2.787   0.271   4.132 -0.2479  0.6982  0.0557
 4922SOL    HW115086   2.696   0.249   4.096 -0.8735 -1.5079  2.6204
 4922SOL    HW215087   2.777   0.326   4.215  0.5489 -0.9126  1.2935
 4923SOL     OW15088   1.895   2.688   3.391  0.3387 -0.1135  0.6757
 4923SOL    HW115089   1.960   2.614   3.383 -0.2533 -0.7031  1.1682
 4923SOL    HW215090   1.874   2.704   3.488 -0.8327 -0.4663  0.4967
 4924SOL     OW15091   4.305   0.212   2.627  0.2976 -0.3420 -0.0279
 4924SOL    HW115092   4.373   0.162   2.682  0.9688 -1.1454 -1.5380
 4924SOL    HW215093   4.270   0.152   2.556 -0.8488  0.5700 -0.2446
 4925SOL     OW15094   0.958   0.157   2.257  0.0026 -0.1273  0.1408
 4925SOL    HW115095   1.040   0.186   2.208 -0.4155  2.3616  0.7775
 4925SOL    HW215096   0.978   0.072   2.307  1.6534 -0.4743 -1.0165
 4926SOL     OW15097   3.998   3.526   1.432 -0.0731 -0.6435 -0.0081
 4926SOL    HW115098   3.934   3.462   1.474  0.0119 -0.6368  0.1324
 4926SOL    HW215099   4.085   3.523   1.482  1.0428 -2.7843 -1.8765
 4927SOL     OW15100   3.106   0.498   0.559  0.0929  0.3572  1.2264
 4927SOL    HW115101   3.084   0.590   0.527 -1.5429 -0.3685  0.1296
 4927SOL    HW215102   3.191   0.500   0.612  2.8262  1.7768 -2.7364
 4928SOL     OW15103   4.276   0.805   2.089  0.1662  0.4294  0.1614
 4928SOL    HW115104   4.324   0.726   2.049 -0.3494  0.4712 -0.5665
 4928SOL    HW215105   4.332   0.844   2.162 -0.2580 -1.5830  1.6470
 4929SOL     OW15106   3.697   1.737   0.373 -0.1428  0.2623 -0.1991
 4929SOL    HW115107   3.673   1.833   0.389 -0.5763 -0.1585  1.9165
 4929SOL    HW215108   3.792   1.731   0.342 -0.4065  1.4151 -1.3308
 4930SOL     OW15109   3.569   2.861   0.821  0.0885  0.0900  0.2362
 4930SOL    HW115110   3.562   2.916   0.905  1.0801 -0.1257  0.4691
 4930SOL    HW215111   3.575   2.764   0.845 -1.5442 -0.1527 -0.1717
 4931SOL     OW15112   3.613   3.326   1.922 -0.2110 -0.2559 -0.5080
 4931SOL    HW115113   3.564   3.284   1.845 -0.1969 -0.0959 -0.6065
 4931SOL    HW215114   3.683   3.388   1.887 -1.8699  1.8067 -0.4307
 4932SOL     OW15115   5.376   0.546   3.720 -0.2305  0.2610  0.2212
 4932SOL    HW115116   5.351   0.640   3.745 -0.4592  0.2311  0.1120
 4932SOL    HW215117   5.362   0.486   3.798 -1.0369  0.1516 -0.0012
 4933SOL     OW15118   3.028   1.960   3.417  0.0962 -0.2639  0.2412
 4933SOL    HW115119   3.106   1.908   3.452  1.8400  1.1099 -1.3665
 4933SOL    HW215120   2.971   1.990   3.493  1.2525 -1.1553  1.5051
 4934SOL     OW15121   5.201   1.197   5.223  0.3692 -0.2216 -0.4631
 4934SOL    HW115122   5.108   1.230   5.207  0.6339  1.3141  0.9120
 4934SOL    HW215123   5.198   1.106   5.263 -0.5094 -0.4855 -1.1009
 4935SOL     OW15124   5.302   0.418   5.400  0.2015 -0.4659 -0.0272
 4935SOL    HW115125   5.278   0.322   5.383  0.5882 -0.8958  1.7086
 4935SOL    HW215126   5.268   0.447   5.489  0.3790  0.9291 -0.3840
 4936SOL     OW15127   2.595   1.103   2.740  0.2471 -0.0361  0.1757
 4936SOL    HW115128   2.578   1.061   2.830  0.8969 -0.9038 -0.0917
 4936SOL    HW215129   2.585   1.202   2.747 -1.8267 -0.2358  0.7246
 4937SOL     OW15130   2.262   4.841   2.720  0.1118  0.4521  0.2662
 4937SOL    HW115131   2.327   4.913   2.696 -0.2898  0.6017 -0.3909
 4937SOL    HW215132   2.217   4.807   2.637 -1.5503  1.2032  0.8159
 4938SOL     OW15133   0.963   4.392   0.939 -0.0314  0.2398  0.2028
 4938SOL    HW115134   0.878   4.421   0.982 -1.9505 -2.0152 -1.7752
 4938SOL    HW215135   1.006   4.321   0.995  0.0958  0.7678  0.7788
 4939SOL     OW15136   0.940   0.599   0.347 -0.1276 -0.1666 -0.0828
 4939SOL    HW115137   0.906   0.581   0.439  0.2508 -3.3169 -0.4384
 4939SOL    HW215138   0.938   0.697   0.329 -3.3660  0.2935  2.0168
 4940SOL     OW15139   0.345   3.418   2.619  0.0431 -0.0170  0.2140
 4940SOL    HW115140   0.300   3.346   2.673  0.3144  0.2655  0.8270
 4940SOL    HW215141   0.303   3.506   2.641 -0.6267 -0.0420 -0.9044
 4941SOL     OW15142   5.542   5.094   1.778 -0.1100  0.5794 -0.0041
 4941SOL    HW115143   5.467   5.135   1.726  0.6137  0.3163 -1.2984
 4941SOL    HW215144   5.505   5.046   1.858 -1.4019 -0.1616 -1.0028
 4942SOL     OW15145   0.035   1.848   4.323  0.4803 -0.1671  0.4232
 4942SOL    HW115146   0.124   1.826   4.363  0.3202  1.9585  2.1100
 4942SOL    HW215147   0.035   1.943   4.293 -0.1182 -1.0999 -2.9061
 4943SOL     OW15148   2.241   4.218   2.384 -0.4826 -0.0899  0.0485
 4943SOL    HW115149   2.207   4.132   2.346 -1.6260  0.2134  0.3680
 4943SOL    HW215150   2.170   4.287   2.380  0.2034  0.6569  0.4437
 4944SOL     OW15151   4.902   1.035   5.076 -0.0423  0.0558 -0.5983
 4944SOL    HW115152   4.942   1.115   5.122 -0.3748 -0.0928 -0.0385
 4944SOL    HW215153   4.909   1.047   4.977 -0.9812  1.2531 -0.5498
 4945SOL     OW15154   5.261   1.046   1.809 -0.1443 -0.0143  0.0546
 4945SOL    HW115155   5.250   0.988   1.728 -0.7936  1.4203 -0.9326
 4945SOL    HW215156   5.270   0.989   1.890 -0.9552 -1.4768 -0.8426
 4946SOL     OW15157   0.032   2.805   3.668 -0.4573  0.0502  0.1489
 4946SOL    HW115158   0.005   2.864   3.592  0.5899 -1.1903 -1.2542
 4946SOL    HW215159   0.098   2.737   3.635 -0.8817 -1.2779  1.9135
 4947SOL     OW15160   2.735   0.025   2.081 -0.3515  0.1307  0.2950
 4947SOL    HW115161   2.765  -0.033   2.005  2.2738 -0.7128  1.8430
 4947SOL    HW215162   2.809   0.088   2.106 -1.4810  0.9914  1.5892
 4948SOL     OW15163   1.350   1.102   0.113 -0.3186 -0.2825  1.3387
 4948SOL    HW115164   1.416   1.177   0.122 -2.6652  2.2003 -0.3607
 4948SOL    HW215165   1.381   1.038   0.043  0.3721  0.7980  0.6211
 4949SOL     OW15166   5.005   4.323   3.044  0.8540  0.0735  0.0564
 4949SOL    HW115167   5.039   4.279   2.961  1.9855 -1.3832  1.2336
 4949SOL    HW215168   5.076   4.319   3.115 -0.5112  0.1756  1.4780
 4950SOL     OW15169   5.304   1.666   2.452 -0.1107 -0.0413  0.2262
 4950SOL    HW115170   5.403   1.680   2.450 -0.1537  0.3215  0.4182
 4950SOL    HW215171   5.278   1.633   2.543 -0.1313 -0.4103  0.0858
 4951SOL     OW15172   0.261   3.075   3.034  0.1336  0.3121  0.2947
 4951SOL    HW115173   0.286   3.146   3.101 -0.8712 -0.7162  1.8335
 4951SOL    HW215174   0.319   2.995   3.048 -0.9528 -0.3955  0.8430
 4952SOL     OW15175   3.979   1.207   3.748 -0.3960 -0.0331  0.5292
 4952SOL    HW115176   4.077   1.218   3.763 -0.5032  1.8256  0.1998
 4952SOL    HW215177   3.963   1.129   3.688  1.2640  1.7878 -2.6045
 4953SOL     OW15178   3.852   0.711   4.062 -0.4866 -0.1405  0.4372
 4953SOL    HW115179   3.853   0.789   4.125  1.0180 -0.1685  0.5020
 4953SOL    HW215180   3.914   0.640   4.097  0.3562 -0.1763 -1.0330
 4954SOL     OW15181   3.139   2.960   3.718  0.0558 -1.0209 -0.3684
 4954SOL    HW115182   3.069   2.926   3.656  1.3372 -1.2069 -1.7924
 4954SOL    HW215183   3.217   2.897   3.718  0.5136 -0.4751  0.6335
 4955SOL     OW15184   3.118   3.283   3.718 -0.5885  0.1036 -0.2360
 4955SOL    HW115185   3.035   3.308   3.668 -0.6445 -2.0293 -1.3352
 4955SOL    HW215186   3.147   3.191   3.691  1.2130  0.1320  1.3568
 4956SOL     OW15187   3.613   2.659   2.801 -0.4929  0.2714 -0.1783
 4956SOL    HW115188   3.585   2.655   2.705 -0.9853  0.6605 -0.0608
 4956SOL    HW215189   3.711   2.643   2.809 -0.5791 -0.5164 -0.6689
 4957SOL     OW15190   5.454   3.696   0.315 -0.0188  0.3347 -0.0141
 4957SOL    HW115191   5.452   3.796   0.317 -1.5010  0.3283  0.1263
 4957SOL    HW215192   5.361   3.661   0.326  0.4565 -1.0628 -0.2613
 4958SOL     OW15193   1.649   1.110   4.622  0.0862  0.5852  0.1436
 4958SOL    HW115194   1.594   1.089   4.541  0.9061  1.0423 -0.5483
 4958SOL    HW215195   1.715   1.036   4.637  0.1103  0.6267  0.2403
 4959SOL     OW15196   2.709   0.574   3.804  0.0643 -0.4592 -0.0551
 4959SOL    HW115197   2.752   0.575   3.714  2.0754  0.2253  0.8512
 4959SOL    HW215198   2.729   0.661   3.851 -0.7986 -0.8720  1.1118
 4960SOL     OW15199   2.902   4.311   2.141  0.6237 -0.0073 -0.4463
 4960SOL    HW115200   2.973   4.241   2.148 -0.5978 -1.2825 -0.3766
 4960SOL    HW215201   2.827   4.288   2.203  0.8830  2.2371  0.7732
 4961SOL     OW15202   4.663   4.809   0.050 -0.0283 -0.2559  0.6451
 4961SOL    HW115203   4.670   4.727   0.107  0.5403 -0.7197 -0.0829
 4961SOL    HW215204   4.578   4.857   0.073 -0.7007 -1.3860  0.6523
 4962SOL     OW15205   4.651   3.212   3.866  0.2137 -0.1603 -0.6355
 4962SOL    HW115206   4.611   3.121   3.857  0.0222 -0.0753 -0.6320
 4962SOL    HW215207   4.745   3.203   3.899 -0.6700 -0.2359  2.1225
 4963SOL     OW15208   0.816   3.276   3.659  0.0912 -0.4270 -0.1543
 4963SOL    HW115209   0.818   3.363   3.709  2.1344 -0.3213 -0.3304
 4963SOL    HW215210   0.881   3.212   3.700 -0.0775 -1.2505 -1.1151
 4964SOL     OW15211   2.551   0.155   4.752 -0.0702  0.0092 -0.0472
 4964SOL    HW115212   2.464   0.106   4.752  0.3577 -0.7576  0.1466
 4964SOL    HW215213   2.602   0.133   4.835 -0.8263  2.5104  1.1758
 4965SOL     OW15214   4.817   2.607   3.271  0.0183 -0.0392  0.1227
 4965SOL    HW115215   4.748   2.665   3.229 -0.3147  1.0590  2.0588
 4965SOL    HW215216   4.845   2.536   3.206 -0.3891  1.5678 -1.9058
 4966SOL     OW15217   4.377   4.379   4.692 -0.1769 -0.0006  0.2053
 4966SOL    HW115218   4.343   4.287   4.711  0.4060 -0.5059 -1.0989
 4966SOL    HW215219   4.477   4.380   4.702 -0.3349  1.0195  2.2160
 4967SOL     OW15220   3.049   5.370   4.164 -0.3187 -0.1123  0.0414
 4967SOL    HW115221   2.973   5.335   4.110  0.4657  0.0758 -1.2119
 4967SOL    HW215222   3.135   5.346   4.121  0.3056  3.2863 -0.9402
 4968SOL     OW15223   0.563   3.434   2.863 -0.0539 -0.1390 -0.1096
 4968SOL    HW115224   0.485   3.441   2.801 -0.2349 -0.7049  0.0427
 4968SOL    HW215225   0.569   3.517   2.918  0.2125  0.4372 -0.9981
 4969SOL     OW15226   2.323   0.182   5.570  0.2365  0.2427  0.6659
 4969SOL    HW115227   2.356   0.096   5.532 -2.9629 -1.0823  0.5576
 4969SOL    HW215228   2.285   0.239   5.497 -1.1990 -0.0402  1.1458
 4970SOL     OW15229   0.705   5.061   2.887 -0.0969  0.5942 -0.2687
 4970SOL    HW115230   0.698   5.159   2.872  0.5111  0.7273  0.2554
 4970SOL    HW215231   0.617   5.018   2.868 -0.3419  1.2252 -0.5934
 4971SOL     OW15232   1.367   5.310   4.196  0.4851 -0.3112  0.4378
 4971SOL    HW115233   1.366   5.217   4.157 -0.1034 -0.9544  1.9192
 4971SOL    HW215234   1.334   5.307   4.290  0.3962  1.4329  0.4934
 4972SOL     OW15235   1.410   0.529   2.082  0.2707 -0.5716 -0.0963
 4972SOL    HW115236   1.420   0.621   2.120 -0.2304 -0.6747  0.3012
 4972SOL    HW215237   1.327   0.487   2.120  0.7363 -1.3522  0.0575
 4973SOL     OW15238   5.017   0.241   3.208  0.0487  0.3834  0.1451
 4973SOL    HW115239   5.100   0.237   3.152  0.8634  0.7989  1.2916
 4973SOL    HW215240   4.993   0.336   3.225  0.0511  0.2659  0.8396
 4974SOL     OW15241   2.341   0.917   5.285  0.0530 -0.1896 -0.8095
 4974SOL    HW115242   2.312   0.829   5.246  0.7296 -0.2663 -1.1399
 4974SOL    HW215243   2.439   0.930   5.270 -0.1441  0.8691 -1.2418
 4975SOL     OW15244   1.770   4.017   1.371 -0.3128  0.3839  0.0349
 4975SOL    HW115245   1.761   3.920   1.390  0.6555  0.0936 -0.9016
 4975SOL    HW215246   1.776   4.067   1.458 -0.2620 -0.4409  0.5213
 4976SOL     OW15247   1.560   2.000   3.321  0.0384  0.0586 -0.2250
 4976SOL    HW115248   1.560   1.958   3.412 -1.4269 -0.7435 -0.5562
 4976SOL    HW215249   1.612   2.085   3.324  1.0426 -0.5547  1.0630
 4977SOL     OW15250   1.679   2.767   5.465  0.0033 -0.6002  0.0367
 4977SOL    HW115251   1.668   2.683   5.518 -0.4641 -0.1428  0.6821
 4977SOL    HW215252   1.723   2.837   5.521 -0.6292 -0.0590 -0.1171
 4978SOL     OW15253   1.166   4.339   2.344 -0.0400 -0.0297 -0.1589
 4978SOL    HW115254   1.149   4.331   2.246 -0.3466 -0.6373 -0.0629
 4978SOL    HW215255   1.235   4.272   2.371  0.5607  0.6131 -0.0786
 4979SOL     OW15256   2.877   4.827   1.742 -0.1982  0.2627  0.3569
 4979SOL    HW115257   2.783   4.810   1.771 -1.0168 -0.0743 -2.2576
 4979SOL    HW215258   2.934   4.747   1.762 -0.8396 -0.1587  0.5052
 4980SOL     OW15259   0.952   2.262   3.637 -0.1528  0.0580  0.2114
 4980SOL    HW115260   0.979   2.340   3.693 -1.4311 -0.3614  1.4926
 4980SOL    HW215261   0.852   2.255   3.636 -0.1528 -0.2734 -1.7190
 4981SOL     OW15262   5.021   4.440   4.703 -0.3065 -0.5039  0.3554
 4981SOL    HW115263   5.105   4.469   4.749 -0.4881 -1.9908  1.7304
 4981SOL    HW215264   5.044   4.388   4.621  0.2340 -2.1970  1.5102
 4982SOL     OW15265   4.451   5.488   3.904  0.4255  0.4566 -0.0936
 4982SOL    HW115266   4.454   5.551   3.981 -0.9326 -0.1242  0.4589
 4982SOL    HW215267   4.401   5.531   3.828 -3.0251 -0.8686  1.2449
 4983SOL     OW15268   5.275   4.451   0.920 -0.2079  0.0904  0.0554
 4983SOL    HW115269   5.184   4.459   0.961  0.0702  0.6210  0.5745
 4983SOL    HW215270   5.339   4.510   0.969  0.2814  0.2005 -0.7077
 4984SOL     OW15271   1.203   0.128   5.551 -0.1532  0.0895  0.7420
 4984SOL    HW115272   1.245   0.037   5.551 -1.1227 -0.3994  1.8869
 4984SOL    HW215273   1.117   0.124   5.501 -0.3786  0.2692  1.1097
 4985SOL     OW15274   4.247   4.692   4.544  0.8249  0.6623 -0.3161
 4985SOL    HW115275   4.299   4.775   4.564  1.0067  0.6890 -0.8719
 4985SOL    HW215276   4.215   4.651   4.630 -0.2828  1.9432 -0.0873
 4986SOL     OW15277   4.012   5.011   3.749  0.0116  0.6533 -0.2347
 4986SOL    HW115278   4.055   5.061   3.673 -0.0561  0.4540 -0.4071
 4986SOL    HW215279   3.935   4.957   3.714 -0.2148  0.8026  0.0298
 4987SOL     OW15280   3.373   2.898   5.460 -0.6347  0.0443 -0.2829
 4987SOL    HW115281   3.297   2.926   5.403 -2.8034 -3.1801  0.7557
 4987SOL    HW215282   3.364   2.802   5.484  2.7178  0.0227  1.6198
 4988SOL     OW15283   0.818   0.198   2.960 -0.4121 -0.0246  0.3044
 4988SOL    HW115284   0.854   0.132   3.026 -0.9227  1.4725  2.1513
 4988SOL    HW215285   0.791   0.281   3.007  0.2151  1.5607 -1.9565
 4989SOL     OW15286   1.102   1.399   5.170 -0.0019  0.1500 -0.6463
 4989SOL    HW115287   1.180   1.345   5.201 -0.7604 -1.5185 -1.5373
 4989SOL    HW215288   1.020   1.372   5.219 -0.6607 -0.5231 -2.0597
 4990SOL     OW15289   4.127   3.926   2.953 -0.1420 -0.5199 -0.0484
 4990SOL    HW115290   4.073   3.917   2.869 -1.7375  0.4454  0.8436
 4990SOL    HW215291   4.091   4.001   3.008  0.5196 -1.4978  1.7900
 4991SOL     OW15292   4.825   0.118   4.032 -0.6761 -0.4686  0.3230
 4991SOL    HW115293   4.807   0.124   3.934  0.1206 -0.2796  0.1871
 4991SOL    HW215294   4.913   0.159   4.053 -0.9564 -0.2689  1.1615
 4992SOL     OW15295   3.944   4.595   5.338  0.6835  0.4186  0.2972
 4992SOL    HW115296   4.027   4.650   5.333  0.4173  0.7791 -0.2223
 4992SOL    HW215297   3.906   4.584   5.247 -0.2030  0.8148  0.6072
 4993SOL     OW15298   1.290   2.324   5.262 -0.2242  0.3037 -0.2247
 4993SOL    HW115299   1.336   2.392   5.318  3.3375 -3.1237  1.5349
 4993SOL    HW215300   1.299   2.349   5.166  2.4952  1.5494  0.2491
 4994SOL     OW15301   4.473   4.102   1.115 -0.2103  0.5955  0.1563
 4994SOL    HW115302   4.473   4.201   1.131  1.9585  0.5405  0.9123
 4994SOL    HW215303   4.447   4.084   1.020 -3.2580  1.6412  0.6776
 4995SOL     OW15304   3.561   1.842   5.332 -0.4563 -0.3452 -0.4733
 4995SOL    HW115305   3.508   1.811   5.253 -1.0255 -0.7731  0.0693
 4995SOL    HW215306   3.657   1.851   5.306 -0.2409 -2.5778 -0.6779
 4996SOL     OW15307   4.353   0.068   0.361  0.2412 -0.4935 -0.0310
 4996SOL    HW115308   4.270   0.013   0.349  0.6200 -1.0227 -0.2611
 4996SOL    HW215309   4.330   0.154   0.408 -0.0203 -1.8707  2.5875
 4997SOL     OW15310   3.924   4.115   4.408 -0.3633 -0.2049  0.2259
 4997SOL    HW115311   3.994   4.135   4.339  1.4609 -2.6089  1.2028
 4997SOL    HW215312   3.866   4.195   4.422  1.2446  1.4050 -1.7299
 4998SOL     OW15313   1.618   4.077   5.559 -0.1771  0.0802 -0.3396
 4998SOL    HW115314   1.606   4.168   5.519  0.0283 -0.1381 -0.9119
 4998SOL    HW215315   1.653   4.015   5.489 -0.0561 -0.3737  0.1205
 4999SOL     OW15316   4.056   2.493   0.167 -0.5068 -0.1792 -0.9177
 4999SOL    HW115317   4.085   2.586   0.191  0.5821 -0.3920 -1.3367
 4999SOL    HW215318   4.078   2.475   0.071  1.2360 -1.5494 -0.3362
 5000SOL     OW15319   2.582   0.353   1.851  0.3395 -0.5223 -1.3918
 5000SOL    HW115320   2.513   0.406   1.803 -1.7178 -2.3368 -0.5881
 5000SOL    HW215321   2.601   0.268   1.801  1.0375 -0.6280 -0.9636
 5001SOL     OW15322   3.047   0.881   3.910  0.3405 -0.8384  0.3766
 5001SOL    HW115323   3.142   0.906   3.931  0.2474 -0.9588  0.9719
 5001SOL    HW215324   3.046   0.806   3.844  0.6695 -1.1259  0.6951
 5002SOL     OW15325   4.719   4.375   1.568  0.0552  0.2174 -0.3199
 5002SOL    HW115326   4.718   4.289   1.516 -1.6179 -0.7133  1.1447
 5002SOL    HW215327   4.668   4.445   1.517  0.3270 -0.0173 -0.9283
 5003SOL     OW15328   0.577   3.485   4.044  0.4018 -0.1428  0.6630
 5003SOL    HW115329   0.551   3.506   3.950 -1.4122 -0.0582  1.1401
 5003SOL    HW215330   0.499   3.445   4.092  1.2076  0.0472  2.1973
 5004SOL     OW15331   1.742   0.786   2.802  0.2956 -0.0027  0.2881
 5004SOL    HW115332   1.667   0.775   2.737  0.2471  0.5274  0.2454
 5004SOL    HW215333   1.708   0.830   2.885  0.6356  0.6243  0.1013
 5005SOL     OW15334   4.242   1.311   2.232 -0.7425 -0.3654  0.5868
 5005SOL    HW115335   4.195   1.282   2.149  1.0419  0.7238 -0.8918
 5005SOL    HW215336   4.292   1.233   2.270  0.0559 -0.4473 -0.5575
 5006SOL     OW15337   3.758   1.900   2.898  0.1463 -0.4445 -0.1352
 5006SOL    HW115338   3.675   1.851   2.923 -0.4006 -0.3828 -1.6681
 5006SOL    HW215339   3.839   1.850   2.931 -0.4327 -1.7246 -0.5932
 5007SOL     OW15340   1.943   0.094   4.226  0.2157  0.1853 -0.0417
 5007SOL    HW115341   1.893   0.174   4.259  0.1269 -0.3163  1.0653
 5007SOL    HW215342   1.980   0.113   4.135 -0.9518  1.0053 -0.3730
 5008SOL     OW15343   5.156   2.472   3.463 -0.1262  0.3250  0.1959
 5008SOL    HW115344   5.189   2.567   3.463 -0.2083  0.3885  1.9335
 5008SOL    HW215345   5.192   2.424   3.383  3.6491  0.5778  1.5189
 5009SOL     OW15346   3.993   5.520   0.263  0.0481 -0.1195 -0.0811
 5009SOL    HW115347   4.055   5.455   0.219 -0.2191 -0.3589 -0.1077
 5009SOL    HW215348   3.901   5.481   0.265 -0.2473  0.5284 -0.6906
 5010SOL     OW15349   1.196   1.170   2.691 -0.0608  0.7467 -0.0116
 5010SOL    HW115350   1.119   1.147   2.631  0.0469 -0.9368  0.4366
 5010SOL    HW215351   1.244   1.250   2.654 -2.5840  2.4840  0.2559
 5011SOL     OW15352   2.397   4.522   2.690  0.3178  0.4809  0.6536
 5011SOL    HW115353   2.412   4.587   2.765  2.2098 -0.4376  1.1297
 5011SOL    HW215354   2.464   4.448   2.696  0.2804  0.1674 -1.7260
 5012SOL     OW15355   3.261   1.265   1.599 -0.0341 -0.1973 -0.2362
 5012SOL    HW115356   3.340   1.318   1.629  1.4479 -2.1272 -0.5227
 5012SOL    HW215357   3.254   1.181   1.655 -1.1005 -0.7060 -1.0859
 5013SOL     OW15358   3.672   2.082   2.328 -0.0211  0.9776 -0.2998
 5013SOL    HW115359   3.603   2.067   2.399 -0.0399 -0.1476 -0.5399
 5013SOL    HW215360   3.723   2.166   2.348 -0.4860  1.0434  0.6626
 5014SOL     OW15361   4.477   4.300   1.361 -0.4682 -0.0302 -0.2487
 5014SOL    HW115362   4.555   4.239   1.374 -0.1399  0.0098 -1.8732
 5014SOL    HW215363   4.393   4.253   1.387  0.0732 -0.0038  1.7337
 5015SOL     OW15364   3.852   3.312   0.408 -0.0113  0.3233  0.4285
 5015SOL    HW115365   3.814   3.368   0.482 -0.7995 -0.3657  0.5548
 5015SOL    HW215366   3.803   3.331   0.323  0.3916  0.5540  0.2414
 5016SOL     OW15367   0.008   1.120   5.565 -0.0957 -0.0686 -0.3116
 5016SOL    HW115368  -0.055   1.168   5.504  1.3950  0.7590 -1.2583
 5016SOL    HW215369   0.058   1.051   5.514  0.8965  0.3658  0.0595
 5017SOL     OW15370   2.927   4.207   4.843  0.5959  0.4144  0.0282
 5017SOL    HW115371   2.838   4.244   4.816  1.0285  1.6084  0.1691
 5017SOL    HW215372   2.958   4.253   4.927  2.7659  2.3783 -1.7047
 5018SOL     OW15373   4.565   1.591   4.736 -0.3996 -0.2490 -0.3175
 5018SOL    HW115374   4.595   1.523   4.803 -1.6919 -1.3100 -0.7808
 5018SOL    HW215375   4.563   1.681   4.779  2.4327 -0.2344  0.0029
 5019SOL     OW15376   1.536   5.126   0.449 -0.0207 -0.0241 -0.4576
 5019SOL    HW115377   1.599   5.087   0.517 -0.6453 -0.0723  0.0972
 5019SOL    HW215378   1.444   5.091   0.465 -0.1443 -0.1569 -1.4304
 5020SOL     OW15379   5.428   4.631   2.204  0.1068 -0.4757  0.2553
 5020SOL    HW115380   5.415   4.676   2.293 -0.7893 -0.7909  0.3004
 5020SOL    HW215381   5.488   4.687   2.147 -0.0463  0.1936  0.7350
 5021SOL     OW15382   1.851   0.331   3.707  0.2440 -0.1392  0.1435
 5021SOL    HW115383   1.868   0.343   3.805  1.2010  0.6968 -0.1156
 5021SOL    HW215384   1.809   0.241   3.691  0.0292 -0.2598  1.3178
 5022SOL     OW15385   4.065   0.274   5.488  0.4002 -0.2435 -0.3652
 5022SOL    HW115386   4.129   0.340   5.448 -0.0174  0.3329 -0.1081
 5022SOL    HW215387   3.978   0.320   5.507 -0.2342 -1.1005 -1.0781
 5023SOL     OW15388   3.721   0.988   3.311  0.8093  0.0704  0.7031
 5023SOL    HW115389   3.776   0.917   3.355  0.6857 -0.7685 -0.4724
 5023SOL    HW215390   3.766   1.018   3.227 -0.1635 -0.0939  0.1145
 5024SOL     OW15391   3.067   0.483   3.802 -0.2414  0.2229 -0.1888
 5024SOL    HW115392   3.018   0.408   3.846  1.5339 -1.1276 -0.3518
 5024SOL    HW215393   3.004   0.557   3.779 -2.1188 -1.3408 -0.2799
 5025SOL     OW15394   2.745   2.942   0.013 -0.0155  0.1915 -0.1410
 5025SOL    HW115395   2.790   3.028   0.038  0.5401 -0.0591 -0.2485
 5025SOL    HW215396   2.665   2.962  -0.044  0.5939  0.6106 -0.8799
 5026SOL     OW15397   1.071   2.758   0.567 -0.1179 -0.6045  0.1765
 5026SOL    HW115398   1.018   2.785   0.487 -2.8113 -1.0553  1.6903
 5026SOL    HW215399   1.098   2.662   0.558  1.4055 -0.0973 -1.0580
 5027SOL     OW15400   3.492   3.195   4.575 -0.0936 -0.2428 -0.4862
 5027SOL    HW115401   3.534   3.235   4.493 -0.7328  1.7132  0.0997
 5027SOL    HW215402   3.397   3.171   4.555 -0.2186  0.1368 -0.3477
 5028SOL     OW15403   3.287   0.975   1.513 -0.1294  0.5047 -0.9019
 5028SOL    HW115404   3.238   1.021   1.440 -0.6157 -0.1803 -1.0178
 5028SOL    HW215405   3.223   0.942   1.581  0.3081  0.9735 -0.2528
 5029SOL     OW15406   0.506   5.207   4.206 -0.0668  0.2397 -0.0408
 5029SOL    HW115407   0.444   5.129   4.206 -0.1801  0.2713 -1.8652
 5029SOL    HW215408   0.493   5.259   4.121  0.2514  2.0519  0.9521
 5030SOL     OW15409   3.169   4.299   4.743 -0.1957  0.6121 -0.3231
 5030SOL    HW115410   3.094   4.278   4.805  0.7816  2.0006  1.4278
 5030SOL    HW215411   3.217   4.214   4.720 -0.3216  0.0874  1.2024
 5031SOL     OW15412   5.200   0.493   0.100  0.0373 -0.2006  0.0055
 5031SOL    HW115413   5.274   0.518   0.162  1.1618  0.5890 -1.5719
 5031SOL    HW215414   5.143   0.423   0.142  0.3831  0.7300  2.1414
 5032SOL     OW15415   1.466   3.529   1.411  0.2688  0.0199 -0.2209
 5032SOL    HW115416   1.425   3.591   1.477  0.1976  0.6545 -0.8489
 5032SOL    HW215417   1.537   3.475   1.455 -1.1553 -1.0523  0.8880
 5033SOL     OW15418   4.775   0.759   2.249  0.3995  0.0103 -0.9788
 5033SOL    HW115419   4.771   0.851   2.288  2.1614 -0.0329 -0.6067
 5033SOL    HW215420   4.682   0.727   2.229 -0.3632  1.1918  0.4540
 5034SOL     OW15421   3.573   2.401   4.927  0.0579 -0.1366 -0.2756
 5034SOL    HW115422   3.517   2.392   4.844  0.7703 -1.6115 -0.6293
 5034SOL    HW215423   3.661   2.442   4.904 -1.4098  3.9769  0.5730
 5035SOL     OW15424   5.297   1.303   1.429 -0.7851  0.2393  0.2788
 5035SOL    HW115425   5.345   1.289   1.343  1.4289 -0.6747  1.5611
 5035SOL    HW215426   5.289   1.401   1.448  0.6242  0.4344 -0.0095
 5036SOL     OW15427   1.686   0.134   0.592 -0.0825  0.4103 -0.4821
 5036SOL    HW115428   1.720   0.167   0.504  0.6463  0.0835 -0.3340
 5036SOL    HW215429   1.762   0.098   0.646 -0.7844 -1.2168 -0.5033
 5037SOL     OW15430   3.602   3.600   4.344  0.2175 -0.6322 -0.1122
 5037SOL    HW115431   3.683   3.650   4.376  0.2842 -0.6283 -0.2893
 5037SOL    HW215432   3.521   3.656   4.359  0.4152  0.0137 -1.3810
 5038SOL     OW15433   5.327   3.946   0.612 -0.3014  0.7022  0.3395
 5038SOL    HW115434   5.300   3.967   0.518 -0.7431  0.5253  0.4267
 5038SOL    HW215435   5.426   3.955   0.620 -0.0258 -0.9828 -0.5945
 5039SOL     OW15436   4.279   2.562   4.541  0.1388 -0.4425 -0.2140
 5039SOL    HW115437   4.303   2.523   4.453  1.3951 -0.7222  0.2410
 5039SOL    HW215438   4.297   2.495   4.613 -3.0174 -1.1080  0.1112
 5040SOL     OW15439   3.170   4.030   3.492 -0.2704 -0.0993  0.0599
 5040SOL    HW115440   3.099   4.090   3.529 -1.2984 -0.2859 -1.5205
 5040SOL    HW215441   3.132   3.939   3.478  0.7209 -0.6054  0.5475
 5041SOL     OW15442   3.376   1.096   2.557 -0.0162 -0.9978  0.4247
 5041SOL    HW115443   3.432   1.012   2.557  0.1836 -0.8768 -0.5969
 5041SOL    HW215444   3.314   1.095   2.479 -0.8826 -0.7437  1.0919
 5042SOL     OW15445   0.212   3.082   0.691  0.3615 -0.2506 -0.4970
 5042SOL    HW115446   0.278   3.117   0.625 -0.4222  0.7375 -0.7833
 5042SOL    HW215447   0.257   3.069   0.780  1.6289 -2.3815 -1.3803
 5043SOL     OW15448   1.877   4.979   0.201  0.5072 -0.2751  0.4444
 5043SOL    HW115449   1.970   4.949   0.177 -0.5426 -2.5626 -1.2002
 5043SOL    HW215450   1.882   5.047   0.274  3.4118 -1.5118  1.5975
 5044SOL     OW15451   5.379   1.717   1.886  0.1461 -0.2161  0.4760
 5044SOL    HW115452   5.407   1.626   1.856 -0.8578 -0.2301 -0.4580
 5044SOL    HW215453   5.372   1.718   1.986 -0.5764 -1.3939  0.4580
 5045SOL     OW15454   3.851   0.020   4.729  0.3025 -0.1230 -0.1329
 5045SOL    HW115455   3.885   0.113   4.745  0.6213 -0.1434 -0.6761
 5045SOL    HW215456   3.791  -0.007   4.805 -0.0331  0.6402 -0.1167
 5046SOL     OW15457   1.413   2.792   4.973 -0.4732  0.3077  0.0736
 5046SOL    HW115458   1.375   2.860   4.910 -2.8355  0.8962  1.9648
 5046SOL    HW215459   1.468   2.839   5.042  0.1404 -0.0566 -0.1586
 5047SOL     OW15460   3.673   1.931   0.794 -0.2620  0.3165  0.1829
 5047SOL    HW115461   3.636   2.022   0.773 -0.8219 -0.1912 -1.1249
 5047SOL    HW215462   3.652   1.907   0.888  0.1022  1.6401  0.6205
 5048SOL     OW15463   3.622   2.243   0.768 -0.6708 -0.2784 -0.0965
 5048SOL    HW115464   3.685   2.269   0.695 -0.7499 -1.3004 -0.5516
 5048SOL    HW215465   3.644   2.294   0.851  1.2844 -1.1847 -0.0072
 5049SOL     OW15466   2.102   4.438   2.344 -1.1606 -0.0918 -0.2008
 5049SOL    HW115467   2.180   4.500   2.338 -0.8367 -0.5825 -4.8797
 5049SOL    HW215468   2.020   4.484   2.311 -1.8832 -0.9500  0.3230
 5050SOL     OW15469   1.859   0.870   2.138 -0.1154  0.1643  0.5442
 5050SOL    HW115470   1.933   0.852   2.204 -1.8538 -1.4839  2.1834
 5050SOL    HW215471   1.822   0.962   2.154  2.0651  1.3628 -0.8826
 5051SOL     OW15472   0.308   3.426   2.255 -0.3118 -0.6309 -0.0401
 5051SOL    HW115473   0.343   3.377   2.176  0.8866  2.0084 -1.2662
 5051SOL    HW215474   0.380   3.434   2.324  0.0213  0.6878 -0.5183
 5052SOL     OW15475   4.745   4.641   0.524 -0.1395  0.1943  0.1653
 5052SOL    HW115476   4.680   4.604   0.591 -0.2815 -0.1891 -0.1774
 5052SOL    HW215477   4.805   4.707   0.568 -0.6959  0.4774  0.5134
 5053SOL     OW15478   4.678   4.874   3.445 -0.6405 -0.3299 -0.4912
 5053SOL    HW115479   4.710   4.866   3.540  0.3137 -0.0145 -0.7683
 5053SOL    HW215480   4.579   4.886   3.444 -0.5738  0.4831  0.5092
 5054SOL     OW15481   3.089   1.292   0.757  0.3631  0.1787 -0.5206
 5054SOL    HW115482   3.154   1.359   0.794  0.3784  0.3407 -0.8345
 5054SOL    HW215483   3.009   1.339   0.721 -0.3187 -0.0699  0.6001
 5055SOL     OW15484   1.345   5.284   3.308 -0.2010 -0.6423 -0.2177
 5055SOL    HW115485   1.359   5.379   3.335 -0.8491 -0.8348  0.8817
 5055SOL    HW215486   1.356   5.225   3.388 -1.5729 -1.3130 -0.4994
 5056SOL     OW15487   0.756   0.841   2.141 -0.5406  0.6678  0.4746
 5056SOL    HW115488   0.795   0.755   2.109 -0.6689  0.2485  1.4124
 5056SOL    HW215489   0.761   0.909   2.068  0.0570  0.0271 -0.0947
 5057SOL     OW15490   0.198   4.698   2.653 -0.1025  0.2995  0.2093
 5057SOL    HW115491   0.236   4.703   2.561 -0.5819  1.6784  0.0738
 5057SOL    HW215492   0.174   4.790   2.685 -0.1535 -0.1747  1.6261
 5058SOL     OW15493   3.051   1.211   5.385  0.1341  0.1073 -0.1103
 5058SOL    HW115494   3.073   1.278   5.456 -0.7074 -2.2074  2.5177
 5058SOL    HW215495   3.117   1.136   5.389 -1.4242 -1.3172  0.0676
 5059SOL     OW15496   4.109   2.233   1.735 -0.3119 -0.1285  0.3497
 5059SOL    HW115497   4.194   2.280   1.757 -0.8327  1.0384 -0.0624
 5059SOL    HW215498   4.065   2.202   1.820  0.2255 -0.2063  0.5983
 5060SOL     OW15499   2.901   3.139   3.130 -0.1741  0.1070  0.2627
 5060SOL    HW115500   2.850   3.102   3.052 -0.0464 -0.2372  0.3408
 5060SOL    HW215501   2.951   3.221   3.101 -1.3140  0.8636  0.3581
 5061SOL     OW15502   5.387   2.174   4.439 -0.5144 -0.1196  0.9448
 5061SOL    HW115503   5.352   2.126   4.519 -1.0635 -1.8296 -0.2485
 5061SOL    HW215504   5.487   2.175   4.441 -0.5116 -0.6760  1.3834
 5062SOL     OW15505   2.881   3.530   0.067 -0.2429 -0.4305  0.4884
 5062SOL    HW115506   2.967   3.561   0.027 -0.1687  3.7393  3.2308
 5062SOL    HW215507   2.900   3.467   0.143  0.2428 -0.7238  0.1277
 5063SOL     OW15508   3.959   2.097   3.041 -0.0745  0.1497  0.0311
 5063SOL    HW115509   3.909   2.184   3.039 -1.7603 -0.7824 -0.1154
 5063SOL    HW215510   3.919   2.037   3.110  0.8378 -0.6626 -0.1206
 5064SOL     OW15511   3.824   3.431   4.932 -0.4867 -0.3830 -0.5766
 5064SOL    HW115512   3.785   3.339   4.942 -1.2277  0.0436  0.8356
 5064SOL    HW215513   3.801   3.485   5.013  1.1805  0.6037 -0.7212
 5065SOL     OW15514   0.426   3.908   2.167 -0.5529 -0.2796 -0.1800
 5065SOL    HW115515   0.386   3.996   2.193 -0.3262 -0.6974  1.7285
 5065SOL    HW215516   0.526   3.914   2.169 -0.5110 -0.8970  1.3320
 5066SOL     OW15517   0.937   0.587   4.139  0.8598  0.2197 -0.2065
 5066SOL    HW115518   0.930   0.572   4.040 -0.0161 -1.1278  0.0446
 5066SOL    HW215519   0.849   0.617   4.175  0.8939 -0.3017  0.3232
 5067SOL     OW15520   4.354   2.912   1.239 -0.3485  0.0820  0.1555
 5067SOL    HW115521   4.433   2.950   1.286  0.4718 -0.2620 -0.9036
 5067SOL    HW215522   4.362   2.812   1.237 -0.9226  0.0329  0.2368
 5068SOL     OW15523   0.142   0.047   1.400  0.1261  0.0560 -0.1493
 5068SOL    HW115524   0.168   0.140   1.423 -0.2495  0.0090  0.4843
 5068SOL    HW215525   0.052   0.046   1.356 -1.0244 -0.1867  2.0383
 5069SOL     OW15526   0.051   4.672   1.634  0.1536  0.0482 -0.2132
 5069SOL    HW115527   0.106   4.664   1.550 -1.8079  2.3745 -1.8932
 5069SOL    HW215528  -0.042   4.640   1.615 -0.2468  0.3519  1.1791
 5070SOL     OW15529   1.954   1.269   1.315  0.6521  0.1909  0.2378
 5070SOL    HW115530   1.910   1.314   1.237  1.5514  1.2362  0.3098
 5070SOL    HW215531   1.911   1.301   1.400 -0.3156 -0.9342  0.1916
 5071SOL     OW15532   3.592   5.287   1.478 -0.1038  0.2147 -0.2944
 5071SOL    HW115533   3.588   5.371   1.424 -0.4565  0.1790 -0.3258
 5071SOL    HW215534   3.687   5.261   1.493  0.0005 -0.0062 -1.2745
 5072SOL     OW15535   3.045   2.613   4.738 -0.2653  0.0666 -0.0916
 5072SOL    HW115536   3.138   2.650   4.735 -0.0634 -0.4524 -0.2842
 5072SOL    HW215537   2.980   2.688   4.747  0.1228  0.4899 -0.7533
 5073SOL     OW15538   2.311   1.862   2.108 -0.1333  0.7342  0.2423
 5073SOL    HW115539   2.410   1.861   2.097 -0.2558  0.3563 -1.0078
 5073SOL    HW215540   2.274   1.948   2.072 -0.2856  0.7783  0.4996
 5074SOL     OW15541   3.359   2.673   3.440  0.0193  0.0441  0.1486
 5074SOL    HW115542   3.449   2.658   3.399 -1.1229  0.0553 -2.5787
 5074SOL    HW215543   3.351   2.768   3.470  1.1612 -0.1595  1.1631
 5075SOL     OW15544   1.089   2.019   5.450 -0.0619 -0.4469  0.7977
 5075SOL    HW115545   1.024   2.087   5.416  1.5667  1.6524  1.6553
 5075SOL    HW215546   1.078   1.934   5.399 -1.7747  0.6261 -0.7510
 5076SOL     OW15547   4.777   2.120   4.220  0.1144  0.3102  0.0874
 5076SOL    HW115548   4.781   2.051   4.147  0.6421 -0.5758  0.9340
 5076SOL    HW215549   4.687   2.115   4.264 -0.2329  0.8971 -0.5294
 5077SOL     OW15550   3.461   1.219   0.238  0.5552 -0.1013  0.1562
 5077SOL    HW115551   3.465   1.167   0.152  1.5149  0.6387 -0.2802
 5077SOL    HW215552   3.525   1.296   0.232  1.9886 -1.0290  2.2017
 5078SOL     OW15553   4.511   1.522   1.259  0.1542  0.5124 -0.1340
 5078SOL    HW115554   4.488   1.542   1.164  2.1654 -0.5498 -0.8987
 5078SOL    HW215555   4.609   1.508   1.268 -0.2228 -1.7559  1.6426
 5079SOL     OW15556   2.910   3.997   2.241 -0.1209 -0.0370 -0.6271
 5079SOL    HW115557   2.948   3.972   2.152 -0.5403  0.0409 -0.8338
 5079SOL    HW215558   2.811   3.984   2.239  0.1346 -2.7438  0.7294
 5080SOL     OW15559   0.140   4.927   1.579  0.2669 -0.8242  0.5205
 5080SOL    HW115560   0.114   4.832   1.590 -0.4290 -0.6995  0.0049
 5080SOL    HW215561   0.089   4.984   1.644 -2.9746 -0.2348 -2.2666
 5081SOL     OW15562   0.532   4.360   4.995  0.5660 -0.2030 -0.1261
 5081SOL    HW115563   0.625   4.326   4.980  1.1807  0.5731  1.6622
 5081SOL    HW215564   0.493   4.319   5.078  1.1907  2.9087  1.9013
 5082SOL     OW15565   3.938   2.498   3.163 -0.2504  0.2014 -0.9000
 5082SOL    HW115566   3.931   2.581   3.108 -1.6298 -0.2071 -1.3968
 5082SOL    HW215567   4.031   2.464   3.160  0.0633  1.0702 -1.6782
 5083SOL     OW15568   3.196   3.504   1.002  0.5790 -0.1774 -0.5114
 5083SOL    HW115569   3.119   3.506   0.938  1.3273  2.0606 -1.4550
 5083SOL    HW215570   3.171   3.550   1.087  0.7727  0.2929 -0.7063
 5084SOL     OW15571   4.031   0.121   2.362 -0.4783 -0.5563  0.1943
 5084SOL    HW115572   3.936   0.107   2.389 -0.3792  0.6368  1.2462
 5084SOL    HW215573   4.088   0.049   2.400 -1.0965 -2.0501 -1.5308
 5085SOL     OW15574   5.186   4.467   1.446 -0.1481  0.4787 -0.8374
 5085SOL    HW115575   5.087   4.472   1.461  0.1349  2.0663  0.7472
 5085SOL    HW215576   5.213   4.371   1.434 -1.9496  0.0642 -2.1182
 5086SOL     OW15577   0.795   1.392   3.811  0.2571  0.3333  0.6033
 5086SOL    HW115578   0.780   1.484   3.773 -0.4714 -0.3776 -0.9141
 5086SOL    HW215579   0.763   1.324   3.746  0.5716 -1.0112  1.8149
 5087SOL     OW15580   0.752   0.978   1.119  0.4331 -0.3165  0.6395
 5087SOL    HW115581   0.769   0.954   1.023 -0.4112  1.5297 -0.0222
 5087SOL    HW215582   0.830   0.950   1.174  1.4489 -0.3964 -0.7760
 5088SOL     OW15583   4.508   2.358   5.196 -0.0053  0.0590  0.2359
 5088SOL    HW115584   4.520   2.261   5.218 -0.6166 -0.1526 -0.3309
 5088SOL    HW215585   4.421   2.371   5.148  1.1480  0.5069 -1.8813
 5089SOL     OW15586   0.634   4.704   4.196 -0.1897  0.1439  0.5700
 5089SOL    HW115587   0.607   4.672   4.105 -2.5972  0.4874  1.0814
 5089SOL    HW215588   0.569   4.668   4.264 -0.4376  2.5370  1.7137
 5090SOL     OW15589   1.183   3.701   5.294 -0.0588  0.0756 -0.2846
 5090SOL    HW115590   1.252   3.720   5.364  0.1580 -1.2603 -0.1019
 5090SOL    HW215591   1.115   3.774   5.294 -0.1404  0.0505  1.4137
 5091SOL     OW15592   4.565   1.180   4.610 -0.0191 -0.3215  0.2905
 5091SOL    HW115593   4.608   1.267   4.635 -1.4419  0.6123 -0.3476
 5091SOL    HW215594   4.546   1.179   4.512  0.3587 -1.5493  0.2143
 5092SOL     OW15595   1.572   0.318   1.726 -0.5278  0.3772  0.4674
 5092SOL    HW115596   1.581   0.236   1.669  1.9616  0.4564  0.6194
 5092SOL    HW215597   1.509   0.299   1.801 -1.5821 -0.6969 -0.6323
 5093SOL     OW15598   2.714   3.705   3.447  1.0139  0.6788 -0.1168
 5093SOL    HW115599   2.774   3.653   3.508 -0.3653 -0.7358  0.1115
 5093SOL    HW215600   2.753   3.706   3.355  1.8946  0.6770  0.2490
 5094SOL     OW15601   0.351   3.477   0.181  0.2035  0.5158 -0.2166
 5094SOL    HW115602   0.294   3.554   0.209  1.0951  1.0861  0.0656
 5094SOL    HW215603   0.444   3.509   0.163  0.0869 -0.1323 -2.1569
 5095SOL     OW15604   1.197   2.881   4.078 -0.3471  0.1468 -0.1994
 5095SOL    HW115605   1.274   2.899   4.139 -0.0528  1.7023 -0.9817
 5095SOL    HW215606   1.130   2.823   4.125  0.6094 -0.0329  1.0004
 5096SOL     OW15607   1.701   4.996   3.868 -0.9414 -0.3007 -0.5958
 5096SOL    HW115608   1.636   4.940   3.920  1.2859 -0.7217  1.9727
 5096SOL    HW215609   1.685   5.092   3.888  0.1278 -0.4700  1.3491
 5097SOL     OW15610   4.607   5.078   0.666 -0.3347  0.2961  0.4292
 5097SOL    HW115611   4.556   4.997   0.693  1.2577 -0.2463  2.0014
 5097SOL    HW215612   4.639   5.126   0.748  0.4269  1.4170 -0.4943
 5098SOL     OW15613   3.445   0.215   3.301  0.4192 -0.1626  0.1534
 5098SOL    HW115614   3.512   0.141   3.291 -1.1650 -1.7266  0.5167
 5098SOL    HW215615   3.378   0.190   3.371 -1.4220  0.6217 -1.2407
 5099SOL     OW15616   4.238   3.798   2.354 -0.2322  0.2867 -0.0485
 5099SOL    HW115617   4.216   3.706   2.321 -0.7454  0.3245  0.1668
 5099SOL    HW215618   4.323   3.829   2.312  0.1555 -0.4430  0.1828
 5100SOL     OW15619   2.862   4.849   0.795 -0.1285 -0.3530  0.3330
 5100SOL    HW115620   2.834   4.770   0.849  0.4543 -1.2958 -0.7010
 5100SOL    HW215621   2.921   4.908   0.850 -1.1048 -0.2667  1.3314
 5101SOL     OW15622   2.879   4.987   3.637  0.0637  0.3839 -0.1359
 5101SOL    HW115623   2.793   5.029   3.608 -0.4067  1.4320  2.5092
 5101SOL    HW215624   2.876   4.889   3.618 -1.2360  0.5797 -1.0977
 5102SOL     OW15625   0.903   2.005   3.342 -0.2602 -0.3335  0.4313
 5102SOL    HW115626   0.984   2.017   3.399 -0.5886 -1.6474  1.2015
 5102SOL    HW215627   0.909   1.919   3.291 -1.9625 -1.3807  1.9053
 5103SOL     OW15628   0.049   2.038   3.610 -0.2960 -0.4400  0.5642
 5103SOL    HW115629   0.037   1.951   3.657 -0.3630 -0.7955 -0.1045
 5103SOL    HW215630  -0.021   2.102   3.642 -1.7839 -1.3787 -0.6414
 5104SOL     OW15631   5.489   2.857   5.384 -0.4450  0.5486 -0.2060
 5104SOL    HW115632   5.538   2.770   5.396  0.1706  0.5841 -2.1604
 5104SOL    HW215633   5.429   2.850   5.304  0.2307  2.1875 -0.8850
 5105SOL     OW15634   4.235   1.352   2.945 -0.0267  0.3781 -0.6079
 5105SOL    HW115635   4.215   1.254   2.943 -0.1550  0.4075 -0.7544
 5105SOL    HW215636   4.194   1.391   3.028  1.4930 -0.0025  0.3665
 5106SOL     OW15637   2.606   0.506   5.406  0.0267 -0.4837 -0.8343
 5106SOL    HW115638   2.610   0.432   5.474 -0.6580  0.0125 -0.2286
 5106SOL    HW215639   2.689   0.506   5.351  0.7012 -0.7625  0.1645
 5107SOL     OW15640   4.494   2.021   3.441 -0.5774 -0.3412  0.5435
 5107SOL    HW115641   4.527   2.094   3.502 -1.5217 -0.2578  0.9745
 5107SOL    HW215642   4.532   1.933   3.471  0.4933 -0.0501  0.0770
 5108SOL     OW15643   4.556   3.410   0.113 -0.2340  0.0622  0.5201
 5108SOL    HW115644   4.595   3.502   0.119 -1.1897  0.6173 -1.1475
 5108SOL    HW215645   4.482   3.401   0.179  0.4980  0.1304  1.3740
 5109SOL     OW15646   4.264   4.811   2.308  0.0277  0.2550  0.1515
 5109SOL    HW115647   4.188   4.851   2.256  0.6499  0.3150 -0.7427
 5109SOL    HW215648   4.236   4.798   2.403 -1.9578 -2.0500 -0.6460
 5110SOL     OW15649   4.243   0.819   3.387 -0.2497  0.1416  0.0172
 5110SOL    HW115650   4.254   0.739   3.329  0.2108  0.0485  0.2271
 5110SOL    HW215651   4.328   0.872   3.387 -0.2163  0.0962  0.6680
 5111SOL     OW15652   1.357   2.909   3.822  0.5261  0.8139  0.1138
 5111SOL    HW115653   1.398   2.819   3.809 -0.1814  0.7762 -2.3860
 5111SOL    HW215654   1.282   2.903   3.888 -1.2307 -1.0661 -1.8952
 5112SOL     OW15655   5.552   4.906   4.043  0.3313  0.2901 -0.2104
 5112SOL    HW115656   5.463   4.944   4.065 -0.0441 -0.5435 -0.2560
 5112SOL    HW215657   5.621   4.943   4.106 -0.4734 -0.9598  1.4863
 5113SOL     OW15658   0.865   0.938   0.855  0.0990 -0.6344 -0.1762
 5113SOL    HW115659   0.881   1.023   0.805 -0.2040 -0.9828 -0.8731
 5113SOL    HW215660   0.949   0.909   0.899  0.5704 -0.7364 -1.1299
 5114SOL     OW15661   3.530   1.335   2.590 -0.3161  0.1117 -0.0189
 5114SOL    HW115662   3.455   1.273   2.609 -0.4088  0.4060  0.5991
 5114SOL    HW215663   3.604   1.320   2.656 -0.9536  1.6677  1.0971
 5115SOL     OW15664   3.818   3.631   4.723  0.1259 -0.2336 -0.4019
 5115SOL    HW115665   3.835   3.574   4.803  1.1613 -0.1209 -0.5337
 5115SOL    HW215666   3.892   3.697   4.712 -1.4539  1.7933  0.2720
 5116SOL     OW15667   5.437   3.276   1.096 -0.0315 -0.0042 -0.0178
 5116SOL    HW115668   5.525   3.229   1.105  0.0714  0.1885  0.0034
 5116SOL    HW215669   5.371   3.238   1.160 -0.1734 -0.6325 -0.5245
 5117SOL     OW15670   4.696   0.651   2.561 -0.1987  0.5088  0.6839
 5117SOL    HW115671   4.629   0.713   2.521  0.1912  1.6467  1.7452
 5117SOL    HW215672   4.663   0.557   2.553 -1.6938  1.0046  0.7356
 5118SOL     OW15673   2.403   1.532   1.514  0.3141  0.6711  0.0423
 5118SOL    HW115674   2.457   1.557   1.594  0.4821  0.7958 -0.1083
 5118SOL    HW215675   2.371   1.614   1.468  2.7209  0.7542 -1.7206
 5119SOL     OW15676   0.851   2.986   3.922 -0.0936  0.0929  0.7075
 5119SOL    HW115677   0.904   3.070   3.909  0.3520  0.1650  2.7577
 5119SOL    HW215678   0.903   2.923   3.980 -0.0215 -2.0095 -1.4780
 5120SOL     OW15679   4.631   4.756   4.257 -0.1681 -0.0647  0.4114
 5120SOL    HW115680   4.652   4.672   4.307  0.1142 -0.9180 -1.0875
 5120SOL    HW215681   4.535   4.755   4.228 -0.2791  0.3372  0.7547
 5121SOL     OW15682   0.070   3.926   3.809 -0.6226 -0.1979 -0.3897
 5121SOL    HW115683  -0.009   3.947   3.752 -0.1582  0.8338 -0.6664
 5121SOL    HW215684   0.065   3.831   3.839 -1.3761 -0.4703 -1.3422
 5122SOL     OW15685   0.272   2.710   4.187  0.3621 -0.2799  0.1491
 5122SOL    HW115686   0.193   2.655   4.216  0.0352 -0.9173 -1.7985
 5122SOL    HW215687   0.265   2.801   4.227 -1.1544 -0.4603  0.3752
 5123SOL     OW15688   0.629   2.171   4.109  0.1148  0.1326 -0.3802
 5123SOL    HW115689   0.613   2.268   4.129 -0.5301 -0.0772  0.1500
 5123SOL    HW215690   0.691   2.133   4.178 -0.7736 -0.1772  0.2652
 5124SOL     OW15691   3.259   0.782   1.190  0.7345 -0.4607 -0.0197
 5124SOL    HW115692   3.196   0.839   1.243  0.4096 -0.0997 -0.7762
 5124SOL    HW215693   3.207   0.718   1.134  1.0837 -1.0839  0.3571
 5125SOL     OW15694   1.926   4.758   1.624  0.1292  0.4319 -0.2975
 5125SOL    HW115695   1.950   4.812   1.544 -1.2182 -0.9446 -1.7089
 5125SOL    HW215696   1.924   4.661   1.599 -0.0295 -0.0612  1.4908
 5126SOL     OW15697   0.356   3.419   4.220  0.5670 -0.3126 -0.1310
 5126SOL    HW115698   0.257   3.411   4.210  0.5566 -0.7905  0.2769
 5126SOL    HW215699   0.378   3.500   4.275  0.4022 -0.2252 -0.1932
 5127SOL     OW15700   0.375   1.737   0.963 -0.1470 -0.1884  0.3306
 5127SOL    HW115701   0.395   1.715   0.867  0.9515 -0.3548  0.5826
 5127SOL    HW215702   0.454   1.713   1.019 -0.6591  0.2226  1.2386
 5128SOL     OW15703   3.163   2.453   5.345  0.3455 -0.7574  0.3157
 5128SOL    HW115704   3.246   2.458   5.289 -0.2651 -1.9880 -0.7482
 5128SOL    HW215705   3.083   2.467   5.286 -0.2729 -1.3520  1.0016
 5129SOL     OW15706   0.135   1.699   5.470  0.5035 -0.2613 -0.1217
 5129SOL    HW115707   0.081   1.751   5.536 -0.3162 -1.6226  0.3011
 5129SOL    HW215708   0.152   1.757   5.390 -0.3079  0.6930  0.3636
 5130SOL     OW15709   2.297   2.683   4.282  0.1756  0.3013 -0.1453
 5130SOL    HW115710   2.218   2.624   4.268 -0.7769  1.7775 -1.2768
 5130SOL    HW215711   2.278   2.748   4.356  1.4537 -1.0939  1.5334
 5131SOL     OW15712   3.521   4.773   5.430  0.4462  0.3444 -0.0952
 5131SOL    HW115713   3.525   4.846   5.362 -0.1972  1.4180  0.9711
 5131SOL    HW215714   3.613   4.751   5.462  0.5943  1.1697  0.0602
 5132SOL     OW15715   3.700   5.006   1.345 -0.7804 -0.2745  0.6853
 5132SOL    HW115716   3.701   5.016   1.246  3.7476 -2.1761  0.2839
 5132SOL    HW215717   3.767   5.069   1.385 -2.4809  0.4250  2.6127
 5133SOL     OW15718   5.259   3.534   3.860  0.4121  0.8520 -0.4059
 5133SOL    HW115719   5.201   3.615   3.847  0.4961  0.8431 -0.8466
 5133SOL    HW215720   5.354   3.563   3.873  0.2458  0.9027  0.9083
 5134SOL     OW15721   1.930   1.667   0.386  0.4710  0.2516 -0.1204
 5134SOL    HW115722   1.899   1.573   0.399 -0.2969  0.4438 -0.5182
 5134SOL    HW215723   1.857   1.731   0.410  0.5031  0.7067 -1.1616
 5135SOL     OW15724   3.921   4.227   1.692 -0.3407 -0.3023 -0.0431
 5135SOL    HW115725   3.847   4.292   1.679 -0.7202 -0.9841 -1.4796
 5135SOL    HW215726   3.891   4.136   1.665  1.0258 -0.5733 -0.7686
 5136SOL     OW15727   2.600   4.503   0.195  0.4604 -0.4720 -0.0665
 5136SOL    HW115728   2.658   4.424   0.210  1.8384  0.7628  1.5307
 5136SOL    HW215729   2.652   4.574   0.147 -0.4742 -0.1766 -0.6761
 5137SOL     OW15730   2.114   3.830   4.723  0.5609 -0.2706  0.1741
 5137SOL    HW115731   2.026   3.877   4.724  1.5848  1.8049  1.7374
 5137SOL    HW215732   2.141   3.812   4.628 -0.9459  0.2389 -0.3829
 5138SOL     OW15733   2.705   0.998   3.724 -0.2486  0.1695  0.2492
 5138SOL    HW115734   2.699   1.085   3.674 -1.0933  0.9527  1.6473
 5138SOL    HW215735   2.623   0.986   3.779  0.2735 -1.0900  0.7892
 5139SOL     OW15736   0.192   4.905   2.261 -0.0922 -0.7245  1.4681
 5139SOL    HW115737   0.147   4.861   2.183  0.9845 -0.6689  0.8058
 5139SOL    HW215738   0.244   4.837   2.313  2.8654 -0.0878 -0.4459
 5140SOL     OW15739   2.152   4.022   1.986 -0.6546  0.0756  0.0760
 5140SOL    HW115740   2.137   4.035   2.084 -0.4470 -0.7938  0.2396
 5140SOL    HW215741   2.123   4.103   1.936 -1.0281  0.4199  0.8350
 5141SOL     OW15742   2.824   4.952   2.884 -0.3316  0.1534  0.5218
 5141SOL    HW115743   2.848   5.015   2.811  1.7922 -0.5812  0.5308
 5141SOL    HW215744   2.907   4.918   2.928 -1.2892 -3.1541  0.0751
 5142SOL     OW15745   1.740   3.496   4.319 -0.2665  0.0240  0.0356
 5142SOL    HW115746   1.783   3.567   4.376 -0.8421  0.6714 -0.3266
 5142SOL    HW215747   1.786   3.409   4.335  1.3002  0.7246 -0.4422
 5143SOL     OW15748   4.007   3.996   1.388 -0.4441  0.3327  0.2243
 5143SOL    HW115749   4.026   4.025   1.482  2.1584  0.1957 -0.1758
 5143SOL    HW215750   3.952   3.913   1.389  0.2246 -0.1275  1.6767
 5144SOL     OW15751   3.810   2.126   3.564 -0.3196  0.1485 -0.0770
 5144SOL    HW115752   3.774   2.214   3.596 -0.6614  0.5806 -1.5790
 5144SOL    HW215753   3.909   2.126   3.576 -0.2407  0.9891 -0.5867
 5145SOL     OW15754   1.862   4.794   0.586 -0.2610 -0.6696  0.6090
 5145SOL    HW115755   1.933   4.835   0.643  1.0208 -1.3722 -0.4250
 5145SOL    HW215756   1.831   4.708   0.629 -1.3327  0.1966  1.6305
 5146SOL     OW15757   2.429   4.457   0.398  0.0074 -0.2996 -0.3750
 5146SOL    HW115758   2.409   4.361   0.378 -0.2608  0.0642 -2.0009
 5146SOL    HW215759   2.485   4.495   0.324  1.8732  0.2701  1.2599
 5147SOL     OW15760   3.028   4.281   5.082 -0.5823 -0.6596  0.1787
 5147SOL    HW115761   3.095   4.227   5.133  1.6531  0.8495 -1.0017
 5147SOL    HW215762   2.967   4.327   5.147 -0.8692 -2.4746  1.2714
 5148SOL     OW15763   4.871   2.411   3.084 -0.1558 -0.1564 -0.0695
 5148SOL    HW115764   4.887   2.464   3.001 -2.4133 -0.4828 -0.7889
 5148SOL    HW215765   4.894   2.315   3.068 -0.5950 -0.2199 -0.3161
 5149SOL     OW15766   3.871   4.367   3.715 -0.2990  0.1922  0.2014
 5149SOL    HW115767   3.794   4.355   3.652  0.3795  1.3738 -0.9051
 5149SOL    HW215768   3.843   4.424   3.791 -0.7213 -0.0160  0.2054
 5150SOL     OW15769   0.636   3.985   5.147  0.5014  0.4875  0.6049
 5150SOL    HW115770   0.706   4.021   5.086  0.9231 -0.5032  0.4924
 5150SOL    HW215771   0.627   3.887   5.134 -0.2297  0.4490  1.3096
 5151SOL     OW15772   3.888   3.767   1.411  0.6796  0.1305  0.3474
 5151SOL    HW115773   3.791   3.744   1.409  0.2951  1.5670  1.0487
 5151SOL    HW215774   3.942   3.684   1.408 -0.5881 -0.7365  0.7001
 5152SOL     OW15775   1.696   3.622   1.908 -0.0650 -1.0524 -0.0992
 5152SOL    HW115776   1.787   3.581   1.904  0.3672 -0.5050  2.6069
 5152SOL    HW215777   1.642   3.576   1.978 -1.4212 -0.4670 -0.7313
 5153SOL     OW15778   5.471   3.902   4.903 -0.0616 -0.0517  0.0391
 5153SOL    HW115779   5.501   3.807   4.895  2.1870  0.5897  0.1328
 5153SOL    HW215780   5.545   3.963   4.875 -1.8635  1.6918 -1.2650
 5154SOL     OW15781   5.397   0.304   2.548  0.1988  0.0665 -0.0976
 5154SOL    HW115782   5.428   0.338   2.637  1.9239  1.3567 -1.1151
 5154SOL    HW215783   5.400   0.379   2.481 -1.2006 -0.8338 -1.2286
 5155SOL     OW15784   5.352   2.426   4.153  0.1173 -0.3652  0.0503
 5155SOL    HW115785   5.292   2.467   4.084  0.4310 -1.4499 -0.8961
 5155SOL    HW215786   5.308   2.432   4.243 -1.5313 -1.3317 -0.6462
 5156SOL     OW15787   0.520   2.433   2.986 -0.6264 -0.0212 -0.1097
 5156SOL    HW115788   0.538   2.408   3.081  0.6154 -0.5115 -0.4599
 5156SOL    HW215789   0.451   2.371   2.949 -0.3934 -0.4664  0.1847
 5157SOL     OW15790   4.752   3.841   0.293 -0.0395 -0.3459 -0.3603
 5157SOL    HW115791   4.811   3.909   0.249 -0.2719 -0.6408 -1.1359
 5157SOL    HW215792   4.769   3.841   0.392  0.6994  0.1141 -0.4826
 5158SOL     OW15793   4.446   2.343   0.263  0.0948 -0.3703  0.0567
 5158SOL    HW115794   4.348   2.325   0.271  0.2755 -0.5792  2.7314
 5158SOL    HW215795   4.479   2.308   0.175 -2.1074 -0.7326 -0.6998
 5159SOL     OW15796   5.290   4.634   4.525 -0.7185  0.0142  0.0721
 5159SOL    HW115797   5.260   4.541   4.503  0.7898 -0.6852  0.8222
 5159SOL    HW215798   5.240   4.668   4.605 -1.1493 -0.2230 -0.0978
 5160SOL     OW15799   4.708   3.519   2.784  0.2578  0.3921 -0.0729
 5160SOL    HW115800   4.684   3.486   2.876  0.1270 -0.5921 -0.4514
 5160SOL    HW215801   4.806   3.532   2.777  0.3129  0.0510  0.0722
 5161SOL     OW15802   1.575   3.836   4.159  0.1142  0.4541  0.0215
 5161SOL    HW115803   1.625   3.882   4.233  0.7900  0.0305 -0.1549
 5161SOL    HW215804   1.638   3.817   4.084 -0.1857 -0.5563  0.0026
 5162SOL     OW15805   0.291   0.861   1.159  0.0200 -0.2901 -0.4596
 5162SOL    HW115806   0.246   0.815   1.082 -0.3636 -2.5229  1.0255
 5162SOL    HW215807   0.390   0.846   1.154  0.1688  0.7707 -1.2284
 5163SOL     OW15808   0.438   3.797   2.976  0.3890 -0.4796 -0.3942
 5163SOL    HW115809   0.444   3.861   3.052  0.9233 -0.3989 -0.4972
 5163SOL    HW215810   0.376   3.833   2.906 -1.3242 -1.2656  0.6704
 5164SOL     OW15811   4.115   1.397   5.402 -0.1779  0.3134  0.0826
 5164SOL    HW115812   4.041   1.331   5.415  0.4144 -0.1643  1.1174
 5164SOL    HW215813   4.175   1.365   5.329 -0.0038 -0.2044  0.4473
 5165SOL     OW15814   5.355   2.144   3.680 -0.0810  0.0443 -0.1302
 5165SOL    HW115815   5.286   2.087   3.636 -0.4875 -0.7481  1.4631
 5165SOL    HW215816   5.311   2.222   3.724  0.1886  0.2337 -0.1930
 5166SOL     OW15817   2.003   2.257   4.219  0.3215 -0.4126 -0.0134
 5166SOL    HW115818   2.013   2.203   4.302 -0.9731 -0.1616  0.3260
 5166SOL    HW215819   1.909   2.251   4.186  0.8417 -0.6285 -1.5594
 5167SOL     OW15820   0.163   0.682   1.477 -0.0401 -0.4363  0.4877
 5167SOL    HW115821   0.082   0.731   1.507  0.8782  3.1867 -2.2327
 5167SOL    HW215822   0.139   0.623   1.400  0.1132  2.8686 -2.3272
 5168SOL     OW15823   3.445   3.908   0.844  0.1164  0.1864 -0.7165
 5168SOL    HW115824   3.528   3.919   0.790  0.3980 -0.9552 -0.5247
 5168SOL    HW215825   3.437   3.814   0.876 -1.0744  0.3608 -0.4382
 5169SOL     OW15826   2.487   2.311   1.513 -0.3041 -0.5439  0.1691
 5169SOL    HW115827   2.414   2.289   1.577 -1.3462  0.9620 -0.4348
 5169SOL    HW215828   2.566   2.348   1.564 -0.6112 -0.5963  0.6900
 5170SOL     OW15829   5.123   4.243   1.091  0.0879  0.1287  0.6398
 5170SOL    HW115830   5.071   4.321   1.056  0.7531  0.1816 -0.2788
 5170SOL    HW215831   5.124   4.171   1.021  1.6574  0.3253  0.4196
 5171SOL     OW15832   4.212   0.815   2.429  0.7609  0.2591  0.6216
 5171SOL    HW115833   4.125   0.865   2.433  0.9128  0.7110 -0.8689
 5171SOL    HW215834   4.195   0.720   2.401  0.7977  0.6164 -0.6972
 5172SOL     OW15835   3.968   3.123   0.129 -0.5914 -0.0619  0.1543
 5172SOL    HW115836   4.011   3.114   0.218 -0.2821 -0.1354 -0.0032
 5172SOL    HW215837   3.989   3.213   0.091  0.5625 -0.6043 -0.5245
 5173SOL     OW15838   2.321   1.135   2.546  0.3538 -0.2445 -0.1353
 5173SOL    HW115839   2.343   1.046   2.588 -1.1898 -0.1258  1.0318
 5173SOL    HW215840   2.311   1.204   2.618 -2.4666 -0.0442 -0.5796
 5174SOL     OW15841   0.345   2.406   5.354 -0.1402  0.0101  0.5792
 5174SOL    HW115842   0.352   2.493   5.403 -0.4798  0.2038  0.2917
 5174SOL    HW215843   0.374   2.331   5.414  1.4000  0.4435  0.4218
 5175SOL     OW15844   5.176   2.536   0.201 -0.3560 -0.3430 -0.0445
 5175SOL    HW115845   5.267   2.527   0.242  0.1929 -0.8873 -1.3307
 5175SOL    HW215846   5.173   2.619   0.145 -0.8464 -0.0144  0.4611
 5176SOL     OW15847   5.233   4.870   2.762  0.2730 -0.5279 -0.1986
 5176SOL    HW115848   5.147   4.826   2.787  0.1301  1.0637  2.4915
 5176SOL    HW215849   5.214   4.945   2.697 -0.2710 -0.6546 -0.1891
 5177SOL     OW15850   1.483   1.160   4.863 -0.0252 -0.4850  0.0815
 5177SOL    HW115851   1.421   1.081   4.858 -1.4170  0.6003 -0.3146
 5177SOL    HW215852   1.535   1.167   4.777 -0.0012 -0.8906  0.0625
 5178SOL     OW15853   3.010   0.128   4.516  0.2287 -0.0987  0.1395
 5178SOL    HW115854   3.104   0.161   4.521 -0.0393  1.0095 -1.4052
 5178SOL    HW215855   2.986   0.108   4.420 -1.0151 -0.6531  0.5376
 5179SOL     OW15856   2.157   2.929   5.320  0.0873  0.7297 -0.3895
 5179SOL    HW115857   2.246   2.885   5.333 -0.9799 -1.3856  0.1390
 5179SOL    HW215858   2.170   3.016   5.272  2.5336  1.0324  0.6655
 5180SOL     OW15859   4.258   1.682   3.796 -0.1874 -0.2086 -0.2833
 5180SOL    HW115860   4.314   1.668   3.878  0.5113  0.7600 -0.5729
 5180SOL    HW215861   4.247   1.596   3.748  0.4165 -0.5584  0.1922
 5181SOL     OW15862   0.092   3.469   4.917 -0.2182  0.3108 -0.1882
 5181SOL    HW115863   0.051   3.405   4.981  0.1493  1.3380  1.1384
 5181SOL    HW215864   0.101   3.427   4.827 -0.6867 -1.2018  0.4529
 5182SOL     OW15865   1.456   3.484   5.063  0.7186 -0.0834  0.6003
 5182SOL    HW115866   1.532   3.436   5.019 -0.3282 -0.2716 -1.0943
 5182SOL    HW215867   1.489   3.533   5.144  2.8469  0.6515 -0.6377
 5183SOL     OW15868   2.718   3.816   1.940  0.1764  0.3282  0.9254
 5183SOL    HW115869   2.760   3.733   1.976 -0.1456  0.7878  2.4245
 5183SOL    HW215870   2.620   3.815   1.960 -0.2348  0.1269 -0.9083
 5184SOL     OW15871   3.939   2.644   3.465  0.5806 -0.3529  0.2214
 5184SOL    HW115872   3.961   2.549   3.444  1.9073 -0.1270  0.5019
 5184SOL    HW215873   3.962   2.702   3.386  0.0832 -0.2161  0.1717
 5185SOL     OW15874   4.928   3.420   1.661  0.0047 -0.1250 -0.4334
 5185SOL    HW115875   4.856   3.429   1.592 -1.2917  2.1716  1.0916
 5185SOL    HW215876   4.940   3.323   1.684 -3.0002 -0.5884 -0.3700
 5186SOL     OW15877   1.465   4.721   0.431  0.3651  0.1737 -0.1492
 5186SOL    HW115878   1.402   4.738   0.355  0.5571  0.1192 -0.3211
 5186SOL    HW215879   1.556   4.704   0.395  0.5455  0.5601  0.1163
 5187SOL     OW15880   2.666   5.373   4.738  0.3047 -0.1390 -0.2653
 5187SOL    HW115881   2.710   5.441   4.797 -1.3729 -0.9786  2.0956
 5187SOL    HW215882   2.568   5.374   4.754  0.1023 -2.2261 -1.1412
 5188SOL     OW15883   2.098   1.072   4.658  0.0000  0.4445  0.8761
 5188SOL    HW115884   2.077   1.167   4.636 -1.0293 -0.0517 -0.3434
 5188SOL    HW215885   2.172   1.039   4.599  0.4401  0.5103  1.3799
 5189SOL     OW15886   0.858   1.697   5.183 -0.0452 -0.6131  0.7087
 5189SOL    HW115887   0.814   1.681   5.271  2.7850 -0.1283  2.3118
 5189SOL    HW215888   0.920   1.775   5.190 -0.5851  0.1978 -2.0859
 5190SOL     OW15889   1.782   3.047   3.984  0.1941  0.4526 -0.9552
 5190SOL    HW115890   1.703   3.017   4.038  0.0456 -1.7077 -2.2656
 5190SOL    HW215891   1.866   3.012   4.025  0.4323  1.8748 -0.1523
 5191SOL     OW15892   5.445   3.642   0.044 -0.5305 -0.1393  0.2357
 5191SOL    HW115893   5.452   3.687   0.133  0.3728  0.3677 -0.0903
 5191SOL    HW215894   5.493   3.554   0.047 -0.1141  0.0843  0.1142
 5192SOL     OW15895   4.080   3.742   4.249 -0.1802 -0.2595 -0.6128
 5192SOL    HW115896   4.154   3.714   4.311  0.3398  0.7542 -0.7463
 5192SOL    HW215897   3.994   3.700   4.278 -0.2464  1.2335  1.6467
 5193SOL     OW15898   1.725   2.026   1.395 -0.1640 -0.1403 -0.2036
 5193SOL    HW115899   1.630   2.008   1.418 -0.0884  0.0015  0.2333
 5193SOL    HW215900   1.742   2.124   1.398 -0.0461 -0.1523 -0.4554
 5194SOL     OW15901   3.369   3.546   3.762  0.3261  0.2136 -0.7388
 5194SOL    HW115902   3.369   3.628   3.704  1.2979 -0.2299 -1.3938
 5194SOL    HW215903   3.458   3.536   3.806 -0.5703  0.8689  1.3663
 5195SOL     OW15904   2.140   5.088   3.539  0.3732  0.4291  0.1038
 5195SOL    HW115905   2.054   5.087   3.590 -0.0534  1.9550 -0.5263
 5195SOL    HW215906   2.164   4.995   3.512 -0.3810 -0.1786  1.4131
 5196SOL     OW15907   4.157   3.327   4.369 -0.1149 -0.0112  0.1086
 5196SOL    HW115908   4.113   3.370   4.448 -2.3724 -0.6616 -0.6974
 5196SOL    HW215909   4.250   3.360   4.360 -0.2138  1.0190  2.3016
 5197SOL     OW15910   2.416   4.226   1.447  0.8624  0.5944  0.3839
 5197SOL    HW115911   2.417   4.128   1.431  1.0501  0.4510  1.2069
 5197SOL    HW215912   2.400   4.244   1.545  0.7602  1.3805  0.2358
 5198SOL     OW15913   4.465   0.315   1.774 -1.1567  0.0523 -0.0615
 5198SOL    HW115914   4.475   0.247   1.847 -1.7418 -0.3973 -0.3948
 5198SOL    HW215915   4.384   0.294   1.720 -0.8472  0.5153 -0.7115
 5199SOL     OW15916   3.221   3.231   4.451  0.0252  0.1960 -0.0523
 5199SOL    HW115917   3.203   3.293   4.375 -1.2059  0.6188  0.5569
 5199SOL    HW215918   3.176   3.266   4.534  0.4169 -0.8214  0.6071
 5200SOL     OW15919   3.291   0.258   1.605 -0.2711 -0.6007  0.0691
 5200SOL    HW115920   3.307   0.356   1.616 -2.2898 -0.1522 -0.5878
 5200SOL    HW215921   3.314   0.211   1.690 -0.3106  0.5996  0.7667
 5201SOL     OW15922   1.349   1.754   4.105 -0.2480 -0.3948 -0.0847
 5201SOL    HW115923   1.344   1.821   4.031  0.0704 -1.4429 -1.0935
 5201SOL    HW215924   1.304   1.669   4.076  0.2471 -0.9635  0.7685
 5202SOL     OW15925   3.919   0.115   2.761 -0.6337  0.4848  1.2218
 5202SOL    HW115926   3.821   0.131   2.776 -1.0765 -0.9280  0.0558
 5202SOL    HW215927   3.940   0.128   2.664  0.6446  2.1242  1.6680
 5203SOL     OW15928   5.007   3.955   4.058 -0.2463 -0.1160  0.0488
 5203SOL    HW115929   5.087   3.927   4.112 -0.0212 -2.1644 -1.2148
 5203SOL    HW215930   5.036   3.996   3.972 -0.5423 -0.5376 -0.2595
 5204SOL     OW15931   0.455   0.369   0.486 -0.5448  0.5141  0.0098
 5204SOL    HW115932   0.498   0.417   0.410 -2.4277  1.2248 -0.6731
 5204SOL    HW215933   0.371   0.417   0.512 -0.8855 -0.7428  1.3385
 5205SOL     OW15934   2.789   3.991   1.737 -0.1130  0.2195  0.1728
 5205SOL    HW115935   2.706   4.046   1.739 -1.6011 -1.8482 -0.7915
 5205SOL    HW215936   2.772   3.903   1.781  1.1938 -0.7145 -1.0843
 5206SOL     OW15937   5.200   2.326   5.103  0.2619 -0.2612  0.2189
 5206SOL    HW115938   5.113   2.280   5.121 -0.1362  0.2534 -0.3600
 5206SOL    HW215939   5.202   2.358   5.008  1.1573 -0.4300  0.1720
 5207SOL     OW15940   2.977   1.646   1.134 -0.0371 -0.0673 -0.3270
 5207SOL    HW115941   2.953   1.549   1.133  0.6197 -0.2347 -0.3044
 5207SOL    HW215942   2.910   1.697   1.189 -0.7086 -0.4168 -0.8135
 5208SOL     OW15943   2.620   4.011   2.236  0.1157 -0.0811  0.0443
 5208SOL    HW115944   2.582   3.940   2.295 -0.3327 -0.1496 -0.3228
 5208SOL    HW215945   2.561   4.024   2.156 -0.0083  0.9634  0.2894
 5209SOL     OW15946   0.292   3.812   0.607  0.2468  0.3672  0.1070
 5209SOL    HW115947   0.384   3.792   0.640 -0.6801 -0.3983  2.4716
 5209SOL    HW215948   0.239   3.727   0.602 -0.5158  0.8741 -0.6051
 5210SOL     OW15949   3.640   3.368   3.914 -0.3396 -0.1768  0.4287
 5210SOL    HW115950   3.666   3.405   4.003  0.5331 -1.9584  0.9625
 5210SOL    HW215951   3.719   3.323   3.872 -0.4285  1.5293 -1.7773
 5211SOL     OW15952   3.604   4.978   0.469 -0.3937  0.0794  0.1033
 5211SOL    HW115953   3.689   5.031   0.482  0.6094 -1.0450 -1.5902
 5211SOL    HW215954   3.610   4.926   0.384 -1.7844 -1.9513  1.1874
 5212SOL     OW15955   4.488   5.108   0.242  0.0866 -0.1376 -0.3764
 5212SOL    HW115956   4.521   5.201   0.232 -1.0220  0.3299  0.1362
 5212SOL    HW215957   4.549   5.057   0.303  0.4341  0.3976 -0.2721
 5213SOL     OW15958   0.500   3.381   2.038  0.2722 -0.0058 -0.1047
 5213SOL    HW115959   0.524   3.476   2.055  1.1371 -0.5158  1.8171
 5213SOL    HW215960   0.579   3.323   2.058 -0.5859 -1.2192 -0.1246
 5214SOL     OW15961   4.360   4.841   2.935  0.2410  0.5641 -0.1957
 5214SOL    HW115962   4.395   4.793   2.854 -2.1429 -0.3406 -0.7545
 5214SOL    HW215963   4.398   4.800   3.017 -0.6221 -1.3863 -0.7252
 5215SOL     OW15964   1.833   1.056   1.175  0.1711  0.2582 -0.4779
 5215SOL    HW115965   1.875   1.051   1.085  0.9385  1.5370 -0.2232
 5215SOL    HW215966   1.885   1.119   1.233 -2.0628  1.9111 -0.1151
 5216SOL     OW15967   1.703   5.041   1.603 -0.1143 -0.2491  0.2033
 5216SOL    HW115968   1.700   4.946   1.573 -0.6630 -0.2783  0.3557
 5216SOL    HW215969   1.782   5.086   1.561 -0.7890 -0.3287 -1.1931
 5217SOL     OW15970   3.079   2.064   1.640  0.2831  0.4648 -0.5374
 5217SOL    HW115971   3.127   2.137   1.690  0.4018 -0.0859  0.1727
 5217SOL    HW215972   3.124   1.977   1.657 -1.9786 -0.3993  1.6784
 5218SOL     OW15973   5.064   3.374   3.968 -0.1551 -0.1457 -0.4683
 5218SOL    HW115974   5.024   3.425   4.044  1.5122 -2.1018  1.8756
 5218SOL    HW215975   5.128   3.432   3.919 -0.9122  1.0282 -0.0994
 5219SOL     OW15976   3.261   1.265   2.778 -0.0336 -0.2402  0.3230
 5219SOL    HW115977   3.276   1.189   2.714  0.3485  0.2648 -0.1950
 5219SOL    HW215978   3.184   1.320   2.748  0.3783  0.2131  0.0894
 5220SOL     OW15979   1.808   2.631   3.131  0.4355 -0.3413 -0.3082
 5220SOL    HW115980   1.820   2.634   3.231  1.0579 -0.1161 -0.3836
 5220SOL    HW215981   1.711   2.627   3.109  0.2910 -0.3167  0.3071
 5221SOL     OW15982   0.742   0.543   3.479  0.1452  0.1055  0.3632
 5221SOL    HW115983   0.755   0.549   3.578  1.9909 -0.6305  0.2188
 5221SOL    HW215984   0.718   0.449   3.455  1.7479 -0.2316 -0.0361
 5222SOL     OW15985   2.886   2.016   3.630 -0.1650  0.0391  0.6982
 5222SOL    HW115986   2.890   1.942   3.697 -0.8780  0.5872  1.3784
 5222SOL    HW215987   2.803   2.071   3.646 -1.3554 -0.8751 -1.7669
 5223SOL     OW15988   2.156   4.499   3.803  0.1713  0.3815 -0.6086
 5223SOL    HW115989   2.137   4.568   3.733 -0.6324 -0.0937 -0.8667
 5223SOL    HW215990   2.252   4.505   3.830  0.4823  0.6078 -1.7077
 5224SOL     OW15991   5.273   1.360   3.404  0.5410  0.1500 -0.5221
 5224SOL    HW115992   5.369   1.347   3.382  1.4605  1.4597  2.2674
 5224SOL    HW215993   5.263   1.376   3.502 -2.7566 -1.7911 -0.3779
 5225SOL     OW15994   1.347   0.693   0.158 -0.3686 -0.0583  0.3299
 5225SOL    HW115995   1.277   0.623   0.164  0.7105 -1.1382  0.8333
 5225SOL    HW215996   1.404   0.691   0.240  1.5908 -0.7238 -0.9566
 5226SOL     OW15997   3.994   4.154   2.615 -0.0892  0.0793  0.5140
 5226SOL    HW115998   4.080   4.133   2.568  0.0060 -0.0401  0.7434
 5226SOL    HW215999   4.007   4.231   2.677 -0.1314  0.0206  0.5967
 5227SOL     OW16000   3.993   2.770   2.179 -0.4559 -0.1027  0.3352
 5227SOL    HW116001   4.076   2.816   2.210 -0.8029  1.3767 -0.8134
 5227SOL    HW216002   4.003   2.745   2.083 -1.4017  0.2781  0.1298
 5228SOL     OW16003   0.522   5.435   2.650 -0.3742 -1.0423 -0.0777
 5228SOL    HW116004   0.459   5.395   2.717  1.3593 -1.6659  1.2364
 5228SOL    HW216005   0.488   5.525   2.622 -1.9755 -1.4655  0.3726
 5229SOL     OW16006   1.988   5.239   1.752 -0.3614 -0.5670  0.1094
 5229SOL    HW116007   2.036   5.264   1.836 -2.7160  0.0997  1.3475
 5229SOL    HW216008   1.890   5.228   1.771 -0.7776 -1.7646 -2.2924
 5230SOL     OW16009   1.818   3.300   1.776 -0.4564 -0.3510 -0.4939
 5230SOL    HW116010   1.827   3.397   1.798  0.1650 -0.6946  0.8461
 5230SOL    HW216011   1.901   3.268   1.731 -0.0442 -0.5947  0.4206
 5231SOL     OW16012   4.761   0.085   2.613 -0.4393  0.0717  0.2723
 5231SOL    HW116013   4.669   0.078   2.652 -0.0836 -0.9471  0.9701
 5231SOL    HW216014   4.823   0.122   2.682 -0.5619  2.1087 -0.6331
 5232SOL     OW16015   3.389   1.992   4.587  0.1046 -0.0367  0.4092
 5232SOL    HW116016   3.483   1.968   4.610 -0.4280 -3.4631 -0.4496
 5232SOL    HW216017   3.326   1.937   4.641 -1.4852  1.9225  0.7032
 5233SOL     OW16018   4.219   5.296   4.276  0.0971 -0.6277  0.7283
 5233SOL    HW116019   4.246   5.208   4.237  0.0165  0.5009 -2.1368
 5233SOL    HW216020   4.134   5.284   4.328 -0.2265 -2.1484 -0.0892
 5234SOL     OW16021   2.580   1.002   3.004  0.3247  0.1005  0.3357
 5234SOL    HW116022   2.509   0.933   3.017 -0.4014  0.9956  1.2054
 5234SOL    HW216023   2.561   1.081   3.061  0.9830  1.1632 -0.8571
 5235SOL     OW16024   5.067   1.110   3.818 -0.4221 -0.0189  0.1969
 5235SOL    HW116025   5.121   1.088   3.737 -0.3792 -0.1596  0.2636
 5235SOL    HW216026   5.062   1.030   3.878 -0.2553  0.1551  0.4449
 5236SOL     OW16027   5.395   0.761   4.178 -0.2164 -0.3180 -0.2150
 5236SOL    HW116028   5.447   0.741   4.261 -0.2595 -1.2901 -0.4148
 5236SOL    HW216029   5.403   0.859   4.157  1.1065 -0.3515  0.0362
 5237SOL     OW16030   1.444   1.586   4.949  0.0323  0.2710 -0.5826
 5237SOL    HW116031   1.465   1.489   4.964 -0.6635  0.4027  1.6072
 5237SOL    HW216032   1.507   1.623   4.881  1.0477 -1.4487 -0.6483
 5238SOL     OW16033   2.292   0.977   5.007 -0.0254  0.4023 -0.2332
 5238SOL    HW116034   2.251   0.981   5.098 -0.0414  0.8023 -0.2566
 5238SOL    HW216035   2.220   0.970   4.938 -0.0830  1.4333 -0.2957
 5239SOL     OW16036   0.896   1.315   2.098  0.0471 -0.8237 -0.0797
 5239SOL    HW116037   0.931   1.227   2.129  0.6196 -0.2710  0.8961
 5239SOL    HW216038   0.896   1.379   2.175  3.3302  1.1968 -1.5882
 5240SOL     OW16039   4.768   4.258   5.419  0.0479  0.1280 -0.1457
 5240SOL    HW116040   4.859   4.244   5.457  1.3196  0.3557 -2.8679
 5240SOL    HW216041   4.757   4.203   5.336 -2.1943  0.3453 -0.0667
 5241SOL     OW16042   2.261   0.195   4.077  0.0481 -0.1748 -0.0543
 5241SOL    HW116043   2.289   0.099   4.069  1.8206  0.2657  0.4938
 5241SOL    HW216044   2.234   0.214   4.171 -0.5049 -0.1773 -0.2096
 5242SOL     OW16045   0.914   2.458   4.210  0.3693 -0.2316 -0.3714
 5242SOL    HW116046   0.964   2.378   4.244  0.3650 -0.0830 -0.0133
 5242SOL    HW216047   0.816   2.438   4.210  0.4252 -0.5423 -1.1245
 5243SOL     OW16048  -0.007   4.646   3.054 -0.1487 -0.5552  0.3668
 5243SOL    HW116049   0.055   4.599   2.992  2.1349  2.1178  0.4392
 5243SOL    HW216050   0.039   4.664   3.141 -1.1566  1.0596  0.6157
 5244SOL     OW16051   1.454   4.405   2.751 -0.2099 -0.3641 -0.6447
 5244SOL    HW116052   1.482   4.501   2.759  0.3131 -0.6746  3.0800
 5244SOL    HW216053   1.534   4.348   2.729  0.4522 -0.3371  1.4928
 5245SOL     OW16054   1.497   4.166   1.560 -0.8554  0.1056 -0.4193
 5245SOL    HW116055   1.488   4.251   1.508 -1.1971 -0.5658 -1.4880
 5245SOL    HW216056   1.593   4.151   1.583 -1.0515  2.1843  2.2618
 5246SOL     OW16057   0.533   5.211   1.542 -0.3090 -0.3949  0.2317
 5246SOL    HW116058   0.606   5.148   1.567 -1.1632 -1.0659  1.1000
 5246SOL    HW216059   0.455   5.159   1.507 -0.5601  0.2777 -0.2195
 5247SOL     OW16060   3.934   4.817   2.889 -0.2704  0.0070 -0.4910
 5247SOL    HW116061   3.993   4.739   2.910  0.7709  1.0854  0.7581
 5247SOL    HW216062   3.853   4.814   2.948 -1.0142 -0.9199 -1.5058
 5248SOL     OW16063   1.060   3.640   2.962  0.4662  0.2570  0.2678
 5248SOL    HW116064   1.105   3.665   3.048  0.4963 -0.8731  0.5941
 5248SOL    HW216065   1.129   3.632   2.889  0.4648  1.0110  0.1729
 5249SOL     OW16066   0.200   3.178   4.458  0.0174  0.6178 -0.4287
 5249SOL    HW116067   0.128   3.140   4.399 -0.2399  1.9649 -1.0269
 5249SOL    HW216068   0.288   3.137   4.434 -0.1138  1.0023 -1.6754
 5250SOL     OW16069   3.852   2.534   4.876  0.1965 -0.8389  0.5170
 5250SOL    HW116070   3.945   2.556   4.905  0.4348  0.0132 -0.8129
 5250SOL    HW216071   3.794   2.615   4.885 -0.0600 -0.9569 -0.0663
 5251SOL     OW16072   4.370   1.937   3.208 -0.1242  0.7615  0.7726
 5251SOL    HW116073   4.382   1.972   3.301  0.0002  1.1506  0.6085
 5251SOL    HW216074   4.453   1.953   3.155  0.2598 -0.5268  0.9309
 5252SOL     OW16075   1.108   0.068   3.803  0.1469  0.1428 -0.2221
 5252SOL    HW116076   1.037   0.025   3.858 -0.8452  1.5509 -0.3538
 5252SOL    HW216077   1.180   0.104   3.864 -0.0625  0.1428  0.0276
 5253SOL     OW16078   1.697   2.207   5.236  0.1394  0.2938 -0.1528
 5253SOL    HW116079   1.694   2.300   5.273  2.2173  0.8986 -1.3916
 5253SOL    HW216080   1.674   2.142   5.308 -2.2425  1.7639  0.5262
 5254SOL     OW16081   3.076   3.798   3.737 -0.1571  0.4474 -0.2572
 5254SOL    HW116082   3.032   3.871   3.790  1.7536 -0.0184  2.1722
 5254SOL    HW216083   3.023   3.714   3.744 -1.3515  1.0537 -1.4666
 5255SOL     OW16084   1.636   2.133   4.589  0.2652 -0.0294  0.3099
 5255SOL    HW116085   1.704   2.067   4.620  1.0335  0.2801 -0.6541
 5255SOL    HW216086   1.682   2.220   4.567 -0.6796  0.7461  1.2753
 5256SOL     OW16087   0.500   2.285   2.554 -0.3656 -0.5481 -0.0210
 5256SOL    HW116088   0.486   2.341   2.472 -0.2155 -0.3922  0.0606
 5256SOL    HW216089   0.423   2.298   2.616  0.7546  1.3765  1.0516
 5257SOL     OW16090   2.966   1.307   3.757 -0.7743 -0.1597  0.5136
 5257SOL    HW116091   2.895   1.264   3.813 -0.6578  0.0314  0.8112
 5257SOL    HW216092   3.055   1.268   3.781 -0.9080 -1.2671 -0.7059
 5258SOL     OW16093   4.651   0.990   1.242 -0.3971  0.3052 -0.3035
 5258SOL    HW116094   4.750   1.004   1.239 -0.4227  1.2055  1.4061
 5258SOL    HW216095   4.608   1.035   1.164  0.4597  0.7522 -0.5261
 5259SOL     OW16096   0.438   2.479   4.138  0.5608 -0.5849 -0.0790
 5259SOL    HW116097   0.450   2.461   4.040  0.1919 -0.3396 -0.1705
 5259SOL    HW216098   0.406   2.572   4.151 -2.2936 -1.5000  0.0609
 5260SOL     OW16099   2.547   5.126   0.507 -0.3776  0.0194 -0.1940
 5260SOL    HW116100   2.529   5.046   0.450 -0.4067  1.3734 -2.1708
 5260SOL    HW216101   2.626   5.108   0.565 -1.1251 -1.8663  0.3193
 5261SOL     OW16102   2.569   4.951   4.234  0.2486 -0.2662 -0.0092
 5261SOL    HW116103   2.548   4.889   4.158 -0.2083 -2.7354  2.0026
 5261SOL    HW216104   2.552   4.905   4.321  3.2797  1.4905  1.6934
 5262SOL     OW16105   1.421   1.487   3.450  0.4764  0.1993 -0.0204
 5262SOL    HW116106   1.450   1.469   3.544 -0.0786  1.6526  0.4675
 5262SOL    HW216107   1.321   1.481   3.444  0.3293  2.0226 -0.0175
 5263SOL     OW16108   2.558   3.838   2.457 -0.0304  0.2486 -0.0545
 5263SOL    HW116109   2.656   3.823   2.472  0.0733  0.8901 -0.0512
 5263SOL    HW216110   2.516   3.872   2.542 -0.3017 -0.2429  0.0094
 5264SOL     OW16111   2.880   0.617   1.250  0.2637  0.0311  0.3736
 5264SOL    HW116112   2.785   0.647   1.240 -0.2196 -0.2711  3.3603
 5264SOL    HW216113   2.932   0.688   1.298  0.9927 -0.7587  0.7659
 5265SOL     OW16114   1.151   3.397   1.639 -0.1070 -0.2338 -0.6144
 5265SOL    HW116115   1.071   3.351   1.677 -0.4945  2.8099  2.7883
 5265SOL    HW216116   1.122   3.479   1.589  0.7949  0.0086 -0.7638
 5266SOL     OW16117   2.300   3.764   4.122 -0.4612 -0.3058 -0.4455
 5266SOL    HW116118   2.209   3.806   4.125 -0.3719 -0.1458  0.1070
 5266SOL    HW216119   2.312   3.718   4.034 -0.2675  1.4782 -1.4009
 5267SOL     OW16120   0.396   1.809   1.479  0.2880  0.2520 -0.5331
 5267SOL    HW116121   0.421   1.869   1.404  1.9030  0.4411  0.1305
 5267SOL    HW216122   0.459   1.732   1.483  1.4528  1.2318  1.7730
 5268SOL     OW16123   2.382   3.768   0.800 -0.2310 -0.2945 -0.2347
 5268SOL    HW116124   2.352   3.838   0.735 -0.0218  0.4927  0.4882
 5268SOL    HW216125   2.316   3.693   0.802 -0.2587 -0.3095 -1.3092
 5269SOL     OW16126   3.209   1.759   0.424  0.1352  0.5252  0.8397
 5269SOL    HW116127   3.200   1.751   0.325  1.2394 -2.0390  0.8712
 5269SOL    HW216128   3.118   1.754   0.466 -0.3193  1.3498 -0.0152
 5270SOL     OW16129   0.809   1.652   0.686 -0.2101 -0.2659 -0.2084
 5270SOL    HW116130   0.754   1.574   0.659 -1.8609  0.0963  1.8250
 5270SOL    HW216131   0.775   1.735   0.642  2.2136 -0.6810 -3.2388
 5271SOL     OW16132   2.724   0.029   4.926 -0.0350 -0.0409 -0.0811
 5271SOL    HW116133   2.815   0.001   4.894  0.9271  1.6270  0.9965
 5271SOL    HW216134   2.710  -0.005   5.019 -1.1466 -1.4957 -0.7495
 5272SOL     OW16135   0.639   0.001   0.558  0.0720  0.1964  0.0214
 5272SOL    HW116136   0.542   0.027   0.556  0.3093  1.1696  0.5899
 5272SOL    HW216137   0.687   0.042   0.480  0.1138  0.0893 -0.0089
 5273SOL     OW16138   4.195   5.129   2.203  0.7460  0.3564 -0.2268
 5273SOL    HW116139   4.138   5.049   2.186  0.2370  0.9803 -1.5648
 5273SOL    HW216140   4.191   5.152   2.301  0.8848 -1.2062  0.1724
 5274SOL     OW16141   0.827   0.548   0.604  0.8549  0.3823  0.3268
 5274SOL    HW116142   0.855   0.612   0.675 -0.6268  1.2030  0.2084
 5274SOL    HW216143   0.819   0.456   0.643 -1.9578  1.1521  1.8035
 5275SOL     OW16144   1.771   5.438   2.987  0.2046 -0.0890 -0.3523
 5275SOL    HW116145   1.686   5.401   2.951 -0.2764  1.2668 -0.6432
 5275SOL    HW216146   1.752   5.509   3.055  1.1087 -0.6061  0.4776
 5276SOL     OW16147   5.318   4.471   3.038 -0.1523 -0.3262 -0.9168
 5276SOL    HW116148   5.387   4.541   3.052  1.9907 -2.6696  1.1710
 5276SOL    HW216149   5.291   4.432   3.126 -2.7350 -0.8525 -1.8448
 5277SOL     OW16150   1.336   0.033   3.306  0.3094 -1.1086 -0.6012
 5277SOL    HW116151   1.410   0.099   3.294 -0.1499 -0.0105  1.9171
 5277SOL    HW216152   1.284   0.025   3.220  0.9947  1.0286 -1.2715
 5278SOL     OW16153   0.395   5.094   4.696  0.3175  0.2518 -0.3803
 5278SOL    HW116154   0.398   5.026   4.623  2.9176 -2.6960  2.1494
 5278SOL    HW216155   0.465   5.164   4.679  2.8960 -1.9517  0.3969
 5279SOL     OW16156   0.587   1.414   3.106 -0.0495  0.1203  0.2633
 5279SOL    HW116157   0.578   1.317   3.082  0.7077 -0.1706  1.1042
 5279SOL    HW216158   0.610   1.466   3.024  1.6684 -0.7415  0.1468
 5280SOL     OW16159   1.895   4.706   4.919 -0.2480  0.0666  0.4607
 5280SOL    HW116160   1.846   4.656   4.990  0.8347 -0.2899  0.9866
 5280SOL    HW216161   1.962   4.646   4.876 -0.7521  0.3368 -0.7505
 5281SOL     OW16162   2.236   4.857   2.996 -0.0600 -0.0946 -0.2609
 5281SOL    HW116163   2.262   4.829   2.904  1.6108 -0.0210  0.1606
 5281SOL    HW216164   2.230   4.957   2.999 -1.8973 -0.1519 -0.7082
 5282SOL     OW16165   5.320   4.560   3.398  0.3466 -0.1712  0.1841
 5282SOL    HW116166   5.268   4.563   3.484  0.4980  0.2734  0.2620
 5282SOL    HW216167   5.268   4.607   3.326  0.3515 -0.2925  0.0998
 5283SOL     OW16168   0.368   2.625  -0.022  0.4417  0.2197 -0.3797
 5283SOL    HW116169   0.446   2.585   0.026  1.1028 -0.1244 -1.6844
 5283SOL    HW216170   0.304   2.662   0.044  0.9630 -0.8736  0.7886
 5284SOL     OW16171   1.959   0.064   2.885  0.1494  0.1366  0.2777
 5284SOL    HW116172   2.034  -0.002   2.883  0.1996  0.1985 -0.8138
 5284SOL    HW216173   1.874   0.017   2.911  0.1173 -0.4548 -0.8386
 5285SOL     OW16174   5.244   0.916   2.038 -0.3245 -0.0536 -0.7032
 5285SOL    HW116175   5.322   0.870   2.080 -0.2078 -0.3686 -1.2499
 5285SOL    HW216176   5.169   0.851   2.027 -0.3707  0.0362 -0.9309
 5286SOL     OW16177   2.414   0.800   1.718 -1.1327 -0.1175 -0.4622
 5286SOL    HW116178   2.484   0.732   1.694 -1.0292  0.2225 -1.1345
 5286SOL    HW216179   2.458   0.884   1.747 -1.2593  0.0627 -0.7873
 5287SOL     OW16180   4.119   4.624   3.260 -0.0350  0.1526  0.2768
 5287SOL    HW116181   4.121   4.722   3.280  0.1630  0.0578  0.7485
 5287SOL    HW216182   4.031   4.586   3.288 -0.1810  0.2274 -0.0757
 5288SOL     OW16183   3.778   2.198   4.120 -0.2456 -0.3041 -0.0441
 5288SOL    HW116184   3.760   2.108   4.081  0.4660 -0.0869 -0.9112
 5288SOL    HW216185   3.855   2.192   4.183 -0.1051 -0.2848 -0.2114
 5289SOL     OW16186   4.480   3.922   2.288  0.4525  0.6951  0.1063
 5289SOL    HW116187   4.561   3.883   2.332 -0.1915  0.6968  1.3526
 5289SOL    HW216188   4.496   3.929   2.190  2.6352  2.3145  0.4913
 5290SOL     OW16189   0.511   2.636   1.358  0.6626 -0.3619  0.3847
 5290SOL    HW116190   0.548   2.657   1.448  0.3455  0.7561  0.2639
 5290SOL    HW216191   0.576   2.580   1.307  0.8840 -0.9153  1.2602
 5291SOL     OW16192   4.281   1.279   0.791  0.2549 -0.5113 -0.3324
 5291SOL    HW116193   4.217   1.354   0.775 -1.3031 -1.2751  1.7134
 5291SOL    HW216194   4.372   1.315   0.810 -0.5421  0.9139  0.9493
 5292SOL     OW16195   1.266   1.358   4.282 -0.6645 -0.0042 -0.4886
 5292SOL    HW116196   1.201   1.289   4.248 -0.3601 -0.4980 -0.0895
 5292SOL    HW216197   1.352   1.314   4.306 -0.8078  0.3354  0.7523
 5293SOL     OW16198   5.009   3.545   2.771 -0.1373 -0.2527  0.2042
 5293SOL    HW116199   5.024   3.453   2.735  1.3257 -0.0385  0.2345
 5293SOL    HW216200   5.010   3.612   2.697  2.3639  0.1266  0.5034
 5294SOL     OW16201   2.115   1.480   0.894 -0.3871  0.1481  0.2225
 5294SOL    HW116202   2.050   1.437   0.957  0.2495 -0.6781  0.3373
 5294SOL    HW216203   2.175   1.542   0.945 -1.1670  1.0394  0.0910
 5295SOL     OW16204   0.954   4.289   1.429 -0.1873 -0.2552  0.8913
 5295SOL    HW116205   1.017   4.353   1.384  0.2437 -1.3312 -0.0898
 5295SOL    HW216206   0.957   4.303   1.528 -1.6002  2.5913  0.6393
 5296SOL     OW16207   5.455  -0.029   5.015 -0.2734 -0.2334  0.4140
 5296SOL    HW116208   5.434   0.065   4.988  0.8612  0.1905  0.9126
 5296SOL    HW216209   5.504  -0.027   5.103 -0.9209 -1.3458  0.8110
 5297SOL     OW16210   1.466   0.710   1.571 -0.0878 -0.0354  0.3528
 5297SOL    HW116211   1.436   0.707   1.666  2.1132  1.1555  1.1751
 5297SOL    HW216212   1.519   0.628   1.550  0.1819  0.1154  0.4411
 5298SOL     OW16213   0.833   0.677   3.712  0.5152 -0.0398  0.1511
 5298SOL    HW116214   0.812   0.772   3.736 -0.4369 -0.2315  0.1369
 5298SOL    HW216215   0.880   0.633   3.789 -0.3808  0.0312  0.7605
 5299SOL     OW16216   2.778   1.408   2.029 -0.7223 -0.0306 -0.5753
 5299SOL    HW116217   2.688   1.412   2.074 -0.7334  0.7600 -0.6542
 5299SOL    HW216218   2.844   1.368   2.092 -0.7443  1.0477  0.1598
 5300SOL     OW16219   4.912   4.730   1.122 -0.5192  0.1619  0.2681
 5300SOL    HW116220   4.834   4.672   1.098  0.1472  0.1254 -2.0148
 5300SOL    HW216221   4.887   4.788   1.200 -2.4806 -0.5222  0.2071
 5301SOL     OW16222   1.134   1.130   3.401 -0.8566  0.2935 -0.3171
 5301SOL    HW116223   1.179   1.180   3.327  0.2160 -0.0875  0.0484
 5301SOL    HW216224   1.056   1.079   3.365 -0.5811  0.4248 -1.1173
 5302SOL     OW16225   0.076   4.417   1.935 -0.1670 -0.1594  0.1087
 5302SOL    HW116226  -0.002   4.362   1.966 -0.1366  0.8877  2.2084
 5302SOL    HW216227   0.045   4.509   1.914  0.5960  0.5184  1.8036
 5303SOL     OW16228   1.434   5.518   0.253  0.2557  0.1216  0.0858
 5303SOL    HW116229   1.466   5.475   0.338  0.7703 -1.4473 -0.8553
 5303SOL    HW216230   1.358   5.465   0.216  0.9292 -0.0256 -1.1299
 5304SOL     OW16231   1.258   1.278   4.649  0.2385  0.2302  0.1478
 5304SOL    HW116232   1.217   1.325   4.727  0.2137  0.1933  0.1572
 5304SOL    HW216233   1.318   1.340   4.599 -0.5422  0.5531 -0.4058
 5305SOL     OW16234   1.014   4.621   2.583 -0.1207  0.2474  0.4814
 5305SOL    HW116235   1.006   4.693   2.514 -0.8702  1.5701  1.9005
 5305SOL    HW216236   0.975   4.536   2.547 -1.8560  1.2837 -0.2178
 5306SOL     OW16237   4.681   5.079   3.201 -1.0194 -0.2755  0.2329
 5306SOL    HW116238   4.645   5.124   3.282 -0.4695 -0.3601  0.5369
 5306SOL    HW216239   4.640   5.118   3.119 -0.6467  0.6949  0.4918
 5307SOL     OW16240   3.447   4.059   2.366  0.7247 -0.2858  0.1366
 5307SOL    HW116241   3.461   4.064   2.465 -0.4458 -1.0321  0.3584
 5307SOL    HW216242   3.359   4.101   2.343  1.5917  1.1296 -0.7749
 5308SOL     OW16243   2.082   2.822   0.039 -0.5977 -0.1050  0.1247
 5308SOL    HW116244   2.085   2.834  -0.060  0.9954  0.7657  0.2460
 5308SOL    HW216245   2.127   2.736   0.064 -0.5851 -0.0951  0.1360
 5309SOL     OW16246   3.066   2.885   2.755  0.3111  0.2608  0.6616
 5309SOL    HW116247   3.139   2.841   2.703  0.6905  0.6069  0.9015
 5309SOL    HW216248   3.061   2.982   2.731  0.2282  0.3363  0.9768
 5310SOL     OW16249   1.432   0.113   2.930 -0.5813 -0.2663  0.1950
 5310SOL    HW116250   1.511   0.172   2.951 -1.0153  0.1310  0.7457
 5310SOL    HW216251   1.378   0.154   2.857 -1.5537  0.6664  1.3961
 5311SOL     OW16252   4.053   4.359   1.894  0.4161 -0.7152  0.3416
 5311SOL    HW116253   4.009   4.296   1.830  0.7492 -1.4875  0.8624
 5311SOL    HW216254   4.141   4.388   1.857 -0.1931  0.2850 -0.3798
 5312SOL     OW16255   0.008   4.892   5.281  0.0923  0.5183 -0.2470
 5312SOL    HW116256   0.061   4.974   5.259 -1.8886  1.6040 -1.2397
 5312SOL    HW216257  -0.063   4.915   5.347 -0.0550 -0.5804 -0.0043
 5313SOL     OW16258   4.399   0.144   1.115  0.4818  0.0287  0.1033
 5313SOL    HW116259   4.380   0.104   1.205  0.4538  0.5553  0.3351
 5313SOL    HW216260   4.330   0.214   1.094  0.3166 -0.2896 -0.4583
 5314SOL     OW16261   0.911   0.148   5.106  0.0122  0.1365 -0.0798
 5314SOL    HW116262   1.008   0.171   5.112 -0.6777  3.0625  3.7316
 5314SOL    HW216263   0.862   0.219   5.056 -0.2778 -1.3529 -2.0400
 5315SOL     OW16264   1.071   3.415   1.322 -0.2600 -0.9860  0.0697
 5315SOL    HW116265   1.091   3.499   1.371 -1.2345 -0.3770 -0.5347
 5315SOL    HW216266   0.988   3.374   1.359  0.8665 -2.3777  1.1898
 5316SOL     OW16267   3.411   3.620   0.884 -0.3448 -0.5009  0.4880
 5316SOL    HW116268   3.327   3.590   0.930 -0.0438 -1.5788  0.3718
 5316SOL    HW216269   3.483   3.552   0.899  0.4759  0.3559  0.4851
 5317SOL     OW16270   2.837   1.831   1.950 -0.3528 -0.1065 -0.4250
 5317SOL    HW116271   2.849   1.864   1.857 -0.3293 -0.5156 -0.5663
 5317SOL    HW216272   2.854   1.906   2.014 -0.9916  0.3358 -0.7690
 5318SOL     OW16273   0.960   2.863   0.786 -0.5355  0.3754  0.0773
 5318SOL    HW116274   1.007   2.951   0.795  0.4982 -0.2926  1.7272
 5318SOL    HW216275   0.993   2.817   0.704  2.9143 -0.6503  1.8031
 5319SOL     OW16276   1.685   4.720   1.776 -0.1769 -0.1271 -0.0760
 5319SOL    HW116277   1.765   4.744   1.722  1.3301 -0.5272  1.8584
 5319SOL    HW216278   1.632   4.649   1.729  0.9894 -0.3589 -1.0748
 5320SOL     OW16279   3.283   1.937   4.998 -0.9248 -0.9738  0.3265
 5320SOL    HW116280   3.265   1.936   5.096  2.2164 -0.5083  1.0106
 5320SOL    HW216281   3.316   2.027   4.971  0.6039 -1.7692 -0.6109
 5321SOL     OW16282   3.557   3.284   5.542 -0.1702 -0.3310 -0.1882
 5321SOL    HW116283   3.649   3.260   5.512  0.0900 -0.2575  0.5152
 5321SOL    HW216284   3.511   3.338   5.471  1.1495  1.5747  0.3102
 5322SOL     OW16285   2.929   2.431   4.554 -0.2251  0.3001  0.2320
 5322SOL    HW116286   2.986   2.492   4.608  0.8194  0.5016 -1.0423
 5322SOL    HW216287   2.932   2.459   4.458 -1.3623 -0.5376 -0.0781
 5323SOL     OW16288   2.984   5.121   3.103  0.3301 -0.0008  0.2008
 5323SOL    HW116289   2.961   5.061   3.180  1.5460  1.0398  1.4396
 5323SOL    HW216290   2.954   5.214   3.124 -1.8447 -0.1598 -1.8393
 5324SOL     OW16291   0.117   3.476   5.450  0.5090  0.2518 -0.1512
 5324SOL    HW116292   0.051   3.479   5.375  0.8874  0.0696 -0.4923
 5324SOL    HW216293   0.201   3.521   5.423 -0.2184  2.5000  1.0514
 5325SOL     OW16294   4.111   1.955   5.086 -0.3979  0.9423  0.1654
 5325SOL    HW116295   4.178   1.934   5.015  0.4241  0.6322  1.0086
 5325SOL    HW216296   4.062   1.871   5.111 -0.2371  0.9217  0.4127
 5326SOL     OW16297   0.525   1.732   2.047 -0.0102 -0.6621 -0.2402
 5326SOL    HW116298   0.505   1.750   2.143  0.6647 -0.5769 -0.1061
 5326SOL    HW216299   0.545   1.635   2.035 -0.5897 -0.7654 -0.3901
 5327SOL     OW16300   2.455   3.996   0.110  0.0693 -0.1622 -0.3383
 5327SOL    HW116301   2.470   3.965   0.016  0.5235 -0.5062 -0.1531
 5327SOL    HW216302   2.403   3.927   0.160  1.9699 -1.1489  0.3754
 5328SOL     OW16303   1.033   1.159   1.351  0.4271  0.1128 -0.0496
 5328SOL    HW116304   1.057   1.062   1.349  1.0400  0.2730 -1.2784
 5328SOL    HW216305   0.974   1.177   1.430 -0.2968 -1.3932 -0.2068
 5329SOL     OW16306   0.298   3.054   2.043 -0.5285 -0.0106 -0.3053
 5329SOL    HW116307   0.211   3.064   2.092  0.4130  5.3022  0.9297
 5329SOL    HW216308   0.371   3.034   2.109 -0.0448  1.7227 -0.2582
 5330SOL     OW16309   2.399   4.824   0.570  0.6108  0.1376 -0.5233
 5330SOL    HW116310   2.387   4.821   0.669  2.0719 -0.2304 -0.3415
 5330SOL    HW216311   2.468   4.757   0.542  0.2274  0.2317 -1.8024
 5331SOL     OW16312   3.996   1.718   5.183  0.4547 -0.2100 -0.3273
 5331SOL    HW116313   3.930   1.666   5.128  0.7374  0.9348 -1.8222
 5331SOL    HW216314   4.084   1.670   5.183  0.0733 -0.9220  0.3118
 5332SOL     OW16315   2.932   0.236   1.866  0.4312 -0.4638  0.5281
 5332SOL    HW116316   2.992   0.158   1.885  2.0089  0.5552 -0.0606
 5332SOL    HW216317   2.958   0.277   1.778 -1.2778 -0.1050  0.1671
 5333SOL     OW16318   1.264   2.917   4.789  0.2639 -0.2408 -0.2000
 5333SOL    HW116319   1.249   2.895   4.692 -1.0069  1.0157 -0.3168
 5333SOL    HW216320   1.176   2.931   4.834  0.8731  0.0843  0.9203
 5334SOL     OW16321   2.476   4.867   3.822 -0.0875 -0.0439 -0.4090
 5334SOL    HW116322   2.477   4.818   3.909  0.2038  1.0172  0.2081
 5334SOL    HW216323   2.519   4.812   3.751 -0.8189 -1.1506 -0.0153
 5335SOL     OW16324   2.493   3.935   1.119 -0.7092  0.6808  1.0426
 5335SOL    HW116325   2.584   3.893   1.124 -0.6730  0.8256  1.8025
 5335SOL    HW216326   2.423   3.865   1.126 -0.6628  0.5538  0.3166
 5336SOL     OW16327   3.157   0.335   5.101 -0.9510 -0.2201  0.0307
 5336SOL    HW116328   3.150   0.255   5.040  0.4258 -0.1900 -0.1907
 5336SOL    HW216329   3.115   0.414   5.056 -0.0008 -0.2136 -0.8672
 5337SOL     OW16330   3.739   0.351   3.292 -0.1557 -0.0088  0.0490
 5337SOL    HW116331   3.781   0.291   3.224 -0.3799 -0.7291  0.5335
 5337SOL    HW216332   3.811   0.394   3.346 -0.0068 -0.2850  0.0754
 5338SOL     OW16333   1.099   4.833   0.144 -0.1002  0.0648  0.1129
 5338SOL    HW116334   1.096   4.909   0.080  0.0590 -0.6714 -0.8018
 5338SOL    HW216335   1.082   4.866   0.236  0.8822  1.3561 -0.1297
 5339SOL     OW16336   3.911   0.927   0.083  0.3895  0.2598 -0.0433
 5339SOL    HW116337   3.895   1.022   0.054 -1.4059 -0.1766 -0.6265
 5339SOL    HW216338   3.886   0.917   0.179  0.4128  0.3405 -0.0285
 5340SOL     OW16339   2.247   4.869   5.144  0.7358  0.1523 -0.1142
 5340SOL    HW116340   2.273   4.832   5.055 -0.2667  1.1212 -0.8314
 5340SOL    HW216341   2.266   4.967   5.147 -1.2545  0.5856 -0.0893
 5341SOL     OW16342   1.511   1.209   2.797  0.1264  0.5597 -0.0205
 5341SOL    HW116343   1.458   1.125   2.781  0.1460  0.3307  1.0784
 5341SOL    HW216344   1.545   1.243   2.709 -0.7879  0.0225 -0.6073
 5342SOL     OW16345   5.544   0.133   1.025  0.4610  0.5080  0.7728
 5342SOL    HW116346   5.475   0.155   0.955 -1.2383  2.1090  2.7955
 5342SOL    HW216347   5.608   0.209   1.034  1.3059 -0.1272  0.3071
 5343SOL     OW16348   3.525   4.079   0.584 -0.0103  0.4325  0.2824
 5343SOL    HW116349   3.619   4.071   0.552 -0.0795 -1.0738  0.3552
 5343SOL    HW216350   3.518   4.154   0.649  1.1879  0.4446  0.4235
 5344SOL     OW16351   0.150   2.601   2.845 -0.1545  0.1236  0.7965
 5344SOL    HW116352   0.248   2.604   2.827 -0.5302 -0.5960 -1.8682
 5344SOL    HW216353   0.130   2.647   2.932  2.3894  1.3782  0.8042
 5345SOL     OW16354   3.493   3.416   1.360  0.2990 -0.1715  0.3391
 5345SOL    HW116355   3.451   3.387   1.274 -0.3979 -0.2981  0.7149
 5345SOL    HW216356   3.545   3.500   1.344  0.0180 -0.0854 -0.1681
 5346SOL     OW16357   1.193   5.390   0.205 -0.1941 -0.0783 -0.2237
 5346SOL    HW116358   1.206   5.403   0.303  0.1970  2.1586 -0.5024
 5346SOL    HW216359   1.095   5.386   0.184 -0.3833  1.9753  0.0611
 5347SOL     OW16360   3.634   2.756   4.085  0.8208 -0.6977  0.1173
 5347SOL    HW116361   3.597   2.756   3.992  1.5227 -0.0827 -0.1748
 5347SOL    HW216362   3.732   2.775   4.082  0.9477 -1.1626  0.9562
 5348SOL     OW16363   3.335   4.277   2.563  0.0480  0.1003 -0.2668
 5348SOL    HW116364   3.416   4.224   2.588 -0.3641 -0.9525 -1.0900
 5348SOL    HW216365   3.259   4.251   2.622 -1.0658 -2.7588 -2.6828
 5349SOL     OW16366   1.426   2.625   4.201 -0.5648  0.2959  0.0459
 5349SOL    HW116367   1.409   2.620   4.103 -0.3345  1.5060 -0.0624
 5349SOL    HW216368   1.513   2.580   4.221 -0.1624  0.8563 -0.4289
 5350SOL     OW16369   0.474   3.923   1.566  0.0795 -0.7389 -0.1229
 5350SOL    HW116370   0.429   3.967   1.644 -0.8665 -0.7394 -0.6571
 5350SOL    HW216371   0.569   3.900   1.591 -0.0324 -0.2235  0.8275
 5351SOL     OW16372   2.412   5.446   1.731  0.2254  0.0707 -0.5581
 5351SOL    HW116373   2.401   5.349   1.753  1.2641 -0.1451 -0.8945
 5351SOL    HW216374   2.330   5.497   1.757 -1.0255 -1.1709 -1.9614
 5352SOL     OW16375   4.827   3.702   0.651 -0.2861  0.3169 -0.3241
 5352SOL    HW116376   4.784   3.711   0.740 -0.3690  0.4053 -0.3733
 5352SOL    HW216377   4.827   3.791   0.604  1.2345  0.6709  0.2660
 5353SOL     OW16378   2.223   3.183   1.833  0.1406 -0.0806  0.1321
 5353SOL    HW116379   2.156   3.168   1.761  0.6618 -1.5220 -0.0850
 5353SOL    HW216380   2.271   3.097   1.853  1.1389  0.6585  1.0621
 5354SOL     OW16381   4.651   4.378   2.788  0.2364 -0.8938  0.6074
 5354SOL    HW116382   4.684   4.287   2.812  1.9044  0.0031  1.9620
 5354SOL    HW216383   4.658   4.438   2.868 -1.8089  0.1855  0.0417
 5355SOL     OW16384   3.037   1.454   0.462 -0.1386  0.0583 -0.3514
 5355SOL    HW116385   2.998   1.546   0.467  0.7805  0.4638 -0.5589
 5355SOL    HW216386   3.135   1.459   0.441  0.2254 -0.9107  0.9547
 5356SOL     OW16387   1.682   1.301   2.300  0.0123 -0.4060 -0.5294
 5356SOL    HW116388   1.747   1.241   2.252 -0.8932 -1.6692 -0.2259
 5356SOL    HW216389   1.596   1.252   2.314 -0.8196  1.0464 -0.4154
 5357SOL     OW16390   3.179   3.579   3.974  0.2861  0.6104 -0.9405
 5357SOL    HW116391   3.241   3.562   3.898  0.3303 -1.5135 -0.5118
 5357SOL    HW216392   3.096   3.524   3.962 -0.4229  1.4986 -0.2659
 5358SOL     OW16393   4.268   4.489   3.983 -0.2864  0.2547  0.0839
 5358SOL    HW116394   4.300   4.435   4.061  0.9169  1.7055  0.6290
 5358SOL    HW216395   4.254   4.428   3.905  0.2999 -0.9568  0.8829
 5359SOL     OW16396   0.462   3.878   4.422 -0.1199 -0.0951 -0.1282
 5359SOL    HW116397   0.472   3.906   4.517  1.1685 -1.2650  0.1113
 5359SOL    HW216398   0.543   3.903   4.370 -0.1339 -0.8686 -0.5421
 5360SOL     OW16399   0.022   3.452   2.216  0.1603  0.1548  0.5301
 5360SOL    HW116400   0.003   3.548   2.236  0.0587 -0.2607  2.6938
 5360SOL    HW216401   0.114   3.429   2.247 -0.8793 -1.1245  2.9409
 5361SOL     OW16402   0.167   4.363   2.395 -0.1141 -0.5888  0.0427
 5361SOL    HW116403   0.079   4.371   2.347  0.4578 -0.4470 -0.9972
 5361SOL    HW216404   0.150   4.356   2.494 -1.2278  0.8318 -0.0155
 5362SOL     OW16405   1.916   1.716   4.677 -0.3140  0.7665 -0.4230
 5362SOL    HW116406   1.955   1.640   4.625 -0.1091 -0.9431  2.0731
 5362SOL    HW216407   1.942   1.708   4.773 -2.5808  2.4552  0.4258
 5363SOL     OW16408   5.132   3.298   0.589  0.2333 -0.3983 -0.3376
 5363SOL    HW116409   5.191   3.220   0.571  0.4745 -0.3651  0.2704
 5363SOL    HW216410   5.119   3.307   0.688 -0.5360 -0.2178 -0.4539
 5364SOL     OW16411   3.274   0.606   3.950  0.3031  0.5204  0.3482
 5364SOL    HW116412   3.201   0.543   3.922  1.0204 -0.1284 -0.0845
 5364SOL    HW216413   3.323   0.638   3.869  0.8167  0.5800  0.6837
 5365SOL     OW16414   4.413   1.093   4.137 -0.1229  0.5276  0.3267
 5365SOL    HW116415   4.323   1.137   4.131  1.2435  3.7278  1.1162
 5365SOL    HW216416   4.448   1.078   4.044 -1.7939 -1.6782 -0.0206
 5366SOL     OW16417   5.147   5.512   4.814 -0.7702 -0.7260 -0.2168
 5366SOL    HW116418   5.059   5.472   4.791 -1.7788  1.6656 -0.7729
 5366SOL    HW216419   5.180   5.568   4.738 -0.4125  1.1122  1.2129
 5367SOL     OW16420   0.926   2.287   2.770 -0.0097  0.3256  0.5970
 5367SOL    HW116421   1.023   2.312   2.771  0.0217  0.2180  0.4202
 5367SOL    HW216422   0.907   2.223   2.845  0.6439 -1.7686 -0.9235
 5368SOL     OW16423   1.001   3.894   1.110  0.3615 -0.0180 -0.2796
 5368SOL    HW116424   0.959   3.954   1.179 -0.5534  0.0150 -0.8545
 5368SOL    HW216425   0.930   3.859   1.049  1.0943 -0.5051 -0.8603
 5369SOL     OW16426   3.577   1.024   1.619  0.5613  0.1534 -0.1285
 5369SOL    HW116427   3.487   1.029   1.575  0.9119 -0.2269 -0.9124
 5369SOL    HW216428   3.566   1.003   1.716 -0.1795 -0.3956 -0.3218
 5370SOL     OW16429   1.856   0.947   4.673  0.2495  0.0120  0.2643
 5370SOL    HW116430   1.941   0.998   4.657  0.8082 -1.0912 -0.3568
 5370SOL    HW216431   1.872   0.850   4.657 -1.3155 -0.1326 -0.5099
 5371SOL     OW16432   5.349   3.495   0.672 -0.2249 -0.2779  0.3987
 5371SOL    HW116433   5.351   3.589   0.707  1.9103 -0.7428  1.6896
 5371SOL    HW216434   5.256   3.472   0.644 -0.8145  2.1817  0.1211
 5372SOL     OW16435   5.196   4.765   0.783 -0.3503 -0.0228  0.0452
 5372SOL    HW116436   5.226   4.672   0.761  2.1486  0.7354  0.0161
 5372SOL    HW216437   5.214   4.783   0.880  0.8652  1.0049 -0.3498
 5373SOL     OW16438   0.274   5.084   4.969  0.0416  0.8537 -0.1185
 5373SOL    HW116439   0.326   5.100   4.886  0.7921 -0.0278  0.1565
 5373SOL    HW216440   0.228   5.168   4.998  1.7484  1.8088 -0.0874
 5374SOL     OW16441   4.790   5.102   4.881  0.0012 -0.7317 -0.2122
 5374SOL    HW116442   4.739   5.155   4.949  0.0341 -2.2063  1.0263
 5374SOL    HW216443   4.805   5.158   4.800  2.5114  2.1904  2.0372
 5375SOL     OW16444   5.256   0.806   4.811  0.2210 -0.4077 -0.1784
 5375SOL    HW116445   5.330   0.782   4.748 -0.2537  0.1800 -0.9929
 5375SOL    HW216446   5.173   0.756   4.786  0.5963 -1.9030  1.4122
 5376SOL     OW16447   5.181   0.465   4.890 -0.4588 -0.7373 -0.2325
 5376SOL    HW116448   5.089   0.434   4.866 -0.7941 -1.3866  1.7209
 5376SOL    HW216449   5.181   0.502   4.983  1.4487 -1.7494  0.2428
 5377SOL     OW16450   3.450   3.866   0.405 -0.1732  0.2902  0.2097
 5377SOL    HW116451   3.402   3.913   0.330 -0.4794  0.1657  0.3258
 5377SOL    HW216452   3.462   3.929   0.482  0.9021  0.6825 -0.2541
 5378SOL     OW16453   1.156   2.289   4.755 -0.7954  0.0682  0.1543
 5378SOL    HW116454   1.094   2.211   4.749 -1.7221  0.8625 -1.4832
 5378SOL    HW216455   1.239   2.269   4.703 -2.3501  1.2205 -3.0686
 5379SOL     OW16456   2.374   0.972   2.250  0.2906 -0.2970 -0.4527
 5379SOL    HW116457   2.289   1.023   2.234 -0.6290 -1.0398  1.7312
 5379SOL    HW216458   2.394   0.970   2.348  1.2598 -2.5818 -0.6286
 5380SOL     OW16459   1.602   4.956   2.642 -0.5037  0.3243 -0.0429
 5380SOL    HW116460   1.672   4.918   2.702  1.0384 -1.8129 -2.9127
 5380SOL    HW216461   1.606   5.056   2.644  0.1993  0.3008  2.4589
 5381SOL     OW16462   3.563  -0.000   1.339 -0.1216  0.1776  0.3603
 5381SOL    HW116463   3.609   0.078   1.381  0.3695 -0.0685  0.2946
 5381SOL    HW216464   3.467  -0.002   1.367  0.1569  0.0949  1.3638
 5382SOL     OW16465   1.103   4.262   3.379  0.7418 -0.3835 -0.2273
 5382SOL    HW116466   1.089   4.357   3.351  1.2064 -0.4891 -0.8419
 5382SOL    HW216467   1.060   4.247   3.468 -2.1339 -0.4242 -1.5066
 5383SOL     OW16468   0.272   3.856   5.084 -0.6943 -0.0524  0.2431
 5383SOL    HW116469   0.279   3.955   5.093  0.0707 -0.0234 -0.5027
 5383SOL    HW216470   0.363   3.816   5.091 -0.5091 -0.3898 -2.6996
 5384SOL     OW16471   2.978   0.874   4.958 -0.4106 -0.2331 -0.1049
 5384SOL    HW116472   2.929   0.791   4.933 -0.9455 -0.5420  1.8170
 5384SOL    HW216473   3.011   0.866   5.052 -0.3754  1.6867  0.0851
 5385SOL     OW16474   3.009   0.306   1.614  0.2176 -0.0388 -0.0924
 5385SOL    HW116475   2.969   0.323   1.524  1.4377 -2.0332 -1.0745
 5385SOL    HW216476   3.106   0.285   1.603  0.3378 -0.5156  1.6902
 5386SOL     OW16477   1.487   4.988   1.752  0.7869 -0.0483  0.2638
 5386SOL    HW116478   1.565   5.010   1.693  0.7260  2.5764  1.0450
 5386SOL    HW216479   1.520   4.957   1.841  0.9258 -0.1268  0.1861
 5387SOL     OW16480   2.504   3.945   3.213  0.8489  0.1505  0.1920
 5387SOL    HW116481   2.528   3.953   3.309 -1.3750 -1.0942  0.9230
 5387SOL    HW216482   2.407   3.966   3.200  0.5685 -1.7360 -1.4009
 5388SOL     OW16483   2.042   0.912   2.938  0.1423 -0.1708 -0.5109
 5388SOL    HW116484   1.979   0.910   2.860 -1.3110  0.9716  0.5931
 5388SOL    HW216485   2.105   0.989   2.928  0.9660 -0.9023 -1.2576
 5389SOL     OW16486   5.373   0.106   2.003 -0.3088  0.0550 -0.4840
 5389SOL    HW116487   5.449   0.148   1.954 -0.0303  0.2971  0.1388
 5389SOL    HW216488   5.392   0.009   2.018  0.0374  0.1858 -0.0408
 5390SOL     OW16489   3.319   2.388   4.069  0.0695 -0.3706  0.1882
 5390SOL    HW116490   3.357   2.452   4.002  0.8598 -0.2040  0.7782
 5390SOL    HW216491   3.393   2.331   4.105 -0.2446 -0.1055  1.2903
 5391SOL     OW16492   3.033   5.212   0.793  0.3296  0.1252  0.3704
 5391SOL    HW116493   3.032   5.312   0.784  0.0004  0.1596  0.7557
 5391SOL    HW216494   3.128   5.179   0.790  0.4255  0.4242  0.0036
 5392SOL     OW16495   5.059   1.196   4.250  0.3329 -0.4419  0.3600
 5392SOL    HW116496   4.988   1.132   4.223  0.0796  0.1018 -0.3039
 5392SOL    HW216497   5.074   1.190   4.349  0.0370 -1.2326  0.3606
 5393SOL     OW16498   1.534   0.800   2.626 -0.0911 -0.4020  0.2586
 5393SOL    HW116499   1.446   0.844   2.644  0.7189  2.4196 -1.9042
 5393SOL    HW216500   1.525   0.737   2.549 -0.2713 -0.2079  0.1184
 5394SOL     OW16501   4.560   3.394   3.041 -0.1604  0.0309  0.0981
 5394SOL    HW116502   4.550   3.295   3.031 -1.9107  0.0635  1.0833
 5394SOL    HW216503   4.490   3.440   2.987 -1.1286  0.5993  1.7557
 5395SOL     OW16504   0.098   3.017   1.339 -0.2923 -0.6597 -0.5449
 5395SOL    HW116505   0.127   3.075   1.415 -0.4599  0.1958 -1.1209
 5395SOL    HW216506   0.111   3.066   1.253 -0.2612 -1.5563 -1.0616
 5396SOL     OW16507   4.644   1.323   2.204 -0.2619 -0.4342 -0.4744
 5396SOL    HW116508   4.578   1.371   2.147  0.1429  1.9386  0.9231
 5396SOL    HW216509   4.618   1.332   2.300  0.6605 -1.7653 -0.0748
 5397SOL     OW16510   3.001   3.710   4.823  0.0186  0.0382 -0.3252
 5397SOL    HW116511   2.932   3.782   4.812  0.5177  0.4238 -0.9577
 5397SOL    HW216512   3.092   3.750   4.823  0.3824 -0.7091 -2.0328
 5398SOL     OW16513   2.493   1.045   3.892 -0.2346 -0.4493  0.5425
 5398SOL    HW116514   2.559   1.017   3.962 -0.5948  0.8991  1.4784
 5398SOL    HW216515   2.403   1.006   3.914 -0.2293 -0.4645  0.5368
 5399SOL     OW16516   3.283   2.889   0.907 -0.2068  0.1976 -0.0896
 5399SOL    HW116517   3.377   2.900   0.874  0.0757 -0.4019  0.4841
 5399SOL    HW216518   3.222   2.873   0.829  0.1651  0.5830 -0.4635
 5400SOL     OW16519   5.456   2.861   4.230  0.1324 -0.2570  0.4687
 5400SOL    HW116520   5.475   2.765   4.212 -0.2760 -0.3383  0.4618
 5400SOL    HW216521   5.415   2.903   4.148  1.1733  0.1617  0.1424
 5401SOL     OW16522   2.745   3.963   0.639  0.1756  0.1285  0.2376
 5401SOL    HW116523   2.828   4.019   0.647 -0.0700  0.7911 -1.4372
 5401SOL    HW216524   2.681   4.007   0.576 -0.5016 -1.4918 -0.2580
 5402SOL     OW16525   0.617   5.005   1.275 -0.0062 -0.3716  0.3664
 5402SOL    HW116526   0.623   5.091   1.324 -0.0696 -0.8087  1.1592
 5402SOL    HW216527   0.558   5.016   1.195 -0.0333  0.3093  0.4749
 5403SOL     OW16528   3.715   0.521   2.726  0.3075 -1.0077  0.2372
 5403SOL    HW116529   3.620   0.498   2.705 -1.0147  3.6226  0.1388
 5403SOL    HW216530   3.727   0.525   2.825 -0.3263  0.5197  0.2864
 5404SOL     OW16531   2.540   4.717   3.592 -0.0518 -0.1683 -0.5050
 5404SOL    HW116532   2.508   4.633   3.548 -1.7867 -0.4074  1.0906
 5404SOL    HW216533   2.637   4.730   3.572  0.5732 -3.1450  0.1069
 5405SOL     OW16534   2.960   2.839   4.517  0.3091 -0.3766 -0.2406
 5405SOL    HW116535   3.057   2.817   4.509  1.0788  2.2604  1.0169
 5405SOL    HW216536   2.932   2.832   4.613 -0.2922  0.5311 -0.3391
 5406SOL     OW16537   4.808   0.560   5.424  0.2108  0.6575  0.2488
 5406SOL    HW116538   4.881   0.615   5.464 -0.0288 -0.4326  2.3537
 5406SOL    HW216539   4.847   0.492   5.362  0.8141  1.0867  0.1516
 5407SOL     OW16540   0.731   4.944   1.536 -0.2041 -0.3903 -0.8864
 5407SOL    HW116541   0.691   4.877   1.474 -0.1386 -0.0630 -1.2831
 5407SOL    HW216542   0.827   4.959   1.513 -0.1980 -0.2150 -0.7543
 5408SOL     OW16543   1.598   3.912   3.439 -0.3527 -0.0160 -0.2949
 5408SOL    HW116544   1.537   3.963   3.500 -0.7467 -0.6592 -0.1338
 5408SOL    HW216545   1.693   3.922   3.470 -0.2352  1.8296 -1.1508
 5409SOL     OW16546   2.791   1.269   4.133 -0.0960  0.0890  0.1274
 5409SOL    HW116547   2.818   1.214   4.054 -0.5691  1.2524 -0.8909
 5409SOL    HW216548   2.700   1.309   4.115  0.3096  1.3290  0.7356
 5410SOL     OW16549   4.911   4.787   0.689  0.3689 -0.1090 -0.3951
 5410SOL    HW116550   5.008   4.781   0.711  0.4367  1.6287 -0.1097
 5410SOL    HW216551   4.858   4.799   0.773 -0.1820 -1.5909 -0.4898
 5411SOL     OW16552   5.522   4.297   3.078 -0.2776 -0.0113  0.2985
 5411SOL    HW116553   5.453   4.358   3.040  0.8739  1.6585  0.7766
 5411SOL    HW216554   5.563   4.339   3.159  2.7950  0.0832 -1.1554
 5412SOL     OW16555   0.462   0.455   4.485 -0.1195  1.0649  0.2799
 5412SOL    HW116556   0.468   0.445   4.584 -0.0219 -0.7720  0.1207
 5412SOL    HW216557   0.552   0.438   4.444 -0.2795  1.2906 -0.1761
 5413SOL     OW16558   0.931   2.390   1.493 -0.0626  0.1960  0.1246
 5413SOL    HW116559   0.944   2.316   1.559  1.0854  0.5741  0.3480
 5413SOL    HW216560   1.016   2.404   1.442 -0.3916  1.1120 -0.1836
 5414SOL     OW16561   0.506   4.366   0.732 -0.3690  0.8527 -0.0694
 5414SOL    HW116562   0.525   4.441   0.796  0.5740  0.6093 -0.0606
 5414SOL    HW216563   0.576   4.364   0.661 -0.9820  0.6348 -0.6756
 5415SOL     OW16564   1.591   1.737   0.102  0.2180  0.1144 -0.3892
 5415SOL    HW116565   1.561   1.813   0.045 -0.0692  0.6956  0.5128
 5415SOL    HW216566   1.690   1.726   0.094  0.5499  1.7883  0.8526
 5416SOL     OW16567   4.667   1.486   2.734  0.3272  0.1607  0.2234
 5416SOL    HW116568   4.704   1.400   2.699 -0.9035  0.1638 -1.2158
 5416SOL    HW216569   4.707   1.563   2.683  0.7354  0.3866  0.8749
 5417SOL     OW16570   5.570   2.589   1.059 -0.3709  0.1842  0.1490
 5417SOL    HW116571   5.522   2.597   1.147  2.3022 -1.2867  1.9084
 5417SOL    HW216572   5.524   2.520   1.003 -2.0220  1.0021  0.4358
 5418SOL     OW16573   2.222   5.470   0.312 -0.0098  0.3699  0.1014
 5418SOL    HW116574   2.192   5.546   0.369  0.9261  0.3179  0.6872
 5418SOL    HW216575   2.183   5.480   0.220 -2.0509  0.1291  0.8745
 5419SOL     OW16576   5.200   5.516   5.190  0.7429  0.5925  0.4487
 5419SOL    HW116577   5.148   5.434   5.215 -1.0406  1.3247 -0.7012
 5419SOL    HW216578   5.273   5.491   5.126 -0.0471 -0.0503 -0.2169
 5420SOL     OW16579   2.194   5.261   1.484  0.2515  0.2719 -0.5806
 5420SOL    HW116580   2.229   5.206   1.560  0.7148 -0.9064 -1.6085
 5420SOL    HW216581   2.270   5.291   1.426 -0.2584 -0.9609 -1.9479
 5421SOL     OW16582   4.043   3.647   0.506  0.4276 -0.6192  0.1243
 5421SOL    HW116583   4.083   3.738   0.492 -0.8105 -0.3252 -1.9002
 5421SOL    HW216584   3.943   3.656   0.511  0.3123 -1.8362  0.1878
 5422SOL     OW16585   1.520   2.483   1.709  0.1462 -0.2766 -0.3425
 5422SOL    HW116586   1.499   2.395   1.752 -0.6061 -1.1650 -2.4092
 5422SOL    HW216587   1.457   2.553   1.745 -0.1625 -0.8763  0.3033
 5423SOL     OW16588   3.843   2.309   4.744  0.3437 -0.1462 -0.1250
 5423SOL    HW116589   3.798   2.334   4.658 -1.8191  0.2012  1.0426
 5423SOL    HW216590   3.852   2.391   4.801 -0.8880 -0.8465  1.1145
 5424SOL     OW16591   1.925   4.619   2.249 -0.7911 -0.0049  0.0289
 5424SOL    HW116592   1.928   4.718   2.266  2.6320  0.2437 -1.3220
 5424SOL    HW216593   1.944   4.601   2.153  0.8508 -2.0252  0.6708
 5425SOL     OW16594   0.848   0.685   2.761  0.1135  0.0107  0.2544
 5425SOL    HW116595   0.790   0.739   2.700  1.5263  1.2638 -0.0626
 5425SOL    HW216596   0.862   0.594   2.721 -0.9211 -0.0189 -0.0701
 5426SOL     OW16597   4.584   2.457   4.038 -0.5849 -0.0054 -0.2167
 5426SOL    HW116598   4.508   2.511   4.002  0.3966  1.2282 -0.4969
 5426SOL    HW216599   4.548   2.378   4.088 -2.0259  0.1254 -0.9963
 5427SOL     OW16600   0.194   5.106   3.680  0.4058  0.0075  0.0853
 5427SOL    HW116601   0.125   5.173   3.708  0.6601  0.3528 -0.1104
 5427SOL    HW216602   0.151   5.016   3.674 -0.5904  0.5567 -2.1450
 5428SOL     OW16603   0.166   0.302   1.484 -0.6545 -0.3933  0.7872
 5428SOL    HW116604   0.155   0.356   1.401 -0.7700 -0.1422  0.9645
 5428SOL    HW216605   0.098   0.330   1.552 -2.4090 -2.4861  0.0082
 5429SOL     OW16606   4.317   0.069   2.150 -0.2153  0.0292  0.4682
 5429SOL    HW116607   4.267  -0.002   2.099  0.6384  0.4355 -0.9872
 5429SOL    HW216608   4.369   0.026   2.224 -0.3763 -0.7630  0.1353
 5430SOL     OW16609   3.851   0.942   0.671 -0.3083  0.4325 -0.5423
 5430SOL    HW116610   3.820   0.914   0.580 -1.6612 -1.9298  0.5431
 5430SOL    HW216611   3.853   1.042   0.677 -0.9696  0.6402 -2.8840
 5431SOL     OW16612   0.936   2.552  -0.009 -0.0859  0.0508  0.2277
 5431SOL    HW116613   0.840   2.525   0.004 -0.2833  1.0733  1.0188
 5431SOL    HW216614   0.953   2.639   0.038  1.4338 -0.5271  0.8292
 5432SOL     OW16615   4.933   4.994   3.477  1.1252 -0.0941 -0.6352
 5432SOL    HW116616   4.856   4.964   3.421  1.7328 -3.7345  0.1884
 5432SOL    HW216617   4.899   5.041   3.558 -0.0895 -0.0377 -1.1546
 5433SOL     OW16618   2.880   5.365   3.139 -0.7026  0.2076 -0.2689
 5433SOL    HW116619   2.791   5.393   3.174 -0.7758  1.3033 -1.2566
 5433SOL    HW216620   2.950   5.428   3.172 -0.7376  1.1007 -1.7932
 5434SOL     OW16621   1.373   1.089   3.135  0.6657 -0.4243  0.0373
 5434SOL    HW116622   1.297   1.123   3.081  0.9569 -2.3266 -1.7100
 5434SOL    HW216623   1.404   1.159   3.199 -0.5261  1.4746 -1.3871
 5435SOL     OW16624   2.324   4.608   4.565  0.1372  0.0019  0.0498
 5435SOL    HW116625   2.236   4.578   4.601 -0.3953  0.1065 -1.1144
 5435SOL    HW216626   2.397   4.584   4.630 -0.9121  1.4949  1.8670
 5436SOL     OW16627   3.674   1.615   4.564 -0.6978  0.3726  0.1055
 5436SOL    HW116628   3.592   1.560   4.582 -0.3817 -0.2750 -0.4058
 5436SOL    HW216629   3.679   1.637   4.467  0.4817 -0.8398 -0.1468
 5437SOL     OW16630   0.877   3.074   2.261  0.0513 -0.5057 -0.0246
 5437SOL    HW116631   0.807   3.140   2.233  0.9335  0.5019  0.0448
 5437SOL    HW216632   0.835   2.986   2.280 -1.0625 -0.1861 -0.8997
 5438SOL     OW16633   1.352   2.859   2.701  0.0882 -0.3394 -0.3647
 5438SOL    HW116634   1.359   2.906   2.613  0.6508  2.8181  1.1988
 5438SOL    HW216635   1.439   2.866   2.750 -0.6949 -0.4573  1.1287
 5439SOL     OW16636   3.570   1.600   1.064  0.1196  0.4184  0.0630
 5439SOL    HW116637   3.478   1.604   1.103  0.4024  0.1855  0.7802
 5439SOL    HW216638   3.622   1.529   1.111  0.0647 -0.8012 -1.6529
 5440SOL     OW16639   5.444   3.539   1.158 -0.3056 -0.8900  0.5633
 5440SOL    HW116640   5.455   3.442   1.137 -0.5223 -0.9515  0.7333
 5440SOL    HW216641   5.467   3.555   1.254  0.8577 -0.5830  0.2503
 5441SOL     OW16642   5.520   4.115   2.748 -0.3248  0.1892  0.4775
 5441SOL    HW116643   5.481   4.113   2.656 -1.6723  3.0038  0.9009
 5441SOL    HW216644   5.596   4.179   2.752  1.2158 -1.5630  0.8760
 5442SOL     OW16645   3.996   0.242   1.617  0.1945 -0.0813  0.3136
 5442SOL    HW116646   3.986   0.331   1.662  0.8472 -0.0443  0.3953
 5442SOL    HW216647   3.984   0.253   1.518  2.1979  0.4763  0.0702
 5443SOL     OW16648   5.228   2.441   2.403 -0.0383 -0.0121 -0.8071
 5443SOL    HW116649   5.309   2.483   2.445  0.8582 -1.0647 -1.4030
 5443SOL    HW216650   5.185   2.506   2.341 -1.3857  1.5766  1.6486
 5444SOL     OW16651   4.153   0.444   4.078 -0.1763  0.0575 -0.7553
 5444SOL    HW116652   4.084   0.466   4.147 -0.1023  0.4569 -0.8018
 5444SOL    HW216653   4.155   0.346   4.061 -0.5328  0.0147 -0.5436
 5445SOL     OW16654   4.617   2.373   3.199 -0.1388 -0.4136  0.0950
 5445SOL    HW116655   4.551   2.336   3.133  0.9601 -1.0480 -0.6947
 5445SOL    HW216656   4.706   2.380   3.155  0.2330  0.8457  1.0137
 5446SOL     OW16657   3.698   2.293   1.410 -0.0004 -0.4428  0.7313
 5446SOL    HW116658   3.661   2.366   1.467 -1.0613 -0.4195  0.0144
 5446SOL    HW216659   3.641   2.279   1.330  1.1323 -0.9090 -0.0314
 5447SOL     OW16660   4.407   2.514   3.295 -0.1913  0.7504 -0.6468
 5447SOL    HW116661   4.492   2.469   3.268 -0.1905 -0.8385  1.7514
 5447SOL    HW216662   4.424   2.570   3.376 -1.4859  0.2154  0.0080
 5448SOL     OW16663   1.254   2.218   1.624 -0.7588 -0.6287  0.4414
 5448SOL    HW116664   1.278   2.222   1.527  0.7103 -0.4912  0.7839
 5448SOL    HW216665   1.154   2.217   1.634 -0.9844  1.2665 -0.9942
 5449SOL     OW16666   4.412   3.811   2.858  0.0423 -0.4808  0.0110
 5449SOL    HW116667   4.325   3.859   2.861 -0.1753 -0.9298  2.1425
 5449SOL    HW216668   4.473   3.848   2.928 -0.0577 -3.0917  1.5802
 5450SOL     OW16669   3.399   1.135   4.164 -0.3817 -0.0996 -0.5268
 5450SOL    HW116670   3.331   1.139   4.237  0.5372  0.6779  0.3134
 5450SOL    HW216671   3.364   1.077   4.090 -1.9519  0.2759 -0.1326
 5451SOL     OW16672   3.771   1.455   1.157  0.0867  0.0028  0.0714
 5451SOL    HW116673   3.820   1.531   1.200 -1.1061  0.1768  1.1930
 5451SOL    HW216674   3.832   1.407   1.094  1.2885  0.9901  0.4446
 5452SOL     OW16675   3.259   4.541   4.680  0.2420 -0.3565  0.5169
 5452SOL    HW116676   3.197   4.612   4.715  0.2716  0.2776 -0.6522
 5452SOL    HW216677   3.232   4.452   4.715  0.0788  0.1971  1.8666
 5453SOL     OW16678   1.921   3.465   5.265  0.0074 -0.1148 -0.1456
 5453SOL    HW116679   1.987   3.426   5.330 -0.0928 -0.7183 -0.3993
 5453SOL    HW216680   1.952   3.448   5.172  0.7874  1.8311 -0.2819
 5454SOL     OW16681   0.170   4.648   1.365  0.2100 -0.7716  0.4957
 5454SOL    HW116682   0.144   4.604   1.279  0.1323  1.9278 -0.9948
 5454SOL    HW216683   0.270   4.660   1.367  0.1784 -0.5178  0.6002
 5455SOL     OW16684   5.041   3.572   0.528  0.5328  0.0528 -0.5745
 5455SOL    HW116685   5.032   3.474   0.509 -0.9627  0.1270 -0.3509
 5455SOL    HW216686   4.958   3.605   0.573  1.1283  1.3768 -0.4074
 5456SOL     OW16687   2.917   3.504   1.396 -0.7109 -0.1219  0.0608
 5456SOL    HW116688   2.836   3.515   1.338 -0.7605  1.2821  0.3503
 5456SOL    HW216689   2.889   3.493   1.491 -0.6098  2.7918  0.5299
 5457SOL     OW16690   2.736   4.293   0.279  0.1071 -0.4245 -0.2780
 5457SOL    HW116691   2.815   4.301   0.339  1.1682 -4.0658 -0.9269
 5457SOL    HW216692   2.661   4.247   0.329  0.0211 -0.9901 -0.9118
 5458SOL     OW16693   0.056   0.896   2.063  0.4889  0.8144 -0.5730
 5458SOL    HW116694   0.143   0.882   2.112 -0.4485  0.5399  1.0891
 5458SOL    HW216695   0.016   0.807   2.041 -0.0796  0.9233 -0.0033
 5459SOL     OW16696   2.013   4.526   4.548 -0.0265 -0.1666  0.6497
 5459SOL    HW116697   1.957   4.590   4.496 -1.1240  0.1036  2.0864
 5459SOL    HW216698   2.011   4.436   4.505  0.0386  0.3131 -0.3858
 5460SOL     OW16699   0.422   3.185   0.518 -0.7277  0.0391 -0.2228
 5460SOL    HW116700   0.468   3.271   0.495 -0.3157 -0.3221 -0.7561
 5460SOL    HW216701   0.491   3.115   0.536 -1.0554 -0.0683  0.6724
 5461SOL     OW16702   1.585   2.274   2.055  0.1359 -0.2981 -0.7942
 5461SOL    HW116703   1.505   2.252   2.000 -0.6747  0.9963 -0.1934
 5461SOL    HW216704   1.592   2.209   2.131  0.9918 -1.8006 -2.1132
 5462SOL     OW16705   0.094   2.037   3.923 -0.1656 -0.3684 -0.8831
 5462SOL    HW116706   0.021   2.103   3.940  0.1084 -0.4230  0.6084
 5462SOL    HW216707   0.058   1.944   3.933 -0.5124 -0.4845 -2.8212
 5463SOL     OW16708   3.804   3.676   1.100  0.4392 -0.2424 -0.4861
 5463SOL    HW116709   3.819   3.751   1.165 -0.5568 -1.5418  1.3436
 5463SOL    HW216710   3.852   3.594   1.132 -2.4643 -1.7669  0.3330
 5464SOL     OW16711   5.036   5.147   0.422 -0.1619  0.1959  0.1400
 5464SOL    HW116712   4.993   5.057   0.427 -1.4357  0.8073  0.6935
 5464SOL    HW216713   5.063   5.176   0.513 -0.3303  0.6274  0.0553
 5465SOL     OW16714   1.883   1.861   3.736  0.7914 -0.0709 -0.2199
 5465SOL    HW116715   1.820   1.868   3.659  1.7329  0.3286 -0.9654
 5465SOL    HW216716   1.857   1.928   3.806  0.1023 -0.2385 -0.3111
 5466SOL     OW16717   0.737   3.329   2.263 -0.1565  0.2118  0.3515
 5466SOL    HW116718   0.659   3.362   2.316 -1.0955  1.2997 -1.5985
 5466SOL    HW216719   0.812   3.395   2.268  1.1605 -1.3334  3.1140
 5467SOL     OW16720   2.035   4.599   5.496  0.4599 -0.2234  0.5578
 5467SOL    HW116721   2.012   4.573   5.402  0.0333 -1.9176  1.0934
 5467SOL    HW216722   1.966   4.662   5.531  1.0365  1.0358 -0.4941
 5468SOL     OW16723   1.106   5.452   3.423 -0.5674 -0.9704 -0.3554
 5468SOL    HW116724   1.170   5.522   3.392  1.3617 -1.8085  1.4682
 5468SOL    HW216725   1.110   5.374   3.362 -0.3146 -0.7590 -0.6133
 5469SOL     OW16726   5.375   0.860   2.676 -0.1413  0.1173 -0.0331
 5469SOL    HW116727   5.277   0.841   2.671 -0.2225  0.1570  1.1999
 5469SOL    HW216728   5.412   0.821   2.760  0.5176  1.7249  0.4562
 5470SOL     OW16729   1.054   1.326   1.015  0.1073  0.2299  0.2924
 5470SOL    HW116730   1.091   1.386   0.944  1.7690  0.7640  1.5365
 5470SOL    HW216731   1.101   1.238   1.013  0.7643  0.5411  1.2239
 5471SOL     OW16732   4.354   2.253   3.731  0.0048  0.0382  0.3353
 5471SOL    HW116733   4.449   2.230   3.708 -0.7722 -0.9996 -2.1523
 5471SOL    HW216734   4.343   2.353   3.725  0.6890  0.0813 -0.4390
 5472SOL     OW16735   3.126   2.248   2.104  0.2782  0.4900  0.4505
 5472SOL    HW116736   3.028   2.262   2.119  0.1744 -0.2351  0.4710
 5472SOL    HW216737   3.173   2.239   2.192  0.3314  0.6478  0.4373
 5473SOL     OW16738   1.316   1.101   1.711  0.0864 -0.3527 -0.2719
 5473SOL    HW116739   1.333   1.028   1.778  0.9824  0.1396  0.0602
 5473SOL    HW216740   1.388   1.170   1.718 -0.5507  0.3925 -0.8238
 5474SOL     OW16741   3.818   3.338   2.287 -0.3231  0.3706 -0.1438
 5474SOL    HW116742   3.841   3.318   2.191 -4.0538 -0.2890 -1.0457
 5474SOL    HW216743   3.850   3.430   2.311  0.5384  0.6151 -2.0598
 5475SOL     OW16744   2.571   0.194   3.800  0.2627 -0.0342 -0.3517
 5475SOL    HW116745   2.528   0.105   3.783  1.7489 -1.2096  1.5897
 5475SOL    HW216746   2.561   0.218   3.897  0.3682  1.6794 -0.7233
 5476SOL     OW16747   5.416   2.781   1.830 -0.0837  0.9411 -0.1266
 5476SOL    HW116748   5.426   2.771   1.929 -0.1308  3.9649  0.2792
 5476SOL    HW216749   5.506   2.787   1.787 -0.0294 -1.3651 -0.4900
 5477SOL     OW16750   3.422   0.206   4.900  0.1805 -0.5575  0.0315
 5477SOL    HW116751   3.469   0.209   4.988  1.5469  0.7603 -0.6922
 5477SOL    HW216752   3.429   0.295   4.855 -1.7435 -0.7680 -0.8032
 5478SOL     OW16753   3.754   2.860   4.690 -0.1340  0.0515 -0.0101
 5478SOL    HW116754   3.755   2.825   4.784 -0.4368  1.7439  0.6577
 5478SOL    HW216755   3.697   2.801   4.633 -0.5152 -0.6156  1.0378
 5479SOL     OW16756   4.883   1.565   4.744  0.0378  0.2533 -0.5905
 5479SOL    HW116757   4.812   1.511   4.700 -1.2410  0.4545  1.1175
 5479SOL    HW216758   4.882   1.659   4.709 -1.1155  0.4730 -0.0069
 5480SOL     OW16759   0.820   4.071   0.155  0.2499 -0.1594  0.3063
 5480SOL    HW116760   0.767   4.149   0.187 -0.4527 -0.3193 -0.4173
 5480SOL    HW216761   0.795   3.990   0.209 -0.3341 -0.2550 -0.0929
 5481SOL     OW16762   1.287   3.489   4.179 -0.4412  0.3072  0.6526
 5481SOL    HW116763   1.189   3.505   4.166 -0.1734  1.6007  0.1023
 5481SOL    HW216764   1.316   3.411   4.123 -1.3791 -0.9185  1.7938
 5482SOL     OW16765   1.289   3.205   3.757 -0.5386 -0.0287 -0.5330
 5482SOL    HW116766   1.320   3.111   3.744 -0.4212 -0.1545  0.5799
 5482SOL    HW216767   1.365   3.268   3.741 -0.1492 -0.2352  0.4620
 5483SOL     OW16768   3.260   0.557   1.462 -0.0147 -0.4872 -0.2044
 5483SOL    HW116769   3.317   0.639   1.466  0.8709 -1.1246  1.0214
 5483SOL    HW216770   3.277   0.509   1.376 -1.0612  0.9424 -1.2532
 5484SOL     OW16771   0.377   0.059   0.332  0.0385  0.2059  0.3678
 5484SOL    HW116772   0.436   0.128   0.292  0.3721  0.2197  0.8692
 5484SOL    HW216773   0.294   0.102   0.367  0.5444  0.4728  1.2891
 5485SOL     OW16774   1.665   0.804   4.449 -0.4927  0.4962  0.0376
 5485SOL    HW116775   1.736   0.830   4.383  1.4000 -1.0943  1.3315
 5485SOL    HW216776   1.592   0.872   4.447 -1.0756  0.0316 -4.3795
 5486SOL     OW16777   3.973   0.854   2.730  0.3298  0.4550  0.3313
 5486SOL    HW116778   3.968   0.880   2.633 -2.9585  2.8624  0.9696
 5486SOL    HW216779   4.021   0.925   2.781  1.0541 -0.2552  0.6655
 5487SOL     OW16780   0.811   1.867   2.947  0.3415  0.3849  0.2097
 5487SOL    HW116781   0.840   1.849   3.041 -0.1875  1.6618  0.6488
 5487SOL    HW216782   0.891   1.877   2.889  0.7061 -3.6080 -0.2102
 5488SOL     OW16783   1.984   0.123   5.345  0.2333 -0.6430  0.5680
 5488SOL    HW116784   1.921   0.134   5.268  1.3565  1.5326 -0.1335
 5488SOL    HW216785   2.077   0.145   5.315  0.6293  0.8224  2.6401
 5489SOL     OW16786   1.369   4.946   1.337 -0.1103  0.4794  0.1669
 5489SOL    HW116787   1.426   5.020   1.302 -0.2181 -0.2685 -1.6837
 5489SOL    HW216788   1.309   4.913   1.265 -0.9907 -0.5561  1.3311
 5490SOL     OW16789   1.839   0.619   1.280  0.0836 -0.2804  0.5396
 5490SOL    HW116790   1.778   0.551   1.321 -1.2559  0.2112 -0.5584
 5490SOL    HW216791   1.932   0.581   1.275  0.3878 -0.3599  3.9789
 5491SOL     OW16792   1.659   0.059   5.284 -0.5708  0.0526 -0.0961
 5491SOL    HW116793   1.691   0.043   5.377  0.6900  1.2967 -0.2732
 5491SOL    HW216794   1.596  -0.014   5.257 -1.9021  0.2794  2.1246
 5492SOL     OW16795   1.888   3.485   3.012 -0.3939  0.2820 -0.0524
 5492SOL    HW116796   1.895   3.522   3.105 -1.1743 -2.3402  1.1621
 5492SOL    HW216797   1.962   3.523   2.956 -0.8466  3.1616  1.1263
 5493SOL     OW16798   4.929   5.495   4.610  0.5228 -0.1605 -0.2651
 5493SOL    HW116799   4.865   5.539   4.673  1.1414 -0.1131  0.3372
 5493SOL    HW216800   4.950   5.558   4.535 -0.2689 -0.2434 -0.5672
 5494SOL     OW16801   0.089   0.469   0.838  0.3382 -0.3018  0.0494
 5494SOL    HW116802   0.117   0.450   0.744 -0.2444  0.1269 -0.2107
 5494SOL    HW216803   0.012   0.532   0.838 -0.6512 -1.4650  0.7592
 5495SOL     OW16804   1.349   0.912   1.934  0.2045 -0.7087  0.1280
 5495SOL    HW116805   1.254   0.883   1.948 -0.1512  1.1090  1.9883
 5495SOL    HW216806   1.398   0.843   1.881 -2.4300 -1.2095 -1.8961
 5496SOL     OW16807   1.088   2.084   2.586 -0.0420  0.6194 -0.3700
 5496SOL    HW116808   1.073   2.054   2.681 -1.2595 -0.4191 -0.8613
 5496SOL    HW216809   1.123   2.178   2.586  1.7160  0.0276  1.1508
 5497SOL     OW16810   1.108   2.600   1.959  0.1652  0.1735 -0.2099
 5497SOL    HW116811   1.100   2.501   1.968 -0.0421  0.0954 -1.1046
 5497SOL    HW216812   1.031   2.635   1.904 -0.7262  1.0595  1.5082
 5498SOL     OW16813   1.438   1.938   3.109  0.1965 -0.1497 -0.0978
 5498SOL    HW116814   1.463   1.969   3.201 -2.4567  0.4143  0.5243
 5498SOL    HW216815   1.521   1.923   3.055  1.8640 -0.7201  2.4260
 5499SOL     OW16816   0.680   0.636   4.254 -0.3555 -0.1717  0.0987
 5499SOL    HW116817   0.615   0.619   4.180 -0.1215  1.9207 -0.6442
 5499SOL    HW216818   0.641   0.701   4.319  0.3440 -0.2017  0.5642
 5500SOL     OW16819   0.537   0.219   2.050 -0.0816 -0.5504 -0.0365
 5500SOL    HW116820   0.621   0.224   2.105 -0.1639 -1.9733  0.2677
 5500SOL    HW216821   0.458   0.231   2.110 -0.1334 -0.4854 -0.1174
 5501SOL     OW16822   3.373   1.588   4.114  0.3193  0.2150  0.0468
 5501SOL    HW116823   3.453   1.536   4.142  0.5170  1.2082  1.4511
 5501SOL    HW216824   3.389   1.629   4.024  0.5994 -1.1736 -0.5527
 5502SOL     OW16825   2.072   3.390   4.001  0.3533 -0.0781  0.2888
 5502SOL    HW116826   2.148   3.376   4.064  1.2627  0.3598 -0.6865
 5502SOL    HW216827   2.039   3.484   4.009 -0.0358 -0.2404  0.6417
 5503SOL     OW16828   1.966   5.072   0.967  0.2797  0.0781 -0.2438
 5503SOL    HW116829   1.900   5.131   0.921  0.2040 -0.9536 -1.4993
 5503SOL    HW216830   2.027   5.128   1.023 -1.1214  1.1294  0.2940
 5504SOL     OW16831   4.765   1.255   0.901 -0.2477 -0.5830 -0.0117
 5504SOL    HW116832   4.810   1.247   0.990  1.6055  0.4170 -0.7896
 5504SOL    HW216833   4.834   1.254   0.829 -1.6374 -0.5140 -1.4015
 5505SOL     OW16834   3.639   2.352   3.926 -0.2929 -0.0858  0.2499
 5505SOL    HW116835   3.694   2.367   3.844  0.3914  0.3554  0.7865
 5505SOL    HW216836   3.690   2.297   3.992 -1.3672 -1.6558 -0.1613
 5506SOL     OW16837   1.835   1.259   0.199  0.2917 -0.5425  0.1187
 5506SOL    HW116838   1.761   1.286   0.137 -0.5799  1.5601  1.9173
 5506SOL    HW216839   1.922   1.259   0.150 -0.8046 -3.1746 -2.0858
 5507SOL     OW16840   1.181   4.075   5.380  0.1634 -0.5839 -0.4957
 5507SOL    HW116841   1.139   4.122   5.457  0.4438 -2.6009  0.9658
 5507SOL    HW216842   1.232   4.141   5.324 -0.1014  0.9381  0.9902
 5508SOL     OW16843   5.072   2.308   1.374  0.4802  0.1855 -0.1171
 5508SOL    HW116844   5.079   2.340   1.279 -0.3431 -2.2211 -1.0684
 5508SOL    HW216845   5.001   2.360   1.421 -2.7799 -1.8018 -2.4142
 5509SOL     OW16846   2.389   0.532   4.995  0.0197  0.3324  0.5621
 5509SOL    HW116847   2.475   0.485   5.016  0.1939  0.2472 -0.3083
 5509SOL    HW216848   2.314   0.467   4.996  0.4713 -0.3368 -2.1898
 5510SOL     OW16849   1.904   4.187   1.179  0.2999 -1.0239  0.0139
 5510SOL    HW116850   1.859   4.114   1.230  0.2846 -1.7941 -1.0824
 5510SOL    HW216851   1.967   4.235   1.240  0.6302 -2.2171  0.6508
 5511SOL     OW16852   2.564   0.658   2.654  0.0466 -0.2800 -0.2716
 5511SOL    HW116853   2.498   0.686   2.584  0.6275  0.7529 -0.4192
 5511SOL    HW216854   2.652   0.700   2.636  0.3478 -0.4276  0.7847
 5512SOL     OW16855   0.779   0.346   5.537  0.2775 -0.2129 -0.6555
 5512SOL    HW116856   0.731   0.352   5.450 -0.6656  1.0405 -0.0857
 5512SOL    HW216857   0.777   0.436   5.582 -0.9488 -1.2628  1.5269
 5513SOL     OW16858   0.989   3.845   2.444  0.2840  0.3253 -0.2285
 5513SOL    HW116859   1.017   3.897   2.524 -1.7417 -0.7456  1.2775
 5513SOL    HW216860   1.030   3.754   2.448  0.9435  0.5892 -0.9286
 5514SOL     OW16861   1.039   4.346   4.466 -0.4992 -0.0551 -0.2555
 5514SOL    HW116862   1.070   4.257   4.433  0.5655 -0.3053  1.3286
 5514SOL    HW216863   1.044   4.412   4.391 -1.1264 -1.2598 -1.4001
 5515SOL     OW16864   1.837   2.939   1.133  0.6484 -0.0960  0.2452
 5515SOL    HW116865   1.841   3.014   1.199  1.4982  0.7638 -0.7401
 5515SOL    HW216866   1.768   2.960   1.063 -0.0994 -0.9009  0.7276
 5516SOL     OW16867   0.018   5.397   1.938 -0.1408  0.8388  0.0805
 5516SOL    HW116868   0.000   5.415   1.841 -1.0945  0.3398  0.1563
 5516SOL    HW216869   0.109   5.355   1.948  0.8335  2.6935 -0.3914
 5517SOL     OW16870   3.283   1.805   4.278 -0.3511 -0.2202  0.0489
 5517SOL    HW116871   3.355   1.808   4.346  0.9980  0.8592 -1.3504
 5517SOL    HW216872   3.285   1.716   4.231  2.8048  1.0741 -2.6698
 5518SOL     OW16873   1.982   3.937   3.089 -0.1078  0.1273  0.0320
 5518SOL    HW116874   1.922   3.959   3.166 -0.3604  0.1742 -0.1780
 5518SOL    HW216875   1.957   3.992   3.010  0.0531 -0.0310 -0.1306
 5519SOL     OW16876   0.071   3.072   5.295 -0.9295 -0.0425 -0.0743
 5519SOL    HW116877   0.105   3.120   5.376 -3.1067  3.1170 -0.8436
 5519SOL    HW216878   0.017   2.993   5.323  0.0456 -0.2141  1.4299
 5520SOL     OW16879   2.105   4.594   4.790 -0.4157  0.0618 -0.1995
 5520SOL    HW116880   2.083   4.556   4.700 -1.5156 -1.3337  0.6113
 5520SOL    HW216881   2.181   4.542   4.830  0.4468  1.0364 -0.5220
 5521SOL     OW16882   2.736   4.339   1.918 -0.4439 -0.1410 -0.3429
 5521SOL    HW116883   2.772   4.319   2.009  0.6310  1.4649 -0.3706
 5521SOL    HW216884   2.672   4.415   1.923  0.3017  0.5567 -1.0125
 5522SOL     OW16885   2.606   4.938   0.328  0.0887  0.1312 -0.0182
 5522SOL    HW116886   2.609   4.849   0.375  0.0640  0.8984  1.5034
 5522SOL    HW216887   2.699   4.973   0.319  0.1339 -0.2126 -0.9735
 5523SOL     OW16888   0.844   2.082   0.463  0.0212 -0.5690 -0.2700
 5523SOL    HW116889   0.792   2.013   0.514  0.5843 -0.7450  0.0754
 5523SOL    HW216890   0.881   2.040   0.380  0.9798 -0.8985  0.3048
 5524SOL     OW16891   1.204   0.041   3.084  0.7913 -0.3219  0.2871
 5524SOL    HW116892   1.262   0.100   3.028 -0.1460  0.6305  0.2634
 5524SOL    HW216893   1.111   0.042   3.047  0.7965 -2.0231  0.1591
 5525SOL     OW16894   1.546   4.500   1.699 -0.3947  0.4700  0.3707
 5525SOL    HW116895   1.448   4.508   1.719 -0.3426 -1.6628  1.7628
 5525SOL    HW216896   1.560   4.440   1.621 -0.1799  0.2006  0.6130
 5526SOL     OW16897   1.746   1.070   3.871  0.4284  0.4010 -0.8197
 5526SOL    HW116898   1.751   1.162   3.910  0.8986  0.9070 -2.0369
 5526SOL    HW216899   1.661   1.060   3.819 -0.9181 -0.7620  1.4584
 5527SOL     OW16900   0.547   5.443   3.962 -0.1143 -0.1407 -0.1495
 5527SOL    HW116901   0.460   5.396   3.947 -0.4654  0.3581  0.2881
 5527SOL    HW216902   0.567   5.502   3.883 -2.1064  2.7150  1.2957
 5528SOL     OW16903   2.112   0.275   2.861  0.6214  0.2371 -0.1988
 5528SOL    HW116904   2.176   0.294   2.936 -0.4876  1.5662  0.4692
 5528SOL    HW216905   2.047   0.204   2.890  1.5706 -0.8705 -0.7525
 5529SOL     OW16906   1.634   4.303   5.407 -0.4096  0.2949 -0.0477
 5529SOL    HW116907   1.730   4.318   5.383 -0.2515 -0.1418  0.3069
 5529SOL    HW216908   1.587   4.391   5.413  0.2269  0.5916  0.8545
 5530SOL     OW16909   4.248   0.307   4.496  0.2380 -0.2884 -0.0844
 5530SOL    HW116910   4.181   0.242   4.461  0.7971 -1.0207  0.1882
 5530SOL    HW216911   4.330   0.306   4.439  1.1462 -1.4678  1.1781
 5531SOL     OW16912   2.787   4.854   3.886 -0.0361  0.6289 -0.0718
 5531SOL    HW116913   2.852   4.859   3.961  1.7054 -0.9967 -1.3721
 5531SOL    HW216914   2.803   4.931   3.823  1.4728 -0.3480 -0.9554
 5532SOL     OW16915   0.413   2.102   4.265 -0.0640  0.0947  0.2752
 5532SOL    HW116916   0.394   2.012   4.303  1.6741 -0.2320  0.4460
 5532SOL    HW216917   0.496   2.098   4.210 -1.0960  1.1492 -1.4406
 5533SOL     OW16918   2.645   3.357   2.991  0.1671  0.0267 -0.3630
 5533SOL    HW116919   2.709   3.282   3.006  0.0603  0.1838  0.9207
 5533SOL    HW216920   2.551   3.323   2.993  0.0129  0.4520  2.1917
 5534SOL     OW16921   5.517   3.290   2.905 -0.1320 -0.0807 -0.4189
 5534SOL    HW116922   5.609   3.295   2.867 -0.6763 -0.3398 -1.8151
 5534SOL    HW216923   5.466   3.373   2.880 -0.7042 -0.5510 -0.8367
 5535SOL     OW16924   2.322   4.976   4.633  0.1816 -0.0091 -0.2725
 5535SOL    HW116925   2.392   5.041   4.665  0.1983 -0.2208  0.1280
 5535SOL    HW216926   2.357   4.925   4.555  0.8973 -0.8588  0.5643
 5536SOL     OW16927   0.960   5.431   2.540  0.3344  0.2629  0.6418
 5536SOL    HW116928   0.892   5.455   2.471 -2.1361  1.0148  3.1665
 5536SOL    HW216929   0.953   5.493   2.618  1.3355 -1.9592  2.6425
 5537SOL     OW16930   0.402   0.373   1.862 -0.6840  0.1964 -0.0228
 5537SOL    HW116931   0.439   0.302   1.922  1.9215  1.0400 -0.4657
 5537SOL    HW216932   0.375   0.332   1.775  1.6333 -0.2548 -0.6214
 5538SOL     OW16933   4.083   5.522   2.921 -0.6715  0.1352  0.2318
 5538SOL    HW116934   4.002   5.567   2.883  0.3771  1.5751 -0.3591
 5538SOL    HW216935   4.082   5.425   2.894 -1.2774  0.5398 -1.2962
 5539SOL     OW16936   3.094   0.103   2.603 -0.2767  0.2868  0.2086
 5539SOL    HW116937   3.070   0.019   2.555  0.2588 -0.1017  0.6074
 5539SOL    HW216938   3.115   0.082   2.699  1.6691  0.5780 -0.1100
 5540SOL     OW16939   2.787   3.089   2.880  0.0177  0.1541 -0.4650
 5540SOL    HW116940   2.768   3.135   2.794 -1.7835 -0.2552 -0.3466
 5540SOL    HW216941   2.795   2.991   2.864  0.2069  0.1308 -0.2316
 5541SOL     OW16942   2.685   3.455   4.306 -0.1672  0.2108 -0.1361
 5541SOL    HW116943   2.762   3.395   4.332 -0.7320 -0.1924  0.6601
 5541SOL    HW216944   2.695   3.482   4.211  1.0937  0.3561  0.0180
 5542SOL     OW16945   0.744   5.307   2.780 -0.0674 -0.0054  0.1547
 5542SOL    HW116946   0.673   5.366   2.741  1.1187  2.0417  0.9099
 5542SOL    HW216947   0.806   5.277   2.707  0.4045  1.2986 -0.0136
 5543SOL     OW16948   5.459   1.776   2.824 -0.9846  0.1161 -0.6567
 5543SOL    HW116949   5.521   1.728   2.885 -0.5275  2.1062  0.5187
 5543SOL    HW216950   5.453   1.726   2.737  1.2921 -0.7882 -0.3750
 5544SOL     OW16951   1.665   0.243   2.999 -0.0477  0.6201  0.0012
 5544SOL    HW116952   1.683   0.329   3.048  2.3047 -0.3871  1.0739
 5544SOL    HW216953   1.727   0.236   2.921 -1.0182  0.4020 -0.7526
 5545SOL     OW16954   0.604   3.436   1.504  0.2017 -0.2685  0.2264
 5545SOL    HW116955   0.533   3.487   1.456 -1.6563 -0.8586  2.1944
 5545SOL    HW216956   0.591   3.338   1.489  0.3780 -0.3973  0.8850
 5546SOL     OW16957   1.787   2.907   3.278 -0.4330  0.0287  0.6998
 5546SOL    HW116958   1.821   2.820   3.314 -3.0636 -1.1124  0.6832
 5546SOL    HW216959   1.810   2.913   3.181  1.2156  0.1906  1.0595
 5547SOL     OW16960   2.343   2.308   1.041  0.0767  0.4598 -0.8482
 5547SOL    HW116961   2.286   2.378   0.999 -0.9257  0.0613 -0.1965
 5547SOL    HW216962   2.355   2.328   1.138 -2.4906 -1.6051  0.0049
 5548SOL     OW16963   1.736   0.523   1.022 -0.3994  0.1481  0.2303
 5548SOL    HW116964   1.811   0.482   0.970  0.3673  1.2907  0.4066
 5548SOL    HW216965   1.773   0.563   1.106 -0.9990  1.7827 -0.2508
 5549SOL     OW16966   2.964   3.539   3.310  0.3131 -0.0642 -0.0943
 5549SOL    HW116967   2.938   3.444   3.324  0.7159 -0.1663 -0.0121
 5549SOL    HW216968   3.015   3.548   3.224 -0.3045  0.1948 -0.4417
 5550SOL     OW16969   0.808   2.122   4.358 -0.4213 -0.2057  0.2065
 5550SOL    HW116970   0.755   2.155   4.436 -1.2946 -1.4268  0.1645
 5550SOL    HW216971   0.895   2.171   4.353  0.0655 -0.7290  2.4847
 5551SOL     OW16972   2.495   5.311   0.859 -0.1208  0.1846  0.1793
 5551SOL    HW116973   2.532   5.218   0.871  0.4353  0.3103 -0.4692
 5551SOL    HW216974   2.441   5.315   0.775 -1.6840 -0.0019  1.1411
 5552SOL     OW16975   2.386   3.064   2.759  0.0037 -0.0861 -0.3742
 5552SOL    HW116976   2.391   3.137   2.828  0.4946 -0.6384  0.1810
 5552SOL    HW216977   2.318   2.997   2.787 -1.5233  0.8811 -1.6100
 5553SOL     OW16978   2.994   2.393   4.898 -1.0457 -0.1239  0.1757
 5553SOL    HW116979   2.990   2.463   4.827  0.1862  0.9661  1.1232
 5553SOL    HW216980   2.994   2.437   4.988 -2.5091 -1.4656  0.8728
 5554SOL     OW16981   4.328   0.816   0.419 -0.6751 -0.0659 -0.2357
 5554SOL    HW116982   4.407   0.799   0.360 -0.2466  0.2552  0.2327
 5554SOL    HW216983   4.359   0.828   0.514 -1.2656  0.2286 -0.0713
 5555SOL     OW16984   3.103   4.686   1.000  0.1428  0.4983 -0.5177
 5555SOL    HW116985   3.111   4.627   0.919  0.6100  1.5332 -1.2594
 5555SOL    HW216986   3.192   4.729   1.018  0.2164 -0.2148  0.9592
 5556SOL     OW16987   0.757   1.736   2.320 -0.8252 -0.3273 -0.1795
 5556SOL    HW116988   0.774   1.812   2.383 -0.1887 -0.9817  0.4339
 5556SOL    HW216989   0.662   1.707   2.329 -0.4509 -1.1638  1.3129
 5557SOL     OW16990   1.597   5.476   4.167 -0.3588  0.5854  0.0245
 5557SOL    HW116991   1.525   5.407   4.164 -0.3886  0.5216  1.3266
 5557SOL    HW216992   1.675   5.440   4.217 -0.7518  1.7877  1.5960
 5558SOL     OW16993   3.966   1.302   1.821  0.3127 -0.6564  0.3985
 5558SOL    HW116994   3.913   1.266   1.744  0.9081 -1.1546  0.2170
 5558SOL    HW216995   3.921   1.384   1.856 -0.8101 -1.2816  0.4994
 5559SOL     OW16996   2.413   1.416   3.440  0.1046  0.6911 -0.0122
 5559SOL    HW116997   2.337   1.481   3.429 -1.6090 -0.9035  1.6352
 5559SOL    HW216998   2.481   1.455   3.502 -0.7049  1.0804  0.6503
 5560SOL     OW16999   5.402   2.381   5.484  0.0978 -0.4721  0.7163
 5560SOL    HW117000   5.344   2.364   5.563 -2.2937  1.0380 -0.6059
 5560SOL    HW217001   5.375   2.321   5.409  0.6872 -0.1929  0.2679
 5561SOL     OW17002   3.818   3.676   3.127  0.1793  0.2265 -0.4654
 5561SOL    HW117003   3.782   3.667   3.034 -0.3234 -0.8815 -0.1723
 5561SOL    HW217004   3.788   3.763   3.166 -0.2253  0.3617 -1.0720
 5562SOL     OW17005   1.117   2.682   2.663  0.1416 -0.2923  0.5826
 5562SOL    HW117006   1.179   2.758   2.679  1.3981 -1.4050  1.2131
 5562SOL    HW217007   1.115   2.623   2.744 -0.4978 -1.1387 -0.0271
 5563SOL     OW17008   0.768   0.992   1.915  0.6819  0.3069  0.1521
 5563SOL    HW117009   0.802   1.080   1.884  2.2190 -0.1084  0.5448
 5563SOL    HW217010   0.676   1.002   1.953 -0.0913  1.2979 -1.8947
 5564SOL     OW17011   1.144   0.628   4.607 -0.5555  0.4368  0.0195
 5564SOL    HW117012   1.098   0.615   4.520 -0.3493  0.4184 -0.0871
 5564SOL    HW217013   1.078   0.619   4.682 -0.7061  0.3168 -0.1279
 5565SOL     OW17014   4.647   0.242   4.524  0.3114 -0.4009  0.2135
 5565SOL    HW117015   4.660   0.195   4.612 -0.7822  0.2904  0.7702
 5565SOL    HW217016   4.708   0.322   4.520 -0.1565 -0.0145  0.6690
 5566SOL     OW17017   4.957   1.660   0.439  0.2432  0.0564  0.2894
 5566SOL    HW117018   4.944   1.756   0.463 -0.5488 -0.1100  0.5703
 5566SOL    HW217019   4.985   1.608   0.520 -1.4449 -0.3239  0.6667
 5567SOL     OW17020   3.542   1.575   5.424 -0.5204  0.0083 -0.6560
 5567SOL    HW117021   3.448   1.548   5.445  0.6153 -2.1337  2.6560
 5567SOL    HW217022   3.543   1.666   5.383 -3.9543  0.7169  0.4940
 5568SOL     OW17023   2.235   1.711   1.066  0.1428 -0.0571  0.4863
 5568SOL    HW117024   2.312   1.757   1.110 -1.0404 -0.5954  3.3609
 5568SOL    HW217025   2.169   1.780   1.034  0.9267  0.3521 -0.2723
 5569SOL     OW17026   1.172   4.677   2.215 -0.2911 -0.0234 -0.2258
 5569SOL    HW117027   1.268   4.696   2.235  0.1056 -1.3131 -0.7882
 5569SOL    HW217028   1.156   4.578   2.222 -1.0960 -0.0548 -2.1020
 5570SOL     OW17029   3.995   1.406   1.472  0.3830 -0.2743  0.0667
 5570SOL    HW117030   3.918   1.365   1.521 -0.3520  1.2026  0.1932
 5570SOL    HW217031   4.033   1.340   1.407  1.6529 -2.4703  2.8374
 5571SOL     OW17032   5.165   3.109   3.231 -0.5330 -0.2791  0.5844
 5571SOL    HW117033   5.201   3.124   3.323 -0.9596 -0.2376  0.7467
 5571SOL    HW217034   5.065   3.108   3.234 -0.5540 -2.3802  0.4550
 5572SOL     OW17035   4.193   4.040   2.491 -0.1542  0.4383 -0.2499
 5572SOL    HW117036   4.187   3.948   2.451  2.2107  1.1970 -2.6227
 5572SOL    HW217037   4.277   4.047   2.544 -0.0583  1.3956 -0.5247
 5573SOL     OW17038   4.554   4.344   3.729 -0.1069 -0.4688  0.2524
 5573SOL    HW117039   4.587   4.303   3.814 -1.1204 -0.7409  0.5237
 5573SOL    HW217040   4.454   4.348   3.730 -0.1932 -1.3980 -1.3420
 5574SOL     OW17041   3.473   2.970   4.137 -0.1137  0.1950  0.1879
 5574SOL    HW117042   3.421   2.968   4.052 -0.9760  0.0893  0.7091
 5574SOL    HW217043   3.534   2.890   4.141 -2.6708 -1.8207  1.2523
 5575SOL     OW17044   2.214   1.130   2.923 -0.5473  0.1921  0.2106
 5575SOL    HW117045   2.189   1.187   2.845 -1.8268  0.3412  0.7047
 5575SOL    HW217046   2.271   1.182   2.986 -0.4373  0.4311 -0.0829
 5576SOL     OW17047   4.553   3.826   1.571  0.6785 -0.1149  0.3436
 5576SOL    HW117048   4.651   3.844   1.577  0.7741 -0.6371  0.3974
 5576SOL    HW217049   4.534   3.735   1.607  0.5490 -1.2095 -2.3066
 5577SOL     OW17050   5.519   2.643   4.581  0.2696 -0.1713 -0.5793
 5577SOL    HW117051   5.613   2.676   4.575 -0.1160  0.7705 -1.7962
 5577SOL    HW217052   5.501   2.611   4.674  2.0743 -1.2879 -0.5500
 5578SOL     OW17053   5.081   4.034   0.924  0.2581  0.0797  0.0510
 5578SOL    HW117054   5.133   3.957   0.887  1.3849 -0.3839  2.3838
 5578SOL    HW217055   5.037   4.006   1.010  0.2561  1.8835  0.6698
 5579SOL     OW17056   4.626   4.507   3.416 -0.3287 -0.2984  0.2092
 5579SOL    HW117057   4.621   4.549   3.506  0.4803 -0.1520  0.1960
 5579SOL    HW217058   4.540   4.524   3.366 -0.8092 -0.4553  0.9734
 5580SOL     OW17059   4.541   1.366   0.809 -0.5690 -0.1241 -0.7270
 5580SOL    HW117060   4.586   1.433   0.749  0.3947 -0.9111 -0.9214
 5580SOL    HW217061   4.611   1.311   0.855 -1.2306 -3.1243 -2.9550
 5581SOL     OW17062   0.445   1.654   0.699 -0.7237  0.6262  0.2748
 5581SOL    HW117063   0.515   1.584   0.686  0.3551  0.9701  3.3536
 5581SOL    HW217064   0.482   1.743   0.672 -1.0256  0.4414 -0.7878
 5582SOL     OW17065   2.965   4.701   4.372  0.2936  0.5568  0.3293
 5582SOL    HW117066   2.942   4.637   4.299  0.6348 -0.5224  1.1321
 5582SOL    HW217067   3.062   4.692   4.394  0.9911  3.1564 -1.2212
 5583SOL     OW17068   4.921   2.906   3.556 -0.1269 -0.6606  0.2238
 5583SOL    HW117069   4.921   2.832   3.623 -0.5708 -0.1102  0.8532
 5583SOL    HW217070   4.983   2.884   3.481 -0.2221 -1.6424  0.4239
 5584SOL     OW17071   1.674   3.445   2.830 -0.1298 -0.0906 -0.5124
 5584SOL    HW117072   1.766   3.453   2.869  0.4711  2.9171 -2.2553
 5584SOL    HW217073   1.606   3.465   2.901  0.5783 -1.0020  0.4608
 5585SOL     OW17074   0.637   0.784   2.582  0.4701 -0.4499  0.2073
 5585SOL    HW117075   0.643   0.884   2.584 -0.5433 -0.3741 -0.0640
 5585SOL    HW217076   0.600   0.755   2.494  0.1140 -1.0240  0.5385
 5586SOL     OW17077   1.648   0.994   2.438 -0.6222  0.6672  0.5392
 5586SOL    HW117078   1.634   0.923   2.507 -1.5423 -0.4284 -0.7167
 5586SOL    HW217079   1.746   1.014   2.430 -0.2797 -0.8786  0.5470
 5587SOL     OW17080   4.028  -0.008   1.540  0.0065  0.2614  0.0856
 5587SOL    HW117081   3.944  -0.059   1.561 -0.6237  1.2587  0.0899
 5587SOL    HW217082   4.026   0.080   1.587  0.5415  0.7606 -0.7901
 5588SOL     OW17083   1.508   2.355   4.779 -0.5075 -0.1271  0.1960
 5588SOL    HW117084   1.534   2.281   4.840 -0.6336 -0.6430 -0.3602
 5588SOL    HW217085   1.571   2.358   4.701 -0.4648  0.3928  0.2431
 5589SOL     OW17086   1.098   5.128   5.258 -0.4605  0.0774 -0.0477
 5589SOL    HW117087   1.162   5.201   5.234 -0.8668  0.8083  1.0183
 5589SOL    HW217088   1.023   5.126   5.192 -0.9696  1.3038  0.4674
 5590SOL     OW17089   0.998   0.602   1.778 -0.2783 -0.7188  0.4961
 5590SOL    HW117090   1.042   0.678   1.825 -0.3294  0.2086 -0.8884
 5590SOL    HW217091   1.068   0.543   1.736 -0.2787 -0.6091  0.3399
 5591SOL     OW17092   4.928   2.819   0.888 -0.5930  0.5421  0.0985
 5591SOL    HW117093   4.916   2.913   0.854 -0.3901 -0.1170 -1.9449
 5591SOL    HW217094   5.024   2.792   0.878 -0.8192 -0.1818 -0.1585
 5592SOL     OW17095   3.099   4.505   3.401  0.2610 -0.2031 -0.5029
 5592SOL    HW117096   3.138   4.499   3.309  0.7605  0.1472 -0.3200
 5592SOL    HW217097   3.083   4.601   3.425 -1.1918 -0.3555 -0.7623
 5593SOL     OW17098   5.356   0.005   2.607  0.5961  0.9020  0.0330
 5593SOL    HW117099   5.375   0.025   2.703  0.1639  0.7513  0.1537
 5593SOL    HW217100   5.260  -0.025   2.598  1.2222 -1.2343 -0.1196
 5594SOL     OW17101   4.122   3.458   5.101  0.0288  0.6754  0.3742
 5594SOL    HW117102   4.106   3.372   5.053 -0.6654  0.9183  0.1626
 5594SOL    HW217103   4.206   3.451   5.154 -0.9264 -0.7552  1.7880
 5595SOL     OW17104   3.162   4.749   2.437  0.6830  0.7519  0.5012
 5595SOL    HW117105   3.214   4.671   2.472 -1.4980 -0.7052  0.6652
 5595SOL    HW217106   3.091   4.774   2.503 -0.0966  1.4126 -0.5579
 5596SOL     OW17107   4.703   3.086   1.669 -0.3897  0.6964 -0.2525
 5596SOL    HW117108   4.649   3.077   1.586  1.2824 -2.2789 -1.1859
 5596SOL    HW217109   4.796   3.051   1.653 -0.0833 -0.3308  2.9036
 5597SOL     OW17110   3.770   4.761   2.494  0.5395 -0.2353 -0.0129
 5597SOL    HW117111   3.782   4.851   2.535  1.0646  1.7545 -4.0200
 5597SOL    HW217112   3.855   4.710   2.500  0.4401 -0.2645  1.7005
 5598SOL     OW17113   2.680   1.486   1.416 -0.1716  0.5778  0.0307
 5598SOL    HW117114   2.702   1.544   1.494  1.8773 -1.5969  1.1984
 5598SOL    HW217115   2.619   1.535   1.354  0.1022  3.2859  1.7486
 5599SOL     OW17116   2.034   1.175   0.037 -0.7480 -0.5929 -0.1604
 5599SOL    HW117117   2.000   1.081   0.039  0.4112 -1.2483 -3.9153
 5599SOL    HW217118   2.133   1.175   0.054 -0.5350 -0.2564 -1.2917
 5600NA      NA17119   5.392   5.438   3.297 -0.1717 -0.1091  0.6660
 5601NA      NA17120   0.212   2.038   1.951 -0.2624 -0.2472 -0.1582
 5602NA      NA17121   3.601   2.973   2.282  0.2241 -0.1852  0.5724
 5603NA      NA17122   3.100   2.363   3.524 -0.0056  0.0903 -0.1384
 5604NA      NA17123   1.490   0.265   3.939  0.9646  0.0126 -0.2481
 5605NA      NA17124   5.040   3.190   5.128 -0.2322  0.2023 -0.3318
 5606NA      NA17125   4.055   3.158   4.229  0.3962  0.7363  0.3870
 5607NA      NA17126   4.750   0.599   5.022  0.1647 -0.1184  0.0991
 5608NA      NA17127   2.703   0.355   2.053 -0.0512  0.3223  0.2585
 5609NA      NA17128   4.431   1.453   2.844  0.3449  0.0654  0.4084
 5610NA      NA17129   0.190   3.319   0.112  0.2576  0.2637  0.1525
 5611NA      NA17130   3.449   5.015   0.853 -0.0582  0.6150  0.2036
 5612NA      NA17131   2.284   1.336   1.518  0.1054  0.0082  0.1618
 5613NA      NA17132   5.196   0.550   2.244  0.5568  0.3344 -0.2806
 5614NA      NA17133   3.391   5.273   3.422  0.0895  0.5358  0.2056
 5615NA      NA17134   1.266   1.536   4.446  0.1273 -0.2896 -0.4135
 5616CL      CL17135   1.202   2.022   1.059 -0.0947 -0.1309  0.5272
 5617CL      CL17136   0.012   3.646   3.945  0.3468  0.2072  0.0402
 5618CL      CL17137   4.542   1.322   3.855 -0.0478 -0.4589  0.0366
 5619CL      CL17138   5.290   0.925   0.694  0.0024  0.4020  0.1857
 5620CL      CL17139   4.754   1.195   2.644 -0.4251 -0.0836  0.0970
 5621CL      CL17140   4.857   0.357   4.872  0.0521 -0.1437  0.0604
 5622CL      CL17141   0.538   1.963   0.629  0.4076 -0.1082  0.1120
 5623CL      CL17142   4.909   3.955   1.236 -0.0314 -0.3977  0.0032
 5624CL      CL17143   0.555   1.475   2.766 -0.3228  0.1084  0.2662
 5625CL      CL17144   0.436   4.849   4.500  0.2322 -0.3729 -0.1316
 5626CL      CL17145   3.550   4.656   3.193 -0.1445  0.4512 -0.1067
 5627CL      CL17146   1.868   3.464   2.399  0.0686 -0.2199 -0.3537
 5628CL      CL17147   0.008   0.311   3.061  0.1283  0.0906 -0.4368
 5629CL      CL17148   4.538   2.132   4.455 -0.0640 -0.2298 -0.2122
 5630CL      CL17149   0.740   0.386   4.969  0.2935  0.6099 -0.2415
 5631CL      CL17150   2.208   5.410   2.903  0.0392 -0.4352  0.0638
   5.54536   5.54536   5.54536
