Protein in water
17150
    1LEU      N    1   3.268   3.353   1.395  0.0518 -0.2244 -0.3518
    1LEU     H1    2   3.245   3.427   1.330  1.0831  0.2100 -0.2460
    1LEU     H2    3   3.355   3.315   1.363  1.1982  1.4067  0.6581
    1LEU     H3    4   3.195   3.283   1.400  0.2515 -0.4029  0.2030
    1LEU     CA    5   3.301   3.404   1.529  0.3464 -0.2361  0.0974
    1LEU     HA    6   3.369   3.330   1.573  0.1688 -0.2776  0.3060
    1LEU     CB    7   3.367   3.541   1.516  0.2556  0.1664 -0.2000
    1LEU    HB1    8   3.323   3.602   1.595  0.5004  1.4470 -1.0206
    1LEU    HB2    9   3.331   3.587   1.424 -0.3479  0.5794  0.2354
    1LEU     CG   10   3.524   3.529   1.524  0.3036 -0.2543  0.4468
    1LEU     HG   11   3.551   3.448   1.455 -1.1088  0.1022 -0.5820
    1LEU    CD1   12   3.585   3.658   1.478  0.0160  0.3503 -0.8701
    1LEU   HD11   13   3.556   3.747   1.534  0.6623 -0.8491  1.4808
    1LEU   HD12   14   3.694   3.653   1.483  0.1571  2.9000  0.3810
    1LEU   HD13   15   3.551   3.677   1.376  0.2540  0.7092 -0.8857
    1LEU    CD2   16   3.552   3.507   1.672 -0.6380 -0.1609 -0.1710
    1LEU   HD21   17   3.516   3.411   1.709 -1.2384 -0.5833 -1.7915
    1LEU   HD22   18   3.661   3.500   1.674 -0.5127  1.0457 -1.5241
    1LEU   HD23   19   3.517   3.591   1.733 -1.0350 -1.9075  2.1720
    1LEU      C   20   3.183   3.406   1.625  0.4815 -0.7387 -0.0351
    1LEU      O   21   3.199   3.355   1.743 -0.3483 -0.2660  0.5211
    2ILE      N   22   3.070   3.460   1.581  0.3871  0.6359 -0.4857
    2ILE      H   23   3.059   3.499   1.488 -0.6440  3.4263  0.6823
    2ILE     CA   24   2.958   3.487   1.670 -0.1668  0.3858 -0.4013
    2ILE     HA   25   3.004   3.542   1.752 -1.2973  0.8897 -0.0769
    2ILE     CB   26   2.853   3.581   1.604  0.4259  0.3049  0.2498
    2ILE     HB   27   2.834   3.549   1.501 -2.9707  0.6613  0.6600
    2ILE    CG2   28   2.714   3.567   1.664  0.3583 -0.3548 -0.2248
    2ILE   HG21   29   2.709   3.565   1.773 -2.5426 -2.2861 -0.2810
    2ILE   HG22   30   2.643   3.633   1.615 -0.6574 -2.1200 -1.2250
    2ILE   HG23   31   2.677   3.468   1.635 -0.9727  0.1375 -0.2296
    2ILE    CG1   32   2.903   3.727   1.620 -0.7291 -0.0264 -0.0465
    2ILE   HG11   33   3.008   3.734   1.595 -0.7025 -0.2336  0.0067
    2ILE   HG12   34   2.891   3.759   1.724  0.4763  0.3225 -0.0011
    2ILE     CD   35   2.831   3.828   1.538  0.1064 -0.4022  0.0167
    2ILE    HD1   36   2.891   3.915   1.509 -1.0143 -0.1063 -1.5808
    2ILE    HD2   37   2.802   3.786   1.442 -0.7665  0.4011 -0.0872
    2ILE    HD3   38   2.740   3.864   1.586  0.1410 -1.3847  0.8517
    2ILE      C   39   2.899   3.351   1.722  0.0194 -0.2244 -0.5241
    2ILE      O   40   2.863   3.332   1.842 -0.2977  0.6050  0.0935
    3LEU      N   41   2.896   3.257   1.640 -0.2560  0.7037 -0.0503
    3LEU      H   42   2.923   3.275   1.545  1.4524 -1.2021  0.0116
    3LEU     CA   43   2.857   3.117   1.677  0.3189  0.0259 -0.4625
    3LEU     HA   44   2.769   3.122   1.740  0.7131  2.0395 -0.0063
    3LEU     CB   45   2.829   3.035   1.554  0.4565  0.2248 -0.4865
    3LEU    HB1   46   2.814   2.934   1.592 -0.2006  0.7623  0.7523
    3LEU    HB2   47   2.909   3.036   1.481  0.8360  4.1807 -0.2246
    3LEU     CG   48   2.694   3.074   1.489  0.1487 -0.7327 -0.1128
    3LEU     HG   49   2.709   3.160   1.423  1.7567 -0.5852  0.3843
    3LEU    CD1   50   2.671   2.960   1.388 -0.2305  0.4169 -0.5873
    3LEU   HD11   51   2.675   2.859   1.430 -0.1708  0.2786 -0.9207
    3LEU   HD12   52   2.573   2.970   1.342 -0.6242  0.6960  0.2895
    3LEU   HD13   53   2.743   2.967   1.307  0.9692  0.0445  0.4156
    3LEU    CD2   54   2.573   3.083   1.585 -0.1229  0.2051 -0.3463
    3LEU   HD21   55   2.474   3.082   1.540  0.0455  1.7157 -0.7881
    3LEU   HD22   56   2.578   2.998   1.654 -1.4636  0.3532 -0.0334
    3LEU   HD23   57   2.572   3.168   1.654 -1.0803 -1.5310  1.9122
    3LEU      C   58   2.953   3.041   1.769 -0.1689 -0.2914  0.1683
    3LEU      O   59   2.910   2.973   1.866  0.1303 -0.7855  0.2626
    4LEU      N   60   3.083   3.053   1.748  0.0176  0.4125  0.3147
    4LEU      H   61   3.111   3.110   1.670 -1.2663  0.6753  0.0216
    4LEU     CA   62   3.179   3.024   1.851  0.3511  0.1119 -0.6538
    4LEU     HA   63   3.173   2.916   1.862 -0.8181  0.3389  1.5146
    4LEU     CB   64   3.316   3.063   1.806 -0.3692 -0.1119 -0.0244
    4LEU    HB1   65   3.346   3.165   1.829  1.6885 -0.8067  0.5604
    4LEU    HB2   66   3.312   3.043   1.699  1.7837  1.5670 -0.4654
    4LEU     CG   67   3.433   2.970   1.861  0.5212  0.2952 -0.0276
    4LEU     HG   68   3.406   2.866   1.844 -0.4597  0.4911  0.2186
    4LEU    CD1   69   3.551   3.006   1.765 -0.1570 -0.9222 -0.7547
    4LEU   HD11   70   3.520   2.996   1.661  2.5161  1.7586 -1.9335
    4LEU   HD12   71   3.578   3.111   1.772  2.0138 -1.2595 -2.9721
    4LEU   HD13   72   3.647   2.961   1.789 -0.4642 -1.9521 -1.3688
    4LEU    CD2   73   3.487   2.992   2.000 -0.3252  0.0923 -0.1914
    4LEU   HD21   74   3.410   2.973   2.074 -0.2699 -0.5014 -0.2823
    4LEU   HD22   75   3.558   2.913   2.022  0.3860  0.7227 -0.1580
    4LEU   HD23   76   3.536   3.089   2.016 -1.7456  0.4546  2.4704
    4LEU      C   77   3.146   3.080   1.993  0.7041  0.1073 -0.5613
    4LEU      O   78   3.153   3.006   2.089  0.5771  0.5117 -0.1171
    5VAL      N   79   3.114   3.211   2.000  0.0369  0.1717 -0.2931
    5VAL      H   80   3.130   3.267   1.918  1.8544  0.6332  0.3164
    5VAL     CA   81   3.098   3.275   2.131  0.1176  0.3401 -0.0321
    5VAL     HA   82   3.175   3.229   2.194 -1.8669 -2.3795  0.6025
    5VAL     CB   83   3.135   3.425   2.120  0.3233  0.0875  0.3601
    5VAL     HB   84   3.071   3.477   2.049 -0.4726  1.0931  1.7604
    5VAL    CG1   85   3.118   3.502   2.253  0.4726  0.1821  0.0097
    5VAL   HG11   86   3.030   3.468   2.308  1.1413  0.4669  1.2951
    5VAL   HG12   87   3.210   3.490   2.311 -0.0683  1.6626  1.2411
    5VAL   HG13   88   3.108   3.606   2.223 -1.9493 -0.7009 -2.6666
    5VAL    CG2   89   3.280   3.447   2.076  0.5256 -0.2337 -0.2629
    5VAL   HG21   90   3.297   3.555   2.071 -0.8609  0.2697  3.0833
    5VAL   HG22   91   3.340   3.402   2.155 -2.8678  0.1847  2.8268
    5VAL   HG23   92   3.298   3.397   1.981  1.5472 -0.5472  0.0843
    5VAL      C   93   2.963   3.233   2.197  0.2664 -0.3978  0.1950
    5VAL      O   94   2.973   3.198   2.309  0.4851  0.4322 -0.6031
    6LEU      N   95   2.856   3.230   2.123  0.0866  0.5246 -0.3216
    6LEU      H   96   2.865   3.280   2.035  1.6985  0.8213 -0.0313
    6LEU     CA   97   2.726   3.185   2.164  0.4715 -0.3816 -0.3125
    6LEU     HA   98   2.696   3.253   2.244  0.5080  0.1497 -0.7431
    6LEU     CB   99   2.632   3.198   2.048 -0.2788  0.2276  0.3646
    6LEU    HB1  100   2.622   3.105   1.993 -0.7621  1.3836 -1.5968
    6LEU    HB2  101   2.667   3.270   1.974 -0.9302 -0.9676 -1.1474
    6LEU     CG  102   2.483   3.231   2.083 -0.3664 -0.3929  0.3662
    6LEU     HG  103   2.476   3.294   2.172  3.2458 -1.1388  1.3266
    6LEU    CD1  104   2.418   3.312   1.969 -0.0343 -0.0672 -0.2736
    6LEU   HD11  105   2.421   3.255   1.876  0.8323  0.6757 -0.7155
    6LEU   HD12  106   2.321   3.350   2.001 -0.7562 -2.7137  1.0168
    6LEU   HD13  107   2.479   3.395   1.934 -2.8649  1.6066 -1.5355
    6LEU    CD2  108   2.400   3.107   2.109 -0.3669 -0.2028  0.1519
    6LEU   HD21  109   2.397   3.041   2.023  0.1248  0.1008 -0.1036
    6LEU   HD22  110   2.447   3.059   2.195  0.9756 -0.2448 -0.5715
    6LEU   HD23  111   2.297   3.134   2.131 -0.0600 -1.4670  3.7718
    6LEU      C  112   2.730   3.043   2.209  0.5553  0.2223 -0.5738
    6LEU      O  113   2.670   3.011   2.314 -0.1766  0.0311  0.1429
    7VAL      N  114   2.800   2.948   2.142 -0.5342 -0.1229 -0.8708
    7VAL      H  115   2.840   2.983   2.056  0.5750  0.9643  0.0458
    7VAL     CA  116   2.814   2.805   2.186 -0.3302  0.2655  0.5665
    7VAL     HA  117   2.718   2.771   2.226 -0.1234 -0.8715  0.1221
    7VAL     CB  118   2.834   2.716   2.064  0.0637 -0.2682  0.6027
    7VAL     HB  119   2.925   2.744   2.011 -1.0758 -0.5643 -1.6532
    7VAL    CG1  120   2.830   2.569   2.092 -0.7815  0.2156 -0.7984
    7VAL   HG11  121   2.873   2.505   2.015  0.1106 -0.4360  0.2347
    7VAL   HG12  122   2.903   2.553   2.171 -1.6318 -1.5646 -0.3402
    7VAL   HG13  123   2.739   2.518   2.124  0.2387 -1.1942 -0.0921
    7VAL    CG2  124   2.721   2.732   1.957  0.0943  1.6147  0.0622
    7VAL   HG21  125   2.625   2.709   2.002 -0.2327  0.2388 -1.2733
    7VAL   HG22  126   2.721   2.837   1.925  1.0787  1.4727 -0.4658
    7VAL   HG23  127   2.746   2.667   1.873  2.4239  0.7510  1.3252
    7VAL      C  128   2.910   2.790   2.300 -0.3145 -0.0608  0.5304
    7VAL      O  129   2.879   2.724   2.391  0.5877  0.6586 -0.1134
    8LEU      N  130   3.020   2.869   2.305  0.4456  0.0258 -0.0021
    8LEU      H  131   3.030   2.938   2.231 -0.2565  2.0188  1.6631
    8LEU     CA  132   3.104   2.864   2.425 -0.4616 -0.1829 -0.2395
    8LEU     HA  133   3.129   2.758   2.430 -1.5863 -0.6861 -3.2195
    8LEU     CB  134   3.234   2.949   2.392  0.4143  0.6638 -0.4888
    8LEU    HB1  135   3.194   3.047   2.365 -0.7766  0.4829  0.5051
    8LEU    HB2  136   3.288   2.896   2.314 -0.4590  0.7568 -1.1737
    8LEU     CG  137   3.337   2.985   2.500  0.1003 -0.4939  0.4297
    8LEU     HG  138   3.357   2.890   2.549 -2.2307 -1.4340 -0.3089
    8LEU    CD1  139   3.466   3.050   2.444 -0.2998  0.2368  0.5676
    8LEU   HD11  140   3.446   3.133   2.376  0.5117  0.6272  0.7966
    8LEU   HD12  141   3.527   3.096   2.521  1.2015 -1.6795  0.5933
    8LEU   HD13  142   3.519   2.980   2.378 -0.9557  1.0140 -0.8299
    8LEU    CD2  143   3.274   3.083   2.608 -0.3294  0.5998  0.9137
    8LEU   HD21  144   3.221   3.028   2.686  2.5561 -1.0229  1.8897
    8LEU   HD22  145   3.355   3.120   2.670  0.8077 -0.4245  0.0960
    8LEU   HD23  146   3.226   3.171   2.565 -1.1731 -0.6571 -0.8623
    8LEU      C  147   3.029   2.904   2.554  0.0087  0.0308 -0.0422
    8LEU      O  148   3.027   2.828   2.648  0.3336 -0.0175 -0.2844
    9ILE      N  149   2.942   3.007   2.546  0.4242  0.3672  0.3970
    9ILE      H  150   2.946   3.058   2.459  0.2959 -0.9302 -0.3884
    9ILE     CA  151   2.844   3.048   2.657  0.1176  0.1923  0.3977
    9ILE     HA  152   2.904   3.066   2.746 -1.1719  0.2121  1.3057
    9ILE     CB  153   2.787   3.183   2.617  0.5476 -0.1216  0.2252
    9ILE     HB  154   2.738   3.177   2.520  0.1877  2.2411  0.2017
    9ILE    CG2  155   2.689   3.240   2.723 -0.1845 -0.1347  0.6222
    9ILE   HG21  156   2.756   3.261   2.807  0.4237  2.4411 -0.4088
    9ILE   HG22  157   2.636   3.328   2.686 -0.9422  0.1497  2.2814
    9ILE   HG23  158   2.616   3.160   2.733  1.4687 -1.5437  2.1459
    9ILE    CG1  159   2.906   3.283   2.593  0.0868 -0.0396 -0.8763
    9ILE   HG11  160   2.985   3.245   2.529 -0.3302 -2.7920  0.1231
    9ILE   HG12  161   2.945   3.317   2.689  1.2647 -1.1285 -0.9418
    9ILE     CD  162   2.858   3.420   2.542  0.9864  0.1409 -0.1529
    9ILE    HD1  163   2.826   3.413   2.438  1.0840 -1.8779 -0.0816
    9ILE    HD2  164   2.783   3.457   2.613  1.0833 -0.6958  0.4012
    9ILE    HD3  165   2.941   3.491   2.540  0.9854  0.2316  1.3055
    9ILE      C  166   2.736   2.942   2.688 -0.5375  0.0490 -1.3516
    9ILE      O  167   2.706   2.915   2.804 -0.3636  0.2212 -0.1509
   10VAL      N  168   2.678   2.874   2.588 -0.1385 -0.2249 -0.0597
   10VAL      H  169   2.692   2.898   2.490 -1.5263  0.0401 -0.2083
   10VAL     CA  170   2.594   2.755   2.612 -0.7436  0.6943  0.7585
   10VAL     HA  171   2.511   2.792   2.673 -0.4370 -0.4022  1.8943
   10VAL     CB  172   2.533   2.697   2.482 -0.7931 -0.5708 -0.2032
   10VAL     HB  173   2.615   2.696   2.410  0.1089  0.3943  0.7876
   10VAL    CG1  174   2.474   2.559   2.497  0.9667 -0.1140  0.0983
   10VAL   HG11  175   2.399   2.536   2.422 -1.3002  0.0347  2.2116
   10VAL   HG12  176   2.549   2.479   2.495 -0.5830 -1.6970  1.6890
   10VAL   HG13  177   2.424   2.552   2.594  1.6244  0.1710  0.4745
   10VAL    CG2  178   2.431   2.794   2.415  0.1533  0.4925 -0.9686
   10VAL   HG21  179   2.487   2.881   2.383  2.6357  0.1228  1.8983
   10VAL   HG22  180   2.373   2.746   2.336  1.0474 -1.3729 -0.5426
   10VAL   HG23  181   2.371   2.827   2.500  3.1197  3.6817  0.1088
   10VAL      C  182   2.648   2.645   2.704  0.5765 -0.2511  0.8460
   10VAL      O  183   2.593   2.623   2.811 -0.7758  0.2227 -0.2011
   11VAL      N  184   2.764   2.595   2.669 -0.1492  0.5357 -0.1726
   11VAL      H  185   2.812   2.644   2.595 -1.8481  1.5376 -0.6629
   11VAL     CA  186   2.839   2.495   2.745 -0.3607 -0.0492 -0.5114
   11VAL     HA  187   2.779   2.404   2.751 -1.5178  0.8167  2.3633
   11VAL     CB  188   2.963   2.448   2.664  0.6276 -0.0733  0.0871
   11VAL     HB  189   3.018   2.540   2.643 -1.0267  0.4616 -2.3188
   11VAL    CG1  190   3.057   2.355   2.740  0.6645 -0.1087 -0.2317
   11VAL   HG11  191   3.145   2.328   2.682  1.5652 -2.5636  2.0734
   11VAL   HG12  192   3.093   2.409   2.828 -2.2664 -0.2812  1.2070
   11VAL   HG13  193   3.000   2.267   2.769  0.0149 -1.3597 -4.6150
   11VAL    CG2  194   2.917   2.391   2.523  0.3432 -0.1655  0.4666
   11VAL   HG21  195   2.883   2.288   2.535  2.6019 -1.1863 -1.2400
   11VAL   HG22  196   2.845   2.455   2.472 -1.1699 -1.4976  0.8151
   11VAL   HG23  197   3.004   2.382   2.458 -1.1465 -0.5155 -1.5842
   11VAL      C  198   2.879   2.549   2.882  0.5638 -0.0406 -0.7394
   11VAL      O  199   2.865   2.474   2.979 -0.5010 -0.7497  0.2301
   12VAL      N  200   2.921   2.678   2.898 -0.1614 -0.0005  0.3643
   12VAL      H  201   2.922   2.732   2.813 -1.6232  0.4117  0.5858
   12VAL     CA  202   2.942   2.741   3.026  0.8252  0.6280  0.0575
   12VAL     HA  203   3.018   2.688   3.083  0.6456  1.8286  1.4792
   12VAL     CB  204   2.997   2.889   3.012 -0.4468  1.3419 -0.0488
   12VAL     HB  205   2.927   2.934   2.942 -0.9969 -0.5488 -0.7804
   12VAL    CG1  206   2.996   2.975   3.136  0.1057 -0.5909  0.7144
   12VAL   HG11  207   3.056   2.931   3.215 -0.0687 -2.4459 -0.1328
   12VAL   HG12  208   3.029   3.076   3.110 -0.3950 -0.4556  0.5968
   12VAL   HG13  209   2.896   2.990   3.176 -0.2304  0.4082 -0.4035
   12VAL    CG2  210   3.139   2.897   2.957 -0.1421 -0.4832  0.4462
   12VAL   HG21  211   3.126   2.834   2.869 -2.2156  0.2170  0.1936
   12VAL   HG22  212   3.167   3.001   2.943  0.5984 -0.6432  0.6972
   12VAL   HG23  213   3.206   2.850   3.029 -0.4751 -0.4215  0.8006
   12VAL      C  214   2.822   2.746   3.112  0.6704  0.9426 -0.4304
   12VAL      O  215   2.821   2.697   3.225 -0.0290 -0.5745  0.0266
   13LEU      N  216   2.704   2.790   3.062  0.2167 -0.5053 -0.3598
   13LEU      H  217   2.703   2.809   2.963  1.2456 -1.3250 -0.5323
   13LEU     CA  218   2.573   2.801   3.137 -0.8612  0.1799 -0.3200
   13LEU     HA  219   2.596   2.852   3.230 -0.7816 -0.7192  0.1669
   13LEU     CB  220   2.470   2.888   3.061  0.0054 -0.6629 -0.4363
   13LEU    HB1  221   2.369   2.866   3.096  1.3947 -2.1024  3.2239
   13LEU    HB2  222   2.469   2.858   2.956 -1.5865  1.4238 -1.0899
   13LEU     CG  223   2.504   3.038   3.074  0.2387  0.1251  0.0024
   13LEU     HG  224   2.611   3.057   3.064  0.6275 -2.1606 -0.6505
   13LEU    CD1  225   2.423   3.119   2.965 -0.0490  0.0548 -0.1658
   13LEU   HD11  226   2.457   3.085   2.867  0.4756 -1.3601  0.4692
   13LEU   HD12  227   2.315   3.103   2.965 -0.2745 -0.6916 -5.9234
   13LEU   HD13  228   2.452   3.223   2.974  0.4821 -0.0855 -0.2112
   13LEU    CD2  229   2.455   3.096   3.212  0.1440  0.7899  0.4747
   13LEU   HD21  230   2.359   3.046   3.226  0.8569 -1.1242 -0.9345
   13LEU   HD22  231   2.533   3.076   3.286  0.7434 -0.8271 -0.5330
   13LEU   HD23  232   2.439   3.204   3.206 -4.7218  0.3244  1.0799
   13LEU      C  233   2.518   2.664   3.168  0.0584  0.0146 -0.9073
   13LEU      O  234   2.450   2.650   3.268  0.3007 -0.1240 -0.3513
   14VAL      N  235   2.539   2.565   3.078  0.4182 -0.1655  0.1309
   14VAL      H  236   2.594   2.585   2.996 -0.1919 -0.0193 -0.2549
   14VAL     CA  237   2.510   2.420   3.106 -0.8893 -0.1294 -0.2280
   14VAL     HA  238   2.409   2.408   3.146 -0.0508 -0.0570  2.0660
   14VAL     CB  239   2.495   2.339   2.975 -0.1833 -0.3885 -0.0640
   14VAL     HB  240   2.584   2.361   2.917  1.2932 -1.7057  1.5928
   14VAL    CG1  241   2.474   2.182   2.990  0.5496 -0.4183 -0.0460
   14VAL   HG11  242   2.474   2.149   2.886  1.5350 -0.0558 -0.1747
   14VAL   HG12  243   2.551   2.125   3.042  1.6495  0.6079 -0.5165
   14VAL   HG13  244   2.374   2.170   3.031 -0.1921  0.3407 -1.5515
   14VAL    CG2  245   2.379   2.384   2.892 -0.8922  0.4755 -0.5004
   14VAL   HG21  246   2.281   2.363   2.935 -0.3551 -0.0775  0.4807
   14VAL   HG22  247   2.384   2.492   2.872 -1.2321  0.0990 -3.0695
   14VAL   HG23  248   2.388   2.343   2.791 -0.2732  1.2729 -0.7826
   14VAL      C  249   2.599   2.351   3.213 -0.4846  0.3511 -0.7719
   14VAL      O  250   2.543   2.293   3.302 -0.1706  0.1982 -0.1100
   15LEU      N  251   2.729   2.384   3.212 -0.0853  0.0981 -0.6375
   15LEU      H  252   2.772   2.432   3.134  0.0247  0.3809 -0.4017
   15LEU     CA  253   2.812   2.330   3.313 -0.2788 -0.3067  0.6176
   15LEU     HA  254   2.798   2.223   3.322 -3.0945  0.0478  1.4101
   15LEU     CB  255   2.958   2.355   3.274  0.7117  0.3001 -0.2770
   15LEU    HB1  256   3.022   2.375   3.359  1.2984  1.1386 -0.8961
   15LEU    HB2  257   2.973   2.445   3.214  0.6783  0.4834 -0.0078
   15LEU     CG  258   3.012   2.237   3.196 -0.0022  0.7065  0.1157
   15LEU     HG  259   2.948   2.213   3.111 -1.5988 -0.7282  1.6462
   15LEU    CD1  260   3.152   2.278   3.151 -0.5987 -0.1325  0.1239
   15LEU   HD11  261   3.190   2.207   3.077  1.1531  0.3930  0.4629
   15LEU   HD12  262   3.155   2.370   3.093  2.8359  0.1659  0.5166
   15LEU   HD13  263   3.219   2.293   3.236  0.0266  0.8908 -0.5359
   15LEU    CD2  264   3.037   2.105   3.268 -0.1462 -1.0759  0.4097
   15LEU   HD21  265   3.086   2.125   3.363 -0.2602  0.1666  0.2262
   15LEU   HD22  266   2.938   2.065   3.291 -0.5618 -0.3807 -0.1364
   15LEU   HD23  267   3.089   2.033   3.204 -0.2141 -0.1531 -0.7157
   15LEU      C  268   2.794   2.390   3.458  0.2461  0.3103 -0.2455
   15LEU      O  269   2.803   2.312   3.549  0.1085  0.6126 -0.8731
   16LEU      N  270   2.760   2.516   3.470 -0.2939 -0.1244  0.0561
   16LEU      H  271   2.768   2.563   3.381  0.3543 -1.1988 -0.4728
   16LEU     CA  272   2.719   2.592   3.586 -0.1912  0.0833 -0.8157
   16LEU     HA  273   2.794   2.577   3.663 -1.4555 -1.2361  0.2343
   16LEU     CB  274   2.699   2.745   3.552  0.2947  0.6896  0.2053
   16LEU    HB1  275   2.595   2.775   3.551  0.5190  1.4976 -0.2461
   16LEU    HB2  276   2.741   2.753   3.452  2.5343  0.6280  1.0757
   16LEU     CG  277   2.781   2.834   3.648  0.6155 -0.4224  0.1421
   16LEU     HG  278   2.877   2.792   3.678  1.0535 -1.2387 -2.1932
   16LEU    CD1  279   2.798   2.972   3.585 -0.2938  0.8239  0.5369
   16LEU   HD11  280   2.835   3.030   3.669 -0.3075  0.8866  0.4988
   16LEU   HD12  281   2.865   2.969   3.500  0.1143 -2.4910  0.8066
   16LEU   HD13  282   2.701   3.011   3.557 -1.3990 -0.5936  2.1332
   16LEU    CD2  283   2.692   2.860   3.774  0.1109  0.1057 -0.0842
   16LEU   HD21  284   2.594   2.897   3.744 -0.5897 -2.4917 -1.2904
   16LEU   HD22  285   2.675   2.765   3.825 -2.9363  0.8716  0.4793
   16LEU   HD23  286   2.736   2.921   3.853 -0.7246 -1.6388  1.8531
   16LEU      C  287   2.587   2.535   3.643 -0.4023  0.0109  0.4362
   16LEU      O  288   2.566   2.520   3.765 -0.3754 -0.1419 -0.7929
   17LEU      N  289   2.496   2.498   3.558  0.0225 -0.2922  0.8095
   17LEU      H  290   2.518   2.517   3.461  1.5955 -1.8724  0.8145
   17LEU     CA  291   2.367   2.443   3.595 -0.5870  0.5672  0.0661
   17LEU     HA  292   2.329   2.506   3.676  0.3401  1.5804 -0.2543
   17LEU     CB  293   2.271   2.453   3.470 -0.2833  0.3247 -0.4548
   17LEU    HB1  294   2.323   2.401   3.390  0.6316  1.8312 -0.8742
   17LEU    HB2  295   2.262   2.559   3.450 -1.7840  0.7741  2.1157
   17LEU     CG  296   2.127   2.405   3.498 -0.1308 -0.4075  0.1832
   17LEU     HG  297   2.109   2.442   3.599  2.2643 -2.4973  1.4792
   17LEU    CD1  298   2.030   2.467   3.399 -0.1547  0.1250 -0.2138
   17LEU   HD11  299   2.029   2.415   3.303  1.7422  0.5703 -0.5139
   17LEU   HD12  300   1.931   2.457   3.444  0.8152  0.6847  2.1889
   17LEU   HD13  301   2.050   2.573   3.384  1.1406 -0.3687 -2.4976
   17LEU    CD2  302   2.096   2.259   3.494  0.2075 -0.6444  0.5382
   17LEU   HD21  303   2.125   2.211   3.401  0.7359  1.5985 -0.5308
   17LEU   HD22  304   2.126   2.209   3.586  1.5796 -1.4896 -0.3194
   17LEU   HD23  305   1.988   2.251   3.500 -0.2778  3.8796  1.6328
   17LEU      C  306   2.391   2.301   3.648  0.0361 -0.3065  0.1940
   17LEU      O  307   2.355   2.272   3.762 -0.3050  0.7106  0.3616
   18LEU      N  308   2.470   2.222   3.576 -0.6856 -0.0060  0.0401
   18LEU      H  309   2.486   2.248   3.480 -1.2667 -0.7320 -0.2693
   18LEU     CA  310   2.519   2.084   3.614 -0.1898  0.6252 -0.3782
   18LEU     HA  311   2.429   2.028   3.641 -0.1052  0.1990 -0.9629
   18LEU     CB  312   2.598   2.018   3.499  0.4360 -0.4222  0.7477
   18LEU    HB1  313   2.656   1.928   3.521  3.7880  0.6772 -2.5644
   18LEU    HB2  314   2.661   2.088   3.445  0.7497 -1.2648  0.0074
   18LEU     CG  315   2.499   1.969   3.382  0.2078  0.3495 -0.6334
   18LEU     HG  316   2.446   2.058   3.348  0.8262  0.8110 -0.3963
   18LEU    CD1  317   2.588   1.921   3.276 -0.6310 -0.7343  0.2178
   18LEU   HD11  318   2.529   1.912   3.185 -1.6702  2.1285  0.4822
   18LEU   HD12  319   2.661   1.999   3.253 -0.1457 -1.0830  0.5708
   18LEU   HD13  320   2.649   1.835   3.304  2.9457  1.6719  0.4686
   18LEU    CD2  321   2.405   1.860   3.411 -0.1760 -0.0333 -0.3187
   18LEU   HD21  322   2.363   1.817   3.320 -1.8246 -1.7877  1.1674
   18LEU   HD22  323   2.453   1.778   3.464  0.1786  1.0308  1.0643
   18LEU   HD23  324   2.330   1.892   3.484 -0.5200  2.4501 -1.6478
   18LEU      C  325   2.605   2.087   3.742  0.6484 -0.7230 -0.7254
   18LEU      O  326   2.615   1.982   3.808 -0.4874  0.3276  0.1131
   19LEU      N  327   2.669   2.200   3.770 -0.0697 -0.0948 -0.4706
   19LEU      H  328   2.688   2.264   3.694 -0.7815  2.3774  1.3102
   19LEU     CA  329   2.744   2.213   3.894 -0.2315 -0.5267 -0.5606
   19LEU     HA  330   2.790   2.116   3.914  0.3325  0.2144  2.2025
   19LEU     CB  331   2.859   2.311   3.866 -0.1634 -0.1015 -0.4687
   19LEU    HB1  332   2.825   2.412   3.845  0.6087 -0.2089 -2.5084
   19LEU    HB2  333   2.900   2.282   3.769  1.2504  2.0304 -0.5793
   19LEU     CG  334   2.968   2.320   3.972 -0.0027  0.3461  0.3170
   19LEU     HG  335   2.963   2.230   4.034  1.6383  0.8452  1.2264
   19LEU    CD1  336   3.119   2.335   3.940  0.6905 -0.1773 -0.1876
   19LEU   HD11  337   3.143   2.431   3.894 -3.6358  2.0828  1.5751
   19LEU   HD12  338   3.177   2.323   4.031 -0.0344 -1.7967  0.0915
   19LEU   HD13  339   3.143   2.256   3.869 -1.5893 -2.4524  1.3952
   19LEU    CD2  340   2.949   2.437   4.056 -0.0052 -0.4319 -0.2320
   19LEU   HD21  341   2.954   2.520   3.986 -1.0527 -0.4638 -0.3565
   19LEU   HD22  342   2.851   2.438   4.104  0.0751  2.2213  0.0137
   19LEU   HD23  343   3.021   2.447   4.138  0.6212 -3.3362 -0.3314
   19LEU      C  344   2.662   2.245   4.020  0.7856  1.0279  0.4681
   19LEU      O  345   2.708   2.222   4.128  0.0530  0.2898 -0.0875
   20ILE      N  346   2.540   2.302   4.010 -0.2461 -0.6952  1.2992
   20ILE      H  347   2.511   2.338   3.920 -0.1419  1.6930  2.1538
   20ILE     CA  348   2.459   2.335   4.123 -0.4507 -0.7240 -0.6528
   20ILE     HA  349   2.523   2.356   4.209 -0.8399 -0.7286 -0.3560
   20ILE     CB  350   2.385   2.470   4.101  0.0110 -0.4612  0.3217
   20ILE     HB  351   2.328   2.460   4.008  1.4887 -1.0817 -0.5411
   20ILE    CG2  352   2.283   2.492   4.209 -0.2233  0.4597 -0.1571
   20ILE   HG21  353   2.246   2.595   4.205 -1.2696  0.3468  3.0864
   20ILE   HG22  354   2.197   2.426   4.201  0.3364 -0.3527  0.4105
   20ILE   HG23  355   2.332   2.474   4.305  0.5623  1.3949 -0.3636
   20ILE    CG1  356   2.482   2.597   4.102 -0.2524 -0.3702  0.1019
   20ILE   HG11  357   2.568   2.573   4.041 -0.6045 -0.5972 -0.3115
   20ILE   HG12  358   2.522   2.610   4.203  1.8116  0.4088 -0.7841
   20ILE     CD  359   2.420   2.726   4.047  0.0532 -0.2651 -0.5367
   20ILE    HD1  360   2.311   2.729   4.048  0.0030  0.3675  2.7351
   20ILE    HD2  361   2.459   2.811   4.102 -0.5810 -0.6365  0.5043
   20ILE    HD3  362   2.444   2.735   3.941 -2.4449 -0.9681 -1.2342
   20ILE      C  363   2.367   2.220   4.157  0.3280 -0.0035  0.4181
   20ILE      O  364   2.327   2.213   4.274 -0.4354  0.1354 -0.0688
   21LEU      N  365   2.334   2.131   4.061 -0.7794 -0.6226 -0.3848
   21LEU      H  366   2.361   2.150   3.966 -1.0724 -0.6647 -0.4786
   21LEU     CA  367   2.246   2.021   4.092  0.2138  0.2670 -0.1599
   21LEU     HA  368   2.161   2.069   4.140  0.4581  0.9837 -0.4368
   21LEU     CB  369   2.200   1.959   3.962 -0.7854 -0.3286 -0.9617
   21LEU    HB1  370   2.167   1.858   3.988  1.4141 -0.5158  1.4816
   21LEU    HB2  371   2.284   1.942   3.894  1.0494  2.1252  0.5318
   21LEU     CG  372   2.085   2.032   3.891 -0.5629  0.2672  0.5365
   21LEU     HG  373   2.106   2.138   3.876 -0.9131 -0.0039 -2.7091
   21LEU    CD1  374   2.072   1.968   3.753  0.2514  0.5570  0.5162
   21LEU   HD11  375   1.993   2.011   3.691 -1.4749 -1.6390  1.0846
   21LEU   HD12  376   2.160   1.985   3.691  0.2960 -0.9236  0.1422
   21LEU   HD13  377   2.054   1.861   3.764 -1.5779  0.4630 -2.3428
   21LEU    CD2  378   1.955   2.018   3.966 -0.3428  0.3098  0.4519
   21LEU   HD21  379   1.975   2.023   4.073 -0.0943  0.9356  0.3794
   21LEU   HD22  380   1.886   2.089   3.920 -1.5356 -1.1483 -0.0982
   21LEU   HD23  381   1.909   1.920   3.951  3.3029 -1.3101 -1.3906
   21LEU      C  382   2.308   1.925   4.193  0.4154 -0.4039 -0.7822
   21LEU    OC1  383   2.423   1.880   4.170  0.2167  0.0302 -0.5421
   21LEU    OC2  384   2.245   1.884   4.293 -0.4709  0.2577 -1.1034
   22SOL     OW  385   0.116   0.318   0.861 -0.1721 -0.2084  0.1346
   22SOL    HW1  386   0.065   0.393   0.819  1.7212  1.0466 -0.0745
   22SOL    HW2  387   0.124   0.334   0.959  0.7567  0.2373  0.0022
   23SOL     OW  388   4.969   0.298   1.678 -0.1224  0.6681  0.2382
   23SOL    HW1  389   4.872   0.319   1.678 -0.2892 -0.0708  0.5503
   23SOL    HW2  390   4.997   0.267   1.587 -0.2731  0.4544  0.2657
   24SOL     OW  391   0.497   0.691   5.332  0.4067 -0.2847 -0.1867
   24SOL    HW1  392   0.551   0.673   5.415 -0.8656  1.3548  1.0898
   24SOL    HW2  393   0.403   0.716   5.359 -0.3216 -0.7063 -2.1993
   25SOL     OW  394   0.567   0.817   0.660 -0.1467 -0.6763  0.0007
   25SOL    HW1  395   0.588   0.792   0.566 -0.2676  0.6340 -0.3958
   25SOL    HW2  396   0.605   0.908   0.680  0.3848 -1.1773  1.4035
   26SOL     OW  397   1.233   1.138   5.401  0.1344 -0.6091 -0.4145
   26SOL    HW1  398   1.159   1.166   5.340  0.5655 -1.2240 -1.2288
   26SOL    HW2  399   1.316   1.189   5.378  0.6023 -1.6476 -1.1112
   27SOL     OW  400   5.201   0.574   2.175 -0.0094  0.1375 -0.2204
   27SOL    HW1  401   5.245   0.659   2.145 -2.0113  1.1898 -0.3088
   27SOL    HW2  402   5.165   0.525   2.096 -3.1446  1.7019  0.1183
   28SOL     OW  403   1.531   0.662   5.351  0.1490 -0.6094 -0.0333
   28SOL    HW1  404   1.487   0.714   5.424  0.1963  0.7680 -0.9593
   28SOL    HW2  405   1.554   0.570   5.385 -0.1300 -0.1215  1.5587
   29SOL     OW  406   0.870   0.863   0.270 -0.6280 -0.3330  0.3657
   29SOL    HW1  407   0.807   0.928   0.312 -3.1860 -2.5377  0.1952
   29SOL    HW2  408   0.874   0.879   0.171  0.8371  1.1298  0.6043
   30SOL     OW  409   1.100   4.121   2.381  0.2616 -0.0947 -0.6374
   30SOL    HW1  410   1.097   4.096   2.284  2.0269 -0.7897 -0.5426
   30SOL    HW2  411   1.007   4.142   2.412 -0.2746  0.7320 -2.6095
   31SOL     OW  412   5.350   4.901   0.615  0.4557 -0.3969  0.0263
   31SOL    HW1  413   5.342   4.820   0.556 -0.2197 -0.1711 -0.2048
   31SOL    HW2  414   5.414   4.966   0.575 -1.1396  0.4356 -1.2846
   32SOL     OW  415   1.051   0.897   1.607 -0.3191  0.4622  0.2165
   32SOL    HW1  416   1.116   0.839   1.656 -0.0070 -0.5077 -1.2669
   32SOL    HW2  417   1.043   0.985   1.654  0.1320 -0.3155  1.8365
   33SOL     OW  418   1.006   0.173   1.177 -0.2253  0.2201 -0.5254
   33SOL    HW1  419   0.967   0.266   1.181 -0.0139  0.3164 -0.6489
   33SOL    HW2  420   1.007   0.143   1.082 -1.7864 -0.5559 -0.3240
   34SOL     OW  421   1.102   0.936   0.739 -0.8423  0.0879  0.2861
   34SOL    HW1  422   1.072   0.943   0.834  1.0739  0.8188  0.8842
   34SOL    HW2  423   1.027   0.900   0.683 -2.4806  0.9955  1.7984
   35SOL     OW  424   0.350   0.250   0.737  0.3355  0.4300  0.0551
   35SOL    HW1  425   0.268   0.269   0.791  0.2447  1.0296 -0.2882
   35SOL    HW2  426   0.326   0.189   0.661 -0.1497  1.8803 -1.0006
   36SOL     OW  427   1.850   4.324   3.285  0.3572  0.3422  0.3898
   36SOL    HW1  428   1.850   4.356   3.191 -2.1975  1.1877  0.5839
   36SOL    HW2  429   1.904   4.240   3.292  1.9148  1.1244 -1.4615
   37SOL     OW  430   1.587   5.427   0.720 -0.1001 -0.6401 -0.0321
   37SOL    HW1  431   1.551   5.401   0.810 -1.0107  0.9370  0.1190
   37SOL    HW2  432   1.665   5.370   0.697  1.4624  0.2166  2.6905
   38SOL     OW  433   4.898   1.877   0.804  0.7091  0.2624  0.2849
   38SOL    HW1  434   4.964   1.917   0.868  1.0986  0.8121 -0.4463
   38SOL    HW2  435   4.935   1.792   0.767  1.7874  1.3994 -1.3892
   39SOL     OW  436   0.038   2.690   5.177  0.3735  0.4361 -0.1202
   39SOL    HW1  437   0.019   2.705   5.080  0.5021  2.8110  0.1751
   39SOL    HW2  438   0.081   2.600   5.189 -1.2126 -0.6576 -2.0062
   40SOL     OW  439   0.643   1.081   1.304  0.0183  0.0049  0.2219
   40SOL    HW1  440   0.553   1.063   1.342  0.5461  0.1606  1.5953
   40SOL    HW2  441   0.647   1.177   1.274 -0.7711 -0.4145 -1.3796
   41SOL     OW  442   3.509   1.509   3.338 -0.2654  0.0529 -0.8729
   41SOL    HW1  443   3.463   1.589   3.301  1.7110  1.8948  0.4111
   41SOL    HW2  444   3.469   1.486   3.427  0.2172  0.6387 -0.5003
   42SOL     OW  445   5.130   0.067   0.727  0.4835 -0.1741 -0.0614
   42SOL    HW1  446   5.222   0.033   0.748  0.4354 -0.2222  0.0747
   42SOL    HW2  447   5.110   0.146   0.784  0.4724 -0.1138 -0.1500
   43SOL     OW  448   0.884   0.426   1.166 -0.0937  0.3713 -0.1039
   43SOL    HW1  449   0.954   0.497   1.174 -0.1811  0.7134 -2.0135
   43SOL    HW2  450   0.855   0.398   1.257  2.2768  0.4545  0.7489
   44SOL     OW  451   5.276   0.472   0.643  0.1883  0.5451  0.3228
   44SOL    HW1  452   5.289   0.409   0.565  1.3857  1.1271  0.0399
   44SOL    HW2  453   5.266   0.565   0.609  2.7952  1.1008  0.9348
   45SOL     OW  454   2.715   2.906   1.013  0.3755  0.1893 -0.0311
   45SOL    HW1  455   2.786   2.971   1.042  0.6001 -0.5143  1.0538
   45SOL    HW2  456   2.635   2.956   0.982  0.4815  1.0014  0.9484
   46SOL     OW  457   1.683   0.557   1.315  0.0986  0.1307  0.1089
   46SOL    HW1  458   1.676   0.609   1.230  0.5610  1.6783  0.9791
   46SOL    HW2  459   1.743   0.478   1.301  1.8964  1.5363 -0.4911
   47SOL     OW  460   2.083   5.117   0.334 -1.4884  0.6945  0.3959
   47SOL    HW1  461   2.161   5.122   0.396 -0.4547 -1.5994 -0.5846
   47SOL    HW2  462   2.060   5.208   0.301  1.4008  1.3578 -0.0201
   48SOL     OW  463   3.291   1.660   0.612 -0.1434 -0.1776  0.1583
   48SOL    HW1  464   3.270   1.580   0.556  0.7905 -0.6412  0.4446
   48SOL    HW2  465   3.334   1.730   0.555 -0.0057 -0.2957  0.1171
   49SOL     OW  466   1.213   1.312   2.119  0.1142 -0.0831 -0.6977
   49SOL    HW1  467   1.286   1.259   2.162 -0.4065 -0.0147  0.2928
   49SOL    HW2  468   1.243   1.407   2.109 -0.2419  0.2099  0.7770
   50SOL     OW  469   0.205   2.009   4.971  0.1949 -0.5117 -0.0514
   50SOL    HW1  470   0.142   2.029   4.896 -2.5750  0.0517  2.2391
   50SOL    HW2  471   0.283   2.072   4.967 -0.4749  0.2706 -1.7752
   51SOL     OW  472   0.173   1.740   1.410 -0.1484 -0.3165  0.0987
   51SOL    HW1  473   0.138   1.729   1.503 -0.7492 -2.1844 -0.3039
   51SOL    HW2  474   0.273   1.741   1.412 -0.1404 -1.1084  0.7153
   52SOL     OW  475   2.456   0.513   4.964  0.3495  0.3972 -0.0130
   52SOL    HW1  476   2.542   0.539   4.922  0.9133  0.9403  1.4245
   52SOL    HW2  477   2.402   0.458   4.900  1.5226  0.5043 -1.1090
   53SOL     OW  478   5.051   1.784   5.306  0.1026  0.2884  0.3103
   53SOL    HW1  479   5.003   1.700   5.281  1.8588 -0.4219 -0.8918
   53SOL    HW2  480   5.144   1.761   5.337 -0.1925  1.6173  2.3902
   54SOL     OW  481   0.769   1.318   5.364  0.7092  0.3803  0.2496
   54SOL    HW1  482   0.694   1.269   5.406 -0.1055  0.6130 -0.8748
   54SOL    HW2  483   0.830   1.253   5.318  0.0835  0.3341 -0.5373
   55SOL     OW  484   2.565   2.177   0.093  0.3019  0.0841 -0.8860
   55SOL    HW1  485   2.511   2.249   0.048 -0.3277 -0.6084 -1.2450
   55SOL    HW2  486   2.616   2.127   0.024  0.0963 -0.3496 -0.7242
   56SOL     OW  487   0.443   5.170   1.891  0.0734  0.0597  0.3706
   56SOL    HW1  488   0.411   5.102   1.825  0.0749  0.0016  0.4301
   56SOL    HW2  489   0.511   5.230   1.848  0.2598 -0.1357  0.3928
   57SOL     OW  490   4.657   5.420   0.317  0.5646 -0.1667 -0.4555
   57SOL    HW1  491   4.755   5.421   0.339  0.2082 -1.2974  1.4913
   57SOL    HW2  492   4.643   5.386   0.224  2.0386  0.6880 -1.0157
   58SOL     OW  493   2.667   1.954   0.866  0.0182  0.0355  0.3794
   58SOL    HW1  494   2.696   2.045   0.895 -0.3480  0.1886  0.2725
   58SOL    HW2  495   2.567   1.948   0.871 -0.0752  0.1284 -0.9940
   59SOL     OW  496   1.083   0.319   2.486  0.0169 -0.6670 -0.3763
   59SOL    HW1  497   1.109   0.413   2.462 -0.6122  0.1527  1.8600
   59SOL    HW2  498   0.985   0.308   2.477  0.2134 -1.5061 -1.7399
   60SOL     OW  499   2.489   0.470   1.607 -0.0223  0.1809  0.0315
   60SOL    HW1  500   2.401   0.499   1.645 -0.0829  1.2221 -0.8536
   60SOL    HW2  501   2.473   0.410   1.529  0.0907 -0.6723  0.6403
   61SOL     OW  502   2.764   4.601   0.516  0.4348 -0.1071 -0.2573
   61SOL    HW1  503   2.678   4.580   0.469  0.5439 -2.1275  0.3381
   61SOL    HW2  504   2.840   4.559   0.466  0.8133 -0.2345  0.4222
   62SOL     OW  505   1.198   4.462   1.567 -0.8094 -0.4679  0.2080
   62SOL    HW1  506   1.210   4.484   1.471  1.7389 -0.3288  0.4934
   62SOL    HW2  507   1.192   4.362   1.578 -1.7989 -0.4567 -0.1224
   63SOL     OW  508   0.186   0.395   1.122  0.0307 -0.2008  1.0208
   63SOL    HW1  509   0.155   0.349   1.205 -0.1515 -1.1473  0.4399
   63SOL    HW2  510   0.286   0.399   1.121  0.1250 -1.9741  0.3718
   64SOL     OW  511   5.530   0.295   1.268 -0.1221 -0.3961  0.0758
   64SOL    HW1  512   5.525   0.246   1.355 -1.5409 -1.2273 -0.4217
   64SOL    HW2  513   5.437   0.306   1.231  0.4399 -0.0017 -1.2888
   65SOL     OW  514   1.482   5.551   1.104 -0.1176 -0.6389  0.2680
   65SOL    HW1  515   1.520   5.477   1.050 -0.4288 -1.2000  0.8037
   65SOL    HW2  516   1.539   5.566   1.186  0.4778  0.3494 -0.3029
   66SOL     OW  517   1.959   0.359   5.439  0.3500  1.0557 -0.1234
   66SOL    HW1  518   1.995   0.324   5.353 -2.2942  1.2341 -1.4006
   66SOL    HW2  519   1.977   0.293   5.512 -0.5799 -0.8883 -1.5649
   67SOL     OW  520   0.699   3.764   0.695  0.2448  0.4073  0.0268
   67SOL    HW1  521   0.700   3.864   0.688 -1.6254  0.7368  2.7867
   67SOL    HW2  522   0.751   3.735   0.775 -0.4913 -0.6901  0.1376
   68SOL     OW  523   4.228   1.893   1.491  0.6512 -0.3690 -0.1521
   68SOL    HW1  524   4.211   1.982   1.534  0.3762 -0.0755 -0.8488
   68SOL    HW2  525   4.287   1.906   1.411 -0.4287 -0.6229 -1.0076
   69SOL     OW  526   0.903   1.593   5.220  0.2791  0.4997 -0.0066
   69SOL    HW1  527   0.821   1.536   5.209 -0.8687  1.6016  2.2141
   69SOL    HW2  528   0.984   1.536   5.208 -0.7491 -0.6979 -1.9141
   70SOL     OW  529   4.973   0.428   3.377  0.1339 -0.4496 -0.7453
   70SOL    HW1  530   4.930   0.472   3.298 -1.0701  1.8630  1.0644
   70SOL    HW2  531   4.909   0.425   3.453  1.9547 -0.4565  0.8866
   71SOL     OW  532   3.170   1.782   3.395 -0.2346 -0.3682  0.7359
   71SOL    HW1  533   3.189   1.694   3.438 -2.1047 -0.2079  2.0040
   71SOL    HW2  534   3.108   1.769   3.317  1.5257 -0.4138 -0.7333
   72SOL     OW  535   0.794   0.352   1.432 -0.0736 -0.2264 -0.0455
   72SOL    HW1  536   0.698   0.357   1.459 -0.8577 -1.9562 -2.1836
   72SOL    HW2  537   0.834   0.267   1.467  1.2795  1.2349  2.2743
   73SOL     OW  538   0.096   0.250   0.468  0.3398 -0.0685 -0.3600
   73SOL    HW1  539   0.030   0.174   0.467 -0.9391  0.9819  0.5161
   73SOL    HW2  540   0.183   0.218   0.506 -0.4854 -0.8834  0.9047
   74SOL     OW  541   0.144   0.925   5.248 -0.3241 -0.4663 -0.3811
   74SOL    HW1  542   0.107   0.908   5.339 -0.6582 -1.5623 -0.7055
   74SOL    HW2  543   0.071   0.914   5.180 -0.0390  0.1732 -0.7977
   75SOL     OW  544   1.127   1.409   5.208  0.2019  0.4941  0.3504
   75SOL    HW1  545   1.207   1.440   5.260  0.9692  1.8679 -1.5269
   75SOL    HW2  546   1.146   1.320   5.168  0.2228  0.1700  1.0609
   76SOL     OW  547   5.407   0.411   1.540 -0.3449 -0.0611 -0.5459
   76SOL    HW1  548   5.404   0.438   1.444 -3.8370 -0.0054 -0.5465
   76SOL    HW2  549   5.420   0.312   1.546 -0.6424 -0.1385 -1.0976
   77SOL     OW  550   0.341   4.150   1.738  0.1266  0.0114 -0.1818
   77SOL    HW1  551   0.374   4.060   1.767 -1.0704 -0.4704 -0.2271
   77SOL    HW2  552   0.340   4.212   1.816 -0.0629 -0.3398  0.0973
   78SOL     OW  553   0.933   0.512   0.798 -0.4095 -0.5074 -0.1177
   78SOL    HW1  554   0.856   0.497   0.861 -1.8015  0.8553 -1.4008
   78SOL    HW2  555   0.897   0.543   0.710  1.6690  0.7281 -0.5774
   79SOL     OW  556   1.665   1.625   2.371  0.2138 -0.1199  0.0542
   79SOL    HW1  557   1.644   1.706   2.317 -0.8795  0.1908  0.9035
   79SOL    HW2  558   1.726   1.650   2.447  1.1199 -0.4072 -0.5581
   80SOL     OW  559   1.762   0.854   5.302 -0.2421  0.7175 -0.2526
   80SOL    HW1  560   1.704   0.772   5.295  1.5691 -0.6177 -0.4798
   80SOL    HW2  561   1.786   0.869   5.398 -0.9733  1.3036 -0.1517
   81SOL     OW  562   1.455   4.946   2.272 -0.2545 -0.2840 -0.1529
   81SOL    HW1  563   1.371   4.927   2.221  0.2212  2.1052 -2.0360
   81SOL    HW2  564   1.534   4.926   2.214  0.3727  0.5600  0.3809
   82SOL     OW  565   2.214   4.606   3.145 -0.5301 -0.3238 -0.0191
   82SOL    HW1  566   2.202   4.578   3.050  2.2743  0.3568 -0.6758
   82SOL    HW2  567   2.298   4.564   3.181 -0.5509  0.8898  1.5451
   83SOL     OW  568   4.629   1.502   4.819  0.2403  0.7127  0.4243
   83SOL    HW1  569   4.657   1.409   4.843 -0.6067  0.2595 -0.3039
   83SOL    HW2  570   4.566   1.538   4.889 -3.6821 -1.2763 -1.7633
   84SOL     OW  571   2.503   5.075   1.537 -0.1500  0.4366 -0.5036
   84SOL    HW1  572   2.406   5.054   1.526  0.0818 -0.4133 -1.0448
   84SOL    HW2  573   2.554   5.037   1.460  0.7443 -0.1378  0.3465
   85SOL     OW  574   1.013   0.989   2.401 -0.3986 -0.1461  0.0166
   85SOL    HW1  575   1.042   0.965   2.309  1.1952  0.9694  0.1743
   85SOL    HW2  576   0.913   0.993   2.406 -0.4952  0.4961 -1.8595
   86SOL     OW  577   1.364   4.898   1.127 -0.2660 -0.4337 -0.1984
   86SOL    HW1  578   1.338   4.994   1.125  0.1337 -0.3283 -1.5328
   86SOL    HW2  579   1.414   4.878   1.211 -1.0944  0.3119  0.4869
   87SOL     OW  580   5.086   0.926   1.200  0.4764 -0.1654  0.1872
   87SOL    HW1  581   5.012   0.992   1.216  1.1861  0.5777  0.5322
   87SOL    HW2  582   5.083   0.855   1.270  0.2868  0.0537  0.4043
   88SOL     OW  583   2.018   1.236   1.979 -0.0892 -0.2227  1.2577
   88SOL    HW1  584   2.106   1.234   1.933  1.6944  1.1953  4.2768
   88SOL    HW2  585   2.010   1.157   2.040 -1.2216 -0.6815  0.5461
   89SOL     OW  586   0.946   4.246   0.742  0.2338 -0.0358 -0.7877
   89SOL    HW1  587   0.905   4.279   0.657  0.7140 -1.9566 -1.8282
   89SOL    HW2  588   0.935   4.147   0.747  0.9662 -0.0577  1.0100
   90SOL     OW  589   5.286   0.783   3.346  0.1352 -0.4606  0.7617
   90SOL    HW1  590   5.212   0.733   3.392  1.5828 -1.8101  1.7066
   90SOL    HW2  591   5.370   0.729   3.350  1.3608  1.3424  0.3397
   91SOL     OW  592   0.174   3.522   2.336  0.2097 -0.0614 -0.5248
   91SOL    HW1  593   0.173   3.467   2.253 -0.8758  0.8290 -1.1332
   91SOL    HW2  594   0.133   3.611   2.318 -0.9286 -0.1826  1.1972
   92SOL     OW  595   0.841  -0.012   2.119 -0.8953 -0.5376 -0.1455
   92SOL    HW1  596   0.889   0.054   2.062  0.2804 -0.6978  0.6306
   92SOL    HW2  597   0.861   0.005   2.215 -0.6755 -1.9213  0.0840
   93SOL     OW  598   1.837   1.104   1.571  0.2341 -0.4767  0.0481
   93SOL    HW1  599   1.781   1.182   1.599  0.1870 -0.3957 -0.2706
   93SOL    HW2  600   1.781   1.021   1.571 -0.0904 -0.2674 -1.0257
   94SOL     OW  601   3.502   0.009   1.525  0.3878 -0.4092 -0.1730
   94SOL    HW1  602   3.591   0.003   1.480  0.5816 -0.4585  0.2188
   94SOL    HW2  603   3.510   0.065   1.608 -0.0152 -0.1393 -0.3129
   95SOL     OW  604   0.885   3.778   0.387 -0.0155  0.1565  0.4998
   95SOL    HW1  605   0.942   3.841   0.440  0.5717  0.8187 -0.8797
   95SOL    HW2  606   0.909   3.684   0.410  0.6761  0.4329  0.9349
   96SOL     OW  607   3.419   1.276   0.065  0.2054 -0.3375 -0.4588
   96SOL    HW1  608   3.336   1.221   0.051 -0.1997  0.4713 -1.3766
   96SOL    HW2  609   3.480   1.229   0.128 -1.4748 -0.4243  1.1851
   97SOL     OW  610   1.373   4.514   1.805  0.4084 -0.6900  0.4241
   97SOL    HW1  611   1.344   4.481   1.716  0.1030 -0.4086  0.4140
   97SOL    HW2  612   1.385   4.614   1.802 -1.2485 -0.4302  1.1126
   98SOL     OW  613   2.194   2.283   0.348 -0.1160 -0.1541  0.8716
   98SOL    HW1  614   2.142   2.344   0.289 -1.4473 -1.1600  0.9636
   98SOL    HW2  615   2.145   2.271   0.435  0.2969 -1.0705  0.9901
   99SOL     OW  616   4.568   4.467   3.021 -0.6381 -0.4850  0.5926
   99SOL    HW1  617   4.609   4.549   3.060 -2.6623  1.8225 -1.7936
   99SOL    HW2  618   4.623   4.437   2.943 -2.3443  1.6264 -1.5689
  100SOL     OW  619   0.463   1.137   0.522 -0.9439  0.3985  0.5019
  100SOL    HW1  620   0.366   1.114   0.533 -0.9136  0.3691  0.7284
  100SOL    HW2  621   0.511   1.113   0.606 -0.9375  1.4645  0.8163
  101SOL     OW  622   0.057   5.250   0.354  0.5244 -0.0391  0.3247
  101SOL    HW1  623   0.025   5.333   0.399  0.3958 -0.4250  0.9553
  101SOL    HW2  624  -0.016   5.214   0.295  0.3559 -0.0506  0.5403
  102SOL     OW  625   2.264   0.564   0.019 -0.2667  1.1593 -0.2035
  102SOL    HW1  626   2.271   0.506   0.100  0.6139  1.2834 -0.1803
  102SOL    HW2  627   2.174   0.608   0.016 -0.6103  0.4926  0.2490
  103SOL     OW  628   0.580   0.672   1.318  0.1126  0.6121  0.6158
  103SOL    HW1  629   0.546   0.748   1.263 -0.2739 -1.3582 -2.0819
  103SOL    HW2  630   0.679   0.682   1.329  0.2268  1.0426 -0.5696
  104SOL     OW  631   0.294   4.721   0.823 -0.0362 -0.2184  0.1988
  104SOL    HW1  632   0.387   4.746   0.798 -0.0961  2.9301  2.5530
  104SOL    HW2  633   0.295   4.669   0.908 -0.4738  1.2250  1.1040
  105SOL     OW  634   1.406   4.318   1.982 -0.4674 -0.2782  0.0288
  105SOL    HW1  635   1.405   4.391   1.915  0.3773 -0.6643 -0.4218
  105SOL    HW2  636   1.392   4.356   2.074 -0.8391  0.3374 -0.2809
  106SOL     OW  637   1.256   4.558   1.304 -0.0577  0.2517  0.3608
  106SOL    HW1  638   1.234   4.643   1.351  0.7072  1.0372 -0.6422
  106SOL    HW2  639   1.247   4.571   1.205 -2.0661 -1.4809  0.2333
  107SOL     OW  640   0.889   0.002   2.392 -0.0413 -0.1880 -0.2145
  107SOL    HW1  641   0.901   0.094   2.429  1.3729 -0.3405 -0.2241
  107SOL    HW2  642   0.858  -0.059   2.464  1.6709 -0.2562  0.5272
  108SOL     OW  643   0.884   1.473   1.046  0.4083 -0.2802 -0.1775
  108SOL    HW1  644   0.947   1.434   1.113 -0.7985 -0.7428  0.7106
  108SOL    HW2  645   0.922   1.459   0.954  1.8453 -0.0668  0.3562
  109SOL     OW  646   2.131   5.208   1.075  0.3292 -0.7625 -0.2468
  109SOL    HW1  647   2.049   5.264   1.085  0.4611 -0.7352  0.7192
  109SOL    HW2  648   2.171   5.224   0.985 -1.2891 -1.5477 -1.1631
  110SOL     OW  649   2.025   0.949   0.407  0.2734  0.4716 -0.0865
  110SOL    HW1  650   2.058   0.918   0.318 -0.9120  0.7622 -0.6497
  110SOL    HW2  651   2.078   0.905   0.479  0.3729 -0.8110 -0.9080
  111SOL     OW  652   0.630   1.078   0.735 -0.0027  0.2221  0.4472
  111SOL    HW1  653   0.589   1.082   0.826  0.9161 -2.4268  1.0498
  111SOL    HW2  654   0.730   1.078   0.743  0.0908  0.2461 -0.5765
  112SOL     OW  655   2.204   0.981   5.470 -0.0404 -0.2309 -0.0494
  112SOL    HW1  656   2.115   1.020   5.490 -1.1694 -1.8061 -1.6768
  112SOL    HW2  657   2.276   1.035   5.514 -1.8019  0.7964  1.6833
  113SOL     OW  658   2.512   4.303   0.818  0.1175 -0.2825  0.1333
  113SOL    HW1  659   2.519   4.250   0.902  0.2857 -1.9897 -0.9151
  113SOL    HW2  660   2.601   4.307   0.773 -0.2572 -0.5904 -0.6604
  114SOL     OW  661   2.012   1.633   4.611  0.2719  0.0588  0.0310
  114SOL    HW1  662   1.951   1.647   4.533  2.8116  1.4446 -1.8803
  114SOL    HW2  663   2.039   1.537   4.617  1.1918  0.1622 -1.8084
  115SOL     OW  664   1.340   1.095   2.351 -0.0918 -0.0822  0.0338
  115SOL    HW1  665   1.341   1.183   2.399 -0.8231 -0.5788  1.0021
  115SOL    HW2  666   1.248   1.078   2.315  0.0580 -0.4296 -0.1881
  116SOL     OW  667   4.986   1.424   3.112  0.5021  0.4674  0.5318
  116SOL    HW1  668   5.082   1.449   3.125  0.4537  1.3682 -0.7164
  116SOL    HW2  669   4.927   1.497   3.145  0.3489  1.7861 -2.4111
  117SOL     OW  670   0.146   1.304   4.867  0.0966 -0.3405  0.1251
  117SOL    HW1  671   0.200   1.382   4.834 -0.3207  0.2445  0.7945
  117SOL    HW2  672   0.207   1.235   4.905  0.5031 -0.5411 -0.8610
  118SOL     OW  673   1.970   0.641   0.549  0.1529 -0.2720 -0.3630
  118SOL    HW1  674   2.010   0.659   0.460 -1.4602  1.2372 -0.8501
  118SOL    HW2  675   1.872   0.663   0.547 -0.0408 -0.7224  1.6166
  119SOL     OW  676   2.210   1.098   0.631 -0.4319 -0.3834 -0.1296
  119SOL    HW1  677   2.239   1.139   0.718 -0.0143 -0.1110 -0.3949
  119SOL    HW2  678   2.209   0.998   0.640  0.6893 -0.4107 -0.1343
  120SOL     OW  679   1.429   4.791   1.823  0.0077 -0.3019 -0.0108
  120SOL    HW1  680   1.438   4.869   1.760  1.9240 -1.6268 -1.5055
  120SOL    HW2  681   1.444   4.822   1.917  0.0512  1.2340 -0.4988
  121SOL     OW  682   4.806   2.164   1.383  0.1517  0.3854 -0.0129
  121SOL    HW1  683   4.789   2.073   1.421  1.7945  0.1206  0.1564
  121SOL    HW2  684   4.720   2.202   1.348 -0.8317 -0.6331  1.1809
  122SOL     OW  685   0.197   1.499   0.571 -0.0703 -0.0865 -0.7165
  122SOL    HW1  686   0.156   1.494   0.662 -2.2612 -1.9130 -1.7120
  122SOL    HW2  687   0.164   1.580   0.523 -0.1650  0.0140 -0.4838
  123SOL     OW  688   0.771   1.310   0.473  0.2832  0.6366  0.0822
  123SOL    HW1  689   0.750   1.362   0.555 -0.2690 -0.3311  0.5754
  123SOL    HW2  690   0.869   1.310   0.457  0.3307  1.4423  0.3155
  124SOL     OW  691   1.028   1.290   0.378  0.0908 -0.1180  0.1928
  124SOL    HW1  692   1.098   1.219   0.380 -0.0176 -0.3134 -1.5372
  124SOL    HW2  693   1.001   1.308   0.283 -0.1292  1.9908  0.6004
  125SOL     OW  694   1.114   3.487   2.472 -0.2942  0.3171  0.2239
  125SOL    HW1  695   1.036   3.530   2.425 -1.2344 -0.6270  0.8824
  125SOL    HW2  696   1.151   3.550   2.540  1.2121  1.7913 -1.8346
  126SOL     OW  697   0.454   0.361   4.039 -0.0526 -0.0036 -0.3028
  126SOL    HW1  698   0.517   0.376   4.115  1.1102 -0.4639 -1.1495
  126SOL    HW2  699   0.506   0.346   3.955 -1.2653  2.7338 -1.6857
  127SOL     OW  700   1.274   4.173   0.886 -0.1986 -0.4520 -0.1753
  127SOL    HW1  701   1.241   4.205   0.975 -1.2377  1.5155 -1.2001
  127SOL    HW2  702   1.279   4.073   0.886  0.1182 -0.4777  2.1667
  128SOL     OW  703   3.303   0.975   5.580 -0.0300 -0.2308  0.2361
  128SOL    HW1  704   3.231   0.941   5.520  0.4590 -0.2582 -0.3376
  128SOL    HW2  705   3.392   0.959   5.539  0.2935  0.1820  0.7513
  129SOL     OW  706   2.348   1.221   4.770  0.3495 -0.1288  0.0008
  129SOL    HW1  707   2.267   1.273   4.743  0.5176  0.1604  0.0542
  129SOL    HW2  708   2.418   1.227   4.698  0.3081 -0.4187 -0.0682
  130SOL     OW  709   0.979   0.204   4.532 -0.0101  0.4041  0.1213
  130SOL    HW1  710   1.038   0.127   4.505 -1.1138 -0.3430 -0.2393
  130SOL    HW2  711   1.021   0.290   4.502  0.3969 -0.1836 -1.0537
  131SOL     OW  712   5.532   0.422   1.865  0.3379  0.8272  0.2912
  131SOL    HW1  713   5.437   0.403   1.887  1.0064 -0.4926  2.2988
  131SOL    HW2  714   5.565   0.498   1.922  1.3154 -0.7905  1.9881
  132SOL     OW  715   0.501   0.712   3.447  0.6353  0.2555 -0.5580
  132SOL    HW1  716   0.431   0.676   3.385 -0.3961 -0.8296  1.1587
  132SOL    HW2  717   0.466   0.794   3.493 -0.3569 -1.3567  1.7270
  133SOL     OW  718   0.377   0.906   3.574  0.0383 -0.5752  0.0706
  133SOL    HW1  719   0.390   0.910   3.674 -0.7082  1.8942  0.1394
  133SOL    HW2  720   0.298   0.962   3.549  1.1229  0.0831 -2.0697
  134SOL     OW  721   1.409   0.869   2.034 -0.1171  0.1067  0.1060
  134SOL    HW1  722   1.485   0.933   2.030 -0.9130  1.3574  2.8916
  134SOL    HW2  723   1.346   0.887   1.958  1.2370  0.4980 -0.9528
  135SOL     OW  724   5.402   1.539   0.541  0.0498 -0.1017  0.2211
  135SOL    HW1  725   5.319   1.511   0.492 -1.0323  1.6102  0.9681
  135SOL    HW2  726   5.383   1.542   0.639  0.8906  0.6126  0.3719
  136SOL     OW  727   0.460   1.078   1.882  0.1305  0.0346  0.0768
  136SOL    HW1  728   0.362   1.093   1.896  0.0016 -0.2141 -0.5097
  136SOL    HW2  729   0.504   1.063   1.970 -0.3442  0.2281  0.3542
  137SOL     OW  730   0.100   0.048   0.900  0.3281  0.2591  0.5633
  137SOL    HW1  731   0.030   0.026   0.968 -0.2651  1.5954  0.4186
  137SOL    HW2  732   0.093   0.145   0.875  2.2202  0.4273  0.5328
  138SOL     OW  733   1.503   5.490   5.109  0.7780  0.3246 -0.8188
  138SOL    HW1  734   1.461   5.466   5.022 -2.3974  1.1749  0.3113
  138SOL    HW2  735   1.449   5.562   5.153  1.4004 -1.0018  2.4490
  139SOL     OW  736   3.932   0.723   2.959 -0.8836  0.5477 -0.0262
  139SOL    HW1  737   3.996   0.704   2.885 -1.6107  0.2817 -0.6001
  139SOL    HW2  738   3.926   0.643   3.018 -0.7143  0.5590  0.0065
  140SOL     OW  739   3.946   3.610   1.411 -0.2057 -0.0780 -0.2558
  140SOL    HW1  740   4.045   3.619   1.399 -0.0056 -0.7695  0.7792
  140SOL    HW2  741   3.923   3.627   1.507 -1.1823  0.7236 -0.6100
  141SOL     OW  742   1.642   0.719   1.113 -0.1432 -0.1747 -0.1278
  141SOL    HW1  743   1.722   0.660   1.101  1.1479  1.2472  1.2300
  141SOL    HW2  744   1.584   0.711   1.031  0.4318 -2.5717 -0.4046
  142SOL     OW  745   2.351   1.517   5.166  0.2604  0.5412 -0.3490
  142SOL    HW1  746   2.370   1.531   5.069 -2.5786  0.3775 -0.9934
  142SOL    HW2  747   2.320   1.423   5.180  1.0396  0.4383  0.8276
  143SOL     OW  748   0.235   0.313   0.059 -0.0922 -0.0858  0.0849
  143SOL    HW1  749   0.251   0.346  -0.034 -3.5724 -1.5486 -1.2223
  143SOL    HW2  750   0.278   0.223   0.071  0.2874  0.0663 -0.1394
  144SOL     OW  751   0.645   5.452   0.809  0.9665 -0.5298 -0.3982
  144SOL    HW1  752   0.709   5.453   0.885 -1.1233  1.0021  1.4579
  144SOL    HW2  753   0.622   5.545   0.782 -0.5190 -1.0162 -0.9448
  145SOL     OW  754   0.351  -0.013   2.073 -0.5027 -0.4070  0.0555
  145SOL    HW1  755   0.316   0.051   2.005 -2.2280 -1.1508  0.1868
  145SOL    HW2  756   0.449  -0.026   2.060 -0.3451  1.2921 -0.7418
  146SOL     OW  757   0.128   4.908   1.114 -0.4904 -0.0250 -0.1081
  146SOL    HW1  758   0.121   4.831   1.178  0.8829  0.5305  0.7468
  146SOL    HW2  759   0.224   4.934   1.103 -0.6115 -0.4741 -2.9036
  147SOL     OW  760   1.884   1.479   1.869  0.2853  0.4595 -0.4376
  147SOL    HW1  761   1.857   1.512   1.960 -1.1679  1.4377 -1.1742
  147SOL    HW2  762   1.940   1.397   1.878 -0.5414  0.0422  1.3310
  148SOL     OW  763   4.183   0.705   1.572 -0.6525  0.4447 -0.4359
  148SOL    HW1  764   4.198   0.616   1.529 -0.3059  0.9567 -1.4096
  148SOL    HW2  765   4.085   0.728   1.568 -0.5154  0.9366 -1.9370
  149SOL     OW  766   1.130   0.042   5.403 -0.1825  0.0517  0.5156
  149SOL    HW1  767   1.145  -0.028   5.472 -2.4593  1.2110  2.3633
  149SOL    HW2  768   1.051   0.017   5.347  0.0445  0.3263  0.0712
  150SOL     OW  769   0.729   0.010   1.137  0.0099  0.2182  0.2311
  150SOL    HW1  770   0.783  -0.005   1.220 -1.0393 -0.4494  0.8153
  150SOL    HW2  771   0.790   0.031   1.061  1.0765 -0.3541  0.9050
  151SOL     OW  772   0.148   2.161   0.133 -0.3419 -0.4282  0.1939
  151SOL    HW1  773   0.203   2.241   0.108  2.7146 -2.1193  1.0380
  151SOL    HW2  774   0.109   2.175   0.224 -1.0673  0.6308 -0.2494
  152SOL     OW  775   0.141   1.028   0.598  0.8602  0.1625 -0.1124
  152SOL    HW1  776   0.213   0.961   0.618 -0.4844 -0.8530  1.6473
  152SOL    HW2  777   0.054   0.994   0.633 -0.1437  2.2031 -0.5105
  153SOL     OW  778   1.191   4.092   0.329  0.0317 -0.3284 -0.1836
  153SOL    HW1  779   1.270   4.142   0.364 -1.6925  0.7289  2.5994
  153SOL    HW2  780   1.171   4.015   0.390 -0.6162 -1.0840 -1.3142
  154SOL     OW  781   0.912   1.800   1.831  0.7108  0.7448  0.0639
  154SOL    HW1  782   0.880   1.867   1.764  1.4910 -0.5523 -1.7148
  154SOL    HW2  783   1.011   1.811   1.845  0.9881 -0.4118 -0.7882
  155SOL     OW  784   0.314   1.168   2.374 -0.6468 -0.5134  0.1959
  155SOL    HW1  785   0.333   1.176   2.471 -2.1889 -0.2103  0.4949
  155SOL    HW2  786   0.258   1.086   2.358  1.1688 -1.6449 -0.7035
  156SOL     OW  787   4.770   5.035   0.915  0.0543 -0.0130 -0.1806
  156SOL    HW1  788   4.755   5.131   0.888 -1.3828  0.2257  1.3071
  156SOL    HW2  789   4.832   5.032   0.993  0.2877 -0.3157 -0.3782
  157SOL     OW  790   0.758   1.378   5.066 -0.2451 -0.4405 -0.1189
  157SOL    HW1  791   0.819   1.341   5.136 -1.2059 -1.0383  0.4148
  157SOL    HW2  792   0.663   1.374   5.098 -0.5969  0.2966 -1.0170
  158SOL     OW  793   5.441   1.642   1.036  1.0571 -0.0513 -0.6255
  158SOL    HW1  794   5.509   1.627   1.109  0.3332 -2.7551 -0.4196
  158SOL    HW2  795   5.349   1.639   1.075  0.7071  0.4063 -1.3880
  159SOL     OW  796   0.313   5.205   0.387  0.4814 -0.1989 -0.3262
  159SOL    HW1  797   0.369   5.242   0.313  0.5875  0.5908  0.1274
  159SOL    HW2  798   0.216   5.217   0.366  0.4985  2.0739  0.6007
  160SOL     OW  799   0.545   1.154   1.008 -0.1892 -0.3128 -0.6416
  160SOL    HW1  800   0.598   1.216   1.066 -1.3702 -0.1351  0.2815
  160SOL    HW2  801   0.448   1.170   1.021 -0.5359 -2.1979 -0.5493
  161SOL     OW  802   5.510   5.378   2.394  0.1025 -0.6157 -0.1768
  161SOL    HW1  803   5.467   5.337   2.475 -0.4678 -0.6653 -0.5026
  161SOL    HW2  804   5.486   5.475   2.390  2.7755  0.2373  1.5105
  162SOL     OW  805   3.365   1.328   5.296 -0.6918  0.0902  0.1785
  162SOL    HW1  806   3.391   1.405   5.238  3.7169  2.7422  4.8742
  162SOL    HW2  807   3.302   1.360   5.367  0.5182 -0.7609  1.6865
  163SOL     OW  808   1.188   0.530  -0.027 -0.3617  0.1158 -0.3169
  163SOL    HW1  809   1.185   0.560   0.069  2.3628  1.3304 -0.5153
  163SOL    HW2  810   1.201   0.431  -0.031  2.6306  0.3643  0.7564
  164SOL     OW  811   1.890   1.607   4.368 -0.4740 -0.4565 -0.1326
  164SOL    HW1  812   1.965   1.605   4.302 -0.6061 -0.2965 -0.2878
  164SOL    HW2  813   1.826   1.533   4.349  0.4894 -1.6394  1.0031
  165SOL     OW  814   0.718   1.047   0.384  0.3420  0.0792 -0.9079
  165SOL    HW1  815   0.625   1.018   0.406 -0.2578  0.9189 -2.2035
  165SOL    HW2  816   0.735   1.138   0.422  1.1616 -0.6439  0.5467
  166SOL     OW  817   0.709   2.752   1.983 -0.5465 -0.4997  0.0897
  166SOL    HW1  818   0.728   2.849   2.000  0.1112 -0.8783  1.7345
  166SOL    HW2  819   0.613   2.733   2.004 -0.4314 -0.3926  0.7319
  167SOL     OW  820   5.343   0.252   2.181 -0.3121 -0.2593 -0.1371
  167SOL    HW1  821   5.433   0.212   2.162  0.2675  1.5306 -1.3825
  167SOL    HW2  822   5.282   0.236   2.103  0.2722  2.1093 -1.1642
  168SOL     OW  823   1.038   4.303   1.339  0.1140  0.5181  0.3789
  168SOL    HW1  824   1.099   4.253   1.277  0.0008  1.1206 -0.2230
  168SOL    HW2  825   1.089   4.332   1.420  0.6921  1.2203 -0.2284
  169SOL     OW  826   4.852   5.236   2.060  0.3442 -0.2261 -0.1229
  169SOL    HW1  827   4.758   5.258   2.086  0.6673 -1.4343  2.3934
  169SOL    HW2  828   4.915   5.297   2.108  0.9289 -1.6042  0.9220
  170SOL     OW  829  -0.006   4.008   0.664  0.1340  0.0802  0.1635
  170SOL    HW1  830   0.040   3.920   0.653  0.5008 -0.1241  2.7599
  170SOL    HW2  831   0.027   4.072   0.594  2.1292 -0.9415  0.1117
  171SOL     OW  832   5.131   0.092   1.795 -0.0133 -0.0737  0.1162
  171SOL    HW1  833   5.067   0.163   1.765  0.1887  1.7542  3.5999
  171SOL    HW2  834   5.082   0.006   1.808 -1.8953  1.2535  2.5968
  172SOL     OW  835   2.434   5.403   1.323 -0.3908  0.3004 -0.2168
  172SOL    HW1  836   2.341   5.439   1.318 -0.2660  0.8961  1.2295
  172SOL    HW2  837   2.437   5.312   1.283 -1.4572  0.5158 -0.8295
  173SOL     OW  838   5.487   1.282   1.293  0.0047  0.2177  0.4916
  173SOL    HW1  839   5.506   1.380   1.286  0.5168  0.1205  0.4852
  173SOL    HW2  840   5.397   1.268   1.334 -0.3846  0.7015 -0.1706
  174SOL     OW  841   4.982   0.988   0.921  0.7868  0.2977 -0.4827
  174SOL    HW1  842   4.925   1.069   0.908 -1.3585 -0.6999  1.9752
  174SOL    HW2  843   5.004   0.978   1.019  2.5650 -1.1184 -0.9655
  175SOL     OW  844   4.840   0.314   2.493  0.5223 -0.0995  0.1048
  175SOL    HW1  845   4.778   0.353   2.425 -1.5470 -1.4337  1.0936
  175SOL    HW2  846   4.854   0.379   2.567 -1.3370 -0.4431  0.8091
  176SOL     OW  847   0.466   0.006   4.199 -0.3336  0.1614 -0.5583
  176SOL    HW1  848   0.391   0.071   4.189 -0.1275  0.3253 -1.1029
  176SOL    HW2  849   0.498  -0.021   4.108  0.2110  0.0296 -0.3283
  177SOL     OW  850   2.607   1.483   0.409  0.1183  0.4224 -0.8065
  177SOL    HW1  851   2.657   1.447   0.488 -0.7682  0.4575 -0.2119
  177SOL    HW2  852   2.654   1.563   0.374  0.8136  0.0921 -0.6481
  178SOL     OW  853   2.095   2.193   0.605 -0.0695 -0.0149  0.5223
  178SOL    HW1  854   2.114   2.220   0.700  0.9383  0.0952  0.2998
  178SOL    HW2  855   1.997   2.200   0.588 -0.2911 -0.2070  1.6082
  179SOL     OW  856   5.544   1.031   1.125  0.5660  0.5507 -0.3528
  179SOL    HW1  857   5.555   1.122   1.164  0.5090 -0.3924  2.0771
  179SOL    HW2  858   5.456   1.025   1.079 -0.8561  0.8944  2.1605
  180SOL     OW  859   4.930   5.073   1.496  0.2420  0.4365 -0.4735
  180SOL    HW1  860   4.851   5.034   1.449 -0.1466  0.4828  0.1324
  180SOL    HW2  861   5.014   5.032   1.459 -0.1552 -1.0714  0.2045
  181SOL     OW  862   0.758   2.111   4.815  0.7162 -0.1415  0.2414
  181SOL    HW1  863   0.817   2.192   4.823  1.9448 -0.9433 -0.3293
  181SOL    HW2  864   0.803   2.043   4.757 -0.7174 -0.8660 -0.0513
  182SOL     OW  865   1.061   2.309   4.402  0.0692 -0.1230 -0.2348
  182SOL    HW1  866   0.964   2.313   4.378  0.2465  1.2724 -0.7877
  182SOL    HW2  867   1.116   2.319   4.319  0.7124 -1.8441 -0.0582
  183SOL     OW  868   1.156   2.466   0.788 -0.2228  0.1468  0.1219
  183SOL    HW1  869   1.069   2.461   0.738  0.1473  1.5626 -0.6923
  183SOL    HW2  870   1.140   2.503   0.879 -0.2983  1.9746 -0.5870
  184SOL     OW  871   1.633   0.356   1.975 -0.2973 -0.2931 -0.1617
  184SOL    HW1  872   1.606   0.370   1.879  1.0041  0.0527 -0.4990
  184SOL    HW2  873   1.559   0.311   2.024 -2.0229  1.8088 -0.6968
  185SOL     OW  874   0.151   4.835   5.287 -0.2087 -0.4722 -0.0876
  185SOL    HW1  875   0.110   4.923   5.310 -0.1372 -0.7419  1.1548
  185SOL    HW2  876   0.221   4.849   5.216 -0.9780  0.2876 -0.7229
  186SOL     OW  877   2.149   1.431   0.157 -0.4252 -0.6095 -0.1891
  186SOL    HW1  878   2.224   1.370   0.182 -0.3491 -0.5085 -0.1699
  186SOL    HW2  879   2.186   1.519   0.126 -0.5486 -0.2928  0.5246
  187SOL     OW  880   1.007   2.029   0.905 -0.0671 -0.0799 -0.1011
  187SOL    HW1  881   0.911   2.054   0.910  0.5631  2.3362  2.1910
  187SOL    HW2  882   1.052   2.082   0.832 -0.0533  0.4218  0.2717
  188SOL     OW  883   0.923   1.148   5.218 -0.5392 -0.1562  0.4454
  188SOL    HW1  884   0.948   1.054   5.242 -1.0670 -0.6733 -0.9499
  188SOL    HW2  885   0.973   1.175   5.136 -0.1376  0.9183  1.0293
  189SOL     OW  886   1.617   2.090   4.377  0.0228 -0.0433 -0.5851
  189SOL    HW1  887   1.680   2.013   4.388 -0.2805 -0.2302 -0.1179
  189SOL    HW2  888   1.662   2.163   4.325 -0.3062 -1.2374 -2.6337
  190SOL     OW  889   0.264   1.301   1.238  0.0976 -0.0592 -0.8342
  190SOL    HW1  890   0.292   1.262   1.325  0.4881  1.6119 -0.1862
  190SOL    HW2  891   0.252   1.227   1.171 -1.3823 -1.4832  0.9137
  191SOL     OW  892   5.367   0.114   0.994  0.3118  0.3240  0.0575
  191SOL    HW1  893   5.355   0.047   1.068  0.2129  0.7070  0.3903
  191SOL    HW2  894   5.346   0.205   1.028  1.1657  0.6197 -0.1939
  192SOL     OW  895   1.137   0.329   0.760 -0.0236 -0.0628  0.0164
  192SOL    HW1  896   1.231   0.343   0.792 -0.0164 -0.2822  0.0977
  192SOL    HW2  897   1.078   0.400   0.798  0.2948  0.7055 -0.8867
  193SOL     OW  898   0.288   5.254   2.110 -0.3435  0.2923 -0.6985
  193SOL    HW1  899   0.302   5.352   2.117  2.8439 -0.1950  2.1734
  193SOL    HW2  900   0.358   5.214   2.051  1.4188 -0.6141  1.8280
  194SOL     OW  901   0.303   0.829   0.665 -0.2372 -0.3212 -0.3194
  194SOL    HW1  902   0.277   0.812   0.760 -2.6294 -1.2185 -1.0600
  194SOL    HW2  903   0.401   0.811   0.654  0.8447  2.7455  2.5781
  195SOL     OW  904   0.379   4.991   1.646  0.5925 -0.5224  0.0064
  195SOL    HW1  905   0.428   4.906   1.627 -0.1247 -0.6370 -1.4856
  195SOL    HW2  906   0.332   5.022   1.563  1.0421  1.4653  0.4329
  196SOL     OW  907   0.284   5.146   4.721 -0.2561  0.0015 -0.3544
  196SOL    HW1  908   0.222   5.069   4.707 -0.4474 -0.0705  0.7751
  196SOL    HW2  909   0.266   5.216   4.652 -1.1222 -0.3122 -0.4645
  197SOL     OW  910   4.770   1.199   2.502  0.3533 -0.7381  0.0313
  197SOL    HW1  911   4.827   1.185   2.583  2.5417 -0.3407 -1.3193
  197SOL    HW2  912   4.685   1.147   2.510  0.8140 -1.2386  2.2488
  198SOL     OW  913   1.057   4.952   1.799  0.6892  0.4108  0.5517
  198SOL    HW1  914   1.004   4.928   1.880  0.3683  0.9119  0.4893
  198SOL    HW2  915   1.086   4.868   1.753  3.6914 -0.0464  2.9524
  199SOL     OW  916   4.999   0.059   0.152 -0.0138  0.1933  0.5187
  199SOL    HW1  917   4.934   0.135   0.155  0.3013  0.4314  1.5961
  199SOL    HW2  918   4.993   0.006   0.237  0.0017 -0.8082 -0.0827
  200SOL     OW  919   1.225   0.167   1.804 -0.2535  0.1004 -0.0218
  200SOL    HW1  920   1.196   0.166   1.708  2.1285  0.7422 -0.8066
  200SOL    HW2  921   1.303   0.105   1.816 -0.8183 -0.3454  1.6395
  201SOL     OW  922   0.153   0.860   0.905  0.1525  0.1675 -0.8360
  201SOL    HW1  923   0.055   0.856   0.886  0.0450  1.1683 -0.5248
  201SOL    HW2  924   0.178   0.784   0.966 -0.4642  0.0386 -0.7367
  202SOL     OW  925   1.676   5.196   0.426  0.0843 -0.0571 -0.3012
  202SOL    HW1  926   1.737   5.207   0.505  0.8317 -0.0737 -0.8623
  202SOL    HW2  927   1.607   5.268   0.427  0.6497  0.4937 -0.1211
  203SOL     OW  928   5.484   1.678   2.754  0.3192 -0.0278 -0.4037
  203SOL    HW1  929   5.468   1.591   2.709  0.0716 -0.0135 -0.3413
  203SOL    HW2  930   5.517   1.745   2.687  0.3776 -0.1296 -0.4766
  204SOL     OW  931   3.324   1.581   1.047  0.2390 -0.4043 -0.0491
  204SOL    HW1  932   3.275   1.649   0.991  0.7168 -0.3072 -0.3551
  204SOL    HW2  933   3.361   1.626   1.128 -2.5400 -0.9981  1.6796
  205SOL     OW  934   1.231   3.581   1.871 -0.2946  0.1541 -0.0894
  205SOL    HW1  935   1.326   3.589   1.899 -0.0204 -2.3535 -0.0286
  205SOL    HW2  936   1.172   3.577   1.951 -0.5304  1.9866 -0.1300
  206SOL     OW  937   0.476   1.588   1.616 -0.4238  0.1412 -0.0112
  206SOL    HW1  938   0.409   1.536   1.669  2.0821 -0.7832  2.4940
  206SOL    HW2  939   0.555   1.609   1.674  1.1193  1.9013 -2.5662
  207SOL     OW  940   3.138   1.701   2.194  0.1096 -0.2765 -0.8458
  207SOL    HW1  941   3.049   1.667   2.163  0.7470 -0.5576 -2.4356
  207SOL    HW2  942   3.198   1.624   2.214 -0.1229 -0.0935  0.6848
  208SOL     OW  943   0.225   1.902   0.469 -0.0919  0.0944  0.0601
  208SOL    HW1  944   0.143   1.845   0.468 -0.2612  0.2592  1.4950
  208SOL    HW2  945   0.291   1.867   0.403  0.0516 -2.1945  1.3026
  209SOL     OW  946   1.231   3.681   0.671  0.3336 -0.2361  0.1155
  209SOL    HW1  947   1.329   3.661   0.673  0.4982  0.5410  1.5714
  209SOL    HW2  948   1.181   3.600   0.639  1.3090 -1.3250  1.2325
  210SOL     OW  949   0.036   3.250   0.575  0.2923 -0.0468 -0.3743
  210SOL    HW1  950   0.018   3.180   0.645 -0.3127  1.3790  0.9452
  210SOL    HW2  951   0.119   3.225   0.525  0.5903 -1.2668  0.6556
  211SOL     OW  952   1.597   1.098   1.988  0.2770  0.2574 -0.1013
  211SOL    HW1  953   1.557   1.113   1.897 -0.3562 -0.7968 -0.0121
  211SOL    HW2  954   1.561   1.166   2.052  0.6619  0.9521 -0.6121
  212SOL     OW  955   2.203   0.617   4.588  0.0300 -0.6352  0.6176
  212SOL    HW1  956   2.282   0.655   4.539 -1.7409  2.6039 -0.0285
  212SOL    HW2  957   2.145   0.566   4.525 -0.6139  0.8031  0.0086
  213SOL     OW  958   5.049   0.689   0.981 -0.0982 -0.4183 -0.0024
  213SOL    HW1  959   5.020   0.653   0.892  0.8305 -1.3009  0.0336
  213SOL    HW2  960   5.046   0.789   0.979  0.0803 -0.4230 -1.0836
  214SOL     OW  961   5.398   0.431   4.644  0.3213  0.1279  0.5647
  214SOL    HW1  962   5.473   0.399   4.587  0.9795  0.9372  0.9622
  214SOL    HW2  963   5.432   0.495   4.713 -0.1848 -1.9405  2.8996
  215SOL     OW  964   1.522   2.823   0.510 -0.0092 -0.1509  0.4653
  215SOL    HW1  965   1.527   2.899   0.574  0.1908 -0.2235  0.5353
  215SOL    HW2  966   1.543   2.857   0.418 -1.0403  0.1101  0.3042
  216SOL     OW  967   0.714   1.935   5.053  0.4530  0.3610 -0.5832
  216SOL    HW1  968   0.671   1.991   4.983 -1.5246 -0.7954 -0.3819
  216SOL    HW2  969   0.667   1.846   5.058  1.4113 -0.1023  1.2699
  217SOL     OW  970   1.402   0.215   0.929 -0.6422  0.4495 -0.0535
  217SOL    HW1  971   1.427   0.137   0.986 -2.9442 -2.7935 -3.0803
  217SOL    HW2  972   1.469   0.225   0.855 -1.7576 -0.5427 -1.2506
  218SOL     OW  973   0.803   0.203   1.785  0.0651  0.3646  0.3136
  218SOL    HW1  974   0.750   0.287   1.792 -1.2798 -0.5344  1.1799
  218SOL    HW2  975   0.858   0.190   1.867 -0.1950  0.0897  0.4456
  219SOL     OW  976   5.352   5.386   4.073  0.1593  0.2927  0.2602
  219SOL    HW1  977   5.440   5.431   4.087  1.3316 -0.6456 -3.2216
  219SOL    HW2  978   5.286   5.453   4.037  0.6078  0.2228 -0.7269
  220SOL     OW  979   3.780   2.048   1.546  0.1430 -0.6984 -0.6358
  220SOL    HW1  980   3.776   2.017   1.451  0.9151 -1.9874 -0.2810
  220SOL    HW2  981   3.870   2.025   1.585 -0.3178 -0.6093  0.5353
  221SOL     OW  982   2.480   4.580   0.210  0.0314 -0.1359  0.5543
  221SOL    HW1  983   2.484   4.543   0.303  1.7756 -1.5458 -0.0152
  221SOL    HW2  984   2.571   4.611   0.183  0.0750 -1.7377 -1.4153
  222SOL     OW  985   0.761   4.122   0.035  0.5396 -0.0119  0.1127
  222SOL    HW1  986   0.827   4.073   0.091 -0.1418  0.7903  1.6708
  222SOL    HW2  987   0.771   4.221   0.049 -1.8579  0.1227  1.5316
  223SOL     OW  988   1.528   1.559   0.376  0.2552 -0.0915  0.6683
  223SOL    HW1  989   1.432   1.577   0.398 -0.1539 -0.9514 -0.3324
  223SOL    HW2  990   1.573   1.519   0.455 -0.9754 -2.3686  0.3266
  224SOL     OW  991   0.814   0.775   1.020 -0.2256  0.1187  0.2103
  224SOL    HW1  992   0.717   0.789   1.039 -0.0683 -0.7277  1.8544
  224SOL    HW2  993   0.835   0.678   1.021  0.4581  0.2237 -1.2478
  225SOL     OW  994   0.418   1.816   0.301 -0.1599  0.4702  0.6564
  225SOL    HW1  995   0.466   1.759   0.367  0.5555 -1.0837 -1.0973
  225SOL    HW2  996   0.484   1.849   0.233 -0.9762  1.4757  0.3372
  226SOL     OW  997   1.225   1.482   0.972 -0.3884  0.1276 -0.2300
  226SOL    HW1  998   1.271   1.397   0.996 -1.1747 -0.5804 -1.1614
  226SOL    HW2  999   1.156   1.465   0.901 -2.5500  1.0191  1.5348
  227SOL     OW 1000   5.393   0.549   2.698 -0.5734 -0.1950  0.2258
  227SOL    HW1 1001   5.448   0.610   2.756 -0.1373 -0.0069 -0.3689
  227SOL    HW2 1002   5.343   0.604   2.631  3.2147 -0.5501 -3.3065
  228SOL     OW 1003   0.701   1.291   1.554 -0.4059  0.1463 -0.2378
  228SOL    HW1 1004   0.673   1.320   1.645  1.0747  2.0737 -0.3148
  228SOL    HW2 1005   0.659   1.203   1.531 -1.5726  0.1068  1.8864
  229SOL     OW 1006   5.180   1.144   2.699 -0.3957  0.5032  0.1304
  229SOL    HW1 1007   5.272   1.119   2.670  0.0443 -0.0695  1.9011
  229SOL    HW2 1008   5.154   1.230   2.655  0.8325  0.4862 -0.6791
  230SOL     OW 1009   1.297   5.430   1.489  0.1464 -0.2376 -0.2171
  230SOL    HW1 1010   1.289   5.423   1.389 -1.4838 -4.1424  0.0306
  230SOL    HW2 1011   1.392   5.420   1.515  0.3747 -1.2151 -1.3225
  231SOL     OW 1012   2.159   1.034   2.452 -0.8237 -0.0566  0.8826
  231SOL    HW1 1013   2.137   1.023   2.355  0.8264 -1.6856  0.6381
  231SOL    HW2 1014   2.092   0.984   2.507 -1.4958  0.4907  0.5791
  232SOL     OW 1015   1.719   3.957   5.336  0.4007  0.0529 -0.0735
  232SOL    HW1 1016   1.668   4.043   5.331  1.2136  0.6465  1.2358
  232SOL    HW2 1017   1.701   3.912   5.424  0.5049 -0.7872 -0.4688
  233SOL     OW 1018   4.838   0.755   5.123 -0.0957 -0.2180  0.3404
  233SOL    HW1 1019   4.787   0.812   5.188 -1.6779 -1.2216  0.0155
  233SOL    HW2 1020   4.828   0.792   5.031 -0.1588 -0.3655  0.2877
  234SOL     OW 1021   0.629   2.221   5.053  0.4907 -0.1304 -0.1650
  234SOL    HW1 1022   0.669   2.158   4.987  1.5693 -0.3451  0.6680
  234SOL    HW2 1023   0.700   2.255   5.115 -0.4456  0.2496  0.7364
  235SOL     OW 1024   0.599   5.452   2.054  0.1187 -1.2721 -0.1778
  235SOL    HW1 1025   0.676   5.508   2.085  0.7773 -1.7941 -0.8414
  235SOL    HW2 1026   0.613   5.427   1.958 -2.3639  1.1986 -1.3355
  236SOL     OW 1027   3.733   2.000   4.131  0.2527 -0.2009 -0.6044
  236SOL    HW1 1028   3.647   1.950   4.133  0.9478 -1.4364 -0.5281
  236SOL    HW2 1029   3.727   2.080   4.191 -0.6871 -0.5276 -0.2549
  237SOL     OW 1030   3.871   0.067   1.864 -0.1482  0.8433  0.7553
  237SOL    HW1 1031   3.835   0.074   1.771 -0.3462 -0.8829  0.6572
  237SOL    HW2 1032   3.971   0.072   1.860  0.0055 -1.3005  0.1179
  238SOL     OW 1033   5.357   1.095   4.612 -0.3219  0.4094  0.2126
  238SOL    HW1 1034   5.372   1.105   4.513 -2.3537 -1.2393 -0.3418
  238SOL    HW2 1035   5.444   1.074   4.657  0.4192 -0.2940 -1.4537
  239SOL     OW 1036   1.964   4.569   0.949 -0.4157 -0.0050  0.0110
  239SOL    HW1 1037   2.010   4.618   0.875 -0.4733  0.8399  0.5141
  239SOL    HW2 1038   1.982   4.471   0.941  2.8048  0.3955  1.0788
  240SOL     OW 1039   4.480   1.292   2.908 -0.1690  0.2595 -0.0073
  240SOL    HW1 1040   4.536   1.215   2.878  2.1609  2.1833 -0.9025
  240SOL    HW2 1041   4.456   1.280   3.005 -1.9388 -2.6558 -0.6725
  241SOL     OW 1042   1.179   0.139   1.511  0.3835 -0.0777 -0.3531
  241SOL    HW1 1043   1.233   0.196   1.449  1.1976 -0.5222 -0.0682
  241SOL    HW2 1044   1.222   0.050   1.519 -0.2246 -0.3300  0.1468
  242SOL     OW 1045   4.273   3.530   3.299 -0.2355 -0.2492  0.2024
  242SOL    HW1 1046   4.273   3.599   3.226 -1.2910 -0.4381  0.0164
  242SOL    HW2 1047   4.261   3.575   3.387  0.7153 -0.0517  0.2443
  243SOL     OW 1048   0.287   0.645   4.225 -0.6712 -0.1656  0.0093
  243SOL    HW1 1049   0.362   0.615   4.284  0.4922  0.3719 -1.1432
  243SOL    HW2 1050   0.314   0.637   4.129 -2.5214 -1.0381 -0.4944
  244SOL     OW 1051   5.099   1.312   3.627  0.1832 -0.5459 -0.2387
  244SOL    HW1 1052   5.019   1.353   3.583 -0.7647  0.0475  1.9111
  244SOL    HW2 1053   5.111   1.219   3.593  0.0968  0.1743 -2.4068
  245SOL     OW 1054   1.577   2.207   3.494  1.1162 -0.3572  0.5420
  245SOL    HW1 1055   1.620   2.125   3.458 -0.2024 -0.3732 -1.1623
  245SOL    HW2 1056   1.478   2.198   3.489  0.9184  1.7144 -0.7345
  246SOL     OW 1057   1.331   1.590   3.159  0.3300  0.1055  0.1116
  246SOL    HW1 1058   1.306   1.539   3.242 -2.4794 -0.7674 -1.1573
  246SOL    HW2 1059   1.292   1.682   3.164  2.0979  0.8733  0.6785
  247SOL     OW 1060   1.500   5.216   3.738 -0.1198 -0.3117 -0.2989
  247SOL    HW1 1061   1.547   5.304   3.741  0.6494 -0.6527 -1.6315
  247SOL    HW2 1062   1.503   5.174   3.829 -2.5664  2.0261  1.0080
  248SOL     OW 1063   0.347  -0.004   5.428 -0.5576 -0.1335  0.0557
  248SOL    HW1 1064   0.424   0.041   5.382 -0.3521  0.2058  0.7134
  248SOL    HW2 1065   0.347   0.021   5.525 -1.3887 -0.2875  0.1014
  249SOL     OW 1066   3.249   1.252   1.576  0.2487  0.3053  0.3805
  249SOL    HW1 1067   3.263   1.154   1.585 -2.7387 -0.1768  0.8129
  249SOL    HW2 1068   3.198   1.286   1.655 -0.1376  1.9089 -0.5066
  250SOL     OW 1069   0.568   2.101   1.299 -0.0876  0.0222 -0.5565
  250SOL    HW1 1070   0.595   2.182   1.352 -0.6473 -0.2740  0.1896
  250SOL    HW2 1071   0.648   2.066   1.250  0.4852  0.2000  0.2264
  251SOL     OW 1072   2.085   1.123   2.993  0.3227  0.5717  0.3374
  251SOL    HW1 1073   2.132   1.130   2.905  0.4664  1.5358  0.4755
  251SOL    HW2 1074   2.025   1.043   2.993  0.6432  0.3218 -0.4784
  252SOL     OW 1075   5.204   0.687   2.557  0.3171  0.4556  0.0394
  252SOL    HW1 1076   5.194   0.601   2.508  1.4048  0.6332 -0.5401
  252SOL    HW2 1077   5.181   0.763   2.496  0.3264  0.6180  0.2364
  253SOL     OW 1078   4.528   2.697   3.417 -0.3991 -0.5480  0.0508
  253SOL    HW1 1079   4.482   2.734   3.497  0.4233 -0.1732  0.3616
  253SOL    HW2 1080   4.618   2.662   3.443 -0.1570 -0.4973 -0.6897
  254SOL     OW 1081   2.093   1.119   1.441  0.4455 -0.0609 -0.2905
  254SOL    HW1 1082   2.007   1.127   1.492  0.1572 -3.3313 -0.0440
  254SOL    HW2 1083   2.169   1.112   1.505  0.4487 -0.9294 -0.3814
  255SOL     OW 1084   3.841   1.176   1.390  0.0951 -0.0931  0.4042
  255SOL    HW1 1085   3.830   1.079   1.370 -0.5039  0.0087  0.2342
  255SOL    HW2 1086   3.755   1.212   1.426  0.0067  0.6114 -0.5003
  256SOL     OW 1087   1.136   4.283   4.257  0.5169  0.1781 -0.1713
  256SOL    HW1 1088   1.048   4.266   4.214 -0.6222  1.2704  1.5777
  256SOL    HW2 1089   1.185   4.354   4.207 -0.1736  0.4703 -0.4403
  257SOL     OW 1090   4.381   4.908   0.934 -0.0057 -0.2053 -0.1323
  257SOL    HW1 1091   4.459   4.849   0.914  1.8432  0.9781  2.9259
  257SOL    HW2 1092   4.315   4.858   0.990  0.0776 -0.2822 -0.1020
  258SOL     OW 1093   0.248   2.608   2.753  0.4521  0.5742 -0.1226
  258SOL    HW1 1094   0.304   2.650   2.825  0.1280  1.6649 -0.4845
  258SOL    HW2 1095   0.227   2.513   2.777  2.9127 -0.0545 -0.2384
  259SOL     OW 1096   0.881   2.818   1.213 -0.4479 -0.1695 -0.2952
  259SOL    HW1 1097   0.843   2.907   1.237 -0.3205 -0.1825 -0.0363
  259SOL    HW2 1098   0.827   2.746   1.256  0.5318 -0.1494  1.0454
  260SOL     OW 1099   2.077   2.878   2.320 -0.0901  0.1876 -0.6752
  260SOL    HW1 1100   2.089   2.964   2.370 -1.2494 -0.3786  0.6298
  260SOL    HW2 1101   2.007   2.890   2.250 -0.5061  0.2102 -0.2552
  261SOL     OW 1102   2.624   5.466   3.534 -0.8485 -0.1518 -0.2496
  261SOL    HW1 1103   2.678   5.417   3.603  0.1308  1.2073  0.0013
  261SOL    HW2 1104   2.632   5.564   3.550 -0.5071  0.2026 -2.3692
  262SOL     OW 1105   4.884   1.417   3.525 -0.2279 -0.7445 -0.2367
  262SOL    HW1 1106   4.794   1.416   3.567  0.3140 -0.4329  0.9736
  262SOL    HW2 1107   4.907   1.511   3.498 -0.4755 -0.9056 -1.0232
  263SOL     OW 1108   1.508   5.449   2.573 -0.2995 -0.0679 -0.1240
  263SOL    HW1 1109   1.559   5.531   2.595  2.0694 -0.5186 -3.2198
  263SOL    HW2 1110   1.410   5.465   2.588  0.0297  3.4490 -0.9260
  264SOL     OW 1111   0.821   0.568   3.867 -0.3120  0.5960 -0.2487
  264SOL    HW1 1112   0.799   0.470   3.870 -0.2813  0.4898 -2.3473
  264SOL    HW2 1113   0.737   0.621   3.860 -0.2261  0.5626 -1.6618
  265SOL     OW 1114   1.900   0.169   2.879  0.2255 -0.3293 -0.1448
  265SOL    HW1 1115   1.988   0.213   2.898 -0.4648  1.1557 -0.3098
  265SOL    HW2 1116   1.847   0.161   2.964 -1.2739  2.8305 -0.6609
  266SOL     OW 1117   5.294   0.379   1.073  0.2069 -0.2030 -0.0784
  266SOL    HW1 1118   5.252   0.457   1.120  0.7198 -0.2585  0.4822
  266SOL    HW2 1119   5.252   0.369   0.983 -0.7426 -0.0530  0.3305
  267SOL     OW 1120   1.459   5.544   1.796  0.2955  0.1213  0.4334
  267SOL    HW1 1121   1.464   5.444   1.790 -1.2954 -0.0254  1.1786
  267SOL    HW2 1122   1.551   5.581   1.812  0.8182 -1.2543  0.7341
  268SOL     OW 1123   1.888   1.569   3.235 -0.1428  0.2031 -0.2235
  268SOL    HW1 1124   1.906   1.475   3.267 -2.9662 -0.2316  0.3164
  268SOL    HW2 1125   1.797   1.573   3.196  0.5153  2.4384 -1.6609
  269SOL     OW 1126   0.507   5.061   4.102  0.4013  0.6954 -0.5027
  269SOL    HW1 1127   0.495   5.041   4.200  1.1958  2.5081  0.0014
  269SOL    HW2 1128   0.540   4.979   4.056  2.5398  0.4797  1.2612
  270SOL     OW 1129   0.834   0.831   2.090  0.1021  0.2523  0.4789
  270SOL    HW1 1130   0.809   0.926   2.073  0.5217  0.2228 -0.3589
  270SOL    HW2 1131   0.929   0.816   2.063  0.0977 -0.3597  0.7806
  271SOL     OW 1132   0.883   2.571   3.213  0.0889 -0.1965 -0.6675
  271SOL    HW1 1133   0.860   2.518   3.295 -1.9682 -0.1226 -1.1547
  271SOL    HW2 1134   0.967   2.534   3.173 -1.4111 -3.4354 -1.1821
  272SOL     OW 1135   5.509   5.399   1.943  0.1173 -0.4232  0.2505
  272SOL    HW1 1136   5.411   5.408   1.959 -0.2570 -0.4859 -1.7304
  272SOL    HW2 1137   5.539   5.307   1.966 -0.7688 -1.1091 -1.2141
  273SOL     OW 1138   1.100   1.071   1.948  0.2841  0.0341 -0.4946
  273SOL    HW1 1139   1.080   1.112   1.859 -1.8499  1.6326  0.6370
  273SOL    HW2 1140   1.140   1.140   2.008 -1.1490 -0.1525  0.7217
  274SOL     OW 1141   5.340   1.738   2.440 -0.4652 -0.7112  0.3809
  274SOL    HW1 1142   5.375   1.824   2.478  1.5397 -1.6431  0.7995
  274SOL    HW2 1143   5.253   1.715   2.484 -0.5728  0.6349  0.9200
  275SOL     OW 1144   4.655   0.423   2.337 -0.3319 -0.0082  0.2283
  275SOL    HW1 1145   4.692   0.438   2.245 -0.1084 -0.5386  0.2305
  275SOL    HW2 1146   4.583   0.354   2.334 -0.8771  0.5451  0.3332
  276SOL     OW 1147   0.314   4.839   4.001  0.1403  0.5692 -0.0669
  276SOL    HW1 1148   0.310   4.939   4.008 -0.6615  0.7171 -2.0176
  276SOL    HW2 1149   0.247   4.808   3.934  0.8883 -1.2438 -0.0294
  277SOL     OW 1150   0.916   0.659   3.637  0.2430 -0.2727 -0.0694
  277SOL    HW1 1151   0.838   0.630   3.582 -0.4867  0.5761  0.4954
  277SOL    HW2 1152   0.898   0.639   3.734  1.4334 -1.5855 -0.0772
  278SOL     OW 1153   4.913   1.682   1.328  0.2180  0.4430  0.5106
  278SOL    HW1 1154   4.841   1.742   1.364  1.0531  1.1372  1.0433
  278SOL    HW2 1155   4.873   1.594   1.304 -0.8539  0.8812  0.6044
  279SOL     OW 1156   2.037   0.586   3.932 -0.8443 -0.1852  0.0261
  279SOL    HW1 1157   2.097   0.514   3.964 -1.8964 -1.6694 -1.2123
  279SOL    HW2 1158   1.945   0.572   3.968 -1.8534 -1.4022 -2.6974
  280SOL     OW 1159   5.249   1.177   1.423  0.4290  0.6396 -0.4831
  280SOL    HW1 1160   5.165   1.169   1.370 -0.4610  0.8424  0.8548
  280SOL    HW2 1161   5.280   1.086   1.451 -0.8945  0.6938  1.3239
  281SOL     OW 1162   1.772   1.502   0.519  0.0468 -0.0920 -0.0416
  281SOL    HW1 1163   1.836   1.516   0.444  0.2752  1.2100  0.3682
  281SOL    HW2 1164   1.789   1.413   0.562  0.2145 -0.6489 -1.2165
  282SOL     OW 1165   0.215   4.624   1.793 -0.8538 -0.4970 -0.4331
  282SOL    HW1 1166   0.116   4.618   1.783 -1.0353  1.5213 -0.2718
  282SOL    HW2 1167   0.260   4.583   1.714 -1.8472 -0.1056 -1.2104
  283SOL     OW 1168   0.260   0.379   3.068 -0.0873 -0.1288 -0.1144
  283SOL    HW1 1169   0.240   0.469   3.029  1.2126  0.7453  1.1470
  283SOL    HW2 1170   0.212   0.368   3.155 -0.7504 -0.9302 -0.5682
  284SOL     OW 1171   0.390   0.470   2.306 -0.1179  0.3988 -0.6498
  284SOL    HW1 1172   0.324   0.405   2.342  0.7975 -1.1182 -1.6008
  284SOL    HW2 1173   0.439   0.513   2.382 -0.0422 -0.7706 -0.0089
  285SOL     OW 1174   1.378   0.649   2.400  0.4651  0.5770  0.4317
  285SOL    HW1 1175   1.284   0.634   2.368  0.2696  2.8823 -0.2793
  285SOL    HW2 1176   1.419   0.561   2.424 -1.8038 -0.5179  0.6321
  286SOL     OW 1177   1.052   1.166   1.692  0.2430 -0.5921 -0.3059
  286SOL    HW1 1178   1.043   1.238   1.624  1.6236 -0.5576 -0.4811
  286SOL    HW2 1179   0.963   1.123   1.708 -0.4260  0.5674 -0.8302
  287SOL     OW 1180   0.817   0.617   2.258 -0.1869  0.5961 -0.4084
  287SOL    HW1 1181   0.833   0.701   2.206 -1.9889  1.3996  0.2171
  287SOL    HW2 1182   0.753   0.559   2.207 -0.3196  0.4322 -0.0586
  288SOL     OW 1183   0.239   0.353   2.730 -0.6782  0.6243  0.2238
  288SOL    HW1 1184   0.169   0.362   2.801 -0.3245  1.3548  0.4898
  288SOL    HW2 1185   0.275   0.443   2.707 -0.1801  0.3051 -0.2701
  289SOL     OW 1186   2.193   1.522   0.685  0.3320  0.1005 -0.1751
  289SOL    HW1 1187   2.156   1.446   0.631  1.1588 -1.7696  1.7815
  289SOL    HW2 1188   2.123   1.555   0.748  0.1564  0.6203 -0.6299
  290SOL     OW 1189   0.026   0.066   2.159 -0.0183  0.1155  0.1669
  290SOL    HW1 1190   0.003   0.006   2.082 -0.0519  1.1796 -0.6643
  290SOL    HW2 1191   0.118   0.042   2.193  0.4541  0.3457 -0.9091
  291SOL     OW 1192   0.833   4.772   2.259  0.3980 -0.5742 -0.0222
  291SOL    HW1 1193   0.734   4.771   2.270  0.3006 -0.1300 -0.7653
  291SOL    HW2 1194   0.876   4.792   2.347 -0.1677 -0.7427  0.2992
  292SOL     OW 1195   0.714   5.307   3.768 -0.0198  0.5513 -0.1552
  292SOL    HW1 1196   0.803   5.319   3.725  1.2300 -0.5746  1.9324
  292SOL    HW2 1197   0.716   5.226   3.828 -1.4872  2.1592  2.2693
  293SOL     OW 1198   0.075   0.434   3.278 -0.1741  0.2106  0.5219
  293SOL    HW1 1199   0.020   0.468   3.355  0.1896 -2.0438  1.8483
  293SOL    HW2 1200   0.015   0.395   3.209 -0.3497 -0.9235  1.2959
  294SOL     OW 1201   0.896   0.111   1.552 -0.3085  0.2345  0.0212
  294SOL    HW1 1202   0.992   0.136   1.539  0.6847 -2.8215  0.6067
  294SOL    HW2 1203   0.866   0.138   1.643  0.8558 -0.9823  0.8038
  295SOL     OW 1204   2.985   1.831   2.001  0.2448 -0.5612 -0.1091
  295SOL    HW1 1205   2.957   1.804   1.909 -0.6715 -1.6698  0.4725
  295SOL    HW2 1206   3.084   1.845   2.004  0.1603  0.5268 -1.5037
  296SOL     OW 1207   1.418   1.876   1.739 -0.0558 -0.1408 -0.0820
  296SOL    HW1 1208   1.416   1.968   1.702 -0.2550 -0.2232 -0.2809
  296SOL    HW2 1209   1.511   1.839   1.733  0.0150  0.0329 -0.0365
  297SOL     OW 1210   1.683   4.393   2.541  0.3730 -0.3967  0.3176
  297SOL    HW1 1211   1.650   4.341   2.620 -0.0888 -0.2436  0.2322
  297SOL    HW2 1212   1.615   4.387   2.467  0.1327  0.6396  0.4418
  298SOL     OW 1213   3.822   0.602   1.766 -0.4083  0.5300  0.3067
  298SOL    HW1 1214   3.846   0.531   1.832 -0.9789 -0.1644 -0.2205
  298SOL    HW2 1215   3.723   0.601   1.749 -0.5109  1.8005  0.6783
  299SOL     OW 1216   0.302   0.816   3.086 -0.1266  0.3423 -0.1770
  299SOL    HW1 1217   0.396   0.851   3.083 -0.8182  2.2510 -1.0344
  299SOL    HW2 1218   0.244   0.880   3.135 -0.7196 -1.6274  1.8265
  300SOL     OW 1219   5.412   1.145   0.748 -0.5848 -0.1220 -0.4503
  300SOL    HW1 1220   5.488   1.193   0.793  0.0322 -0.2649 -1.3015
  300SOL    HW2 1221   5.327   1.195   0.763 -0.1875  0.4657 -0.1207
  301SOL     OW 1222   1.654   1.088   4.636  0.5894  0.0969  0.0705
  301SOL    HW1 1223   1.691   1.079   4.729 -0.1635  1.3182  0.5080
  301SOL    HW2 1224   1.623   0.998   4.605  1.2461 -0.4096  0.8267
  302SOL     OW 1225   0.525   0.168   1.021 -0.0104 -0.3316 -0.5019
  302SOL    HW1 1226   0.606   0.123   1.059  0.4992 -0.1068 -1.3095
  302SOL    HW2 1227   0.535   0.176   0.922 -0.8817 -0.0152 -0.5672
  303SOL     OW 1228   0.399   5.400   3.479  0.0709 -0.4008  0.0332
  303SOL    HW1 1229   0.386   5.305   3.505  0.5916 -0.6270 -0.5043
  303SOL    HW2 1230   0.348   5.419   3.395  0.4686 -0.3788 -0.2069
  304SOL     OW 1231   3.001   0.314   2.443 -0.1227  0.3758  0.0010
  304SOL    HW1 1232   3.037   0.241   2.384 -0.5163  0.2771 -0.1203
  304SOL    HW2 1233   2.907   0.292   2.470  0.1082  0.3360  0.8040
  305SOL     OW 1234   0.319   0.592   3.263  0.4247  0.5380  0.4538
  305SOL    HW1 1235   0.275   0.671   3.221  0.8732  0.8827  0.6257
  305SOL    HW2 1236   0.250   0.523   3.285  0.2751 -0.0976 -1.7740
  306SOL     OW 1237   1.885   1.157   1.166 -0.5468  0.0578  0.4135
  306SOL    HW1 1238   1.832   1.146   1.082 -1.2521 -3.0037  1.1280
  306SOL    HW2 1239   1.845   1.230   1.222 -0.5003  1.6328 -1.5250
  307SOL     OW 1240   5.019   0.244   3.747  0.0019 -0.5843  0.5191
  307SOL    HW1 1241   5.025   0.318   3.813  0.2097 -0.6594  0.5842
  307SOL    HW2 1242   4.928   0.202   3.752 -0.2920 -0.0085  0.1294
  308SOL     OW 1243   4.855   1.437   2.890  0.8258  0.2075 -0.4719
  308SOL    HW1 1244   4.761   1.464   2.913 -0.0150 -2.7671 -0.0949
  308SOL    HW2 1245   4.907   1.423   2.974  1.2352  0.6034 -0.6569
  309SOL     OW 1246   0.707   1.058   2.391  0.2314 -0.2745 -0.0755
  309SOL    HW1 1247   0.734   1.147   2.355 -0.7631  0.5032  1.0257
  309SOL    HW2 1248   0.677   0.999   2.316  0.7797  0.3589 -0.7991
  310SOL     OW 1249   0.686   5.066   2.262  0.7729  0.5441 -0.1802
  310SOL    HW1 1250   0.655   4.984   2.310  0.3130  1.6511  1.4702
  310SOL    HW2 1251   0.707   5.042   2.167  1.1403 -1.5794  0.3800
  311SOL     OW 1252   1.285   4.738   3.714 -0.5143 -0.2083  0.2884
  311SOL    HW1 1253   1.343   4.783   3.646 -0.1867 -1.4348 -0.2656
  311SOL    HW2 1254   1.211   4.800   3.740  1.5447  1.8453  1.7908
  312SOL     OW 1255   5.338   1.164   2.389  0.2268 -0.3841 -0.7501
  312SOL    HW1 1256   5.399   1.241   2.373 -0.3751  0.3855  0.5804
  312SOL    HW2 1257   5.249   1.182   2.348  0.3562 -0.7757 -1.2183
  313SOL     OW 1258   4.527   2.033   2.690  0.3971 -0.3408 -0.6813
  313SOL    HW1 1259   4.497   2.029   2.785  1.4293  0.0866 -0.3220
  313SOL    HW2 1260   4.534   1.940   2.653 -1.6169 -0.4562 -0.8936
  314SOL     OW 1261   0.126   4.659   2.522  0.2087  0.0410  0.0209
  314SOL    HW1 1262   0.099   4.624   2.612 -1.5945 -1.3303 -0.9821
  314SOL    HW2 1263   0.198   4.602   2.484  1.0337  0.6728  0.5978
  315SOL     OW 1264   2.498   3.458   1.247  0.0331 -0.0682 -0.1221
  315SOL    HW1 1265   2.503   3.555   1.224 -1.3616  0.4234  1.4197
  315SOL    HW2 1266   2.487   3.447   1.346 -0.3241 -1.7840 -0.3067
  316SOL     OW 1267   1.774   0.478   2.417  0.3208  0.2729 -0.5506
  316SOL    HW1 1268   1.713   0.461   2.494  0.9382  2.1077  0.3999
  316SOL    HW2 1269   1.732   0.545   2.355  1.3762  1.6675  0.1924
  317SOL     OW 1270   5.243   0.366   3.955 -0.5315 -0.8118 -0.5336
  317SOL    HW1 1271   5.213   0.341   4.047  0.8644  0.2863  0.2644
  317SOL    HW2 1272   5.343   0.358   3.949 -0.3087  1.6475 -1.0853
  318SOL     OW 1273   0.043   0.291   3.957 -0.0228 -0.2423  0.1313
  318SOL    HW1 1274  -0.007   0.264   4.039  0.3603  0.7012  0.6894
  318SOL    HW2 1275   0.062   0.389   3.961 -0.3836 -0.0908 -1.2905
  319SOL     OW 1276   5.472   1.037   1.603 -0.4047  0.3548 -0.1737
  319SOL    HW1 1277   5.517   0.963   1.652 -1.2500 -0.5228 -0.6878
  319SOL    HW2 1278   5.421   1.000   1.525  0.8200  1.6850 -1.6788
  320SOL     OW 1279   1.169   4.409   3.301 -0.1481 -0.6101 -0.2869
  320SOL    HW1 1280   1.267   4.409   3.322  0.1226  1.4480 -1.3270
  320SOL    HW2 1281   1.156   4.426   3.203 -1.5503  2.8175  0.3569
  321SOL     OW 1282   0.691   1.617   1.802  0.7400 -0.3152  0.0403
  321SOL    HW1 1283   0.778   1.664   1.789  0.0530  1.0895  0.2976
  321SOL    HW2 1284   0.697   1.555   1.880  1.5442 -0.3403 -0.0362
  322SOL     OW 1285   1.351   4.814   2.766 -0.8367 -0.2341 -0.1289
  322SOL    HW1 1286   1.292   4.868   2.825  0.7987  1.7077 -0.1427
  322SOL    HW2 1287   1.336   4.839   2.671  0.2384  0.6001 -0.1053
  323SOL     OW 1288   1.467   5.241   2.974 -0.2760  0.5907  0.3925
  323SOL    HW1 1289   1.549   5.295   2.991  0.3756 -0.1777 -0.2376
  323SOL    HW2 1290   1.463   5.215   2.877 -0.0001 -1.3682  0.8554
  324SOL     OW 1291   3.749   5.332   2.176 -0.2506 -0.1505  0.2082
  324SOL    HW1 1292   3.708   5.415   2.138 -0.1564 -0.2820 -0.1909
  324SOL    HW2 1293   3.847   5.348   2.191  0.3539 -0.9951 -2.3555
  325SOL     OW 1294   1.614   0.968   2.417  0.3327 -0.6237  0.3357
  325SOL    HW1 1295   1.524   1.001   2.389  0.1749  0.1498  1.6537
  325SOL    HW2 1296   1.650   1.027   2.489  1.4038 -1.5875  0.6219
  326SOL     OW 1297   0.303   0.954   4.506  0.2300 -0.3227  0.2738
  326SOL    HW1 1298   0.345   0.978   4.593 -0.2638 -1.2678  0.7902
  326SOL    HW2 1299   0.225   0.893   4.522  0.5222 -1.0355 -0.8655
  327SOL     OW 1300   0.200   3.317   2.513  0.7009 -0.6377 -0.3286
  327SOL    HW1 1301   0.196   3.406   2.468  2.2351 -1.2591 -1.8015
  327SOL    HW2 1302   0.145   3.251   2.461 -0.0643 -0.6763  0.5047
  328SOL     OW 1303   2.056   2.684   3.834 -0.1325 -0.2609 -0.0422
  328SOL    HW1 1304   2.054   2.586   3.858 -0.0057  0.3009  2.5632
  328SOL    HW2 1305   1.987   2.702   3.764 -1.5655 -1.9195  0.8441
  329SOL     OW 1306   1.999   0.393   1.341  0.0259  0.3065  0.2705
  329SOL    HW1 1307   2.032   0.381   1.247  1.1366 -0.7188  0.7486
  329SOL    HW2 1308   2.003   0.305   1.389 -0.4837  0.8167  1.2975
  330SOL     OW 1309   1.227   2.537   3.315  0.0991  0.4592  0.2433
  330SOL    HW1 1310   1.158   2.601   3.279 -1.6519 -1.1487  0.6020
  330SOL    HW2 1311   1.280   2.500   3.239  0.2054  1.2771 -0.0993
  331SOL     OW 1312   1.606   1.533   3.216  0.2396  0.5141  0.4262
  331SOL    HW1 1313   1.625   1.546   3.313 -0.3416  1.3973  0.4355
  331SOL    HW2 1314   1.508   1.549   3.199  0.4800  1.1483 -0.4219
  332SOL     OW 1315   1.330   1.759   2.737 -0.0765  0.0951 -0.2538
  332SOL    HW1 1316   1.315   1.821   2.660 -0.0856  0.1310 -0.2236
  332SOL    HW2 1317   1.400   1.797   2.797 -0.2015  0.1588 -0.1465
  333SOL     OW 1318   1.680   4.740   3.484  0.2599 -0.2907 -0.3649
  333SOL    HW1 1319   1.595   4.733   3.431  1.0241  0.9537 -1.8000
  333SOL    HW2 1320   1.678   4.823   3.540 -0.0861 -1.0566  0.8201
  334SOL     OW 1321   1.526   5.146   4.301  0.0998  0.1441 -0.7043
  334SOL    HW1 1322   1.610   5.159   4.353 -0.2410 -0.7391  0.0967
  334SOL    HW2 1323   1.448   5.177   4.355 -0.0835  1.1358 -1.5195
  335SOL     OW 1324   5.402   1.054   3.545  0.2354 -0.6271 -0.4171
  335SOL    HW1 1325   5.328   1.064   3.479 -0.6911 -1.2661  0.5084
  335SOL    HW2 1326   5.398   0.964   3.588 -1.6199  0.9996  3.3169
  336SOL     OW 1327   0.295   0.121   3.299  0.0462  0.7345  0.0782
  336SOL    HW1 1328   0.205   0.163   3.314  0.2166  1.2306 -0.2399
  336SOL    HW2 1329   0.366   0.178   3.341  0.4207  1.5660 -1.5742
  337SOL     OW 1330   5.546   3.635   2.591  0.8776  0.4449 -0.3194
  337SOL    HW1 1331   5.447   3.647   2.601  1.0170  0.1756  1.8226
  337SOL    HW2 1332   5.572   3.649   2.495 -1.1664  0.8909 -0.8515
  338SOL     OW 1333   1.318   2.003   2.070 -0.3471  0.0606  0.2431
  338SOL    HW1 1334   1.386   2.041   2.007 -0.1325  0.1879  0.5464
  338SOL    HW2 1335   1.271   2.077   2.117  2.2045  0.0440  3.1204
  339SOL     OW 1336   0.014   2.802   3.498 -0.4950  0.3919  0.2201
  339SOL    HW1 1337   0.110   2.817   3.473 -0.6305  0.3955 -0.3071
  339SOL    HW2 1338  -0.022   2.725   3.446 -1.2045  1.3178 -0.7069
  340SOL     OW 1339   0.821   5.431   2.626 -0.0093 -0.1026 -0.5897
  340SOL    HW1 1340   0.817   5.509   2.689 -0.9881 -1.0448  0.5727
  340SOL    HW2 1341   0.880   5.360   2.665  0.3356 -0.2254 -1.3202
  341SOL     OW 1342   5.381   0.918   1.361 -0.1947 -0.4289 -0.6427
  341SOL    HW1 1343   5.454   0.959   1.305  2.4851 -0.8322  2.2700
  341SOL    HW2 1344   5.375   0.820   1.341 -1.5901 -0.0067 -2.4910
  342SOL     OW 1345   1.506   3.756   2.389  0.0001  0.3186 -0.3765
  342SOL    HW1 1346   1.419   3.786   2.348 -0.2084 -1.8256 -1.6780
  342SOL    HW2 1347   1.564   3.716   2.318  1.7854  1.0492  0.6062
  343SOL     OW 1348   0.195   1.002   3.258  0.4647  0.2009 -0.0713
  343SOL    HW1 1349   0.291   1.027   3.244  0.5955 -0.2386  0.0091
  343SOL    HW2 1350   0.171   1.016   3.354  0.7672 -0.7081  0.1511
  344SOL     OW 1351   0.561   1.420   0.862 -0.4496 -0.1199 -0.3299
  344SOL    HW1 1352   0.576   1.353   0.936 -0.8219 -0.9363 -0.9787
  344SOL    HW2 1353   0.483   1.390   0.806  0.8440 -0.4058 -2.0531
  345SOL     OW 1354   1.246   0.087   3.108  0.6023 -0.0086 -0.0876
  345SOL    HW1 1355   1.306   0.037   3.045  0.6234 -1.0157  0.6923
  345SOL    HW2 1356   1.169   0.126   3.057  1.1913  0.1325 -0.8934
  346SOL     OW 1357   0.275   1.344   3.071  0.1146 -0.1098 -0.2806
  346SOL    HW1 1358   0.240   1.251   3.063 -0.6180  0.2667 -2.0735
  346SOL    HW2 1359   0.233   1.389   3.149  0.0510 -1.0790  0.2662
  347SOL     OW 1360   1.085   4.739   4.915 -0.2257  1.0661 -0.4097
  347SOL    HW1 1361   1.081   4.750   5.014  1.3777  2.1798 -0.4372
  347SOL    HW2 1362   1.098   4.643   4.892  1.6932  1.0372  0.5858
  348SOL     OW 1363   1.204   5.108   3.363  0.3694  0.2650  0.0402
  348SOL    HW1 1364   1.258   5.087   3.282 -0.5464 -0.1663 -0.4695
  348SOL    HW2 1365   1.125   5.164   3.337  0.0200  0.0482  0.6233
  349SOL     OW 1366   2.392   3.388   1.502  0.3260  0.2477 -0.5604
  349SOL    HW1 1367   2.430   3.306   1.545  1.7069  0.4682 -1.2929
  349SOL    HW2 1368   2.317   3.362   1.441 -1.0780 -0.1532  1.2432
  350SOL     OW 1369   1.549   5.066   3.361 -0.0494  0.3293  0.3022
  350SOL    HW1 1370   1.585   5.076   3.268 -0.4616 -0.5912  0.0290
  350SOL    HW2 1371   1.499   5.149   3.386 -0.7592  0.2146 -0.6744
  351SOL     OW 1372   2.583   1.173   4.639  0.6008 -0.0440 -0.6828
  351SOL    HW1 1373   2.604   1.146   4.733 -1.7617  0.0636 -0.0542
  351SOL    HW2 1374   2.604   1.270   4.626 -0.2232  0.2676  0.1675
  352SOL     OW 1375   4.738   3.384   1.894  0.0108 -0.1368  0.4153
  352SOL    HW1 1376   4.679   3.465   1.891  1.4263  0.9566  1.0908
  352SOL    HW2 1377   4.756   3.352   1.801  1.3446  1.7898 -0.0536
  353SOL     OW 1378   0.812   1.586   4.494  0.0092  0.2275 -0.4085
  353SOL    HW1 1379   0.809   1.524   4.573  0.7136 -0.9342 -1.2626
  353SOL    HW2 1380   0.905   1.619   4.482 -0.4387  1.8629  0.3061
  354SOL     OW 1381   0.331   0.839   1.812 -0.2304  0.1640 -0.4366
  354SOL    HW1 1382   0.280   0.925   1.825 -1.3549 -0.6016  0.3919
  354SOL    HW2 1383   0.415   0.842   1.865 -0.7414  0.3743  0.3779
  355SOL     OW 1384   2.755   0.284   4.839  0.1686 -0.5648 -0.2644
  355SOL    HW1 1385   2.748   0.368   4.785 -0.2639 -0.9263 -0.7880
  355SOL    HW2 1386   2.664   0.246   4.852  0.3293 -0.7696  0.2630
  356SOL     OW 1387   0.853   0.033   3.982  0.3287  0.2270 -0.1937
  356SOL    HW1 1388   0.942   0.026   3.938  0.6595 -0.3964  0.5465
  356SOL    HW2 1389   0.865   0.058   4.078 -0.3266  0.6490 -0.2086
  357SOL     OW 1390   1.457   0.808   0.439  0.0288 -0.5219 -0.0976
  357SOL    HW1 1391   1.477   0.904   0.419 -0.1393 -0.3547  0.5078
  357SOL    HW2 1392   1.358   0.798   0.456  0.3963 -0.2361  2.7219
  358SOL     OW 1393   1.287   0.823   4.522 -0.6082  0.4214  0.6013
  358SOL    HW1 1394   1.295   0.882   4.441 -1.2861 -0.6947 -0.3271
  358SOL    HW2 1395   1.281   0.879   4.604  0.6754  1.5826 -0.0595
  359SOL     OW 1396   1.102   2.039   1.635 -0.1380 -0.2609  0.4218
  359SOL    HW1 1397   1.087   2.138   1.642 -0.3220 -0.2518 -0.0751
  359SOL    HW2 1398   1.015   1.991   1.640 -0.2116 -0.2994 -0.8649
  360SOL     OW 1399   2.997   1.547   3.767 -0.4269  0.9058  0.5623
  360SOL    HW1 1400   3.000   1.469   3.829 -1.6309  2.2124  2.3758
  360SOL    HW2 1401   2.905   1.587   3.767  0.0474  2.0831 -0.6313
  361SOL     OW 1402   0.864   1.248   3.023  0.5393  0.7339 -0.3568
  361SOL    HW1 1403   0.962   1.252   3.039  0.6048  1.0393 -0.8177
  361SOL    HW2 1404   0.846   1.196   2.939  0.3037  0.6217 -0.2386
  362SOL     OW 1405   4.775   0.581   1.465  0.1381 -0.8295 -0.2923
  362SOL    HW1 1406   4.807   0.520   1.392 -0.5414 -0.8199 -0.6027
  362SOL    HW2 1407   4.687   0.549   1.500 -0.4439  0.2107 -0.7586
  363SOL     OW 1408   4.953   0.028   2.908  0.0120  0.0277 -0.7195
  363SOL    HW1 1409   5.011   0.099   2.867  0.2064  1.0094  1.1397
  363SOL    HW2 1410   4.858   0.044   2.882  0.0832  0.8469 -0.4996
  364SOL     OW 1411   2.185   2.272   2.060  0.1701 -0.2540  0.0163
  364SOL    HW1 1412   2.228   2.191   2.099  0.2600 -0.3787 -0.3344
  364SOL    HW2 1413   2.185   2.264   1.960 -3.1588 -1.5970 -0.0220
  365SOL     OW 1414   0.314   2.015   2.598  0.3049 -0.0093  0.7028
  365SOL    HW1 1415   0.289   1.919   2.597 -2.8257  0.6947 -0.0939
  365SOL    HW2 1416   0.337   2.045   2.505  1.0259  0.0695  0.9040
  366SOL     OW 1417   5.044   4.991   3.058 -0.0988 -0.1098 -0.4235
  366SOL    HW1 1418   5.059   5.087   3.082 -0.9060  0.3301 -1.6231
  366SOL    HW2 1419   4.993   4.985   2.972 -2.4137 -1.5936  0.9530
  367SOL     OW 1420   2.530   0.567   4.396  0.5307  0.1045  0.4500
  367SOL    HW1 1421   2.458   0.636   4.401 -0.6624 -1.1093  0.7613
  367SOL    HW2 1422   2.502   0.486   4.447  2.0016 -0.5346  0.3110
  368SOL     OW 1423   0.308   0.548   3.961  0.3483  0.0558  0.5458
  368SOL    HW1 1424   0.365   0.472   3.992  0.3072 -1.1593 -2.0544
  368SOL    HW2 1425   0.357   0.600   3.891 -0.9397  0.2135 -0.2752
  369SOL     OW 1426   0.267   0.054   1.305  0.4160  0.1413 -0.0633
  369SOL    HW1 1427   0.171   0.070   1.328 -0.5542 -3.0023 -1.4162
  369SOL    HW2 1428   0.275   0.037   1.207  1.5952 -3.5927  0.5114
  370SOL     OW 1429   5.097   3.318   2.820  0.0667  0.1364 -0.1065
  370SOL    HW1 1430   5.100   3.323   2.720  2.1584  0.0480 -0.0910
  370SOL    HW2 1431   5.088   3.410   2.858 -0.4378  0.1952 -0.3578
  371SOL     OW 1432   0.677   2.696   1.570  0.2577 -0.3125  0.0427
  371SOL    HW1 1433   0.702   2.675   1.475 -1.1747 -0.7740 -0.2606
  371SOL    HW2 1434   0.724   2.633   1.631 -1.2057 -2.1612 -0.6210
  372SOL     OW 1435   0.329   1.500   1.833  0.0130 -0.1602 -0.0642
  372SOL    HW1 1436   0.411   1.443   1.821  0.2619  0.1946 -0.0571
  372SOL    HW2 1437   0.292   1.486   1.925 -0.5322 -1.0965 -0.4127
  373SOL     OW 1438   3.963   1.438   1.774  0.1784 -0.1546 -0.6789
  373SOL    HW1 1439   4.034   1.415   1.707 -0.1804 -3.3911 -0.1186
  373SOL    HW2 1440   3.988   1.400   1.863 -0.2504  2.4526  0.6421
  374SOL     OW 1441   4.934   0.805   4.606  0.3118 -0.5950  0.2971
  374SOL    HW1 1442   4.843   0.843   4.617  0.0693 -0.9827 -0.3194
  374SOL    HW2 1443   4.989   0.867   4.549  1.2082  0.8364  2.5602
  375SOL     OW 1444   1.639   0.705   3.517  0.7224 -0.5248  0.1950
  375SOL    HW1 1445   1.599   0.796   3.527  0.2318 -0.8840  2.0763
  375SOL    HW2 1446   1.738   0.712   3.520  0.7003 -0.0190 -0.1139
  376SOL     OW 1447   1.366   3.772   1.030  0.3512  0.0438  0.0509
  376SOL    HW1 1448   1.391   3.799   1.123  0.6857 -1.7720  0.5254
  376SOL    HW2 1449   1.287   3.712   1.033  0.0357  0.3917 -0.9028
  377SOL     OW 1450   4.978   1.138   3.929  0.4604  0.6112 -0.0864
  377SOL    HW1 1451   4.972   1.235   3.954 -0.2233  0.2261  1.3141
  377SOL    HW2 1452   4.907   1.087   3.976  0.3938 -0.4932 -1.3263
  378SOL     OW 1453   2.418   4.778   3.356 -0.1812  0.1569  0.0154
  378SOL    HW1 1454   2.497   4.773   3.417  0.4059 -0.3186 -0.7592
  378SOL    HW2 1455   2.377   4.688   3.349  1.4897 -0.5140 -2.4804
  379SOL     OW 1456   0.349   0.125   1.831 -0.0221  0.1650 -0.5481
  379SOL    HW1 1457   0.323   0.218   1.806  1.8762  0.8638 -0.0370
  379SOL    HW2 1458   0.416   0.090   1.765 -0.8102 -0.9124 -0.8069
  380SOL     OW 1459   4.216   0.461   2.914  0.5185 -0.1706  0.4673
  380SOL    HW1 1460   4.280   0.430   2.843  0.2050  0.3938 -0.0764
  380SOL    HW2 1461   4.126   0.476   2.873  0.0658 -0.8247  1.1988
  381SOL     OW 1462   0.131   1.423   1.539 -0.1709  0.2136 -0.1903
  381SOL    HW1 1463   0.140   1.513   1.582 -0.1386  0.0262  0.1969
  381SOL    HW2 1464   0.101   1.435   1.444 -1.1716  0.5895  0.1525
  382SOL     OW 1465   1.971   3.618   4.183  0.8483  0.1616 -0.1167
  382SOL    HW1 1466   2.027   3.568   4.248 -1.0082 -2.6184 -0.4994
  382SOL    HW2 1467   1.981   3.577   4.092  1.2641  2.2228 -1.0677
  383SOL     OW 1468   1.329   2.881   0.200 -0.6421  0.0651  0.1810
  383SOL    HW1 1469   1.322   2.782   0.199  0.9829 -0.1158  1.3662
  383SOL    HW2 1470   1.384   2.912   0.123 -1.1185  0.0574 -0.1675
  384SOL     OW 1471   3.655   2.291   2.027  0.0500  0.1592  0.1952
  384SOL    HW1 1472   3.583   2.322   1.965 -1.9272 -0.2514  2.1515
  384SOL    HW2 1473   3.696   2.207   1.990 -0.4352  0.4024 -0.9607
  385SOL     OW 1474   1.270   1.258   1.155  0.1156  0.4895  0.0851
  385SOL    HW1 1475   1.275   1.161   1.131 -1.0338 -0.2997  2.6210
  385SOL    HW2 1476   1.174   1.284   1.165  0.2698  2.5234 -2.5277
  386SOL     OW 1477   1.208   2.820   1.584 -0.2828 -0.1971  0.0321
  386SOL    HW1 1478   1.133   2.816   1.650  1.1668  0.4370  1.8062
  386SOL    HW2 1479   1.211   2.911   1.542  0.8491  0.5600  1.6805
  387SOL     OW 1480   1.923   1.316   3.066 -0.3226 -0.3012 -0.7357
  387SOL    HW1 1481   1.920   1.301   3.165  1.1411  0.3452 -0.5789
  387SOL    HW2 1482   2.001   1.268   3.027  0.4370  1.2917 -1.2312
  388SOL     OW 1483   0.950   4.826   0.812  0.2795  0.0333  0.4387
  388SOL    HW1 1484   0.895   4.775   0.746 -0.8801 -0.1779  1.5362
  388SOL    HW2 1485   0.903   4.910   0.838  1.6724  1.1673 -0.5119
  389SOL     OW 1486   1.997   2.085   1.873  0.2953 -0.0639  0.2464
  389SOL    HW1 1487   2.017   1.997   1.831 -1.5732 -0.2800 -0.2706
  389SOL    HW2 1488   2.062   2.154   1.840 -0.6968 -0.3578 -2.5483
  390SOL     OW 1489   0.659   2.217   3.040 -0.1365 -0.0969 -0.1479
  390SOL    HW1 1490   0.726   2.284   3.008 -0.8306  1.0242  0.6823
  390SOL    HW2 1491   0.626   2.164   2.962  0.2249  0.7062 -0.8665
  391SOL     OW 1492   0.633   2.131   1.698  0.2370  0.4338 -0.4960
  391SOL    HW1 1493   0.622   2.186   1.781  0.8803  0.1424 -0.2100
  391SOL    HW2 1494   0.557   2.066   1.690  0.7301 -0.2835  0.4498
  392SOL     OW 1495   1.259   1.364   1.447 -0.5666  0.4227 -0.3797
  392SOL    HW1 1496   1.229   1.289   1.389  0.1356  0.6994 -1.1202
  392SOL    HW2 1497   1.224   1.451   1.411  0.3126  0.6522 -0.7204
  393SOL     OW 1498   2.405   0.359   5.424 -0.2810 -0.1636  0.1858
  393SOL    HW1 1499   2.405   0.452   5.460 -0.1976  0.2341 -0.8211
  393SOL    HW2 1500   2.311   0.329   5.408 -0.2691  0.2140 -0.6432
  394SOL     OW 1501   1.203   0.194   2.713 -0.7892  0.2924  0.0401
  394SOL    HW1 1502   1.284   0.244   2.744 -1.9614  0.7559  2.5663
  394SOL    HW2 1503   1.161   0.244   2.636 -0.2180  1.5359  0.5151
  395SOL     OW 1504   5.137   0.464   2.431  0.1222 -0.2279 -0.2579
  395SOL    HW1 1505   5.170   0.503   2.345 -0.4908  1.0749  0.0696
  395SOL    HW2 1506   5.052   0.414   2.414  0.4611 -0.7187 -0.5421
  396SOL     OW 1507   0.864   2.528   1.690 -0.5454  0.4219  0.3964
  396SOL    HW1 1508   0.838   2.447   1.638  0.8487 -0.3800  0.9073
  396SOL    HW2 1509   0.834   2.518   1.785  0.0238  0.2852  0.5677
  397SOL     OW 1510   1.603   2.002   2.158  0.1617 -0.3159 -0.0915
  397SOL    HW1 1511   1.539   1.928   2.137  0.8954 -0.9998  0.0077
  397SOL    HW2 1512   1.573   2.050   2.241 -1.6032  1.0397 -1.4352
  398SOL     OW 1513   5.514   0.728   2.893  0.2059  0.0535 -0.0427
  398SOL    HW1 1514   5.591   0.674   2.927  0.9434  0.5398 -0.9046
  398SOL    HW2 1515   5.470   0.775   2.970  0.6866 -0.3251  0.4706
  399SOL     OW 1516   1.698   1.356   1.648  0.0453  0.1403 -0.1182
  399SOL    HW1 1517   1.634   1.295   1.693  0.3776 -0.1913 -0.0879
  399SOL    HW2 1518   1.749   1.408   1.716 -0.9985  1.2509 -0.1680
  400SOL     OW 1519   0.152   1.453   3.303 -0.7041  0.2385 -0.1410
  400SOL    HW1 1520   0.152   1.550   3.328  2.2209  0.4173 -0.4948
  400SOL    HW2 1521   0.196   1.399   3.374  0.5469 -0.3572 -1.3173
  401SOL     OW 1522   0.049   5.016   3.085  0.3234  0.1586  0.2196
  401SOL    HW1 1523   0.084   5.104   3.055 -0.0743  0.2564  0.0368
  401SOL    HW2 1524  -0.042   5.001   3.046  0.7266 -0.6974 -0.4282
  402SOL     OW 1525   0.233   1.280   0.209  0.1551 -0.4390 -0.2834
  402SOL    HW1 1526   0.170   1.253   0.282 -0.1048 -0.0497 -0.3613
  402SOL    HW2 1527   0.283   1.361   0.238  0.4044 -0.5718 -0.3436
  403SOL     OW 1528   0.443   0.002   2.842  0.2117  0.4012 -0.4519
  403SOL    HW1 1529   0.487  -0.034   2.924 -1.7565 -1.7687 -0.2434
  403SOL    HW2 1530   0.513   0.035   2.778  1.9092 -0.1946  1.0202
  404SOL     OW 1531   2.255   0.851   1.605  0.2466 -0.4298 -0.3172
  404SOL    HW1 1532   2.228   0.940   1.642 -1.7719 -0.9796 -0.3650
  404SOL    HW2 1533   2.186   0.819   1.541  0.4408 -2.4596  0.4136
  405SOL     OW 1534   4.916   5.400   4.351 -0.0782 -0.6481 -0.3430
  405SOL    HW1 1535   4.948   5.307   4.332  0.9645 -0.4966  0.5720
  405SOL    HW2 1536   4.817   5.400   4.357 -0.0971 -1.7084 -0.3746
  406SOL     OW 1537   0.339   2.853   2.646  0.2301  0.0750  0.2424
  406SOL    HW1 1538   0.290   2.780   2.693 -0.2398  1.8123  2.6126
  406SOL    HW2 1539   0.274   2.916   2.603  0.5282  0.4721  0.3630
  407SOL     OW 1540   1.336   1.531   3.981  0.0709 -0.2753 -0.6667
  407SOL    HW1 1541   1.332   1.630   3.993 -0.5891 -0.3527 -0.1888
  407SOL    HW2 1542   1.246   1.491   3.999  0.1377 -0.8902 -1.5781
  408SOL     OW 1543   0.794   5.098   2.800  0.2122 -0.2718 -0.0543
  408SOL    HW1 1544   0.782   5.080   2.897  0.6852  0.2333  0.1046
  408SOL    HW2 1545   0.881   5.146   2.785  0.3307 -0.6835 -0.7654
  409SOL     OW 1546   0.733   4.417   2.349  0.1045 -0.2607 -0.1271
  409SOL    HW1 1547   0.654   4.460   2.305 -0.2080 -1.2924 -0.6038
  409SOL    HW2 1548   0.817   4.448   2.304 -0.1406 -0.4141 -0.6940
  410SOL     OW 1549   2.238   5.190   0.822 -0.1565  0.3958  0.8237
  410SOL    HW1 1550   2.259   5.093   0.836 -0.0444  0.3932  0.6366
  410SOL    HW2 1551   2.317   5.235   0.780 -0.5880  0.3461 -0.0503
  411SOL     OW 1552   0.757   1.081   2.035 -0.2836  0.6267 -0.2208
  411SOL    HW1 1553   0.673   1.088   2.088 -0.3559  0.7744 -0.3535
  411SOL    HW2 1554   0.799   1.172   2.025 -0.0720  0.5436 -0.0958
  412SOL     OW 1555   5.272   0.604   3.053  0.2873  0.3081  0.5198
  412SOL    HW1 1556   5.295   0.701   3.059 -1.3996  0.6598  1.9030
  412SOL    HW2 1557   5.309   0.555   3.132 -0.9323  0.2948  1.0973
  413SOL     OW 1558   0.320   0.885   2.550 -0.4667  0.4178  0.3707
  413SOL    HW1 1559   0.229   0.911   2.580 -2.1496 -1.4125 -2.6899
  413SOL    HW2 1560   0.318   0.860   2.454  2.9656 -1.2907  0.5810
  414SOL     OW 1561   1.776   2.978   2.893 -0.1614  0.7531  0.5044
  414SOL    HW1 1562   1.709   3.016   2.830 -0.3663 -1.0030 -0.3876
  414SOL    HW2 1563   1.814   2.894   2.855 -0.1809 -0.2978  2.6684
  415SOL     OW 1564   0.729   2.107   3.925 -0.0067 -0.1317 -0.1076
  415SOL    HW1 1565   0.790   2.184   3.909 -1.6698  1.2541 -0.0168
  415SOL    HW2 1566   0.759   2.029   3.871  0.1368  1.4203 -2.3952
  416SOL     OW 1567   1.749   2.087   2.669 -0.5908 -0.2569  0.0082
  416SOL    HW1 1568   1.828   2.081   2.609  0.2423  3.4643  0.4491
  416SOL    HW2 1569   1.779   2.097   2.764 -1.4400  1.7424  0.1353
  417SOL     OW 1570   0.500   1.614   3.450 -0.2467  0.4299  0.7875
  417SOL    HW1 1571   0.493   1.544   3.379 -2.9426  0.6422  0.7212
  417SOL    HW2 1572   0.489   1.704   3.407 -2.1353  0.5471  1.4252
  418SOL     OW 1573   1.880   1.683   2.531 -0.2663 -0.2519  0.3305
  418SOL    HW1 1574   1.962   1.626   2.536  0.0836  0.1838 -0.2859
  418SOL    HW2 1575   1.895   1.757   2.465 -1.1559 -0.1685  0.2116
  419SOL     OW 1576   0.720   1.904   0.543  0.0214  0.3415 -0.1410
  419SOL    HW1 1577   0.654   1.848   0.493 -0.8839  0.7829  0.5395
  419SOL    HW2 1578   0.791   1.935   0.480  0.4081 -1.3538 -0.5739
  420SOL     OW 1579   4.524   0.602   5.483 -0.1986 -0.3299 -0.3175
  420SOL    HW1 1580   4.466   0.521   5.486 -0.4579 -0.4115 -3.6835
  420SOL    HW2 1581   4.616   0.577   5.453  0.2478  0.4101  0.3945
  421SOL     OW 1582   5.494   5.555   3.171 -0.3374 -0.2198  0.1359
  421SOL    HW1 1583   5.435   5.491   3.121 -0.8048 -0.4280  0.9449
  421SOL    HW2 1584   5.452   5.578   3.258  1.1901 -1.0825  1.1473
  422SOL     OW 1585   2.349   1.604   2.647  0.2792 -0.0542 -0.0315
  422SOL    HW1 1586   2.353   1.636   2.741  2.9828  0.6886 -0.3005
  422SOL    HW2 1587   2.346   1.504   2.645 -1.8144 -0.0397  0.8027
  423SOL     OW 1588   1.150   1.273   3.035  0.0613 -0.1571  0.0474
  423SOL    HW1 1589   1.225   1.332   3.004  0.3842  0.5669  2.0130
  423SOL    HW2 1590   1.176   1.177   3.024  0.4058  0.0589 -1.2144
  424SOL     OW 1591   5.446   2.485   3.022 -0.1489  0.8195  0.1154
  424SOL    HW1 1592   5.535   2.447   2.995 -0.5967 -0.6118  0.5939
  424SOL    HW2 1593   5.440   2.580   2.991  2.1156  1.4184  1.3485
  425SOL     OW 1594   3.993   0.747   1.940  0.3811  0.5430 -0.1581
  425SOL    HW1 1595   3.933   0.704   1.873  1.1590  0.2921 -0.7096
  425SOL    HW2 1596   3.975   0.845   1.944 -0.9515  0.2914  0.6301
  426SOL     OW 1597   0.150   0.732   1.453  0.2279  0.0173  0.4982
  426SOL    HW1 1598   0.052   0.725   1.436  0.6284 -1.3299 -1.7707
  426SOL    HW2 1599   0.190   0.797   1.387  1.1948 -1.5491 -0.5363
  427SOL     OW 1600   2.209   2.227   1.796  0.0944  0.2290 -0.2292
  427SOL    HW1 1601   2.303   2.193   1.806  0.5164  1.3223 -0.2552
  427SOL    HW2 1602   2.197   2.264   1.704 -1.5200 -3.1942 -1.5303
  428SOL     OW 1603   5.407   1.967   2.582  0.0394  0.4632 -0.5250
  428SOL    HW1 1604   5.487   2.009   2.624 -0.3836  2.1914 -1.3614
  428SOL    HW2 1605   5.331   1.966   2.647  0.7131 -1.2673  0.3017
  429SOL     OW 1606   4.925   1.084   0.361 -0.0090  0.5598 -0.4585
  429SOL    HW1 1607   4.890   0.990   0.360  0.1534  0.4951 -0.2775
  429SOL    HW2 1608   4.858   1.145   0.319 -0.2279  0.4003 -0.3484
  430SOL     OW 1609   1.005   1.749   0.916  0.4421  0.6310 -0.1757
  430SOL    HW1 1610   0.976   1.700   0.998  0.3472 -0.0845 -0.6319
  430SOL    HW2 1611   1.004   1.847   0.935  1.1508  0.4456  0.9075
  431SOL     OW 1612   0.601   0.504   2.132 -0.1719  0.5277 -0.2206
  431SOL    HW1 1613   0.528   0.489   2.198  0.3660  0.6130  0.3959
  431SOL    HW2 1614   0.563   0.500   2.039 -0.7653 -0.5003  0.0515
  432SOL     OW 1615   0.517   5.121   1.001 -0.5278 -0.5034 -0.0042
  432SOL    HW1 1616   0.534   5.189   1.073 -2.4116 -0.3121  0.3258
  432SOL    HW2 1617   0.551   5.032   1.031 -0.6796 -0.2848  0.8609
  433SOL     OW 1618   2.690   0.840   0.941  0.2736  0.2962  0.1624
  433SOL    HW1 1619   2.708   0.826   0.844 -1.6474 -0.3265 -0.1388
  433SOL    HW2 1620   2.732   0.765   0.993 -2.1697 -1.7677 -0.6273
  434SOL     OW 1621   5.090   0.823   2.780 -0.1257 -0.5504  0.6970
  434SOL    HW1 1622   5.137   0.767   2.711 -1.6342 -0.5272 -0.4149
  434SOL    HW2 1623   5.143   0.906   2.797 -0.0043 -0.2627 -0.9142
  435SOL     OW 1624   0.197   2.099   1.640  0.2213  0.2039 -0.2895
  435SOL    HW1 1625   0.107   2.118   1.680 -0.0143 -2.4863  0.6623
  435SOL    HW2 1626   0.237   2.184   1.605 -1.4592  1.9535  1.7693
  436SOL     OW 1627   1.645   0.133   3.034  0.6398 -0.3333  0.1417
  436SOL    HW1 1628   1.580   0.113   2.961  0.6475 -2.8456  0.7551
  436SOL    HW2 1629   1.596   0.137   3.121  1.1049 -0.6926  0.4167
  437SOL     OW 1630   4.750   0.371   3.522  0.4600 -0.0639 -0.1903
  437SOL    HW1 1631   4.751   0.299   3.453  0.1543  0.2256 -0.5043
  437SOL    HW2 1632   4.682   0.349   3.592  0.2448 -0.0025 -0.3765
  438SOL     OW 1633   0.950   0.776   3.002 -0.0353 -0.1384 -0.2412
  438SOL    HW1 1634   0.945   0.842   2.927  3.1970 -0.1855 -0.6273
  438SOL    HW2 1635   0.920   0.820   3.086 -1.0467  0.7802 -1.0492
  439SOL     OW 1636   1.935   1.594   2.899 -0.2046 -0.3165 -0.5654
  439SOL    HW1 1637   1.976   1.685   2.908 -2.3532  0.7857 -1.3370
  439SOL    HW2 1638   1.947   1.543   2.984 -0.2738  1.2447  0.4096
  440SOL     OW 1639   1.683   0.529   2.957 -0.3500 -0.2820 -0.0432
  440SOL    HW1 1640   1.712   0.568   3.045  0.1180 -1.5896  0.4091
  440SOL    HW2 1641   1.584   0.517   2.958 -0.6873  2.0396 -0.6937
  441SOL     OW 1642   2.013   4.859   2.787 -0.0360 -0.2214  0.4870
  441SOL    HW1 1643   2.097   4.851   2.842 -0.4937  0.9869  1.4097
  441SOL    HW2 1644   1.934   4.851   2.847 -0.5806 -0.5756 -0.2710
  442SOL     OW 1645   4.147   0.701   3.850  0.2050 -0.5533  0.5721
  442SOL    HW1 1646   4.073   0.727   3.787 -1.1359  0.1881  2.3400
  442SOL    HW2 1647   4.113   0.631   3.913  2.5485 -3.8623 -1.5462
  443SOL     OW 1648   0.440   2.436   2.300  0.1263  0.7276  0.1632
  443SOL    HW1 1649   0.456   2.430   2.399  1.4666 -1.0590 -0.1208
  443SOL    HW2 1650   0.348   2.404   2.279 -0.0850  0.9118  0.7900
  444SOL     OW 1651   1.262   2.101   1.047 -0.7173 -0.1356 -0.7776
  444SOL    HW1 1652   1.236   2.127   1.139  1.7625 -0.2955  0.0487
  444SOL    HW2 1653   1.191   2.042   1.007 -2.9593  1.8425  0.0503
  445SOL     OW 1654   0.169   5.091   2.763  0.2030  0.3916  0.2812
  445SOL    HW1 1655   0.152   5.005   2.811 -1.7612  1.5234  1.8253
  445SOL    HW2 1656   0.250   5.135   2.801 -0.1249  0.2910  1.1205
  446SOL     OW 1657   0.372   1.171   4.013 -0.2225  0.8021  0.1711
  446SOL    HW1 1658   0.359   1.209   4.105 -0.5122  0.4881  0.2588
  446SOL    HW2 1659   0.354   1.242   3.945 -2.2314  0.4414  0.2898
  447SOL     OW 1660   4.590   1.508   3.661  0.0731  0.0187 -0.0878
  447SOL    HW1 1661   4.645   1.587   3.689  1.2873 -1.2469  1.2393
  447SOL    HW2 1662   4.538   1.474   3.739 -2.7523  1.1970 -1.3030
  448SOL     OW 1663   5.494   1.766   0.161 -0.0843  0.0801 -0.2833
  448SOL    HW1 1664   5.426   1.778   0.088  1.7675  1.7833 -1.8585
  448SOL    HW2 1665   5.572   1.826   0.143  1.1507 -0.6342  2.3066
  449SOL     OW 1666   0.761   0.846   4.083  0.0641 -0.0419 -0.2856
  449SOL    HW1 1667   0.708   0.850   4.168  0.1559  0.3365 -0.2450
  449SOL    HW2 1668   0.709   0.797   4.013  0.3665 -1.1872  0.2666
  450SOL     OW 1669   0.156   5.247   4.296 -0.0913  0.2799  0.3626
  450SOL    HW1 1670   0.256   5.247   4.291 -0.1175 -0.6742 -0.4596
  450SOL    HW2 1671   0.120   5.163   4.254 -1.2323  0.5185  0.8148
  451SOL     OW 1672   1.077   1.598   4.548 -0.3639 -0.4451 -0.2938
  451SOL    HW1 1673   1.156   1.643   4.507 -1.8222  1.2190 -1.4038
  451SOL    HW2 1674   1.054   1.642   4.635 -0.7066 -0.2253 -0.4938
  452SOL     OW 1675   1.370   5.510   0.564  0.1460 -0.2089  0.5884
  452SOL    HW1 1676   1.413   5.499   0.475 -0.7981  0.4670  0.0306
  452SOL    HW2 1677   1.430   5.472   0.635 -0.9929 -5.1336 -0.6672
  453SOL     OW 1678   2.250   2.209   0.091 -0.1545 -0.6955 -0.0650
  453SOL    HW1 1679   2.259   2.227   0.189 -1.5577  0.8971 -0.1842
  453SOL    HW2 1680   2.312   2.268   0.040  1.0172 -1.9480 -0.1532
  454SOL     OW 1681   5.420   2.268   4.339 -0.5572  0.2251 -0.2846
  454SOL    HW1 1682   5.408   2.214   4.256 -1.6372 -0.7388  0.4672
  454SOL    HW2 1683   5.503   2.323   4.331 -0.0029 -0.7405 -1.5142
  455SOL     OW 1684   0.791  -0.026   4.557 -0.1252 -0.5252  0.0504
  455SOL    HW1 1685   0.698  -0.023   4.593 -0.1583  0.4358 -0.0886
  455SOL    HW2 1686   0.815   0.063   4.518  0.9555 -0.6546  0.3660
  456SOL     OW 1687   0.206   0.571   4.519 -0.0193 -0.1543  0.5137
  456SOL    HW1 1688   0.225   0.496   4.455  0.3105 -0.9663  1.5443
  456SOL    HW2 1689   0.188   0.534   4.610 -2.3258  0.8557  0.5351
  457SOL     OW 1690   1.795   1.866   4.334  0.5665 -0.0958  0.2367
  457SOL    HW1 1691   1.822   1.770   4.342  0.1822 -0.2294 -0.0205
  457SOL    HW2 1692   1.732   1.876   4.257 -0.7520  0.0564  1.2986
  458SOL     OW 1693   0.764   0.461   4.580 -0.5055 -0.8140  0.4356
  458SOL    HW1 1694   0.853   0.418   4.594  0.0884  0.4223  0.6868
  458SOL    HW2 1695   0.775   0.539   4.519 -1.2201 -0.0445  1.2563
  459SOL     OW 1696   2.505   0.206   4.879 -0.1796  0.1260 -0.3730
  459SOL    HW1 1697   2.513   0.152   4.795 -1.8345 -2.0586  0.7805
  459SOL    HW2 1698   2.447   0.285   4.862  0.5577  0.4568 -1.5618
  460SOL     OW 1699   4.797   3.578   2.887 -0.0541  0.5425  0.0593
  460SOL    HW1 1700   4.897   3.580   2.897 -0.1479  0.0158  1.3433
  460SOL    HW2 1701   4.757   3.649   2.945 -0.4319  0.7089 -0.4047
  461SOL     OW 1702   1.366   0.929   0.795 -0.4880  0.0853 -0.2213
  461SOL    HW1 1703   1.398   1.015   0.755 -3.6614  2.2624  1.4794
  461SOL    HW2 1704   1.278   0.904   0.755 -0.9720 -0.8138  1.3084
  462SOL     OW 1705   5.335   2.051   2.337  0.0060 -0.4548  0.1748
  462SOL    HW1 1706   5.378   2.043   2.427  0.9123  1.6679  0.0018
  462SOL    HW2 1707   5.244   2.090   2.346 -1.8081 -4.3431  0.4791
  463SOL     OW 1708   0.600   0.997   3.476 -0.4916 -0.2558  0.4698
  463SOL    HW1 1709   0.512   0.982   3.522 -0.1033 -1.3376  0.8967
  463SOL    HW2 1710   0.593   1.077   3.417 -0.9080  1.4472  2.6707
  464SOL     OW 1711   0.359   3.663   1.069 -0.3309  0.4576  0.0698
  464SOL    HW1 1712   0.260   3.677   1.078 -0.2343  3.0331 -1.8801
  464SOL    HW2 1713   0.379   3.565   1.074 -2.8322 -0.0672  1.4493
  465SOL     OW 1714   4.780   1.032   4.068  0.0109 -0.1095 -0.3697
  465SOL    HW1 1715   4.733   1.095   4.130  1.0548  0.1662  0.1715
  465SOL    HW2 1716   4.818   0.956   4.121  2.8285  1.2402 -0.2471
  466SOL     OW 1717   1.709   5.105   1.027  0.3663  0.5671 -0.0687
  466SOL    HW1 1718   1.750   5.024   0.986 -1.0031 -0.1057 -0.1950
  466SOL    HW2 1719   1.780   5.165   1.064  1.6612  0.9135 -2.8408
  467SOL     OW 1720   1.325   4.087   4.078  0.1259  0.1966 -0.3759
  467SOL    HW1 1721   1.378   4.080   4.162  0.4738 -2.3983 -0.7214
  467SOL    HW2 1722   1.353   4.168   4.027  1.5266  0.5610  0.9242
  468SOL     OW 1723   2.121   1.652   4.242  0.2553 -0.1294  0.0838
  468SOL    HW1 1724   2.207   1.601   4.235  0.5710  0.6300 -2.4171
  468SOL    HW2 1725   2.140   1.746   4.271  0.7222  0.8640 -3.0573
  469SOL     OW 1726   0.590   2.251   4.139 -0.5648 -0.5237 -0.0713
  469SOL    HW1 1727   0.492   2.232   4.151 -0.3455 -0.8476  1.4365
  469SOL    HW2 1728   0.631   2.178   4.085 -0.8097 -1.4079  0.9041
  470SOL     OW 1729   0.617   0.880   5.543 -0.4115  0.0579 -0.2422
  470SOL    HW1 1730   0.561   0.816   5.597 -0.5432  1.7183  1.7099
  470SOL    HW2 1731   0.557   0.945   5.497 -0.1754  0.4306 -0.0230
  471SOL     OW 1732   1.221   1.789   5.371 -0.1856  0.4853 -0.0844
  471SOL    HW1 1733   1.250   1.814   5.278  0.7561  0.0147  0.0744
  471SOL    HW2 1734   1.121   1.779   5.372 -0.2814  1.1640 -0.8793
  472SOL     OW 1735   4.464   1.529   4.325 -0.7614 -0.1530  0.4704
  472SOL    HW1 1736   4.440   1.437   4.294 -0.4189  0.2316 -1.0061
  472SOL    HW2 1737   4.508   1.523   4.415 -1.3744 -1.3467  0.7213
  473SOL     OW 1738   0.938   0.412   4.230 -0.0682  0.7211 -0.6668
  473SOL    HW1 1739   0.976   0.482   4.169  1.3881  0.4740 -0.0810
  473SOL    HW2 1740   0.968   0.429   4.324  0.5146 -0.8014 -0.5465
  474SOL     OW 1741   0.859   4.950   5.051  0.9405  0.1877  0.3727
  474SOL    HW1 1742   0.850   4.930   4.954  1.7291 -1.6353  0.6351
  474SOL    HW2 1743   0.956   4.957   5.075  0.7352  1.9299  0.8124
  475SOL     OW 1744   0.938   4.612   2.873  0.1935 -0.4705  0.5836
  475SOL    HW1 1745   0.982   4.588   2.786  0.2347  2.0654 -0.1923
  475SOL    HW2 1746   0.839   4.595   2.866  0.3648 -1.5391  0.5573
  476SOL     OW 1747   3.344   5.290   4.315 -0.2839 -0.3686 -0.3448
  476SOL    HW1 1748   3.349   5.376   4.264 -1.8148  0.1233  0.2854
  476SOL    HW2 1749   3.392   5.300   4.402  2.1998 -1.1614 -1.4973
  477SOL     OW 1750   1.804   1.069   3.347  0.6608 -0.0757  0.5492
  477SOL    HW1 1751   1.781   0.986   3.295  2.2285  0.1724 -0.5873
  477SOL    HW2 1752   1.728   1.133   3.343  0.6090 -0.2112 -1.1595
  478SOL     OW 1753   1.010   1.583   4.900  0.3540  0.2969 -0.0468
  478SOL    HW1 1754   0.912   1.562   4.893  0.8340 -2.0470 -0.5627
  478SOL    HW2 1755   1.050   1.528   4.973  1.3811  0.8997 -0.1487
  479SOL     OW 1756   1.812   5.262   0.671  0.2976  0.0579  0.7516
  479SOL    HW1 1757   1.858   5.350   0.673  1.0634 -0.2997 -0.2239
  479SOL    HW2 1758   1.872   5.192   0.710  0.5628 -0.3915 -0.4271
  480SOL     OW 1759   1.290   0.638   4.796  0.0996  0.0949  0.1975
  480SOL    HW1 1760   1.271   0.684   4.883  1.4133  0.7927  0.1416
  480SOL    HW2 1761   1.383   0.601   4.798 -0.1725 -0.6468 -0.5930
  481SOL     OW 1762   0.582   2.532   4.133 -0.0394 -0.1581 -0.2685
  481SOL    HW1 1763   0.590   2.432   4.142  0.2194 -0.1527 -0.4369
  481SOL    HW2 1764   0.663   2.568   4.087  0.7899  0.3690  1.5379
  482SOL     OW 1765   1.507   4.312   2.777  0.2948  0.5736  0.3554
  482SOL    HW1 1766   1.513   4.274   2.870 -0.0401  1.8174  0.9079
  482SOL    HW2 1767   1.441   4.387   2.776 -2.5048 -1.6609 -1.6919
  483SOL     OW 1768   0.042   1.219   4.262  0.2691 -0.0717  0.9785
  483SOL    HW1 1769   0.119   1.177   4.310  0.0657  1.7543  3.0557
  483SOL    HW2 1770  -0.034   1.155   4.258  1.6429 -1.7013 -0.5917
  484SOL     OW 1771   3.078   2.993   4.047 -0.1791  0.0852  0.1481
  484SOL    HW1 1772   3.079   2.899   4.082 -0.2063 -0.5555 -1.5022
  484SOL    HW2 1773   3.113   3.055   4.118 -1.6893 -0.9179  1.8772
  485SOL     OW 1774   0.615   0.259   0.291  0.2826 -0.3742  0.0201
  485SOL    HW1 1775   0.561   0.321   0.348  1.4641  1.8091 -1.1167
  485SOL    HW2 1776   0.689   0.220   0.346  0.2180  0.1387  0.4818
  486SOL     OW 1777   3.826   1.074   0.063  0.2042  0.3163  0.2261
  486SOL    HW1 1778   3.867   1.043  -0.023 -0.3056  0.7083 -0.1655
  486SOL    HW2 1779   3.897   1.116   0.120  0.2350  1.6556 -0.7568
  487SOL     OW 1780   1.586   1.031   4.995  0.2506  0.1221 -0.3591
  487SOL    HW1 1781   1.597   1.090   5.074  1.1031  2.8237 -2.3663
  487SOL    HW2 1782   1.489   1.016   4.978  0.0521 -0.2900  0.9832
  488SOL     OW 1783   0.045   1.457   5.234  0.0247  0.0594 -0.3347
  488SOL    HW1 1784   0.139   1.489   5.229 -0.0345  0.3843  0.3850
  488SOL    HW2 1785  -0.005   1.485   5.152  0.1095  1.4172  0.0461
  489SOL     OW 1786   0.958   1.811   5.368  0.0074  0.0826 -0.0640
  489SOL    HW1 1787   0.931   1.905   5.348  1.7707  0.5869 -0.2624
  489SOL    HW2 1788   0.921   1.750   5.298 -1.0500  0.6358  0.0002
  490SOL     OW 1789   4.957   0.779   4.089  0.2719  0.7492  0.4215
  490SOL    HW1 1790   4.968   0.724   4.006  0.5594  0.7731  0.4430
  490SOL    HW2 1791   5.035   0.841   4.098  1.8518 -1.3281  2.2855
  491SOL     OW 1792   0.479   1.415   5.138 -0.8536 -0.0957 -0.6530
  491SOL    HW1 1793   0.489   1.317   5.157 -1.1807  0.1990  1.3223
  491SOL    HW2 1794   0.397   1.449   5.184  1.4182  1.9036  2.3292
  492SOL     OW 1795   1.619   4.807   2.734  0.1109  0.6240 -0.1165
  492SOL    HW1 1796   1.643   4.904   2.743 -0.3480  0.7175  0.1332
  492SOL    HW2 1797   1.519   4.797   2.738  0.1545  0.1438 -0.1675
  493SOL     OW 1798   2.909   1.384   4.733  0.0631  0.1053  0.1340
  493SOL    HW1 1799   2.828   1.371   4.676 -0.2074  0.7050  0.3679
  493SOL    HW2 1800   2.915   1.480   4.760  2.8566  0.9725 -2.8917
  494SOL     OW 1801   0.168   2.899   5.350  0.2876  0.0496 -0.0831
  494SOL    HW1 1802   0.106   2.836   5.304 -0.1338  0.5021 -0.1432
  494SOL    HW2 1803   0.148   2.901   5.448  1.1006 -0.8174  0.1118
  495SOL     OW 1804   1.062   5.319   5.253 -0.0554 -0.3158  0.5364
  495SOL    HW1 1805   1.107   5.370   5.180 -0.3091 -2.1762 -0.9848
  495SOL    HW2 1806   0.987   5.264   5.215  0.3045 -1.9470  2.0470
  496SOL     OW 1807   1.131   2.064   4.563  0.1726  0.2361 -0.0567
  496SOL    HW1 1808   1.136   2.148   4.509  1.0385 -0.4866 -1.1383
  496SOL    HW2 1809   1.056   2.007   4.530  0.3197  0.0692 -0.1094
  497SOL     OW 1810   1.432   1.511   2.692  0.4073 -0.6506  0.0103
  497SOL    HW1 1811   1.385   1.599   2.692 -0.4220 -1.0758  0.6798
  497SOL    HW2 1812   1.528   1.525   2.716  0.2561  0.0590  0.2269
  498SOL     OW 1813   2.733   0.815   3.649 -0.3763 -0.1131 -0.5560
  498SOL    HW1 1814   2.646   0.767   3.656  0.4070 -1.5307  0.0361
  498SOL    HW2 1815   2.757   0.854   3.738 -0.2208 -0.0709 -0.6159
  499SOL     OW 1816   1.386   2.052   0.641 -0.0747 -0.1488  0.5963
  499SOL    HW1 1817   1.373   1.957   0.613  0.0511 -0.0649  0.2531
  499SOL    HW2 1818   1.483   2.074   0.643 -0.1130  0.0410  0.4442
  500SOL     OW 1819   0.771   0.290   3.892 -0.0300 -0.1245  0.4476
  500SOL    HW1 1820   0.706   0.281   3.816  1.3040 -2.2950 -0.5393
  500SOL    HW2 1821   0.778   0.203   3.940  0.8392  0.5890  1.6560
  501SOL     OW 1822   0.178   0.745   0.427  0.1679 -0.1338 -0.2978
  501SOL    HW1 1823   0.155   0.663   0.479  0.2083 -0.1518 -0.3088
  501SOL    HW2 1824   0.251   0.795   0.473  1.7667 -1.2882 -1.4600
  502SOL     OW 1825   0.097   1.659   4.627 -0.2361  0.4410  0.3169
  502SOL    HW1 1826   0.131   1.747   4.594 -1.3860  1.0292  0.6512
  502SOL    HW2 1827   0.017   1.673   4.685 -1.0112 -0.8766 -0.3671
  503SOL     OW 1828   0.781   5.166   3.316  0.2944  0.1312 -0.1331
  503SOL    HW1 1829   0.865   5.211   3.345  0.3728  0.6456 -1.0894
  503SOL    HW2 1830   0.728   5.229   3.259  0.1340 -0.7859 -1.0346
  504SOL     OW 1831   2.734   1.022   5.272  0.4144 -0.4807 -0.1240
  504SOL    HW1 1832   2.782   1.096   5.226 -0.8824 -0.7003 -1.9483
  504SOL    HW2 1833   2.761   0.934   5.231 -1.0333 -0.6480 -0.8115
  505SOL     OW 1834   3.180   2.328   1.996 -0.8699 -0.3363  0.0324
  505SOL    HW1 1835   3.207   2.334   1.900  0.4146  2.6141  0.4512
  505SOL    HW2 1836   3.114   2.254   2.008  0.4436 -2.1217 -2.7129
  506SOL     OW 1837   5.151   1.403   2.571 -0.3258 -0.2368  0.2765
  506SOL    HW1 1838   5.089   1.481   2.565  1.7856  1.4920 -0.2416
  506SOL    HW2 1839   5.152   1.354   2.484 -0.5663  0.0293  0.1236
  507SOL     OW 1840   0.866   1.494   2.777 -0.0979  1.0919  0.0482
  507SOL    HW1 1841   0.949   1.545   2.753  1.4159 -0.6201  1.3009
  507SOL    HW2 1842   0.878   1.452   2.868 -1.3274 -1.2361 -0.7671
  508SOL     OW 1843   4.658   1.248   4.197  0.2810  0.4510  0.3337
  508SOL    HW1 1844   4.564   1.228   4.227 -0.3416  1.0138 -1.1401
  508SOL    HW2 1845   4.656   1.321   4.129  1.6728 -0.2973 -0.5617
  509SOL     OW 1846   0.005   0.890   3.772 -0.2368 -0.3140 -0.0021
  509SOL    HW1 1847  -0.052   0.971   3.783 -0.8231 -0.6004 -0.8616
  509SOL    HW2 1848   0.075   0.889   3.844 -0.8064  0.4560  0.5842
  510SOL     OW 1849   1.429   0.574   2.996  0.3697 -0.1544  0.2205
  510SOL    HW1 1850   1.423   0.672   2.977  3.2731  0.0783  0.0683
  510SOL    HW2 1851   1.433   0.559   3.094  1.1526  0.0073  0.2186
  511SOL     OW 1852   3.021   4.452   2.440 -0.0132  0.3716 -0.1917
  511SOL    HW1 1853   3.036   4.386   2.514  1.8639  0.9801  0.0223
  511SOL    HW2 1854   2.991   4.404   2.358  1.2425 -0.7791 -0.0204
  512SOL     OW 1855   0.097   5.018   4.989 -0.2543 -0.2352  0.4499
  512SOL    HW1 1856   0.194   4.997   5.001 -0.4301 -0.6109  1.2551
  512SOL    HW2 1857   0.082   5.116   5.004 -0.1470 -0.3435  1.3224
  513SOL     OW 1858   5.411   4.284   5.216  0.1971  0.2879  0.3006
  513SOL    HW1 1859   5.361   4.345   5.278 -1.3142  0.8253 -1.3584
  513SOL    HW2 1860   5.508   4.306   5.219 -0.1091  1.7025  0.9280
  514SOL     OW 1861   0.041   0.419   0.240  0.4223  0.2783  0.4836
  514SOL    HW1 1862   0.081   0.364   0.167 -3.0501 -2.3844  0.3899
  514SOL    HW2 1863   0.069   0.382   0.329 -1.0851 -1.0962  0.4196
  515SOL     OW 1864   4.957   4.207   4.119 -0.4143  0.2862 -0.7390
  515SOL    HW1 1865   4.942   4.256   4.032  0.2397 -0.2125 -1.1404
  515SOL    HW2 1866   5.040   4.242   4.163 -0.0679 -0.2985 -0.9189
  516SOL     OW 1867   5.142   0.930   4.886 -0.1286  0.7091  0.5909
  516SOL    HW1 1868   5.089   0.927   4.801 -0.1952  0.8641  0.6276
  516SOL    HW2 1869   5.128   0.845   4.937  0.7467  0.1415 -0.0623
  517SOL     OW 1870   0.861   4.030   5.349  0.7425  0.6708 -0.1393
  517SOL    HW1 1871   0.789   4.061   5.287  1.2952  0.9628 -0.6520
  517SOL    HW2 1872   0.833   4.046   5.444 -1.7536 -3.1919 -0.0109
  518SOL     OW 1873   2.930   5.300   3.452  0.2668  0.1159  0.2326
  518SOL    HW1 1874   2.862   5.244   3.499 -0.5779 -0.2006 -1.2839
  518SOL    HW2 1875   2.907   5.397   3.462  0.2879  0.0692  0.7436
  519SOL     OW 1876   0.885   1.289   3.429 -0.0578 -0.3830 -0.2522
  519SOL    HW1 1877   0.855   1.382   3.409 -0.8343 -0.9762 -2.0184
  519SOL    HW2 1878   0.985   1.285   3.423 -0.0045  0.3824  0.0350
  520SOL     OW 1879   0.325   5.158   3.910  0.3382  0.1716 -0.3194
  520SOL    HW1 1880   0.315   5.102   3.828 -2.1271 -1.1474  0.7745
  520SOL    HW2 1881   0.406   5.128   3.961  0.0737 -1.2145 -0.6683
  521SOL     OW 1882   1.013   3.951   3.817  0.1405  0.5235  0.3092
  521SOL    HW1 1883   1.071   4.013   3.765  0.1361  0.1428 -0.1621
  521SOL    HW2 1884   1.041   3.950   3.913 -1.4217  3.1567  0.8900
  522SOL     OW 1885   3.300   0.647   4.524  0.8597 -0.3281  0.3645
  522SOL    HW1 1886   3.310   0.729   4.581 -1.2423 -0.6330  1.2288
  522SOL    HW2 1887   3.312   0.565   4.580 -1.2081 -0.6320  0.4166
  523SOL     OW 1888   1.441   3.338   4.038  0.3746 -0.2760  0.1022
  523SOL    HW1 1889   1.516   3.293   3.990  0.9456  1.7521 -1.0037
  523SOL    HW2 1890   1.471   3.426   4.073 -1.3267  0.3250  0.1703
  524SOL     OW 1891   3.669   1.773   2.173 -0.1675 -0.0154 -0.3843
  524SOL    HW1 1892   3.738   1.804   2.107  0.7817  1.7392  1.3319
  524SOL    HW2 1893   3.596   1.841   2.180 -0.2055 -0.1266  0.4190
  525SOL     OW 1894   0.791   1.409   4.784  0.0967  0.2832 -0.5347
  525SOL    HW1 1895   0.722   1.374   4.720 -1.8544  1.1078  0.9974
  525SOL    HW2 1896   0.768   1.378   4.876  0.4808  2.4223  0.3265
  526SOL     OW 1897   1.712   1.677   3.932  0.2219 -0.9323  0.0721
  526SOL    HW1 1898   1.766   1.604   3.975  0.9150 -1.1697 -1.1724
  526SOL    HW2 1899   1.682   1.647   3.841  0.7393  0.4268 -0.5621
  527SOL     OW 1900   4.321   1.837   3.345 -0.0133  0.9497 -0.5821
  527SOL    HW1 1901   4.375   1.755   3.362  0.1454  0.9395 -1.1012
  527SOL    HW2 1902   4.268   1.825   3.261  0.1685  1.4521 -0.7758
  528SOL     OW 1903   5.342   4.625   0.487 -0.2316  0.4186  0.5370
  528SOL    HW1 1904   5.366   4.572   0.568  1.7375 -0.5640 -0.6040
  528SOL    HW2 1905   5.421   4.680   0.459 -0.4260 -0.2062 -1.3867
  529SOL     OW 1906   5.460   0.584   3.478 -0.1568 -0.0158  0.2936
  529SOL    HW1 1907   5.520   0.633   3.540  0.3676  0.7696 -0.8010
  529SOL    HW2 1908   5.377   0.556   3.526 -0.1983  1.4261  1.1027
  530SOL     OW 1909   0.077   4.980   3.360 -0.2763 -0.2914  0.5039
  530SOL    HW1 1910   0.058   4.977   3.262 -0.0985 -1.4026  0.4943
  530SOL    HW2 1911   0.010   5.039   3.405  0.2593  1.0988 -0.4119
  531SOL     OW 1912   1.190   0.331   5.185  0.0315  0.0785  0.3723
  531SOL    HW1 1913   1.229   0.418   5.214  1.0877 -0.2386 -0.0123
  531SOL    HW2 1914   1.178   0.332   5.085  0.6112 -0.4094  0.2880
  532SOL     OW 1915   0.720   4.134   4.234 -0.1739 -0.2297  0.1638
  532SOL    HW1 1916   0.807   4.157   4.192  0.1709 -1.0398  0.4220
  532SOL    HW2 1917   0.713   4.177   4.324 -0.7743  1.2371 -0.5619
  533SOL     OW 1918   1.482   4.116   1.576 -0.1587  0.1048 -0.6715
  533SOL    HW1 1919   1.561   4.092   1.520  0.6331  0.3395  0.3312
  533SOL    HW2 1920   1.489   4.072   1.665  0.5625  2.7330  0.6627
  534SOL     OW 1921   1.256   2.391   1.859 -0.4811  0.3392 -0.1842
  534SOL    HW1 1922   1.293   2.473   1.814 -2.2216  1.1129 -0.2842
  534SOL    HW2 1923   1.330   2.343   1.906  0.6791  1.6963 -0.5478
  535SOL     OW 1924   2.867   0.736   4.968  0.0891  0.2113  0.7794
  535SOL    HW1 1925   2.963   0.711   4.959  0.8614  3.0325  0.2309
  535SOL    HW2 1926   2.843   0.746   5.064  0.3982 -0.2632  0.9054
  536SOL     OW 1927   0.590   0.903   3.077  0.5064 -0.0603 -0.3205
  536SOL    HW1 1928   0.635   0.902   2.988 -0.0034  1.3620 -0.6238
  536SOL    HW2 1929   0.585   0.810   3.114  0.8147 -0.6515 -1.7299
  537SOL     OW 1930   5.461   0.139   0.005  0.3760  0.5527  0.1243
  537SOL    HW1 1931   5.455   0.239   0.010  0.2242  0.5130  0.9113
  537SOL    HW2 1932   5.389   0.099   0.062 -1.3799 -0.0271 -2.3641
  538SOL     OW 1933   1.879   1.275   4.622  0.0861 -0.0432 -0.1965
  538SOL    HW1 1934   1.796   1.237   4.583  0.0637 -1.2390  0.9229
  538SOL    HW2 1935   1.856   1.334   4.700  0.1422  2.1180 -1.7302
  539SOL     OW 1936   1.525   0.723   5.086  0.2893  0.5601  0.4092
  539SOL    HW1 1937   1.578   0.698   5.167 -1.1830  0.7697  1.4729
  539SOL    HW2 1938   1.544   0.818   5.062  2.4387 -0.1395 -0.8989
  540SOL     OW 1939   1.808   1.934   4.607  0.1146  0.9030 -0.2429
  540SOL    HW1 1940   1.787   1.915   4.511 -0.5602 -1.0766  0.2530
  540SOL    HW2 1941   1.907   1.936   4.620  0.2071  0.4528 -0.8448
  541SOL     OW 1942   0.368   1.686   4.373  0.1350  0.0318 -0.1877
  541SOL    HW1 1943   0.300   1.757   4.390  0.3369  0.0267  0.6920
  541SOL    HW2 1944   0.450   1.703   4.429 -0.2126 -1.4413  0.8391
  542SOL     OW 1945   1.350   0.537   4.239  0.3092 -0.4809 -0.8208
  542SOL    HW1 1946   1.338   0.629   4.201 -1.1297 -0.1800  0.2761
  542SOL    HW2 1947   1.350   0.543   4.339  0.7031 -1.6324 -0.7423
  543SOL     OW 1948   3.290   2.263   4.514  0.2076  0.3591  0.1618
  543SOL    HW1 1949   3.385   2.258   4.483  0.1595  1.2863 -0.1591
  543SOL    HW2 1950   3.230   2.273   4.435 -0.1138  0.3477  0.4023
  544SOL     OW 1951   1.218   4.908   0.412 -0.4024  0.0540 -0.2838
  544SOL    HW1 1952   1.274   4.827   0.426 -0.1639  0.5137  1.7309
  544SOL    HW2 1953   1.121   4.884   0.421 -0.3274  0.0005  0.4323
  545SOL     OW 1954   0.176   1.723   3.339 -0.6244 -0.0035  0.2869
  545SOL    HW1 1955   0.264   1.771   3.346  1.4402 -2.7186 -3.4075
  545SOL    HW2 1956   0.126   1.759   3.260 -2.7299  1.0882  1.9993
  546SOL     OW 1957   4.716   1.267   4.941 -0.0977 -0.1314 -0.1641
  546SOL    HW1 1958   4.641   1.222   4.992  0.1922 -0.6520 -0.1918
  546SOL    HW2 1959   4.798   1.210   4.945  0.3650  0.5372  0.0401
  547SOL     OW 1960   1.037   2.187   5.027 -0.0928 -0.1918 -0.1223
  547SOL    HW1 1961   1.053   2.094   4.995  0.1911  0.1160 -0.9112
  547SOL    HW2 1962   1.018   2.247   4.949  0.6613  0.5912  0.2648
  548SOL     OW 1963   1.471   0.521   0.374 -0.2712  0.2325 -0.0301
  548SOL    HW1 1964   1.509   0.602   0.419 -0.1808 -0.5247  1.3026
  548SOL    HW2 1965   1.384   0.544   0.330  0.0848  1.1991 -0.2443
  549SOL     OW 1966   0.830   2.207   3.614 -0.0955  0.0354 -0.0857
  549SOL    HW1 1967   0.899   2.218   3.542 -0.2993  0.2039 -0.2571
  549SOL    HW2 1968   0.856   2.260   3.694 -0.2577  0.4595 -0.3162
  550SOL     OW 1969   4.894   0.142   4.587 -0.3951  0.0758  0.1662
  550SOL    HW1 1970   4.899   0.050   4.549  0.2922  0.4523 -0.6899
  550SOL    HW2 1971   4.857   0.205   4.520  0.0380  0.5964  0.4006
  551SOL     OW 1972   1.924   5.407   4.156 -0.0939 -0.1146 -0.0280
  551SOL    HW1 1973   1.915   5.447   4.248  0.1067  0.8087 -0.3964
  551SOL    HW2 1974   1.885   5.470   4.089 -1.4240 -1.3670 -0.4706
  552SOL     OW 1975   1.512   1.235   3.120 -0.2373  0.0394  0.1656
  552SOL    HW1 1976   1.563   1.186   3.049  1.4540 -0.7711  1.8357
  552SOL    HW2 1977   1.496   1.329   3.091  1.0120 -0.0846 -1.0105
  553SOL     OW 1978   1.420   1.091   2.686  0.1154 -0.3252 -0.3685
  553SOL    HW1 1979   1.509   1.122   2.652 -0.1827  1.4628  0.3472
  553SOL    HW2 1980   1.411   0.993   2.671  1.9412 -0.4368 -1.0316
  554SOL     OW 1981   4.662   0.881   4.621  0.1301 -0.3406  0.1465
  554SOL    HW1 1982   4.576   0.830   4.620  0.0163 -0.1495  0.0851
  554SOL    HW2 1983   4.644   0.978   4.600  0.4394 -0.4240 -0.5325
  555SOL     OW 1984   5.455   1.416   0.222 -0.5228 -0.4265  0.1362
  555SOL    HW1 1985   5.433   1.492   0.282 -1.5524  0.6448 -1.5144
  555SOL    HW2 1986   5.549   1.425   0.189  1.0976 -2.5054  3.5735
  556SOL     OW 1987   2.483   2.068   4.643  0.2561  0.1515  0.2622
  556SOL    HW1 1988   2.508   1.985   4.594 -0.0967 -0.4244  1.0364
  556SOL    HW2 1989   2.558   2.097   4.701 -0.4531 -1.0266  1.8445
  557SOL     OW 1990   2.046   4.841   5.207 -0.0725  0.3332  0.0403
  557SOL    HW1 1991   2.053   4.878   5.115 -0.2088 -0.7824 -0.4324
  557SOL    HW2 1992   2.135   4.803   5.234 -0.6476 -1.6226 -0.6504
  558SOL     OW 1993   1.260   1.358   4.820 -0.1203  0.0199  0.5465
  558SOL    HW1 1994   1.206   1.340   4.738  0.0475  0.6471  0.2904
  558SOL    HW2 1995   1.354   1.329   4.804 -0.0153  0.4258  0.3932
  559SOL     OW 1996   1.356   2.282   4.896 -0.3869  0.0835 -0.5763
  559SOL    HW1 1997   1.293   2.342   4.945 -0.0366  0.2137 -0.2823
  559SOL    HW2 1998   1.440   2.271   4.949  0.3149  0.8356 -1.4988
  560SOL     OW 1999   0.460   0.485   4.405  0.2232 -0.0143 -0.3183
  560SOL    HW1 2000   0.476   0.425   4.484  2.6894 -2.4523 -2.4287
  560SOL    HW2 2001   0.537   0.477   4.342 -1.2028  2.5419 -2.5860
  561SOL     OW 2002   5.151   0.196   3.501  0.1768  0.1888  0.1350
  561SOL    HW1 2003   5.098   0.267   3.455  1.7661  1.4165  0.0979
  561SOL    HW2 2004   5.123   0.190   3.596 -0.7305  0.0944 -0.1348
  562SOL     OW 2005   5.439   4.213   0.454  0.2215 -0.0179  0.0774
  562SOL    HW1 2006   5.369   4.232   0.523  1.6056 -0.0188  1.5600
  562SOL    HW2 2007   5.494   4.295   0.440  0.8122 -0.4197  0.0111
  563SOL     OW 2008   4.176   1.459   3.905 -0.2218 -0.8469  0.1620
  563SOL    HW1 2009   4.179   1.366   3.940  0.6424 -0.4906  1.0795
  563SOL    HW2 2010   4.165   1.523   3.981  0.0378 -0.1593 -0.3677
  564SOL     OW 2011   0.849   5.335   4.370 -0.1371  0.7249 -0.1586
  564SOL    HW1 2012   0.808   5.399   4.435  0.3628  0.5882  0.3054
  564SOL    HW2 2013   0.785   5.315   4.296 -1.1489  0.0312  0.8788
  565SOL     OW 2014   2.388   5.177   1.120  0.8122  0.5293 -0.1820
  565SOL    HW1 2015   2.291   5.193   1.098  0.8628  1.6169  0.3201
  565SOL    HW2 2016   2.396   5.093   1.173  0.2546 -0.0914 -1.0708
  566SOL     OW 2017   4.828   0.818   0.498  0.1553 -0.5452  0.1060
  566SOL    HW1 2018   4.793   0.910   0.519  0.3145 -0.0110 -1.7645
  566SOL    HW2 2019   4.756   0.751   0.513 -0.8950  0.2386 -1.2254
  567SOL     OW 2020   2.368   4.954   4.343  0.5185 -0.3818 -0.1280
  567SOL    HW1 2021   2.446   4.990   4.291  0.5233  0.3110  0.3457
  567SOL    HW2 2022   2.345   5.017   4.416  1.6666 -2.1533  1.8952
  568SOL     OW 2023   0.486   5.502   0.358 -0.0214 -1.0100 -0.0790
  568SOL    HW1 2024   0.569   5.554   0.378 -0.3972  0.8448 -2.7257
  568SOL    HW2 2025   0.509   5.426   0.298 -0.2869  0.2235 -1.8323
  569SOL     OW 2026   0.093   1.336   3.998 -0.1157  0.1535 -0.1371
  569SOL    HW1 2027   0.168   1.398   3.975 -1.9247  2.3993 -0.3429
  569SOL    HW2 2028   0.099   1.311   4.094  1.1923 -0.1466 -0.2846
  570SOL     OW 2029   1.205   1.109   0.386 -0.2714  0.2372  0.2863
  570SOL    HW1 2030   1.299   1.108   0.421  0.0795 -0.6498 -0.6216
  570SOL    HW2 2031   1.192   1.031   0.324 -0.8252  1.7497 -1.5872
  571SOL     OW 2032   5.068   0.637   5.012 -0.1651 -0.0816 -0.4190
  571SOL    HW1 2033   5.040   0.596   5.098  0.3221 -0.2502 -0.3379
  571SOL    HW2 2034   5.029   0.584   4.936 -0.1864 -0.2271 -0.3081
  572SOL     OW 2035   1.390   0.144   4.775  0.0127 -0.0208 -0.1304
  572SOL    HW1 2036   1.486   0.163   4.794 -0.4241  1.4824  0.7339
  572SOL    HW2 2037   1.383   0.068   4.710  1.7826  0.2141 -0.6341
  573SOL     OW 2038   0.175   0.025   3.037  0.4760  0.3188 -0.3426
  573SOL    HW1 2039   0.088   0.048   3.080  0.6803 -0.3297  0.4534
  573SOL    HW2 2040   0.244   0.012   3.108  1.0065 -0.0358 -0.9176
  574SOL     OW 2041   1.444   5.017   5.057 -0.3917  0.2690  0.4999
  574SOL    HW1 2042   1.392   4.992   4.976 -1.6219 -0.2954  1.4236
  574SOL    HW2 2043   1.442   5.116   5.070 -0.9965  0.2755  0.3644
  575SOL     OW 2044   5.421   0.779   4.685 -0.5881 -0.0503 -0.3794
  575SOL    HW1 2045   5.356   0.758   4.613 -2.0112  1.0892  0.5269
  575SOL    HW2 2046   5.396   0.865   4.729  1.0784  0.0106  0.5284
  576SOL     OW 2047   1.126   4.525   0.221  0.3712 -0.1445 -0.2532
  576SOL    HW1 2048   1.139   4.437   0.177  2.3106  0.0265 -0.0872
  576SOL    HW2 2049   1.139   4.516   0.319 -1.0993  0.0320 -0.0151
  577SOL     OW 2050   1.568   3.837   0.489  0.1516  0.1572  1.1663
  577SOL    HW1 2051   1.648   3.859   0.433  0.3480  2.6498  2.3155
  577SOL    HW2 2052   1.486   3.837   0.432  0.5162  1.3162  0.6130
  578SOL     OW 2053   1.920   0.833   5.065  0.1946  0.2248 -0.3014
  578SOL    HW1 2054   1.870   0.875   5.141 -0.8536  0.9724 -1.3751
  578SOL    HW2 2055   1.965   0.750   5.097 -2.4032 -0.9703  0.5644
  579SOL     OW 2056   4.837   1.951   4.567  0.1972 -0.1728  0.2054
  579SOL    HW1 2057   4.744   1.935   4.535 -0.4526  2.6327  0.4486
  579SOL    HW2 2058   4.835   1.981   4.663  1.3844 -0.4107  0.3234
  580SOL     OW 2059   4.902   2.135   3.572 -0.0730  0.0501 -0.3122
  580SOL    HW1 2060   4.981   2.166   3.519 -0.9417  2.0918 -0.5208
  580SOL    HW2 2061   4.917   2.156   3.669 -0.3530  0.4316 -0.3511
  581SOL     OW 2062   1.263   2.119   4.117 -0.1668 -0.4225  0.1089
  581SOL    HW1 2063   1.195   2.071   4.173 -1.0266 -0.9319 -1.3146
  581SOL    HW2 2064   1.247   2.218   4.123  0.3350 -0.4001  1.4550
  582SOL     OW 2065   2.679   1.087   0.555  0.3642  0.1701 -0.0468
  582SOL    HW1 2066   2.692   1.183   0.579 -2.2546  0.4301  0.6917
  582SOL    HW2 2067   2.684   1.031   0.637  1.6349 -0.3289 -0.4433
  583SOL     OW 2068   4.774   0.788   4.309  0.7893  0.0894 -0.1864
  583SOL    HW1 2069   4.828   0.755   4.232  1.3542 -0.8573  0.5931
  583SOL    HW2 2070   4.830   0.852   4.363  0.5289  0.4466 -0.3359
  584SOL     OW 2071   0.340   4.924   0.382 -0.0166 -0.5039 -0.1177
  584SOL    HW1 2072   0.423   4.895   0.431  1.0376 -0.0344 -1.5625
  584SOL    HW2 2073   0.331   5.023   0.387  0.9575 -0.2720 -2.0986
  585SOL     OW 2074   1.937   0.371   5.112 -0.1641 -0.1506 -0.7232
  585SOL    HW1 2075   1.846   0.350   5.148  0.6653  0.8861  2.2722
  585SOL    HW2 2076   1.946   0.333   5.020 -2.7143 -2.4754 -0.1401
  586SOL     OW 2077   0.858   4.502   4.988 -0.9555 -0.5151 -0.1020
  586SOL    HW1 2078   0.885   4.516   4.892 -0.2997 -0.2544  0.1103
  586SOL    HW2 2079   0.824   4.588   5.025 -0.1556 -0.3246  0.2142
  587SOL     OW 2080   0.474   0.334   4.903 -0.4761  0.0128  0.6805
  587SOL    HW1 2081   0.470   0.337   5.003 -0.7581  1.7226  0.6568
  587SOL    HW2 2082   0.569   0.346   4.873 -0.4574  0.0191  0.7422
  588SOL     OW 2083   4.961   1.502   0.888  0.0949  0.0582  0.0362
  588SOL    HW1 2084   5.027   1.577   0.899 -0.2047  0.4173 -0.5942
  588SOL    HW2 2085   4.888   1.531   0.826 -0.6687 -0.3353  0.7425
  589SOL     OW 2086   0.332   0.542   0.248  0.0899 -0.3014 -0.0770
  589SOL    HW1 2087   0.272   0.463   0.235 -0.7232  0.2438  0.2729
  589SOL    HW2 2088   0.312   0.586   0.335  2.8026 -1.6082  1.3196
  590SOL     OW 2089   2.596   1.596   4.396  0.0481 -0.5254 -0.0137
  590SOL    HW1 2090   2.564   1.689   4.416  0.6777 -0.1888 -0.5194
  590SOL    HW2 2091   2.562   1.568   4.307 -0.6949 -1.0476  0.4293
  591SOL     OW 2092   4.260   1.553   3.082 -0.0194 -0.5218 -0.3963
  591SOL    HW1 2093   4.286   1.456   3.081  1.2549 -0.2067 -1.3797
  591SOL    HW2 2094   4.316   1.603   3.015 -1.9727  0.5638 -1.3190
  592SOL     OW 2095   5.479   1.145   3.868 -0.0839  0.1048  0.1463
  592SOL    HW1 2096   5.525   1.190   3.945 -0.7369 -0.5406  0.9257
  592SOL    HW2 2097   5.483   1.205   3.788  0.4140  0.8818  0.7334
  593SOL     OW 2098   0.847   4.973   5.454  0.0559 -0.3470 -0.5103
  593SOL    HW1 2099   0.897   4.891   5.482  1.9972  0.6504 -0.8990
  593SOL    HW2 2100   0.780   4.948   5.383 -1.0429 -1.9441  0.9961
  594SOL     OW 2101   1.768   0.506   4.370 -0.2066 -0.7154 -0.0450
  594SOL    HW1 2102   1.732   0.473   4.458 -1.5254 -1.0244 -0.6839
  594SOL    HW2 2103   1.715   0.467   4.295  1.5325 -1.2531 -1.0560
  595SOL     OW 2104   2.850   3.258   4.639  0.2816  0.0003  0.0087
  595SOL    HW1 2105   2.895   3.325   4.580  0.6183 -0.8149 -0.6783
  595SOL    HW2 2106   2.752   3.256   4.618 -1.0376  4.3288  3.8526
  596SOL     OW 2107   0.506   0.439   0.464  1.0601 -0.3567 -0.4399
  596SOL    HW1 2108   0.473   0.520   0.414 -2.3412 -1.8431 -0.8900
  596SOL    HW2 2109   0.461   0.435   0.553  3.8500 -0.0077  1.0709
  597SOL     OW 2110   0.510   5.261   0.534  0.5056 -0.3593 -0.2512
  597SOL    HW1 2111   0.506   5.257   0.634  1.8594  1.5470 -0.0745
  597SOL    HW2 2112   0.419   5.243   0.497 -0.4952  0.8975  1.4248
  598SOL     OW 2113   5.537   1.500   5.513 -0.6195 -0.2321  0.0435
  598SOL    HW1 2114   5.533   1.459   5.422 -0.9639 -1.1001  0.4469
  598SOL    HW2 2115   5.450   1.488   5.560 -0.3410 -0.0757  0.6120
  599SOL     OW 2116   1.962   4.847   3.884  0.5237 -0.1816 -0.1707
  599SOL    HW1 2117   1.903   4.788   3.939 -1.7679  2.3425  0.3144
  599SOL    HW2 2118   2.021   4.900   3.945 -0.6794  1.2367 -0.1567
  600SOL     OW 2119   0.194   0.938   3.984 -0.1313 -0.3792 -0.1176
  600SOL    HW1 2120   0.173   0.915   4.078 -2.1411  0.6274 -0.2514
  600SOL    HW2 2121   0.228   1.032   3.979 -0.2489 -0.3468 -0.3953
  601SOL     OW 2122   1.481   1.921   4.911 -0.2924  0.5606 -0.0892
  601SOL    HW1 2123   1.530   1.987   4.854  1.5861 -0.2827  0.5016
  601SOL    HW2 2124   1.382   1.939   4.904  0.0474  2.1781 -1.4513
  602SOL     OW 2125   1.321   1.002   4.923  0.0160  0.3986  1.0197
  602SOL    HW1 2126   1.270   1.011   4.837 -1.9641  1.6520  2.2440
  602SOL    HW2 2127   1.307   0.911   4.962  2.1504 -0.7304 -0.6445
  603SOL     OW 2128   1.455   0.285   4.501  0.2567 -0.2115 -0.2440
  603SOL    HW1 2129   1.428   0.285   4.405  0.2496 -0.7313 -0.2424
  603SOL    HW2 2130   1.452   0.192   4.537  1.3136 -0.1802 -0.0406
  604SOL     OW 2131   5.538   0.443   4.247 -0.3346  0.2879  0.1824
  604SOL    HW1 2132   5.612   0.461   4.311  2.2518 -2.7074 -1.6899
  604SOL    HW2 2133   5.498   0.354   4.266 -0.6058  0.0496 -1.3908
  605SOL     OW 2134   1.172   1.234   3.381  0.2596 -0.0658  0.0880
  605SOL    HW1 2135   1.217   1.172   3.446 -0.0352 -1.1857 -0.7526
  605SOL    HW2 2136   1.233   1.312   3.363  2.1481 -1.7493 -1.3475
  606SOL     OW 2137   1.656   1.173   4.378 -0.1250 -0.3020  0.1589
  606SOL    HW1 2138   1.649   1.139   4.472  1.5959 -1.1007  0.0339
  606SOL    HW2 2139   1.632   1.101   4.314 -0.8116  0.0922 -0.0388
  607SOL     OW 2140   5.545   0.812   5.485  0.6788  0.2855  0.0873
  607SOL    HW1 2141   5.598   0.805   5.569 -0.5183  1.0489  0.9322
  607SOL    HW2 2142   5.469   0.876   5.498 -1.6671 -2.2038 -0.4209
  608SOL     OW 2143   1.667   0.710   3.794  0.2943 -0.1406 -0.5762
  608SOL    HW1 2144   1.593   0.662   3.842 -0.2477  1.3538  0.1493
  608SOL    HW2 2145   1.639   0.728   3.700 -0.7931  1.4202  0.0033
  609SOL     OW 2146   0.015   2.276   4.975  0.2024 -0.6723  0.0157
  609SOL    HW1 2147  -0.076   2.261   4.935  0.2499 -1.0425  0.0371
  609SOL    HW2 2148   0.080   2.298   4.902  0.6302 -2.9200 -0.3529
  610SOL     OW 2149   5.327   0.325   2.556 -0.3431 -0.2695 -0.2562
  610SOL    HW1 2150   5.373   0.384   2.623 -0.4732 -1.2455  0.7184
  610SOL    HW2 2151   5.260   0.379   2.506 -0.2402  0.4931  0.4021
  611SOL     OW 2152   5.102   0.832   3.605 -0.1991  0.3171 -0.0156
  611SOL    HW1 2153   5.176   0.819   3.671  0.6001  0.6418 -0.8291
  611SOL    HW2 2154   5.071   0.743   3.572  0.6804  0.1949 -0.5722
  612SOL     OW 2155   4.544   2.723   5.021  0.3737  0.3124  0.2796
  612SOL    HW1 2156   4.479   2.785   5.064  0.3028 -0.2549  1.0009
  612SOL    HW2 2157   4.495   2.648   4.977  0.2909  1.8596 -2.5147
  613SOL     OW 2158   2.476   1.971   0.318  0.1253  0.3922 -0.2200
  613SOL    HW1 2159   2.405   1.918   0.273 -0.8114  0.4706  1.0889
  613SOL    HW2 2160   2.517   2.035   0.253  0.2870 -0.9190 -1.4589
  614SOL     OW 2161   5.083   2.291   4.061 -0.5533  0.5887  0.1364
  614SOL    HW1 2162   5.040   2.275   4.150 -1.7191 -0.4958 -0.5806
  614SOL    HW2 2163   5.161   2.229   4.050 -0.6557  0.4412  0.2411
  615SOL     OW 2164   0.164   4.697   3.798  0.3808 -0.2146 -0.1608
  615SOL    HW1 2165   0.114   4.708   3.712  0.9263  2.2158 -0.2409
  615SOL    HW2 2166   0.148   4.606   3.834 -3.2765  0.0664 -0.6838
  616SOL     OW 2167   0.124   0.868   4.247 -0.0288 -0.0907 -0.8319
  616SOL    HW1 2168   0.103   0.887   4.343 -0.3031  0.7329 -1.0486
  616SOL    HW2 2169   0.179   0.784   4.241  2.2551  1.2278  0.2908
  617SOL     OW 2170   1.603   0.399   4.175  0.2817  0.1788 -0.3093
  617SOL    HW1 2171   1.664   0.363   4.104  0.6623 -0.8027  0.4907
  617SOL    HW2 2172   1.525   0.444   4.132  0.1813 -0.9456 -1.3543
  618SOL     OW 2173   0.855   2.255   2.384  0.2898 -0.4880 -0.2458
  618SOL    HW1 2174   0.910   2.318   2.439 -0.7481  2.3707 -2.2462
  618SOL    HW2 2175   0.916   2.194   2.333  1.6775  1.7195 -1.4030
  619SOL     OW 2176   4.691   2.782   4.538  0.4659  0.4054  0.3823
  619SOL    HW1 2177   4.621   2.734   4.591  0.9753  0.6051  1.2555
  619SOL    HW2 2178   4.648   2.827   4.460 -0.8815  2.9208  2.4314
  620SOL     OW 2179   1.560   4.553   0.679  0.0283 -0.2620  0.5161
  620SOL    HW1 2180   1.575   4.542   0.581  0.4738 -1.6684  0.7122
  620SOL    HW2 2181   1.599   4.639   0.710 -0.8044  0.5642 -0.6696
  621SOL     OW 2182   5.474   0.116   2.413  0.2499  0.9557 -0.1655
  621SOL    HW1 2183   5.434   0.198   2.454 -0.7226  0.6948 -0.5757
  621SOL    HW2 2184   5.493   0.132   2.316 -3.3522 -0.3985 -1.2338
  622SOL     OW 2185   1.790   1.064   0.394  0.0316  0.0166  0.4096
  622SOL    HW1 2186   1.790   1.125   0.315 -1.4026 -0.9848 -0.4110
  622SOL    HW2 2187   1.882   1.027   0.406  0.7763  1.7912  0.5328
  623SOL     OW 2188   0.607   5.144   4.688 -0.5742 -0.0059  0.1181
  623SOL    HW1 2189   0.516   5.173   4.717  0.1305  1.5214  0.9178
  623SOL    HW2 2190   0.613   5.146   4.588 -2.0329 -2.1661 -0.0796
  624SOL     OW 2191   1.529   1.739   3.528 -0.4153 -0.1159 -0.1121
  624SOL    HW1 2192   1.531   1.786   3.616 -2.7259  0.2993 -0.2194
  624SOL    HW2 2193   1.517   1.641   3.543 -3.4081  0.2054  0.0950
  625SOL     OW 2194   0.814   1.396   0.068 -0.0587  0.0627  0.1740
  625SOL    HW1 2195   0.730   1.373   0.118  0.2194  0.1082  0.6704
  625SOL    HW2 2196   0.798   1.386  -0.030 -0.1144 -1.7177  0.3237
  626SOL     OW 2197   2.888   0.082   1.057 -0.4458  0.1549 -0.2005
  626SOL    HW1 2198   2.939   0.092   1.142 -0.1908 -0.0302 -0.3286
  626SOL    HW2 2199   2.883   0.171   1.011 -1.2511  0.4187  0.3747
  627SOL     OW 2200   2.002   5.491   0.911  0.0038 -0.5798 -0.2389
  627SOL    HW1 2201   2.099   5.479   0.888  0.6932  1.2108  1.4206
  627SOL    HW2 2202   1.951   5.513   0.828  1.1201 -0.9969 -1.0692
  628SOL     OW 2203   1.314   1.804   3.353 -0.0562  0.2902  0.1333
  628SOL    HW1 2204   1.393   1.787   3.412  0.0268  0.1388 -0.0207
  628SOL    HW2 2205   1.332   1.885   3.297 -0.4373  0.8746  0.8410
  629SOL     OW 2206   4.037   2.353   4.390  0.2466 -0.0917  0.1571
  629SOL    HW1 2207   4.091   2.347   4.474 -0.4626 -0.3946  0.6036
  629SOL    HW2 2208   4.055   2.440   4.345  3.1179 -1.2157 -1.1133
  630SOL     OW 2209   1.520   0.490   1.747  0.0944  0.1480  0.1594
  630SOL    HW1 2210   1.427   0.479   1.782  0.5707 -1.8648  0.9425
  630SOL    HW2 2211   1.529   0.440   1.661  0.2659  0.9815 -0.3183
  631SOL     OW 2212   0.339   5.351   4.931  0.0624  0.1913 -0.5158
  631SOL    HW1 2213   0.425   5.403   4.932  0.2466 -0.1087 -0.3952
  631SOL    HW2 2214   0.341   5.286   4.856 -0.5709  1.0133 -1.2638
  632SOL     OW 2215   0.359   0.035   3.662  0.2629  0.2425 -0.4920
  632SOL    HW1 2216   0.390  -0.046   3.613 -0.2707 -1.3866  1.7258
  632SOL    HW2 2217   0.263   0.054   3.639 -0.0761 -0.6873  0.1331
  633SOL     OW 2218   1.774   4.664   1.160  0.6639 -0.2456 -0.1723
  633SOL    HW1 2219   1.700   4.695   1.101 -0.0785 -0.9014  0.3997
  633SOL    HW2 2220   1.854   4.641   1.104  0.8253  1.4473 -0.7141
  634SOL     OW 2221   0.964   1.440   4.294 -0.1444  0.3314 -0.0431
  634SOL    HW1 2222   0.896   1.472   4.361 -0.5202 -1.3531  0.4388
  634SOL    HW2 2223   1.050   1.421   4.341  0.4264  1.6769 -0.5170
  635SOL     OW 2224   4.411   2.197   3.425 -0.7076 -0.2844  0.6755
  635SOL    HW1 2225   4.337   2.137   3.456 -0.2616 -1.4468 -0.4159
  635SOL    HW2 2226   4.483   2.200   3.494 -0.6218 -1.2276  0.6411
  636SOL     OW 2227   0.785   0.493   5.192 -0.5827  0.1513  0.4404
  636SOL    HW1 2228   0.839   0.409   5.199 -1.1088 -0.1875  0.4158
  636SOL    HW2 2229   0.688   0.472   5.203 -0.6935  0.7946  0.6963
  637SOL     OW 2230   0.351   1.218   4.301 -0.4766 -0.2213 -0.4329
  637SOL    HW1 2231   0.344   1.300   4.358 -1.3666  0.5331 -1.5800
  637SOL    HW2 2232   0.336   1.136   4.358  0.1196  0.4099  0.6700
  638SOL     OW 2233   1.270   5.488   2.700  0.7540  0.2753 -0.2695
  638SOL    HW1 2234   1.216   5.407   2.724  2.2710  0.0533  2.8234
  638SOL    HW2 2235   1.214   5.570   2.712  0.2475 -0.1108  0.0391
  639SOL     OW 2236   2.080   1.045   4.267  0.3518  0.3905 -0.3358
  639SOL    HW1 2237   2.088   0.948   4.243  0.0635  0.1362  0.5582
  639SOL    HW2 2238   2.043   1.054   4.359 -0.1720  1.3681 -0.6255
  640SOL     OW 2239   1.073   1.145   3.972  0.2420  0.1285 -0.0700
  640SOL    HW1 2240   1.068   1.244   3.967  0.1512  0.2147  1.4304
  640SOL    HW2 2241   1.005   1.110   4.036 -0.8656 -1.0662 -1.7822
  641SOL     OW 2242   0.684   3.308   5.047 -0.1104  0.2686  0.1700
  641SOL    HW1 2243   0.599   3.325   5.096 -0.3429 -0.3278 -0.0145
  641SOL    HW2 2244   0.679   3.348   4.955 -0.9049 -1.2832 -0.4993
  642SOL     OW 2245   0.577   0.768   0.399 -0.0090 -0.3188 -0.0011
  642SOL    HW1 2246   0.628   0.749   0.315  0.2144  0.9016 -0.1529
  642SOL    HW2 2247   0.503   0.831   0.379  0.7433  0.8990  0.9097
  643SOL     OW 2248   3.648   1.783   5.096  0.3823 -0.0717 -0.4070
  643SOL    HW1 2249   3.632   1.726   5.177 -0.3696 -1.6168 -1.5716
  643SOL    HW2 2250   3.569   1.843   5.082  1.7691  2.4076  1.6238
  644SOL     OW 2251   1.556   0.448   3.668  0.1782  0.8695  0.1805
  644SOL    HW1 2252   1.478   0.478   3.723  0.1506  0.4289  0.3859
  644SOL    HW2 2253   1.603   0.528   3.631 -1.2338  1.1296 -1.1606
  645SOL     OW 2254   2.107   2.980   4.472  0.1532 -0.2728  0.2584
  645SOL    HW1 2255   2.130   2.891   4.511  4.2785  0.1335 -0.7732
  645SOL    HW2 2256   2.184   3.042   4.484 -2.4995  3.2137  0.7939
  646SOL     OW 2257   0.658   0.957   4.739  0.2975  0.2179  0.5604
  646SOL    HW1 2258   0.579   1.018   4.735 -0.0131 -0.2273 -1.1353
  646SOL    HW2 2259   0.637   0.871   4.692  2.3630  0.8908 -1.8918
  647SOL     OW 2260   4.984   0.982   4.386 -0.2630 -0.0074 -0.7905
  647SOL    HW1 2261   4.981   1.081   4.401  0.0128 -0.0492 -0.4526
  647SOL    HW2 2262   5.074   0.956   4.351 -0.6333 -0.0199 -1.7792
  648SOL     OW 2263   1.382   0.148   3.715  0.3418 -0.2661  0.0089
  648SOL    HW1 2264   1.369   0.247   3.708 -0.5173 -0.3787 -0.1106
  648SOL    HW2 2265   1.293   0.103   3.711  0.8291 -1.1661 -1.8667
  649SOL     OW 2266   0.439   4.576   4.448  0.0315  0.1994 -0.1040
  649SOL    HW1 2267   0.500   4.499   4.430 -0.5173 -0.0911 -0.7888
  649SOL    HW2 2268   0.451   4.646   4.377  0.0415  0.4396  0.1320
  650SOL     OW 2269   1.577   1.204   3.371 -0.1675 -0.2186  0.0545
  650SOL    HW1 2270   1.529   1.123   3.405  1.7006 -1.8862 -1.0866
  650SOL    HW2 2271   1.552   1.220   3.276  0.9467 -0.6691 -0.3280
  651SOL     OW 2272   5.232   0.936   4.150 -0.4838  0.1783 -0.1694
  651SOL    HW1 2273   5.226   0.977   4.058 -1.6125 -0.0267 -0.2030
  651SOL    HW2 2274   5.281   0.850   4.145  1.3647  1.1942 -0.2071
  652SOL     OW 2275   1.481   5.293   4.596 -0.1661  0.2110 -0.4554
  652SOL    HW1 2276   1.441   5.217   4.646  0.7460  0.3054  0.4428
  652SOL    HW2 2277   1.579   5.277   4.582 -0.1585  0.7625 -1.1272
  653SOL     OW 2278   2.068   0.159   4.247  0.5198 -0.3312  0.2575
  653SOL    HW1 2279   2.064   0.249   4.290  0.9808  0.9568 -2.2610
  653SOL    HW2 2280   2.032   0.091   4.311 -0.3501  1.6803  2.0362
  654SOL     OW 2281   0.903   4.865   4.123 -0.5233  0.1023 -0.7727
  654SOL    HW1 2282   0.937   4.938   4.064 -0.3522 -0.5508 -1.4894
  654SOL    HW2 2283   0.979   4.806   4.150 -0.7897 -0.2668 -0.8306
  655SOL     OW 2284   4.448   1.390   3.852 -0.4060  0.0078 -0.0253
  655SOL    HW1 2285   4.361   1.429   3.884 -0.5108 -0.5240  0.3472
  655SOL    HW2 2286   4.437   1.292   3.838 -0.2401  0.1502 -1.2895
  656SOL     OW 2287   5.351   3.638   5.309 -0.3521  0.0226 -0.4583
  656SOL    HW1 2288   5.299   3.695   5.246  0.1759  0.3879 -0.5664
  656SOL    HW2 2289   5.440   3.615   5.269  0.5033  1.2797  0.6384
  657SOL     OW 2290   4.250   2.998   5.353  0.3453 -0.3542 -0.3824
  657SOL    HW1 2291   4.237   2.906   5.388 -0.5201 -0.5256 -1.1120
  657SOL    HW2 2292   4.168   3.027   5.304  0.8672  0.5326 -0.7675
  658SOL     OW 2293   4.974   1.645   0.639  0.1090  0.1936  0.3936
  658SOL    HW1 2294   5.060   1.602   0.610 -0.6380 -1.1357  0.0870
  658SOL    HW2 2295   4.899   1.609   0.584 -0.6890  1.1810  0.8114
  659SOL     OW 2296   1.108   0.447   0.407 -0.4235  0.8463 -0.6624
  659SOL    HW1 2297   1.010   0.429   0.393 -0.5913  0.0434  1.2208
  659SOL    HW2 2298   1.155   0.362   0.429  0.3987  1.4652  0.0288
  660SOL     OW 2299   0.414   2.823   2.384  0.4892 -0.8622 -0.0942
  660SOL    HW1 2300   0.405   2.828   2.483  1.2865  1.4063 -0.0748
  660SOL    HW2 2301   0.511   2.822   2.359  0.2980 -1.3304 -0.8571
  661SOL     OW 2302   2.042   3.091   5.474  0.4497 -0.0054 -0.2360
  661SOL    HW1 2303   2.140   3.110   5.476  0.2339  1.1707  1.3339
  661SOL    HW2 2304   2.009   3.078   5.568 -0.6818 -1.6933 -0.8081
  662SOL     OW 2305   5.067   2.206   0.053  0.1658  0.0665  0.3033
  662SOL    HW1 2306   5.115   2.272  -0.003 -0.2688 -0.1209 -0.3046
  662SOL    HW2 2307   5.121   2.184   0.134  0.5712  0.7167  0.2097
  663SOL     OW 2308   1.632   1.220   5.498  0.3136 -0.2930 -0.7600
  663SOL    HW1 2309   1.645   1.312   5.535  1.3079 -0.7204  0.0043
  663SOL    HW2 2310   1.573   1.167   5.559  0.4353 -0.4177 -0.7488
  664SOL     OW 2311   1.066   3.920   0.556  0.7776 -0.5205 -0.2403
  664SOL    HW1 2312   1.134   3.847   0.560  0.5828 -0.6691  0.5001
  664SOL    HW2 2313   1.037   3.943   0.649  0.2806 -0.0236 -0.5164
  665SOL     OW 2314   1.252   2.401   1.216 -0.0932 -0.4441  0.0035
  665SOL    HW1 2315   1.317   2.476   1.204 -0.4901 -0.2330 -0.9068
  665SOL    HW2 2316   1.185   2.403   1.142  0.9854 -2.8161 -1.1460
  666SOL     OW 2317   0.607   2.884   4.613 -0.8819  0.0716 -0.0640
  666SOL    HW1 2318   0.580   2.802   4.663 -1.2299 -0.5722 -1.2611
  666SOL    HW2 2319   0.541   2.902   4.540  1.4204 -1.0976 -2.6173
  667SOL     OW 2320   0.268   2.920   3.541 -0.6705 -0.8956 -0.1594
  667SOL    HW1 2321   0.347   2.966   3.501 -0.0550 -2.6811 -1.1025
  667SOL    HW2 2322   0.262   2.944   3.638  0.9833 -0.6706 -0.0792
  668SOL     OW 2323   0.004   1.601   2.119  0.0958  0.6216  0.4734
  668SOL    HW1 2324   0.050   1.684   2.151 -1.3551  1.7838 -0.2913
  668SOL    HW2 2325   0.034   1.581   2.025 -0.0555  0.6926  0.4085
  669SOL     OW 2326   1.073   2.451   2.361  0.0761  0.4170 -0.4021
  669SOL    HW1 2327   1.016   2.533   2.370 -0.3304  0.0485  0.5008
  669SOL    HW2 2328   1.093   2.435   2.264 -1.8146  0.2768 -0.8190
  670SOL     OW 2329   0.584   1.031   1.617 -0.1137  0.0140  0.4651
  670SOL    HW1 2330   0.522   0.997   1.547 -0.7119 -0.5197  1.2418
  670SOL    HW2 2331   0.544   1.017   1.707  0.2141  1.5601  0.8951
  671SOL     OW 2332   1.700   0.734   0.598 -0.7783  0.2250  0.1582
  671SOL    HW1 2333   1.616   0.771   0.558  0.5572  1.9358 -1.2032
  671SOL    HW2 2334   1.678   0.651   0.650 -2.9572 -0.7306 -2.0697
  672SOL     OW 2335   2.395   1.891   1.748 -0.1887 -0.0443 -0.2326
  672SOL    HW1 2336   2.391   1.793   1.728 -1.2870  0.0097 -0.3399
  672SOL    HW2 2337   2.342   1.911   1.830 -0.9868  0.6113 -0.8820
  673SOL     OW 2338   1.340   4.045   2.022  0.1490  0.4318 -0.7165
  673SOL    HW1 2339   1.241   4.038   2.036  0.3262  0.7041  0.7598
  673SOL    HW2 2340   1.362   4.138   1.991 -0.1973 -0.0583 -2.5573
  674SOL     OW 2341   5.132   3.426   5.322  0.0030 -0.2310  0.4208
  674SOL    HW1 2342   5.189   3.345   5.310  0.5794  0.1109  0.7911
  674SOL    HW2 2343   5.190   3.506   5.336 -0.5616  0.2066  0.3311
  675SOL     OW 2344   1.687   1.798   1.671  0.3803  0.0933 -0.5326
  675SOL    HW1 2345   1.710   1.869   1.603  2.5384  0.5418  0.5738
  675SOL    HW2 2346   1.767   1.740   1.685  0.3361  0.5964  2.2856
  676SOL     OW 2347   0.069   4.200   1.692  0.0481  0.2330  0.1204
  676SOL    HW1 2348   0.165   4.226   1.690  0.3015 -0.2123  2.5535
  676SOL    HW2 2349   0.056   4.113   1.644  0.8185  0.3955 -0.3900
  677SOL     OW 2350   0.303   3.037   0.625  0.1008 -0.2544 -0.5089
  677SOL    HW1 2351   0.295   3.095   0.543 -1.8627 -1.1598 -1.0262
  677SOL    HW2 2352   0.235   3.066   0.692  1.3036  0.0944  0.5951
  678SOL     OW 2353   2.098   1.707   0.431 -0.1369  0.4090  0.3559
  678SOL    HW1 2354   2.077   1.778   0.498  0.4689  0.6434  0.3090
  678SOL    HW2 2355   2.196   1.690   0.430 -0.3682 -1.0704  0.9901
  679SOL     OW 2356   5.294   1.541   4.445  0.3325 -0.0547 -0.0997
  679SOL    HW1 2357   5.253   1.615   4.392  1.3445  0.7400  0.1887
  679SOL    HW2 2358   5.392   1.537   4.425  0.7066  0.1494  1.5597
  680SOL     OW 2359   2.952   1.768   0.097 -0.7004  0.3028 -0.0308
  680SOL    HW1 2360   2.909   1.837   0.155  0.8032 -0.4218  2.0141
  680SOL    HW2 2361   3.023   1.811   0.041 -0.5598  0.6097  0.3811
  681SOL     OW 2362   0.033   4.233   1.080  1.0507  0.1204  0.9812
  681SOL    HW1 2363   0.060   4.137   1.083  0.4343 -0.0559  0.9460
  681SOL    HW2 2364   0.005   4.256   0.986  1.2211  0.3391  0.9844
  682SOL     OW 2365   3.232   0.527   0.572 -0.0469  0.0679 -0.4093
  682SOL    HW1 2366   3.168   0.458   0.605 -0.5901  0.2440 -1.0783
  682SOL    HW2 2367   3.325   0.503   0.600 -0.2692 -0.7584 -0.3688
  683SOL     OW 2368   2.945   2.400   5.448 -0.3344  0.0175 -0.1515
  683SOL    HW1 2369   2.849   2.422   5.429  0.3349  0.9272 -2.7983
  683SOL    HW2 2370   3.004   2.446   5.382  1.8016 -2.3507 -0.0432
  684SOL     OW 2371   0.439   3.165   2.028  0.3913  0.1023 -0.6052
  684SOL    HW1 2372   0.534   3.183   2.053  0.5290 -1.1483 -0.1514
  684SOL    HW2 2373   0.383   3.245   2.049  1.1717  0.4807  0.0948
  685SOL     OW 2374   5.147   2.140   4.719  0.4752 -0.4079 -0.0168
  685SOL    HW1 2375   5.079   2.198   4.762  1.6120  0.6465  0.4115
  685SOL    HW2 2376   5.122   2.124   4.623  0.0491  0.6453 -0.0900
  686SOL     OW 2377   1.567   2.794   2.333 -0.0975  0.0435 -0.1621
  686SOL    HW1 2378   1.478   2.766   2.369 -0.2820  0.0523 -0.6009
  686SOL    HW2 2379   1.556   2.874   2.274  0.0104 -0.7040 -1.2337
  687SOL     OW 2380   3.063   1.085   2.070  0.3282 -0.6225 -0.4175
  687SOL    HW1 2381   3.106   1.052   2.154  0.8468 -0.7624 -0.7330
  687SOL    HW2 2382   3.129   1.082   1.995  0.4787  1.4018 -0.4061
  688SOL     OW 2383   5.257   3.433   1.987  0.5254 -0.1965  0.5176
  688SOL    HW1 2384   5.290   3.397   1.900  1.0235 -0.2071  0.7077
  688SOL    HW2 2385   5.167   3.395   2.006 -0.2940  1.0010 -0.7382
  689SOL     OW 2386   2.076   3.239   1.949 -0.3185  0.4370 -0.1074
  689SOL    HW1 2387   2.055   3.210   2.042 -0.0364  0.6031  0.0095
  689SOL    HW2 2388   1.998   3.288   1.911  0.0775  1.6258  0.5622
  690SOL     OW 2389   0.368   4.599   0.089  0.3139 -0.0413 -0.2391
  690SOL    HW1 2390   0.445   4.658   0.065  0.5344 -0.7692 -1.4244
  690SOL    HW2 2391   0.318   4.575   0.006  0.4342 -1.7787  0.1489
  691SOL     OW 2392   4.946   4.060   0.477  0.1704  0.4837  0.2216
  691SOL    HW1 2393   4.986   4.088   0.390 -3.2488  1.0225 -1.3180
  691SOL    HW2 2394   4.912   3.967   0.470 -0.0383  0.4848  1.0579
  692SOL     OW 2395   1.725   2.578   1.479 -0.3435 -0.3946  0.3112
  692SOL    HW1 2396   1.812   2.623   1.498  0.6320 -1.3559 -1.5867
  692SOL    HW2 2397   1.675   2.630   1.410 -1.3358  0.1816  1.4315
  693SOL     OW 2398   0.944   3.750   0.130 -0.4948  0.1992  0.5927
  693SOL    HW1 2399   0.875   3.685   0.098  0.6231 -0.8496  0.2194
  693SOL    HW2 2400   0.914   3.792   0.215 -1.4281 -0.4923  0.6180
  694SOL     OW 2401   0.870   0.537   0.290  0.0600 -0.5022 -0.3906
  694SOL    HW1 2402   0.903   0.631   0.300 -0.6073 -0.2320 -0.6526
  694SOL    HW2 2403   0.883   0.507   0.196 -0.8517 -0.2239 -0.6152
  695SOL     OW 2404   2.127   3.554   5.170 -0.1882  0.4816  0.1876
  695SOL    HW1 2405   2.070   3.535   5.090 -0.4333  0.5802  0.3348
  695SOL    HW2 2406   2.077   3.528   5.253  0.3569 -0.3122  0.2714
  696SOL     OW 2407   0.926   2.506   5.315  0.1633 -0.0711  0.0908
  696SOL    HW1 2408   1.010   2.541   5.273  0.2295  0.2219  0.4607
  696SOL    HW2 2409   0.930   2.519   5.414 -0.4787  0.2857  0.0738
  697SOL     OW 2410   2.588   2.596   0.064  0.0484 -0.2818  0.0412
  697SOL    HW1 2411   2.514   2.605   0.131 -0.1539 -0.2099 -0.1862
  697SOL    HW2 2412   2.653   2.671   0.075 -0.1275 -0.1190 -0.0131
  698SOL     OW 2413   1.348   2.700   2.450 -0.0909  0.0216  0.5180
  698SOL    HW1 2414   1.279   2.760   2.410  0.4030  0.3371  0.1313
  698SOL    HW2 2415   1.311   2.658   2.534 -1.5089 -1.4217 -0.7668
  699SOL     OW 2416   5.159   2.780   2.579 -0.0358  0.0131  0.3488
  699SOL    HW1 2417   5.198   2.714   2.643 -0.8692 -1.4101 -0.5568
  699SOL    HW2 2418   5.191   2.759   2.486  1.2631  2.1164  0.2439
  700SOL     OW 2419   4.526   2.710   4.271 -0.3490  0.1304 -0.0211
  700SOL    HW1 2420   4.564   2.618   4.264  0.7575  0.6515 -1.1493
  700SOL    HW2 2421   4.582   2.774   4.219 -1.4430  1.3558  0.2452
  701SOL     OW 2422   5.079   5.158   3.591  0.1647  0.1377 -0.1227
  701SOL    HW1 2423   5.102   5.168   3.688 -2.2161 -1.8216  0.7643
  701SOL    HW2 2424   4.987   5.194   3.574  0.0080 -0.7470 -1.3233
  702SOL     OW 2425   5.544   4.002   2.053 -0.0421 -0.1575  0.3232
  702SOL    HW1 2426   5.596   3.963   1.976  0.7788 -1.0805  1.3046
  702SOL    HW2 2427   5.455   4.033   2.021  0.3156 -0.4305 -1.0139
  703SOL     OW 2428   0.048   1.069   4.743  0.3154  0.3134 -0.0914
  703SOL    HW1 2429   0.052   1.144   4.808 -2.6350  0.4713  0.0705
  703SOL    HW2 2430   0.115   0.999   4.768  2.1786  2.2298  0.5386
  704SOL     OW 2431   2.758   1.713   0.367 -0.2799 -0.7094  0.4453
  704SOL    HW1 2432   2.725   1.758   0.450  2.4989  0.1738  1.1867
  704SOL    HW2 2433   2.768   1.780   0.294 -2.5383 -1.4514 -0.6298
  705SOL     OW 2434   1.946   4.261   1.700 -0.7339  0.3573 -0.1250
  705SOL    HW1 2435   1.980   4.168   1.714 -0.6984  0.4377  0.3483
  705SOL    HW2 2436   1.913   4.271   1.606  0.1742  0.1637 -0.4729
  706SOL     OW 2437   5.453   2.229   1.737  0.4126  0.1571 -0.2652
  706SOL    HW1 2438   5.442   2.131   1.722  2.0086  0.0423 -0.8528
  706SOL    HW2 2439   5.364   2.269   1.762 -0.5723 -1.1550 -1.5043
  707SOL     OW 2440   0.778   2.921   0.815  0.0919 -0.3181  0.4344
  707SOL    HW1 2441   0.859   2.888   0.766  0.1019  0.1908  0.1046
  707SOL    HW2 2442   0.804   2.996   0.875 -0.3683  0.8308 -0.7493
  708SOL     OW 2443   4.762   3.613   0.568  0.4566  0.0032  0.3254
  708SOL    HW1 2444   4.777   3.679   0.641  0.2989 -1.0147  1.3017
  708SOL    HW2 2445   4.664   3.596   0.558  0.3805  1.0799 -1.0010
  709SOL     OW 2446   2.533   2.556   0.708  0.8801  0.2577  0.1413
  709SOL    HW1 2447   2.480   2.522   0.786 -0.3621  1.0042 -0.3556
  709SOL    HW2 2448   2.574   2.645   0.731  0.6319  0.4107 -0.0052
  710SOL     OW 2449   1.490   4.075   4.708  0.1845 -0.3381  0.3644
  710SOL    HW1 2450   1.574   4.113   4.669  0.7665  0.7557  2.5406
  710SOL    HW2 2451   1.439   4.028   4.636  2.7190 -1.1992 -1.0204
  711SOL     OW 2452   5.522   3.506   0.657 -0.7826 -0.0573 -0.0885
  711SOL    HW1 2453   5.562   3.421   0.624  1.0337  0.3642  0.8981
  711SOL    HW2 2454   5.423   3.495   0.666 -0.3660 -3.0614  2.7300
  712SOL     OW 2455   0.827   1.600   0.254  0.5325 -0.3288  0.2582
  712SOL    HW1 2456   0.827   1.511   0.207  0.6197 -1.4066  2.1889
  712SOL    HW2 2457   0.857   1.671   0.191 -1.6350 -1.2683 -2.0063
  713SOL     OW 2458   1.406   2.842   1.940 -0.2911 -0.3521 -0.1014
  713SOL    HW1 2459   1.314   2.813   1.966 -0.4184  0.3951  0.2931
  713SOL    HW2 2460   1.459   2.762   1.913 -1.1310 -0.7539 -0.5776
  714SOL     OW 2461   2.803   2.568   0.487  0.2395 -0.0191  0.0116
  714SOL    HW1 2462   2.888   2.522   0.461  0.5776 -0.5348  1.9005
  714SOL    HW2 2463   2.734   2.500   0.512  0.0376  0.4456  0.7494
  715SOL     OW 2464   0.028   3.306   5.373  0.3231 -0.6204 -0.0245
  715SOL    HW1 2465  -0.039   3.344   5.309  1.6415 -1.3690 -1.9408
  715SOL    HW2 2466   0.048   3.374   5.444  1.3659  1.6835 -2.3726
  716SOL     OW 2467   1.745   1.634   0.975  0.0931 -0.3535  0.2525
  716SOL    HW1 2468   1.674   1.686   1.021 -0.3893 -2.0061  1.4894
  716SOL    HW2 2469   1.708   1.547   0.943  1.6244 -1.4578  1.3316
  717SOL     OW 2470   5.394   3.755   1.667  0.1207 -0.2419  0.3486
  717SOL    HW1 2471   5.378   3.726   1.761  0.4006 -0.1322  0.4330
  717SOL    HW2 2472   5.375   3.679   1.604 -1.7278  0.1747  0.3470
  718SOL     OW 2473   1.580   0.299   0.510  0.7435 -0.3001 -0.6456
  718SOL    HW1 2474   1.515   0.348   0.452 -1.7721 -1.1679  1.2585
  718SOL    HW2 2475   1.613   0.361   0.581  2.0830  0.1383 -1.6082
  719SOL     OW 2476   4.876   3.996   0.087  0.4308 -0.1546 -0.9135
  719SOL    HW1 2477   4.777   3.990   0.101  0.2866  0.5869 -1.5595
  719SOL    HW2 2478   4.913   3.905   0.072 -0.1706 -0.4249 -0.7933
  720SOL     OW 2479   4.744   4.969   5.357 -0.0165  0.6549  0.1790
  720SOL    HW1 2480   4.737   4.930   5.449  1.4093  0.4580  0.2332
  720SOL    HW2 2481   4.840   4.987   5.336 -0.3232  0.7531 -1.2524
  721SOL     OW 2482   0.040   2.960   4.940 -0.2538 -0.1948 -0.5756
  721SOL    HW1 2483  -0.005   2.871   4.939  0.4359 -0.6020  1.2518
  721SOL    HW2 2484   0.139   2.947   4.931  0.1059  0.1254  2.0497
  722SOL     OW 2485   0.957   3.060   1.443  0.0320  0.2229  0.3461
  722SOL    HW1 2486   0.865   3.056   1.405 -0.1286  1.5529  0.5452
  722SOL    HW2 2487   0.953   3.052   1.542  0.2147 -0.5929  0.2921
  723SOL     OW 2488   3.020   0.012   0.453  0.4324  0.7413 -0.3943
  723SOL    HW1 2489   3.058  -0.080   0.465 -1.1273  0.2568  1.3761
  723SOL    HW2 2490   3.092   0.074   0.424  1.5631 -0.9922 -1.4762
  724SOL     OW 2491   4.602   2.647   0.699  0.4417 -0.1584  0.3365
  724SOL    HW1 2492   4.619   2.609   0.608  1.7606 -0.4676  0.6835
  724SOL    HW2 2493   4.516   2.611   0.735  0.3367 -0.7042 -0.4413
  725SOL     OW 2494   1.996   3.876   1.125 -0.3834 -0.0214  0.1436
  725SOL    HW1 2495   2.057   3.939   1.174  0.1505 -1.5792  1.5766
  725SOL    HW2 2496   2.010   3.887   1.026 -0.5091  2.2521  0.3290
  726SOL     OW 2497   1.620   0.420   0.191 -0.4524 -0.2203  0.3087
  726SOL    HW1 2498   1.559   0.441   0.266 -0.0468  1.1134  0.2976
  726SOL    HW2 2499   1.713   0.451   0.213 -0.7954  2.6667 -1.7087
  727SOL     OW 2500   1.023   1.403   0.822  0.0171  0.2116 -0.0152
  727SOL    HW1 2501   1.028   1.318   0.770 -1.8708 -0.0343  0.1627
  727SOL    HW2 2502   0.984   1.475   0.765 -0.7057  0.3132  0.5933
  728SOL     OW 2503   0.303   1.283   5.469 -0.1145  0.4462 -0.0273
  728SOL    HW1 2504   0.266   1.288   5.562  2.0954 -0.6740  0.9778
  728SOL    HW2 2505   0.328   1.375   5.439  0.6077  0.6537  1.1421
  729SOL     OW 2506   0.881   0.983   5.555 -0.1893  0.4401  0.1154
  729SOL    HW1 2507   0.944   0.956   5.481  1.3470  0.4710  1.3481
  729SOL    HW2 2508   0.788   0.954   5.532 -0.1674  2.2015 -2.7355
  730SOL     OW 2509   1.757   2.247   0.215 -0.3184  0.2690  0.2103
  730SOL    HW1 2510   1.850   2.272   0.187  0.2579 -2.0201 -0.1260
  730SOL    HW2 2511   1.732   2.298   0.297  1.1721  1.0389  0.2185
  731SOL     OW 2512   0.299   2.602   4.958 -0.2100  0.0629 -0.0800
  731SOL    HW1 2513   0.246   2.554   4.888  1.6582  0.6974 -2.0404
  731SOL    HW2 2514   0.334   2.535   5.024 -0.0616 -0.8949 -1.0993
  732SOL     OW 2515   5.419   1.176   5.262 -0.2054  0.0508  0.0817
  732SOL    HW1 2516   5.512   1.211   5.274 -0.1622 -0.4586  1.3613
  732SOL    HW2 2517   5.386   1.200   5.171  0.7881  1.1562 -0.0120
  733SOL     OW 2518   0.193   2.640   2.367  0.1277 -0.3499 -0.5723
  733SOL    HW1 2519   0.283   2.684   2.373 -0.7921  1.5486  0.2530
  733SOL    HW2 2520   0.167   2.630   2.271  1.0348 -0.5458 -0.8087
  734SOL     OW 2521   0.075   2.976   1.634  0.0673 -0.1616  0.5776
  734SOL    HW1 2522   0.109   2.935   1.549 -2.3518  0.0079 -0.5719
  734SOL    HW2 2523   0.122   2.935   1.712 -0.7756 -3.7310 -0.6019
  735SOL     OW 2524   0.573   4.820   0.544  0.4963  0.3026  0.5777
  735SOL    HW1 2525   0.501   4.771   0.496  1.6458  1.6936 -2.8586
  735SOL    HW2 2526   0.550   4.826   0.642 -3.0872 -0.8492 -0.0588
  736SOL     OW 2527   0.571   4.610   3.803 -0.4628  0.3302  0.3425
  736SOL    HW1 2528   0.533   4.549   3.872 -1.6660 -1.3715 -1.6868
  736SOL    HW2 2529   0.665   4.582   3.781 -1.2743 -1.4700 -1.1619
  737SOL     OW 2530   1.663   2.036   0.532 -0.0217  0.0776 -0.6663
  737SOL    HW1 2531   1.682   2.027   0.434 -0.1484 -0.9001 -0.6034
  737SOL    HW2 2532   1.674   1.948   0.577  1.6486  0.8155  0.5085
  738SOL     OW 2533   5.460   3.544   0.217  0.4009  0.2049  0.0336
  738SOL    HW1 2534   5.450   3.464   0.276 -0.0996  0.0809 -0.2071
  738SOL    HW2 2535   5.508   3.616   0.266  0.3408 -0.0388  0.4551
  739SOL     OW 2536   1.067   2.380   2.081 -0.1525  0.1580 -0.2602
  739SOL    HW1 2537   1.123   2.380   1.998 -0.3123 -1.5489 -0.4027
  739SOL    HW2 2538   0.976   2.415   2.060  0.1360  0.7424 -0.5567
  740SOL     OW 2539   1.318   5.173   1.150  0.5076  0.8752  0.2623
  740SOL    HW1 2540   1.303   5.176   1.051  0.3212  0.9860  0.2932
  740SOL    HW2 2541   1.251   5.232   1.196  0.7257  0.9833  0.4390
  741SOL     OW 2542   1.138   2.755   1.195 -0.0261 -0.1483 -0.3671
  741SOL    HW1 2543   1.040   2.773   1.195  0.2042  1.6731 -2.9177
  741SOL    HW2 2544   1.183   2.816   1.260 -0.4454  0.2213 -0.4164
  742SOL     OW 2545   2.160   2.281   0.919  0.1117 -0.1314  0.0645
  742SOL    HW1 2546   2.074   2.263   0.965 -0.8221  0.6585 -1.2771
  742SOL    HW2 2547   2.232   2.225   0.959 -0.9031 -0.4351  1.5547
  743SOL     OW 2548   0.388   2.447   5.161  0.1741  0.1428 -0.1445
  743SOL    HW1 2549   0.456   2.505   5.206  0.1231  0.1378 -0.0614
  743SOL    HW2 2550   0.382   2.360   5.209 -0.4670  0.4410  0.3302
  744SOL     OW 2551   3.171   2.451   1.163  0.0036  0.4392 -0.1333
  744SOL    HW1 2552   3.138   2.356   1.160 -0.5938  0.6717 -1.2555
  744SOL    HW2 2553   3.103   2.508   1.209  1.2991 -0.0019  2.5438
  745SOL     OW 2554   2.407   2.402   5.539 -0.0242  0.5228  0.4977
  745SOL    HW1 2555   2.471   2.472   5.571  1.6894  1.2071 -3.7767
  745SOL    HW2 2556   2.341   2.443   5.476  1.1144 -1.5659 -2.2762
  746SOL     OW 2557   1.739   2.239   5.199  0.5351  0.5048 -0.1910
  746SOL    HW1 2558   1.769   2.205   5.109  0.6470 -1.7209  0.6234
  746SOL    HW2 2559   1.640   2.227   5.207  0.0301  3.3344 -1.0180
  747SOL     OW 2560   2.038   3.474   5.414  0.4422 -0.6229  0.2435
  747SOL    HW1 2561   1.952   3.502   5.457  0.3182  1.0508 -0.9977
  747SOL    HW2 2562   2.097   3.430   5.482 -0.0467  1.2186  1.9469
  748SOL     OW 2563   0.300   1.491   4.724 -0.4241 -0.0987  0.4552
  748SOL    HW1 2564   0.362   1.557   4.766  0.9294  0.0417 -1.6288
  748SOL    HW2 2565   0.223   1.538   4.682 -0.3471  0.0082  0.4340
  749SOL     OW 2566   1.908   1.851   0.820 -0.1655 -0.1223 -0.2498
  749SOL    HW1 2567   1.864   1.779   0.874  2.2610 -0.7415  1.0138
  749SOL    HW2 2568   1.932   1.927   0.880 -0.1528  0.5146 -1.0524
  750SOL     OW 2569   2.317   1.973   0.743  0.0422 -0.2421 -0.2743
  750SOL    HW1 2570   2.320   1.976   0.843 -0.7291  1.0296 -0.2618
  750SOL    HW2 2571   2.330   1.879   0.712  3.0003 -0.2996  0.8733
  751SOL     OW 2572   3.116   4.226   4.846 -0.0211  0.0367  0.4849
  751SOL    HW1 2573   3.130   4.299   4.913 -0.2813 -0.4634  1.1052
  751SOL    HW2 2574   3.140   4.258   4.755  0.3668  0.7257  0.8246
  752SOL     OW 2575   0.465   3.146   1.191 -0.4086 -0.0876 -0.3917
  752SOL    HW1 2576   0.460   3.116   1.286 -0.6990 -1.0572 -0.7105
  752SOL    HW2 2577   0.429   3.076   1.131 -1.5333  1.0834 -1.1336
  753SOL     OW 2578   1.633   2.412   0.394 -0.8145  0.0387 -0.6511
  753SOL    HW1 2579   1.654   2.416   0.491 -0.1691 -0.0178 -0.7885
  753SOL    HW2 2580   1.533   2.414   0.382 -0.9334 -1.1287  0.0514
  754SOL     OW 2581   0.576   0.031   1.654 -0.0955  0.6445 -0.0097
  754SOL    HW1 2582   0.641   0.073   1.717 -1.3765  1.1683  1.0138
  754SOL    HW2 2583   0.537   0.102   1.596 -0.2039  0.4287 -0.1999
  755SOL     OW 2584   0.593   1.866   0.794  0.4803  0.0349 -0.3906
  755SOL    HW1 2585   0.633   1.946   0.840 -2.0109  1.2045 -0.0451
  755SOL    HW2 2586   0.639   1.851   0.707  0.8981  2.0110 -0.5606
  756SOL     OW 2587   5.531   3.921   5.554 -0.0101 -0.4329  0.0477
  756SOL    HW1 2588   5.623   3.908   5.516  0.2724  1.6087 -0.0562
  756SOL    HW2 2589   5.475   3.972   5.489 -0.6274  0.0111  0.9088
  757SOL     OW 2590   1.567   3.267   5.526 -0.4398 -0.2236  0.3793
  757SOL    HW1 2591   1.624   3.280   5.446 -0.0037 -0.4343  0.6534
  757SOL    HW2 2592   1.481   3.317   5.514 -0.1476  0.2045  0.0259
  758SOL     OW 2593   0.571   2.328   5.481  0.2642  0.0205 -0.1530
  758SOL    HW1 2594   0.471   2.325   5.477  0.2546 -1.2666  0.5986
  758SOL    HW2 2595   0.602   2.420   5.456 -1.0406  0.1727 -1.3182
  759SOL     OW 2596   0.392   2.933   1.037  0.2529  0.4640 -0.0939
  759SOL    HW1 2597   0.423   2.978   0.953  0.1842  0.1514 -0.2869
  759SOL    HW2 2598   0.464   2.873   1.072 -0.7149 -1.6479 -1.5139
  760SOL     OW 2599   0.053   4.542   4.759  0.1932 -0.4874  0.1020
  760SOL    HW1 2600   0.008   4.456   4.737 -0.3268  0.2088 -1.7461
  760SOL    HW2 2601   0.150   4.537   4.734  0.0331 -0.3431 -0.5472
  761SOL     OW 2602   4.468   1.381   1.311 -0.4166 -0.2401  0.9456
  761SOL    HW1 2603   4.492   1.332   1.395 -0.7077 -1.2498  0.4484
  761SOL    HW2 2604   4.471   1.318   1.234 -0.7453  0.5446  0.2814
  762SOL     OW 2605   2.520   4.131   1.032 -0.5202  0.1680  0.3940
  762SOL    HW1 2606   2.559   4.054   0.981 -1.0660  2.0229 -3.2009
  762SOL    HW2 2607   2.420   4.122   1.033 -0.5222  0.2266  1.0651
  763SOL     OW 2608   1.608   3.009   1.004  0.2040 -0.5865  0.1951
  763SOL    HW1 2609   1.688   2.949   1.005  2.3516  2.0047 -1.6839
  763SOL    HW2 2610   1.614   3.075   1.080 -1.9808 -2.3248  2.0627
  764SOL     OW 2611   1.775   1.312   0.261 -0.8850  0.8183  0.1554
  764SOL    HW1 2612   1.731   1.355   0.183  0.3069 -0.6508 -1.3866
  764SOL    HW2 2613   1.849   1.371   0.294 -1.5619  1.5616  0.3829
  765SOL     OW 2614   0.260   2.773   0.795 -0.0914  0.7403 -0.7167
  765SOL    HW1 2615   0.244   2.816   0.885  1.0089 -1.9195  0.8676
  765SOL    HW2 2616   0.338   2.818   0.750 -0.8661  2.3315 -0.5504
  766SOL     OW 2617   0.668   2.586   5.273  0.5017 -1.2455 -0.5648
  766SOL    HW1 2618   0.637   2.644   5.347 -0.2801  1.3746 -2.7979
  766SOL    HW2 2619   0.763   2.558   5.290  0.8132  0.4533  0.7501
  767SOL     OW 2620   1.854   1.795   1.297 -0.3228 -0.2379  0.1571
  767SOL    HW1 2621   1.831   1.845   1.380 -2.7662 -1.3084  0.2236
  767SOL    HW2 2622   1.885   1.703   1.321  0.9455  0.1041 -0.0831
  768SOL     OW 2623   1.085   1.947   1.354 -0.1532 -0.0700 -0.0338
  768SOL    HW1 2624   1.074   1.857   1.313 -1.7494  0.8604 -1.8101
  768SOL    HW2 2625   1.116   1.938   1.449 -0.6796 -2.4677 -0.0451
  769SOL     OW 2626   0.882   2.927   5.230  0.1798  0.3249 -0.3968
  769SOL    HW1 2627   0.872   2.868   5.310  0.3278  0.4086 -0.3175
  769SOL    HW2 2628   0.816   2.899   5.160  1.3443 -1.0102 -1.0048
  770SOL     OW 2629   0.665   1.550   1.367  0.4381 -0.1034 -0.2963
  770SOL    HW1 2630   0.607   1.504   1.435 -0.0112 -0.5984 -1.0092
  770SOL    HW2 2631   0.717   1.623   1.412  1.2551 -1.3518  0.8942
  771SOL     OW 2632   0.644   2.651   1.265  0.1123 -0.2033  0.1512
  771SOL    HW1 2633   0.646   2.718   1.191  2.9036  0.7846  0.9623
  771SOL    HW2 2634   0.550   2.630   1.289 -0.8495  1.4817 -1.8658
  772SOL     OW 2635   1.566   2.762   1.324 -0.0491  0.2116 -0.1783
  772SOL    HW1 2636   1.503   2.791   1.396 -1.4448 -0.2732 -1.1568
  772SOL    HW2 2637   1.632   2.835   1.306 -0.8181  1.0580  0.3409
  773SOL     OW 2638   5.518   1.368   2.349  0.2928  0.0003  0.2270
  773SOL    HW1 2639   5.607   1.412   2.363  0.3686 -0.0948  0.0441
  773SOL    HW2 2640   5.448   1.438   2.334  0.3283  0.0765  0.4145
  774SOL     OW 2641   5.040   2.913   2.175 -0.5207  0.5049 -0.1097
  774SOL    HW1 2642   5.116   2.865   2.221  0.6841  1.8228 -0.6622
  774SOL    HW2 2643   4.976   2.846   2.139  0.3022 -0.6514  0.5020
  775SOL     OW 2644   0.928   1.707   1.232  0.2370  0.1338 -0.0695
  775SOL    HW1 2645   1.016   1.659   1.233  0.7515  1.0209  1.3229
  775SOL    HW2 2646   0.856   1.645   1.203  1.4718 -0.2653 -2.5749
  776SOL     OW 2647   1.937   3.463   3.037 -0.0496  0.0644  0.0886
  776SOL    HW1 2648   1.852   3.440   3.085 -0.6794 -1.4616 -1.5965
  776SOL    HW2 2649   1.916   3.480   2.940  1.1145  3.3452  0.2960
  777SOL     OW 2650   1.580   1.578   1.538 -0.2558  0.3892 -0.0490
  777SOL    HW1 2651   1.593   1.658   1.596 -0.7576  0.4054  0.0465
  777SOL    HW2 2652   1.625   1.499   1.579 -1.4632  0.1691  0.8842
  778SOL     OW 2653   2.176   1.698   4.802 -0.1849  0.0785  0.5248
  778SOL    HW1 2654   2.101   1.672   4.741  0.7720 -1.2747 -0.1158
  778SOL    HW2 2655   2.255   1.640   4.784  0.9135  1.2487  1.4307
  779SOL     OW 2656   1.957   1.531   0.300 -0.0064  0.0145 -0.1801
  779SOL    HW1 2657   1.987   1.606   0.360 -0.4854 -0.9882  1.3705
  779SOL    HW2 2658   2.037   1.486   0.261  0.2835  1.4956 -1.3754
  780SOL     OW 2659   5.273   2.752   2.332 -0.1245  0.1419 -0.1766
  780SOL    HW1 2660   5.262   2.682   2.261  0.3240 -0.4016  0.2740
  780SOL    HW2 2661   5.357   2.802   2.316 -0.0495  0.0540 -0.0616
  781SOL     OW 2662   0.903   2.082   2.585 -0.1372 -0.3143 -0.7669
  781SOL    HW1 2663   0.893   2.181   2.600  0.7199 -0.3709  0.3231
  781SOL    HW2 2664   0.840   2.053   2.513 -1.2131  0.8246 -0.3231
  782SOL     OW 2665   5.413   3.292   0.357  0.5335 -0.1609 -0.3921
  782SOL    HW1 2666   5.340   3.225   0.372  1.6601 -1.4087 -0.2716
  782SOL    HW2 2667   5.486   3.276   0.423  1.7547 -0.1912 -1.7124
  783SOL     OW 2668   1.643   2.008   0.879 -0.2575  0.1409 -0.5202
  783SOL    HW1 2669   1.717   1.993   0.813  0.8030 -0.9454  0.8337
  783SOL    HW2 2670   1.574   1.936   0.868  0.1507 -0.3161 -0.1741
  784SOL     OW 2671   3.085   2.555   0.889  0.2843  0.1276  0.2631
  784SOL    HW1 2672   3.107   2.625   0.957 -0.3102  0.6227 -0.0431
  784SOL    HW2 2673   2.986   2.548   0.879  0.3142 -1.1392  0.6732
  785SOL     OW 2674   3.737   1.926   1.287 -0.0557  0.1589  0.0467
  785SOL    HW1 2675   3.710   1.944   1.193 -0.0279  2.5310  0.4333
  785SOL    HW2 2676   3.832   1.897   1.290 -0.4317 -1.2257 -0.7320
  786SOL     OW 2677   5.029   2.439   5.336  0.1211  0.0410 -0.3287
  786SOL    HW1 2678   5.034   2.361   5.274 -0.1273 -0.1406 -0.1230
  786SOL    HW2 2679   4.944   2.434   5.389  0.7285 -0.2783  0.6373
  787SOL     OW 2680   3.823   3.132   4.284  0.2645 -0.0237  0.4481
  787SOL    HW1 2681   3.744   3.189   4.259 -0.4366  0.0049  2.5062
  787SOL    HW2 2682   3.907   3.184   4.271 -0.0531  0.1461 -1.2384
  788SOL     OW 2683   5.437   2.960   1.308 -0.1876  0.4493 -0.3434
  788SOL    HW1 2684   5.511   2.894   1.318 -0.8017 -0.3136 -0.7022
  788SOL    HW2 2685   5.385   2.965   1.393  1.2242  2.2048  0.4834
  789SOL     OW 2686   0.962   3.988   2.863 -0.6567 -0.5151 -0.6414
  789SOL    HW1 2687   0.914   3.938   2.790  0.5707 -0.5868 -1.4280
  789SOL    HW2 2688   1.055   3.954   2.871  0.1515  1.4549 -1.0293
  790SOL     OW 2689   4.298   2.753   1.565  0.3853 -0.2821 -0.7594
  790SOL    HW1 2690   4.372   2.686   1.554 -0.2301 -1.2210  0.5601
  790SOL    HW2 2691   4.219   2.724   1.511  1.0418  0.9170 -2.4735
  791SOL     OW 2692   4.624   5.344   4.868  0.4523 -0.8718  0.7930
  791SOL    HW1 2693   4.719   5.372   4.863  0.8184 -2.2694 -1.1791
  791SOL    HW2 2694   4.616   5.264   4.928  0.5814 -0.9449  0.7140
  792SOL     OW 2695   0.565   0.174   5.320 -0.3015 -0.5741  0.2411
  792SOL    HW1 2696   0.633   0.152   5.251  0.9811  1.1054  0.8904
  792SOL    HW2 2697   0.608   0.177   5.410 -0.3367  3.7683  0.3258
  793SOL     OW 2698   5.223   4.219   0.653 -0.7297  0.0750 -0.1211
  793SOL    HW1 2699   5.200   4.122   0.662  0.9187 -0.5167 -1.7608
  793SOL    HW2 2700   5.141   4.270   0.629 -1.2996 -1.2073 -1.0376
  794SOL     OW 2701   2.111   2.971   1.050 -0.4539 -0.5812  0.5989
  794SOL    HW1 2702   2.118   3.024   1.134 -1.1126 -0.8425  0.8283
  794SOL    HW2 2703   2.019   2.981   1.012 -0.1410 -0.4155 -0.1264
  795SOL     OW 2704   0.024   2.835   2.694 -0.1177 -0.0672 -0.3202
  795SOL    HW1 2705   0.018   2.763   2.625  1.8111  0.6197 -1.2861
  795SOL    HW2 2706   0.012   2.795   2.785  0.1852 -1.4782 -0.8727
  796SOL     OW 2707   5.280   0.726   5.137 -0.2293  0.4213  0.8703
  796SOL    HW1 2708   5.265   0.812   5.185 -1.3318  0.7464 -0.0330
  796SOL    HW2 2709   5.197   0.698   5.090  1.1493  0.8802 -2.0720
  797SOL     OW 2710   5.410   2.495   1.285 -0.4203  0.0130  0.0928
  797SOL    HW1 2711   5.484   2.537   1.338 -1.4719  1.2722  0.6140
  797SOL    HW2 2712   5.376   2.414   1.333  0.2993 -0.3000  0.0805
  798SOL     OW 2713   5.221   3.162   5.073  0.2403  0.2256  0.1128
  798SOL    HW1 2714   5.186   3.069   5.087 -1.5437  0.7390 -0.7097
  798SOL    HW2 2715   5.207   3.216   5.156  0.4934  0.0051  0.3006
  799SOL     OW 2716   1.685   5.477   1.284  0.2209  0.6502  0.4253
  799SOL    HW1 2717   1.644   5.531   1.357  0.8561 -0.2056  1.4433
  799SOL    HW2 2718   1.645   5.385   1.285 -0.4124  0.8841 -0.8978
  800SOL     OW 2719   1.199   2.995   1.334  0.4057  0.2889  0.1227
  800SOL    HW1 2720   1.110   3.029   1.365  1.3627  1.5317  1.7170
  800SOL    HW2 2721   1.222   3.037   1.247 -1.2702 -1.3608 -1.2007
  801SOL     OW 2722   2.194   3.807   1.495  0.0491 -0.1025  0.5208
  801SOL    HW1 2723   2.097   3.825   1.480  0.0286  0.6358  1.4155
  801SOL    HW2 2724   2.239   3.892   1.524  0.5291 -0.8743  2.1466
  802SOL     OW 2725   2.006   5.088   0.765 -0.3072 -0.2726 -0.0692
  802SOL    HW1 2726   2.077   5.155   0.784 -1.5433  0.9067  0.5308
  802SOL    HW2 2727   2.034   5.031   0.687  1.5976 -0.3423  0.6204
  803SOL     OW 2728   1.231   2.844   0.624 -0.7173 -0.1889 -0.3337
  803SOL    HW1 2729   1.282   2.889   0.698 -1.0696  0.0816 -0.2529
  803SOL    HW2 2730   1.276   2.861   0.537 -0.8120  0.2602 -0.2930
  804SOL     OW 2731   0.853   4.382   0.087  0.1169 -0.6503 -0.0100
  804SOL    HW1 2732   0.948   4.402   0.110 -0.0327  1.0523 -0.6890
  804SOL    HW2 2733   0.828   4.433   0.004 -2.1366  1.0963  1.6272
  805SOL     OW 2734   0.809   3.836   2.692  0.0549 -0.4830  0.2975
  805SOL    HW1 2735   0.737   3.845   2.761 -1.1754  1.6984 -1.1696
  805SOL    HW2 2736   0.820   3.739   2.668  0.0773 -1.2435  3.0038
  806SOL     OW 2737   1.858   2.860   4.718  0.2832  0.0723 -0.2146
  806SOL    HW1 2738   1.864   2.837   4.621 -1.1084 -0.5010 -0.1979
  806SOL    HW2 2739   1.882   2.780   4.773  0.7859  0.3092 -0.0878
  807SOL     OW 2740   3.394   1.658   1.290 -0.1660  0.3379  0.1041
  807SOL    HW1 2741   3.403   1.587   1.359 -0.1818  1.0424  0.8368
  807SOL    HW2 2742   3.413   1.747   1.330 -0.3808  0.7810 -0.7469
  808SOL     OW 2743   5.445   5.144   3.475  0.3522  0.0688 -0.2906
  808SOL    HW1 2744   5.441   5.158   3.574  1.2473 -2.2547  0.1344
  808SOL    HW2 2745   5.355   5.117   3.442 -0.2047  1.8392 -0.3348
  809SOL     OW 2746   1.217   2.801   0.939  0.2413 -0.1547 -0.1606
  809SOL    HW1 2747   1.133   2.815   0.887  0.2838  1.5465  0.1716
  809SOL    HW2 2748   1.194   2.778   1.034  0.1224  0.8786  0.0731
  810SOL     OW 2749   1.070   1.198   0.655 -0.4626  0.1736 -0.5599
  810SOL    HW1 2750   1.083   1.104   0.687  0.1432  0.2705 -0.5204
  810SOL    HW2 2751   1.055   1.199   0.556  2.3603  0.2455 -1.0561
  811SOL     OW 2752   2.811   3.716   0.814  0.1900 -0.1906 -0.0694
  811SOL    HW1 2753   2.897   3.735   0.863  0.6166 -1.9110 -0.0801
  811SOL    HW2 2754   2.832   3.679   0.723 -0.5869  0.2645 -0.4449
  812SOL     OW 2755   4.414   4.366   2.771  0.3576  0.2258 -0.1302
  812SOL    HW1 2756   4.421   4.310   2.854  0.2853 -0.0572 -0.3143
  812SOL    HW2 2757   4.488   4.433   2.769 -0.3366  1.0625  0.7805
  813SOL     OW 2758   1.817   1.239   0.621  0.1170 -0.2793 -0.4198
  813SOL    HW1 2759   1.826   1.171   0.549  0.0984 -0.1913 -0.5053
  813SOL    HW2 2760   1.897   1.236   0.681 -0.1100 -0.7110 -0.1360
  814SOL     OW 2761   0.229   2.824   1.816 -0.2019 -0.5523  0.1182
  814SOL    HW1 2762   0.254   2.731   1.790 -1.6755 -0.6098 -1.2152
  814SOL    HW2 2763   0.181   2.822   1.904  1.6159 -0.7697  1.1559
  815SOL     OW 2764   1.389   1.930   0.289 -0.0581  0.0356 -0.2809
  815SOL    HW1 2765   1.372   2.029   0.298 -1.0584 -0.0929 -0.5887
  815SOL    HW2 2766   1.487   1.913   0.292  0.1359  1.0543 -0.3253
  816SOL     OW 2767   0.482   3.062   1.443  0.0974  0.1201 -0.4293
  816SOL    HW1 2768   0.538   3.053   1.525  0.2123 -0.0791 -0.5287
  816SOL    HW2 2769   0.404   3.000   1.449  0.9445 -1.0657 -1.1613
  817SOL     OW 2770   2.782   1.657   1.245  0.1588  0.1991 -0.2047
  817SOL    HW1 2771   2.684   1.671   1.231  0.6346  1.7202 -2.6476
  817SOL    HW2 2772   2.816   1.590   1.178  0.8731  0.1001  0.2493
  818SOL     OW 2773   5.132   2.210   1.610 -0.4054  0.5227 -0.2354
  818SOL    HW1 2774   5.168   2.242   1.698  1.3917 -0.9733 -0.3734
  818SOL    HW2 2775   5.084   2.123   1.623 -0.6607  0.6005 -0.6446
  819SOL     OW 2776   3.123   3.194   1.161  0.4008  0.5415  0.4792
  819SOL    HW1 2777   3.175   3.117   1.124 -1.0079 -0.3944  0.3996
  819SOL    HW2 2778   3.152   3.278   1.115  1.7038  0.0323  0.3133
  820SOL     OW 2779   3.155   1.905   5.478  0.2949  0.3488  0.1610
  820SOL    HW1 2780   3.125   2.000   5.470 -0.1425  0.1075 -1.7523
  820SOL    HW2 2781   3.168   1.867   5.386 -1.2589 -1.9856  0.8044
  821SOL     OW 2782   1.204   3.413   1.665  0.3519  0.0933  0.8871
  821SOL    HW1 2783   1.111   3.381   1.680  1.2828 -2.6533  1.2964
  821SOL    HW2 2784   1.228   3.478   1.737 -0.5571 -0.8090  2.0425
  822SOL     OW 2785   1.477   2.774   0.910  0.2463  0.1584  0.0852
  822SOL    HW1 2786   1.377   2.776   0.904  0.2058 -1.2595 -0.2193
  822SOL    HW2 2787   1.511   2.863   0.940 -0.9873  1.2266 -1.4961
  823SOL     OW 2788   0.536   1.324   1.811  0.1112 -0.3211  0.8733
  823SOL    HW1 2789   0.599   1.363   1.878  0.0978  0.1183  0.6336
  823SOL    HW2 2790   0.508   1.233   1.841  0.7421 -0.4593  1.0572
  824SOL     OW 2791   5.500   2.626   2.538 -0.1753  0.4496  0.0814
  824SOL    HW1 2792   5.436   2.567   2.489  0.3961  1.1820 -1.6473
  824SOL    HW2 2793   5.580   2.644   2.480  0.3978  1.6216  1.1802
  825SOL     OW 2794   0.750   3.308   4.557  0.5227  0.1812 -0.5007
  825SOL    HW1 2795   0.771   3.211   4.572  0.4876  0.2003 -0.3263
  825SOL    HW2 2796   0.807   3.343   4.482  0.2678 -0.0690 -0.8144
  826SOL     OW 2797   5.392   5.543   0.746 -0.5463  0.7377  0.4074
  826SOL    HW1 2798   5.414   5.577   0.838  0.3646  1.1119  0.0593
  826SOL    HW2 2799   5.433   5.453   0.733 -0.2526  0.8997  0.1964
  827SOL     OW 2800   1.245   2.345   0.155 -0.0084 -0.7477 -0.0248
  827SOL    HW1 2801   1.291   2.267   0.195 -1.2636 -1.0269  0.9592
  827SOL    HW2 2802   1.147   2.327   0.149 -0.0792 -0.0373 -1.6960
  828SOL     OW 2803   1.428   0.222   2.139  0.2246  0.1425 -0.0524
  828SOL    HW1 2804   1.439   0.139   2.193  0.1331 -0.6818 -1.2650
  828SOL    HW2 2805   1.332   0.249   2.138  0.0837 -0.3526 -0.5165
  829SOL     OW 2806   0.053   3.680   4.117 -0.2646 -0.4702  0.4856
  829SOL    HW1 2807   0.059   3.738   4.199  1.2668 -0.5630  0.4743
  829SOL    HW2 2808   0.117   3.714   4.048 -0.6926 -1.0946 -0.2303
  830SOL     OW 2809   4.415   4.161   1.637  0.5176  0.6568 -0.1895
  830SOL    HW1 2810   4.345   4.220   1.678  1.3501  3.0564 -2.0041
  830SOL    HW2 2811   4.452   4.100   1.708 -0.9857  1.7106  1.5999
  831SOL     OW 2812   0.520   1.085   2.170  0.3655 -0.0840  0.7201
  831SOL    HW1 2813   0.433   1.128   2.193 -0.2552 -0.0196 -1.5202
  831SOL    HW2 2814   0.523   0.993   2.210 -0.2417  0.3447  1.7664
  832SOL     OW 2815   0.293   1.542   1.049 -0.1534  0.5149 -0.1205
  832SOL    HW1 2816   0.292   1.470   1.118  1.7926 -1.7873 -2.3200
  832SOL    HW2 2817   0.386   1.579   1.041 -0.3535  0.7573 -1.4863
  833SOL     OW 2818   2.197   1.916   0.094  0.0523 -0.5969  0.1865
  833SOL    HW1 2819   2.254   1.996   0.073 -1.8433  0.3772 -1.5955
  833SOL    HW2 2820   2.126   1.943   0.159  0.9371 -1.5529  1.6137
  834SOL     OW 2821   5.456   2.045   5.116 -0.2709 -0.3985 -0.0625
  834SOL    HW1 2822   5.507   1.985   5.055  0.9489 -0.9993  1.4857
  834SOL    HW2 2823   5.475   2.141   5.091  0.7324 -0.6262 -0.2374
  835SOL     OW 2824   1.154   2.186   0.730  0.5028  0.2873 -0.3336
  835SOL    HW1 2825   1.173   2.285   0.734  0.1496  0.5282 -2.9490
  835SOL    HW2 2826   1.239   2.137   0.708  0.3745  0.1867 -0.6084
  836SOL     OW 2827   2.066   3.019   1.485  0.1739  0.0567  0.3567
  836SOL    HW1 2828   1.989   3.084   1.488 -1.3379 -1.6368  0.3612
  836SOL    HW2 2829   2.099   3.002   1.578  0.1316  0.3059  0.4188
  837SOL     OW 2830   1.994   2.270   0.091  0.2660 -0.0980  0.2244
  837SOL    HW1 2831   1.963   2.266  -0.004  0.3827  1.4459  0.1015
  837SOL    HW2 2832   2.087   2.232   0.096  0.3954  0.1297 -0.3374
  838SOL     OW 2833   0.849   1.711   2.109  0.1699  0.3105  0.5812
  838SOL    HW1 2834   0.887   1.737   2.020 -0.7656  1.9531  0.6193
  838SOL    HW2 2835   0.920   1.666   2.164  1.3675  1.1852 -0.2003
  839SOL     OW 2836   1.955   4.256   2.483  0.4355  0.4392  0.2414
  839SOL    HW1 2837   1.966   4.235   2.386 -3.0428  2.1637 -0.6979
  839SOL    HW2 2838   1.921   4.350   2.492  1.4132  0.5885  3.2280
  840SOL     OW 2839   4.840   3.224   0.158  0.2425  0.3248 -0.1626
  840SOL    HW1 2840   4.836   3.244   0.256  3.1271 -2.5700  0.7194
  840SOL    HW2 2841   4.904   3.287   0.113 -0.3159  0.9955 -0.0502
  841SOL     OW 2842   2.756   1.134   0.929  0.1207 -0.0011 -0.3653
  841SOL    HW1 2843   2.721   1.043   0.951  0.4505 -0.4304 -1.5083
  841SOL    HW2 2844   2.682   1.200   0.929 -0.3543 -0.5263 -0.8232
  842SOL     OW 2845   4.961   3.091   0.544 -0.1624 -0.2613 -0.2969
  842SOL    HW1 2846   4.958   3.011   0.484  1.2792 -1.8521  1.6602
  842SOL    HW2 2847   4.959   3.062   0.640  1.7715  1.9499  0.5032
  843SOL     OW 2848   1.219   0.901   5.505 -0.2712 -0.1578  0.2802
  843SOL    HW1 2849   1.306   0.876   5.547  0.5895  0.2328 -1.2143
  843SOL    HW2 2850   1.223   0.995   5.471 -0.8580 -0.5253 -0.8558
  844SOL     OW 2851   3.041   2.707   1.275  0.1549  0.1486 -0.1335
  844SOL    HW1 2852   2.967   2.648   1.306  1.0066 -0.0265  1.6915
  844SOL    HW2 2853   3.085   2.751   1.354  0.7804  1.7352 -1.3031
  845SOL     OW 2854   2.990   3.152   5.338 -0.0652 -0.5449  0.2331
  845SOL    HW1 2855   3.027   3.102   5.416 -0.0569  0.7863  1.1280
  845SOL    HW2 2856   2.895   3.177   5.356 -0.0923 -0.3001 -0.2251
  846SOL     OW 2857   1.427   3.555   5.069 -0.2940  0.6118 -0.2835
  846SOL    HW1 2858   1.436   3.493   4.990 -0.9102  1.4768 -1.0558
  846SOL    HW2 2859   1.396   3.644   5.037 -0.2643  1.0659  0.9251
  847SOL     OW 2860   1.341   2.983   5.063  0.4524  0.1169 -0.3131
  847SOL    HW1 2861   1.347   3.064   5.122 -0.1251 -0.4528  0.5517
  847SOL    HW2 2862   1.382   3.004   4.974  0.0801  1.4404 -0.2028
  848SOL     OW 2863   4.429   2.185   0.682 -0.1021  0.1211 -0.1259
  848SOL    HW1 2864   4.400   2.091   0.702  1.2356 -0.2472  0.2628
  848SOL    HW2 2865   4.453   2.231   0.768  0.2610  0.4531 -0.4007
  849SOL     OW 2866   1.460   2.262   1.999  0.2425 -0.1410 -0.2663
  849SOL    HW1 2867   1.434   2.254   2.095  1.6282  1.3098  0.2772
  849SOL    HW2 2868   1.559   2.278   1.993  0.8264 -3.4921 -2.1143
  850SOL     OW 2869   0.960   2.767   4.863  0.1841  0.4743 -0.1403
  850SOL    HW1 2870   0.887   2.743   4.927  0.9095 -0.6352  0.3098
  850SOL    HW2 2871   1.046   2.778   4.914  0.7742 -0.4414 -0.9109
  851SOL     OW 2872   0.530   3.213   2.714  0.2474  0.0838 -0.3475
  851SOL    HW1 2873   0.514   3.125   2.758 -1.1145  0.9421  0.9387
  851SOL    HW2 2874   0.621   3.213   2.671  0.3348 -1.8624 -0.2253
  852SOL     OW 2875   2.063   1.913   0.588  0.5316 -0.3457 -0.3721
  852SOL    HW1 2876   2.016   1.874   0.667 -1.5807 -0.0592 -1.4181
  852SOL    HW2 2877   2.108   1.999   0.615 -0.6814  0.0697  0.4164
  853SOL     OW 2878   4.877   3.999   2.416 -0.0777 -0.4141 -0.1940
  853SOL    HW1 2879   4.842   4.090   2.394 -1.0755 -0.8415 -0.4507
  853SOL    HW2 2880   4.862   3.980   2.513  1.5084  0.2629  0.2183
  854SOL     OW 2881   0.654   3.097   0.227 -0.2554  0.4439 -0.3221
  854SOL    HW1 2882   0.717   3.033   0.183 -2.6306 -1.9804 -0.4507
  854SOL    HW2 2883   0.635   3.173   0.165  1.8696  0.8474 -0.5646
  855SOL     OW 2884   0.816   3.125   4.905  0.3688  0.0366 -0.0963
  855SOL    HW1 2885   0.914   3.133   4.925  0.6634 -0.2794 -1.3391
  855SOL    HW2 2886   0.767   3.200   4.948  0.9216 -0.7034  1.9541
  856SOL     OW 2887   2.373   3.743   0.622  0.2312  0.2700 -0.0486
  856SOL    HW1 2888   2.371   3.843   0.621 -0.1303  0.3276  1.9643
  856SOL    HW2 2889   2.286   3.708   0.588  0.3727  0.6279 -0.8002
  857SOL     OW 2890   3.684   2.707   3.052 -0.1129  0.5459 -0.2532
  857SOL    HW1 2891   3.632   2.787   3.082  1.6206  1.4168  0.5991
  857SOL    HW2 2892   3.777   2.712   3.090  0.0445 -1.8932 -0.1543
  858SOL     OW 2893   1.445   0.887   1.264  0.1093 -0.4481  0.0855
  858SOL    HW1 2894   1.529   0.832   1.266  0.5399  0.2034  1.5544
  858SOL    HW2 2895   1.367   0.829   1.288  0.4097 -0.6465  0.5994
  859SOL     OW 2896   2.581   2.196   1.509 -0.1635  0.2727  0.0847
  859SOL    HW1 2897   2.495   2.159   1.473 -0.6987  1.9978 -0.4927
  859SOL    HW2 2898   2.579   2.190   1.609 -0.1274 -1.3998  0.0214
  860SOL     OW 2899   0.561   0.994   2.623 -0.1550  0.4355  0.5156
  860SOL    HW1 2900   0.600   1.040   2.543  2.8455 -0.6114  1.2272
  860SOL    HW2 2901   0.492   0.928   2.593  0.2267  0.7330 -1.1307
  861SOL     OW 2902   1.923   3.514   0.574  0.1368 -0.2232  0.1362
  861SOL    HW1 2903   1.885   3.555   0.491 -1.6890 -1.5011  0.2747
  861SOL    HW2 2904   1.899   3.570   0.653 -1.1429 -0.7839  0.1677
  862SOL     OW 2905   1.806   3.834   0.287  0.3535 -0.6277 -0.5950
  862SOL    HW1 2906   1.807   3.735   0.300  0.3938 -0.5342  0.1417
  862SOL    HW2 2907   1.884   3.875   0.334  0.8802 -0.3366 -1.7020
  863SOL     OW 2908   1.721   0.780   0.042  0.2614 -0.3419  0.6882
  863SOL    HW1 2909   1.742   0.786   0.140  0.7840  0.0043  0.5574
  863SOL    HW2 2910   1.798   0.737  -0.006  0.4564  0.4336  0.2834
  864SOL     OW 2911   1.063   1.605   1.595  0.4169  0.6485 -0.5415
  864SOL    HW1 2912   1.080   1.570   1.687 -2.6528  0.3469  0.0031
  864SOL    HW2 2913   1.134   1.672   1.572  2.2074 -0.4834  1.3185
  865SOL     OW 2914   0.207   0.911   1.229  0.5497 -0.0672 -0.0920
  865SOL    HW1 2915   0.123   0.952   1.194  0.9578 -0.0820 -1.1214
  865SOL    HW2 2916   0.228   0.828   1.177  1.1748 -0.0923  0.1920
  866SOL     OW 2917   0.899   1.967   0.368  0.2205 -0.2156 -0.5172
  866SOL    HW1 2918   0.941   2.057   0.376 -0.2737  0.0382 -0.7215
  866SOL    HW2 2919   0.960   1.906   0.317  0.6197 -0.0390 -0.2505
  867SOL     OW 2920   0.256   2.094   1.373  0.3312 -0.2805  0.1951
  867SOL    HW1 2921   0.342   2.043   1.366  0.9942  0.7770  0.4059
  867SOL    HW2 2922   0.272   2.181   1.419  0.0269  1.7967 -3.2270
  868SOL     OW 2923   4.514   1.969   2.279  0.2483 -0.2533  0.0238
  868SOL    HW1 2924   4.575   1.904   2.326  1.3124 -0.2738 -1.3013
  868SOL    HW2 2925   4.496   2.047   2.338  0.8536 -0.6627  0.7709
  869SOL     OW 2926   1.578   2.341   1.488  0.4624  0.4536  0.2304
  869SOL    HW1 2927   1.630   2.425   1.471  0.0148  1.2143  2.2970
  869SOL    HW2 2928   1.587   2.315   1.584 -1.9128 -0.1057  0.3617
  870SOL     OW 2929   0.064   2.543   3.772  0.0112  0.4424 -0.4965
  870SOL    HW1 2930   0.112   2.529   3.685 -0.1872  0.4580 -0.6095
  870SOL    HW2 2931   0.034   2.638   3.779 -1.5466  0.0373 -1.2257
  871SOL     OW 2932   0.331   3.611   4.423 -0.4268  0.0295  0.0010
  871SOL    HW1 2933   0.297   3.656   4.506  0.3557 -0.5533  0.6546
  871SOL    HW2 2934   0.397   3.540   4.449  2.8088  2.3405 -1.2243
  872SOL     OW 2935   1.473   3.467   3.366 -0.2258  0.2068  0.0732
  872SOL    HW1 2936   1.483   3.566   3.362 -1.9093  0.3734 -3.6184
  872SOL    HW2 2937   1.507   3.427   3.281 -1.9436 -2.1049  0.3794
  873SOL     OW 2938   1.831   2.733   2.786  0.2156 -0.4921 -0.1327
  873SOL    HW1 2939   1.853   2.678   2.867  0.9041  0.2368  0.1942
  873SOL    HW2 2940   1.912   2.740   2.728 -0.3811 -1.3137 -1.0849
  874SOL     OW 2941   2.245   1.171   0.899  0.7309 -0.3359  0.0811
  874SOL    HW1 2942   2.263   1.169   0.998  0.4578 -2.8188  0.1488
  874SOL    HW2 2943   2.293   1.248   0.858  0.9668  0.6776  2.1214
  875SOL     OW 2944   1.190   2.355   3.516 -0.3465 -0.0318  0.1818
  875SOL    HW1 2945   1.174   2.406   3.601  4.0027  1.6488  0.2263
  875SOL    HW2 2946   1.219   2.418   3.444  1.7741 -2.0112 -0.8141
  876SOL     OW 2947   0.877   3.582   2.373  0.5731 -0.3797  0.3073
  876SOL    HW1 2948   0.792   3.533   2.352  0.1406  0.0550  1.0306
  876SOL    HW2 2949   0.874   3.673   2.333  0.8580 -0.4946  0.0200
  877SOL     OW 2950   4.571   3.100   3.448 -0.4765  0.6674  0.4348
  877SOL    HW1 2951   4.511   3.092   3.528  0.9776  0.2095  1.5181
  877SOL    HW2 2952   4.656   3.144   3.474 -0.3550  1.4017 -1.1010
  878SOL     OW 2953   0.332   1.884   3.737 -0.2615  0.1378  0.3526
  878SOL    HW1 2954   0.338   1.977   3.774  1.2334 -0.0704  0.6779
  878SOL    HW2 2955   0.386   1.877   3.653  0.3938 -0.6528  0.8238
  879SOL     OW 2956   0.580   2.314   2.755 -0.1112  0.1038 -0.1861
  879SOL    HW1 2957   0.592   2.277   2.663 -0.6997 -0.2759 -0.1121
  879SOL    HW2 2958   0.545   2.243   2.816  0.4521  0.3028  0.3799
  880SOL     OW 2959  -0.023   3.791   1.342  0.3554 -0.0291 -0.6191
  880SOL    HW1 2960   0.021   3.879   1.357  0.0500  0.1426 -0.7287
  880SOL    HW2 2961   0.030   3.737   1.277  0.8146 -0.1292 -0.1681
  881SOL     OW 2962   0.987   1.518   3.125  0.3804  0.4825  0.0216
  881SOL    HW1 2963   0.897   1.491   3.158 -0.4736  0.9419 -1.8258
  881SOL    HW2 2964   1.033   1.439   3.085  0.1937  0.5563 -0.3411
  882SOL     OW 2965   2.520   3.390   2.439 -0.3614  0.2011 -0.4153
  882SOL    HW1 2966   2.583   3.445   2.384  0.7964 -1.0138 -0.3484
  882SOL    HW2 2967   2.557   3.382   2.532  0.4694 -2.2029 -0.8987
  883SOL     OW 2968   1.680   3.410   3.116  0.3022 -0.0258  0.2466
  883SOL    HW1 2969   1.615   3.353   3.066  1.8147 -0.6124 -1.1184
  883SOL    HW2 2970   1.639   3.500   3.132 -2.0651 -1.3142  2.2671
  884SOL     OW 2971   0.820   4.227   3.502 -0.0188 -0.2711  0.5119
  884SOL    HW1 2972   0.765   4.191   3.577 -0.7100 -1.1450 -0.3987
  884SOL    HW2 2973   0.865   4.151   3.454  1.8221  0.4004  1.0978
  885SOL     OW 2974   1.179   3.245   2.023 -0.4713 -0.0127  0.0107
  885SOL    HW1 2975   1.199   3.221   2.118  2.6810  3.3163  0.4021
  885SOL    HW2 2976   1.137   3.336   2.020 -0.0341  0.1685 -1.8160
  886SOL     OW 2977   1.376   1.417   2.941  0.0905  0.1106 -0.3278
  886SOL    HW1 2978   1.411   1.446   2.851  3.1413 -0.9090  0.3793
  886SOL    HW2 2979   1.376   1.495   3.003  0.8483  0.2333 -0.4626
  887SOL     OW 2980   4.781   3.600   0.119 -0.1443 -0.2809  0.3003
  887SOL    HW1 2981   4.827   3.656   0.187 -0.1076  1.5382 -1.1518
  887SOL    HW2 2982   4.846   3.534   0.081  0.8030  1.0145 -0.4019
  888SOL     OW 2983   5.039   3.738   2.658 -0.2369  0.1239  0.7282
  888SOL    HW1 2984   4.955   3.791   2.646  0.3580  0.8005 -0.5856
  888SOL    HW2 2985   5.081   3.762   2.745 -1.1346  0.1456  1.1690
  889SOL     OW 2986   1.530   1.295   2.160  0.3688 -0.4099  0.2017
  889SOL    HW1 2987   1.508   1.303   2.257 -0.7173  0.5726 -0.1055
  889SOL    HW2 2988   1.563   1.383   2.126  1.1888 -0.8712 -0.2256
  890SOL     OW 2989   0.496   1.377   3.707  0.3226  0.1386  0.4884
  890SOL    HW1 2990   0.581   1.324   3.718  0.2128 -0.1538 -0.0254
  890SOL    HW2 2991   0.511   1.451   3.642 -0.7082 -2.0462 -2.4647
  891SOL     OW 2992   0.954   3.475   0.637 -0.1201  0.2329  0.2453
  891SOL    HW1 2993   1.047   3.451   0.612 -0.9912 -2.8082 -0.5250
  891SOL    HW2 2994   0.897   3.479   0.554 -0.5834  2.9410  0.5936
  892SOL     OW 2995   5.158   3.294   1.417  0.1564  0.3974  0.3446
  892SOL    HW1 2996   5.164   3.219   1.483 -0.7145  0.1822  0.1935
  892SOL    HW2 2997   5.161   3.257   1.324  0.5513  0.6229  0.2674
  893SOL     OW 2998   0.696   2.746   2.617 -0.1412  0.1882 -0.1301
  893SOL    HW1 2999   0.721   2.839   2.644  0.1589  0.0518  0.0751
  893SOL    HW2 3000   0.639   2.705   2.688 -0.9101  0.4750 -0.5675
  894SOL     OW 3001   1.298   2.541   2.205  0.2907 -0.5166  0.2826
  894SOL    HW1 3002   1.262   2.597   2.130 -0.1549 -2.4514 -1.0183
  894SOL    HW2 3003   1.249   2.562   2.289  0.5457  1.4455 -0.0086
  895SOL     OW 3004   0.812   3.550   2.639  0.1653  0.7501  0.0478
  895SOL    HW1 3005   0.717   3.521   2.634 -0.3145  1.9667  1.4501
  895SOL    HW2 3006   0.853   3.547   2.548 -0.6921 -1.4092 -0.3142
  896SOL     OW 3007   1.480   3.036   2.230  0.1120  0.1605  0.5834
  896SOL    HW1 3008   1.409   3.097   2.266 -0.5638 -0.8163  0.9397
  896SOL    HW2 3009   1.483   3.044   2.131 -1.9855 -1.3270  0.3501
  897SOL     OW 3010   1.693   3.761   2.684 -0.0427 -0.1362 -0.2336
  897SOL    HW1 3011   1.634   3.685   2.711 -1.8546  1.9559  2.1804
  897SOL    HW2 3012   1.789   3.734   2.694 -0.5927 -2.3867 -0.4941
  898SOL     OW 3013   0.551   2.583   4.404 -0.1006  0.6628 -0.1457
  898SOL    HW1 3014   0.565   2.568   4.306 -0.4785 -1.7795  0.0906
  898SOL    HW2 3015   0.455   2.564   4.426  0.3323 -0.4533  0.9060
  899SOL     OW 3016   0.993   2.744   0.709  0.5284  0.3518  0.9863
  899SOL    HW1 3017   0.938   2.689   0.647  2.1949  0.7692 -0.9707
  899SOL    HW2 3018   1.080   2.767   0.665  0.6938  2.9278  2.4448
  900SOL     OW 3019   1.724   2.353   1.999 -0.5917  0.4425  0.0292
  900SOL    HW1 3020   1.744   2.339   2.096  1.3368  0.3240 -0.3625
  900SOL    HW2 3021   1.784   2.423   1.962 -2.4808  1.7381 -0.7127
  901SOL     OW 3022   1.439   4.191   4.961 -0.7601  0.1332 -0.0487
  901SOL    HW1 3023   1.502   4.167   4.887  1.3465 -0.9357  1.9732
  901SOL    HW2 3024   1.393   4.109   4.993 -0.5631  0.3362  0.7665
  902SOL     OW 3025   1.369   1.904   2.524  0.0508  0.1854  0.9246
  902SOL    HW1 3026   1.296   1.914   2.456  0.6211 -0.6905  0.1626
  902SOL    HW2 3027   1.438   1.975   2.511 -1.3553  1.9524  2.5925
  903SOL     OW 3028   1.505   3.937   1.806 -0.1479 -0.0220 -0.2520
  903SOL    HW1 3029   1.415   3.945   1.848 -0.4618 -0.2533 -0.8751
  903SOL    HW2 3030   1.541   3.845   1.820  1.1981  0.8054  2.3690
  904SOL     OW 3031   0.859   3.132   3.398 -0.9434 -0.6558 -0.0784
  904SOL    HW1 3032   0.900   3.118   3.308 -0.3399 -0.8008  0.2076
  904SOL    HW2 3033   0.771   3.177   3.388 -0.1282  0.8878 -0.6478
  905SOL     OW 3034   0.811   1.952   2.804  0.7441  0.0935 -0.1894
  905SOL    HW1 3035   0.881   1.916   2.865  1.1629 -0.5887 -1.0518
  905SOL    HW2 3036   0.851   2.020   2.743  0.5588  0.0291 -0.3839
  906SOL     OW 3037   5.207   2.394   3.103 -0.3476  0.0186  0.3099
  906SOL    HW1 3038   5.281   2.446   3.060 -0.2494  0.1483  0.6303
  906SOL    HW2 3039   5.175   2.443   3.184 -2.9320  1.6050 -1.5068
  907SOL     OW 3040   4.779   3.194   2.476 -0.0307  0.2911  0.1879
  907SOL    HW1 3041   4.802   3.185   2.379  0.6256 -0.7760  0.4299
  907SOL    HW2 3042   4.760   3.290   2.497  1.5516  0.8110 -0.6255
  908SOL     OW 3043   0.875   2.356   2.641  0.1970  0.1900  0.1311
  908SOL    HW1 3044   0.911   2.446   2.620 -3.2292  1.8440  0.6019
  908SOL    HW2 3045   0.785   2.365   2.685 -0.2883 -3.4566  0.2496
  909SOL     OW 3046   1.945   2.707   1.684 -0.6796 -0.0094  0.3589
  909SOL    HW1 3047   2.030   2.701   1.737 -1.5634 -1.3070  1.7052
  909SOL    HW2 3048   1.967   2.711   1.587  0.9479  0.8668  0.7129
  910SOL     OW 3049   2.304   3.244   3.506  0.0345  0.4447  0.5907
  910SOL    HW1 3050   2.312   3.161   3.560 -2.0243 -2.4886 -3.1784
  910SOL    HW2 3051   2.390   3.262   3.460  0.1908 -0.2105  0.6195
  911SOL     OW 3052   1.996   2.749   2.568  0.0984  0.1788  0.1449
  911SOL    HW1 3053   2.028   2.654   2.564 -0.6889 -0.1366  0.9550
  911SOL    HW2 3054   2.030   2.799   2.489 -0.6091 -1.1285 -1.0376
  912SOL     OW 3055   1.837   2.228   1.328 -0.0116 -0.5870  0.1069
  912SOL    HW1 3056   1.770   2.259   1.396  0.1289 -0.3306  0.1320
  912SOL    HW2 3057   1.790   2.181   1.253 -0.3964  0.9001 -0.6285
  913SOL     OW 3058   4.089   3.428   2.589  0.6906 -0.3350 -0.2241
  913SOL    HW1 3059   4.142   3.353   2.628  0.2221  0.7231  2.7190
  913SOL    HW2 3060   4.034   3.470   2.661  0.1188  2.1684 -1.9997
  914SOL     OW 3061   0.848   4.035   1.835 -0.2364  0.2714 -0.0907
  914SOL    HW1 3062   0.861   4.130   1.808  0.6770 -0.2903 -1.7722
  914SOL    HW2 3063   0.882   4.021   1.928  0.9377  1.2803 -0.3595
  915SOL     OW 3064   1.449   1.922   2.925  0.8033 -0.1239  0.1658
  915SOL    HW1 3065   1.484   2.002   2.876  1.1903 -0.9057 -0.8545
  915SOL    HW2 3066   1.517   1.891   2.991  0.6561  0.3649  0.5592
  916SOL     OW 3067   1.861   3.123   4.671  0.1840 -0.0394  0.1641
  916SOL    HW1 3068   1.869   3.025   4.689 -1.1906 -0.3887 -0.9378
  916SOL    HW2 3069   1.773   3.141   4.626  0.8110  1.5841 -0.4630
  917SOL     OW 3070   0.577   3.678   0.321  0.1228  0.3438 -0.3068
  917SOL    HW1 3071   0.674   3.655   0.328 -0.2516 -1.3073 -0.1707
  917SOL    HW2 3072   0.567   3.761   0.266  1.7150  1.6205  1.2045
  918SOL     OW 3073   0.487   3.433   1.575  0.5893 -0.3963 -0.0282
  918SOL    HW1 3074   0.418   3.366   1.603  1.9942 -2.5430 -1.4009
  918SOL    HW2 3075   0.446   3.498   1.511  0.0545 -2.4746 -1.9368
  919SOL     OW 3076   0.322   4.264   3.004  0.4631  0.3454  0.6280
  919SOL    HW1 3077   0.322   4.289   2.908  1.3282 -1.3456  0.1450
  919SOL    HW2 3078   0.371   4.332   3.058 -2.7063  3.0211  0.4329
  920SOL     OW 3079   5.270   2.271   0.679  0.5308  0.2136 -0.6206
  920SOL    HW1 3080   5.181   2.229   0.697 -0.3073  1.8211 -0.8645
  920SOL    HW2 3081   5.261   2.339   0.607  1.2372  2.7876  1.5810
  921SOL     OW 3082   2.142   3.101   2.456 -0.1628 -0.3298 -0.0057
  921SOL    HW1 3083   2.241   3.117   2.449 -0.0727 -1.2339 -1.0573
  921SOL    HW2 3084   2.093   3.182   2.425  0.2682 -0.5297 -1.2618
  922SOL     OW 3085   0.797   3.164   2.650  0.6268 -0.5698  0.6796
  922SOL    HW1 3086   0.771   3.121   2.564 -2.3755  1.8420  0.2015
  922SOL    HW2 3087   0.892   3.194   2.645 -0.1074  1.7443 -2.9336
  923SOL     OW 3088   4.107   3.348   1.191  0.3527 -0.0844  0.5181
  923SOL    HW1 3089   4.111   3.379   1.096  1.6389  1.6302  1.0904
  923SOL    HW2 3090   4.184   3.288   1.210 -0.7853 -1.7466  0.0841
  924SOL     OW 3091   1.258   2.746   3.004  0.7491  0.5813  0.4685
  924SOL    HW1 3092   1.278   2.792   2.918  0.8434  0.2085  0.2914
  924SOL    HW2 3093   1.341   2.741   3.060  0.7463  0.6032  0.4744
  925SOL     OW 3094   5.330   1.273   0.029  0.4884  0.0707 -0.0849
  925SOL    HW1 3095   5.391   1.310   0.099 -0.0937 -1.3003  1.1864
  925SOL    HW2 3096   5.238   1.263   0.067 -0.0460  0.0972 -1.3253
  926SOL     OW 3097   1.603   4.721   2.066  0.1187  0.0385 -0.1546
  926SOL    HW1 3098   1.664   4.796   2.090  0.1034  0.3870 -1.1340
  926SOL    HW2 3099   1.605   4.708   1.967 -0.5140 -0.7136 -0.0750
  927SOL     OW 3100   0.589   1.803   2.857 -0.3461 -0.0674 -0.6687
  927SOL    HW1 3101   0.610   1.760   2.945 -0.7198  0.9186 -0.0811
  927SOL    HW2 3102   0.660   1.870   2.835 -0.2881 -0.2657 -1.0913
  928SOL     OW 3103   0.875   4.538   5.422  0.1345 -0.3983  0.6419
  928SOL    HW1 3104   0.787   4.586   5.421 -0.4959 -1.4970  1.6863
  928SOL    HW2 3105   0.934   4.576   5.350 -1.4929 -0.2396 -0.6656
  929SOL     OW 3106   4.336   2.939   0.944  0.0099  0.5180  0.1035
  929SOL    HW1 3107   4.400   3.016   0.949  0.1848  0.3522  0.4173
  929SOL    HW2 3108   4.242   2.974   0.954  0.1878  0.3777  4.4573
  930SOL     OW 3109   0.670   1.333   1.173  0.0365  0.6356 -0.1849
  930SOL    HW1 3110   0.750   1.355   1.117  1.3863 -1.5214  0.7303
  930SOL    HW2 3111   0.663   1.399   1.248 -0.4941  2.2395 -1.5919
  931SOL     OW 3112   5.519   3.492   3.433 -0.0419 -0.7802  0.1429
  931SOL    HW1 3113   5.503   3.523   3.339  0.7713 -3.4447 -0.9765
  931SOL    HW2 3114   5.613   3.514   3.459 -1.0753  2.6127  1.5698
  932SOL     OW 3115   1.480   2.491   2.740 -0.5633 -0.4811  0.7519
  932SOL    HW1 3116   1.391   2.534   2.726 -0.2586 -0.0944 -0.1119
  932SOL    HW2 3117   1.535   2.549   2.801 -1.2550 -1.2571  2.1786
  933SOL     OW 3118   4.792   0.790   2.730 -0.0963 -0.2594 -0.2296
  933SOL    HW1 3119   4.887   0.817   2.711 -0.8988  3.9447  0.8567
  933SOL    HW2 3120   4.774   0.799   2.828 -1.9203  0.1647 -0.5770
  934SOL     OW 3121   1.850   2.177   2.944  0.1216  0.2037 -0.5043
  934SOL    HW1 3122   1.920   2.106   2.953 -1.9819 -1.7627  1.7503
  934SOL    HW2 3123   1.821   2.207   3.035 -2.4380  0.4000 -1.3092
  935SOL     OW 3124   4.533   3.804   1.547 -0.8943  0.5334  0.1497
  935SOL    HW1 3125   4.548   3.887   1.494  1.2621  1.0361  1.4215
  935SOL    HW2 3126   4.435   3.792   1.563 -1.2761  2.6774 -0.2953
  936SOL     OW 3127   0.529   1.675   2.498  0.2218 -0.2590 -0.1033
  936SOL    HW1 3128   0.433   1.701   2.512  0.4375 -0.0828  1.1889
  936SOL    HW2 3129   0.551   1.597   2.556  0.5915 -0.9755 -1.1773
  937SOL     OW 3130   2.137   3.226   3.295 -0.2603 -0.3612  0.0893
  937SOL    HW1 3131   2.118   3.128   3.303 -0.0627 -0.4075 -0.0204
  937SOL    HW2 3132   2.203   3.253   3.365  0.4582 -0.5069 -0.5211
  938SOL     OW 3133   1.434   2.321   2.519  0.3754  0.0212  0.3568
  938SOL    HW1 3134   1.465   2.402   2.568 -1.8441  1.0339  0.1575
  938SOL    HW2 3135   1.345   2.292   2.554  0.5174 -1.5644 -0.4754
  939SOL     OW 3136   0.811   3.704   1.112  0.1313  0.7612 -0.3101
  939SOL    HW1 3137   0.803   3.672   1.017 -1.4018 -1.5491  0.4998
  939SOL    HW2 3138   0.719   3.708   1.153  0.8348  0.8942  1.3146
  940SOL     OW 3139   0.420   2.078   2.332  0.1894  0.9633  0.0359
  940SOL    HW1 3140   0.328   2.082   2.294  0.1452 -0.8917 -0.1298
  940SOL    HW2 3141   0.473   2.009   2.282  0.7960 -0.0037  1.9420
  941SOL     OW 3142   0.757   1.556   3.783 -0.0971 -0.1110 -0.3054
  941SOL    HW1 3143   0.736   1.481   3.846 -2.0843  0.6540  0.0123
  941SOL    HW2 3144   0.856   1.569   3.779  0.2216 -1.9892  0.5078
  942SOL     OW 3145   1.053   2.284   1.718  0.2765 -0.5437 -0.0059
  942SOL    HW1 3146   1.115   2.325   1.785 -0.7916  0.6691  0.2654
  942SOL    HW2 3147   1.054   2.339   1.635  1.1464 -1.7141 -0.8200
  943SOL     OW 3148   5.395   1.326   1.819  0.0623 -0.2639  0.4862
  943SOL    HW1 3149   5.486   1.299   1.787 -0.2308 -0.3661 -0.2815
  943SOL    HW2 3150   5.399   1.345   1.917  1.0357  0.2807  0.3633
  944SOL     OW 3151   0.243   2.342   2.764  0.1548 -0.6438 -0.3880
  944SOL    HW1 3152   0.210   2.325   2.857 -2.2034 -2.7236 -1.4649
  944SOL    HW2 3153   0.337   2.309   2.755  0.7089  0.3280  1.4174
  945SOL     OW 3154   0.122   2.137   1.115  0.7481 -0.1841  0.1322
  945SOL    HW1 3155   0.165   2.220   1.079  0.0800 -0.3053 -1.0080
  945SOL    HW2 3156   0.167   2.110   1.200 -0.0554  2.2328  1.3973
  946SOL     OW 3157   2.152   3.167   4.723  0.3332 -0.3452  0.0068
  946SOL    HW1 3158   2.200   3.085   4.692 -0.7526 -1.3115  0.8341
  946SOL    HW2 3159   2.054   3.149   4.729  0.1099  0.9223  0.5034
  947SOL     OW 3160   1.649   2.465   3.553 -0.1848  0.0483  0.4721
  947SOL    HW1 3161   1.582   2.530   3.590 -0.8744 -0.2143 -0.2905
  947SOL    HW2 3162   1.608   2.375   3.547  0.8084 -0.5117  1.6365
  948SOL     OW 3163   1.658   3.984   4.114 -0.2232 -0.1765 -0.0089
  948SOL    HW1 3164   1.615   4.025   4.195  1.2845 -0.8090  1.1757
  948SOL    HW2 3165   1.690   3.892   4.137  0.3607 -0.3158 -1.2956
  949SOL     OW 3166   0.181   2.335   2.258  0.0502  0.8525 -0.0376
  949SOL    HW1 3167   0.157   2.321   2.354  0.1930  1.0329  0.0255
  949SOL    HW2 3168   0.133   2.415   2.223 -0.1058  0.7076 -0.1554
  950SOL     OW 3169   0.669   2.334   2.185  0.4349 -0.1966  0.6247
  950SOL    HW1 3170   0.584   2.367   2.227 -0.1672 -2.4423  1.2987
  950SOL    HW2 3171   0.729   2.297   2.255  1.8888  1.0809  0.1074
  951SOL     OW 3172   0.968   2.260   3.370 -0.1375  0.4873  0.0231
  951SOL    HW1 3173   1.060   2.299   3.379  0.0020 -0.0774  1.3126
  951SOL    HW2 3174   0.955   2.225   3.277  1.1383  0.1178 -0.0316
  952SOL     OW 3175   2.877   2.473   1.700 -0.3094 -0.2207 -0.4651
  952SOL    HW1 3176   2.894   2.385   1.745 -1.5252 -0.2038  0.0786
  952SOL    HW2 3177   2.797   2.465   1.640 -0.1122  0.3766 -0.8194
  953SOL     OW 3178   4.480   1.063   3.196 -0.4045 -0.2366  0.4228
  953SOL    HW1 3179   4.579   1.053   3.195 -0.3720  0.0606  0.5371
  953SOL    HW2 3180   4.447   1.056   3.290 -0.5218 -0.5884  0.3595
  954SOL     OW 3181   1.464   3.202   0.564  0.0427 -0.3983 -0.3426
  954SOL    HW1 3182   1.546   3.256   0.545 -0.5530  0.5934 -0.1410
  954SOL    HW2 3183   1.407   3.199   0.482  0.1340 -0.8358 -0.3921
  955SOL     OW 3184   1.688   1.905   3.082 -0.7080  0.0710  0.2108
  955SOL    HW1 3185   1.734   1.822   3.052 -0.1800 -0.2443  1.7684
  955SOL    HW2 3186   1.756   1.971   3.114 -1.2349  0.1983  1.1098
  956SOL     OW 3187   2.353   3.016   0.169 -0.1892 -0.4764  0.5139
  956SOL    HW1 3188   2.414   3.087   0.203  0.4950 -1.4401  1.3746
  956SOL    HW2 3189   2.318   2.963   0.247 -2.8920  0.6209  0.1446
  957SOL     OW 3190   5.237   4.648   2.630 -0.1861 -0.2635  0.1242
  957SOL    HW1 3191   5.308   4.653   2.560  1.6481  1.3940  1.9804
  957SOL    HW2 3192   5.154   4.690   2.596  0.2240 -0.6705 -1.4945
  958SOL     OW 3193   2.035   2.222   1.172 -0.2852 -0.2216 -0.1175
  958SOL    HW1 3194   1.959   2.257   1.226  0.0818 -0.7416  0.7577
  958SOL    HW2 3195   2.117   2.276   1.190 -0.1370 -0.4549 -0.0856
  959SOL     OW 3196   2.786   2.180   0.986 -0.7405  0.5296 -0.0956
  959SOL    HW1 3197   2.770   2.156   1.082  0.4551  0.5921  0.1330
  959SOL    HW2 3198   2.865   2.129   0.952 -1.0864  0.5939 -1.0224
  960SOL     OW 3199   0.732   3.029   1.291  0.3209 -0.6896 -0.7173
  960SOL    HW1 3200   0.735   3.117   1.244 -1.0880 -0.0416  0.3572
  960SOL    HW2 3201   0.643   3.017   1.335  1.4997 -1.2813  1.7044
  961SOL     OW 3202   2.335   2.456   2.182  0.2575 -0.2266  0.5933
  961SOL    HW1 3203   2.372   2.435   2.272 -1.8949  0.0407  1.5937
  961SOL    HW2 3204   2.289   2.376   2.144 -0.0279  0.0524  0.3371
  962SOL     OW 3205   1.188   1.847   1.906  0.6229 -0.3094  0.6054
  962SOL    HW1 3206   1.225   1.916   1.968  1.8034  1.3019 -1.7424
  962SOL    HW2 3207   1.244   1.843   1.823 -1.0113 -2.1857 -0.4929
  963SOL     OW 3208   1.872   3.166   0.973  0.7883 -0.2568 -0.0662
  963SOL    HW1 3209   1.828   3.076   0.969  0.1330  0.1024 -2.0944
  963SOL    HW2 3210   1.828   3.228   0.907  2.4482  0.9849 -0.0672
  964SOL     OW 3211   1.606   3.743   3.445 -0.1633  0.3212  0.1027
  964SOL    HW1 3212   1.601   3.832   3.398 -1.1231  0.9371  1.3134
  964SOL    HW2 3213   1.606   3.757   3.543 -1.6347 -1.0615  0.3453
  965SOL     OW 3214   3.270   0.712   1.545 -0.3749 -0.5669 -0.3815
  965SOL    HW1 3215   3.232   0.714   1.452 -0.8144  0.3429 -0.1975
  965SOL    HW2 3216   3.196   0.697   1.611  0.0677 -2.2018 -0.2289
  966SOL     OW 3217   1.919   0.984   2.648 -0.0753  0.3077 -0.3438
  966SOL    HW1 3218   1.878   0.893   2.648 -2.2594  1.2154 -0.4432
  966SOL    HW2 3219   1.974   0.996   2.731 -1.4086 -0.4394  0.6983
  967SOL     OW 3220   1.504   2.206   2.811 -0.0847 -0.2483  0.4496
  967SOL    HW1 3221   1.472   2.300   2.798  1.4708  0.6427  2.5150
  967SOL    HW2 3222   1.601   2.200   2.789  0.6781 -0.5014  3.4597
  968SOL     OW 3223   0.162   3.895   1.843  0.1905 -0.1068 -0.2757
  968SOL    HW1 3224   0.108   3.925   1.765  0.8456 -0.0439 -0.7079
  968SOL    HW2 3225   0.252   3.864   1.812  0.7236  0.5940  0.5165
  969SOL     OW 3226   5.451   1.075   2.156  0.5276  0.3183 -0.4274
  969SOL    HW1 3227   5.541   1.118   2.157  0.6853  0.0913 -1.8299
  969SOL    HW2 3228   5.405   1.090   2.244  3.1977 -2.3881  1.6087
  970SOL     OW 3229   1.946   1.533   2.239 -0.1837  0.3272 -0.4705
  970SOL    HW1 3230   1.879   1.470   2.278 -0.6483  1.0008 -0.1561
  970SOL    HW2 3231   1.903   1.623   2.226  0.8616  0.9800  0.4323
  971SOL     OW 3232   5.189   3.454   3.314 -0.3796  0.2976  0.6065
  971SOL    HW1 3233   5.187   3.553   3.296 -0.5106  0.0590 -0.8710
  971SOL    HW2 3234   5.226   3.407   3.233  0.7638 -0.7787  1.7174
  972SOL     OW 3235   2.345   0.285   0.680  0.5351  0.2747  0.4436
  972SOL    HW1 3236   2.386   0.239   0.601  0.6973  0.4478  0.4262
  972SOL    HW2 3237   2.379   0.379   0.685 -0.7878  0.8161 -0.2823
  973SOL     OW 3238   0.754   1.940   2.231  0.1844 -0.5336 -0.1389
  973SOL    HW1 3239   0.804   1.856   2.209 -1.0970 -1.4759  0.3561
  973SOL    HW2 3240   0.724   1.936   2.327 -3.1401 -1.3486 -1.0634
  974SOL     OW 3241   1.467   3.295   1.653  0.1957  0.4470 -0.2947
  974SOL    HW1 3242   1.372   3.324   1.648 -0.0360 -0.5114 -2.3423
  974SOL    HW2 3243   1.473   3.209   1.703 -0.0514  0.3633 -0.4087
  975SOL     OW 3244   1.232   3.468   3.915 -0.6875 -0.3770  0.1683
  975SOL    HW1 3245   1.194   3.514   3.995  0.6302 -0.8902  1.1258
  975SOL    HW2 3246   1.308   3.409   3.943  0.5989  0.3424 -1.5908
  976SOL     OW 3247   2.798   1.460   1.430  0.6773  0.0626  0.7046
  976SOL    HW1 3248   2.796   1.474   1.529 -1.3076  1.6654  0.5047
  976SOL    HW2 3249   2.796   1.548   1.384 -0.2786 -0.6918 -0.7637
  977SOL     OW 3250   5.038   2.741   3.038  0.3092  0.2213  0.4479
  977SOL    HW1 3251   4.965   2.786   3.090 -1.0829 -1.9676  0.5093
  977SOL    HW2 3252   5.118   2.728   3.097 -0.6673 -0.7782  1.6120
  978SOL     OW 3253   1.837   2.871   1.029  0.4823 -0.2570  0.2164
  978SOL    HW1 3254   1.844   2.873   1.129  0.0794 -1.0934  0.2713
  978SOL    HW2 3255   1.880   2.788   0.994 -0.3266 -0.5075 -0.2197
  979SOL     OW 3256   0.957   1.843   3.548  0.8310 -0.1573 -0.8827
  979SOL    HW1 3257   0.867   1.887   3.545  0.5989 -0.5479 -0.1584
  979SOL    HW2 3258   0.978   1.805   3.458 -0.3198 -1.1707 -0.7631
  980SOL     OW 3259   1.624   1.449   4.565  0.0854  0.5579 -0.4975
  980SOL    HW1 3260   1.671   1.538   4.563 -2.0955  1.7623 -0.9786
  980SOL    HW2 3261   1.622   1.411   4.473 -1.2392  1.2985 -0.7990
  981SOL     OW 3262   5.195   1.063   3.358  0.2959  0.0713 -0.3512
  981SOL    HW1 3263   5.123   1.092   3.296  0.8732  0.0663 -1.0456
  981SOL    HW2 3264   5.202   0.963   3.358 -0.2571  0.0267  0.3742
  982SOL     OW 3265   1.607   2.662   2.920 -0.2333  0.1270 -0.7682
  982SOL    HW1 3266   1.691   2.695   2.877  0.1227  0.0149 -0.1631
  982SOL    HW2 3267   1.585   2.718   2.999 -1.9870  1.6082 -2.1948
  983SOL     OW 3268   1.877   2.602   2.132  0.0011  0.2551 -0.8439
  983SOL    HW1 3269   1.966   2.609   2.176 -0.8876  1.4113  0.9015
  983SOL    HW2 3270   1.825   2.527   2.173 -0.3763  0.5544 -0.7592
  984SOL     OW 3271   2.392   2.192   0.572  0.4867 -0.1147 -0.3501
  984SOL    HW1 3272   2.341   2.129   0.629 -0.5354  0.1392 -0.9568
  984SOL    HW2 3273   2.347   2.201   0.483  0.0173  2.2071  0.0580
  985SOL     OW 3274   0.750   2.306   1.532  0.2082 -0.2479 -0.6481
  985SOL    HW1 3275   0.716   2.237   1.596 -0.7689 -0.3539 -1.2521
  985SOL    HW2 3276   0.816   2.265   1.470  0.4594 -0.3639 -0.3114
  986SOL     OW 3277   2.104   3.956   3.625 -0.2083  0.5462  0.1433
  986SOL    HW1 3278   2.049   4.039   3.624  1.4533  1.6914 -0.5100
  986SOL    HW2 3279   2.102   3.914   3.534 -1.7882 -0.6848  0.7061
  987SOL     OW 3280   1.040   3.259   4.366  0.6263  0.0898 -0.1238
  987SOL    HW1 3281   1.129   3.263   4.321  1.8609 -1.3968  2.0018
  987SOL    HW2 3282   0.999   3.169   4.351  0.4338  0.0515  0.5792
  988SOL     OW 3283   1.385   3.069   4.584  0.2083  0.0925 -0.0147
  988SOL    HW1 3284   1.308   3.085   4.646 -0.1556 -2.2211  0.1921
  988SOL    HW2 3285   1.447   3.002   4.625  1.0519  0.0753 -1.2796
  989SOL     OW 3286   2.390   2.259   1.078 -0.0509  0.3472  0.2595
  989SOL    HW1 3287   2.438   2.282   0.993 -0.9305  2.4451  0.2844
  989SOL    HW2 3288   2.446   2.195   1.131  2.1442  1.7303 -0.2803
  990SOL     OW 3289   3.783   2.503   5.280 -0.1085 -0.2106  0.2711
  990SOL    HW1 3290   3.736   2.415   5.287  1.1513 -1.0061 -0.8024
  990SOL    HW2 3291   3.839   2.518   5.361 -0.8700 -0.0467  0.7791
  991SOL     OW 3292   2.218   1.855   2.246  0.0917 -0.1053  0.2428
  991SOL    HW1 3293   2.255   1.947   2.232 -0.9518  0.1804 -0.8395
  991SOL    HW2 3294   2.272   1.806   2.314  1.8958  0.5995 -0.6372
  992SOL     OW 3295   0.780   4.548   4.501 -0.1113  0.0197 -0.1737
  992SOL    HW1 3296   0.747   4.641   4.490  2.1443  0.5976 -4.5440
  992SOL    HW2 3297   0.719   4.485   4.452 -0.2255 -0.4388  0.5424
  993SOL     OW 3298   0.768   2.540   4.784 -0.0340  0.0063  0.5708
  993SOL    HW1 3299   0.729   2.623   4.745 -0.2218  0.0203  0.7855
  993SOL    HW2 3300   0.747   2.536   4.882 -0.7906 -0.7281  0.3875
  994SOL     OW 3301   3.901   2.530   0.195  0.4420 -0.3544  0.0071
  994SOL    HW1 3302   3.815   2.526   0.246  0.2441 -1.9561 -0.3960
  994SOL    HW2 3303   3.940   2.622   0.202 -0.4497 -0.0596  1.5857
  995SOL     OW 3304   0.866   2.637   0.467  0.3816 -0.0343 -0.2289
  995SOL    HW1 3305   0.924   2.672   0.393 -1.2517  0.3150 -1.3900
  995SOL    HW2 3306   0.770   2.651   0.444 -0.1934 -0.5294  1.6873
  996SOL     OW 3307   0.895   0.387   2.756 -0.4297  0.1560 -0.4281
  996SOL    HW1 3308   0.808   0.414   2.798 -0.1374 -0.4919  0.6222
  996SOL    HW2 3309   0.966   0.453   2.781  0.1332 -1.1337  1.5830
  997SOL     OW 3310   1.888   3.229   1.445 -0.2512  0.0092  0.3918
  997SOL    HW1 3311   1.820   3.264   1.510  1.0551  1.5172  1.0138
  997SOL    HW2 3312   1.848   3.224   1.354 -1.8249 -1.1985  1.1019
  998SOL     OW 3313   4.307   4.298   2.040  0.2596 -0.3795  0.3131
  998SOL    HW1 3314   4.386   4.236   2.041  0.7720  0.2089 -1.2360
  998SOL    HW2 3315   4.273   4.307   1.946  1.0509  2.7340  0.2349
  999SOL     OW 3316   2.216   3.519   2.517 -0.3105 -0.1226  0.5647
  999SOL    HW1 3317   2.252   3.610   2.497 -0.0931 -0.6035 -1.4390
  999SOL    HW2 3318   2.241   3.493   2.611 -0.1661  1.7575  1.0824
 1000SOL     OW 3319   2.662   1.514   3.518 -0.9376  0.0226  0.0845
 1000SOL    HW1 3320   2.724   1.466   3.580 -0.4210  0.0655 -0.3839
 1000SOL    HW2 3321   2.711   1.537   3.434 -1.7449 -0.4257 -0.5245
 1001SOL     OW 3322   1.252   1.854   5.111 -0.3663 -0.1315 -0.3264
 1001SOL    HW1 3323   1.301   1.796   5.046  1.0277 -0.4024  0.9025
 1001SOL    HW2 3324   1.155   1.859   5.085 -0.0275 -0.9328 -1.8905
 1002SOL     OW 3325   4.925   3.676   1.715 -0.1018  0.1618 -0.3903
 1002SOL    HW1 3326   4.977   3.738   1.773 -2.0866  0.0943  1.6202
 1002SOL    HW2 3327   4.945   3.581   1.741 -0.5587  0.1159 -0.1894
 1003SOL     OW 3328   5.186   2.622   2.814 -0.0801  0.0592  0.7457
 1003SOL    HW1 3329   5.281   2.652   2.816 -0.4471  1.4883 -0.9950
 1003SOL    HW2 3330   5.136   2.667   2.888  0.4048 -0.0193  1.1270
 1004SOL     OW 3331   4.807   3.931   2.667 -0.3115  0.1577 -0.1752
 1004SOL    HW1 3332   4.781   3.949   2.762 -2.2099  1.6302 -0.9088
 1004SOL    HW2 3333   4.743   3.867   2.626  1.0812 -1.2568 -0.2278
 1005SOL     OW 3334   2.056   3.350   2.379 -0.8448  1.0799  0.0879
 1005SOL    HW1 3335   2.117   3.400   2.440  0.0026  0.5018 -0.2654
 1005SOL    HW2 3336   2.068   3.383   2.285 -0.3486  0.2869 -0.1348
 1006SOL     OW 3337   5.201   1.787   3.322 -0.2830 -0.2829  0.5940
 1006SOL    HW1 3338   5.106   1.758   3.328 -0.5828 -0.5500 -2.9775
 1006SOL    HW2 3339   5.205   1.887   3.325 -0.8558 -0.2184 -0.2881
 1007SOL     OW 3340   2.199   2.309   2.573 -0.3227  0.3960  0.0269
 1007SOL    HW1 3341   2.113   2.354   2.550 -0.1980  1.2554  1.1498
 1007SOL    HW2 3342   2.233   2.345   2.660  1.1744  0.0706 -0.3978
 1008SOL     OW 3343   1.561   0.797   2.786  0.1172  0.0429  0.0100
 1008SOL    HW1 3344   1.591   0.861   2.857  0.5436  0.0385 -0.1607
 1008SOL    HW2 3345   1.641   0.764   2.736 -0.3289  1.9593 -2.1369
 1009SOL     OW 3346   0.253   1.744   2.557  0.2232 -0.0078 -0.3052
 1009SOL    HW1 3347   0.175   1.779   2.505 -1.5776 -1.6834  1.1387
 1009SOL    HW2 3348   0.230   1.656   2.598  2.4430  0.0270  1.2167
 1010SOL     OW 3349   3.092   1.939   1.488  0.0700  0.0580  0.4691
 1010SOL    HW1 3350   3.083   2.038   1.489 -3.1522 -0.1333  0.0791
 1010SOL    HW2 3351   3.154   1.910   1.562 -0.6080  2.2428  1.9959
 1011SOL     OW 3352   1.954   3.390   2.738 -0.3353  0.0503 -0.5789
 1011SOL    HW1 3353   1.891   3.335   2.682 -0.9625  1.2772 -1.1224
 1011SOL    HW2 3354   2.046   3.351   2.733 -0.2386  0.4545 -2.9631
 1012SOL     OW 3355   1.024   2.133   2.173  0.2329 -0.2935  0.3095
 1012SOL    HW1 3356   1.065   2.223   2.158  1.1278 -0.9321 -1.2960
 1012SOL    HW2 3357   0.978   2.102   2.089 -0.3399 -1.1983  0.9333
 1013SOL     OW 3358   2.195   5.473   4.000 -0.3374  0.1858  1.0556
 1013SOL    HW1 3359   2.120   5.455   4.064 -0.0171  1.8572  1.9486
 1013SOL    HW2 3360   2.255   5.393   3.997 -2.5962 -1.5588 -0.3847
 1014SOL     OW 3361   5.050   1.666   2.519 -0.7670  0.3458 -0.0346
 1014SOL    HW1 3362   4.962   1.714   2.523 -1.1326 -0.3450  0.9615
 1014SOL    HW2 3363   5.068   1.636   2.425 -1.7281  0.2721 -0.2057
 1015SOL     OW 3364   0.772   2.446   3.420 -0.1651 -0.2187  0.1882
 1015SOL    HW1 3365   0.815   2.360   3.392  1.1534  0.0019  1.3928
 1015SOL    HW2 3366   0.774   2.454   3.519  1.1174  1.8525  0.0700
 1016SOL     OW 3367   1.856   3.402   3.399  0.7416  0.3242  0.1070
 1016SOL    HW1 3368   1.938   3.344   3.395  0.1020 -0.5840 -0.2560
 1016SOL    HW2 3369   1.800   3.387   3.318 -0.0724  0.4901  0.6209
 1017SOL     OW 3370   2.125   2.650   1.170 -0.2739 -0.3486  0.3433
 1017SOL    HW1 3371   2.057   2.616   1.104  0.2978 -1.2116  0.1844
 1017SOL    HW2 3372   2.164   2.736   1.136 -1.3421  0.2141  0.4840
 1018SOL     OW 3373   5.242   2.725   4.950 -0.2010 -0.8117  0.5017
 1018SOL    HW1 3374   5.192   2.762   5.028  1.8105  1.6672  0.7367
 1018SOL    HW2 3375   5.192   2.745   4.866  1.2857  3.9478  0.4551
 1019SOL     OW 3376   1.040   3.496   2.039 -0.3569 -0.0316 -0.8355
 1019SOL    HW1 3377   0.986   3.537   1.965  0.9405  1.3300 -1.0778
 1019SOL    HW2 3378   1.010   3.533   2.126  0.4525  1.0857 -1.0096
 1020SOL     OW 3379   0.478   1.581   4.141 -0.4096 -0.0566  0.2578
 1020SOL    HW1 3380   0.518   1.664   4.101  3.0351 -1.5754  0.2252
 1020SOL    HW2 3381   0.426   1.605   4.223  0.8298  2.0903  0.4745
 1021SOL     OW 3382   4.794   2.752   4.015  0.0491  0.2763 -0.4016
 1021SOL    HW1 3383   4.801   2.793   3.924  0.2387  0.5770 -0.2539
 1021SOL    HW2 3384   4.772   2.655   4.006 -0.6642  0.4574 -0.7549
 1022SOL     OW 3385   0.122   2.290   3.015 -1.1157  0.0995  0.5910
 1022SOL    HW1 3386   0.099   2.302   3.112 -0.3223  0.3937  0.7563
 1022SOL    HW2 3387   0.112   2.194   2.989  0.5873 -0.3734  1.5092
 1023SOL     OW 3388   2.817   3.556   1.215 -0.0939 -0.1091  0.9288
 1023SOL    HW1 3389   2.843   3.521   1.125 -0.3592 -1.2908  1.2990
 1023SOL    HW2 3390   2.755   3.634   1.203 -4.1036 -3.0848 -0.0612
 1024SOL     OW 3391   5.185   2.413   3.594  0.3316 -0.5247 -0.1994
 1024SOL    HW1 3392   5.250   2.340   3.573  0.4604 -0.1780 -1.0493
 1024SOL    HW2 3393   5.225   2.476   3.660  1.1711  0.0920 -1.2665
 1025SOL     OW 3394   1.956   1.641   1.647  0.7358 -0.3174 -0.1628
 1025SOL    HW1 3395   1.939   1.573   1.719  1.9862 -2.1044 -1.4540
 1025SOL    HW2 3396   1.963   1.594   1.559  1.3091  1.5641 -1.1625
 1026SOL     OW 3397   2.475   4.238   4.484  0.0382  0.0508 -0.1080
 1026SOL    HW1 3398   2.469   4.139   4.486 -1.0257  0.0947 -0.1819
 1026SOL    HW2 3399   2.382   4.277   4.485  0.4050  1.0118 -1.0039
 1027SOL     OW 3400   2.551   1.990   2.101  0.1186 -0.8689  0.0185
 1027SOL    HW1 3401   2.579   1.912   2.044 -0.3971 -1.1769  0.1757
 1027SOL    HW2 3402   2.607   1.992   2.183  0.4421 -0.8019 -0.2014
 1028SOL     OW 3403   2.226   4.654   3.603  0.3351  0.0444 -0.0922
 1028SOL    HW1 3404   2.323   4.637   3.618  0.5233  1.0620 -0.1208
 1028SOL    HW2 3405   2.187   4.578   3.550  1.1440 -0.2888 -0.2253
 1029SOL     OW 3406   1.982   2.470   2.575  0.1424  0.1348  0.7277
 1029SOL    HW1 3407   1.973   2.464   2.674 -0.7958  2.8389  0.8902
 1029SOL    HW2 3408   1.892   2.486   2.534  0.7521  0.8772 -0.3696
 1030SOL     OW 3409   4.901   1.192   2.748 -0.1655  0.7807  0.3006
 1030SOL    HW1 3410   4.997   1.165   2.756 -0.0804  1.2249  0.7604
 1030SOL    HW2 3411   4.887   1.282   2.789 -0.8065  0.6633  0.3565
 1031SOL     OW 3412   5.424   2.686   1.085 -0.0542  0.1294  0.0758
 1031SOL    HW1 3413   5.438   2.599   1.131 -1.6146 -0.6738 -0.9103
 1031SOL    HW2 3414   5.326   2.702   1.070  0.1153  2.4019  0.8607
 1032SOL     OW 3415   1.792   2.613   4.130 -0.1952 -0.1289  0.6727
 1032SOL    HW1 3416   1.860   2.541   4.118  1.0128  0.9673  0.8486
 1032SOL    HW2 3417   1.818   2.693   4.077 -2.4000 -0.3533 -0.9107
 1033SOL     OW 3418   2.297   2.781   3.718 -0.1269 -0.1433  0.0529
 1033SOL    HW1 3419   2.369   2.747   3.778  1.4771  0.4049 -1.4528
 1033SOL    HW2 3420   2.208   2.755   3.754  0.7937 -0.4709  2.2173
 1034SOL     OW 3421   2.078   4.320   0.900  0.0882 -0.2030 -0.3699
 1034SOL    HW1 3422   2.172   4.349   0.884  0.3463 -0.6363  0.3409
 1034SOL    HW2 3423   2.027   4.326   0.814  0.8564 -0.3122 -0.8454
 1035SOL     OW 3424   3.913   4.082   1.168 -0.4327  0.2113 -0.2909
 1035SOL    HW1 3425   3.975   4.118   1.098  0.8718 -1.0565  0.1639
 1035SOL    HW2 3426   3.891   4.155   1.233 -0.7842  1.1168 -1.3926
 1036SOL     OW 3427   1.946   1.843   2.296 -0.2707  0.2499  0.1700
 1036SOL    HW1 3428   2.044   1.843   2.275 -0.3645 -1.2003 -0.3306
 1036SOL    HW2 3429   1.898   1.899   2.229  0.1548  0.6663  0.1991
 1037SOL     OW 3430   1.205   3.442   3.101  0.3286  0.4887  0.5862
 1037SOL    HW1 3431   1.272   3.377   3.137  0.8704  0.8354  0.2127
 1037SOL    HW2 3432   1.114   3.417   3.134  0.3639 -1.0892 -0.4024
 1038SOL     OW 3433   1.120   0.835   2.646 -0.1381  0.2257  1.0335
 1038SOL    HW1 3434   1.077   0.895   2.579 -0.0652  1.2927  1.9027
 1038SOL    HW2 3435   1.219   0.833   2.630 -0.1605  0.2088  0.8992
 1039SOL     OW 3436   4.016   3.577   1.885 -0.5173  0.3313 -0.3547
 1039SOL    HW1 3437   4.025   3.616   1.794  1.1069  0.2433 -0.2602
 1039SOL    HW2 3438   4.037   3.479   1.882  1.3396  0.6655  0.3665
 1040SOL     OW 3439   1.359   3.493   4.776 -0.3430 -0.3323 -0.1301
 1040SOL    HW1 3440   1.278   3.453   4.818 -0.5760  0.1078 -0.1586
 1040SOL    HW2 3441   1.423   3.420   4.751 -0.3780 -0.6288  0.6122
 1041SOL     OW 3442   1.367   3.472   2.323  0.2484  0.6851 -0.3183
 1041SOL    HW1 3443   1.338   3.408   2.394  2.2417  0.2955  0.2228
 1041SOL    HW2 3444   1.298   3.542   2.311 -0.7884 -0.0669  0.9865
 1042SOL     OW 3445   1.681   2.307   4.213  0.1480 -0.3425 -0.1369
 1042SOL    HW1 3446   1.766   2.339   4.172 -0.2229 -0.9954 -1.5039
 1042SOL    HW2 3447   1.612   2.379   4.207  0.2985 -0.1873 -0.0137
 1043SOL     OW 3448   1.632   1.560   2.067  0.0896 -0.5025  0.3602
 1043SOL    HW1 3449   1.592   1.576   1.977  0.2134 -0.3526  0.3311
 1043SOL    HW2 3450   1.567   1.586   2.138  0.5644  0.8489  0.3153
 1044SOL     OW 3451   3.664   0.373   1.657 -0.3552 -0.0882  0.1790
 1044SOL    HW1 3452   3.621   0.285   1.671 -0.6123 -0.5356 -2.7416
 1044SOL    HW2 3453   3.598   0.446   1.672 -0.1618 -0.3319  2.5237
 1045SOL     OW 3454   1.068   1.991   4.264  0.8015  0.4841  0.7921
 1045SOL    HW1 3455   1.007   2.067   4.285  1.1758  1.5005 -1.5653
 1045SOL    HW2 3456   1.014   1.908   4.249  0.2224  0.7704  1.2666
 1046SOL     OW 3457   4.215   2.340   1.905 -0.4789  0.4735  0.9898
 1046SOL    HW1 3458   4.147   2.383   1.847  1.2798  1.3768 -0.5005
 1046SOL    HW2 3459   4.284   2.294   1.848  0.5132  0.1162  2.4036
 1047SOL     OW 3460   2.488   3.037   0.986 -0.3690 -0.1428  0.6912
 1047SOL    HW1 3461   2.450   3.108   1.045  0.5196  1.7241 -0.8369
 1047SOL    HW2 3462   2.420   2.965   0.973 -2.1711  1.4524  0.6657
 1048SOL     OW 3463   5.501   1.961   3.217  0.4568  0.0706 -0.6649
 1048SOL    HW1 3464   5.413   1.996   3.248  0.0315 -0.3881 -1.3320
 1048SOL    HW2 3465   5.565   1.957   3.294 -0.4273 -0.6152  0.0465
 1049SOL     OW 3466   5.270   2.401   2.529 -0.8966  0.3452 -0.4134
 1049SOL    HW1 3467   5.200   2.411   2.600  0.1134 -0.2952  0.6990
 1049SOL    HW2 3468   5.355   2.367   2.569  0.7800  3.0984 -1.3088
 1050SOL     OW 3469   1.495   3.861   3.740  0.0002 -0.2394 -0.1760
 1050SOL    HW1 3470   1.490   3.889   3.835 -1.1712 -2.9043  0.6310
 1050SOL    HW2 3471   1.575   3.802   3.726  0.4795  0.5767 -0.9882
 1051SOL     OW 3472   1.342   0.538   4.520 -1.2960  0.6567 -0.0769
 1051SOL    HW1 3473   1.287   0.581   4.592 -0.1443  0.0271  1.2297
 1051SOL    HW2 3474   1.365   0.445   4.547 -1.0589  0.3068 -1.4076
 1052SOL     OW 3475   0.619   2.772   0.990  0.1053  0.2035  0.0501
 1052SOL    HW1 3476   0.592   2.699   0.927 -2.4167  2.0507 -1.2066
 1052SOL    HW2 3477   0.686   2.831   0.946  0.4783 -0.1080  0.2012
 1053SOL     OW 3478   2.282   2.970   4.229  0.0216  0.0279  0.0882
 1053SOL    HW1 3479   2.362   2.982   4.170  0.4732  1.7489  0.9833
 1053SOL    HW2 3480   2.207   2.929   4.177  1.0232 -0.2720 -1.1431
 1054SOL     OW 3481   2.274   2.346   1.544 -0.5570  0.1569  0.1092
 1054SOL    HW1 3482   2.226   2.373   1.461  2.3900 -1.2960 -2.2764
 1054SOL    HW2 3483   2.306   2.251   1.534  1.2881  0.4757  2.2011
 1055SOL     OW 3484   4.167   4.122   2.170  0.0112  0.0523 -0.4690
 1055SOL    HW1 3485   4.204   4.164   2.087  0.3587 -1.5528 -1.1628
 1055SOL    HW2 3486   4.076   4.159   2.188 -0.3211  0.0125 -1.9156
 1056SOL     OW 3487   3.393   2.444   4.762 -0.1696 -0.1552  0.0746
 1056SOL    HW1 3488   3.414   2.466   4.667 -1.2511 -1.3043 -0.4670
 1056SOL    HW2 3489   3.294   2.442   4.774 -0.0482  0.9516  1.4874
 1057SOL     OW 3490   0.793   3.780   3.787  0.0612  0.5458  0.3921
 1057SOL    HW1 3491   0.866   3.845   3.804  1.1049 -0.2766 -0.7528
 1057SOL    HW2 3492   0.832   3.691   3.763 -1.3205 -0.2648  0.9885
 1058SOL     OW 3493   0.671   3.153   2.205 -0.5144 -0.8336  0.5017
 1058SOL    HW1 3494   0.741   3.110   2.263 -1.0171  0.4402  2.1529
 1058SOL    HW2 3495   0.585   3.160   2.255 -1.5979 -1.5240 -1.1702
 1059SOL     OW 3496   1.051   2.678   3.528  0.1182 -0.0014 -0.0113
 1059SOL    HW1 3497   1.091   2.745   3.465 -0.6412 -0.9042 -1.4845
 1059SOL    HW2 3498   0.960   2.709   3.556  0.1343  0.0141  0.0240
 1060SOL     OW 3499   1.705   2.512   2.506 -0.1886 -0.3710  0.2505
 1060SOL    HW1 3500   1.655   2.571   2.442  0.3066 -0.4706 -0.2443
 1060SOL    HW2 3501   1.696   2.547   2.599  1.4976  1.4655 -0.2364
 1061SOL     OW 3502   2.099   2.563   0.696  0.3013  0.1070 -0.3017
 1061SOL    HW1 3503   2.129   2.513   0.777 -0.1253  0.1959 -0.0869
 1061SOL    HW2 3504   2.157   2.537   0.618  1.7716  1.2273  0.3643
 1062SOL     OW 3505   1.409   4.232   0.409  0.3213  0.1843 -0.1860
 1062SOL    HW1 3506   1.479   4.261   0.344  0.3591  0.2946 -0.0975
 1062SOL    HW2 3507   1.452   4.183   0.485  0.1039 -1.4581 -1.0895
 1063SOL     OW 3508   0.290   3.095   3.763  0.4782 -0.1295  0.5539
 1063SOL    HW1 3509   0.330   3.083   3.854  2.5840 -0.5781 -0.3642
 1063SOL    HW2 3510   0.321   3.182   3.724 -0.1162 -0.1064  0.1241
 1064SOL     OW 3511   0.070   1.046   3.020 -0.3322  0.1107  0.6130
 1064SOL    HW1 3512   0.047   0.968   2.962  1.5681  0.3757 -0.6225
 1064SOL    HW2 3513   0.099   1.013   3.110 -0.2437 -0.5794  0.3412
 1065SOL     OW 3514   0.344   5.144   3.500 -0.1966 -0.4007  0.0869
 1065SOL    HW1 3515   0.253   5.108   3.520 -0.1207  0.0213  1.2536
 1065SOL    HW2 3516   0.355   5.152   3.401 -1.3499 -0.6416 -0.0795
 1066SOL     OW 3517   2.082   4.166   4.272  0.0757 -0.2069  0.0984
 1066SOL    HW1 3518   2.051   4.072   4.255 -0.7505  0.4653 -2.5043
 1066SOL    HW2 3519   2.125   4.202   4.190  0.3268  1.7417  1.0324
 1067SOL     OW 3520   5.048   3.839   1.873  0.4576 -0.1017 -0.2637
 1067SOL    HW1 3521   5.122   3.797   1.925  0.5053  0.0228 -0.2299
 1067SOL    HW2 3522   4.985   3.885   1.936  0.6741  0.3033 -0.3339
 1068SOL     OW 3523   1.726   2.863   2.541 -0.2366  0.3946  0.0311
 1068SOL    HW1 3524   1.810   2.810   2.555 -0.3317  0.4838  0.9882
 1068SOL    HW2 3525   1.675   2.825   2.464  0.7584  0.4378 -0.6725
 1069SOL     OW 3526   1.348   2.048   3.234 -0.1520  0.2881 -0.0401
 1069SOL    HW1 3527   1.255   2.054   3.198 -0.0504  0.9301 -0.2118
 1069SOL    HW2 3528   1.346   2.062   3.333 -0.3163 -0.4536  0.0683
 1070SOL     OW 3529   1.217   3.697   2.635 -0.0461 -0.1192 -0.3958
 1070SOL    HW1 3530   1.300   3.679   2.688  0.1012 -0.9380 -0.8904
 1070SOL    HW2 3531   1.221   3.789   2.596  0.1422  0.2419  0.4500
 1071SOL     OW 3532   1.499   0.587   3.269 -0.1112 -0.7306 -0.2144
 1071SOL    HW1 3533   1.563   0.532   3.323 -1.1141 -0.3788  1.4249
 1071SOL    HW2 3534   1.493   0.679   3.308 -0.7411 -0.4133 -1.0342
 1072SOL     OW 3535   0.287   1.352   3.546 -0.0381 -0.4287 -0.0319
 1072SOL    HW1 3536   0.368   1.318   3.594 -1.0801 -1.7224  0.8995
 1072SOL    HW2 3537   0.265   1.444   3.579  1.2166  0.0732 -0.5402
 1073SOL     OW 3538   1.602   3.056   2.697 -0.0651  0.3848  0.4977
 1073SOL    HW1 3539   1.639   2.987   2.635 -0.0081  0.7223  0.1573
 1073SOL    HW2 3540   1.529   3.106   2.651  0.1471  0.8047  0.6156
 1074SOL     OW 3541   5.382   2.233   3.228 -0.3466 -0.5796 -0.1165
 1074SOL    HW1 3542   5.320   2.294   3.179 -1.1513 -1.3636 -0.0966
 1074SOL    HW2 3543   5.455   2.286   3.271  0.8783  0.0969 -2.8105
 1075SOL     OW 3544   0.902   2.642   2.283 -0.1502 -0.3217 -0.0562
 1075SOL    HW1 3545   0.897   2.625   2.184 -2.7784 -0.0641 -0.0586
 1075SOL    HW2 3546   0.969   2.714   2.301  0.2551 -0.2449 -1.6610
 1076SOL     OW 3547   0.463   0.236   1.530  0.4762 -0.0071 -0.1884
 1076SOL    HW1 3548   0.392   0.238   1.460  1.0331  2.6067 -0.7859
 1076SOL    HW2 3549   0.491   0.329   1.552  3.0398 -0.9032  0.7464
 1077SOL     OW 3550   2.806   1.532   1.707 -0.9628  0.1834 -0.2533
 1077SOL    HW1 3551   2.714   1.544   1.744 -1.5661 -0.2727 -1.5442
 1077SOL    HW2 3552   2.858   1.616   1.721 -1.5198  0.4011  0.6209
 1078SOL     OW 3553   4.743   3.962   2.946  0.2004  0.1234 -0.1032
 1078SOL    HW1 3554   4.705   3.882   2.993 -0.1255  0.0886 -0.4187
 1078SOL    HW2 3555   4.676   4.036   2.950  1.4964  1.2898  2.5023
 1079SOL     OW 3556   2.605   4.523   2.431  0.6946  0.1176 -0.3864
 1079SOL    HW1 3557   2.680   4.567   2.381 -0.1547  0.7765 -1.1055
 1079SOL    HW2 3558   2.542   4.481   2.366 -0.8203  1.6100  0.0448
 1080SOL     OW 3559   5.471   2.891   4.640 -0.3701 -0.3382  0.2679
 1080SOL    HW1 3560   5.487   2.989   4.652  2.9085  0.0122 -4.2185
 1080SOL    HW2 3561   5.556   2.842   4.658 -1.3837 -2.1292  0.3154
 1081SOL     OW 3562   5.039   2.283   4.923 -0.6598 -0.4035  0.6562
 1081SOL    HW1 3563   5.088   2.370   4.928 -0.7066 -0.3530  0.3070
 1081SOL    HW2 3564   5.037   2.240   5.013  0.2248 -0.5185  0.6304
 1082SOL     OW 3565   0.597   1.632   0.387 -0.1809 -0.2186 -0.5976
 1082SOL    HW1 3566   0.672   1.626   0.321  0.1889  0.9547 -0.3084
 1082SOL    HW2 3567   0.630   1.601   0.477 -0.1864 -0.1876 -0.5849
 1083SOL     OW 3568   0.920   1.785   0.096 -0.2386  0.2543  0.1525
 1083SOL    HW1 3569   0.906   1.783  -0.003 -1.1766 -1.0775  0.2847
 1083SOL    HW2 3570   0.990   1.853   0.119  0.7339 -0.1572 -1.4959
 1084SOL     OW 3571   1.100   5.000   4.814 -0.3409  0.2317 -0.0158
 1084SOL    HW1 3572   1.010   5.040   4.798  0.3533  3.0015  2.1529
 1084SOL    HW2 3573   1.090   4.907   4.849 -2.3749  0.5930  0.4813
 1085SOL     OW 3574   2.395   1.719   2.406 -0.3285  0.1797 -0.1660
 1085SOL    HW1 3575   2.489   1.715   2.370 -0.6640  1.7963 -1.3383
 1085SOL    HW2 3576   2.397   1.704   2.504  1.1377 -0.0748 -0.2043
 1086SOL     OW 3577   1.316   2.129   3.477 -0.3652 -0.3723  0.0351
 1086SOL    HW1 3578   1.309   2.064   3.553  0.0707  0.3368  0.7000
 1086SOL    HW2 3579   1.268   2.213   3.501  2.0574  0.9106  0.7259
 1087SOL     OW 3580   2.342   3.323   4.855  0.6647  0.2975 -0.3432
 1087SOL    HW1 3581   2.425   3.267   4.862  0.4845 -0.4436 -2.8912
 1087SOL    HW2 3582   2.264   3.264   4.835 -0.1727  1.1485  0.3639
 1088SOL     OW 3583   1.273   1.657   0.433 -0.1904 -0.0364  0.9796
 1088SOL    HW1 3584   1.292   1.737   0.489 -1.0217  0.3325  0.7584
 1088SOL    HW2 3585   1.181   1.623   0.453 -0.3052 -0.2034  0.2152
 1089SOL     OW 3586   1.689   1.769   5.000  0.2802  0.0675  0.0628
 1089SOL    HW1 3587   1.707   1.776   5.098  1.0965  0.3854 -0.1007
 1089SOL    HW2 3588   1.599   1.806   4.980  0.6664  1.2819  0.5140
 1090SOL     OW 3589   0.683   0.659   2.669  0.1514 -0.0332  0.9074
 1090SOL    HW1 3590   0.657   0.593   2.740 -0.9692  0.8924  1.3936
 1090SOL    HW2 3591   0.704   0.746   2.712 -0.0616  0.3997  0.1428
 1091SOL     OW 3592   5.357   2.377   4.558  0.0748 -0.4705 -0.0364
 1091SOL    HW1 3593   5.360   2.335   4.649  1.1049  0.1753  0.2583
 1091SOL    HW2 3594   5.365   2.307   4.488 -1.7232 -1.0754  0.3276
 1092SOL     OW 3595   1.546   2.720   3.655 -0.0109 -0.1084  0.0512
 1092SOL    HW1 3596   1.552   2.686   3.749  0.4458  1.1858  0.5149
 1092SOL    HW2 3597   1.472   2.787   3.649 -0.6039 -0.8171 -0.7334
 1093SOL     OW 3598   0.292   1.880   0.748 -0.4220  0.4846  0.2741
 1093SOL    HW1 3599   0.264   1.879   0.652  2.0982 -1.3996 -0.5517
 1093SOL    HW2 3600   0.390   1.900   0.754 -0.4727  0.3410  2.4614
 1094SOL     OW 3601   5.260   4.703   4.876 -0.0630 -0.3754  0.5638
 1094SOL    HW1 3602   5.317   4.685   4.797 -0.1004 -0.7186  0.6133
 1094SOL    HW2 3603   5.245   4.618   4.927  0.0980 -0.1270  1.0302
 1095SOL     OW 3604   1.693   3.750   4.496  0.2132  0.0205 -0.3935
 1095SOL    HW1 3605   1.734   3.704   4.575 -1.1829 -0.9000 -0.1635
 1095SOL    HW2 3606   1.713   3.848   4.500  1.2632 -0.2044  0.3865
 1096SOL     OW 3607   3.046   4.473   5.240  0.2125 -0.3559 -0.4229
 1096SOL    HW1 3608   3.031   4.571   5.253 -0.0173 -0.2180 -1.5481
 1096SOL    HW2 3609   3.115   4.439   5.304  0.4198  0.5759 -0.1515
 1097SOL     OW 3610   0.811   3.116   4.139 -0.4225 -0.2319  0.4623
 1097SOL    HW1 3611   0.894   3.145   4.091 -0.6206 -0.6206 -0.1396
 1097SOL    HW2 3612   0.822   3.022   4.170 -1.3460 -1.0214 -1.3972
 1098SOL     OW 3613   0.231   0.684   5.142 -0.2219 -0.7572 -0.2389
 1098SOL    HW1 3614   0.316   0.707   5.093 -1.6715  1.6297 -1.8278
 1098SOL    HW2 3615   0.193   0.767   5.184 -1.9980 -1.6834  0.0845
 1099SOL     OW 3616   0.985   2.978   4.357  0.2779  0.4360  0.4260
 1099SOL    HW1 3617   0.968   2.893   4.306  0.4462 -1.1206  2.8123
 1099SOL    HW2 3618   0.912   2.992   4.424  0.2361  2.2379  0.0567
 1100SOL     OW 3619   2.000   2.194   2.231  0.3321 -0.1312  0.4712
 1100SOL    HW1 3620   1.965   2.112   2.186  0.1819 -0.2355  0.7758
 1100SOL    HW2 3621   2.083   2.225   2.185  0.9351 -1.0143  0.9533
 1101SOL     OW 3622   1.692   1.706   4.727  0.8464 -0.6639 -0.0906
 1101SOL    HW1 3623   1.691   1.737   4.822 -1.1392  0.8404 -0.5220
 1101SOL    HW2 3624   1.722   1.782   4.668 -1.3611 -0.3996 -0.9414
 1102SOL     OW 3625   0.445   2.685   2.103 -0.4337 -0.4582  0.0231
 1102SOL    HW1 3626   0.348   2.692   2.127 -0.3479  0.9416  0.0103
 1102SOL    HW2 3627   0.500   2.711   2.182 -0.0503 -1.4142  0.0840
 1103SOL     OW 3628   0.981   4.818   3.055 -0.3735 -0.0205  0.0325
 1103SOL    HW1 3629   1.035   4.792   3.135  0.4910  0.3588 -0.4106
 1103SOL    HW2 3630   0.979   4.742   2.990 -0.5445 -0.1099  0.1439
 1104SOL     OW 3631   4.702   2.874   3.687 -0.0700 -0.4501 -0.5197
 1104SOL    HW1 3632   4.685   2.776   3.687 -0.6276 -0.3526  0.0032
 1104SOL    HW2 3633   4.620   2.923   3.657 -0.3674 -0.0503  0.8904
 1105SOL     OW 3634   2.812   3.460   4.221 -0.6362 -0.1809 -0.3282
 1105SOL    HW1 3635   2.717   3.489   4.234 -0.2394  1.3416 -0.6317
 1105SOL    HW2 3636   2.815   3.385   4.156 -1.7014 -0.8310  0.3493
 1106SOL     OW 3637   5.251   4.329   4.516 -0.2994  0.3905  0.3083
 1106SOL    HW1 3638   5.260   4.231   4.502 -0.7133  0.6380 -2.0547
 1106SOL    HW2 3639   5.160   4.350   4.553 -1.0320  0.0323 -1.2326
 1107SOL     OW 3640   1.626   2.259   3.839  0.1344  0.1405 -0.7035
 1107SOL    HW1 3641   1.588   2.223   3.924 -0.2649  0.2324 -0.8428
 1107SOL    HW2 3642   1.640   2.184   3.774 -1.4467  0.3170 -1.2866
 1108SOL     OW 3643   1.343   2.717   4.225  0.1343  0.1020 -0.1275
 1108SOL    HW1 3644   1.252   2.703   4.187  0.3140  0.5743 -0.7540
 1108SOL    HW2 3645   1.351   2.811   4.257  0.0444 -0.2424  0.9416
 1109SOL     OW 3646   1.390   3.132   0.311  0.7657 -0.6096  0.4300
 1109SOL    HW1 3647   1.384   3.042   0.269  0.0780 -0.3944  0.0438
 1109SOL    HW2 3648   1.328   3.195   0.263  0.8152 -0.0770  1.0528
 1110SOL     OW 3649   0.432   0.932   3.841  0.1563 -0.0899  0.3176
 1110SOL    HW1 3650   0.344   0.896   3.873 -0.0082 -0.1498 -0.2016
 1110SOL    HW2 3651   0.464   1.002   3.905 -0.2264 -0.1240  0.5522
 1111SOL     OW 3652   1.516   1.047   0.130  0.4278  0.0698  0.1868
 1111SOL    HW1 3653   1.517   0.953   0.096  3.7042  0.4650 -1.1612
 1111SOL    HW2 3654   1.527   1.048   0.230  0.2950 -0.9658  0.2128
 1112SOL     OW 3655   3.031   3.706   0.071  0.3359 -0.3722 -0.1751
 1112SOL    HW1 3656   3.071   3.794   0.095  0.7856 -0.6766  0.2119
 1112SOL    HW2 3657   3.072   3.634   0.127 -0.7691 -0.6920  0.2480
 1113SOL     OW 3658   4.595   4.550   3.613 -0.1220 -0.4235 -0.1314
 1113SOL    HW1 3659   4.584   4.519   3.519 -1.9773 -0.2101 -0.0157
 1113SOL    HW2 3660   4.555   4.642   3.623  1.5087  0.2640  0.5111
 1114SOL     OW 3661   0.802   0.892   3.641  0.0177 -0.1757  0.2679
 1114SOL    HW1 3662   0.848   0.805   3.658 -0.2458 -0.2515  0.6061
 1114SOL    HW2 3663   0.759   0.890   3.550 -2.6718 -1.6236  1.4654
 1115SOL     OW 3664   1.453   2.609   5.271 -0.3524 -0.2698 -0.5424
 1115SOL    HW1 3665   1.486   2.559   5.192  1.3302 -0.2942  0.1328
 1115SOL    HW2 3666   1.490   2.567   5.355 -1.4351  0.2380  0.2179
 1116SOL     OW 3667   3.263   3.445   5.013  0.2982  0.4214 -0.2016
 1116SOL    HW1 3668   3.217   3.468   4.927 -0.2643 -0.6645 -0.2109
 1116SOL    HW2 3669   3.196   3.408   5.078  1.1037 -1.0146 -0.1441
 1117SOL     OW 3670   2.287   2.656   0.155  0.5790 -0.1892 -0.0332
 1117SOL    HW1 3671   2.274   2.670   0.056 -0.2487 -0.4763  0.0275
 1117SOL    HW2 3672   2.216   2.595   0.190 -0.1214  1.1906  1.0417
 1118SOL     OW 3673   0.224   2.380   4.794  0.2324 -0.0645 -0.6631
 1118SOL    HW1 3674   0.153   2.436   4.751 -1.4751 -1.4941  0.1379
 1118SOL    HW2 3675   0.286   2.346   4.723  0.5723  1.7994 -1.2946
 1119SOL     OW 3676   3.793   4.046   0.560 -0.2744 -0.4727 -0.2863
 1119SOL    HW1 3677   3.729   3.990   0.613 -0.2226  1.9913  2.6385
 1119SOL    HW2 3678   3.803   4.007   0.468 -3.1086 -2.9965  0.3179
 1120SOL     OW 3679   1.069   2.525   1.035  0.6581  0.1924  0.0512
 1120SOL    HW1 3680   1.095   2.582   1.113 -0.1096 -0.2374  0.6418
 1120SOL    HW2 3681   0.971   2.503   1.042  0.9913 -1.3951 -0.0279
 1121SOL     OW 3682   2.425   3.434   5.462 -0.5341 -0.4967  0.2833
 1121SOL    HW1 3683   2.429   3.519   5.410 -1.6879 -0.9405 -0.5772
 1121SOL    HW2 3684   2.517   3.409   5.494 -0.0136  0.4600 -0.4452
 1122SOL     OW 3685   3.754   2.145   0.333 -0.5702 -0.4081 -0.1125
 1122SOL    HW1 3686   3.671   2.189   0.298 -1.1029 -1.5234 -0.3290
 1122SOL    HW2 3687   3.768   2.058   0.284 -0.4407 -1.2368  1.3407
 1123SOL     OW 3688   1.982   1.968   0.304 -0.1319  0.1248  0.0236
 1123SOL    HW1 3689   2.037   1.936   0.381  1.7250  0.1840 -1.2037
 1123SOL    HW2 3690   1.943   2.057   0.326 -1.2242 -0.7025  1.5832
 1124SOL     OW 3691   0.846   4.996   4.757 -0.1349  0.5721  0.1188
 1124SOL    HW1 3692   0.847   4.932   4.680  0.1542 -0.5406  1.0123
 1124SOL    HW2 3693   0.761   5.048   4.756 -0.0099  0.7790 -1.1006
 1125SOL     OW 3694   1.136   3.739   5.215 -0.3297  0.8026 -0.1939
 1125SOL    HW1 3695   1.219   3.763   5.266 -0.7388  1.6756  0.0729
 1125SOL    HW2 3696   1.131   3.639   5.206  0.7776  0.7388 -0.2666
 1126SOL     OW 3697   1.877   2.727   0.579  0.5344 -0.2579 -0.2147
 1126SOL    HW1 3698   1.828   2.663   0.520 -0.3351 -0.9036  1.1671
 1126SOL    HW2 3699   1.958   2.682   0.617  0.4412 -0.2433  0.0066
 1127SOL     OW 3700   1.732   2.585   3.273  0.1706 -0.5651  0.5966
 1127SOL    HW1 3701   1.737   2.586   3.373 -0.6267  0.4331  0.6482
 1127SOL    HW2 3702   1.643   2.620   3.244  0.0103 -1.7628 -0.4548
 1128SOL     OW 3703   3.141   1.398   1.137 -0.5300  0.1339  0.0949
 1128SOL    HW1 3704   3.207   1.470   1.114 -2.4557  1.7286 -0.6922
 1128SOL    HW2 3705   3.166   1.314   1.088  0.5373  0.8854 -0.7170
 1129SOL     OW 3706   2.740   2.211   0.314 -0.3136 -0.4440 -0.5871
 1129SOL    HW1 3707   2.701   2.245   0.229 -0.1252 -0.3114 -0.6209
 1129SOL    HW2 3708   2.715   2.274   0.389 -0.5768 -0.6231 -0.5246
 1130SOL     OW 3709   1.191   2.172   3.858  0.4048 -0.4017 -0.5171
 1130SOL    HW1 3710   1.271   2.219   3.822  0.2593  0.2781  0.0140
 1130SOL    HW2 3711   1.215   2.127   3.944  0.5284 -1.2620 -0.9951
 1131SOL     OW 3712   2.365   4.235   4.913 -0.1043 -0.4991  0.6027
 1131SOL    HW1 3713   2.304   4.292   4.858 -1.0252 -0.3493  1.7223
 1131SOL    HW2 3714   2.414   4.292   4.979 -0.1170 -0.8427  0.9159
 1132SOL     OW 3715   1.761   2.703   5.342 -0.9479  0.4792 -0.4701
 1132SOL    HW1 3716   1.834   2.745   5.397 -0.6318 -0.7433  0.1001
 1132SOL    HW2 3717   1.691   2.666   5.403 -1.1351  0.0557 -0.9385
 1133SOL     OW 3718   1.725   3.100   4.225  0.4839 -0.1411 -0.1837
 1133SOL    HW1 3719   1.636   3.073   4.188  0.3586  0.5094 -0.3708
 1133SOL    HW2 3720   1.790   3.026   4.211 -0.0116 -0.6026 -0.0985
 1134SOL     OW 3721   1.935   2.661   0.916  0.0945 -0.0507 -0.3432
 1134SOL    HW1 3722   1.846   2.616   0.919  0.2688 -0.3269  0.9224
 1134SOL    HW2 3723   1.985   2.630   0.835  0.5156 -2.7336  0.8475
 1135SOL     OW 3724   2.466   3.300   4.276  0.5018 -0.5194 -0.0744
 1135SOL    HW1 3725   2.494   3.382   4.227  1.1813  0.4822  1.8788
 1135SOL    HW2 3726   2.366   3.300   4.286  0.2013 -1.3804 -2.4338
 1136SOL     OW 3727   3.539   4.870   4.497 -0.1230 -0.2422 -0.6225
 1136SOL    HW1 3728   3.590   4.920   4.568  1.0399  0.5474 -1.9607
 1136SOL    HW2 3729   3.600   4.804   4.453 -0.2973  0.4977 -2.0398
 1137SOL     OW 3730   5.566   4.011   5.088  0.5092  0.5451  0.5426
 1137SOL    HW1 3731   5.512   4.062   5.022  1.1458  0.1765 -0.2831
 1137SOL    HW2 3732   5.511   3.992   5.169 -0.6014  0.1721 -0.2827
 1138SOL     OW 3733   1.144   3.929   3.323  0.5759  0.3863  0.5509
 1138SOL    HW1 3734   1.056   3.974   3.308  1.0771  1.3763  0.4882
 1138SOL    HW2 3735   1.143   3.885   3.412 -0.5644 -1.0582 -0.1266
 1139SOL     OW 3736   5.158   1.395   0.454 -0.3776 -0.4190 -0.0282
 1139SOL    HW1 3737   5.132   1.389   0.358 -1.9104 -0.8772  0.3950
 1139SOL    HW2 3738   5.220   1.320   0.477  0.3308 -0.0666 -0.7404
 1140SOL     OW 3739   2.009   4.186   4.566  0.0159 -0.2564 -0.1377
 1140SOL    HW1 3740   2.005   4.152   4.472  0.0526 -0.9051  0.0910
 1140SOL    HW2 3741   1.925   4.237   4.587 -0.3975 -0.8847 -0.2365
 1141SOL     OW 3742   0.685   3.690   5.116  0.4857  0.2050  0.4595
 1141SOL    HW1 3743   0.732   3.687   5.027  0.7885  4.2300  0.2738
 1141SOL    HW2 3744   0.752   3.702   5.188  0.0597  0.6446  0.7896
 1142SOL     OW 3745   2.230   3.838   5.535 -0.2729 -0.1285  0.5285
 1142SOL    HW1 3746   2.140   3.835   5.491 -0.1434  0.5456  0.1988
 1142SOL    HW2 3747   2.268   3.931   5.527 -0.4511  0.1429  2.4917
 1143SOL     OW 3748   0.180   3.890   5.388 -0.1384  0.3652 -0.3654
 1143SOL    HW1 3749   0.216   3.820   5.450 -0.6212  0.7120  0.3184
 1143SOL    HW2 3750   0.255   3.927   5.333  0.0185 -1.1825 -1.2672
 1144SOL     OW 3751   2.254   3.718   4.275  0.1946  0.3696 -0.3055
 1144SOL    HW1 3752   2.269   3.735   4.178 -0.6788  0.7443 -0.3751
 1144SOL    HW2 3753   2.239   3.620   4.290  0.6599  0.2654 -0.4956
 1145SOL     OW 3754   3.912   4.361   3.395  0.2534 -0.1548  0.2806
 1145SOL    HW1 3755   3.936   4.436   3.334 -2.3182  0.2849 -0.3215
 1145SOL    HW2 3756   3.892   4.397   3.486 -0.9544 -0.0633 -0.0014
 1146SOL     OW 3757   1.710   3.264   2.142 -0.4996  0.1320  1.2408
 1146SOL    HW1 3758   1.717   3.234   2.046  1.0166  0.0695  1.3389
 1146SOL    HW2 3759   1.755   3.197   2.201 -1.3840  0.1954  2.0061
 1147SOL     OW 3760   2.478   1.368   3.891 -0.8684 -0.4258  0.1957
 1147SOL    HW1 3761   2.520   1.307   3.824  0.1742 -0.4686  0.8706
 1147SOL    HW2 3762   2.427   1.439   3.844 -0.4284 -0.6533 -0.6409
 1148SOL     OW 3763   2.110   1.139   5.018 -0.1667  0.1645  0.0429
 1148SOL    HW1 3764   2.175   1.105   4.950 -0.4718 -2.6798  1.0457
 1148SOL    HW2 3765   2.017   1.134   4.981 -0.0642  2.6299 -0.7641
 1149SOL     OW 3766   5.178   3.217   4.109  0.0775 -0.0054 -0.2464
 1149SOL    HW1 3767   5.211   3.285   4.044  2.3078 -0.7042  0.0751
 1149SOL    HW2 3768   5.153   3.262   4.195  1.5960  0.4368 -0.0096
 1150SOL     OW 3769   2.795   5.325   5.145 -0.1878 -0.1605 -0.3219
 1150SOL    HW1 3770   2.850   5.253   5.188  0.4823  0.7799  0.4320
 1150SOL    HW2 3771   2.855   5.398   5.112 -1.0119  1.3265  1.3365
 1151SOL     OW 3772   2.532   3.045   4.153  0.4127 -0.7681  0.5409
 1151SOL    HW1 3773   2.601   2.987   4.196  1.1375 -1.2183 -1.1472
 1151SOL    HW2 3774   2.530   3.134   4.200  2.2861 -0.6734  0.5119
 1152SOL     OW 3775   1.316   1.173   4.336 -0.7236 -0.0414 -0.0332
 1152SOL    HW1 3776   1.409   1.158   4.371  0.4646  0.3220 -2.6982
 1152SOL    HW2 3777   1.295   1.271   4.338 -0.8944 -0.0830  0.2147
 1153SOL     OW 3778   4.389   2.042   1.809 -0.2149  0.0294  0.0081
 1153SOL    HW1 3779   4.459   2.011   1.873  0.3693  0.3594 -0.4534
 1153SOL    HW2 3780   4.299   2.015   1.842  0.1753 -0.9803  0.2852
 1154SOL     OW 3781   1.159   1.985   3.055 -0.9659 -0.2459 -0.2537
 1154SOL    HW1 3782   1.102   1.910   3.020  0.8335 -1.3516 -0.9620
 1154SOL    HW2 3783   1.254   1.969   3.028 -0.1136  0.9220  1.8776
 1155SOL     OW 3784   0.152   2.767   4.528 -0.0259  0.0131 -0.2623
 1155SOL    HW1 3785   0.208   2.689   4.500 -1.5918 -0.3951 -2.5122
 1155SOL    HW2 3786   0.142   2.830   4.451  0.6156  2.1263  1.2967
 1156SOL     OW 3787   0.254   3.298   5.197 -0.2478 -0.4528 -0.0976
 1156SOL    HW1 3788   0.171   3.337   5.238  0.2734  0.6163 -0.0380
 1156SOL    HW2 3789   0.293   3.231   5.260  1.1021  1.8918  1.6979
 1157SOL     OW 3790   0.013   3.161   4.370 -0.4788  0.2573 -0.1845
 1157SOL    HW1 3791  -0.010   3.067   4.345  0.8224 -0.0326 -0.3447
 1157SOL    HW2 3792   0.029   3.166   4.469 -1.2379  0.4669 -0.0669
 1158SOL     OW 3793   0.939   4.166   4.688 -0.1060 -0.5926 -0.1990
 1158SOL    HW1 3794   0.966   4.188   4.782 -2.6813 -0.0988  0.5189
 1158SOL    HW2 3795   0.935   4.067   4.677  3.4291 -0.7704 -0.8869
 1159SOL     OW 3796   1.502   3.014   4.104 -0.2793 -0.1538  0.2037
 1159SOL    HW1 3797   1.464   3.104   4.081 -3.0649 -1.6610 -1.6516
 1159SOL    HW2 3798   1.427   2.950   4.122  1.6228 -2.1967  1.3017
 1160SOL     OW 3799   0.469   2.299   3.239 -0.0132 -0.2894 -0.7336
 1160SOL    HW1 3800   0.524   2.289   3.155  0.7265 -0.2930 -0.2623
 1160SOL    HW2 3801   0.470   2.395   3.267  0.5037 -0.4343 -0.2353
 1161SOL     OW 3802   1.487   1.452   5.039  0.4139 -0.0404 -0.5180
 1161SOL    HW1 3803   1.503   1.384   4.967  0.5319 -1.1485  0.5195
 1161SOL    HW2 3804   1.571   1.503   5.055  0.9455 -1.0684  0.0941
 1162SOL     OW 3805   4.388   1.726   2.903 -0.2860 -0.0929 -0.0263
 1162SOL    HW1 3806   4.347   1.717   2.812 -2.1509 -1.1404  0.8449
 1162SOL    HW2 3807   4.369   1.817   2.939 -2.3645 -0.6932  0.5330
 1163SOL     OW 3808   5.503   2.708   4.911  0.5147  0.5607  0.0275
 1163SOL    HW1 3809   5.411   2.701   4.949  1.3406 -0.7567  1.9418
 1163SOL    HW2 3810   5.518   2.633   4.845  0.9032 -0.6033  1.3867
 1164SOL     OW 3811   2.053   2.287   5.008  0.3882 -0.0445 -0.0950
 1164SOL    HW1 3812   1.988   2.211   5.010 -0.2782  0.4818 -1.1425
 1164SOL    HW2 3813   2.047   2.334   4.920  0.1943  1.7368  0.8168
 1165SOL     OW 3814   5.194   2.063   3.342  0.0753 -0.1364  0.6296
 1165SOL    HW1 3815   5.271   2.108   3.296 -0.1796 -0.5268 -0.2130
 1165SOL    HW2 3816   5.113   2.122   3.336 -0.3593 -0.8187 -0.8118
 1166SOL     OW 3817   2.029   3.813   5.127 -0.3102  0.3850  0.4836
 1166SOL    HW1 3818   2.080   3.728   5.135  0.6292  0.8584 -0.3474
 1166SOL    HW2 3819   1.931   3.794   5.137 -0.0325 -0.6127  1.4886
 1167SOL     OW 3820   1.361   1.940   4.354 -0.3667  0.2265 -0.0091
 1167SOL    HW1 3821   1.430   2.013   4.359  0.2786 -0.0892 -2.6965
 1167SOL    HW2 3822   1.276   1.972   4.394  0.5041  1.6752  0.7810
 1168SOL     OW 3823   1.118   4.693   4.206 -0.2297 -0.2026 -0.0214
 1168SOL    HW1 3824   1.212   4.718   4.229 -1.0897  0.8795  2.7757
 1168SOL    HW2 3825   1.070   4.665   4.289 -2.7814  0.6328 -1.1214
 1169SOL     OW 3826   1.795   5.450   3.331  0.3251  0.1157  0.5944
 1169SOL    HW1 3827   1.736   5.436   3.251  1.3576  1.6855 -0.4860
 1169SOL    HW2 3828   1.844   5.366   3.351 -0.6119 -0.5585  0.1495
 1170SOL     OW 3829   1.527   3.580   5.333 -0.1890  0.3263  0.2413
 1170SOL    HW1 3830   1.491   3.554   5.243 -0.1933  1.8926 -0.2331
 1170SOL    HW2 3831   1.465   3.644   5.377  0.3434  0.3980  0.9055
 1171SOL     OW 3832   2.300   5.506   4.594  0.2558  0.1511  0.6633
 1171SOL    HW1 3833   2.255   5.447   4.661  1.6847 -1.8401 -0.0142
 1171SOL    HW2 3834   2.256   5.595   4.592 -1.6082 -0.6763  2.2013
 1172SOL     OW 3835   1.009   3.240   3.989 -0.4259 -0.5949 -0.0365
 1172SOL    HW1 3836   0.985   3.335   3.968  1.5559 -0.3906 -1.7308
 1172SOL    HW2 3837   1.100   3.238   4.031  0.2934 -1.8380 -1.5871
 1173SOL     OW 3838   1.863   2.513   5.169  0.0846  0.4754 -0.0766
 1173SOL    HW1 3839   1.811   2.571   5.232 -2.8682  1.1397 -2.8337
 1173SOL    HW2 3840   1.837   2.418   5.182  0.2353  0.4845  0.3200
 1174SOL     OW 3841   1.615   2.347   4.966 -0.1214  0.2246  0.6796
 1174SOL    HW1 3842   1.610   2.411   5.043  0.4865 -0.2305  1.1143
 1174SOL    HW2 3843   1.674   2.385   4.895  1.5202 -0.4718  1.5911
 1175SOL     OW 3844   3.469   4.383   0.813  0.0464  0.2467 -0.1425
 1175SOL    HW1 3845   3.453   4.460   0.752 -0.3241  0.5846  0.3714
 1175SOL    HW2 3846   3.553   4.399   0.865 -0.6661  0.8867  0.8384
 1176SOL     OW 3847   0.293   4.271   3.918  0.2930 -0.0246 -0.0098
 1176SOL    HW1 3848   0.307   4.172   3.919  1.3925  0.0952  1.6246
 1176SOL    HW2 3849   0.351   4.313   3.989 -1.2402  1.6324  0.3361
 1177SOL     OW 3850   2.085   3.168   5.068 -0.5146 -0.3186 -0.5623
 1177SOL    HW1 3851   2.177   3.193   5.097 -0.6083 -0.6783  0.0662
 1177SOL    HW2 3852   2.053   3.233   4.999 -0.9123  1.5222  1.2848
 1178SOL     OW 3853   1.422   1.774   0.623 -0.0363  0.0298 -0.7066
 1178SOL    HW1 3854   1.520   1.754   0.613  0.3053  0.8358  0.7431
 1178SOL    HW2 3855   1.388   1.732   0.707 -0.8072  0.2691 -0.8916
 1179SOL     OW 3856   2.206   4.015   4.666  0.0472 -0.3536 -0.5042
 1179SOL    HW1 3857   2.169   3.932   4.624 -1.5966  0.0674  0.0218
 1179SOL    HW2 3858   2.148   4.093   4.641  0.5810  0.3398  0.3906
 1180SOL     OW 3859   4.725   2.603   2.222  0.2600 -0.2954 -0.1522
 1180SOL    HW1 3860   4.776   2.583   2.305 -0.1237  0.1220  0.1858
 1180SOL    HW2 3861   4.628   2.613   2.243  0.3907  1.6599 -0.3393
 1181SOL     OW 3862   0.485   2.518   3.859 -0.4888  0.1766 -0.0617
 1181SOL    HW1 3863   0.479   2.422   3.831  0.1750  0.1797 -0.2369
 1181SOL    HW2 3864   0.498   2.523   3.958 -0.1063  0.0643 -0.1026
 1182SOL     OW 3865   1.446   2.487   4.275  0.3086  0.2147 -0.0720
 1182SOL    HW1 3866   1.404   2.578   4.264  1.1560  0.5413 -0.7141
 1182SOL    HW2 3867   1.470   2.473   4.372 -1.0460  0.1132  0.2634
 1183SOL     OW 3868   3.042   5.298   5.356 -0.4179 -0.4553 -0.1208
 1183SOL    HW1 3869   3.128   5.278   5.402 -1.1135  0.7099  1.7928
 1183SOL    HW2 3870   2.990   5.214   5.342 -0.3394 -0.8123  1.5972
 1184SOL     OW 3871   1.093   3.966   4.063 -0.9678  0.5293 -0.7180
 1184SOL    HW1 3872   1.181   4.013   4.059 -0.7592  0.0855 -1.5551
 1184SOL    HW2 3873   1.096   3.896   4.134 -1.1528  1.4992  0.2736
 1185SOL     OW 3874   1.084   1.325   4.592 -0.3305 -0.3091 -0.6422
 1185SOL    HW1 3875   1.114   1.409   4.548  0.9648  0.8475  2.1800
 1185SOL    HW2 3876   0.986   1.329   4.610 -0.0750  1.3045  0.6777
 1186SOL     OW 3877   1.224   3.190   4.166  0.2867 -0.2450 -0.4926
 1186SOL    HW1 3878   1.305   3.246   4.176  0.3376 -0.5349  1.0148
 1186SOL    HW2 3879   1.238   3.102   4.213  0.0170 -1.3236 -2.3449
 1187SOL     OW 3880   2.031   5.310   5.283  0.2889 -0.4804 -0.7351
 1187SOL    HW1 3881   2.094   5.280   5.212  1.3883  0.5757 -0.2248
 1187SOL    HW2 3882   2.066   5.284   5.372  0.4975  0.9143 -0.3842
 1188SOL     OW 3883   2.076   2.017   4.842 -0.3623 -0.5077 -0.6806
 1188SOL    HW1 3884   2.141   2.053   4.775 -0.1891 -2.7510 -1.8409
 1188SOL    HW2 3885   2.114   1.934   4.883 -0.6430  0.6008  1.9694
 1189SOL     OW 3886   1.686   2.028   5.421  0.0577 -0.4324  0.0096
 1189SOL    HW1 3887   1.697   2.040   5.322  0.3290  1.3195  0.2166
 1189SOL    HW2 3888   1.768   1.985   5.459  0.2912 -0.3761 -0.4268
 1190SOL     OW 3889   1.627   2.643   5.017  0.0323  0.4072 -0.3348
 1190SOL    HW1 3890   1.604   2.736   5.044 -1.3483  0.2017 -0.7282
 1190SOL    HW2 3891   1.710   2.644   4.960 -0.0749  1.4149 -0.4860
 1191SOL     OW 3892   1.806   0.827   4.720 -0.3612 -0.0990  0.6762
 1191SOL    HW1 3893   1.906   0.827   4.724 -0.3495 -0.9047  0.4943
 1191SOL    HW2 3894   1.770   0.772   4.794 -0.6000 -1.5123 -0.4508
 1192SOL     OW 3895   5.483   2.591   0.653 -0.3997  0.9969  0.6990
 1192SOL    HW1 3896   5.460   2.669   0.711 -1.3443  0.1722  1.4698
 1192SOL    HW2 3897   5.530   2.521   0.706 -0.2059  0.7359  0.1940
 1193SOL     OW 3898   1.761   1.085   3.692 -0.0255  0.1778 -0.2058
 1193SOL    HW1 3899   1.837   1.024   3.715 -0.2276  0.3873  1.0641
 1193SOL    HW2 3900   1.795   1.161   3.636  0.8201  0.5892  0.8408
 1194SOL     OW 3901   0.881   0.007   5.313 -0.0480 -0.3503  0.0416
 1194SOL    HW1 3902   0.841  -0.060   5.377 -0.0733 -0.6691 -0.3055
 1194SOL    HW2 3903   0.882   0.097   5.356 -1.8769 -0.1661 -0.2128
 1195SOL     OW 3904   1.476   2.467   3.857 -0.0608 -0.0834  0.2968
 1195SOL    HW1 3905   1.537   2.391   3.832  1.0443  1.0747 -0.7244
 1195SOL    HW2 3906   1.531   2.544   3.890 -0.7541  1.6059 -2.2099
 1196SOL     OW 3907   4.634   1.150   4.561 -0.4092  0.1326 -0.7661
 1196SOL    HW1 3908   4.552   1.130   4.508 -0.0794 -0.8853 -0.9015
 1196SOL    HW2 3909   4.667   1.242   4.538 -1.2190  0.3538 -1.0702
 1197SOL     OW 3910   0.569   1.211  -0.012 -0.1570 -0.4355  0.1383
 1197SOL    HW1 3911   0.574   1.217   0.088  0.0890  0.6153  0.0704
 1197SOL    HW2 3912   0.474   1.223  -0.041 -0.4303 -1.9356  0.2963
 1198SOL     OW 3913   1.978   1.661   5.025 -0.6300 -0.1127 -0.0183
 1198SOL    HW1 3914   1.901   1.714   4.989 -0.6955 -1.4475 -2.0021
 1198SOL    HW2 3915   2.052   1.661   4.959  0.2127 -0.6938  0.9017
 1199SOL     OW 3916   0.295   2.891   4.979  0.6200 -0.0475  0.1515
 1199SOL    HW1 3917   0.297   2.791   4.981  0.1944 -0.0515  0.4176
 1199SOL    HW2 3918   0.340   2.926   5.061  1.7488 -0.0046 -0.4691
 1200SOL     OW 3919   0.958   0.917   4.792 -0.3290 -0.1891 -0.1194
 1200SOL    HW1 3920   0.964   0.869   4.880 -2.0848 -1.4736 -0.6429
 1200SOL    HW2 3921   0.862   0.939   4.772  0.3225  3.0631 -0.2249
 1201SOL     OW 3922   2.488   1.289   4.343 -0.1638 -0.0286 -0.3633
 1201SOL    HW1 3923   2.551   1.340   4.285  3.6173 -1.4072  2.1359
 1201SOL    HW2 3924   2.454   1.349   4.416  0.4634  0.1172 -0.1811
 1202SOL     OW 3925   5.395   1.600   3.430 -0.4026  0.0616  0.4975
 1202SOL    HW1 3926   5.368   1.507   3.404  0.4217 -0.0249 -0.0886
 1202SOL    HW2 3927   5.368   1.663   3.357 -0.0703  0.1363  0.4389
 1203SOL     OW 3928   1.041   3.482   4.549 -0.0106  0.7207  0.1305
 1203SOL    HW1 3929   1.038   3.412   4.478  1.1834  1.1988 -0.4274
 1203SOL    HW2 3930   1.117   3.545   4.531  1.1184  0.1649  2.4682
 1204SOL     OW 3931   3.341   2.957   4.769 -0.5291 -0.2248 -0.1544
 1204SOL    HW1 3932   3.332   3.019   4.847  0.2224 -1.6183  1.1114
 1204SOL    HW2 3933   3.360   2.864   4.803  0.7116 -0.7148 -2.0361
 1205SOL     OW 3934   0.167   3.410   4.636  0.1965  0.2262 -0.5012
 1205SOL    HW1 3935   0.080   3.376   4.601 -1.6766  0.6208  3.2533
 1205SOL    HW2 3936   0.238   3.343   4.619 -1.3241 -1.2070 -1.5793
 1206SOL     OW 3937   1.856   0.314   3.253 -0.2944 -0.2918 -0.1852
 1206SOL    HW1 3938   1.768   0.308   3.300  0.3386 -0.0170  1.0779
 1206SOL    HW2 3939   1.878   0.409   3.233  0.6011 -0.1494  1.3046
 1207SOL     OW 3940   1.864   1.730   2.037 -0.1238 -0.1351  0.5668
 1207SOL    HW1 3941   1.782   1.680   2.061 -0.7655  1.1489  1.1443
 1207SOL    HW2 3942   1.849   1.828   2.051  0.7082  0.3582 -1.5735
 1208SOL     OW 3943   1.497   4.112   4.318 -0.2213 -0.4483  0.4070
 1208SOL    HW1 3944   1.432   4.066   4.379 -0.7735 -2.0373 -1.3045
 1208SOL    HW2 3945   1.537   4.190   4.366 -4.0295  1.2164  1.2675
 1209SOL     OW 3946   1.689   0.950   3.917 -0.0327  0.0397 -0.7910
 1209SOL    HW1 3947   1.719   1.022   3.854 -1.5469  0.1873 -1.3763
 1209SOL    HW2 3948   1.685   0.863   3.868  0.3093 -0.1548 -0.4772
 1210SOL     OW 3949   1.669   1.460   0.056  0.0545  0.0593  0.3600
 1210SOL    HW1 3950   1.758   1.486   0.019 -1.3122  1.5609 -2.1738
 1210SOL    HW2 3951   1.615   1.543   0.074 -2.6633 -0.6841 -3.2284
 1211SOL     OW 3952   2.171   5.513   0.067 -0.5128  0.2414 -0.1834
 1211SOL    HW1 3953   2.265   5.540   0.086 -1.1009  2.4178 -0.0409
 1211SOL    HW2 3954   2.134   5.571  -0.006 -2.0679  0.1437  0.4868
 1212SOL     OW 3955   2.003   1.044   4.525  0.6117 -0.2535 -0.6515
 1212SOL    HW1 3956   1.960   1.115   4.579 -0.0339  0.0259 -1.5018
 1212SOL    HW2 3957   2.047   0.977   4.585  0.8108  0.5931  0.1651
 1213SOL     OW 3958   5.500   1.316   3.663 -0.0827 -1.0440  0.2178
 1213SOL    HW1 3959   5.530   1.411   3.666  1.8232 -1.6440  2.3619
 1213SOL    HW2 3960   5.457   1.298   3.574  0.3724  1.5333 -0.6083
 1214SOL     OW 3961   1.640   2.071   4.749  0.1885  0.2088 -0.1481
 1214SOL    HW1 3962   1.654   2.165   4.717  0.4431 -0.4497 -2.0956
 1214SOL    HW2 3963   1.701   2.009   4.700  2.8746 -0.6295  3.7860
 1215SOL     OW 3964   0.084   4.129   3.786  0.4864 -0.1938  0.0242
 1215SOL    HW1 3965   0.144   4.168   3.856  0.3884  0.6663 -0.3597
 1215SOL    HW2 3966   0.035   4.203   3.739 -1.1189 -0.8762  0.5413
 1216SOL     OW 3967   1.018   1.671   3.738  0.4702 -0.0526 -0.7380
 1216SOL    HW1 3968   0.999   1.748   3.677  1.7452  1.2830  0.4559
 1216SOL    HW2 3969   1.052   1.706   3.825  1.8556 -2.0022 -0.4359
 1217SOL     OW 3970   2.633   3.035   4.640  0.0404  0.1434  0.2024
 1217SOL    HW1 3971   2.582   3.112   4.602  0.4018 -0.1801 -0.9828
 1217SOL    HW2 3972   2.586   3.000   4.721 -1.7287 -0.2442 -0.9411
 1218SOL     OW 3973   2.030   2.927   4.934 -0.0671 -0.1153 -0.4182
 1218SOL    HW1 3974   2.033   3.012   4.988  0.6521 -0.5151  0.1764
 1218SOL    HW2 3975   1.951   2.931   4.872  0.2080  1.1887 -0.7355
 1219SOL     OW 3976   1.564   2.699   3.943 -0.1983 -0.0038  0.0791
 1219SOL    HW1 3977   1.656   2.730   3.968  0.2256 -1.4637  0.4489
 1219SOL    HW2 3978   1.498   2.733   4.011  0.5860 -1.7748  1.8383
 1220SOL     OW 3979   2.697   3.405   3.919  0.0184 -0.8788  0.1173
 1220SOL    HW1 3980   2.701   3.316   3.964  0.9195  0.3747  2.7724
 1220SOL    HW2 3981   2.612   3.451   3.944 -0.4911 -1.0050 -1.3255
 1221SOL     OW 3982   1.558   2.901   4.654 -0.0784 -0.3840 -0.2243
 1221SOL    HW1 3983   1.654   2.926   4.643 -0.3234  0.0832 -1.3505
 1221SOL    HW2 3984   1.549   2.801   4.651  0.4081 -0.4548  0.3253
 1222SOL     OW 3985   1.677   4.250   3.516  0.0921  0.3767  0.3906
 1222SOL    HW1 3986   1.722   4.280   3.432 -1.0477  2.8346  0.5804
 1222SOL    HW2 3987   1.747   4.228   3.585  1.0272  1.3474 -0.2125
 1223SOL     OW 3988   2.054   0.508   0.777  0.6343  0.1540 -0.2467
 1223SOL    HW1 3989   2.004   0.557   0.705 -0.1832  0.8224  0.7545
 1223SOL    HW2 3990   2.040   0.410   0.766 -0.6901  0.3148 -0.1562
 1224SOL     OW 3991   0.778   5.482   0.106  0.4708  0.0513  0.4843
 1224SOL    HW1 3992   0.842   5.427   0.160  0.2933 -1.9978 -1.2401
 1224SOL    HW2 3993   0.684   5.461   0.134  0.3770 -1.0475 -0.5835
 1225SOL     OW 3994   0.558   3.239   4.181  0.0657 -1.0117 -0.6697
 1225SOL    HW1 3995   0.479   3.187   4.150  0.8763 -3.0535  0.5160
 1225SOL    HW2 3996   0.642   3.190   4.157  0.9309  0.2302 -0.3214
 1226SOL     OW 3997   0.739   2.192   0.604 -0.1362 -0.0083 -0.0658
 1226SOL    HW1 3998   0.741   2.225   0.510 -0.7403 -0.1174 -0.1176
 1226SOL    HW2 3999   0.698   2.101   0.607  0.2358 -0.1729  0.2564
 1227SOL     OW 4000   2.350   3.436   0.330  0.8454  0.8175  0.4094
 1227SOL    HW1 4001   2.308   3.526   0.313 -1.4373 -0.0120  1.2864
 1227SOL    HW2 4002   2.386   3.433   0.423  0.3781  0.6234  0.5835
 1228SOL     OW 4003   1.049   3.009   3.841  0.2582 -0.4039 -0.5069
 1228SOL    HW1 4004   1.023   3.081   3.905 -1.0914 -0.7033 -0.6786
 1228SOL    HW2 4005   1.058   3.048   3.749  0.2202 -0.3260 -0.4782
 1229SOL     OW 4006   0.727   2.121   0.100  0.1021  0.1153  0.1994
 1229SOL    HW1 4007   0.717   2.021   0.095  1.5947 -0.0380 -0.1749
 1229SOL    HW2 4008   0.675   2.163   0.026  1.1487 -0.5395 -0.9428
 1230SOL     OW 4009   1.055   4.607   4.460 -0.3564 -0.0256 -0.1842
 1230SOL    HW1 4010   1.135   4.549   4.474  1.3497  2.1329 -0.3189
 1230SOL    HW2 4011   0.973   4.561   4.493  0.9507 -2.2774  0.0709
 1231SOL     OW 4012   0.574   3.478   4.067 -0.6703 -0.3198  0.3814
 1231SOL    HW1 4013   0.486   3.521   4.090 -0.1459  0.3935  1.1238
 1231SOL    HW2 4014   0.576   3.386   4.104 -0.6716  0.0660  1.3808
 1232SOL     OW 4015   1.401   3.615   0.054  0.1835 -0.2905 -0.2314
 1232SOL    HW1 4016   1.330   3.613   0.124 -0.1042 -0.8142 -0.5348
 1232SOL    HW2 4017   1.400   3.529   0.003 -0.2931  0.4718 -1.5576
 1233SOL     OW 4018   0.154   1.110   3.520  0.2366 -0.0855 -0.1373
 1233SOL    HW1 4019   0.075   1.116   3.582  0.9722 -3.5459  1.3695
 1233SOL    HW2 4020   0.192   1.201   3.505 -2.8201  1.4436  0.6633
 1234SOL     OW 4021   0.385   4.009   5.196  0.8065  0.1933 -0.1900
 1234SOL    HW1 4022   0.349   4.088   5.146  1.3843  0.1405 -0.7088
 1234SOL    HW2 4023   0.390   3.930   5.134  0.1600 -0.2746  0.3449
 1235SOL     OW 4024   4.602   3.791   0.386 -0.5837 -0.0840  0.2465
 1235SOL    HW1 4025   4.524   3.809   0.327  0.4420  0.4690 -0.9799
 1235SOL    HW2 4026   4.677   3.751   0.332  0.2846  0.1795  1.2169
 1236SOL     OW 4027   0.616   2.921   5.044  0.2948  0.4464 -0.2531
 1236SOL    HW1 4028   0.675   3.001   5.053  0.0886  0.4541  1.2424
 1236SOL    HW2 4029   0.540   2.928   5.109 -0.6993 -0.1291 -1.3221
 1237SOL     OW 4030   2.963   2.898   4.963 -0.3667  0.1192  0.3841
 1237SOL    HW1 4031   2.899   2.835   4.918  0.9689 -0.7373 -0.3747
 1237SOL    HW2 4032   2.969   2.983   4.910 -0.5401  0.0285  0.2169
 1238SOL     OW 4033   1.357   4.001   3.189  0.7579 -0.5141 -0.0492
 1238SOL    HW1 4034   1.277   3.965   3.236  0.2424  0.1667 -0.3810
 1238SOL    HW2 4035   1.438   3.988   3.246  0.1714  0.1857  0.9745
 1239SOL     OW 4036   2.704   2.502   5.376  0.1737 -0.0359  0.6196
 1239SOL    HW1 4037   2.657   2.560   5.443  2.7334  2.4447  0.4248
 1239SOL    HW2 4038   2.681   2.533   5.284  0.0072 -0.6427  0.4556
 1240SOL     OW 4039   1.108   2.495   3.727  0.1081  0.0253  0.3668
 1240SOL    HW1 4040   1.170   2.535   3.794  1.9252  0.1944 -1.3088
 1240SOL    HW2 4041   1.093   2.560   3.652  0.5955 -1.2250 -0.8607
 1241SOL     OW 4042   0.657   3.297   3.492  0.0752  0.4035 -0.1388
 1241SOL    HW1 4043   0.676   3.391   3.462  3.4946 -0.0209  0.2930
 1241SOL    HW2 4044   0.649   3.295   3.592 -0.4276  0.2662 -0.1783
 1242SOL     OW 4045   1.567   4.015   3.367  0.0349 -0.1888  0.3708
 1242SOL    HW1 4046   1.578   4.101   3.418 -0.7378  1.4994 -2.1097
 1242SOL    HW2 4047   1.638   4.010   3.297 -0.5423 -1.0968 -0.1566
 1243SOL     OW 4048   3.289   3.856   4.356  0.0782  0.1259  0.1034
 1243SOL    HW1 4049   3.218   3.787   4.372 -0.8931  0.4715 -2.2023
 1243SOL    HW2 4050   3.272   3.936   4.414 -0.2814 -0.5502  0.9545
 1244SOL     OW 4051   2.514   3.820   5.129  0.0663 -0.5714 -0.6940
 1244SOL    HW1 4052   2.473   3.732   5.150  1.6343 -1.1747 -0.0539
 1244SOL    HW2 4053   2.548   3.863   5.213 -0.0551  0.3221 -1.0867
 1245SOL     OW 4054   1.710   2.042   3.729  0.0618 -0.1054  0.5799
 1245SOL    HW1 4055   1.752   1.988   3.656 -0.0699 -0.4039  0.7246
 1245SOL    HW2 4056   1.627   1.997   3.761 -0.9792  1.0123 -0.4390
 1246SOL     OW 4057   3.000   3.939   0.367  0.7942 -0.7129 -0.0520
 1246SOL    HW1 4058   2.919   3.986   0.333  0.6040 -0.1446  1.1308
 1246SOL    HW2 4059   3.068   3.931   0.293  0.4578  0.5883 -0.5211
 1247SOL     OW 4060   1.925   1.494   5.519 -0.3175  0.3146  0.0056
 1247SOL    HW1 4061   1.975   1.540   5.446  0.4214  2.5440  1.8084
 1247SOL    HW2 4062   1.990   1.457   5.586 -1.0098 -0.9022  0.0391
 1248SOL     OW 4063   1.681   5.031   3.604  0.3460  0.1210  0.6896
 1248SOL    HW1 4064   1.667   5.037   3.505  0.5895 -0.7082  0.5929
 1248SOL    HW2 4065   1.611   5.085   3.651 -1.3784 -1.5226  0.1336
 1249SOL     OW 4066   0.824   1.747   1.487 -0.3851 -0.2684  0.6276
 1249SOL    HW1 4067   0.893   1.703   1.545  0.4000 -0.6967 -0.6033
 1249SOL    HW2 4068   0.857   1.750   1.392 -0.4031  2.9025  0.5952
 1250SOL     OW 4069   5.275   1.897   0.742  0.1972  0.2120 -0.2504
 1250SOL    HW1 4070   5.301   1.912   0.646 -1.0118  0.8691 -0.4975
 1250SOL    HW2 4071   5.275   1.984   0.791  2.9317 -0.3744  0.9561
 1251SOL     OW 4072   3.193   2.189   5.256 -0.0930  0.1580  0.3271
 1251SOL    HW1 4073   3.239   2.273   5.286 -1.3080  0.5486  1.1701
 1251SOL    HW2 4074   3.164   2.199   5.161  1.4244 -0.0492 -0.1742
 1252SOL     OW 4075   0.953   4.188   4.078 -0.3202  0.1173  0.3756
 1252SOL    HW1 4076   0.988   4.094   4.078 -1.6022 -0.3819  0.5917
 1252SOL    HW2 4077   0.987   4.236   3.997  0.1705 -0.6025  0.1396
 1253SOL     OW 4078   2.960   3.476   5.324 -0.1235  0.1983  0.0096
 1253SOL    HW1 4079   3.053   3.447   5.348  0.0249  0.4057 -0.2975
 1253SOL    HW2 4080   2.965   3.559   5.268 -0.5856  2.7239  3.4026
 1254SOL     OW 4081   4.493   0.756   4.366 -0.5692 -0.2486  0.7735
 1254SOL    HW1 4082   4.589   0.782   4.350 -0.3212 -1.1164  0.7925
 1254SOL    HW2 4083   4.484   0.716   4.457 -0.8168 -0.7804  0.5207
 1255SOL     OW 4084   0.981   2.198   1.386  0.3046  0.7348 -0.0986
 1255SOL    HW1 4085   1.033   2.279   1.409  0.2317  0.6216  0.4806
 1255SOL    HW2 4086   1.035   2.116   1.405  0.4656  0.6410 -0.8945
 1256SOL     OW 4087   2.267   1.259   5.218  0.6199  0.1765  0.5572
 1256SOL    HW1 4088   2.339   1.192   5.239  0.6623  0.1878  0.4454
 1256SOL    HW2 4089   2.197   1.215   5.163  1.3838  0.6165 -0.8138
 1257SOL     OW 4090   1.147   1.984   2.385 -0.1738 -0.7133  0.2077
 1257SOL    HW1 4091   1.169   2.047   2.459 -0.4982  0.5396 -0.7419
 1257SOL    HW2 4092   1.098   2.032   2.313 -1.1854 -2.2371 -0.1805
 1258SOL     OW 4093   1.625   4.229   5.278  0.6069  0.2675 -0.1555
 1258SOL    HW1 4094   1.653   4.286   5.201  2.8076  0.6423  0.8583
 1258SOL    HW2 4095   1.526   4.236   5.290  0.4608  1.6282 -1.7928
 1259SOL     OW 4096   1.636   0.951   4.175 -0.0904  0.0243  0.6338
 1259SOL    HW1 4097   1.666   0.952   4.080 -0.0625  1.1861  0.6365
 1259SOL    HW2 4098   1.702   0.900   4.231  0.0014 -0.4791  0.0773
 1260SOL     OW 4099   0.635   4.239   3.871 -0.0266  0.5042 -0.3880
 1260SOL    HW1 4100   0.648   4.156   3.925  1.7756 -1.0390 -2.9924
 1260SOL    HW2 4101   0.697   4.310   3.903  0.1411  0.0414  0.3243
 1261SOL     OW 4102   0.446   1.526  -0.025 -0.5120  0.5651  0.6092
 1261SOL    HW1 4103   0.359   1.574  -0.009 -1.0584 -0.5933  1.2093
 1261SOL    HW2 4104   0.482   1.493   0.062 -0.4694 -0.6444  0.1408
 1262SOL     OW 4105   0.931   0.857   0.552  0.5711  0.0770 -0.3203
 1262SOL    HW1 4106   0.866   0.783   0.569 -0.1078  0.9033  0.8550
 1262SOL    HW2 4107   0.937   0.875   0.454 -0.8683 -0.1257 -0.4658
 1263SOL     OW 4108   0.882   3.206   0.046  0.3654  0.2672  0.0012
 1263SOL    HW1 4109   0.923   3.117   0.022 -1.3712 -0.3751 -0.7439
 1263SOL    HW2 4110   0.943   3.254   0.109  2.9338 -0.0123 -2.0527
 1264SOL     OW 4111   2.240   3.405   4.601 -0.1627 -0.1801 -0.2787
 1264SOL    HW1 4112   2.334   3.406   4.634 -0.6771 -0.0126  1.2717
 1264SOL    HW2 4113   2.203   3.312   4.610  0.2721 -0.5787 -2.2226
 1265SOL     OW 4114   0.654   3.727   4.030  0.1885  0.2393 -0.0165
 1265SOL    HW1 4115   0.705   3.740   3.945 -0.0485 -0.5007 -0.2804
 1265SOL    HW2 4116   0.619   3.633   4.034 -2.3602  1.1036 -0.5047
 1266SOL     OW 4117   1.878   3.097   5.240  0.0257  0.4200 -0.2193
 1266SOL    HW1 4118   1.930   3.112   5.324 -1.1249  0.9321  0.4207
 1266SOL    HW2 4119   1.934   3.123   5.161  0.8547  0.6391  0.4274
 1267SOL     OW 4120   4.127   1.963   5.308  0.2219 -0.2548  0.3324
 1267SOL    HW1 4121   4.044   1.938   5.258 -0.0641  0.3167  0.5076
 1267SOL    HW2 4122   4.174   1.880   5.338  0.5141 -0.6195 -1.0594
 1268SOL     OW 4123   1.821   2.427   3.753 -0.1144 -0.4792 -0.3912
 1268SOL    HW1 4124   1.762   2.360   3.797  0.0733 -1.1108 -1.0785
 1268SOL    HW2 4125   1.781   2.454   3.665  0.2286 -0.3264 -0.5015
 1269SOL     OW 4126   1.251   1.552   3.632 -0.7015 -0.3215 -0.1104
 1269SOL    HW1 4127   1.166   1.586   3.672 -0.2611 -0.4956  1.0125
 1269SOL    HW2 4128   1.284   1.474   3.686  0.4345  0.0684 -0.2192
 1270SOL     OW 4129   5.198   2.012   3.619  0.2341 -0.5895  0.1447
 1270SOL    HW1 4130   5.181   2.011   3.520  1.0022 -0.2191  0.0034
 1270SOL    HW2 4131   5.140   1.944   3.663 -1.2587  0.3039 -0.3676
 1271SOL     OW 4132   1.152   2.899   3.413  0.2784  0.3393  0.2331
 1271SOL    HW1 4133   1.104   2.963   3.474  0.6859  0.5662  0.3184
 1271SOL    HW2 4134   1.182   2.947   3.331  0.1103  0.1325  0.0518
 1272SOL     OW 4135   1.555   2.087   2.462 -0.0052 -0.6528 -0.5581
 1272SOL    HW1 4136   1.512   2.177   2.465  0.3737 -0.4862  0.3829
 1272SOL    HW2 4137   1.618   2.078   2.539 -0.4039 -1.9042 -0.3528
 1273SOL     OW 4138   1.643   3.142   4.499 -0.1606 -0.0624  0.1897
 1273SOL    HW1 4139   1.549   3.108   4.506 -0.9330  1.8496 -0.2400
 1273SOL    HW2 4140   1.665   3.158   4.403  1.1203 -1.7413  0.1621
 1274SOL     OW 4141   1.218   2.758   4.963  0.5918 -0.4386 -0.4040
 1274SOL    HW1 4142   1.245   2.760   4.867 -0.0229  1.0196 -0.5884
 1274SOL    HW2 4143   1.271   2.827   5.013 -0.9349  0.6952 -0.2738
 1275SOL     OW 4144   1.489   2.636   4.577  0.3449 -0.4644  0.4305
 1275SOL    HW1 4145   1.550   2.647   4.499 -1.1683 -0.3743 -0.7894
 1275SOL    HW2 4146   1.474   2.539   4.594 -0.9169 -0.4997 -0.7288
 1276SOL     OW 4147   2.952   1.782   1.034  0.3664  0.4662  0.4488
 1276SOL    HW1 4148   3.043   1.766   1.072  0.0829  0.6549  1.2333
 1276SOL    HW2 4149   2.883   1.760   1.103 -0.2021 -0.0003 -0.2498
 1277SOL     OW 4150   5.323   0.419   3.257 -0.2162  0.5604 -0.0693
 1277SOL    HW1 4151   5.342   0.457   3.348  1.1469  0.5005 -0.3217
 1277SOL    HW2 4152   5.233   0.374   3.259 -0.1478  0.4281  1.2847
 1278SOL     OW 4153   5.105   1.214   4.639 -0.2057 -0.1971 -0.7793
 1278SOL    HW1 4154   5.125   1.311   4.654 -0.0106 -0.2430 -0.7360
 1278SOL    HW2 4155   5.190   1.166   4.617 -0.4010 -0.2460 -1.4338
 1279SOL     OW 4156   0.840   2.866   3.925  0.2974 -0.1376  0.5757
 1279SOL    HW1 4157   0.756   2.911   3.896 -0.3016 -0.3255  1.9358
 1279SOL    HW2 4158   0.919   2.916   3.891 -0.2829  2.8733  3.2248
 1280SOL     OW 4159   0.157   1.223   4.529  0.6083 -0.2677  0.0829
 1280SOL    HW1 4160   0.082   1.195   4.589 -1.4684  1.8456 -1.3420
 1280SOL    HW2 4161   0.238   1.167   4.548 -0.9905 -1.9876  2.3759
 1281SOL     OW 4162   2.073   3.614   4.705  0.2775 -0.6953 -0.2191
 1281SOL    HW1 4163   2.073   3.676   4.627  2.1572  2.3736  1.9933
 1281SOL    HW2 4164   2.133   3.536   4.686  1.8126  0.6895 -1.3688
 1282SOL     OW 4165   1.268   2.782   4.685  0.8075 -0.1384  0.0067
 1282SOL    HW1 4166   1.186   2.759   4.633  1.0038  0.7631 -0.7197
 1282SOL    HW2 4167   1.349   2.745   4.639  0.8671 -0.5897  0.4562
 1283SOL     OW 4168   0.065   2.486   4.249 -0.3230  0.0685  0.4420
 1283SOL    HW1 4169   0.094   2.469   4.155  0.1397 -0.5423  0.6928
 1283SOL    HW2 4170  -0.025   2.531   4.248 -0.5898 -0.4536 -0.2828
 1284SOL     OW 4171   2.526   3.958   3.498 -0.6463  0.4570 -0.0039
 1284SOL    HW1 4172   2.527   3.906   3.413  2.3999  0.6958 -0.2377
 1284SOL    HW2 4173   2.511   4.054   3.478 -0.5961  0.4245 -0.2011
 1285SOL     OW 4174   0.767   2.036   5.307 -0.0057  0.4596  0.2699
 1285SOL    HW1 4175   0.767   1.985   5.221 -0.1100 -0.1555  0.6246
 1285SOL    HW2 4176   0.798   2.129   5.291  1.3209 -0.0427 -0.1983
 1286SOL     OW 4177   0.609   1.554   2.743 -0.2693  0.3565 -1.1312
 1286SOL    HW1 4178   0.703   1.521   2.749  0.3395  1.7988 -2.3588
 1286SOL    HW2 4179   0.604   1.649   2.774 -1.6585 -0.2106  0.5592
 1287SOL     OW 4180   0.702   4.155   4.517  0.8340 -0.4038  0.2881
 1287SOL    HW1 4181   0.647   4.085   4.561  0.2161 -0.4181 -0.4937
 1287SOL    HW2 4182   0.788   4.166   4.568 -0.0783 -0.0201  1.8188
 1288SOL     OW 4183   0.631   2.383   4.560 -0.3726  0.2401 -0.4277
 1288SOL    HW1 4184   0.672   2.399   4.649  0.0568 -0.6653 -0.4566
 1288SOL    HW2 4185   0.642   2.465   4.503  1.0894  0.1476 -0.3144
 1289SOL     OW 4186   1.734   1.330   1.347 -0.5179 -0.2386 -0.5865
 1289SOL    HW1 4187   1.722   1.318   1.446  0.4599  1.1098 -0.2730
 1289SOL    HW2 4188   1.645   1.348   1.305 -0.9917 -1.1622 -0.0234
 1290SOL     OW 4189   0.575   3.758   4.294 -0.7118 -0.2507  0.2716
 1290SOL    HW1 4190   0.506   3.686   4.288 -0.2453 -0.6099 -1.6371
 1290SOL    HW2 4191   0.615   3.772   4.203  0.9813  0.6768  1.1222
 1291SOL     OW 4192   0.160   5.216   2.351  0.1446  0.3208  0.4399
 1291SOL    HW1 4193   0.071   5.258   2.370 -1.3223 -1.5483 -1.8901
 1291SOL    HW2 4194   0.183   5.227   2.255  1.5124 -0.9356  0.5824
 1292SOL     OW 4195   0.192   4.309   2.756  0.3069 -0.1714 -0.2961
 1292SOL    HW1 4196   0.266   4.285   2.693  0.9338  1.4968 -0.2495
 1292SOL    HW2 4197   0.109   4.259   2.730  1.0890 -1.0689 -1.1687
 1293SOL     OW 4198   4.734   3.254   5.311  0.6198 -0.2554  0.2009
 1293SOL    HW1 4199   4.689   3.206   5.235 -0.9068  0.3715  0.6662
 1293SOL    HW2 4200   4.676   3.249   5.393  1.3044  0.7628  0.7731
 1294SOL     OW 4201   5.012   0.098   2.243  0.4705  0.3385 -0.0628
 1294SOL    HW1 4202   5.021   0.127   2.338 -0.1054 -0.4187  0.2333
 1294SOL    HW2 4203   5.029   0.176   2.182  3.6320  0.2482  0.5436
 1295SOL     OW 4204   1.020   0.904   5.317 -0.1845 -0.2413  0.2893
 1295SOL    HW1 4205   1.003   0.806   5.302 -0.3265  0.0679 -1.8019
 1295SOL    HW2 4206   1.108   0.915   5.363 -0.2018 -1.3495  0.6312
 1296SOL     OW 4207   1.316   3.962   1.319  0.2648 -0.1755  0.4078
 1296SOL    HW1 4208   1.334   4.026   1.394  0.1634 -0.3189  0.5529
 1296SOL    HW2 4209   1.281   3.876   1.355 -0.4078 -0.0165  0.1535
 1297SOL     OW 4210   1.476   5.233   0.139 -0.1080 -0.4385  0.5873
 1297SOL    HW1 4211   1.392   5.188   0.171 -1.3849  0.3965 -1.3633
 1297SOL    HW2 4212   1.463   5.262   0.044  1.5404  1.8055  0.9775
 1298SOL     OW 4213   0.774   2.256   0.340 -0.4807  0.3221  0.0524
 1298SOL    HW1 4214   0.720   2.334   0.309  0.1431  0.9583  0.5446
 1298SOL    HW2 4215   0.785   2.191   0.265 -0.6715  0.8924 -0.4724
 1299SOL     OW 4216  -0.001   5.415   1.419  0.7916 -0.1305 -0.6017
 1299SOL    HW1 4217   0.073   5.358   1.383  1.5751  0.5973 -0.1855
 1299SOL    HW2 4218  -0.035   5.375   1.504  1.4685  0.1134 -0.2096
 1300SOL     OW 4219   0.594   2.786   0.665 -0.0205 -0.4350 -0.2420
 1300SOL    HW1 4220   0.675   2.841   0.685 -1.4007  1.4096  0.5119
 1300SOL    HW2 4221   0.600   2.699   0.714  0.6672  0.4585  1.3462
 1301SOL     OW 4222   0.930   3.991   0.807 -0.0293  0.0511  0.0209
 1301SOL    HW1 4223   0.977   3.938   0.877 -0.8752 -3.1860 -1.6737
 1301SOL    HW2 4224   0.833   3.999   0.830 -0.3703 -1.2840 -0.8343
 1302SOL     OW 4225   4.937   0.733   0.201 -0.1178 -0.2809 -0.1194
 1302SOL    HW1 4226   5.008   0.738   0.131  0.6102  1.2451  0.6805
 1302SOL    HW2 4227   4.971   0.681   0.280 -0.9867 -2.1233 -0.8940
 1303SOL     OW 4228   0.217   4.458   0.269 -0.2701  0.0051 -0.0647
 1303SOL    HW1 4229   0.230   4.363   0.240  0.5342  0.1382 -0.1602
 1303SOL    HW2 4230   0.271   4.518   0.210  1.1555  0.3143  1.4984
 1304SOL     OW 4231   1.529   4.086   0.607 -0.5216  0.6033  0.1359
 1304SOL    HW1 4232   1.489   4.052   0.692 -0.0190 -1.6085 -0.4366
 1304SOL    HW2 4233   1.550   4.008   0.547 -0.2364  2.0510 -1.7387
 1305SOL     OW 4234   1.881   4.935   5.380 -0.2780 -0.2388 -0.4502
 1305SOL    HW1 4235   1.787   4.931   5.346 -0.9798 -2.9071  1.4817
 1305SOL    HW2 4236   1.943   4.894   5.314 -1.1754 -2.5300  0.0491
 1306SOL     OW 4237   0.396   0.952   0.331 -0.1485 -0.3233 -0.6109
 1306SOL    HW1 4238   0.382   0.971   0.234  0.6212 -0.4213 -0.7534
 1306SOL    HW2 4239   0.414   1.038   0.379  0.8069 -0.3977 -0.8054
 1307SOL     OW 4240   1.471   0.790   1.708  0.8019 -0.7339 -0.2411
 1307SOL    HW1 4241   1.517   0.826   1.627  1.8131  1.4738  1.1974
 1307SOL    HW2 4242   1.519   0.708   1.739  1.6729 -0.4434 -0.7633
 1308SOL     OW 4243   0.165   4.622   0.567 -0.2476 -0.0656  0.6802
 1308SOL    HW1 4244   0.166   4.649   0.664 -0.4991 -2.3605  1.3697
 1308SOL    HW2 4245   0.259   4.619   0.532 -0.0309 -0.6677  1.2938
 1309SOL     OW 4246   1.103   2.493   4.602  0.0221  0.0584 -0.4462
 1309SOL    HW1 4247   1.081   2.591   4.598 -0.3360  0.1897  2.4505
 1309SOL    HW2 4248   1.066   2.447   4.521 -2.1754  1.8966 -0.5822
 1310SOL     OW 4249   4.463   0.229   2.264 -0.3628  0.9270 -0.0053
 1310SOL    HW1 4250   4.378   0.251   2.216 -0.8410  0.2869  0.5366
 1310SOL    HW2 4251   4.505   0.149   2.221 -0.3113  0.9208  0.0569
 1311SOL     OW 4252   0.726   5.369   0.391  0.0443  0.4092  0.2298
 1311SOL    HW1 4253   0.782   5.290   0.369 -0.6824 -0.4996  1.5298
 1311SOL    HW2 4254   0.647   5.341   0.445 -0.9067  1.8574 -0.3281
 1312SOL     OW 4255   5.071   2.052   2.306 -0.1951  0.1426  0.1908
 1312SOL    HW1 4256   5.052   2.047   2.404 -1.6658 -1.0411 -0.1175
 1312SOL    HW2 4257   5.014   2.123   2.264  0.9147  1.1066  0.2788
 1313SOL     OW 4258   5.137   3.927   5.305  0.0592 -0.6239 -0.3332
 1313SOL    HW1 4259   5.055   3.985   5.308  0.6550  0.3066 -1.4008
 1313SOL    HW2 4260   5.144   3.884   5.215 -1.0695 -3.4832  0.7997
 1314SOL     OW 4261   0.910   0.364   0.048  0.1527 -0.3317 -0.2647
 1314SOL    HW1 4262   1.000   0.321   0.045 -0.5503 -1.7903 -1.7157
 1314SOL    HW2 4263   0.839   0.294   0.045 -1.0432  0.8245  0.0915
 1315SOL     OW 4264   4.720   1.059   1.919 -0.0341  1.0615 -0.0362
 1315SOL    HW1 4265   4.793   1.016   1.867 -0.3050 -1.3597  1.4321
 1315SOL    HW2 4266   4.717   1.020   2.011 -1.3873  3.1429  0.8941
 1316SOL     OW 4267   1.792   3.561   5.477  0.2468 -0.1793 -0.1191
 1316SOL    HW1 4268   1.813   3.574   5.574 -0.2667  3.0234 -0.3170
 1316SOL    HW2 4269   1.696   3.583   5.461  0.7935  1.3489 -1.6062
 1317SOL     OW 4270   4.925   0.542   4.559  0.0347 -0.4758  0.3902
 1317SOL    HW1 4271   4.858   0.543   4.485 -0.2139 -1.7489  0.5852
 1317SOL    HW2 4272   4.935   0.634   4.596 -0.4686  0.0124 -0.6577
 1318SOL     OW 4273   4.077   3.866   1.920  0.0072  0.2934 -0.2721
 1318SOL    HW1 4274   4.029   3.780   1.901 -1.1706  1.0245 -0.7495
 1318SOL    HW2 4275   4.172   3.858   1.892 -0.3488 -0.4993 -1.3123
 1319SOL     OW 4276   1.418   4.716   0.461  0.4704 -0.7857 -0.0775
 1319SOL    HW1 4277   1.500   4.666   0.435  0.6593 -0.8024  0.5376
 1319SOL    HW2 4278   1.345   4.652   0.484  1.2134 -0.8645  2.3540
 1320SOL     OW 4279   0.634   4.850   1.824 -0.3570 -0.1385 -0.3759
 1320SOL    HW1 4280   0.582   4.854   1.739 -1.0516 -2.3135 -0.1090
 1320SOL    HW2 4281   0.667   4.941   1.847 -0.2986  0.5294 -2.8682
 1321SOL     OW 4282   1.046   4.265   5.374 -0.3961  0.4418 -0.0062
 1321SOL    HW1 4283   1.002   4.348   5.340 -1.3652  0.1005  0.3521
 1321SOL    HW2 4284   0.987   4.186   5.355  1.3230 -0.4662 -2.0072
 1322SOL     OW 4285   1.773   3.060   2.331  0.0665  0.3023  0.1085
 1322SOL    HW1 4286   1.677   3.063   2.303  0.2879 -1.7183 -1.0699
 1322SOL    HW2 4287   1.785   2.990   2.401  0.3863  1.9746  1.8107
 1323SOL     OW 4288   0.676   4.889   5.248  0.3882 -0.2764  0.5388
 1323SOL    HW1 4289   0.732   4.897   5.165  1.1407 -0.6238  1.0049
 1323SOL    HW2 4290   0.639   4.979   5.272  1.0566  0.0351  0.4294
 1324SOL     OW 4291   1.223   0.114   0.208  0.1125 -0.3285  0.0758
 1324SOL    HW1 4292   1.313   0.155   0.220 -0.0908  0.6018 -1.3116
 1324SOL    HW2 4293   1.212   0.038   0.271  1.6065 -0.0290  0.7314
 1325SOL     OW 4294   5.495   4.574   1.754  0.1541 -0.4205  0.4899
 1325SOL    HW1 4295   5.412   4.611   1.795  0.1138 -0.4042  0.3947
 1325SOL    HW2 4296   5.498   4.475   1.765  0.6087 -0.3199  1.3771
 1326SOL     OW 4297   0.600   5.143   5.287  0.2425 -0.5266  0.6391
 1326SOL    HW1 4298   0.521   5.176   5.235 -0.4330  0.8386  2.4164
 1326SOL    HW2 4299   0.677   5.205   5.272 -0.2458  0.4390  1.9595
 1327SOL     OW 4300   1.602   0.523   0.766 -0.2297 -0.3424  0.2216
 1327SOL    HW1 4301   1.538   0.560   0.833  0.3793  1.6012 -0.2270
 1327SOL    HW2 4302   1.677   0.477   0.814 -0.1388  0.4595  0.8585
 1328SOL     OW 4303   0.295   3.619   1.444  0.4060 -0.4190 -0.7883
 1328SOL    HW1 4304   0.238   3.566   1.506 -0.0071  0.1350 -0.6859
 1328SOL    HW2 4305   0.257   3.616   1.352  0.7495 -0.8373 -0.9228
 1329SOL     OW 4306   0.105   4.278   4.283  0.1210 -0.4424  0.5188
 1329SOL    HW1 4307   0.082   4.212   4.355  0.3787 -1.6834 -0.4949
 1329SOL    HW2 4308   0.114   4.369   4.323 -1.4374 -0.7909  1.7791
 1330SOL     OW 4309   2.205   4.234   4.058  0.8917  0.5841 -0.1464
 1330SOL    HW1 4310   2.256   4.287   3.991 -0.8662  1.4225 -0.8947
 1330SOL    HW2 4311   2.199   4.138   4.027  2.0735  0.4527  0.0122
 1331SOL     OW 4312   2.036   2.732   1.437  0.1327  0.1658  0.0153
 1331SOL    HW1 4313   2.085   2.812   1.470 -1.7012  2.0926 -1.6365
 1331SOL    HW2 4314   2.068   2.709   1.345 -0.3283 -0.0879 -0.0852
 1332SOL     OW 4315   2.574   2.609   1.342  0.1057  0.2264 -0.1650
 1332SOL    HW1 4316   2.503   2.666   1.384 -0.4056  0.0994 -0.8328
 1332SOL    HW2 4317   2.586   2.636   1.246 -0.0797 -0.7070 -0.4618
 1333SOL     OW 4318   1.474   4.036   2.680 -0.1746 -0.9576 -0.8582
 1333SOL    HW1 4319   1.492   4.132   2.702  0.5867 -0.6563 -2.5744
 1333SOL    HW2 4320   1.380   4.013   2.705 -0.4579  0.3167 -0.6701
 1334SOL     OW 4321   0.619   5.361   1.789  0.3724  0.4208 -0.1740
 1334SOL    HW1 4322   0.680   5.298   1.741  0.2093 -0.5597  0.8800
 1334SOL    HW2 4323   0.595   5.437   1.728  2.1528  0.5167 -0.8052
 1335SOL     OW 4324   0.393   4.141   0.235  0.0586  0.0016 -0.5428
 1335SOL    HW1 4325   0.303   4.147   0.193 -0.0888 -1.1995 -0.4316
 1335SOL    HW2 4326   0.395   4.194   0.319 -1.1217 -1.4045  0.4110
 1336SOL     OW 4327   5.411   5.333   1.672  0.2765 -0.4422 -0.1344
 1336SOL    HW1 4328   5.315   5.323   1.700  0.2493 -0.9241 -0.3957
 1336SOL    HW2 4329   5.464   5.370   1.748  0.3556 -2.4259  0.8174
 1337SOL     OW 4330   0.086   1.204   1.713  0.7205  0.9380  0.2881
 1337SOL    HW1 4331   0.141   1.263   1.655 -0.1193  0.2703 -1.2435
 1337SOL    HW2 4332   0.015   1.159   1.658 -0.4200  0.6408  1.9192
 1338SOL     OW 4333   1.598   2.376   1.107  0.2485  0.0492 -0.3279
 1338SOL    HW1 4334   1.539   2.447   1.145 -1.3385 -1.2074 -0.3313
 1338SOL    HW2 4335   1.548   2.324   1.039  1.6064 -0.6472 -0.8436
 1339SOL     OW 4336   0.122   3.134   2.297  0.1905 -0.2590 -0.6498
 1339SOL    HW1 4337   0.066   3.188   2.235  0.9592  1.3569  0.0090
 1339SOL    HW2 4338   0.194   3.088   2.245 -0.4578 -0.6442 -1.2171
 1340SOL     OW 4339   4.961   3.719   1.435 -0.1555  0.5679 -0.2436
 1340SOL    HW1 4340   5.032   3.788   1.446  1.0101 -0.3288 -1.6806
 1340SOL    HW2 4341   4.926   3.692   1.524  2.7082 -0.3530  0.7145
 1341SOL     OW 4342   0.279   3.244   1.608 -0.0853 -0.1073  0.3942
 1341SOL    HW1 4343   0.306   3.159   1.654 -0.8141  0.8897  2.8423
 1341SOL    HW2 4344   0.270   3.227   1.510 -0.6327 -2.9753  0.8411
 1342SOL     OW 4345   5.461   3.819   0.953 -0.2738  0.6984  0.0662
 1342SOL    HW1 4346   5.454   3.835   0.854  0.1934 -2.3672 -0.5601
 1342SOL    HW2 4347   5.369   3.802   0.990 -0.2648 -0.2053 -0.2923
 1343SOL     OW 4348   1.992   0.160   1.483  0.1282 -0.2769 -0.0237
 1343SOL    HW1 4349   2.092   0.163   1.480  0.0977  0.1008 -0.8204
 1343SOL    HW2 4350   1.961   0.065   1.483  0.4883 -0.3963  0.4006
 1344SOL     OW 4351   5.385   2.833   5.301 -0.4503  0.6286 -0.2128
 1344SOL    HW1 4352   5.440   2.765   5.252  1.6334  0.6548  1.9234
 1344SOL    HW2 4353   5.337   2.788   5.377  1.6935  1.5485  1.8139
 1345SOL     OW 4354   1.984   5.323   2.334 -0.0336 -0.3421  0.1361
 1345SOL    HW1 4355   2.029   5.239   2.304 -1.4445 -0.6379 -1.2788
 1345SOL    HW2 4356   2.038   5.402   2.303 -0.7416 -0.6747 -2.1644
 1346SOL     OW 4357   1.525   0.129   0.150 -0.0055 -0.0336  0.1481
 1346SOL    HW1 4358   1.491   0.132   0.056  0.4238  1.1253  0.0192
 1346SOL    HW2 4359   1.555   0.220   0.178  0.8987 -0.5852  1.0352
 1347SOL     OW 4360   1.951   4.380   0.151  0.3300 -0.0597 -0.1962
 1347SOL    HW1 4361   1.908   4.383   0.061  2.2173 -0.1715 -1.1473
 1347SOL    HW2 4362   2.049   4.395   0.142  0.5669 -0.0470  1.8615
 1348SOL     OW 4363   0.120   1.250   2.165  0.3335 -0.2284 -0.3219
 1348SOL    HW1 4364   0.198   1.309   2.144 -0.7429  0.3989 -2.8138
 1348SOL    HW2 4365   0.067   1.291   2.239  1.3027  0.3142  0.0956
 1349SOL     OW 4366   0.606   0.136   0.698  0.1505 -0.1851  0.1095
 1349SOL    HW1 4367   0.518   0.180   0.682  1.7024  3.0465 -0.3506
 1349SOL    HW2 4368   0.655   0.127   0.611  1.1535  0.1658  0.6230
 1350SOL     OW 4369   0.087   3.646   1.110 -0.3077  0.4485 -0.3549
 1350SOL    HW1 4370   0.037   3.690   1.035  0.5886  0.6349 -0.8663
 1350SOL    HW2 4371   0.080   3.547   1.100 -1.1594  0.4657 -0.0087
 1351SOL     OW 4372   2.649   3.325   0.029  0.3694 -0.2231  0.3843
 1351SOL    HW1 4373   2.685   3.416   0.047  1.9387 -0.9535  1.0955
 1351SOL    HW2 4374   2.637   3.276   0.116 -3.1214  0.1989  0.2925
 1352SOL     OW 4375   2.036   4.437   5.144 -0.1892 -0.0887  0.7889
 1352SOL    HW1 4376   2.103   4.508   5.122 -0.5160 -0.1902 -0.6612
 1352SOL    HW2 4377   1.961   4.477   5.197  0.6652  0.1632  1.8516
 1353SOL     OW 4378   2.593   1.895   0.561 -0.1662 -0.1546 -0.1835
 1353SOL    HW1 4379   2.560   1.913   0.468  1.9156 -1.8212 -1.3408
 1353SOL    HW2 4380   2.530   1.832   0.606 -2.5299  2.5227  0.5576
 1354SOL     OW 4381   4.600   5.311   2.155  0.1857 -0.4812 -0.2165
 1354SOL    HW1 4382   4.578   5.231   2.100  0.4250 -0.1235 -0.8414
 1354SOL    HW2 4383   4.516   5.353   2.188  0.0782 -1.9135  1.4919
 1355SOL     OW 4384   0.517   0.758   1.995 -0.1024  0.1975 -0.1193
 1355SOL    HW1 4385   0.617   0.767   1.995  0.0085 -0.8416  0.6132
 1355SOL    HW2 4386   0.493   0.666   1.964 -0.7704 -0.0135  0.9813
 1356SOL     OW 4387   5.242   4.191   5.033 -0.8208  0.5001  0.0520
 1356SOL    HW1 4388   5.175   4.122   5.060  0.1200 -0.1674  0.7468
 1356SOL    HW2 4389   5.313   4.198   5.104  1.1389 -0.4969 -1.6743
 1357SOL     OW 4390   2.876   2.803   0.622  0.0657  0.6537  0.0318
 1357SOL    HW1 4391   2.841   2.732   0.560 -0.2269  0.2499  0.6427
 1357SOL    HW2 4392   2.971   2.782   0.647 -0.2031  0.1470  0.6662
 1358SOL     OW 4393   0.621   2.554   0.807 -0.2439 -0.1861  0.3528
 1358SOL    HW1 4394   0.552   2.482   0.801  0.4769 -1.0259  1.6735
 1358SOL    HW2 4395   0.712   2.513   0.812  0.1178  0.7413  2.1006
 1359SOL     OW 4396   1.259   5.429   1.231 -0.3865  0.0877 -0.5151
 1359SOL    HW1 4397   1.175   5.433   1.178 -1.0398 -1.0624  0.3845
 1359SOL    HW2 4398   1.332   5.476   1.182 -1.8164  2.1741 -0.7556
 1360SOL     OW 4399   0.536   0.180   2.640  0.0170  0.0301  0.2442
 1360SOL    HW1 4400   0.553   0.130   2.555 -0.6365 -1.6453  1.0570
 1360SOL    HW2 4401   0.492   0.267   2.619 -2.2172 -1.3035 -1.0694
 1361SOL     OW 4402   1.307   4.257   5.315  0.1758 -0.1141  0.3376
 1361SOL    HW1 4403   1.213   4.238   5.344  0.8369 -1.0391  2.0271
 1361SOL    HW2 4404   1.357   4.299   5.391  1.3578 -0.4334 -0.2441
 1362SOL     OW 4405   0.717   4.068   5.044 -0.1761  0.5206  0.0321
 1362SOL    HW1 4406   0.648   4.060   4.973  1.7165  1.7208 -2.0568
 1362SOL    HW2 4407   0.673   4.070   5.134 -2.7965  1.1591 -1.1927
 1363SOL     OW 4408   2.106   3.299   0.917 -0.4922  0.2356  0.0677
 1363SOL    HW1 4409   2.168   3.255   0.982  1.1129  0.4207 -1.2893
 1363SOL    HW2 4410   2.013   3.264   0.931 -0.2342  0.3041  2.4766
 1364SOL     OW 4411   0.865   3.502   0.368  0.3011 -0.1454  0.0250
 1364SOL    HW1 4412   0.790   3.437   0.379  1.4897 -1.5946 -0.1201
 1364SOL    HW2 4413   0.943   3.457   0.324  0.4522  1.9434 -2.0338
 1365SOL     OW 4414   0.541   0.280   4.605 -0.0019  0.6984 -0.0233
 1365SOL    HW1 4415   0.620   0.342   4.609 -1.1306  2.1580  0.1792
 1365SOL    HW2 4416   0.481   0.298   4.683  0.8354 -2.3846  1.5148
 1366SOL     OW 4417   5.344   2.273   4.821  0.0440 -0.2034  0.4042
 1366SOL    HW1 4418   5.305   2.335   4.889 -0.2352 -0.0869  0.1391
 1366SOL    HW2 4419   5.273   2.210   4.789 -0.0594  0.3333 -0.4482
 1367SOL     OW 4420   2.188   2.859   0.648  0.6751  0.7304  0.0775
 1367SOL    HW1 4421   2.286   2.868   0.630  1.2390  1.3859  2.8872
 1367SOL    HW2 4422   2.166   2.764   0.670  0.5106  0.4435 -1.2859
 1368SOL     OW 4423   5.080   4.505   5.549  0.0223  0.2320 -0.0206
 1368SOL    HW1 4424   5.016   4.523   5.475  0.3169  3.1225  0.2966
 1368SOL    HW2 4425   5.109   4.592   5.590 -0.1519 -1.2073  3.5436
 1369SOL     OW 4426   0.987   3.845   1.259  0.4532  0.2291 -0.6823
 1369SOL    HW1 4427   0.923   3.775   1.230  1.3442 -0.2888 -1.4495
 1369SOL    HW2 4428   1.074   3.803   1.286  1.1644  1.0573 -1.5899
 1370SOL     OW 4429   1.741   4.410   1.798 -0.0425  0.0653 -0.1575
 1370SOL    HW1 4430   1.687   4.332   1.829  1.3890 -0.0342  2.3794
 1370SOL    HW2 4431   1.812   4.378   1.735 -1.1190 -0.2117 -1.2766
 1371SOL     OW 4432   1.855   5.136   2.079 -0.0736  0.0462  0.4866
 1371SOL    HW1 4433   1.943   5.121   2.124  1.6919 -0.7652 -2.8634
 1371SOL    HW2 4434   1.830   5.232   2.085  1.0774  0.3064  1.4330
 1372SOL     OW 4435   0.962   5.259   0.236  0.4133  0.2119  0.2787
 1372SOL    HW1 4436   1.021   5.336   0.261 -0.8103  1.2475  0.0566
 1372SOL    HW2 4437   0.992   5.221   0.149  1.1110  0.3301  0.4583
 1373SOL     OW 4438   5.021   4.146   1.948 -0.8907  0.2379 -0.3926
 1373SOL    HW1 4439   4.974   4.124   1.863 -3.9736  2.2335  0.6364
 1373SOL    HW2 4440   5.001   4.240   1.974 -0.1534 -0.3269  2.5742
 1374SOL     OW 4441   0.728   3.273   0.470 -0.7120  0.1184  0.2124
 1374SOL    HW1 4442   0.720   3.208   0.394  1.5404 -0.4885  0.4250
 1374SOL    HW2 4443   0.786   3.234   0.541 -2.9302  0.5714  2.4240
 1375SOL     OW 4444   0.371   4.291   0.454 -0.0407 -0.3647  0.3015
 1375SOL    HW1 4445   0.297   4.250   0.506 -0.5166 -0.0202 -0.1013
 1375SOL    HW2 4446   0.356   4.389   0.444  1.3983  0.0653  1.7809
 1376SOL     OW 4447   1.380   3.915   0.805 -0.4813  0.2046 -0.1989
 1376SOL    HW1 4448   1.320   3.851   0.757  1.1259 -0.5068 -1.3650
 1376SOL    HW2 4449   1.408   3.875   0.892  0.0196 -0.4533 -0.6447
 1377SOL     OW 4450   0.664   3.357   0.037  0.7668 -0.3854  0.2964
 1377SOL    HW1 4451   0.740   3.293   0.036  0.1232 -1.1818 -1.1955
 1377SOL    HW2 4452   0.682   3.431  -0.027 -0.5055 -1.6354 -1.6217
 1378SOL     OW 4453   1.557   3.403   2.507  0.1804 -0.3156 -0.1836
 1378SOL    HW1 4454   1.651   3.370   2.515  0.3200  0.2272  0.5057
 1378SOL    HW2 4455   1.544   3.445   2.417  1.0586  0.9636  0.2464
 1379SOL     OW 4456   2.224   4.262   1.404 -0.0692 -0.1228  0.1170
 1379SOL    HW1 4457   2.168   4.332   1.360 -0.2978  0.3315  1.1020
 1379SOL    HW2 4458   2.303   4.305   1.447  1.2522 -0.7816 -1.5160
 1380SOL     OW 4459   5.450   4.023   4.546  0.2002  0.2925  0.5179
 1380SOL    HW1 4460   5.387   4.083   4.595 -0.4809 -0.3846  0.4976
 1380SOL    HW2 4461   5.481   3.950   4.607  2.6701  1.7743  1.1906
 1381SOL     OW 4462   0.456   4.464   1.308 -0.2093  0.0696  0.4203
 1381SOL    HW1 4463   0.371   4.453   1.359 -1.1051  3.2046 -0.1920
 1381SOL    HW2 4464   0.526   4.503   1.368 -0.3657  0.9816  0.0231
 1382SOL     OW 4465   2.553   3.726   0.170 -0.2137 -0.5109 -0.2623
 1382SOL    HW1 4466   2.628   3.681   0.123  0.6026 -0.9019  1.3258
 1382SOL    HW2 4467   2.573   3.731   0.268 -1.4178  1.0713 -0.0423
 1383SOL     OW 4468   0.048   3.914   1.611 -0.1241 -0.1479 -0.1784
 1383SOL    HW1 4469  -0.046   3.878   1.608 -0.9916  1.9623 -0.3405
 1383SOL    HW2 4470   0.076   3.941   1.519  0.9763 -1.4719 -0.2573
 1384SOL     OW 4471   1.755   0.351   0.907  0.6267  0.2506  0.1604
 1384SOL    HW1 4472   1.711   0.290   0.841  0.5457 -0.6781  1.0564
 1384SOL    HW2 4473   1.824   0.301   0.958  0.5792  0.9122  0.8943
 1385SOL     OW 4474   0.431   4.607   0.415 -0.0043 -0.3158  0.0978
 1385SOL    HW1 4475   0.528   4.586   0.406  0.0774 -0.5583  1.3138
 1385SOL    HW2 4476   0.394   4.632   0.326  1.5085  1.2230 -0.1590
 1386SOL     OW 4477   1.964   4.980   0.530 -0.6970  0.1329  0.1611
 1386SOL    HW1 4478   1.981   5.050   0.460  1.3025 -0.6150 -0.1862
 1386SOL    HW2 4479   1.881   4.930   0.508 -1.9593  2.1039  0.2037
 1387SOL     OW 4480   0.906   4.907   2.020 -0.2248 -0.5650 -0.4283
 1387SOL    HW1 4481   0.839   4.974   1.988  0.6957  0.4306 -0.3304
 1387SOL    HW2 4482   0.880   4.873   2.110  0.7902  1.9222  0.8990
 1388SOL     OW 4483   1.568   3.664   1.804 -0.3117  0.2699  0.2619
 1388SOL    HW1 4484   1.512   3.589   1.838 -0.5185  1.0870  1.8174
 1388SOL    HW2 4485   1.661   3.631   1.784 -0.3797 -0.3932  0.9975
 1389SOL     OW 4486   1.603   3.577   0.248 -0.1741  0.5065  0.3399
 1389SOL    HW1 4487   1.544   3.600   0.171 -0.8152  0.6956  0.8802
 1389SOL    HW2 4488   1.547   3.557   0.329  0.5082  1.2207  1.0109
 1390SOL     OW 4489   2.785   4.581   2.785  0.1097  0.3745 -0.4560
 1390SOL    HW1 4490   2.808   4.611   2.878 -0.0949 -0.8843  0.0239
 1390SOL    HW2 4491   2.693   4.610   2.763  0.8022  2.2844 -0.9941
 1391SOL     OW 4492   5.235   4.255   5.518  0.1178  0.1507 -0.0658
 1391SOL    HW1 4493   5.176   4.194   5.465 -0.2993 -0.8266  1.4624
 1391SOL    HW2 4494   5.193   4.346   5.524 -0.0738  0.1290 -0.9577
 1392SOL     OW 4495   5.185   3.578   1.022 -0.1456  0.1087  0.6971
 1392SOL    HW1 4496   5.167   3.575   1.120  2.0553  0.4571  1.1461
 1392SOL    HW2 4497   5.179   3.672   0.990 -3.5595 -0.2330 -0.1472
 1393SOL     OW 4498   2.382   4.419   2.770 -0.1389 -0.1568 -0.4535
 1393SOL    HW1 4499   2.318   4.481   2.816  0.5414  0.8774 -0.8694
 1393SOL    HW2 4500   2.330   4.353   2.715 -0.9477 -1.0956  1.3437
 1394SOL     OW 4501   0.504   5.141   2.773  0.1286  0.5758 -0.6179
 1394SOL    HW1 4502   0.595   5.178   2.795  0.1423 -0.1063  0.5825
 1394SOL    HW2 4503   0.459   5.200   2.706 -0.5154  3.8005  2.3394
 1395SOL     OW 4504   5.290   1.883   5.491  0.1579  0.1529  0.1808
 1395SOL    HW1 4505   5.294   1.980   5.465  0.8434 -0.0234 -0.3932
 1395SOL    HW2 4506   5.319   1.826   5.414  0.2443 -0.4900  0.6773
 1396SOL     OW 4507   1.358   3.854   0.326  0.1553  0.4874 -0.3529
 1396SOL    HW1 4508   1.290   3.915   0.285  0.7240  0.0960 -1.9287
 1396SOL    HW2 4509   1.330   3.759   0.314 -0.0090  0.3703  0.8125
 1397SOL     OW 4510   0.251   1.916   4.097  0.0362 -0.1528 -0.8331
 1397SOL    HW1 4511   0.222   1.846   4.161  1.2956 -0.6579 -0.7953
 1397SOL    HW2 4512   0.193   1.913   4.016 -1.1284  0.0415 -0.0353
 1398SOL     OW 4513   4.103   2.244   1.342 -0.2700  0.2995  0.3297
 1398SOL    HW1 4514   4.074   2.190   1.263  0.5832  0.7097 -0.2850
 1398SOL    HW2 4515   4.101   2.341   1.318 -0.4024  0.4543  0.9528
 1399SOL     OW 4516   5.294   3.927   4.080 -0.0214  0.3445  0.6435
 1399SOL    HW1 4517   5.328   3.951   3.989 -1.9164  2.9414  0.4759
 1399SOL    HW2 4518   5.370   3.917   4.144  1.2954 -0.7403 -1.0321
 1400SOL     OW 4519   1.240   4.202   1.580 -0.0309  0.3968 -0.0928
 1400SOL    HW1 4520   1.198   4.140   1.646  0.5045 -1.1274 -1.1514
 1400SOL    HW2 4521   1.337   4.181   1.571  0.4129  2.1113  0.3133
 1401SOL     OW 4522   4.641   4.894   3.411  0.4644 -0.0238  0.5864
 1401SOL    HW1 4523   4.677   4.925   3.323 -1.3959  1.1967  0.1847
 1401SOL    HW2 4524   4.717   4.866   3.470  1.8081 -0.1531 -1.1194
 1402SOL     OW 4525   1.202   4.341   0.691  0.2576 -0.1107 -0.6737
 1402SOL    HW1 4526   1.255   4.280   0.750 -0.8000  0.9856  1.5238
 1402SOL    HW2 4527   1.105   4.319   0.697 -0.0447  1.1248 -0.6149
 1403SOL     OW 4528   2.942   3.508   3.383 -0.2227  0.5171  0.3590
 1403SOL    HW1 4529   2.885   3.516   3.465  0.5945  1.8441  0.8295
 1403SOL    HW2 4530   2.918   3.424   3.334 -1.9940  0.6326  0.9721
 1404SOL     OW 4531   1.319   2.564   1.655 -0.0691 -0.2604 -0.1758
 1404SOL    HW1 4532   1.258   2.630   1.612  2.0241  0.6062 -1.9979
 1404SOL    HW2 4533   1.406   2.608   1.679  0.4426 -1.7665  0.9554
 1405SOL     OW 4534   5.145   2.738   1.807 -0.2840 -0.1171  0.5704
 1405SOL    HW1 4535   5.181   2.828   1.831  0.9898  0.1714 -1.9848
 1405SOL    HW2 4536   5.155   2.676   1.884  0.4827  1.4755  1.8055
 1406SOL     OW 4537   0.913   2.429   0.658 -0.0718  0.0321  1.1884
 1406SOL    HW1 4538   0.874   2.488   0.587  0.0894 -1.3072 -0.0715
 1406SOL    HW2 4539   0.865   2.341   0.657  0.4460 -0.2686  2.2446
 1407SOL     OW 4540   1.803   3.379   0.794  0.3223 -0.5411 -0.0032
 1407SOL    HW1 4541   1.831   3.449   0.859 -1.6370 -0.2226  0.5724
 1407SOL    HW2 4542   1.836   3.402   0.702  2.5414 -0.6483  0.7129
 1408SOL     OW 4543   4.777   3.709   2.103 -0.6322  0.3568 -0.3570
 1408SOL    HW1 4544   4.841   3.634   2.119  0.1249  0.7909 -1.2480
 1408SOL    HW2 4545   4.829   3.794   2.087 -1.4627  1.0047  0.2892
 1409SOL     OW 4546   4.257   0.912   2.987  0.0582  0.4706  0.0722
 1409SOL    HW1 4547   4.335   0.964   3.023  0.4921  0.6917 -1.1367
 1409SOL    HW2 4548   4.173   0.942   3.032  0.6560  0.2265  1.4044
 1410SOL     OW 4549   1.929   5.409   1.158  0.0776 -0.0307  0.1069
 1410SOL    HW1 4550   1.850   5.445   1.208 -0.3334 -2.7243  1.6032
 1410SOL    HW2 4551   1.927   5.442   1.064 -2.1154  0.9576  0.4323
 1411SOL     OW 4552   0.254   5.270   1.063 -0.8488 -0.6618 -0.3793
 1411SOL    HW1 4553   0.302   5.220   0.990 -1.2004 -0.1033 -1.0008
 1411SOL    HW2 4554   0.270   5.368   1.053 -1.6765 -0.5048 -0.2834
 1412SOL     OW 4555   1.349   3.970   5.064  0.6149  0.1646 -0.4620
 1412SOL    HW1 4556   1.371   3.880   5.024 -0.1693 -0.1749 -0.1579
 1412SOL    HW2 4557   1.323   3.958   5.160  1.2454  0.8201 -0.2067
 1413SOL     OW 4558   4.485   3.544   0.562 -0.2872 -0.3744  0.2398
 1413SOL    HW1 4559   4.415   3.614   0.555 -1.5712 -1.6647 -0.4786
 1413SOL    HW2 4560   4.447   3.464   0.609  0.7054 -1.1027 -0.1665
 1414SOL     OW 4561   5.367   5.282   2.611  0.2744  0.2835 -0.0570
 1414SOL    HW1 4562   5.327   5.191   2.625 -0.9355  0.2439 -3.0113
 1414SOL    HW2 4563   5.327   5.346   2.677 -1.5088 -0.6411 -0.1715
 1415SOL     OW 4564   2.414   0.481   3.027  0.5465  0.5705 -0.2581
 1415SOL    HW1 4565   2.411   0.414   2.954  1.9649  0.6031 -0.3657
 1415SOL    HW2 4566   2.451   0.568   2.992  0.8276  0.7169  0.3802
 1416SOL     OW 4567   0.373   4.920   2.160  0.2185 -0.7098  0.5659
 1416SOL    HW1 4568   0.352   4.949   2.067 -0.1243  3.1706  1.6706
 1416SOL    HW2 4569   0.293   4.935   2.218  0.7285 -2.1414  1.6862
 1417SOL     OW 4570   1.297   2.594   0.221  0.4774 -0.1378 -0.0041
 1417SOL    HW1 4571   1.305   2.586   0.320 -1.6680  0.9923  0.3389
 1417SOL    HW2 4572   1.270   2.506   0.182 -3.0561  0.2733  1.0776
 1418SOL     OW 4573   0.082   5.469   0.132  0.1813 -0.1301 -1.0207
 1418SOL    HW1 4574   0.070   5.536   0.059 -1.8507  0.9856  0.2212
 1418SOL    HW2 4575  -0.002   5.465   0.187  0.8592 -2.4983 -0.0366
 1419SOL     OW 4576   0.710   3.620   1.488 -0.3035  0.1755 -0.0805
 1419SOL    HW1 4577   0.759   3.563   1.422 -0.7145  0.5853 -0.7529
 1419SOL    HW2 4578   0.725   3.584   1.580  1.3653  0.3690 -0.2440
 1420SOL     OW 4579   5.233   5.548   1.505  0.0945 -0.2871 -0.2281
 1420SOL    HW1 4580   5.230   5.525   1.602  3.0137 -1.2103 -0.2662
 1420SOL    HW2 4581   5.205   5.469   1.451 -1.0110  0.0567 -0.1852
 1421SOL     OW 4582   5.023   3.411   1.711 -0.6820 -0.0976 -0.6708
 1421SOL    HW1 4583   4.989   3.320   1.690  0.1885 -0.4402 -0.6524
 1421SOL    HW2 4584   5.122   3.406   1.729 -0.8331  0.6628  0.4800
 1422SOL     OW 4585   5.117   4.233   2.407 -0.2724 -0.4009 -0.2782
 1422SOL    HW1 4586   5.128   4.207   2.503  1.4869 -1.0275 -0.6176
 1422SOL    HW2 4587   5.103   4.151   2.351 -2.0623  0.0102 -0.5135
 1423SOL     OW 4588   2.395   1.892   1.011  0.1390 -0.1513  0.8042
 1423SOL    HW1 4589   2.471   1.836   1.045  0.8545 -0.0013 -0.4637
 1423SOL    HW2 4590   2.310   1.839   1.014  0.8938 -1.5852 -0.9259
 1424SOL     OW 4591   1.699   0.056   5.267  0.1826 -0.7824 -0.1114
 1424SOL    HW1 4592   1.690   0.151   5.238  2.2947 -0.4136  0.2937
 1424SOL    HW2 4593   1.633  -0.000   5.217 -1.3340  0.9072 -0.1229
 1425SOL     OW 4594   1.322   1.070   2.998  0.4374  0.3562 -0.4476
 1425SOL    HW1 4595   1.395   1.118   3.046 -1.2969  2.0301  0.6227
 1425SOL    HW2 4596   1.347   1.061   2.901  2.4530  0.0017  0.0579
 1426SOL     OW 4597   5.228   2.987   0.686  0.0744 -0.0574  0.0561
 1426SOL    HW1 4598   5.320   2.961   0.659 -0.1895  0.6600 -1.6326
 1426SOL    HW2 4599   5.217   3.086   0.674 -1.0082 -0.1799 -0.0256
 1427SOL     OW 4600   1.229   4.814   0.757  0.5573 -0.1060 -0.5179
 1427SOL    HW1 4601   1.254   4.717   0.757 -0.6112 -0.4142 -0.7818
 1427SOL    HW2 4602   1.131   4.823   0.774  1.1481  1.1728  3.1613
 1428SOL     OW 4603   4.741   4.971   3.165  0.6308 -0.0554  0.5663
 1428SOL    HW1 4604   4.704   5.048   3.114  0.8561 -0.7693 -0.6934
 1428SOL    HW2 4605   4.839   4.963   3.147  0.6530 -0.4997  0.8703
 1429SOL     OW 4606   0.055   4.808   1.564 -0.1161 -0.2322 -0.2563
 1429SOL    HW1 4607   0.045   4.906   1.579  0.9473 -0.1663  0.1144
 1429SOL    HW2 4608   0.030   4.758   1.648 -0.5456 -0.2843 -0.4088
 1430SOL     OW 4609   1.675   3.724   2.173 -0.0049 -0.3039 -0.1175
 1430SOL    HW1 4610   1.593   3.756   2.126  0.0284  0.1384  0.1165
 1430SOL    HW2 4611   1.715   3.647   2.123  0.8492  1.0709 -1.6530
 1431SOL     OW 4612   0.619   5.103   4.403  0.3647 -0.3472 -0.9121
 1431SOL    HW1 4613   0.714   5.080   4.383  0.5967  0.6817 -1.0876
 1431SOL    HW2 4614   0.562   5.021   4.396  1.6253 -1.6198  1.9866
 1432SOL     OW 4615   3.156   4.412   1.530 -0.2790  0.0283  0.3195
 1432SOL    HW1 4616   3.202   4.456   1.608  3.0830 -1.7198 -0.5004
 1432SOL    HW2 4617   3.161   4.471   1.450  1.6504 -0.5659 -0.0405
 1433SOL     OW 4618   4.274   5.473   2.627 -0.2057  0.0870 -0.3830
 1433SOL    HW1 4619   4.359   5.434   2.661 -0.3608  1.0631  1.2151
 1433SOL    HW2 4620   4.293   5.557   2.577 -0.3139  1.1713  1.3369
 1434SOL     OW 4621   1.963   3.367   0.177  0.1506 -0.1378  0.7573
 1434SOL    HW1 4622   2.037   3.390   0.115 -0.4722 -0.1821 -0.0141
 1434SOL    HW2 4623   1.940   3.270   0.168 -0.3533 -0.0052  0.6135
 1435SOL     OW 4624   0.319   0.643   1.643 -0.0986  0.0942  0.1656
 1435SOL    HW1 4625   0.318   0.713   1.714 -1.9626  0.5245 -0.2240
 1435SOL    HW2 4626   0.262   0.672   1.567  0.5485 -1.0771 -0.8068
 1436SOL     OW 4627   0.553   4.780   0.813 -1.0346  0.3377 -0.7544
 1436SOL    HW1 4628   0.597   4.693   0.788  0.8191  1.3744 -1.2691
 1436SOL    HW2 4629   0.593   4.814   0.897 -2.0075  0.5413 -0.3627
 1437SOL     OW 4630   4.751   4.606   1.031 -0.2962 -0.3781 -0.3893
 1437SOL    HW1 4631   4.721   4.680   0.970  2.1474 -1.0640 -2.6035
 1437SOL    HW2 4632   4.813   4.545   0.982 -0.2524 -2.5167  2.0972
 1438SOL     OW 4633   0.786   4.980   1.438  0.1174 -0.3571 -0.4027
 1438SOL    HW1 4634   0.736   4.896   1.456  0.7717 -0.8900 -1.0355
 1438SOL    HW2 4635   0.780   5.040   1.518  0.5683 -1.4600  0.4833
 1439SOL     OW 4636   1.545   5.329   0.955  0.2818 -0.5929 -0.7032
 1439SOL    HW1 4637   1.603   5.248   0.964  1.7791  0.6250  2.1854
 1439SOL    HW2 4638   1.452   5.307   0.985  0.6252 -1.3121 -0.1298
 1440SOL     OW 4639   0.764   5.086   0.474 -0.0106  0.5061 -0.3756
 1440SOL    HW1 4640   0.765   5.055   0.379  1.4171 -4.0904  0.8893
 1440SOL    HW2 4641   0.673   5.072   0.514 -0.3075  1.3921 -0.7137
 1441SOL     OW 4642   0.232   4.979   0.712 -0.0089  0.3052 -0.2975
 1441SOL    HW1 4643   0.304   5.042   0.740  1.2182 -1.6615  1.2822
 1441SOL    HW2 4644   0.248   4.890   0.755 -1.7903 -1.0250 -2.2223
 1442SOL     OW 4645   0.629   4.054   1.487 -0.0996 -0.0775  0.0055
 1442SOL    HW1 4646   0.711   4.051   1.430 -0.4174  0.9323 -0.5367
 1442SOL    HW2 4647   0.578   3.968   1.477  0.8179 -0.6620  0.2565
 1443SOL     OW 4648   2.462   5.328   0.710 -0.0612 -0.0422 -0.0900
 1443SOL    HW1 4649   2.508   5.320   0.799 -0.5771 -2.7408  0.0138
 1443SOL    HW2 4650   2.530   5.329   0.637  0.3130  1.1831  0.2375
 1444SOL     OW 4651   0.073   3.630   5.264  0.0980 -0.3255  0.5046
 1444SOL    HW1 4652   0.059   3.604   5.360 -0.1579  0.4686  0.6948
 1444SOL    HW2 4653   0.091   3.728   5.259  0.9303 -0.5068 -0.1931
 1445SOL     OW 4654   1.502   3.241   1.226  0.0687  0.6984  0.7569
 1445SOL    HW1 4655   1.486   3.195   1.313  0.9585 -1.0655  0.0238
 1445SOL    HW2 4656   1.420   3.232   1.168  0.7081 -1.2112  0.0997
 1446SOL     OW 4657   2.200   4.334   0.429  0.1303 -0.2512 -0.0698
 1446SOL    HW1 4658   2.108   4.307   0.459  0.1330  0.1542  0.3084
 1446SOL    HW2 4659   2.195   4.376   0.339 -0.0419 -0.3227 -0.0935
 1447SOL     OW 4660   0.482   3.803   2.629 -0.1881  0.2067  0.1747
 1447SOL    HW1 4661   0.539   3.872   2.584  0.4749 -0.7225 -0.4469
 1447SOL    HW2 4662   0.425   3.847   2.698  1.1027  1.2084  0.6449
 1448SOL     OW 4663   1.437   4.335   5.544  0.2559  0.3218 -0.1226
 1448SOL    HW1 4664   1.528   4.345   5.505  0.4006 -1.0848 -0.1985
 1448SOL    HW2 4665   1.402   4.425   5.573  1.9182  0.7938  0.5072
 1449SOL     OW 4666   5.433   4.941   2.476 -0.5365  0.1416 -0.3319
 1449SOL    HW1 4667   5.499   4.992   2.421 -1.7931  1.5249 -0.6201
 1449SOL    HW2 4668   5.439   4.843   2.453  0.8419  0.3373 -0.9121
 1450SOL     OW 4669   4.537  -0.005   5.490  0.0819  0.2189 -0.3411
 1450SOL    HW1 4670   4.608   0.058   5.459  0.9902  0.0206  1.2314
 1450SOL    HW2 4671   4.468   0.046   5.543  0.8159 -0.0653  0.9285
 1451SOL     OW 4672   0.826   3.033   2.398  0.3876  0.3092 -0.8398
 1451SOL    HW1 4673   0.921   3.000   2.399  0.0265 -0.7557 -1.0208
 1451SOL    HW2 4674   0.767   2.964   2.357 -0.8844 -0.1540  1.6012
 1452SOL     OW 4675   1.565   3.735   1.275 -0.4772  0.1116  0.3081
 1452SOL    HW1 4676   1.554   3.763   1.370 -0.6404 -1.5949  0.8150
 1452SOL    HW2 4677   1.620   3.803   1.226  0.5543  0.4553  1.8875
 1453SOL     OW 4678   4.618   4.199   1.212  0.2761 -0.1600  0.5247
 1453SOL    HW1 4679   4.592   4.133   1.282 -3.3523  1.2054  0.6955
 1453SOL    HW2 4680   4.566   4.182   1.128  1.1824  0.9330 -0.2979
 1454SOL     OW 4681   1.929   5.128   5.567  0.2049  0.2655  0.2396
 1454SOL    HW1 4682   1.906   5.069   5.490 -0.6392  0.0662  0.6307
 1454SOL    HW2 4683   2.028   5.142   5.571  0.5183 -1.7394  0.5837
 1455SOL     OW 4684   0.135   4.449   0.846 -0.1632 -0.3246  0.1859
 1455SOL    HW1 4685   0.186   4.391   0.910 -2.0018 -0.7202  1.3655
 1455SOL    HW2 4686   0.105   4.532   0.893  1.8203  1.3185 -1.2926
 1456SOL     OW 4687   2.057   4.720   0.722  0.1675  0.2192  0.2304
 1456SOL    HW1 4688   2.026   4.809   0.690  1.7660  0.7623  0.0886
 1456SOL    HW2 4689   2.095   4.668   0.646  1.1626  0.2742  0.6767
 1457SOL     OW 4690   2.149   4.619   0.476 -0.5680  0.1286  0.6531
 1457SOL    HW1 4691   2.147   4.519   0.466 -1.8609  0.1829  0.1895
 1457SOL    HW2 4692   2.064   4.658   0.442  0.2660  1.4856  0.0272
 1458SOL     OW 4693   0.511   4.779   1.558 -0.5666  0.3566  0.5482
 1458SOL    HW1 4694   0.486   4.684   1.579 -1.0975  0.3206 -0.1972
 1458SOL    HW2 4695   0.491   4.798   1.462  0.5802  0.8993  0.4070
 1459SOL     OW 4696   0.773   5.103   1.154 -0.0281  0.7230  0.2082
 1459SOL    HW1 4697   0.778   5.044   1.235 -0.0127  1.6339  0.8843
 1459SOL    HW2 4698   0.709   5.178   1.171 -0.4889  0.5919 -0.8547
 1460SOL     OW 4699   0.459   5.459   1.403 -0.6869 -0.0792  0.2557
 1460SOL    HW1 4700   0.390   5.530   1.388  1.4628  2.3148  0.9421
 1460SOL    HW2 4701   0.495   5.467   1.496  1.7168 -0.0556 -0.6040
 1461SOL     OW 4702   1.612   4.556   4.759 -0.3688  0.3907 -0.1367
 1461SOL    HW1 4703   1.529   4.591   4.715  0.1486  0.1674 -1.3211
 1461SOL    HW2 4704   1.648   4.625   4.822 -2.4561 -0.1947  1.8171
 1462SOL     OW 4705   5.447   0.898   0.669  0.1691 -0.0357 -0.4513
 1462SOL    HW1 4706   5.450   0.881   0.570 -0.8283  1.0374 -0.6785
 1462SOL    HW2 4707   5.445   0.996   0.686  0.5721 -0.2058  0.6599
 1463SOL     OW 4708   5.453   0.069   0.495 -0.4473 -0.0578 -0.3163
 1463SOL    HW1 4709   5.429   0.004   0.423 -0.5600 -0.0714 -0.2666
 1463SOL    HW2 4710   5.415   0.038   0.582 -1.3680  0.6010 -0.4783
 1464SOL     OW 4711   1.195   3.756   2.252  0.3332  0.0831  0.1633
 1464SOL    HW1 4712   1.180   3.773   2.349  1.0532 -0.0001  0.2955
 1464SOL    HW2 4713   1.154   3.830   2.198 -0.3853 -0.0610  0.5095
 1465SOL     OW 4714   0.355   4.211   2.566 -0.5000 -0.3156 -0.3232
 1465SOL    HW1 4715   0.377   4.277   2.494 -1.2031 -1.2793 -1.4316
 1465SOL    HW2 4716   0.305   4.134   2.528 -0.3401 -1.1577  1.0886
 1466SOL     OW 4717   4.899   3.633   4.103 -0.7663 -0.1796 -0.1500
 1466SOL    HW1 4718   4.861   3.557   4.157  1.4392  0.1942  2.1397
 1466SOL    HW2 4719   4.877   3.720   4.147  1.3331  0.1209  0.4208
 1467SOL     OW 4720   2.233   4.646   1.248 -0.0733 -0.0773  0.1452
 1467SOL    HW1 4721   2.265   4.591   1.326 -1.8191 -0.7255  0.4508
 1467SOL    HW2 4722   2.195   4.732   1.281  0.4436  0.2563 -0.1221
 1468SOL     OW 4723   3.605   4.998   0.446 -0.4067  0.1328 -0.1439
 1468SOL    HW1 4724   3.631   4.969   0.538  0.2246  0.3716 -0.2341
 1468SOL    HW2 4725   3.686   5.034   0.399 -1.0990  1.8563 -0.0880
 1469SOL     OW 4726   1.329   3.253   5.194  0.2878  0.0057 -0.3271
 1469SOL    HW1 4727   1.265   3.321   5.161 -1.8347 -1.6158  0.2523
 1469SOL    HW2 4728   1.423   3.286   5.180 -0.5660  1.4642 -3.3520
 1470SOL     OW 4729   0.562   3.775   1.192  0.2448  0.5557  0.2595
 1470SOL    HW1 4730   0.496   3.710   1.156  1.4114 -1.3034  1.2581
 1470SOL    HW2 4731   0.561   3.771   1.292  2.1532  0.0977  0.3032
 1471SOL     OW 4732   1.558   1.386   2.440 -0.0680  0.4615 -0.3968
 1471SOL    HW1 4733   1.599   1.473   2.413  1.3169  0.3647  1.2308
 1471SOL    HW2 4734   1.491   1.402   2.513  1.9404  0.0016  1.6525
 1472SOL     OW 4735   2.411   4.419   2.288 -0.2233  0.2196 -0.3231
 1472SOL    HW1 4736   2.426   4.322   2.307 -0.8150  0.0502 -0.6947
 1472SOL    HW2 4737   2.384   4.431   2.193 -1.1464  0.6325 -0.0239
 1473SOL     OW 4738   5.379   5.460   0.294 -0.1959  0.0895  0.5761
 1473SOL    HW1 4739   5.308   5.517   0.252  0.6498  0.1331 -0.8710
 1473SOL    HW2 4740   5.357   5.364   0.279 -0.3625  0.0832  0.8529
 1474SOL     OW 4741   0.211   4.233   0.669  1.0309  0.3608 -0.5739
 1474SOL    HW1 4742   0.244   4.164   0.733  0.4404  0.5195 -0.0899
 1474SOL    HW2 4743   0.177   4.313   0.720 -0.5252  0.0113 -1.0201
 1475SOL     OW 4744   1.575   0.065   1.495  0.0652  1.0552  0.1703
 1475SOL    HW1 4745   1.538   0.158   1.492 -1.3912  0.5750  1.6141
 1475SOL    HW2 4746   1.597   0.041   1.590  2.7099  0.7267 -0.4353
 1476SOL     OW 4747   1.584   3.275   5.097  0.0255  0.0987 -0.3046
 1476SOL    HW1 4748   1.652   3.267   5.170  0.3284 -0.1724 -0.6173
 1476SOL    HW2 4749   1.602   3.207   5.026  1.0125  1.7335 -1.6761
 1477SOL     OW 4750   1.506   0.398   1.508  0.1039 -0.0879  0.6701
 1477SOL    HW1 4751   1.555   0.481   1.480 -0.1625 -0.6312 -1.6630
 1477SOL    HW2 4752   1.410   0.405   1.480 -0.0746 -0.8977  1.0452
 1478SOL     OW 4753   3.290   3.757   1.837 -0.5986  0.4137 -1.0897
 1478SOL    HW1 4754   3.273   3.837   1.779 -0.7955  0.1527 -1.3997
 1478SOL    HW2 4755   3.384   3.761   1.872 -0.7589  1.0133 -0.7254
 1479SOL     OW 4756   1.050   5.027   1.051  0.1807 -0.4700  0.3031
 1479SOL    HW1 4757   1.104   4.944   1.038  1.0290  0.2595 -1.0405
 1479SOL    HW2 4758   0.964   5.019   1.000  0.1276 -0.6427  0.4199
 1480SOL     OW 4759   5.485   5.000   0.915  0.1313  0.4667 -0.4335
 1480SOL    HW1 4760   5.555   4.995   0.844  1.1495  1.0184  0.4929
 1480SOL    HW2 4761   5.528   4.987   1.005 -1.4264 -2.5563 -0.0014
 1481SOL     OW 4762   2.087   5.461   0.478 -0.0506  0.4145  0.2968
 1481SOL    HW1 4763   2.050   5.425   0.392 -0.6395  0.8723  0.3465
 1481SOL    HW2 4764   2.186   5.464   0.473 -0.1119  1.4406 -0.7951
 1482SOL     OW 4765   2.214   4.641   2.833 -0.0227 -0.5650  0.4810
 1482SOL    HW1 4766   2.141   4.640   2.764  0.2813 -0.4154  0.1577
 1482SOL    HW2 4767   2.246   4.735   2.846 -0.4342 -0.5155  1.2069
 1483SOL     OW 4768   3.040   2.528   0.134 -0.0206  0.3876 -0.1812
 1483SOL    HW1 4769   3.073   2.464   0.203 -0.9077  0.5333  0.3866
 1483SOL    HW2 4770   3.012   2.477   0.053  2.7838  0.3314 -1.2379
 1484SOL     OW 4771   2.403   4.294   5.477  0.4718 -0.2256 -0.1152
 1484SOL    HW1 4772   2.308   4.295   5.446  0.7196 -1.1017 -0.9404
 1484SOL    HW2 4773   2.444   4.384   5.461 -0.3901  0.3621  0.8439
 1485SOL     OW 4774   0.594   4.875   1.085 -0.3756  0.0323 -0.2614
 1485SOL    HW1 4775   0.689   4.845   1.098 -0.7015 -1.2077 -0.5839
 1485SOL    HW2 4776   0.542   4.859   1.169 -0.6339 -0.6690 -0.5452
 1486SOL     OW 4777   4.889   5.344   3.336 -0.5708 -0.2921 -0.7260
 1486SOL    HW1 4778   4.871   5.306   3.427 -2.1831  1.1385 -0.3934
 1486SOL    HW2 4779   4.804   5.383   3.299  0.8013  2.3360 -1.3250
 1487SOL     OW 4780   1.879   5.212   2.716  0.3772  0.0601 -0.2170
 1487SOL    HW1 4781   1.898   5.301   2.758  0.7731 -0.5786  0.9781
 1487SOL    HW2 4782   1.956   5.185   2.658  0.4108  0.3256 -0.2967
 1488SOL     OW 4783   1.614   3.499   1.151  0.1330 -0.5345 -0.2841
 1488SOL    HW1 4784   1.590   3.578   1.207  2.7080 -0.4507  0.8581
 1488SOL    HW2 4785   1.562   3.419   1.183 -0.3048  0.0559  0.5253
 1489SOL     OW 4786   0.885   5.220   2.385  0.1263  0.6267  0.3604
 1489SOL    HW1 4787   0.825   5.181   2.315  0.2313 -0.0409  0.6308
 1489SOL    HW2 4788   0.829   5.252   2.462  0.0790  0.4099  0.4187
 1490SOL     OW 4789   1.862   4.257   1.226 -0.0340  0.1439  0.2707
 1490SOL    HW1 4790   1.942   4.316   1.208  0.3040  0.0800  1.4819
 1490SOL    HW2 4791   1.832   4.215   1.141  1.8616 -0.6227 -0.0717
 1491SOL     OW 4792   0.114   4.565   2.228 -0.5804  0.5553  0.3928
 1491SOL    HW1 4793   0.172   4.561   2.146  0.4959 -1.5059  1.1827
 1491SOL    HW2 4794   0.019   4.546   2.202 -0.4508  1.1095 -0.5284
 1492SOL     OW 4795   1.176   5.388   0.336  0.3630 -0.8147 -0.6236
 1492SOL    HW1 4796   1.166   5.330   0.416  2.0817 -2.4199 -1.4996
 1492SOL    HW2 4797   1.272   5.410   0.321 -0.1213  1.3139 -1.0203
 1493SOL     OW 4798   0.277   2.346   1.519 -0.4818  0.2588 -0.0229
 1493SOL    HW1 4799   0.345   2.398   1.571 -0.5610 -0.3691  0.7253
 1493SOL    HW2 4800   0.190   2.396   1.520 -1.4198 -1.1647  3.2215
 1494SOL     OW 4801   1.855   3.293   4.925  0.2989 -1.0082  0.2192
 1494SOL    HW1 4802   1.849   3.233   4.845 -0.4193 -0.3737 -0.2190
 1494SOL    HW2 4803   1.768   3.339   4.939  0.6842 -0.4403  0.8427
 1495SOL     OW 4804   1.020   5.299   0.834 -0.3837  0.1557 -0.5563
 1495SOL    HW1 4805   0.935   5.253   0.804 -0.7511 -0.0288  0.7299
 1495SOL    HW2 4806   1.013   5.322   0.931  0.5372  1.3147 -0.7481
 1496SOL     OW 4807   0.297   5.295   5.393  0.0093 -0.2534  0.3292
 1496SOL    HW1 4808   0.298   5.395   5.389 -0.6638 -0.3014 -1.6924
 1496SOL    HW2 4809   0.269   5.266   5.485  0.4392  1.3966  1.0109
 1497SOL     OW 4810   0.685   3.404   4.804  0.1488  0.1614 -0.0381
 1497SOL    HW1 4811   0.722   3.356   4.724 -0.7083 -0.4706 -0.0734
 1497SOL    HW2 4812   0.593   3.437   4.783 -0.5582 -1.0228  1.0345
 1498SOL     OW 4813   2.114   3.816   2.193  0.1735 -0.7204 -0.0833
 1498SOL    HW1 4814   2.117   3.905   2.147  1.2367 -1.3924 -1.3958
 1498SOL    HW2 4815   2.174   3.818   2.273  2.1429 -0.9470 -1.4883
 1499SOL     OW 4816   1.387   4.718   0.174  0.5840  0.2441 -0.5965
 1499SOL    HW1 4817   1.362   4.808   0.137  0.9913  0.9183  0.6936
 1499SOL    HW2 4818   1.356   4.712   0.269  0.2210 -1.1453 -0.7770
 1500SOL     OW 4819   0.342   3.769   0.810  0.0230 -0.4969  0.7519
 1500SOL    HW1 4820   0.413   3.734   0.749  2.0882  0.4947  2.4776
 1500SOL    HW2 4821   0.372   3.760   0.905 -1.3338  1.6997  1.4645
 1501SOL     OW 4822   0.864   0.853   5.055 -0.5313 -0.6656 -0.4909
 1501SOL    HW1 4823   0.896   0.822   5.144 -0.9101 -0.4427 -0.2688
 1501SOL    HW2 4824   0.783   0.912   5.068 -0.5942 -0.6391 -0.9799
 1502SOL     OW 4825   4.614   5.308   4.416  0.1382 -0.5020  0.0223
 1502SOL    HW1 4826   4.677   5.272   4.484 -0.4597  0.2735  1.0134
 1502SOL    HW2 4827   4.521   5.308   4.453  0.0492  1.6455 -0.0826
 1503SOL     OW 4828   0.372   5.061   2.999  0.7785 -0.8517  0.1834
 1503SOL    HW1 4829   0.443   5.097   2.939  0.1718  1.6047  0.8205
 1503SOL    HW2 4830   0.413   5.007   3.072  1.7732 -1.2462 -0.6434
 1504SOL     OW 4831   4.879   3.189   1.468 -0.2051 -0.0237  0.1119
 1504SOL    HW1 4832   4.866   3.167   1.371  0.7511  2.2195 -0.5985
 1504SOL    HW2 4833   4.860   3.286   1.483 -1.1454 -0.5027  2.3726
 1505SOL     OW 4834   5.262   2.609   3.768 -0.6289  0.1427 -0.0581
 1505SOL    HW1 4835   5.332   2.617   3.840  0.1114 -0.7401 -0.6417
 1505SOL    HW2 4836   5.172   2.627   3.807 -0.2593 -0.4193  1.1281
 1506SOL     OW 4837   5.351   0.020   3.394  0.3963 -0.5157 -0.3292
 1506SOL    HW1 4838   5.296   0.101   3.415 -0.2652 -1.2479  0.8755
 1506SOL    HW2 4839   5.292  -0.061   3.391  1.0493 -0.9831 -1.4992
 1507SOL     OW 4840   0.696   3.530   3.162  0.0786 -0.4380 -0.4926
 1507SOL    HW1 4841   0.689   3.446   3.108  0.9667 -0.7234 -0.1734
 1507SOL    HW2 4842   0.663   3.607   3.107 -1.6626 -1.1053 -0.4578
 1508SOL     OW 4843   2.025   0.419   2.592 -0.0864 -0.3683  0.8317
 1508SOL    HW1 4844   2.104   0.452   2.540  0.0531  1.1598  1.9264
 1508SOL    HW2 4845   1.942   0.463   2.557 -0.1476 -0.2519  1.1206
 1509SOL     OW 4846   4.959   2.420   1.944  0.4743  0.4013  0.3197
 1509SOL    HW1 4847   4.879   2.411   2.002 -0.0403  1.4342 -0.2031
 1509SOL    HW2 4848   4.935   2.473   1.862  1.6411  0.5641  0.0673
 1510SOL     OW 4849   3.165   4.264   0.441 -0.1335  0.3381  0.2255
 1510SOL    HW1 4850   3.234   4.193   0.425 -2.7416 -2.8153  1.8456
 1510SOL    HW2 4851   3.166   4.291   0.538 -0.5116  1.0588  0.0414
 1511SOL     OW 4852   4.960   3.189   3.213 -0.2412  0.3614  0.7534
 1511SOL    HW1 4853   4.927   3.284   3.215  0.6760  0.6791  1.3700
 1511SOL    HW2 4854   4.999   3.170   3.123 -2.1075 -0.0499 -0.0279
 1512SOL     OW 4855   5.516   1.224   2.805 -0.1364 -0.8993 -0.0559
 1512SOL    HW1 4856   5.489   1.168   2.726  1.9322  0.0694 -1.5329
 1512SOL    HW2 4857   5.596   1.185   2.848  0.2196 -0.1019  0.0313
 1513SOL     OW 4858   4.747   1.162   3.485  0.4944  0.2322 -0.1971
 1513SOL    HW1 4859   4.830   1.141   3.536  0.6582  2.3368  0.4892
 1513SOL    HW2 4860   4.668   1.119   3.528  0.7312  1.3874  1.4864
 1514SOL     OW 4861   1.471   4.139   3.687 -0.6355 -0.3163 -0.0832
 1514SOL    HW1 4862   1.521   4.179   3.611 -0.6543 -0.5194 -0.2034
 1514SOL    HW2 4863   1.478   4.039   3.682  1.3965 -0.3308  1.5152
 1515SOL     OW 4864   4.246   5.143   2.848  0.0979  0.1749  0.4439
 1515SOL    HW1 4865   4.337   5.104   2.866  1.8313  1.5963 -3.9630
 1515SOL    HW2 4866   4.191   5.077   2.796  0.0054  0.6418 -0.0575
 1516SOL     OW 4867   2.086   3.865   3.346 -0.2488 -0.4895  0.0177
 1516SOL    HW1 4868   2.024   3.801   3.390  0.0568 -1.1795 -0.5361
 1516SOL    HW2 4869   2.129   3.821   3.267  0.6827  0.0931  0.1903
 1517SOL     OW 4870   1.118   3.746   1.660  0.0750 -0.2854  0.0553
 1517SOL    HW1 4871   1.022   3.773   1.670  0.4431  0.9183  0.3824
 1517SOL    HW2 4872   1.142   3.682   1.733 -0.4121 -0.4470  0.0825
 1518SOL     OW 4873   0.839   3.661   4.896 -0.2017 -0.5780 -0.5240
 1518SOL    HW1 4874   0.902   3.583   4.889 -0.1443 -0.6490  0.5433
 1518SOL    HW2 4875   0.888   3.740   4.932 -0.3895 -0.2010 -1.0875
 1519SOL     OW 4876   2.936   0.634   2.177  0.0866  0.0403 -0.3003
 1519SOL    HW1 4877   2.851   0.590   2.206  1.1420 -1.2407  1.0410
 1519SOL    HW2 4878   2.915   0.717   2.126 -1.9878 -1.3746 -1.9455
 1520SOL     OW 4879   1.227   1.593   1.998 -0.1603  0.3763 -0.2069
 1520SOL    HW1 4880   1.147   1.566   2.051 -1.1035  1.6558 -0.9227
 1520SOL    HW2 4881   1.210   1.681   1.954  0.8240 -0.3415 -2.1399
 1521SOL     OW 4882   0.938   4.727   3.516  1.1496 -0.2082 -0.3018
 1521SOL    HW1 4883   1.009   4.749   3.449  1.2942  1.1880  0.2885
 1521SOL    HW2 4884   0.860   4.788   3.503  0.1699 -1.4978 -0.7105
 1522SOL     OW 4885   2.051   4.006   1.701 -0.6956  0.1848 -0.0613
 1522SOL    HW1 4886   2.121   3.963   1.757 -1.4790  0.7853  1.4185
 1522SOL    HW2 4887   2.014   3.939   1.637  0.1703 -0.5316  0.1626
 1523SOL     OW 4888   1.296   4.414   4.092 -0.0759  0.0169  0.1955
 1523SOL    HW1 4889   1.346   4.379   4.013  0.8115  0.4975  0.5317
 1523SOL    HW2 4890   1.326   4.508   4.112 -1.5553  0.5648  0.0315
 1524SOL     OW 4891   5.513   5.310   0.727 -0.1936  0.2430 -0.3991
 1524SOL    HW1 4892   5.607   5.324   0.697 -0.9187  1.3972 -2.2505
 1524SOL    HW2 4893   5.475   5.229   0.682 -0.8613  1.2137 -1.6172
 1525SOL     OW 4894   1.047   0.160   2.935 -0.2751 -0.0658  0.4621
 1525SOL    HW1 4895   1.090   0.183   2.848 -0.1811  1.7209  0.9324
 1525SOL    HW2 4896   0.952   0.191   2.934  0.0546  1.0436  1.3891
 1526SOL     OW 4897   4.693   0.882   2.996 -0.1452  0.0466 -0.2073
 1526SOL    HW1 4898   4.648   0.804   3.039 -0.6284 -0.4832 -1.6316
 1526SOL    HW2 4899   4.753   0.927   3.063 -0.8415 -0.7553  0.9923
 1527SOL     OW 4900   2.700   5.019   4.736  0.0830 -0.1398 -0.3304
 1527SOL    HW1 4901   2.626   4.958   4.765 -0.5368  0.6644 -0.1975
 1527SOL    HW2 4902   2.738   5.064   4.816  0.5253 -0.3321 -0.4318
 1528SOL     OW 4903   2.372   3.249   1.139  0.5762 -0.6583  0.3635
 1528SOL    HW1 4904   2.403   3.328   1.192 -1.7823  1.4803 -1.2014
 1528SOL    HW2 4905   2.296   3.204   1.187 -0.2694  0.0852 -0.2563
 1529SOL     OW 4906   3.853   3.159   1.727 -0.3696 -0.9380 -0.8256
 1529SOL    HW1 4907   3.950   3.145   1.709  0.0018 -0.3987  0.6829
 1529SOL    HW2 4908   3.837   3.165   1.825 -1.3130  3.1240 -1.0561
 1530SOL     OW 4909   4.477   2.864   3.170  0.0924 -0.2078 -0.1936
 1530SOL    HW1 4910   4.473   2.817   3.258  1.1963  0.9776  0.5265
 1530SOL    HW2 4911   4.557   2.833   3.119  1.8487  1.9896  1.0231
 1531SOL     OW 4912   0.860   3.364   5.234  0.0784  0.3319  0.0448
 1531SOL    HW1 4913   0.901   3.274   5.253  1.4049  0.6369 -1.2015
 1531SOL    HW2 4914   0.801   3.358   5.154 -2.0787  0.0023  1.5648
 1532SOL     OW 4915   5.103   3.869   2.240  0.3515  0.1054 -0.2303
 1532SOL    HW1 4916   5.061   3.789   2.197  0.3157  0.2255 -0.4182
 1532SOL    HW2 4917   5.046   3.897   2.318  0.8319 -0.5841  0.3837
 1533SOL     OW 4918   5.102   0.747   1.640  0.5503  0.2057  0.0810
 1533SOL    HW1 4919   5.040   0.686   1.690  0.3518 -0.0760 -0.4930
 1533SOL    HW2 4920   5.196   0.714   1.649  0.2138 -1.8753 -2.4556
 1534SOL     OW 4921   1.266   3.082   5.397 -0.2636  0.1774 -0.0846
 1534SOL    HW1 4922   1.307   3.161   5.351  1.3488  0.0555  1.0485
 1534SOL    HW2 4923   1.324   3.002   5.383 -2.0017 -0.9085 -1.4135
 1535SOL     OW 4924   2.311   0.364   4.781 -0.5767 -0.3241  0.5319
 1535SOL    HW1 4925   2.352   0.340   4.694  1.6728  1.5876  0.9660
 1535SOL    HW2 4926   2.234   0.426   4.766 -1.4440 -1.5385 -0.1542
 1536SOL     OW 4927   5.186   4.647   3.629 -0.1400 -0.0916  0.4906
 1536SOL    HW1 4928   5.233   4.570   3.585  0.1046  0.6117 -0.5271
 1536SOL    HW2 4929   5.088   4.627   3.633  0.0585 -0.9553  1.3220
 1537SOL     OW 4930   0.787   4.942   3.475  0.3115  0.1609 -0.6703
 1537SOL    HW1 4931   0.704   4.943   3.530  0.7454 -1.0018  0.0565
 1537SOL    HW2 4932   0.779   5.008   3.400 -1.0634  0.3940 -0.3423
 1538SOL     OW 4933   1.910   3.937   2.836  0.3288 -0.2443 -0.5411
 1538SOL    HW1 4934   1.891   3.841   2.817 -4.0684  0.1939  0.5508
 1538SOL    HW2 4935   1.967   3.944   2.918 -1.2601 -1.9897  0.7989
 1539SOL     OW 4936   1.924   5.159   4.252  0.0842 -0.4956  0.0683
 1539SOL    HW1 4937   1.931   5.255   4.223  0.4546 -1.1386 -2.1787
 1539SOL    HW2 4938   1.855   5.150   4.324 -1.1320  1.2206 -0.8221
 1540SOL     OW 4939   1.704   2.564   0.917  0.0340 -0.1644  0.3720
 1540SOL    HW1 4940   1.692   2.475   0.962  1.1344 -0.6407 -0.2365
 1540SOL    HW2 4941   1.616   2.612   0.913 -0.6844 -1.4597  0.2103
 1541SOL     OW 4942   1.659   3.801   2.989 -0.7087  0.3891  0.3682
 1541SOL    HW1 4943   1.667   3.840   2.897 -0.0791  2.0189  1.0802
 1541SOL    HW2 4944   1.685   3.870   3.057 -3.3271 -0.0178  1.9240
 1542SOL     OW 4945   1.509   3.619   3.110  0.1650  0.3025 -0.8285
 1542SOL    HW1 4946   1.575   3.686   3.075 -0.0539 -0.5812 -3.0802
 1542SOL    HW2 4947   1.417   3.655   3.101  0.0715 -0.1310 -1.7154
 1543SOL     OW 4948   1.775   2.298   3.229 -0.1491  0.1371 -0.3092
 1543SOL    HW1 4949   1.758   2.374   3.291 -1.1075 -0.7809  0.6026
 1543SOL    HW2 4950   1.691   2.274   3.180 -0.0734 -0.8003 -0.0112
 1544SOL     OW 4951   1.657   4.300   4.458 -0.1405  0.2017 -0.1400
 1544SOL    HW1 4952   1.657   4.351   4.372  0.5000  0.3226 -0.0711
 1544SOL    HW2 4953   1.712   4.348   4.526 -1.6394  0.7436  0.7289
 1545SOL     OW 4954   5.430   2.297   2.744 -0.6524 -0.0377 -0.4472
 1545SOL    HW1 4955   5.480   2.212   2.731 -0.2167  0.2509 -0.6872
 1545SOL    HW2 4956   5.453   2.337   2.832 -0.0409  0.3682 -0.7852
 1546SOL     OW 4957   4.592   5.141   2.522  0.2803 -0.2461  0.2634
 1546SOL    HW1 4958   4.588   5.051   2.565 -1.8302 -1.2674 -1.8906
 1546SOL    HW2 4959   4.499   5.178   2.514  1.0991  2.1872  1.1249
 1547SOL     OW 4960   0.486   4.699   2.020 -0.1872 -0.3520  0.0481
 1547SOL    HW1 4961   0.542   4.753   1.957 -0.2866  0.8130  0.9265
 1547SOL    HW2 4962   0.432   4.760   2.077 -1.8842 -1.4323 -0.3291
 1548SOL     OW 4963   0.942   0.278   5.303  0.0511  0.3838 -0.5345
 1548SOL    HW1 4964   0.926   0.307   5.398  1.4345 -1.0086  0.1752
 1548SOL    HW2 4965   1.033   0.308   5.274  0.7672 -1.5301 -0.4146
 1549SOL     OW 4966   2.002   4.436   4.010 -0.5493 -0.3040  0.1367
 1549SOL    HW1 4967   2.090   4.392   4.026 -1.2918 -1.8769  0.0932
 1549SOL    HW2 4968   2.017   4.529   3.978  1.0740 -0.1916  1.0841
 1550SOL     OW 4969   1.533   0.074   3.931  0.3901 -0.0482 -0.2409
 1550SOL    HW1 4970   1.493   0.097   3.842 -0.1037  1.4899  0.3541
 1550SOL    HW2 4971   1.464   0.084   4.003  1.3442  0.8733  0.5799
 1551SOL     OW 4972   0.673   3.881   3.264  0.2143  0.2706  0.4682
 1551SOL    HW1 4973   0.673   3.831   3.350  0.4771 -0.0865  0.2636
 1551SOL    HW2 4974   0.609   3.957   3.270  0.1623  0.1934  0.9462
 1552SOL     OW 4975   0.860   3.816   1.693  0.0855  0.1484  0.0140
 1552SOL    HW1 4976   0.851   3.834   1.595  1.6419 -0.1630 -0.2084
 1552SOL    HW2 4977   0.838   3.899   1.744  1.0594  0.8667 -0.6984
 1553SOL     OW 4978   0.255   5.017   2.504  0.5890 -0.1507  0.6438
 1553SOL    HW1 4979   0.242   5.087   2.433  0.2163  0.3188  1.1667
 1553SOL    HW2 4980   0.212   5.047   2.589 -0.9095 -1.6472  0.4899
 1554SOL     OW 4981   2.148   1.664   3.263  0.0500 -0.4965 -0.3576
 1554SOL    HW1 4982   2.055   1.631   3.273  0.2531 -0.9664  0.0479
 1554SOL    HW2 4983   2.211   1.587   3.262  0.5757 -0.1370  1.1014
 1555SOL     OW 4984   5.250   4.887   2.071 -0.2699  0.0472 -0.4817
 1555SOL    HW1 4985   5.343   4.906   2.100 -0.6023 -1.7586  2.1739
 1555SOL    HW2 4986   5.251   4.830   1.989  0.9733 -0.2264 -0.2915
 1556SOL     OW 4987   1.113   0.012   3.789 -0.3600  0.1935 -0.9565
 1556SOL    HW1 4988   1.071  -0.056   3.730 -1.4590  0.0977 -0.0907
 1556SOL    HW2 4989   1.087   0.104   3.758 -0.9404  0.1435 -0.6123
 1557SOL     OW 4990   0.929   2.570   0.049 -0.5536 -0.6333 -0.3443
 1557SOL    HW1 4991   0.849   2.523   0.088 -0.0694 -0.9077  0.3283
 1557SOL    HW2 4992   0.979   2.617   0.122  0.6346 -1.5425 -0.5506
 1558SOL     OW 4993   2.420   2.762   1.514  0.2132  0.4902 -0.5025
 1558SOL    HW1 4994   2.405   2.689   1.581 -0.9937 -0.2121 -1.4997
 1558SOL    HW2 4995   2.384   2.848   1.550 -1.7240 -0.1619 -0.7684
 1559SOL     OW 4996   0.029   0.287   4.499  0.2900 -0.2690 -0.2241
 1559SOL    HW1 4997   0.104   0.305   4.436 -0.1936 -0.7599 -0.9570
 1559SOL    HW2 4998   0.065   0.253   4.586  1.0809  2.0566  0.4294
 1560SOL     OW 4999   5.145   4.943   1.388 -0.5682 -0.1838 -0.5443
 1560SOL    HW1 5000   5.138   4.896   1.300  1.1403 -0.0288 -0.8126
 1560SOL    HW2 5001   5.235   4.988   1.394 -0.0422 -1.3831  1.8397
 1561SOL     OW 5002   4.693   3.168   2.046  0.9112 -0.1464  0.5432
 1561SOL    HW1 5003   4.720   3.260   2.019 -1.5534  1.4286  2.9586
 1561SOL    HW2 5004   4.646   3.123   1.970  0.6865  1.2085 -0.1363
 1562SOL     OW 5005   0.941   1.307   2.051 -0.1899 -0.3641  0.3052
 1562SOL    HW1 5006   0.914   1.294   2.147  0.5470 -0.1286  0.5519
 1562SOL    HW2 5007   1.039   1.328   2.047 -0.1222 -0.8212 -0.5383
 1563SOL     OW 5008   4.789   3.192   1.201 -0.1380  0.7360  0.2661
 1563SOL    HW1 5009   4.833   3.154   1.120  1.5467 -1.4661  2.0962
 1563SOL    HW2 5010   4.754   3.284   1.179 -0.1300  0.0913 -3.0039
 1564SOL     OW 5011   1.608   4.179   1.872  0.1955 -0.7810  0.0318
 1564SOL    HW1 5012   1.580   4.083   1.863 -0.8456 -0.3104 -2.7429
 1564SOL    HW2 5013   1.534   4.231   1.915  0.0861 -0.9103  0.0008
 1565SOL     OW 5014   4.604   0.672   3.144 -0.0231 -0.2456  0.7755
 1565SOL    HW1 5015   4.524   0.684   3.085 -0.7197  0.2895  1.7920
 1565SOL    HW2 5016   4.580   0.615   3.222  0.9716 -1.1987  0.4036
 1566SOL     OW 5017   2.320   3.977   1.778 -0.2107 -0.2964  0.5827
 1566SOL    HW1 5018   2.378   3.896   1.777  2.6818  1.6473  0.3953
 1566SOL    HW2 5019   2.306   4.009   1.684 -1.2575 -0.4927  0.6610
 1567SOL     OW 5020   0.419   3.787   1.770 -0.1896  0.3092 -0.3641
 1567SOL    HW1 5021   0.497   3.829   1.818 -0.3233  2.3642 -1.8122
 1567SOL    HW2 5022   0.440   3.780   1.673 -0.9768 -1.2630 -0.4555
 1568SOL     OW 5023   2.783   4.769   5.005 -0.6793  0.0928 -0.4218
 1568SOL    HW1 5024   2.859   4.764   5.069 -1.1247  0.1835  0.1137
 1568SOL    HW2 5025   2.819   4.772   4.911 -0.0517 -1.7151 -0.2809
 1569SOL     OW 5026   1.522   3.124   1.465  0.0511 -0.1204 -0.3612
 1569SOL    HW1 5027   1.520   3.033   1.505 -0.1163 -0.5229 -1.2618
 1569SOL    HW2 5028   1.514   3.193   1.537  2.3023 -0.7433  0.5599
 1570SOL     OW 5029   1.167   2.983   3.120 -0.1024 -0.2176  0.6188
 1570SOL    HW1 5030   1.155   2.896   3.072 -3.1415  1.2021 -1.5485
 1570SOL    HW2 5031   1.079   3.029   3.129  1.5571  3.5264 -0.1003
 1571SOL     OW 5032   1.194   4.384   2.361 -0.1682 -0.0789 -0.5450
 1571SOL    HW1 5033   1.171   4.286   2.354 -0.4221  0.0594 -1.8359
 1571SOL    HW2 5034   1.140   4.436   2.296 -0.5055  1.0336  0.5738
 1572SOL     OW 5035   1.923   4.884   4.254 -0.8576  0.4326 -0.1710
 1572SOL    HW1 5036   1.926   4.984   4.254 -0.0830  0.4202 -0.9864
 1572SOL    HW2 5037   1.830   4.853   4.272 -1.3815  1.3150 -1.2878
 1573SOL     OW 5038   0.664   1.546   2.215 -0.3925 -0.3709 -0.1956
 1573SOL    HW1 5039   0.707   1.627   2.175  0.1116 -0.4387  0.1979
 1573SOL    HW2 5040   0.633   1.568   2.308 -1.7218 -0.1580 -0.6726
 1574SOL     OW 5041   0.257   3.267   2.882  0.0122  0.3633  0.0644
 1574SOL    HW1 5042   0.221   3.289   2.973  0.7921 -1.1261  0.7598
 1574SOL    HW2 5043   0.196   3.202   2.837  0.1774  0.2878 -0.0494
 1575SOL     OW 5044   1.807   2.955   1.311 -0.0360 -0.0809  0.0249
 1575SOL    HW1 5045   1.794   3.051   1.284  0.4020 -0.2516 -0.8345
 1575SOL    HW2 5046   1.870   2.951   1.389 -0.7507  0.3823  0.6318
 1576SOL     OW 5047   1.356   5.041   3.123  0.6518  0.1161 -0.1540
 1576SOL    HW1 5048   1.404   5.120   3.086 -1.1864  1.8225  0.8913
 1576SOL    HW2 5049   1.290   5.008   3.055  1.9678 -1.1017 -0.9011
 1577SOL     OW 5050   5.297   3.378   1.721  0.5788 -0.0141 -0.3107
 1577SOL    HW1 5051   5.326   3.441   1.649 -0.8132 -0.2960 -1.1496
 1577SOL    HW2 5052   5.267   3.292   1.680 -0.7787  0.0220  0.5554
 1578SOL     OW 5053   1.583   2.631   1.703 -0.0882  0.4918  0.2656
 1578SOL    HW1 5054   1.642   2.588   1.635  1.4477  1.7199  0.7592
 1578SOL    HW2 5055   1.592   2.584   1.790 -2.2338 -1.2289 -0.3515
 1579SOL     OW 5056   1.199   4.245   2.623 -0.0516  0.7171  0.0812
 1579SOL    HW1 5057   1.225   4.326   2.570 -2.6341  0.5226 -1.6698
 1579SOL    HW2 5058   1.175   4.171   2.560 -0.5774 -0.4535  1.6059
 1580SOL     OW 5059   0.566   5.361   2.573  0.3245  0.3343  0.0441
 1580SOL    HW1 5060   0.584   5.340   2.477 -0.2969  1.0523 -0.2300
 1580SOL    HW2 5061   0.645   5.408   2.612  0.5161  0.1788 -0.1493
 1581SOL     OW 5062   0.653   4.171   2.698  0.1041 -0.2493 -0.1173
 1581SOL    HW1 5063   0.701   4.193   2.783 -1.9355 -2.0422  1.6316
 1581SOL    HW2 5064   0.594   4.248   2.673  0.2599  0.0678  0.4456
 1582SOL     OW 5065   2.714   5.062   5.497  0.0793 -0.1156  0.4431
 1582SOL    HW1 5066   2.692   4.971   5.463  0.6731 -0.0190 -0.2414
 1582SOL    HW2 5067   2.666   5.130   5.441 -0.5996 -0.0121  1.1410
 1583SOL     OW 5068   0.575   3.977   1.923 -0.2969 -0.2093  0.4040
 1583SOL    HW1 5069   0.658   4.012   1.880 -0.7395 -1.3487 -1.5232
 1583SOL    HW2 5070   0.597   3.943   2.014  1.0037  0.9369  0.5654
 1584SOL     OW 5071   4.450   4.976   1.283  0.0544 -0.3753 -0.3447
 1584SOL    HW1 5072   4.481   4.902   1.224  1.6708  0.0638 -0.1194
 1584SOL    HW2 5073   4.373   4.946   1.338 -1.0339 -1.0223 -2.1365
 1585SOL     OW 5074   1.120   3.661   4.111  0.5039  0.0423  0.3745
 1585SOL    HW1 5075   1.054   3.586   4.103 -1.3276  1.5934  0.3536
 1585SOL    HW2 5076   1.109   3.707   4.198  1.3437  0.5542  0.2250
 1586SOL     OW 5077   4.992   4.077   2.941  0.0058 -0.0162 -0.4436
 1586SOL    HW1 5078   4.987   4.176   2.926 -1.7384 -0.1149 -0.7399
 1586SOL    HW2 5079   4.904   4.045   2.976  0.8056 -1.3603  0.4049
 1587SOL     OW 5080   0.698   2.554   3.684  0.6406 -0.5424 -0.2670
 1587SOL    HW1 5081   0.634   2.538   3.759 -0.5470 -1.1468 -1.3730
 1587SOL    HW2 5082   0.722   2.651   3.681 -1.8686  0.1515 -1.0392
 1588SOL     OW 5083   1.885   4.137   3.701  0.3089 -0.2019  0.0603
 1588SOL    HW1 5084   1.955   4.207   3.694  0.8648 -0.7946 -0.4829
 1588SOL    HW2 5085   1.845   4.138   3.793  0.7611  0.3897  0.2521
 1589SOL     OW 5086   0.363   3.606   4.155  0.0819 -0.1104  0.3629
 1589SOL    HW1 5087   0.331   3.680   4.095  2.0628  0.7995  0.3479
 1589SOL    HW2 5088   0.328   3.620   4.247  0.8018  1.1566  0.4719
 1590SOL     OW 5089   0.332   4.564   1.054 -0.3395 -0.2264  0.3501
 1590SOL    HW1 5090   0.330   4.466   1.034  3.3928 -0.2481 -0.8307
 1590SOL    HW2 5091   0.373   4.578   1.145 -1.1377  0.2447  0.6426
 1591SOL     OW 5092   0.229   3.503   3.516  0.4640 -0.3685  0.4350
 1591SOL    HW1 5093   0.221   3.443   3.596  0.8454 -0.6285  0.2808
 1591SOL    HW2 5094   0.292   3.578   3.536 -0.6177  0.4423  0.8999
 1592SOL     OW 5095   5.186   4.884   2.374 -0.5383 -0.1039  0.3970
 1592SOL    HW1 5096   5.206   4.852   2.281  0.1745 -2.0549  1.1707
 1592SOL    HW2 5097   5.271   4.910   2.419 -0.4088 -2.2719  1.5413
 1593SOL     OW 5098   1.536   3.524   2.767 -0.0915 -0.2981 -0.5022
 1593SOL    HW1 5099   1.546   3.450   2.834  0.6215 -1.0102 -1.3769
 1593SOL    HW2 5100   1.547   3.488   2.675 -1.5528  0.5874 -1.0528
 1594SOL     OW 5101   1.667   3.182   0.263  0.1359 -0.0514 -0.6817
 1594SOL    HW1 5102   1.647   3.250   0.192 -2.9551  0.1565  0.2523
 1594SOL    HW2 5103   1.605   3.104   0.253  0.8810 -0.8648  0.7017
 1595SOL     OW 5104   2.604   4.390   4.724 -0.0345  0.1848 -0.0353
 1595SOL    HW1 5105   2.553   4.472   4.700  1.9410  1.4215 -0.3095
 1595SOL    HW2 5106   2.566   4.310   4.677 -0.6309  1.3430 -1.5699
 1596SOL     OW 5107   5.050   4.881   4.127  0.2894 -0.2276 -1.2890
 1596SOL    HW1 5108   5.140   4.904   4.089  1.2077  0.4086  1.0512
 1596SOL    HW2 5109   5.060   4.805   4.192 -0.6333  0.5383 -0.2116
 1597SOL     OW 5110   1.398   5.546   4.542 -0.0918 -0.1712  0.8065
 1597SOL    HW1 5111   1.413   5.451   4.568 -0.4490  0.0396  1.8439
 1597SOL    HW2 5112   1.432   5.561   4.449 -0.8891 -1.5370  0.2611
 1598SOL     OW 5113   1.342   0.046   4.140 -0.1816  0.3328  0.2528
 1598SOL    HW1 5114   1.279  -0.028   4.115  0.0750  0.3039 -0.3308
 1598SOL    HW2 5115   1.290   0.127   4.166 -0.5252 -0.6266  2.8378
 1599SOL     OW 5116   4.568   4.364   4.778 -0.0763  0.0759 -0.3598
 1599SOL    HW1 5117   4.546   4.354   4.875 -0.8062 -3.5725 -0.7362
 1599SOL    HW2 5118   4.484   4.354   4.724  0.7420 -1.3116 -1.4350
 1600SOL     OW 5119   5.125   4.508   4.121  0.2503 -0.3152 -0.1654
 1600SOL    HW1 5120   5.147   4.577   4.191  0.7217 -0.8928  0.2604
 1600SOL    HW2 5121   5.155   4.418   4.152 -0.5226 -0.7464 -0.6457
 1601SOL     OW 5122   0.854   3.496   3.721 -0.0964 -0.0931  0.1253
 1601SOL    HW1 5123   0.766   3.449   3.729 -0.7521  0.7628 -1.6423
 1601SOL    HW2 5124   0.910   3.452   3.651  0.0965  0.5311 -0.1190
 1602SOL     OW 5125   0.651   2.982   1.641  0.1454  0.5976 -0.5070
 1602SOL    HW1 5126   0.647   2.887   1.611  1.3412 -0.1098  1.4504
 1602SOL    HW2 5127   0.579   2.999   1.708 -0.7139  1.3996 -1.5804
 1603SOL     OW 5128   4.686   0.099   2.832 -0.1079 -0.6114 -0.3409
 1603SOL    HW1 5129   4.710   0.184   2.878  0.9237  0.2433 -2.3216
 1603SOL    HW2 5130   4.644   0.119   2.743 -0.7153 -2.1734 -0.4543
 1604SOL     OW 5131   1.386   4.780   3.217 -0.4275  0.3733 -0.2938
 1604SOL    HW1 5132   1.390   4.868   3.171  0.5063 -0.5541 -2.0968
 1604SOL    HW2 5133   1.477   4.738   3.218 -1.2519 -1.6712 -1.8419
 1605SOL     OW 5134   3.569   0.937   2.865  0.7012  0.1436  0.7647
 1605SOL    HW1 5135   3.570   0.871   2.939  1.1974  1.3599  1.8693
 1605SOL    HW2 5136   3.635   0.909   2.794  1.1743 -0.3388  1.3875
 1606SOL     OW 5137   0.703   5.089   1.975  0.0224  0.4285 -0.0632
 1606SOL    HW1 5138   0.615   5.108   1.931 -0.8630  0.2566  1.5904
 1606SOL    HW2 5139   0.751   5.175   1.990 -1.0162  0.7939  1.3383
 1607SOL     OW 5140   0.559   4.493   4.093  0.0970 -0.3490 -0.1227
 1607SOL    HW1 5141   0.655   4.491   4.064  0.3384  0.1608  0.6101
 1607SOL    HW2 5142   0.537   4.407   4.139  0.7453  0.2264  1.3313
 1608SOL     OW 5143   0.697   4.458   2.870  0.0882  0.3983  0.2040
 1608SOL    HW1 5144   0.734   4.367   2.886  1.4114  0.9600  0.4051
 1608SOL    HW2 5145   0.625   4.477   2.937  0.2252 -0.2641  0.5426
 1609SOL     OW 5146   1.920   5.304   3.722 -0.4338 -0.1706 -0.1678
 1609SOL    HW1 5147   1.851   5.290   3.793  1.8290 -0.8438  2.0632
 1609SOL    HW2 5148   1.950   5.215   3.687  2.4872 -0.3345  2.3116
 1610SOL     OW 5149   0.082   2.851   2.046 -0.2014 -0.1015 -0.1091
 1610SOL    HW1 5150   0.001   2.900   2.011 -0.7760 -1.3817 -0.6342
 1610SOL    HW2 5151   0.151   2.918   2.074 -1.9675  1.0837  1.7301
 1611SOL     OW 5152   0.083   4.556   3.251 -0.2129  0.3338 -0.3164
 1611SOL    HW1 5153   0.113   4.631   3.192  1.2917 -0.4663 -0.6293
 1611SOL    HW2 5154   0.025   4.494   3.199 -1.4116  1.2291 -0.0735
 1612SOL     OW 5155   2.989   4.277   4.105  0.4430 -0.0657 -0.5738
 1612SOL    HW1 5156   3.038   4.221   4.173 -1.0386 -0.9275 -0.1580
 1612SOL    HW2 5157   2.913   4.325   4.150  0.9645  1.3529 -1.1683
 1613SOL     OW 5158   1.425   4.672   4.583  0.3889  0.4027 -0.5156
 1613SOL    HW1 5159   1.385   4.599   4.528 -2.9938  0.5709  1.3814
 1613SOL    HW2 5160   1.449   4.749   4.524 -1.2915 -0.1289 -1.9986
 1614SOL     OW 5161   0.390   3.352   3.303 -0.3440 -0.4500  0.1468
 1614SOL    HW1 5162   0.427   3.296   3.376 -0.5350 -1.6626 -0.6467
 1614SOL    HW2 5163   0.356   3.438   3.340  1.1665 -0.2782  1.2069
 1615SOL     OW 5164   0.224   3.577   3.029 -0.2416 -0.3142 -0.0888
 1615SOL    HW1 5165   0.206   3.489   3.075 -2.5224 -0.0284 -0.3305
 1615SOL    HW2 5166   0.210   3.567   2.931  0.3305  0.1377 -0.2230
 1616SOL     OW 5167   0.507   4.354   3.372  0.0693 -0.1475  0.5757
 1616SOL    HW1 5168   0.523   4.317   3.464 -0.2373 -0.6792  0.4232
 1616SOL    HW2 5169   0.435   4.423   3.376  0.7203  0.5268  0.8833
 1617SOL     OW 5170   5.249   3.796   1.337  0.3359 -0.1750  0.5135
 1617SOL    HW1 5171   5.348   3.796   1.354  0.4567  0.7788 -0.1454
 1617SOL    HW2 5172   5.222   3.708   1.298  1.5122  0.6563 -2.4756
 1618SOL     OW 5173   2.884   3.443   4.965  0.1591  0.2114  0.6345
 1618SOL    HW1 5174   2.802   3.485   5.003  2.2733  3.0554  2.5043
 1618SOL    HW2 5175   2.932   3.392   5.037  0.7292 -0.2360 -0.0480
 1619SOL     OW 5176   3.955   4.729   3.939 -0.1897  0.1903  0.2723
 1619SOL    HW1 5177   3.963   4.640   3.893 -0.6792  0.4747 -0.3847
 1619SOL    HW2 5178   3.919   4.796   3.875  1.5585  1.2307  0.3303
 1620SOL     OW 5179   1.123   4.725   3.283 -0.4700 -0.3473  0.2662
 1620SOL    HW1 5180   1.109   4.626   3.279 -2.9555 -0.0598  0.5937
 1620SOL    HW2 5181   1.218   4.745   3.259 -0.6736 -2.5548 -3.2243
 1621SOL     OW 5182   1.834   4.128   3.974 -0.1037  0.3301 -0.1641
 1621SOL    HW1 5183   1.825   4.214   4.024 -1.9223  1.1322 -1.7508
 1621SOL    HW2 5184   1.775   4.059   4.016 -1.1085  0.8048 -0.7735
 1622SOL     OW 5185   5.247   3.614   4.360  0.0103  0.1377 -0.9554
 1622SOL    HW1 5186   5.313   3.555   4.313  0.6995  0.1391 -0.0256
 1622SOL    HW2 5187   5.296   3.685   4.410 -0.7928  1.2646 -1.7253
 1623SOL     OW 5188   4.659   5.307   4.139  0.2039 -0.3448 -0.7914
 1623SOL    HW1 5189   4.562   5.291   4.117 -0.1072  0.5559 -0.1093
 1623SOL    HW2 5190   4.679   5.274   4.231  0.4867 -0.2886 -0.8306
 1624SOL     OW 5191   0.270   4.483   2.022 -0.0829  0.2536  0.1082
 1624SOL    HW1 5192   0.335   4.541   2.071  1.0542  0.4122 -1.4987
 1624SOL    HW2 5193   0.228   4.536   1.948 -0.5161 -0.4274 -0.1366
 1625SOL     OW 5194   2.571   5.205   5.049  0.5276 -0.1704  0.5745
 1625SOL    HW1 5195   2.652   5.244   5.093 -0.3078  0.8641  1.2600
 1625SOL    HW2 5196   2.502   5.277   5.036 -0.5691 -1.1626  0.6891
 1626SOL     OW 5197   0.369   3.754   2.234 -0.2201 -0.1796  0.2181
 1626SOL    HW1 5198   0.324   3.673   2.272 -0.3581 -1.9079 -3.2026
 1626SOL    HW2 5199   0.300   3.820   2.204 -0.2289 -0.0601  0.5036
 1627SOL     OW 5200   1.004   5.329   1.511 -0.3091 -0.2516 -0.5798
 1627SOL    HW1 5201   1.100   5.354   1.515 -0.5425  0.8301 -1.1209
 1627SOL    HW2 5202   0.955   5.395   1.453 -1.5411 -0.2119  0.4447
 1628SOL     OW 5203   1.150   3.999   1.743  0.6731  0.1862  0.7952
 1628SOL    HW1 5204   1.146   3.916   1.688  2.7987 -2.2117  3.9262
 1628SOL    HW2 5205   1.078   3.997   1.813  1.1299  0.6568  1.2920
 1629SOL     OW 5206   0.365   4.495   1.611 -0.4150 -0.0960  0.0586
 1629SOL    HW1 5207   0.436   4.431   1.639 -1.0315 -0.3580  1.0909
 1629SOL    HW2 5208   0.303   4.451   1.546 -1.0072 -0.6717  0.9887
 1630SOL     OW 5209   4.836   4.264   0.009 -0.1612  0.4300  0.0632
 1630SOL    HW1 5210   4.849   4.190   0.075 -1.2080 -0.8965 -1.1321
 1630SOL    HW2 5211   4.784   4.338   0.052 -2.3255 -1.1387  0.3127
 1631SOL     OW 5212   0.338   3.411   2.121 -0.7235  0.1396 -0.2003
 1631SOL    HW1 5213   0.262   3.408   2.056  0.8233 -1.3589 -2.0396
 1631SOL    HW2 5214   0.395   3.491   2.102  0.5465 -1.0679 -1.7652
 1632SOL     OW 5215   0.519   2.563   3.376 -0.1492 -0.0786 -0.1155
 1632SOL    HW1 5216   0.603   2.521   3.409 -0.7995 -1.8490 -0.5786
 1632SOL    HW2 5217   0.530   2.662   3.371  1.3797 -0.1537  1.2643
 1633SOL     OW 5218   0.786   5.017   3.073  0.2662 -0.6873  0.0681
 1633SOL    HW1 5219   0.780   5.075   3.154 -0.3080 -0.2719 -0.2614
 1633SOL    HW2 5220   0.868   4.960   3.078  0.3096 -0.5610  0.8676
 1634SOL     OW 5221   0.761   0.085   0.447 -0.2435  0.2158 -0.1899
 1634SOL    HW1 5222   0.783  -0.008   0.417 -2.8717 -0.1113 -1.3890
 1634SOL    HW2 5223   0.839   0.123   0.496  1.4563 -2.0642 -0.9247
 1635SOL     OW 5224   3.902   0.083   3.036 -0.3772  0.6864  0.0795
 1635SOL    HW1 5225   3.881   0.180   3.022 -0.4429  0.9221  1.6003
 1635SOL    HW2 5226   3.993   0.063   3.000 -1.8494  0.3247 -3.9771
 1636SOL     OW 5227   4.992   5.142   4.302 -0.3928  0.6526 -0.4168
 1636SOL    HW1 5228   4.962   5.060   4.253  1.0575 -0.3131  0.2401
 1636SOL    HW2 5229   4.976   5.130   4.400 -0.8818  1.4881 -0.3885
 1637SOL     OW 5230   4.212   3.955   3.355 -0.1562  0.2179 -0.3436
 1637SOL    HW1 5231   4.178   3.977   3.264  2.3820 -1.4165 -1.8059
 1637SOL    HW2 5232   4.311   3.940   3.352 -0.2094 -1.5242  2.3447
 1638SOL     OW 5233   0.923   4.454   4.721 -0.0748  0.2908 -0.2796
 1638SOL    HW1 5234   0.934   4.355   4.731 -0.0799  0.1648 -1.4617
 1638SOL    HW2 5235   0.847   4.473   4.660 -0.8056  1.0575  0.8292
 1639SOL     OW 5236   5.133   4.576   2.864 -0.1934 -0.0457 -0.5025
 1639SOL    HW1 5237   5.192   4.583   2.784 -1.3071 -0.0933 -1.3471
 1639SOL    HW2 5238   5.054   4.636   2.853 -0.7032 -0.5571  0.2641
 1640SOL     OW 5239   0.065   4.029   2.691  1.1120  0.9269  0.0989
 1640SOL    HW1 5240   0.122   4.047   2.611 -0.2313  3.4790 -0.3998
 1640SOL    HW2 5241  -0.025   3.995   2.662  1.1949  0.2055  0.6516
 1641SOL     OW 5242   4.647   3.411   3.031 -0.2348  0.5922 -0.4311
 1641SOL    HW1 5243   4.690   3.482   2.976  1.5096 -0.3382 -0.3435
 1641SOL    HW2 5244   4.654   3.323   2.984 -0.8209  0.1770  0.2298
 1642SOL     OW 5245   0.758   3.033   1.971  0.0463  0.5926 -0.3204
 1642SOL    HW1 5246   0.746   3.093   2.050  0.4018  0.4362 -0.1417
 1642SOL    HW2 5247   0.803   3.083   1.897 -0.1078  0.6841 -0.3521
 1643SOL     OW 5248   1.072   0.992   3.283 -0.3951  0.1295 -0.1099
 1643SOL    HW1 5249   1.084   1.077   3.334 -2.8969  0.2365  0.4531
 1643SOL    HW2 5250   0.974   0.975   3.270  0.0894 -1.5422 -2.1507
 1644SOL     OW 5251   1.405   4.540   2.159 -0.0311 -0.0319  0.1635
 1644SOL    HW1 5252   1.334   4.584   2.215 -0.2961  0.7174 -0.7280
 1644SOL    HW2 5253   1.458   4.611   2.112  0.3387 -0.6389 -0.3455
 1645SOL     OW 5254   5.258   0.355   1.797  0.5810 -0.1290  0.0410
 1645SOL    HW1 5255   5.308   0.379   1.713  0.1734  0.1235 -0.1320
 1645SOL    HW2 5256   5.230   0.260   1.794 -0.2397  0.1200 -0.5294
 1646SOL     OW 5257   5.484   4.137   2.985 -0.2733  0.1405  0.2488
 1646SOL    HW1 5258   5.504   4.086   2.901 -0.2212  1.7063 -0.7305
 1646SOL    HW2 5259   5.387   4.128   3.007 -0.8074  1.5046 -1.2918
 1647SOL     OW 5260   5.353   4.856   3.669 -0.0142  0.0171 -0.0895
 1647SOL    HW1 5261   5.442   4.840   3.626  0.4008  0.9928  0.3855
 1647SOL    HW2 5262   5.288   4.785   3.639 -0.1570  1.3749 -3.4256
 1648SOL     OW 5263   1.870   5.407   4.647  0.2679  0.0178  0.2418
 1648SOL    HW1 5264   1.953   5.397   4.702  1.0213  0.8521 -0.7025
 1648SOL    HW2 5265   1.839   5.317   4.617  0.3868 -0.3646  1.2133
 1649SOL     OW 5266   2.136   3.417   1.322 -0.3317  0.3488  0.1311
 1649SOL    HW1 5267   2.101   3.476   1.249 -1.1967  0.6824  0.7982
 1649SOL    HW2 5268   2.076   3.424   1.402  1.0295  0.6208  1.1706
 1650SOL     OW 5269   3.386   0.608   3.722 -0.2190  0.3068 -0.8131
 1650SOL    HW1 5270   3.316   0.680   3.727  0.0418  0.5423 -0.5405
 1650SOL    HW2 5271   3.476   0.650   3.722 -0.0633 -0.0251 -0.5454
 1651SOL     OW 5272   1.242   0.472   3.356 -0.3174 -0.1428  0.0631
 1651SOL    HW1 5273   1.219   0.549   3.415  0.5514  0.6457 -0.6060
 1651SOL    HW2 5274   1.333   0.485   3.317  0.2512 -1.9697  0.6824
 1652SOL     OW 5275   5.515   0.343   2.827  0.5653 -0.8093  0.2998
 1652SOL    HW1 5276   5.468   0.427   2.799 -0.1308 -0.9059  1.1385
 1652SOL    HW2 5277   5.493   0.323   2.922  1.6074 -1.3498  0.4344
 1653SOL     OW 5278   1.801   4.058   2.608 -0.0442 -0.5195 -0.6840
 1653SOL    HW1 5279   1.874   4.110   2.562 -0.1338  0.9268  0.7009
 1653SOL    HW2 5280   1.835   4.026   2.696 -1.2820  0.9323  0.3839
 1654SOL     OW 5281   1.912   4.300   0.412  0.0713  0.0546 -0.1125
 1654SOL    HW1 5282   1.925   4.318   0.314  1.0370 -1.5419 -0.3178
 1654SOL    HW2 5283   1.814   4.288   0.431 -0.2403  1.6208 -0.6266
 1655SOL     OW 5284   0.261   5.035   1.417  0.0719 -0.0611  0.6458
 1655SOL    HW1 5285   0.176   5.008   1.463 -0.3844 -0.5739 -0.4656
 1655SOL    HW2 5286   0.262   5.134   1.404  0.0539  0.0507  1.4384
 1656SOL     OW 5287   5.357  -0.031   2.772 -0.4649  0.0377  0.0628
 1656SOL    HW1 5288   5.281   0.032   2.755 -1.5809 -1.2471  0.0318
 1656SOL    HW2 5289   5.442   0.009   2.738 -1.3986  0.8106 -1.5080
 1657SOL     OW 5290   0.594   3.558   2.023  0.3376 -0.0730 -0.1702
 1657SOL    HW1 5291   0.682   3.568   1.977  0.2760  1.5343  0.0263
 1657SOL    HW2 5292   0.521   3.559   1.956  0.3199  1.1419 -0.1461
 1658SOL     OW 5293   0.999   1.321   1.224 -0.4316 -0.2118 -0.0819
 1658SOL    HW1 5294   0.956   1.231   1.212  0.3986 -0.5905 -0.3042
 1658SOL    HW2 5295   0.978   1.355   1.316 -0.0451 -1.0339  0.3255
 1659SOL     OW 5296   0.532   0.504   1.532 -0.2640 -0.1811 -0.1573
 1659SOL    HW1 5297   0.456   0.552   1.576  0.3086 -0.2479  0.9485
 1659SOL    HW2 5298   0.555   0.549   1.446 -0.4369  0.8850  0.3395
 1660SOL     OW 5299   1.217   0.908   3.489 -0.2441  0.1254 -0.6041
 1660SOL    HW1 5300   1.177   0.951   3.570 -0.1367  1.1136 -1.0663
 1660SOL    HW2 5301   1.167   0.938   3.408 -0.5516 -1.0969 -0.8941
 1661SOL     OW 5302   1.478   4.382   3.291  0.1044  0.4545 -0.0129
 1661SOL    HW1 5303   1.520   4.367   3.380  1.8476 -0.2805 -0.9203
 1661SOL    HW2 5304   1.508   4.471   3.254  0.4314  0.1772 -0.4227
 1662SOL     OW 5305   0.305   4.830   3.382  0.6110 -0.3498  0.3631
 1662SOL    HW1 5306   0.317   4.843   3.481 -3.0550 -0.8810  1.0315
 1662SOL    HW2 5307   0.226   4.883   3.351 -0.7040 -3.1188 -1.4331
 1663SOL     OW 5308   1.166   3.576   1.057  0.1621  0.3029 -0.1825
 1663SOL    HW1 5309   1.110   3.527   0.989  1.1409 -1.9887  0.5575
 1663SOL    HW2 5310   1.215   3.510   1.113  2.4480  2.2031  0.2030
 1664SOL     OW 5311   0.680   5.417   3.470 -0.2233 -0.0159  0.4087
 1664SOL    HW1 5312   0.679   5.358   3.551  0.6590  0.7960  1.0484
 1664SOL    HW2 5313   0.586   5.437   3.442 -0.5369 -0.6820  0.9472
 1665SOL     OW 5314   0.864   4.073   1.360 -0.2956  0.0764  0.0018
 1665SOL    HW1 5315   0.913   3.994   1.322 -1.1593  0.3805 -1.8969
 1665SOL    HW2 5316   0.924   4.153   1.361  0.2699 -0.3521  0.9606
 1666SOL     OW 5317   5.179   5.371   3.417  0.2696 -0.2288 -0.2040
 1666SOL    HW1 5318   5.086   5.405   3.427  0.2158  0.2713 -2.1273
 1666SOL    HW2 5319   5.180   5.272   3.435 -0.6952 -0.3042 -0.5029
 1667SOL     OW 5320   5.269   3.614   2.561 -0.3732 -0.6006 -0.3514
 1667SOL    HW1 5321   5.184   3.659   2.587 -0.0302  0.3222 -0.7895
 1667SOL    HW2 5322   5.255   3.515   2.558 -1.0202 -0.5720  1.0510
 1668SOL     OW 5323   1.836   5.543   3.582 -0.3730  0.1777 -0.0635
 1668SOL    HW1 5324   1.887   5.467   3.622 -1.5971 -0.5170  0.2524
 1668SOL    HW2 5325   1.804   5.518   3.491  0.1681  0.7570 -0.4218
 1669SOL     OW 5326   2.324   0.232   3.467  0.4309 -0.1832 -0.1150
 1669SOL    HW1 5327   2.273   0.302   3.516  0.4142  0.1171 -0.5492
 1669SOL    HW2 5328   2.330   0.150   3.522  0.5118  0.1868  0.4350
 1670SOL     OW 5329   1.359   4.021   0.059  0.2395  0.0475  0.2648
 1670SOL    HW1 5330   1.356   4.114   0.094 -0.7675  0.3163 -0.5028
 1670SOL    HW2 5331   1.267   3.990   0.036  0.2783 -1.9137  2.4453
 1671SOL     OW 5332   4.921   4.148   1.683  0.3401  0.2219  0.1759
 1671SOL    HW1 5333   4.863   4.066   1.680 -0.0276  0.3773  2.0391
 1671SOL    HW2 5334   4.871   4.226   1.645 -0.3999  0.1764  1.0179
 1672SOL     OW 5335   2.275   4.693   3.933 -0.1592 -0.0082 -0.2946
 1672SOL    HW1 5336   2.199   4.709   3.997 -0.5266 -0.0778 -0.7089
 1672SOL    HW2 5337   2.328   4.777   3.922  0.0484 -0.0578  0.2802
 1673SOL     OW 5338   4.210   0.268   2.152  0.6351  0.2149  0.1526
 1673SOL    HW1 5339   4.154   0.200   2.199  1.8887  0.5093  2.2032
 1673SOL    HW2 5340   4.170   0.288   2.062 -1.8813 -0.3675  1.0562
 1674SOL     OW 5341   5.470   4.248   3.401  0.1124  0.0213  0.1942
 1674SOL    HW1 5342   5.562   4.254   3.441 -0.8873  2.6792  2.4505
 1674SOL    HW2 5343   5.471   4.290   3.310  1.0671  0.3030  0.3176
 1675SOL     OW 5344   5.518   3.532   3.816  0.2837 -0.1636  0.4318
 1675SOL    HW1 5345   5.578   3.536   3.896 -1.8896 -1.1878  2.2127
 1675SOL    HW2 5346   5.497   3.437   3.795 -0.0897  0.1447 -0.6631
 1676SOL     OW 5347   0.320   4.094   1.480 -0.3583 -0.1654  0.4808
 1676SOL    HW1 5348   0.327   4.101   1.579 -1.6832  2.0666  0.4852
 1676SOL    HW2 5349   0.407   4.119   1.438 -0.4966  1.3434  1.0538
 1677SOL     OW 5350   0.172   4.607   4.168 -0.0145  0.2459 -0.0215
 1677SOL    HW1 5351   0.267   4.636   4.186  0.8145 -0.8492 -2.2803
 1677SOL    HW2 5352   0.131   4.573   4.252  1.3961  1.2653  1.1309
 1678SOL     OW 5353   0.124   4.299   2.286 -0.3625  0.2302  0.3747
 1678SOL    HW1 5354   0.175   4.256   2.210 -0.6107 -0.2273  0.4616
 1678SOL    HW2 5355   0.157   4.392   2.299 -0.4577  0.3888 -0.4357
 1679SOL     OW 5356   5.256   4.855   0.933 -0.1793  0.3957 -0.4760
 1679SOL    HW1 5357   5.345   4.895   0.909  0.4907  0.0992  1.3148
 1679SOL    HW2 5358   5.244   4.768   0.885  0.8155  0.1042 -0.2201
 1680SOL     OW 5359   1.422   3.793   2.095  0.1743  0.0632  0.3691
 1680SOL    HW1 5360   1.354   3.744   2.150  0.4388 -0.2678  0.4014
 1680SOL    HW2 5361   1.383   3.881   2.065  0.0727  0.3181  1.2093
 1681SOL     OW 5362   0.841   1.965   1.621 -0.8691 -0.1048 -0.0852
 1681SOL    HW1 5363   0.767   2.015   1.667  0.1698  0.5896  0.8747
 1681SOL    HW2 5364   0.801   1.901   1.555 -2.2742  1.0981 -0.4597
 1682SOL     OW 5365   0.051   4.774   3.533  0.1416  0.2104  0.0509
 1682SOL    HW1 5366   0.061   4.831   3.451  0.8985 -1.4551 -1.0582
 1682SOL    HW2 5367   0.036   4.679   3.507 -2.8335  0.0573  1.8294
 1683SOL     OW 5368   0.857   4.227   2.510  0.3209 -0.0370 -0.1959
 1683SOL    HW1 5369   0.795   4.202   2.584  0.9236  0.3120  0.4521
 1683SOL    HW2 5370   0.812   4.291   2.448 -0.0258  0.0648  0.1590
 1684SOL     OW 5371   4.286   4.624   3.805 -0.0688 -0.0209  0.4721
 1684SOL    HW1 5372   4.277   4.560   3.881  0.9225 -1.5900 -0.6598
 1684SOL    HW2 5373   4.360   4.689   3.825 -0.4906  0.2166  1.2670
 1685SOL     OW 5374   2.255   3.788   2.489  0.0290  0.2468 -0.1305
 1685SOL    HW1 5375   2.351   3.808   2.470  0.6814 -1.9268  0.6927
 1685SOL    HW2 5376   2.221   3.853   2.558  0.9486  0.9209 -0.2892
 1686SOL     OW 5377   1.219   3.448   1.385 -0.2598 -0.2932  0.2076
 1686SOL    HW1 5378   1.243   3.450   1.482  0.5610 -0.6086  0.0161
 1686SOL    HW2 5379   1.275   3.379   1.338  0.6670  1.1178 -0.8282
 1687SOL     OW 5380   4.667   4.230   3.174  0.0175 -0.6317  0.4580
 1687SOL    HW1 5381   4.653   4.327   3.157 -2.6887 -0.6990  1.8426
 1687SOL    HW2 5382   4.606   4.176   3.115 -0.5842 -1.3268  1.6632
 1688SOL     OW 5383   0.457   2.083   2.843  0.2452 -0.5597 -0.6575
 1688SOL    HW1 5384   0.409   2.035   2.769  1.2482 -2.0045 -0.4235
 1688SOL    HW2 5385   0.438   2.037   2.930  0.4908  0.0389 -0.2839
 1689SOL     OW 5386   0.517   4.208   3.624 -0.3409 -0.3393  0.1239
 1689SOL    HW1 5387   0.432   4.157   3.637 -0.6363  0.4759  1.5742
 1689SOL    HW2 5388   0.555   4.233   3.713 -1.5081  4.1012 -0.3815
 1690SOL     OW 5389   1.419   5.529   2.923 -0.2544 -0.5956 -0.3097
 1690SOL    HW1 5390   1.384   5.506   2.832  0.1538  0.3537 -0.7235
 1690SOL    HW2 5391   1.437   5.445   2.975 -3.2096 -1.1691 -0.0217
 1691SOL     OW 5392   0.548   3.546   2.530 -0.0441  0.1598  0.4414
 1691SOL    HW1 5393   0.526   3.640   2.557  2.5277  0.9508  0.0193
 1691SOL    HW2 5394   0.556   3.541   2.430 -0.0590 -0.4899  0.4707
 1692SOL     OW 5395   0.789   3.554   0.873 -0.8578  0.0393  0.1422
 1692SOL    HW1 5396   0.869   3.529   0.818 -0.6485  0.2466  0.3522
 1692SOL    HW2 5397   0.709   3.503   0.840 -0.2554 -1.6830  1.1843
 1693SOL     OW 5398   2.256   5.454   3.160 -0.2484 -0.0476  0.4506
 1693SOL    HW1 5399   2.253   5.378   3.226 -0.9001  0.7865  1.4107
 1693SOL    HW2 5400   2.191   5.524   3.188 -1.8061 -0.4093 -2.0462
 1694SOL     OW 5401   2.448   0.253   2.848  0.1809 -0.0817 -0.6273
 1694SOL    HW1 5402   2.452   0.174   2.910  0.0438 -0.1945 -0.7621
 1694SOL    HW2 5403   2.371   0.242   2.785 -0.2063  0.4545 -0.2509
 1695SOL     OW 5404   0.787   0.107   2.807 -0.5766  0.3066  0.0960
 1695SOL    HW1 5405   0.762   0.137   2.899 -1.6239  1.8799 -0.6413
 1695SOL    HW2 5406   0.812   0.187   2.752  0.3098 -0.6337 -0.9187
 1696SOL     OW 5407   4.192   5.301   3.166 -0.2453  0.0378  0.1519
 1696SOL    HW1 5408   4.103   5.321   3.125 -0.7167 -1.1171  0.5689
 1696SOL    HW2 5409   4.264   5.345   3.112 -1.0960  1.5685  0.2029
 1697SOL     OW 5410   1.336   4.517   2.798 -0.7701  0.3621 -0.5828
 1697SOL    HW1 5411   1.246   4.483   2.769 -1.0297  0.1074  0.4815
 1697SOL    HW2 5412   1.333   4.616   2.805 -1.1059  0.3254 -0.1340
 1698SOL     OW 5413   0.039   5.069   1.586  0.1064  0.0976  0.8131
 1698SOL    HW1 5414   0.004   5.082   1.493  0.1664 -0.3071  0.7349
 1698SOL    HW2 5415  -0.021   5.117   1.650 -0.5300 -0.4958  0.6700
 1699SOL     OW 5416   5.476   4.969   2.141 -0.0277 -0.2993 -0.3063
 1699SOL    HW1 5417   5.500   5.056   2.097 -0.3319 -0.2002 -0.2812
 1699SOL    HW2 5418   5.557   4.931   2.186 -0.2684  0.8280  1.1551
 1700SOL     OW 5419   1.735   3.392   1.588  0.9165  0.5547  0.1409
 1700SOL    HW1 5420   1.639   3.382   1.614  1.2356 -0.0790  1.1146
 1700SOL    HW2 5421   1.744   3.471   1.528 -0.2775  0.3742 -0.3202
 1701SOL     OW 5422   5.041   4.342   3.232 -0.0110  0.7350 -0.2534
 1701SOL    HW1 5423   4.979   4.311   3.303 -1.7276  1.2186 -1.4684
 1701SOL    HW2 5424   5.120   4.280   3.226 -0.2691  0.2076  1.4401
 1702SOL     OW 5425   1.078   3.519   3.487  0.1722 -0.2631 -0.2393
 1702SOL    HW1 5426   1.081   3.618   3.492 -2.5734 -0.1289  0.5657
 1702SOL    HW2 5427   1.075   3.490   3.392 -0.4753  0.5446 -0.4800
 1703SOL     OW 5428   5.471   0.171   4.162 -0.2773 -0.0324  0.1939
 1703SOL    HW1 5429   5.387   0.148   4.211  1.4771 -1.8770  2.5683
 1703SOL    HW2 5430   5.521   0.088   4.140  1.5363  1.0416  0.0110
 1704SOL     OW 5431   0.491   4.083   3.322  0.1534 -0.6225 -0.0476
 1704SOL    HW1 5432   0.459   4.045   3.409  1.8941 -2.0803 -0.0031
 1704SOL    HW2 5433   0.533   4.173   3.339 -0.6177 -0.3345  0.4074
 1705SOL     OW 5434   2.650   2.822   0.746  0.4896 -0.5978  0.2734
 1705SOL    HW1 5435   2.659   2.823   0.845  1.0339  0.5188  0.2159
 1705SOL    HW2 5436   2.740   2.827   0.703  0.1748  1.4523 -0.2667
 1706SOL     OW 5437   1.228   3.937   2.536 -0.3287 -0.1467  0.8126
 1706SOL    HW1 5438   1.292   3.979   2.473 -0.8798 -1.5059 -0.7469
 1706SOL    HW2 5439   1.136   3.971   2.518 -0.4618 -0.4053  0.9894
 1707SOL     OW 5440   1.103   4.562   1.995  0.1559  0.0683  0.3813
 1707SOL    HW1 5441   1.056   4.582   1.909 -0.9195  0.1164  0.9718
 1707SOL    HW2 5442   1.198   4.538   1.975  0.5134  2.1182 -0.6659
 1708SOL     OW 5443   0.237   4.906   1.876  0.7783 -0.1605 -0.4540
 1708SOL    HW1 5444   0.262   4.926   1.781 -0.1109  0.8625 -0.4849
 1708SOL    HW2 5445   0.216   4.809   1.886  0.5729 -0.2113 -1.3687
 1709SOL     OW 5446   3.884   5.335   1.795 -0.2440  0.1800  0.0186
 1709SOL    HW1 5447   3.926   5.362   1.882  2.7674  0.9598 -1.5361
 1709SOL    HW2 5448   3.873   5.235   1.793 -0.6101  0.1699  1.3405
 1710SOL     OW 5449   0.370   4.745   2.923 -0.1514 -0.1314  0.0998
 1710SOL    HW1 5450   0.385   4.742   2.824  0.0696  0.8001  0.0986
 1710SOL    HW2 5451   0.397   4.834   2.958  0.4137 -0.6850  1.1156
 1711SOL     OW 5452   0.428   0.586   3.678  0.5307  0.0391  0.2333
 1711SOL    HW1 5453   0.363   0.517   3.648 -0.1701  1.1408 -0.9160
 1711SOL    HW2 5454   0.453   0.644   3.600  1.4889  0.7636  1.0518
 1712SOL     OW 5455   0.210   5.226   0.088 -0.2016  0.0203 -0.0613
 1712SOL    HW1 5456   0.174   5.319   0.092 -0.4885  0.1032 -2.7654
 1712SOL    HW2 5457   0.134   5.161   0.085 -0.0802 -0.0870 -1.2182
 1713SOL     OW 5458   5.117   4.482   0.479  0.5727 -0.6701 -0.4088
 1713SOL    HW1 5459   5.118   4.396   0.428  0.5332 -1.5173  0.9737
 1713SOL    HW2 5460   5.210   4.518   0.485  1.1726 -2.3957  1.8575
 1714SOL     OW 5461   5.439   3.876   2.842 -0.3817 -0.2087  0.0748
 1714SOL    HW1 5462   5.535   3.861   2.818 -0.1035  0.7522  0.5504
 1714SOL    HW2 5463   5.390   3.907   2.761  0.7671  4.0118  0.7769
 1715SOL     OW 5464   1.593   5.018   4.749  0.0220 -0.4875 -0.1983
 1715SOL    HW1 5465   1.501   5.013   4.710 -0.5334  2.5659  0.4225
 1715SOL    HW2 5466   1.658   5.045   4.678  0.4494 -2.4519 -0.5938
 1716SOL     OW 5467   0.114   5.317   3.443 -0.0546 -0.6501 -0.7328
 1716SOL    HW1 5468   0.026   5.276   3.420 -0.5181  0.6978 -1.4287
 1716SOL    HW2 5469   0.180   5.298   3.370  0.7531 -3.0306  0.5050
 1717SOL     OW 5470   4.842   5.309   5.398 -0.6519  0.1391  0.1448
 1717SOL    HW1 5471   4.893   5.240   5.449 -0.2083 -0.6224 -1.2717
 1717SOL    HW2 5472   4.744   5.294   5.411 -0.5861  1.3193  2.5037
 1718SOL     OW 5473   5.284   3.614   0.031  0.1290 -0.5442  0.1086
 1718SOL    HW1 5474   5.354   3.577   0.091  0.2441 -0.2810  0.1363
 1718SOL    HW2 5475   5.319   3.618  -0.062  0.3436  0.1097  0.2182
 1719SOL     OW 5476   0.052   4.988   4.731  0.2712 -0.2010  0.2846
 1719SOL    HW1 5477   0.086   4.989   4.825 -0.2573  1.0557  0.4841
 1719SOL    HW2 5478   0.013   5.078   4.709  1.0198 -0.2453 -1.3613
 1720SOL     OW 5479   1.494   3.654   0.668 -0.3284  0.1423 -0.2065
 1720SOL    HW1 5480   1.543   3.660   0.755 -0.2070 -0.4202 -0.2362
 1720SOL    HW2 5481   1.529   3.724   0.605  1.6589 -1.3287 -0.8406
 1721SOL     OW 5482   4.034   5.564   5.084  0.5714  0.1250 -0.0378
 1721SOL    HW1 5483   4.113   5.615   5.117  1.2717 -1.1205  0.2660
 1721SOL    HW2 5484   4.061   5.470   5.062 -0.9667 -0.5545  0.7892
 1722SOL     OW 5485   0.448   5.325   4.323 -0.1783 -0.0133 -0.0168
 1722SOL    HW1 5486   0.519   5.255   4.331 -1.6940 -1.7059 -0.8560
 1722SOL    HW2 5487   0.478   5.395   4.258  1.0172 -0.2973  0.2010
 1723SOL     OW 5488   1.234   4.214   4.702  0.2336  0.1264 -0.4321
 1723SOL    HW1 5489   1.331   4.196   4.694 -0.1280 -1.7321 -1.0766
 1723SOL    HW2 5490   1.191   4.145   4.760 -1.0107 -0.3897 -1.8663
 1724SOL     OW 5491   2.354   3.552   5.012  0.5874 -0.0276  0.2658
 1724SOL    HW1 5492   2.288   3.551   5.088  1.6085  0.7815  1.1885
 1724SOL    HW2 5493   2.345   3.467   4.959 -0.7048 -0.2398  0.7788
 1725SOL     OW 5494   0.181   4.789   0.207 -0.2459  0.6172  0.0461
 1725SOL    HW1 5495   0.242   4.839   0.270  0.3807  2.4576 -1.9021
 1725SOL    HW2 5496   0.219   4.699   0.187 -0.0192  0.3453  1.5831
 1726SOL     OW 5497   5.427   1.334   4.862 -0.4670 -0.2686  0.2898
 1726SOL    HW1 5498   5.517   1.369   4.837 -0.4812  0.8932  1.7542
 1726SOL    HW2 5499   5.363   1.349   4.787  0.7726 -2.1966 -1.2677
 1727SOL     OW 5500   5.382   1.053   4.946 -0.1047 -0.4395  0.0352
 1727SOL    HW1 5501   5.423   1.127   4.894  2.7441 -1.3753  0.7503
 1727SOL    HW2 5502   5.297   1.023   4.902 -1.0248  2.7760 -0.5734
 1728SOL     OW 5503   1.178   4.957   2.928 -0.1772  0.2838  0.0001
 1728SOL    HW1 5504   1.087   4.927   2.957 -1.0153  1.6875 -1.0606
 1728SOL    HW2 5505   1.170   5.037   2.869  1.6901 -0.2813 -1.1121
 1729SOL     OW 5506   0.212   0.894   4.868  0.4084 -0.2625  0.1236
 1729SOL    HW1 5507   0.272   0.827   4.823 -0.6559 -1.6756  0.7212
 1729SOL    HW2 5508   0.130   0.847   4.902  0.4024  1.0640  2.0428
 1730SOL     OW 5509   3.523   5.164   4.181 -0.1402  0.7989 -0.6167
 1730SOL    HW1 5510   3.441   5.181   4.236 -0.2181 -2.4409  0.4688
 1730SOL    HW2 5511   3.602   5.205   4.227 -0.7228  1.2709 -0.0116
 1731SOL     OW 5512   1.191   3.724   1.402 -0.0103  0.0550  0.6601
 1731SOL    HW1 5513   1.223   3.632   1.381 -2.3678 -0.7423  0.2350
 1731SOL    HW2 5514   1.159   3.729   1.496  0.5842  0.5968  0.8404
 1732SOL     OW 5515   5.262   4.460   4.999 -0.4796 -0.4069 -0.3814
 1732SOL    HW1 5516   5.350   4.473   5.045 -0.6593  1.0718 -0.4069
 1732SOL    HW2 5517   5.240   4.363   4.996  1.0613 -0.7863 -0.2072
 1733SOL     OW 5518   4.898   0.528   2.634  0.5253  0.0467  0.5024
 1733SOL    HW1 5519   4.993   0.560   2.633  0.4800  0.1778  0.3903
 1733SOL    HW2 5520   4.841   0.596   2.681 -0.4439  2.5787 -3.8296
 1734SOL     OW 5521   4.261   4.944   5.435 -0.4633 -0.4187  0.2287
 1734SOL    HW1 5522   4.237   4.885   5.358  0.2319 -2.7638  1.7273
 1734SOL    HW2 5523   4.178   4.974   5.481 -0.8006 -1.1855  0.1300
 1735SOL     OW 5524   0.307  -0.016   1.041 -0.1041  0.0102 -0.4373
 1735SOL    HW1 5525   0.240   0.002   0.969  0.9312 -3.6842 -2.5490
 1735SOL    HW2 5526   0.387   0.043   1.027 -0.1920 -0.1861 -1.9730
 1736SOL     OW 5527   4.538   3.683   4.688  0.3456  0.4244 -0.3838
 1736SOL    HW1 5528   4.584   3.687   4.776 -0.1453  0.3844 -0.1217
 1736SOL    HW2 5529   4.450   3.637   4.698 -0.0139  1.0150 -0.7601
 1737SOL     OW 5530   0.062   4.529   4.402  0.2891  0.6013 -0.0950
 1737SOL    HW1 5531   0.105   4.518   4.491 -0.0707 -0.9627 -0.0894
 1737SOL    HW2 5532  -0.034   4.555   4.414  0.6665  2.0706 -0.0782
 1738SOL     OW 5533   0.746   0.356   4.886 -0.2194  0.1258 -0.3470
 1738SOL    HW1 5534   0.769   0.451   4.904  0.3369  0.3392 -2.0136
 1738SOL    HW2 5535   0.830   0.304   4.867 -0.5945 -0.4860 -0.3639
 1739SOL     OW 5536   2.091   0.623   0.297 -0.1258 -0.2241 -0.5438
 1739SOL    HW1 5537   2.169   0.563   0.280  0.1904 -0.3924  1.3014
 1739SOL    HW2 5538   2.097   0.704   0.238  1.4634 -0.2119 -0.3983
 1740SOL     OW 5539   1.273   3.679   3.710  0.0108 -0.1723  0.5632
 1740SOL    HW1 5540   1.360   3.729   3.708 -0.6846  1.0814  0.9490
 1740SOL    HW2 5541   1.264   3.631   3.798 -0.7696  1.7411  1.5929
 1741SOL     OW 5542   0.804   2.839   3.613  0.0278  0.0697 -0.1188
 1741SOL    HW1 5543   0.847   2.927   3.591 -0.1537 -0.1331 -1.3775
 1741SOL    HW2 5544   0.734   2.852   3.683  1.7209  0.5004  1.5789
 1742SOL     OW 5545   2.412   4.549   1.064  0.4336 -0.0591 -0.0216
 1742SOL    HW1 5546   2.463   4.622   1.019  0.8779 -0.4331 -0.1320
 1742SOL    HW2 5547   2.332   4.588   1.109  1.0053  0.5975  0.4648
 1743SOL     OW 5548   0.190   4.675   1.350 -0.4120 -0.1843 -0.0008
 1743SOL    HW1 5549   0.147   4.585   1.356  2.2093 -1.4474  2.0567
 1743SOL    HW2 5550   0.158   4.732   1.426 -0.7796  0.0298 -0.3106
 1744SOL     OW 5551   0.532   3.676   5.397  0.5137 -0.2582 -0.5204
 1744SOL    HW1 5552   0.559   3.734   5.321 -0.2096  0.3715 -0.3001
 1744SOL    HW2 5553   0.613   3.626   5.431  1.7537  2.5037  0.9306
 1745SOL     OW 5554   0.952   5.321   4.659 -0.4799 -0.1709  0.6016
 1745SOL    HW1 5555   0.936   5.420   4.656  1.5208  0.2245  1.4256
 1745SOL    HW2 5556   0.920   5.279   4.574 -0.3709  1.3422 -0.2178
 1746SOL     OW 5557   4.017   0.280   2.739  0.1335  0.2111  0.5622
 1746SOL    HW1 5558   3.958   0.294   2.818  0.2049  2.5918  0.2669
 1746SOL    HW2 5559   3.972   0.316   2.657  0.8615 -0.4588 -0.1559
 1747SOL     OW 5560   1.058   0.550   4.715  0.2252 -0.6010  0.5009
 1747SOL    HW1 5561   0.986   0.569   4.782 -0.1865  0.9640 -0.3221
 1747SOL    HW2 5562   1.147   0.577   4.753 -0.0866  0.9329  0.2045
 1748SOL     OW 5563   2.121   0.859   0.168 -0.6040  0.7931  0.6489
 1748SOL    HW1 5564   2.069   0.849   0.082 -0.1405 -2.7260  0.6003
 1748SOL    HW2 5565   2.216   0.882   0.147  0.0685 -2.1592 -0.1425
 1749SOL     OW 5566   1.061   3.462   4.849 -0.1082  0.1801  0.1816
 1749SOL    HW1 5567   1.057   3.494   4.754  2.5238  0.4069  0.0715
 1749SOL    HW2 5568   1.092   3.367   4.850 -1.5085 -0.2904  0.7909
 1750SOL     OW 5569   0.540   3.988   4.649  0.2628 -0.0605 -0.1414
 1750SOL    HW1 5570   0.514   4.018   4.740 -1.2901 -2.9132  0.4809
 1750SOL    HW2 5571   0.561   3.890   4.651  1.4547  0.0623 -2.6262
 1751SOL     OW 5572   1.450   2.882   5.334  0.1075  0.1706  0.4904
 1751SOL    HW1 5573   1.512   2.907   5.260  0.5456  0.2220  0.8702
 1751SOL    HW2 5574   1.414   2.790   5.318 -1.9669  1.1959 -1.2198
 1752SOL     OW 5575   2.428   4.670   4.310 -0.2405  0.2776  0.0800
 1752SOL    HW1 5576   2.524   4.643   4.319 -0.2022  0.6922  1.0539
 1752SOL    HW2 5577   2.421   4.770   4.315 -0.8170  0.1997  1.0543
 1753SOL     OW 5578   2.194   3.382   3.087 -0.2363 -0.5986 -0.3050
 1753SOL    HW1 5579   2.102   3.414   3.063 -0.6293 -0.8924  0.7350
 1753SOL    HW2 5580   2.188   3.321   3.166  0.9642  0.2814  0.5059
 1754SOL     OW 5581   0.207   0.286   2.427 -0.5746 -0.0536 -0.1265
 1754SOL    HW1 5582   0.196   0.200   2.379  0.1829 -0.8355  1.0493
 1754SOL    HW2 5583   0.210   0.269   2.526 -0.5285  1.3305  0.1361
 1755SOL     OW 5584   0.371   1.351   0.686 -0.4532 -0.4387  0.1104
 1755SOL    HW1 5585   0.309   1.405   0.629 -0.5245  1.3260  1.7556
 1755SOL    HW2 5586   0.411   1.278   0.631 -0.9193  0.8339 -2.0466
 1756SOL     OW 5587   1.957   5.087   3.576  0.1949  0.2976  1.0398
 1756SOL    HW1 5588   1.868   5.044   3.592  0.8479 -1.6605 -0.2746
 1756SOL    HW2 5589   2.030   5.022   3.594  1.3482  1.5786  1.1740
 1757SOL     OW 5590   1.477   2.309   5.284 -0.8397  0.4640  0.0113
 1757SOL    HW1 5591   1.460   2.238   5.352  0.7388 -0.8795 -0.9171
 1757SOL    HW2 5592   1.390   2.339   5.245 -1.5433 -1.5385 -0.0980
 1758SOL     OW 5593   1.398   5.400   4.872 -0.5883  0.1743  0.1364
 1758SOL    HW1 5594   1.324   5.344   4.835 -0.5318 -0.4938  1.0044
 1758SOL    HW2 5595   1.482   5.382   4.819 -1.0269  0.9284 -0.8415
 1759SOL     OW 5596   0.055   3.035   0.759  0.2297  0.7319  0.1474
 1759SOL    HW1 5597   0.063   3.034   0.859 -2.0402  4.4345  0.5585
 1759SOL    HW2 5598   0.007   2.953   0.729  0.3139 -0.1097  2.1699
 1760SOL     OW 5599   5.123   4.077   4.448  0.0914 -0.0198  0.0649
 1760SOL    HW1 5600   5.038   4.121   4.419 -1.3465 -0.7230  2.8079
 1760SOL    HW2 5601   5.147   4.005   4.384 -2.2579 -0.8053 -0.0308
 1761SOL     OW 5602   0.069   4.857   4.227  0.0601 -0.4730 -0.0223
 1761SOL    HW1 5603   0.107   4.772   4.192 -1.0604 -1.3350  0.8028
 1761SOL    HW2 5604   0.089   4.931   4.162  0.5518 -1.4516 -1.0298
 1762SOL     OW 5605   1.118   3.917   5.518  0.2771  1.1415  0.0550
 1762SOL    HW1 5606   1.048   3.953   5.456 -1.2811  2.3745  2.3730
 1762SOL    HW2 5607   1.080   3.839   5.568  1.1030  0.8804  0.2829
 1763SOL     OW 5608   5.106   5.225   0.346 -0.3227  0.5043  0.2488
 1763SOL    HW1 5609   5.188   5.223   0.288 -1.1078  1.3533 -0.9565
 1763SOL    HW2 5610   5.127   5.186   0.435  1.3048  0.4179 -0.1375
 1764SOL     OW 5611   5.149   3.569   4.021 -0.4528  0.0603 -0.2566
 1764SOL    HW1 5612   5.181   3.609   3.935  2.2990  0.5503  0.9167
 1764SOL    HW2 5613   5.052   3.593   4.034 -0.6540  0.8672 -2.6485
 1765SOL     OW 5614   1.272   4.376   4.472  0.0162 -0.0578 -0.5045
 1765SOL    HW1 5615   1.258   4.324   4.556  1.1566  0.9245  0.3265
 1765SOL    HW2 5616   1.223   4.331   4.397 -0.6478 -1.2110  0.5673
 1766SOL     OW 5617   1.952   0.668   5.474 -0.1279 -0.0864 -0.1895
 1766SOL    HW1 5618   1.984   0.580   5.510  1.0664  0.6171  0.5570
 1766SOL    HW2 5619   1.969   0.672   5.376  0.8365 -0.2873 -0.0456
 1767SOL     OW 5620   1.030   4.818   3.785  0.3460  0.2241  0.5623
 1767SOL    HW1 5621   0.986   4.791   3.699  1.5694  0.4636 -0.1615
 1767SOL    HW2 5622   0.979   4.894   3.826  0.1682  0.6010 -0.3368
 1768SOL     OW 5623   4.716   3.228   0.735 -0.0940  0.1425  0.5142
 1768SOL    HW1 5624   4.779   3.150   0.736  0.4664  0.5571  2.8481
 1768SOL    HW2 5625   4.622   3.194   0.728  0.2319 -0.5799 -0.7881
 1769SOL     OW 5626   0.664   4.839   4.002  0.4140 -0.4080 -0.2420
 1769SOL    HW1 5627   0.746   4.813   4.053  0.0331 -2.6210 -0.6277
 1769SOL    HW2 5628   0.641   4.766   3.938 -2.7716 -0.6304  0.9797
 1770SOL     OW 5629   0.675   4.040   0.814  0.0980  0.5437 -0.0988
 1770SOL    HW1 5630   0.649   4.095   0.735 -0.6876  0.5259  0.1348
 1770SOL    HW2 5631   0.595   4.027   0.873 -0.2364 -2.3395 -1.0287
 1771SOL     OW 5632   0.921   4.233   4.976 -0.7171  0.3662  0.8092
 1771SOL    HW1 5633   0.896   4.329   4.988 -0.7848  0.3674  0.6688
 1771SOL    HW2 5634   0.846   4.175   5.008 -1.4863  0.3849 -0.8316
 1772SOL     OW 5635   4.223   1.055   4.473  1.2788  0.0471  0.1750
 1772SOL    HW1 5636   4.279   1.135   4.492  0.3199  0.7215  0.2151
 1772SOL    HW2 5637   4.254   1.011   4.389  2.3754 -0.0640  0.6301
 1773SOL     OW 5638   5.341   0.520   0.274  0.1042  0.0814  0.1698
 1773SOL    HW1 5639   5.300   0.448   0.331  0.9908 -1.4071 -0.9861
 1773SOL    HW2 5640   5.436   0.495   0.253 -0.3656  0.2335 -2.4478
 1774SOL     OW 5641   0.089   3.880   4.327 -0.2560  0.0354  0.0559
 1774SOL    HW1 5642   0.180   3.909   4.356 -0.2060  0.1031 -0.1630
 1774SOL    HW2 5643   0.020   3.942   4.364 -0.4489 -1.3862  2.2659
 1775SOL     OW 5644   2.511   3.937   4.897 -0.1550  0.0643  0.4387
 1775SOL    HW1 5645   2.512   3.914   4.995  0.6312  1.2392  0.7257
 1775SOL    HW2 5646   2.598   3.980   4.872  0.7467 -2.6250 -1.4126
 1776SOL     OW 5647   4.108   3.112   4.777 -0.0593  0.0417 -0.4792
 1776SOL    HW1 5648   4.189   3.141   4.726 -0.3958  1.2225 -0.3839
 1776SOL    HW2 5649   4.040   3.075   4.713  0.2857 -0.3095 -0.6434
 1777SOL     OW 5650   0.838   3.012   4.628  0.2037 -0.0793 -0.2583
 1777SOL    HW1 5651   0.767   2.946   4.604 -0.4114 -0.0243  1.3261
 1777SOL    HW2 5652   0.819   3.051   4.718  1.9468  0.3369 -0.0301
 1778SOL     OW 5653   1.435   4.693   5.378 -0.0226  0.6498  0.5772
 1778SOL    HW1 5654   1.402   4.695   5.283 -0.3770 -0.0217  0.6816
 1778SOL    HW2 5655   1.362   4.660   5.438  0.1758  1.1423  1.1050
 1779SOL     OW 5656   1.815   0.786   4.331 -0.8778  0.0394 -0.5581
 1779SOL    HW1 5657   1.802   0.837   4.415  0.2842 -1.4798  0.6138
 1779SOL    HW2 5658   1.807   0.688   4.349  1.3569 -0.4469 -1.7542
 1780SOL     OW 5659   0.465   0.397   5.191  0.4653  0.0472  0.0452
 1780SOL    HW1 5660   0.504   0.311   5.223 -0.6989 -0.0436  1.2663
 1780SOL    HW2 5661   0.385   0.421   5.246  0.3939  1.5974 -0.6750
 1781SOL     OW 5662   1.798   5.000   0.266 -0.2302 -0.0297 -0.0178
 1781SOL    HW1 5663   1.745   5.073   0.310  1.0931  0.4466  0.8744
 1781SOL    HW2 5664   1.862   5.041   0.202 -1.3864 -0.6478 -1.6282
 1782SOL     OW 5665   0.413   2.972   5.215 -0.2681  0.5374  0.1247
 1782SOL    HW1 5666   0.441   3.057   5.260  0.5795 -1.1936  3.1187
 1782SOL    HW2 5667   0.322   2.945   5.248 -0.6503  0.3867 -1.0083
 1783SOL     OW 5668   1.224   0.425   3.726  0.0533  0.4142  0.1705
 1783SOL    HW1 5669   1.208   0.488   3.649 -0.0775 -0.7572 -0.7838
 1783SOL    HW2 5670   1.152   0.356   3.729  0.7565 -0.3197  0.5571
 1784SOL     OW 5671   5.191   4.267   4.234  0.6670 -1.0930  0.0206
 1784SOL    HW1 5672   5.263   4.205   4.201  1.3490 -0.6561  0.6442
 1784SOL    HW2 5673   5.213   4.295   4.328  0.2734 -0.0504 -0.1956
 1785SOL     OW 5674   0.840   2.282   5.202 -0.1787 -0.1797  0.9307
 1785SOL    HW1 5675   0.915   2.238   5.152  0.4931  0.7216  1.1112
 1785SOL    HW2 5676   0.874   2.365   5.245 -1.5578  0.8631  0.0796
 1786SOL     OW 5677   0.402   4.281   4.197  0.2045  0.1307 -0.2843
 1786SOL    HW1 5678   0.311   4.292   4.235  0.7894 -0.0903  1.2549
 1786SOL    HW2 5679   0.416   4.185   4.170 -0.9235  0.6658 -3.0799
 1787SOL     OW 5680   4.694   5.082   1.659  0.1777 -0.1642  0.1105
 1787SOL    HW1 5681   4.782   5.094   1.613  0.6103  3.3900  1.5644
 1787SOL    HW2 5682   4.672   4.984   1.664  2.1827 -0.9722 -3.5395
 1788SOL     OW 5683   5.121   3.379   4.333  0.8133  0.0056 -0.4340
 1788SOL    HW1 5684   5.193   3.347   4.394  0.1785  0.4208  0.5665
 1788SOL    HW2 5685   5.132   3.477   4.316  0.7019 -0.0074 -0.5824
 1789SOL     OW 5686   2.166   4.400   5.418 -0.0787  0.2569  0.2702
 1789SOL    HW1 5687   2.115   4.357   5.343 -1.6787 -0.0744  1.4924
 1789SOL    HW2 5688   2.140   4.496   5.425  1.4114  0.7585 -0.6925
 1790SOL     OW 5689   1.603   3.196   3.844 -0.3760 -0.0795  0.0697
 1790SOL    HW1 5690   1.669   3.259   3.803 -0.6897  0.6981  0.7255
 1790SOL    HW2 5691   1.604   3.109   3.794  0.7029  0.1306 -0.2961
 1791SOL     OW 5692   5.351   5.204   0.204  0.4035  0.3696 -0.6329
 1791SOL    HW1 5693   5.338   5.106   0.213  2.3011  0.0806 -0.6131
 1791SOL    HW2 5694   5.375   5.226   0.110  0.0398  0.8206 -0.6265
 1792SOL     OW 5695   1.777   3.725   5.225  0.1617 -0.6178  0.3854
 1792SOL    HW1 5696   1.733   3.656   5.282  0.6320 -0.0059  1.5181
 1792SOL    HW2 5697   1.777   3.813   5.272  1.8993 -0.4194  0.0984
 1793SOL     OW 5698   3.147   3.697   4.048  0.2007  0.0607 -0.1304
 1793SOL    HW1 5699   3.153   3.787   4.005  0.7782 -0.0738 -0.3325
 1793SOL    HW2 5700   3.081   3.641   3.998  2.9805 -1.1186 -2.7265
 1794SOL     OW 5701   5.450   3.358   5.121 -0.3734 -0.1279 -0.1074
 1794SOL    HW1 5702   5.482   3.283   5.063  1.0195 -0.3336  0.8664
 1794SOL    HW2 5703   5.450   3.443   5.069 -0.1469 -0.4885 -0.7050
 1795SOL     OW 5704   2.277   0.552   4.181  0.1822 -0.4923 -0.3640
 1795SOL    HW1 5705   2.291   0.506   4.269  3.7893  1.7828  0.4680
 1795SOL    HW2 5706   2.335   0.509   4.112 -0.7479 -0.6822 -1.0428
 1796SOL     OW 5707   2.527   3.556   4.174 -0.8232  0.1960  0.7648
 1796SOL    HW1 5708   2.502   3.647   4.208 -2.5779  0.0833 -0.1369
 1796SOL    HW2 5709   2.498   3.546   4.079  1.3420 -0.5584  0.1165
 1797SOL     OW 5710   0.372   4.747   4.641  0.0167 -0.3320  0.2301
 1797SOL    HW1 5711   0.301   4.805   4.603 -0.4930  0.1476  1.8515
 1797SOL    HW2 5712   0.401   4.680   4.572 -1.5753 -0.1622 -0.6469
 1798SOL     OW 5713   4.752   1.045   3.248 -0.2404  0.2426  0.1402
 1798SOL    HW1 5714   4.835   1.068   3.198 -0.9098 -0.4540 -1.3381
 1798SOL    HW2 5715   4.748   1.100   3.332  0.7842  1.6493 -0.6822
 1799SOL     OW 5716   2.796   3.008   0.466 -0.1051  0.4356  0.4656
 1799SOL    HW1 5717   2.840   2.995   0.377 -0.5973  0.6094  0.1961
 1799SOL    HW2 5718   2.818   2.930   0.525  0.1908  0.2996  0.1815
 1800SOL     OW 5719   1.501   2.883   1.584 -0.0378 -0.4186  0.3675
 1800SOL    HW1 5720   1.404   2.878   1.609 -0.2072  1.2737  0.2062
 1800SOL    HW2 5721   1.549   2.805   1.622 -1.5864 -1.6896 -0.1495
 1801SOL     OW 5722   0.860   5.011   4.348 -0.3930  0.6056  0.1247
 1801SOL    HW1 5723   0.919   4.963   4.413  0.0862  1.7297  0.5463
 1801SOL    HW2 5724   0.878   4.977   4.256 -0.1943 -0.1361  0.4311
 1802SOL     OW 5725   1.359   4.812   4.831  0.1758 -0.3528 -0.1486
 1802SOL    HW1 5726   1.278   4.787   4.779  0.2953  0.6654 -0.8451
 1802SOL    HW2 5727   1.440   4.773   4.786  0.5034  2.1427 -1.9714
 1803SOL     OW 5728   0.272   4.441   4.609 -0.0570 -0.5278 -0.3898
 1803SOL    HW1 5729   0.336   4.401   4.674  0.9899  0.7755 -0.5687
 1803SOL    HW2 5730   0.323   4.486   4.536 -1.1248  1.5180  0.0479
 1804SOL     OW 5731   1.981   4.679   4.527 -0.0917 -0.2761 -0.5154
 1804SOL    HW1 5732   1.948   4.736   4.451  1.5978 -0.6357 -1.5821
 1804SOL    HW2 5733   1.994   4.585   4.495 -0.5344 -0.7275  0.5777
 1805SOL     OW 5734   0.654   4.694   4.989  0.2089 -0.8018 -0.1872
 1805SOL    HW1 5735   0.596   4.756   4.935 -0.7915 -0.5215  1.1499
 1805SOL    HW2 5736   0.617   4.686   5.082  0.1432 -3.6338 -0.3679
 1806SOL     OW 5737   3.072   4.879   4.531 -0.1078  0.0965 -0.0098
 1806SOL    HW1 5738   3.163   4.840   4.544  0.3576  1.4091  0.9154
 1806SOL    HW2 5739   3.079   4.977   4.518 -1.2638 -0.0441 -2.0522
 1807SOL     OW 5740   2.243   4.343   4.559 -0.4584 -0.0462  0.3862
 1807SOL    HW1 5741   2.163   4.284   4.546 -2.4145  2.7734 -1.8927
 1807SOL    HW2 5742   2.247   4.374   4.654 -1.9627 -0.4257  0.5995
 1808SOL     OW 5743   2.218   0.332   5.226  0.0232  0.2913  0.1418
 1808SOL    HW1 5744   2.142   0.323   5.162  0.5749 -0.5157 -0.4196
 1808SOL    HW2 5745   2.277   0.407   5.197 -0.7262  1.1289  0.7623
 1809SOL     OW 5746   0.057   5.478   4.076  0.3609  0.0397  0.4530
 1809SOL    HW1 5747   0.117   5.489   3.997  0.4436 -1.7433  0.2445
 1809SOL    HW2 5748   0.093   5.407   4.137 -0.6674  0.1007  1.1632
 1810SOL     OW 5749   0.335   0.045   0.149 -0.3033  0.0562  0.1530
 1810SOL    HW1 5750   0.247   0.001   0.167 -1.1087  1.5210 -0.0267
 1810SOL    HW2 5751   0.401   0.018   0.219 -1.2704 -0.0372  1.0558
 1811SOL     OW 5752   1.032   3.146   5.215 -0.1332 -0.2383  0.0748
 1811SOL    HW1 5753   0.985   3.062   5.192 -0.2564  0.1251 -1.0826
 1811SOL    HW2 5754   1.099   3.129   5.287 -0.0001 -1.3746 -0.3055
 1812SOL     OW 5755   0.596   0.938   5.012  0.3252  0.0793 -0.0631
 1812SOL    HW1 5756   0.639   0.946   4.922  1.1885  0.0561  0.3408
 1812SOL    HW2 5757   0.573   0.842   5.030 -1.0008  0.2402 -0.7703
 1813SOL     OW 5758   0.276   0.039   2.311  0.5723  0.0638  0.2259
 1813SOL    HW1 5759   0.315   0.006   2.225  0.9447 -0.6054  0.6490
 1813SOL    HW2 5760   0.296  -0.026   2.384  0.9479  1.0176  0.9919
 1814SOL     OW 5761   1.564   3.331   4.687  0.0009 -0.2011  0.6161
 1814SOL    HW1 5762   1.563   3.316   4.588  0.2242  0.3619  0.5251
 1814SOL    HW2 5763   1.635   3.397   4.710 -0.3666  0.0302  1.0993
 1815SOL     OW 5764   0.998   5.447   3.046 -0.4813  0.3424 -0.0607
 1815SOL    HW1 5765   1.013   5.373   2.980 -0.8075  1.1948 -1.1146
 1815SOL    HW2 5766   1.029   5.533   3.007 -1.3393  0.9783  0.6167
 1816SOL     OW 5767   4.986   5.088   4.559  0.1278 -0.6239 -0.4294
 1816SOL    HW1 5768   5.039   5.163   4.598 -1.2867  0.0649  0.2434
 1816SOL    HW2 5769   5.011   5.003   4.605  1.0324 -0.4174 -0.5080
 1817SOL     OW 5770   2.148   0.107   5.388 -0.1845 -0.5201 -0.3851
 1817SOL    HW1 5771   2.178   0.179   5.324 -0.0472 -0.7789 -0.6142
 1817SOL    HW2 5772   2.080   0.050   5.343 -0.1545 -0.6484 -0.2672
 1818SOL     OW 5773   2.130   0.334   3.634  0.8192  0.0617  0.2777
 1818SOL    HW1 5774   2.139   0.289   3.723 -0.0260  0.7636  0.7406
 1818SOL    HW2 5775   2.052   0.294   3.585  0.3199  0.7351  0.5177
 1819SOL     OW 5776   0.412   4.326   4.799 -0.1255 -0.6136 -0.1124
 1819SOL    HW1 5777   0.400   4.228   4.787  0.3708 -0.4533 -2.3149
 1819SOL    HW2 5778   0.473   4.343   4.877 -0.4873 -2.0137  0.4968
 1820SOL     OW 5779   2.117   3.973   3.025  0.3602 -0.2078  0.3021
 1820SOL    HW1 5780   2.206   4.000   2.988  0.5607  1.2757  1.7620
 1820SOL    HW2 5781   2.082   4.045   3.085 -0.9406 -1.5817  1.2763
 1821SOL     OW 5782   0.504   4.016   1.056 -0.5218 -0.5252  0.2326
 1821SOL    HW1 5783   0.544   4.105   1.078 -2.4943  0.4694  0.0158
 1821SOL    HW2 5784   0.554   3.944   1.104  1.4951  0.6155 -0.0627
 1822SOL     OW 5785   1.089   4.084   4.460  0.1230 -0.1455 -0.5606
 1822SOL    HW1 5786   1.109   4.167   4.407  0.3495  0.3706  0.3152
 1822SOL    HW2 5787   1.024   4.106   4.533 -1.5736 -1.2257 -1.6753
 1823SOL     OW 5788   0.618   4.222   0.547  0.5622 -0.0450 -0.0025
 1823SOL    HW1 5789   0.642   4.126   0.528  2.1553  0.6876 -2.0831
 1823SOL    HW2 5790   0.541   4.249   0.490 -0.7564 -0.3978  1.5393
 1824SOL     OW 5791   5.417   0.029   4.475 -0.6464  0.8449 -0.1189
 1824SOL    HW1 5792   5.442   0.124   4.495  0.2920  0.5665  0.0522
 1824SOL    HW2 5793   5.499  -0.028   4.473 -1.1426  0.1301 -0.7690
 1825SOL     OW 5794   2.066   3.493   4.401 -0.1522  0.4037 -0.4658
 1825SOL    HW1 5795   2.006   3.414   4.392 -0.1627 -0.0651  2.5606
 1825SOL    HW2 5796   2.150   3.465   4.448 -0.1202  2.1561  0.5851
 1826SOL     OW 5797   2.788   3.677   4.483  0.0301 -0.9233  0.1484
 1826SOL    HW1 5798   2.843   3.593   4.489 -0.4840 -1.3300 -0.6849
 1826SOL    HW2 5799   2.779   3.703   4.387 -0.5462 -0.3935  0.3468
 1827SOL     OW 5800   4.739   0.176   5.441 -0.6619 -0.5406 -0.2095
 1827SOL    HW1 5801   4.757   0.161   5.538 -4.3617 -0.3766  0.6505
 1827SOL    HW2 5802   4.751   0.272   5.419  0.6066 -0.6474 -0.0767
 1828SOL     OW 5803   1.269   4.433   5.090 -0.2077  0.5935  0.0670
 1828SOL    HW1 5804   1.249   4.429   4.992  0.1909  0.7105 -0.0208
 1828SOL    HW2 5805   1.308   4.346   5.120 -1.1471  0.2425  0.3107
 1829SOL     OW 5806   2.830   1.639   5.429 -0.8251 -0.2953  0.0213
 1829SOL    HW1 5807   2.899   1.597   5.371 -0.5344 -0.4166  0.4541
 1829SOL    HW2 5808   2.870   1.662   5.517 -1.5838 -1.2946  0.6475
 1830SOL     OW 5809   4.928   4.587   3.648 -0.3544 -0.0005  0.2442
 1830SOL    HW1 5810   4.877   4.506   3.617  0.6606 -0.2210 -0.8776
 1830SOL    HW2 5811   4.875   4.669   3.628 -1.0871 -0.3269  0.7714
 1831SOL     OW 5812   1.162   3.338   3.693  0.1222 -0.1564  0.5419
 1831SOL    HW1 5813   1.144   3.403   3.619  0.3272  0.2684  0.8581
 1831SOL    HW2 5814   1.177   3.388   3.778 -0.8992 -0.6602  1.0495
 1832SOL     OW 5815   2.340   0.787   4.408 -0.2397  0.6194  0.4756
 1832SOL    HW1 5816   2.395   0.870   4.407 -0.3504  0.7359  1.8788
 1832SOL    HW2 5817   2.259   0.800   4.350  0.1915  1.1521 -0.0196
 1833SOL     OW 5818   1.619   4.548   0.402 -0.5008  0.2445  0.3577
 1833SOL    HW1 5819   1.599   4.472   0.340  0.3051  0.5639 -0.3315
 1833SOL    HW2 5820   1.702   4.595   0.370 -0.5030  0.8860  1.2595
 1834SOL     OW 5821   3.286   5.285   5.533  0.2293  0.1225  0.5424
 1834SOL    HW1 5822   3.344   5.238   5.467  1.7150 -1.9573  3.0923
 1834SOL    HW2 5823   3.340   5.352   5.584 -0.6322  0.9951  0.3381
 1835SOL     OW 5824   0.080   4.335   5.363  0.0239 -0.0235 -0.6235
 1835SOL    HW1 5825   0.166   4.285   5.371  0.7731  1.0947 -1.3805
 1835SOL    HW2 5826   0.017   4.306   5.435  1.3663 -0.1976  0.5134
 1836SOL     OW 5827   1.809   2.790   3.677  0.1275 -0.7059 -0.7651
 1836SOL    HW1 5828   1.827   2.863   3.612 -0.7842  2.8316  2.6194
 1836SOL    HW2 5829   1.712   2.763   3.670  0.4161 -1.5169 -1.8792
 1837SOL     OW 5830   0.519   4.436   3.104  0.3817  0.3619  0.4535
 1837SOL    HW1 5831   0.544   4.397   3.192 -1.0560 -1.0936  0.2546
 1837SOL    HW2 5832   0.467   4.520   3.119  2.7632  1.8634  0.8895
 1838SOL     OW 5833   1.850   2.980   3.488  0.3770  0.0841  0.3353
 1838SOL    HW1 5834   1.778   3.035   3.447 -0.6863 -0.8718  0.8653
 1838SOL    HW2 5835   1.912   2.947   3.417  0.5483  1.2339 -0.0799
 1839SOL     OW 5836   1.786   4.369   4.683 -0.1082  0.2776 -0.0358
 1839SOL    HW1 5837   1.728   4.447   4.706 -0.6678 -0.2166  0.2795
 1839SOL    HW2 5838   1.850   4.351   4.757 -1.6013 -1.0300  0.9969
 1840SOL     OW 5839   0.608   1.329   0.256  0.6606  0.5573  0.1887
 1840SOL    HW1 5840   0.665   1.300   0.333 -1.7245 -2.9588  0.9117
 1840SOL    HW2 5841   0.529   1.379   0.290  0.1903  0.0026 -0.0629
 1841SOL     OW 5842   5.328   2.689   4.523 -0.0049 -0.1657 -0.1421
 1841SOL    HW1 5843   5.363   2.766   4.576 -0.0028  0.5214 -1.1087
 1841SOL    HW2 5844   5.256   2.642   4.575 -2.3052  2.4417 -0.7449
 1842SOL     OW 5845   2.618   4.364   1.175  0.6622 -0.0573  0.2858
 1842SOL    HW1 5846   2.545   4.426   1.145  0.3906  0.6905  2.2943
 1842SOL    HW2 5847   2.587   4.270   1.169  0.0084  0.1809 -0.1282
 1843SOL     OW 5848   5.371   4.362   2.694 -0.1703  0.5105 -0.1422
 1843SOL    HW1 5849   5.349   4.458   2.677  1.1831  1.1382  1.4255
 1843SOL    HW2 5850   5.429   4.328   2.619 -1.8783  0.4277 -1.4851
 1844SOL     OW 5851   5.417   0.722   4.217 -0.1136  0.3682 -0.2105
 1844SOL    HW1 5852   5.446   0.628   4.235 -1.9998 -0.7547 -2.4640
 1844SOL    HW2 5853   5.495   0.783   4.228  1.7363 -1.7379 -0.7561
 1845SOL     OW 5854   1.692   0.040   2.367 -0.6393 -0.6972  0.6659
 1845SOL    HW1 5855   1.683   0.112   2.437  1.1603 -0.0444  0.2929
 1845SOL    HW2 5856   1.736   0.079   2.286  2.1290 -2.5927  1.1398
 1846SOL     OW 5857   1.170   1.060   4.684 -0.1981 -0.1277 -0.1622
 1846SOL    HW1 5858   1.150   1.151   4.646 -1.2667 -0.4907 -0.4997
 1846SOL    HW2 5859   1.087   1.022   4.726  0.5865 -0.3798  1.2063
 1847SOL     OW 5860   0.241   4.565   5.395 -0.1318  0.1387 -0.2867
 1847SOL    HW1 5861   0.168   4.496   5.385 -0.4323  0.4798 -0.4835
 1847SOL    HW2 5862   0.203   4.655   5.378  0.0298  0.4601  0.9582
 1848SOL     OW 5863   5.237   4.089   3.362  0.2329 -0.6151 -0.1595
 1848SOL    HW1 5864   5.227   4.032   3.443 -2.0695 -0.2397 -0.1294
 1848SOL    HW2 5865   5.324   4.139   3.367 -0.1652 -0.0585  2.4146
 1849SOL     OW 5866   2.213   4.829   4.814  0.1526 -0.3829  0.2513
 1849SOL    HW1 5867   2.226   4.805   4.718 -0.7539 -1.3497  0.3443
 1849SOL    HW2 5868   2.256   4.759   4.872  1.7101  0.8070  0.5650
 1850SOL     OW 5869   0.270   0.680  -0.016  0.2982 -0.0799  0.6996
 1850SOL    HW1 5870   0.267   0.775   0.016  1.0607  0.1362  0.1531
 1850SOL    HW2 5871   0.259   0.618   0.062  3.9803  0.3838  1.7594
 1851SOL     OW 5872   2.316   4.543   1.474 -0.6128 -0.2695  0.4698
 1851SOL    HW1 5873   2.273   4.545   1.564 -0.5485  0.3120  0.4946
 1851SOL    HW2 5874   2.408   4.582   1.480 -1.7955  3.0551 -0.4162
 1852SOL     OW 5875   0.070   0.819   4.499  0.0776  0.0886  0.2532
 1852SOL    HW1 5876   0.115   0.731   4.507 -1.4576 -0.7301  0.3372
 1852SOL    HW2 5877  -0.006   0.824   4.564 -1.3493  0.5060 -1.3735
 1853SOL     OW 5878   0.098   3.743   0.650  0.2849 -0.2266  0.5479
 1853SOL    HW1 5879   0.191   3.732   0.686  0.3872  0.7049  0.5866
 1853SOL    HW2 5880   0.049   3.656   0.657  0.4834 -0.2200  2.3788
 1854SOL     OW 5881   1.497   3.482   0.475  0.4633  0.1741  0.4883
 1854SOL    HW1 5882   1.562   3.407   0.484  0.4265 -0.0246 -0.7508
 1854SOL    HW2 5883   1.507   3.544   0.552  1.3063 -0.4789  0.9199
 1855SOL     OW 5884   1.169   4.448   4.830 -0.7141 -0.4705 -0.0551
 1855SOL    HW1 5885   1.199   4.363   4.787 -1.2925  0.0256 -1.5062
 1855SOL    HW2 5886   1.078   4.472   4.797 -0.9046  0.2994  0.9686
 1856SOL     OW 5887   0.104   0.827   0.182  0.3245 -0.3825 -0.1012
 1856SOL    HW1 5888   0.137   0.783   0.266  1.0605  0.8392  0.2738
 1856SOL    HW2 5889   0.055   0.911   0.205 -0.1924 -0.4670 -0.8552
 1857SOL     OW 5890   1.364   3.775   4.025  0.2362 -0.1778 -0.2921
 1857SOL    HW1 5891   1.349   3.872   4.007  2.8722  0.4179  0.2106
 1857SOL    HW2 5892   1.277   3.729   4.041 -1.2156  1.7385 -2.2103
 1858SOL     OW 5893   1.922   0.261   4.813  0.3678  0.2657  0.3594
 1858SOL    HW1 5894   1.938   0.181   4.870  0.6026 -0.0938 -0.2008
 1858SOL    HW2 5895   1.868   0.235   4.733  2.6543  0.0731 -1.2313
 1859SOL     OW 5896   0.890   4.048   3.320  0.1784 -0.7491  0.1757
 1859SOL    HW1 5897   0.906   4.133   3.269 -1.9457  0.3283  1.1698
 1859SOL    HW2 5898   0.828   3.989   3.269  1.1595 -1.4375 -0.2326
 1860SOL     OW 5899   4.144   5.380   4.605 -0.4686 -0.0913 -0.2675
 1860SOL    HW1 5900   4.109   5.465   4.567 -2.1630 -0.5854  0.1111
 1860SOL    HW2 5901   4.080   5.344   4.673  1.6021 -0.1583  1.7859
 1861SOL     OW 5902   4.771   0.962   5.311  0.4584  0.1333  0.4554
 1861SOL    HW1 5903   4.858   1.009   5.319  0.9003 -0.5987  0.1358
 1861SOL    HW2 5904   4.724   0.992   5.227  1.3650 -0.9602 -0.4787
 1862SOL     OW 5905   0.993   0.242   4.802 -0.3353 -0.4136  0.3284
 1862SOL    HW1 5906   0.987   0.221   4.705  0.8987  1.4911 -0.1977
 1862SOL    HW2 5907   1.044   0.170   4.849 -0.4499 -1.0527 -0.5079
 1863SOL     OW 5908   2.171   2.433   5.393  0.1603 -0.6931  0.2879
 1863SOL    HW1 5909   2.094   2.372   5.413  0.3195 -0.8075  0.5585
 1863SOL    HW2 5910   2.192   2.429   5.296  0.1758 -1.0782  0.3054
 1864SOL     OW 5911   2.076   2.876   4.017  0.7564 -0.6783 -0.1196
 1864SOL    HW1 5912   2.087   2.797   3.957  1.2366 -0.2334 -0.6358
 1864SOL    HW2 5913   2.121   2.956   3.975 -0.3014  0.0279  0.0586
 1865SOL     OW 5914   0.682   0.201   0.015  0.8122 -0.0726 -0.0646
 1865SOL    HW1 5915   0.628   0.238   0.090  0.4055  0.9247 -0.8217
 1865SOL    HW2 5916   0.725   0.115   0.043 -1.6543 -1.2415  0.3917
 1866SOL     OW 5917   2.215   3.397   4.074  0.2171 -0.3838 -0.3161
 1866SOL    HW1 5918   2.205   3.316   4.133  0.2512  0.7371  1.2819
 1866SOL    HW2 5919   2.127   3.417   4.030 -0.5108  0.2264  1.3517
 1867SOL     OW 5920   0.587   4.362   4.406  0.1305  0.0315 -0.3301
 1867SOL    HW1 5921   0.546   4.321   4.325  0.3075 -2.1092  0.5966
 1867SOL    HW2 5922   0.621   4.290   4.466  0.6810  1.5869  1.3096
 1868SOL     OW 5923   1.957   0.219   3.496  0.4275  0.3135 -0.2974
 1868SOL    HW1 5924   1.916   0.132   3.525  2.0630 -0.1854  0.6297
 1868SOL    HW2 5925   1.927   0.240   3.403 -0.2896 -1.0679 -0.4078
 1869SOL     OW 5926   0.611   0.708   4.687  0.0593  0.4873 -0.0744
 1869SOL    HW1 5927   0.577   0.684   4.778 -1.6986 -0.8281 -1.0133
 1869SOL    HW2 5928   0.640   0.625   4.640  0.7706  1.1296 -0.7983
 1870SOL     OW 5929   0.149   4.150   4.553  0.0515  0.5467 -0.1132
 1870SOL    HW1 5930   0.053   4.125   4.567 -0.0884  1.2532  0.2616
 1870SOL    HW2 5931   0.172   4.227   4.612  0.9995  0.0535  0.1801
 1871SOL     OW 5932   0.155   0.526   0.549 -0.1481 -0.1026 -0.2165
 1871SOL    HW1 5933   0.145   0.447   0.489 -0.7890 -0.3332  0.1832
 1871SOL    HW2 5934   0.097   0.513   0.631  0.6157  0.2571  0.3891
 1872SOL     OW 5935   0.746   0.658   3.400  0.7725 -0.4575 -0.1623
 1872SOL    HW1 5936   0.748   0.574   3.345 -0.0396 -1.8917  1.8305
 1872SOL    HW2 5937   0.654   0.671   3.437  1.4417  0.0075  1.4348
 1873SOL     OW 5938   5.080   4.043   4.717  0.8236  0.0801 -0.6051
 1873SOL    HW1 5939   5.002   4.102   4.737 -0.4937 -1.2182 -1.6515
 1873SOL    HW2 5940   5.088   4.030   4.618  1.8107 -0.5300 -0.4617
 1874SOL     OW 5941   2.056   4.990   4.981  0.1348  0.5148 -0.3912
 1874SOL    HW1 5942   2.093   4.917   4.923  1.2230  1.8415 -1.4390
 1874SOL    HW2 5943   1.960   5.004   4.959  0.6962  1.5072 -2.5283
 1875SOL     OW 5944   2.466   0.277   3.793 -0.0555 -0.1505  0.0721
 1875SOL    HW1 5945   2.515   0.241   3.714  1.7800 -1.1978  1.5999
 1875SOL    HW2 5946   2.503   0.367   3.816 -0.4128  0.0412 -0.0956
 1876SOL     OW 5947   0.392   0.501   0.699  0.7034  0.1549 -0.7102
 1876SOL    HW1 5948   0.382   0.404   0.718  2.7419 -0.3893 -2.0421
 1876SOL    HW2 5949   0.310   0.536   0.653 -0.4783 -0.6385  0.7311
 1877SOL     OW 5950   2.372   5.434   5.369  0.3450 -0.5349 -0.5082
 1877SOL    HW1 5951   2.322   5.498   5.312 -2.0787 -0.3719  1.6051
 1877SOL    HW2 5952   2.395   5.477   5.456  1.5335 -1.5800 -0.2713
 1878SOL     OW 5953   0.356   4.913   5.118 -0.3209 -0.1903  0.1093
 1878SOL    HW1 5954   0.416   4.889   5.042 -0.7043 -0.1612 -0.2059
 1878SOL    HW2 5955   0.381   5.004   5.152  0.4264 -0.5713  0.6003
 1879SOL     OW 5956   0.306   4.190   5.439  0.2865 -0.3254 -0.2731
 1879SOL    HW1 5957   0.248   4.148   5.509 -0.4399 -0.4068 -0.9104
 1879SOL    HW2 5958   0.381   4.238   5.483 -0.3454 -0.0887  0.5845
 1880SOL     OW 5959   5.500   5.167   3.748  0.1092  0.2476  0.0300
 1880SOL    HW1 5960   5.475   5.143   3.842  0.9327  0.2741  0.2673
 1880SOL    HW2 5961   5.550   5.254   3.748 -1.1564  1.0059 -0.6042
 1881SOL     OW 5962   3.707   3.551   4.510 -0.2666  0.0039 -0.1008
 1881SOL    HW1 5963   3.756   3.571   4.425  0.4335  0.4417  0.3925
 1881SOL    HW2 5964   3.623   3.605   4.513 -0.8495 -0.8107 -0.9923
 1882SOL     OW 5965   4.399   5.501   3.622  0.2881 -0.2014 -0.1093
 1882SOL    HW1 5966   4.315   5.556   3.629  0.3417  0.0922 -1.5303
 1882SOL    HW2 5967   4.447   5.503   3.709 -0.0032  1.5541  0.0452
 1883SOL     OW 5968   0.635   2.281   0.853  0.0142  0.0934 -0.5770
 1883SOL    HW1 5969   0.675   2.260   0.764  0.7109  0.3060 -0.3271
 1883SOL    HW2 5970   0.536   2.270   0.850 -0.2109  2.0462 -1.9400
 1884SOL     OW 5971   1.665   4.790   0.756 -0.5844 -0.1332 -0.1368
 1884SOL    HW1 5972   1.740   4.839   0.799 -1.1424  0.1645  0.5186
 1884SOL    HW2 5973   1.622   4.848   0.686 -0.9554  0.1559  0.3222
 1885SOL     OW 5974   1.058   3.803   3.580 -0.4732 -0.1057 -0.2272
 1885SOL    HW1 5975   1.136   3.754   3.618 -0.7129 -0.0990  0.2753
 1885SOL    HW2 5976   1.022   3.867   3.648 -2.2095 -1.5841  0.3285
 1886SOL     OW 5977   0.275   4.008   4.000  0.4537 -0.1641  0.1439
 1886SOL    HW1 5978   0.180   4.025   4.028 -0.0744 -2.2733 -0.1908
 1886SOL    HW2 5979   0.333   4.000   4.081  0.0604 -0.3290  0.4127
 1887SOL     OW 5980   1.217   1.952   3.656  0.0972 -0.4983  0.3945
 1887SOL    HW1 5981   1.167   2.034   3.681 -0.3312 -0.6696  0.1089
 1887SOL    HW2 5982   1.154   1.885   3.617  0.2603 -1.3480  1.5453
 1888SOL     OW 5983   2.238   5.168   5.079 -0.0796 -0.2355  0.1750
 1888SOL    HW1 5984   2.168   5.098   5.065  0.8922 -1.9300  3.0450
 1888SOL    HW2 5985   2.329   5.126   5.072  0.5181  0.5917  2.3635
 1889SOL     OW 5986   0.028   5.014   0.114  0.2041 -0.1665  0.0960
 1889SOL    HW1 5987  -0.060   5.015   0.161 -0.0022  4.0506  0.0489
 1889SOL    HW2 5988   0.089   4.948   0.157 -1.3508  0.4602  3.5668
 1890SOL     OW 5989   0.275   4.053   3.628  0.2022  0.1686  0.4442
 1890SOL    HW1 5990   0.242   4.081   3.538  2.8383  0.5904 -0.4672
 1890SOL    HW2 5991   0.206   4.076   3.697 -1.4061  0.8739 -1.3078
 1891SOL     OW 5992   1.735   3.794   4.957 -0.3923 -0.4820  0.7905
 1891SOL    HW1 5993   1.640   3.800   4.928  0.1169  1.7625 -0.7069
 1891SOL    HW2 5994   1.744   3.827   5.051 -0.9885  0.0202  0.6728
 1892SOL     OW 5995   1.608   4.321   0.255  0.0503  0.4402 -0.1493
 1892SOL    HW1 5996   1.658   4.235   0.243  1.0036  0.8277  0.8856
 1892SOL    HW2 5997   1.582   4.357   0.165  0.7538 -0.2756 -0.6543
 1893SOL     OW 5998   0.891   4.705   0.248  0.1710 -0.7633  0.5057
 1893SOL    HW1 5999   0.981   4.666   0.228  0.6214 -0.1619  1.2704
 1893SOL    HW2 6000   0.901   4.777   0.316 -0.7120  0.3322 -0.4942
 1894SOL     OW 6001   5.279   4.699   0.091  0.2668  0.0552  0.0734
 1894SOL    HW1 6002   5.346   4.755   0.042 -0.6405  1.1975  0.1074
 1894SOL    HW2 6003   5.326   4.624   0.136  1.1426 -1.1255 -2.6020
 1895SOL     OW 6004   1.018   5.341   3.635 -0.0658  0.1245  0.3275
 1895SOL    HW1 6005   0.998   5.249   3.602  0.4744  0.5294 -1.2301
 1895SOL    HW2 6006   1.097   5.377   3.586  0.9161  0.7247  2.2585
 1896SOL     OW 6007   1.690   4.660   5.424 -0.7023  0.4907 -0.0064
 1896SOL    HW1 6008   1.590   4.659   5.428 -0.6625  0.6639  3.2904
 1896SOL    HW2 6009   1.725   4.725   5.490  1.6407  0.0947 -0.7859
 1897SOL     OW 6010   2.166   3.817   4.904  0.4272 -0.1429 -0.1967
 1897SOL    HW1 6011   2.090   3.807   4.968 -1.1499  0.7682 -1.8199
 1897SOL    HW2 6012   2.157   3.751   4.830  2.5799 -1.6205  0.7686
 1898SOL     OW 6013   1.793   5.021   4.949  0.0120 -0.1799  0.1819
 1898SOL    HW1 6014   1.722   5.012   4.880 -0.0693  0.6214  0.1516
 1898SOL    HW2 6015   1.761   5.080   5.023  1.1136  1.3439 -0.5059
 1899SOL     OW 6016   0.450   4.914   2.638  0.1202  0.2336  0.1726
 1899SOL    HW1 6017   0.377   4.940   2.575 -0.7118  1.1370  1.4684
 1899SOL    HW2 6018   0.477   4.993   2.693 -1.0760 -1.0879  2.8240
 1900SOL     OW 6019   0.115   5.290   3.030  0.0266  0.2600 -0.3487
 1900SOL    HW1 6020   0.096   5.306   2.933 -1.4648 -0.8368 -0.2830
 1900SOL    HW2 6021   0.077   5.365   3.084 -0.5248  0.1153 -0.5243
 1901SOL     OW 6022   2.067   4.654   5.481 -0.1264  0.1649 -0.0639
 1901SOL    HW1 6023   2.155   4.666   5.527 -0.5201  2.6587  0.1860
 1901SOL    HW2 6024   2.010   4.735   5.497 -1.8554 -0.6942 -1.5497
 1902SOL     OW 6025   5.088   0.047   4.215  0.1836 -0.3451 -0.0132
 1902SOL    HW1 6026   5.063   0.015   4.306  2.0557  0.3511  0.8018
 1902SOL    HW2 6027   5.029   0.004   4.147 -0.1459 -2.2245  1.3717
 1903SOL     OW 6028   0.974   0.652   5.285  0.0793  0.8961  0.7693
 1903SOL    HW1 6029   0.903   0.595   5.246  2.3448 -0.8610 -1.0640
 1903SOL    HW2 6030   1.010   0.608   5.368  1.4738 -0.1621 -0.3573
 1904SOL     OW 6031   0.683   3.983   0.450  0.3212 -0.1237  0.7508
 1904SOL    HW1 6032   0.640   3.971   0.360  0.7445 -1.1303  0.6652
 1904SOL    HW2 6033   0.718   3.895   0.482  2.0257  0.5931  0.9602
 1905SOL     OW 6034   3.930   0.677   0.394  0.1403 -0.0027 -0.0891
 1905SOL    HW1 6035   3.987   0.692   0.313 -1.3499  1.3560 -0.9533
 1905SOL    HW2 6036   3.892   0.765   0.425 -1.5408 -0.8387  0.3717
 1906SOL     OW 6037   1.272   0.767   5.034 -0.2841  0.3076  0.3478
 1906SOL    HW1 6038   1.223   0.743   5.118  0.2025 -0.3672  0.4439
 1906SOL    HW2 6039   1.368   0.741   5.042 -0.0020  1.2027 -0.0199
 1907SOL     OW 6040   3.754   3.883   4.176  0.1674  0.6326 -0.6028
 1907SOL    HW1 6041   3.743   3.970   4.127 -1.0983  0.5107 -0.5730
 1907SOL    HW2 6042   3.841   3.841   4.150  0.3665  1.4546 -1.3288
 1908SOL     OW 6043   0.704   4.777   4.361  0.0395  0.3597  0.1389
 1908SOL    HW1 6044   0.764   4.713   4.314  1.1066 -0.3823  2.3900
 1908SOL    HW2 6045   0.746   4.868   4.360  0.5638  0.1305  0.5124
 1909SOL     OW 6046   1.122   4.285   0.096 -0.2248  0.1303 -0.2325
 1909SOL    HW1 6047   1.091   4.259   0.004 -0.9851  1.0194 -0.2470
 1909SOL    HW2 6048   1.112   4.208   0.158 -2.4289  0.3169 -0.2683
 1910SOL     OW 6049   2.297   0.684   2.741  0.4656 -0.0007  0.2380
 1910SOL    HW1 6050   2.352   0.707   2.821  1.2304 -1.4164  0.1622
 1910SOL    HW2 6051   2.353   0.634   2.675 -0.9944 -1.9623  0.3903
 1911SOL     OW 6052   0.192   4.154   3.401 -0.1343  0.2285 -0.0463
 1911SOL    HW1 6053   0.243   4.239   3.392 -1.8532  1.4495  1.0967
 1911SOL    HW2 6054   0.170   4.118   3.310  0.6051  1.0044 -0.5388
 1912SOL     OW 6055   4.767   2.369   4.857 -0.6202 -0.3318  0.0040
 1912SOL    HW1 6056   4.849   2.314   4.845  0.3369  1.2947 -1.5403
 1912SOL    HW2 6057   4.696   2.336   4.795  0.0365  0.2566 -1.1106
 1913SOL     OW 6058   0.513   1.947   4.768  0.6957  0.0281  0.5353
 1913SOL    HW1 6059   0.552   2.023   4.820 -1.1508  0.5273  1.2855
 1913SOL    HW2 6060   0.454   1.893   4.828 -3.8977  2.2860 -1.3970
 1914SOL     OW 6061   1.457   5.440   0.323  0.0848 -0.4752 -0.0298
 1914SOL    HW1 6062   1.466   5.364   0.259  0.1069 -0.0973 -0.4812
 1914SOL    HW2 6063   1.474   5.526   0.275  0.2608 -0.1998  0.5230
 1915SOL     OW 6064   2.823   0.723   5.225 -0.0454 -0.4842 -0.3483
 1915SOL    HW1 6065   2.895   0.750   5.289  1.2203 -0.0959 -1.8530
 1915SOL    HW2 6066   2.776   0.642   5.259 -1.8481  1.6801  2.7923
 1916SOL     OW 6067   1.059   1.735   3.286 -0.0602 -0.3097  0.6949
 1916SOL    HW1 6068   1.150   1.757   3.320  0.8731  0.0190 -1.7819
 1916SOL    HW2 6069   1.052   1.636   3.270  0.5786 -0.1253 -0.8837
 1917SOL     OW 6070   0.625   4.658   5.357  0.3721  0.5793  0.7401
 1917SOL    HW1 6071   0.583   4.688   5.443 -1.9538 -0.1038 -0.0745
 1917SOL    HW2 6072   0.643   4.738   5.300  0.7062  0.9311  1.3265
 1918SOL     OW 6073   2.328   2.524   0.549  0.2117  0.1544 -0.3610
 1918SOL    HW1 6074   2.408   2.546   0.605  0.7394  0.8605 -1.3573
 1918SOL    HW2 6075   2.351   2.450   0.486  0.5857  1.3450 -1.6761
 1919SOL     OW 6076   5.222   5.002   3.900  0.3646 -0.2094  0.3868
 1919SOL    HW1 6077   5.252   4.955   3.817  1.1212  0.2642  0.3863
 1919SOL    HW2 6078   5.156   5.073   3.876  3.0439  2.2335 -0.2891
 1920SOL     OW 6079   0.039   3.765   3.651  0.4418 -0.3600 -0.0591
 1920SOL    HW1 6080   0.129   3.808   3.653  0.8736 -1.2475  0.9007
 1920SOL    HW2 6081   0.047   3.670   3.680 -0.6681 -0.7473 -0.9346
 1921SOL     OW 6082   1.541   2.976   5.576 -0.2604 -0.2646  0.5536
 1921SOL    HW1 6083   1.511   2.931   5.492 -0.2677 -0.1116  0.4727
 1921SOL    HW2 6084   1.545   3.075   5.560  1.0312 -0.3380  0.3321
 1922SOL     OW 6085   0.781   4.327   1.827  0.2881 -0.5136 -0.0629
 1922SOL    HW1 6086   0.819   4.327   1.920 -0.9524  0.9953  0.4975
 1922SOL    HW2 6087   0.773   4.421   1.795  0.3726 -1.0017 -1.5818
 1923SOL     OW 6088   5.556   2.013   4.801 -0.2160  0.1114  0.4651
 1923SOL    HW1 6089   5.575   2.030   4.705  1.1237 -0.8097  0.5405
 1923SOL    HW2 6090   5.457   2.002   4.815 -0.4020  0.0972 -0.8112
 1924SOL     OW 6091   3.061   1.480   0.400  0.5907 -0.2570 -0.4147
 1924SOL    HW1 6092   3.137   1.415   0.414  2.7315  2.1313 -0.3208
 1924SOL    HW2 6093   3.021   1.503   0.489  1.5596  0.4812 -0.1527
 1925SOL     OW 6094   2.976   3.122   4.831 -0.2495  0.1284 -0.1144
 1925SOL    HW1 6095   3.072   3.144   4.811 -0.1430  0.5328  0.8029
 1925SOL    HW2 6096   2.916   3.174   4.771  0.1185 -1.3278 -1.8259
 1926SOL     OW 6097   3.051   1.404   1.702  0.0927 -0.2042 -0.3010
 1926SOL    HW1 6098   3.086   1.452   1.622  0.4974 -0.2535 -0.1565
 1926SOL    HW2 6099   2.955   1.429   1.717  0.6970  1.6884  0.6325
 1927SOL     OW 6100   4.159   0.130   2.936 -0.2364  1.2630 -0.3215
 1927SOL    HW1 6101   4.139   0.171   2.847 -0.9344  2.4202  0.3422
 1927SOL    HW2 6102   4.213   0.195   2.991  1.9359 -0.2084 -0.5908
 1928SOL     OW 6103   1.228   0.579   0.887 -0.8310 -0.6337  0.3008
 1928SOL    HW1 6104   1.164   0.636   0.834 -0.3932 -1.3669 -1.0709
 1928SOL    HW2 6105   1.195   0.572   0.981 -2.9633 -1.2268 -0.4213
 1929SOL     OW 6106   2.422   1.113   2.233 -0.3325  0.0071 -0.7074
 1929SOL    HW1 6107   2.453   1.101   2.139 -1.6952  0.9452 -1.2933
 1929SOL    HW2 6108   2.324   1.098   2.238  0.0910 -3.1131  1.1491
 1930SOL     OW 6109   3.011   1.529   5.251 -0.3225  0.0809 -0.0053
 1930SOL    HW1 6110   3.067   1.580   5.186 -2.1571  1.9974 -0.1784
 1930SOL    HW2 6111   2.931   1.492   5.203 -1.2999  0.8604  0.9833
 1931SOL     OW 6112   3.994   5.438   2.315  0.0918 -0.1802 -0.5987
 1931SOL    HW1 6113   3.978   5.396   2.405  0.1057 -2.5265 -1.6095
 1931SOL    HW2 6114   4.023   5.533   2.328 -0.6098 -0.2087  1.8273
 1932SOL     OW 6115   1.578   0.535   2.191  0.0073  0.5366 -0.1560
 1932SOL    HW1 6116   1.551   0.466   2.258  1.7916  0.3536  0.4285
 1932SOL    HW2 6117   1.611   0.491   2.108 -0.7884  0.7354 -0.5821
 1933SOL     OW 6118   4.407   1.880   5.423  0.5095 -0.6551  0.1823
 1933SOL    HW1 6119   4.437   1.975   5.420 -0.5266 -0.3611 -1.7929
 1933SOL    HW2 6120   4.481   1.821   5.391  0.6319 -0.3690 -0.0683
 1934SOL     OW 6121   2.180   0.810   0.572  0.5775 -0.2628 -0.1636
 1934SOL    HW1 6122   2.138   0.723   0.599  1.4050 -0.5391  0.2865
 1934SOL    HW2 6123   2.259   0.791   0.513  0.1533  0.2358 -0.8936
 1935SOL     OW 6124   4.073   1.398   0.980 -0.2094  0.3520 -0.1510
 1935SOL    HW1 6125   4.150   1.352   0.936 -0.1922 -0.7192  0.9376
 1935SOL    HW2 6126   4.035   1.338   1.051 -1.7926  1.0161 -0.3919
 1936SOL     OW 6127   3.235   0.226   0.811  0.9974 -0.1466  0.5441
 1936SOL    HW1 6128   3.295   0.302   0.834  2.2412 -0.3859 -1.6049
 1936SOL    HW2 6129   3.290   0.143   0.798 -0.1466 -1.0510  1.2861
 1937SOL     OW 6130   1.776   0.910   1.272  0.0046  0.2536 -0.2782
 1937SOL    HW1 6131   1.810   0.990   1.223 -0.2954  0.3616 -0.3119
 1937SOL    HW2 6132   1.724   0.852   1.209 -0.3739  0.3876 -0.0922
 1938SOL     OW 6133   3.478   1.122   5.140  0.6476 -0.5473 -0.4534
 1938SOL    HW1 6134   3.420   1.191   5.183 -1.0475 -1.1321 -1.6909
 1938SOL    HW2 6135   3.421   1.050   5.101  2.3209 -3.3700  1.8038
 1939SOL     OW 6136   1.972   2.810   5.507  0.7698 -0.9757 -0.6934
 1939SOL    HW1 6137   1.991   2.902   5.472  0.3853 -0.5852  0.1057
 1939SOL    HW2 6138   2.053   2.753   5.497  1.2807 -0.3051 -0.4054
 1940SOL     OW 6139   3.304   1.183   1.267 -0.1473  0.1350  0.3949
 1940SOL    HW1 6140   3.363   1.148   1.340 -0.7563 -0.8032  0.4435
 1940SOL    HW2 6141   3.272   1.275   1.292  1.6318  0.8571  0.1603
 1941SOL     OW 6142   2.520   0.372   0.278 -0.0910  0.4534  0.2752
 1941SOL    HW1 6143   2.576   0.454   0.290  0.6466 -0.0310  0.2143
 1941SOL    HW2 6144   2.549   0.324   0.194 -1.3249  0.7613 -0.3492
 1942SOL     OW 6145   1.279   5.213   0.887 -0.0756 -0.0034 -0.6521
 1942SOL    HW1 6146   1.330   5.197   0.802 -0.8464  1.8944 -1.5385
 1942SOL    HW2 6147   1.183   5.229   0.865 -0.5854 -0.9136  0.7496
 1943SOL     OW 6148   3.711   0.773   0.078 -0.1181  0.2935 -0.2470
 1943SOL    HW1 6149   3.800   0.802   0.042 -0.2275 -0.5221 -1.2405
 1943SOL    HW2 6150   3.723   0.692   0.136  0.1168  1.8811  2.0404
 1944SOL     OW 6151   4.510   3.580   0.103  0.5891 -0.0324  0.1306
 1944SOL    HW1 6152   4.468   3.670   0.095 -0.9205 -0.8622 -2.4346
 1944SOL    HW2 6153   4.610   3.590   0.102  0.4685  1.5889 -1.4365
 1945SOL     OW 6154   2.827   1.516   4.289  0.2425  0.3179 -0.2494
 1945SOL    HW1 6155   2.794   1.486   4.199 -0.5223  3.4908 -1.1425
 1945SOL    HW2 6156   2.750   1.547   4.344  1.0597  1.8922  0.0584
 1946SOL     OW 6157   3.310   1.784   0.139  0.6301 -0.5311  0.6988
 1946SOL    HW1 6158   3.249   1.826   0.071  1.8451  1.6619  0.8478
 1946SOL    HW2 6159   3.263   1.778   0.227  0.5456  1.0541  0.7922
 1947SOL     OW 6160   5.033   0.402   0.049  0.6250  0.1562  0.2344
 1947SOL    HW1 6161   5.047   0.392   0.148  2.1597 -0.8053 -0.0412
 1947SOL    HW2 6162   5.057   0.316   0.004  0.9618  0.9195 -1.0766
 1948SOL     OW 6163   2.178   5.441   1.269  0.2794 -0.2576 -0.1726
 1948SOL    HW1 6164   2.091   5.447   1.220  1.1930 -0.3542 -1.8728
 1948SOL    HW2 6165   2.201   5.344   1.282 -1.0767 -0.3034  2.6218
 1949SOL     OW 6166   2.910   0.335   0.994  0.2711  0.0950 -0.0510
 1949SOL    HW1 6167   2.990   0.358   1.049  1.3185 -1.7156 -0.7535
 1949SOL    HW2 6168   2.836   0.399   1.016  0.9999  0.1437  2.6151
 1950SOL     OW 6169   1.256   4.964   5.546  0.1925  0.2049 -0.2824
 1950SOL    HW1 6170   1.281   5.021   5.468 -0.8041  1.2378  0.1136
 1950SOL    HW2 6171   1.207   5.020   5.614 -0.8029 -1.1136  0.1391
 1951SOL     OW 6172   2.674   0.183   0.742 -0.5876  0.4738  0.6625
 1951SOL    HW1 6173   2.609   0.186   0.667 -2.4664  2.1893  2.2272
 1951SOL    HW2 6174   2.730   0.100   0.735 -1.1797  0.2124 -2.1332
 1952SOL     OW 6175   1.703   0.455   5.451  0.6253 -0.2316 -0.0463
 1952SOL    HW1 6176   1.679   0.460   5.548  0.3977  0.1711 -0.1205
 1952SOL    HW2 6177   1.799   0.430   5.442  0.9859  0.9531  0.3087
 1953SOL     OW 6178   5.001   2.655   0.838 -0.3848 -0.8582 -0.1320
 1953SOL    HW1 6179   4.913   2.685   0.875  0.3311 -0.2822  1.1448
 1953SOL    HW2 6180   5.032   2.720   0.768  1.6207  2.1680  3.2615
 1954SOL     OW 6181   3.047   3.694   2.848  0.0911  0.1037  0.8528
 1954SOL    HW1 6182   3.088   3.784   2.830  1.6674 -0.5194  1.2255
 1954SOL    HW2 6183   3.029   3.686   2.946 -2.1124  0.8341  0.5592
 1955SOL     OW 6184   0.821   0.861   1.468  0.0212  0.0518  0.0332
 1955SOL    HW1 6185   0.912   0.874   1.508  0.1059  1.4184 -0.5266
 1955SOL    HW2 6186   0.770   0.947   1.473 -0.4082 -0.0636 -1.6756
 1956SOL     OW 6187   3.054   3.066   0.708 -0.1609  0.3135 -0.3512
 1956SOL    HW1 6188   3.050   3.026   0.617 -2.2032  0.2106 -0.2695
 1956SOL    HW2 6189   3.112   3.009   0.767 -0.1628 -0.5461 -1.1585
 1957SOL     OW 6190   3.478   1.450   0.859 -0.2019 -0.1319 -0.2457
 1957SOL    HW1 6191   3.410   1.480   0.926 -1.0399 -0.3617 -0.9734
 1957SOL    HW2 6192   3.486   1.518   0.786 -0.1559 -0.4192 -0.5131
 1958SOL     OW 6193   3.493   0.519   0.665  0.5379  0.4232 -0.3625
 1958SOL    HW1 6194   3.592   0.528   0.663  0.5666  0.7523  1.0427
 1958SOL    HW2 6195   3.466   0.474   0.750 -0.5056  0.0691 -0.8659
 1959SOL     OW 6196   2.931   0.405   0.437 -0.1650  0.0420  0.1772
 1959SOL    HW1 6197   2.965   0.386   0.530 -0.1162  1.6495  0.5110
 1959SOL    HW2 6198   2.968   0.336   0.375  0.5672 -0.5254  1.1921
 1960SOL     OW 6199   3.966   1.838   4.707  0.2310 -0.0438  0.5610
 1960SOL    HW1 6200   3.981   1.912   4.774  0.2100 -0.8124  1.4439
 1960SOL    HW2 6201   3.870   1.810   4.709  0.4729 -0.8666  1.0770
 1961SOL     OW 6202   2.060   4.975   2.528 -0.2536 -0.0472 -0.0424
 1961SOL    HW1 6203   2.033   4.908   2.598 -1.8834  0.2674 -0.3351
 1961SOL    HW2 6204   2.115   5.047   2.570  0.5528 -0.9466  0.4960
 1962SOL     OW 6205   5.065   0.491   1.934 -0.2315 -0.6267  0.3275
 1962SOL    HW1 6206   5.141   0.464   1.875  0.6625  0.2138  1.0499
 1962SOL    HW2 6207   4.989   0.525   1.878  1.4960  2.4979 -0.3830
 1963SOL     OW 6208   1.712   1.575   2.740  0.2608 -0.2743 -0.3392
 1963SOL    HW1 6209   1.789   1.591   2.801 -0.2096  0.7665  0.0098
 1963SOL    HW2 6210   1.738   1.600   2.646  0.1355  0.7777 -0.1048
 1964SOL     OW 6211   1.694   1.162   2.596  0.2348  0.2534 -0.0311
 1964SOL    HW1 6212   1.716   1.243   2.650  0.9541  0.2225 -0.2657
 1964SOL    HW2 6213   1.768   1.096   2.604 -0.1786 -0.2231 -0.1430
 1965SOL     OW 6214   2.067   0.240   0.745  0.7796  0.1683  0.0622
 1965SOL    HW1 6215   2.042   0.148   0.716  0.6660  0.6581 -1.4799
 1965SOL    HW2 6216   2.165   0.255   0.731  1.1778 -0.2831  2.0041
 1966SOL     OW 6217   4.096   1.495   5.023  0.1819  0.4932 -0.3398
 1966SOL    HW1 6218   4.081   1.410   5.075  0.1224  0.7521  0.0723
 1966SOL    HW2 6219   4.010   1.525   4.983 -0.0007  0.8643  0.3054
 1967SOL     OW 6220   1.174   1.572   1.241 -0.5189 -0.0395 -0.4200
 1967SOL    HW1 6221   1.270   1.579   1.269 -1.0654 -0.9919  1.9079
 1967SOL    HW2 6222   1.168   1.515   1.159  0.9062  0.1805 -0.7037
 1968SOL     OW 6223   4.338   4.139   0.307  0.0528 -0.0467  0.0022
 1968SOL    HW1 6224   4.255   4.149   0.362  0.7050  0.2576  0.9608
 1968SOL    HW2 6225   4.334   4.202   0.229 -0.7275 -0.2303 -0.1189
 1969SOL     OW 6226   2.631   1.721   2.294  0.3816 -0.5525  0.0266
 1969SOL    HW1 6227   2.714   1.776   2.300  0.5527 -0.8358  0.2154
 1969SOL    HW2 6228   2.635   1.663   2.213  1.0248 -1.6588  0.8380
 1970SOL     OW 6229   2.515   1.669   1.191 -0.6462 -0.1941 -0.2527
 1970SOL    HW1 6230   2.483   1.742   1.252 -0.9816 -0.5451 -0.0057
 1970SOL    HW2 6231   2.447   1.597   1.187  1.1622 -2.2368  2.3855
 1971SOL     OW 6232   3.909   1.690   1.727  0.6559 -0.0359  0.1418
 1971SOL    HW1 6233   3.907   1.591   1.740  1.7644 -0.0282  0.4875
 1971SOL    HW2 6234   3.993   1.716   1.678 -0.5843  0.5499 -1.7829
 1972SOL     OW 6235   2.989   0.913   0.912  0.4949 -0.3631 -0.2280
 1972SOL    HW1 6236   2.942   0.840   0.963  0.6965 -1.5827 -1.7257
 1972SOL    HW2 6237   2.931   0.994   0.909 -0.0160 -0.6647  0.9086
 1973SOL     OW 6238   1.685   1.998   0.270 -0.3471 -0.0327 -0.1110
 1973SOL    HW1 6239   1.761   1.942   0.236 -1.3192  0.1337 -2.7913
 1973SOL    HW2 6240   1.689   2.089   0.228 -0.9938  0.6419  1.2025
 1974SOL     OW 6241   3.154   0.969   1.638  0.4571 -0.7415  0.0179
 1974SOL    HW1 6242   3.062   0.979   1.601  0.0068 -2.5000  0.5514
 1974SOL    HW2 6243   3.204   0.899   1.587  2.0303  1.1210 -1.1457
 1975SOL     OW 6244   3.243   0.840   0.833 -0.2130 -0.4347  0.3724
 1975SOL    HW1 6245   3.154   0.857   0.876 -0.1526 -0.2081  0.4096
 1975SOL    HW2 6246   3.231   0.836   0.734 -0.3252 -0.7885  0.3984
 1976SOL     OW 6247   4.790   0.641   0.795  0.0651  0.0946 -0.5361
 1976SOL    HW1 6248   4.791   0.609   0.701 -1.2963 -2.0590  0.0949
 1976SOL    HW2 6249   4.695   0.648   0.827  0.4697 -2.6070  1.6581
 1977SOL     OW 6250   4.249   1.019   0.895 -0.1586  0.2391 -0.1366
 1977SOL    HW1 6251   4.271   1.114   0.875  0.9917 -0.1298 -0.7501
 1977SOL    HW2 6252   4.281   0.997   0.987 -2.1583  0.9390  0.7812
 1978SOL     OW 6253   1.423   1.589   1.327  0.3910  0.4850  0.0670
 1978SOL    HW1 6254   1.443   1.494   1.303 -1.2556  0.1648 -0.1694
 1978SOL    HW2 6255   1.493   1.623   1.390  1.7579 -0.4298 -0.8949
 1979SOL     OW 6256   3.857   1.409   0.640 -0.8139 -0.0125  0.6315
 1979SOL    HW1 6257   3.855   1.429   0.737  1.0594  3.3917  0.1374
 1979SOL    HW2 6258   3.780   1.454   0.595  0.8028  2.4095  0.0922
 1980SOL     OW 6259   2.128   0.053   1.712 -0.2896 -0.1705 -0.0014
 1980SOL    HW1 6260   2.124   0.147   1.746 -1.6405 -1.2491  3.1336
 1980SOL    HW2 6261   2.037   0.025   1.683  0.3525 -0.1754 -2.2352
 1981SOL     OW 6262   2.528   2.305   5.068  0.6250 -0.1999 -0.7132
 1981SOL    HW1 6263   2.510   2.403   5.057 -0.8982 -0.3360  0.1884
 1981SOL    HW2 6264   2.442   2.255   5.057  1.5022 -1.5219 -1.8348
 1982SOL     OW 6265   2.799   2.692   0.251 -0.3312 -0.2125  0.3742
 1982SOL    HW1 6266   2.890   2.655   0.231  0.9889  2.2222  1.4032
 1982SOL    HW2 6267   2.772   2.664   0.343  0.2660  0.5990  0.8087
 1983SOL     OW 6268   1.795   0.317   1.586 -0.2568 -0.1356 -0.0976
 1983SOL    HW1 6269   1.864   0.264   1.536  0.5039  0.7621 -0.0130
 1983SOL    HW2 6270   1.735   0.362   1.520 -0.5044 -0.5600 -0.1722
 1984SOL     OW 6271   0.234   5.312   1.346 -0.2077 -0.4330 -0.0302
 1984SOL    HW1 6272   0.246   5.290   1.249 -0.0696  0.1469 -0.1445
 1984SOL    HW2 6273   0.318   5.353   1.381 -0.3927 -0.2888  0.2438
 1985SOL     OW 6274   2.357   1.478   4.542  0.2147  0.4116 -0.3543
 1985SOL    HW1 6275   2.266   1.438   4.544 -0.4195  1.8244  0.4910
 1985SOL    HW2 6276   2.350   1.576   4.520  1.3738  0.8604  1.0957
 1986SOL     OW 6277   3.400   0.013   0.735  0.1963  0.2126 -0.0232
 1986SOL    HW1 6278   3.495   0.018   0.767 -0.5033  0.1951  2.2026
 1986SOL    HW2 6279   3.399   0.018   0.635  2.6545 -1.3321 -0.2246
 1987SOL     OW 6280   2.716   4.992   1.895 -0.0844 -0.0389  0.4192
 1987SOL    HW1 6281   2.687   5.014   1.989 -0.3289 -1.2012  0.6336
 1987SOL    HW2 6282   2.799   4.936   1.899 -1.9717 -3.1110  0.1597
 1988SOL     OW 6283   4.405   0.719   5.060 -0.1735 -0.3493  0.1636
 1988SOL    HW1 6284   4.338   0.645   5.060  0.2285 -0.7184  0.3956
 1988SOL    HW2 6285   4.381   0.787   5.130 -1.3107  0.4599 -0.9741
 1989SOL     OW 6286   3.731   1.821   2.447  0.1971  0.1076  0.1259
 1989SOL    HW1 6287   3.758   1.918   2.451  4.0941 -0.8176 -0.0499
 1989SOL    HW2 6288   3.716   1.795   2.352 -0.0959  0.3373  0.1063
 1990SOL     OW 6289   1.588   1.191   0.740 -0.2866 -0.1943  0.7830
 1990SOL    HW1 6290   1.671   1.185   0.685  0.5481  0.6595  1.8904
 1990SOL    HW2 6291   1.508   1.186   0.681  0.5749  0.4083 -0.4794
 1991SOL     OW 6292   2.253   1.159   3.215 -0.3183 -0.0898 -0.1499
 1991SOL    HW1 6293   2.202   1.160   3.130  0.1879 -1.1992 -0.4876
 1991SOL    HW2 6294   2.243   1.069   3.259 -0.3179  0.3654  0.7971
 1992SOL     OW 6295   3.818   2.122   5.431 -0.0848  0.4023 -0.1792
 1992SOL    HW1 6296   3.736   2.164   5.469 -0.2841  0.6793 -0.9034
 1992SOL    HW2 6297   3.834   2.157   5.338  1.1619  0.7669  0.1590
 1993SOL     OW 6298   1.617   0.171   0.749 -0.1985 -0.3959 -0.0989
 1993SOL    HW1 6299   1.614   0.196   0.652 -2.3019 -1.1799 -0.2969
 1993SOL    HW2 6300   1.607   0.072   0.758 -0.5935 -0.2805  0.9279
 1994SOL     OW 6301   2.651   5.034   0.702 -0.4122  0.6750  0.4989
 1994SOL    HW1 6302   2.717   4.981   0.649 -1.5587 -1.5473  1.1806
 1994SOL    HW2 6303   2.638   5.123   0.659  1.5216  0.4069 -0.7558
 1995SOL     OW 6304   4.933   3.588   4.988 -0.3208  0.7086 -0.1044
 1995SOL    HW1 6305   4.864   3.649   4.950 -0.1920  1.7699  1.2755
 1995SOL    HW2 6306   4.892   3.534   5.061 -0.2345 -0.3141 -0.7985
 1996SOL     OW 6307   3.398   1.073   0.768 -0.1340  0.0515  0.5504
 1996SOL    HW1 6308   3.373   0.977   0.781 -0.8049  0.2903  1.1036
 1996SOL    HW2 6309   3.404   1.093   0.670 -0.6645 -0.3820  0.4251
 1997SOL     OW 6310   2.428   4.204   0.481  0.1712 -0.1225 -0.0802
 1997SOL    HW1 6311   2.407   4.136   0.552  0.2272  1.2134  1.2756
 1997SOL    HW2 6312   2.342   4.239   0.444  0.1370 -0.6411 -0.4965
 1998SOL     OW 6313   2.407   0.957   2.822  0.4882 -0.3954 -0.3310
 1998SOL    HW1 6314   2.490   0.941   2.769  1.4972  2.7506  0.1134
 1998SOL    HW2 6315   2.427   0.946   2.919 -0.1553 -1.5140 -0.3079
 1999SOL     OW 6316   4.249   1.047   0.477  0.1240 -0.2291  0.3170
 1999SOL    HW1 6317   4.304   1.049   0.561  0.9869  0.2059 -0.2416
 1999SOL    HW2 6318   4.173   1.111   0.486  0.5521  0.2637  0.5572
 2000SOL     OW 6319   3.720   3.846   5.112  0.1927  0.4375  0.7179
 2000SOL    HW1 6320   3.734   3.906   5.033  1.3634  0.9004  1.2520
 2000SOL    HW2 6321   3.755   3.755   5.091 -1.6631 -0.1273 -0.1252
 2001SOL     OW 6322   4.005   2.985   5.215  0.2165 -0.2449  0.0043
 2001SOL    HW1 6323   3.939   3.051   5.253 -1.3863 -1.4326 -0.6047
 2001SOL    HW2 6324   3.960   2.929   5.146  2.0248 -0.8061 -0.7839
 2002SOL     OW 6325   3.415   5.080   1.517  0.5102 -0.0772 -0.5125
 2002SOL    HW1 6326   3.411   5.097   1.615  1.1869  1.1831 -0.6726
 2002SOL    HW2 6327   3.326   5.102   1.476 -0.1183 -1.6628 -0.0599
 2003SOL     OW 6328   1.560   4.465   0.941 -0.6618 -0.0123  0.0457
 2003SOL    HW1 6329   1.545   4.474   0.842  0.1669 -0.0125 -0.0890
 2003SOL    HW2 6330   1.592   4.552   0.977 -0.4995 -0.1483  0.2284
 2004SOL     OW 6331   3.373   5.123   1.102 -0.2196 -0.2268  0.8296
 2004SOL    HW1 6332   3.284   5.078   1.099  0.4850 -1.6160 -0.6690
 2004SOL    HW2 6333   3.424   5.103   1.019  0.8743  1.9124  0.9003
 2005SOL     OW 6334   4.326   1.083   5.428  0.4476  0.3125  0.4105
 2005SOL    HW1 6335   4.338   1.062   5.525 -2.3844 -0.2490  0.7157
 2005SOL    HW2 6336   4.252   1.149   5.417  1.1653  0.8862 -1.3525
 2006SOL     OW 6337   1.052   4.987   1.338  0.3547  0.1999  0.1108
 2006SOL    HW1 6338   1.046   4.998   1.239 -1.2387 -0.3589  0.1262
 2006SOL    HW2 6339   0.968   5.022   1.380 -0.4081 -2.4814  0.9883
 2007SOL     OW 6340   2.785   5.512   1.559  0.3117 -0.6421 -0.0409
 2007SOL    HW1 6341   2.840   5.538   1.638  1.5043 -0.1876 -0.9814
 2007SOL    HW2 6342   2.690   5.538   1.574  0.8136  0.9875  0.5696
 2008SOL     OW 6343   3.596   1.103   0.203 -0.1816  0.2843 -0.3389
 2008SOL    HW1 6344   3.675   1.105   0.142 -1.1581 -0.8317 -1.7016
 2008SOL    HW2 6345   3.551   1.014   0.198 -1.0707  0.6082  1.0331
 2009SOL     OW 6346   4.120   2.070   0.345 -0.7071  0.3968  0.3861
 2009SOL    HW1 6347   4.142   2.083   0.249 -2.9199  0.6219 -0.1500
 2009SOL    HW2 6348   4.056   2.141   0.375 -2.2815 -1.2576  1.2067
 2010SOL     OW 6349   4.447   2.304   4.002 -0.6280  0.0191  0.3377
 2010SOL    HW1 6350   4.430   2.401   4.019 -0.9323  0.3098 -1.4425
 2010SOL    HW2 6351   4.366   2.251   4.026 -0.5947  0.2356  0.9536
 2011SOL     OW 6352   2.928   0.487   1.918 -0.1207  0.4195  0.0850
 2011SOL    HW1 6353   2.922   0.524   2.011  0.3081  0.4727  0.0964
 2011SOL    HW2 6354   2.837   0.464   1.884 -0.1315 -1.6823  1.3501
 2012SOL     OW 6355   4.552   1.644   1.436 -0.4801  0.0912  0.3572
 2012SOL    HW1 6356   4.581   1.563   1.384 -0.0794 -1.0251  2.2288
 2012SOL    HW2 6357   4.475   1.620   1.494 -1.2406  1.4477 -0.0497
 2013SOL     OW 6358   0.980   5.316   1.101  0.0325  0.6196  0.3325
 2013SOL    HW1 6359   0.946   5.222   1.108 -0.9385  0.9440  0.2502
 2013SOL    HW2 6360   0.942   5.370   1.176  1.1403  0.7942  0.7807
 2014SOL     OW 6361   3.314   0.023   1.339 -0.1518 -0.2937 -0.5304
 2014SOL    HW1 6362   3.370   0.036   1.421 -1.1640  2.2527 -0.1616
 2014SOL    HW2 6363   3.221  -0.000   1.366 -1.1097  2.9031 -0.7504
 2015SOL     OW 6364   1.900   0.676   2.194 -0.1734 -0.0857  0.0407
 2015SOL    HW1 6365   1.895   0.730   2.110  0.6984 -2.7272 -1.8396
 2015SOL    HW2 6366   1.838   0.715   2.262 -0.0016  2.8901 -1.3311
 2016SOL     OW 6367   3.493   0.580   1.698 -0.6566 -0.5034 -0.1587
 2016SOL    HW1 6368   3.492   0.630   1.784  2.0238 -0.6264  0.0280
 2016SOL    HW2 6369   3.451   0.635   1.626 -1.2282  0.3732  0.8321
 2017SOL     OW 6370   1.545   2.220   3.084 -0.1142  0.4270  0.4217
 2017SOL    HW1 6371   1.549   2.202   2.986 -1.9098  2.0133  0.0070
 2017SOL    HW2 6372   1.476   2.162   3.126 -0.8300  1.1894  0.3389
 2018SOL     OW 6373   4.812   1.902   2.374 -0.5116  0.2508  0.4535
 2018SOL    HW1 6374   4.843   1.956   2.296 -1.4995 -0.1098 -0.2041
 2018SOL    HW2 6375   4.861   1.932   2.456 -0.2350  1.3770 -0.0962
 2019SOL     OW 6376   2.129   4.472   1.770 -0.0184 -0.7303 -0.6335
 2019SOL    HW1 6377   2.201   4.406   1.746  1.2520  0.1906  0.4740
 2019SOL    HW2 6378   2.044   4.424   1.789  0.7544 -2.0129 -0.2992
 2020SOL     OW 6379   2.916   1.945   2.625 -0.1146  0.0248 -0.6115
 2020SOL    HW1 6380   2.922   1.950   2.725  0.3000 -0.0725 -0.6298
 2020SOL    HW2 6381   2.820   1.955   2.597 -0.2306  0.0744 -0.2068
 2021SOL     OW 6382   4.077   1.253   5.379  0.1971 -0.2493 -0.6597
 2021SOL    HW1 6383   4.020   1.316   5.327 -0.0749  1.2119  1.3048
 2021SOL    HW2 6384   4.082   1.283   5.474  3.8725 -0.5662 -0.6124
 2022SOL     OW 6385   2.941   5.549   1.779  0.0085  0.2881  0.3466
 2022SOL    HW1 6386   2.929   5.456   1.814 -1.0696 -0.2300 -1.3101
 2022SOL    HW2 6387   3.036   5.578   1.794 -0.2780 -0.0040  3.2901
 2023SOL     OW 6388   1.833   1.306   2.321 -0.5805 -0.6557  0.2827
 2023SOL    HW1 6389   1.818   1.220   2.271 -1.1273 -1.0248  1.0432
 2023SOL    HW2 6390   1.759   1.318   2.388 -1.1621  1.0062 -0.6058
 2024SOL     OW 6391   1.474   1.128   1.396  0.8681 -0.4794 -0.2450
 2024SOL    HW1 6392   1.446   1.053   1.336 -1.6802 -0.2878  0.5802
 2024SOL    HW2 6393   1.439   1.214   1.359  0.4008 -0.2046  0.8185
 2025SOL     OW 6394   1.519   1.325   4.761  0.1373 -0.2822 -0.5339
 2025SOL    HW1 6395   1.544   1.229   4.744 -0.6203 -0.5506 -0.2086
 2025SOL    HW2 6396   1.572   1.385   4.701  0.9331 -0.8772 -0.4397
 2026SOL     OW 6397   1.860   4.915   0.908 -0.2250 -0.2761 -0.3828
 2026SOL    HW1 6398   1.908   4.977   0.845 -0.4492  1.1095  0.7516
 2026SOL    HW2 6399   1.924   4.883   0.978 -0.4067 -0.3257 -0.2386
 2027SOL     OW 6400   4.153   0.621   0.855  0.1258 -0.2543 -0.7088
 2027SOL    HW1 6401   4.124   0.529   0.828  1.1974 -0.5229 -0.9640
 2027SOL    HW2 6402   4.137   0.633   0.953 -1.6271 -0.0784 -0.9733
 2028SOL     OW 6403   1.636   1.442   0.828  0.0092  0.3885 -0.2108
 2028SOL    HW1 6404   1.612   1.350   0.794  0.7102 -0.0670  0.4908
 2028SOL    HW2 6405   1.557   1.502   0.819 -0.2619 -0.0901 -1.3217
 2029SOL     OW 6406   2.973   4.844   3.042  0.0297 -0.1228 -0.1247
 2029SOL    HW1 6407   3.020   4.839   2.954  1.0378 -1.0144  0.4432
 2029SOL    HW2 6408   2.988   4.760   3.093 -1.7948 -0.2407  0.3057
 2030SOL     OW 6409   3.602   3.083   0.217 -0.0705 -0.0360  0.2224
 2030SOL    HW1 6410   3.700   3.061   0.221  0.0364  0.4004  0.0858
 2030SOL    HW2 6411   3.590   3.183   0.221 -0.6565 -0.1382  3.1970
 2031SOL     OW 6412   2.694   1.805   1.953 -0.5664  0.0963  0.4867
 2031SOL    HW1 6413   2.790   1.812   1.979 -0.6314  1.0648  0.4999
 2031SOL    HW2 6414   2.663   1.710   1.964 -0.0729  0.0930  2.0789
 2032SOL     OW 6415   5.063   4.529   1.173 -0.6589 -0.2395 -0.0383
 2032SOL    HW1 6416   5.142   4.470   1.156  0.2994  1.6416 -2.9945
 2032SOL    HW2 6417   4.995   4.514   1.101  0.0806  2.7826 -1.5648
 2033SOL     OW 6418   3.788   1.416   3.888 -0.0019 -0.1847  0.2017
 2033SOL    HW1 6419   3.736   1.409   3.803  3.0756  1.6374 -2.0365
 2033SOL    HW2 6420   3.850   1.338   3.896  0.2704  0.0498  0.3785
 2034SOL     OW 6421   1.537   4.377   1.456  0.2808  0.1379  0.5669
 2034SOL    HW1 6422   1.491   4.308   1.511  1.4973 -1.9114 -0.8738
 2034SOL    HW2 6423   1.498   4.377   1.363  0.3076  1.4228  0.5247
 2035SOL     OW 6424   2.925   1.528   2.089  0.7956  0.6671  0.6741
 2035SOL    HW1 6425   2.827   1.524   2.070  1.1001  1.6010 -1.4127
 2035SOL    HW2 6426   2.954   1.442   2.130 -0.0582 -1.8051 -3.3316
 2036SOL     OW 6427   5.109   0.236   1.445  0.3323  0.1368 -0.3820
 2036SOL    HW1 6428   5.160   0.321   1.435  0.3282  0.0070 -1.6620
 2036SOL    HW2 6429   5.171   0.163   1.473  1.0484 -0.1687 -2.5639
 2037SOL     OW 6430   1.285   4.629   1.049 -0.0978  0.7569 -0.0512
 2037SOL    HW1 6431   1.290   4.601   0.953 -0.7611 -0.0086  0.1224
 2037SOL    HW2 6432   1.347   4.705   1.065  1.4980 -0.3533 -0.6575
 2038SOL     OW 6433   1.454   2.684   3.374 -0.6219 -0.0415 -0.3461
 2038SOL    HW1 6434   1.384   2.612   3.368  0.6366 -1.4511  1.0295
 2038SOL    HW2 6435   1.480   2.697   3.470 -0.6075  2.0828 -0.5978
 2039SOL     OW 6436   1.174   0.763   1.361  0.3157 -0.2144  0.3707
 2039SOL    HW1 6437   1.211   0.684   1.411 -0.6531 -0.1016  1.3194
 2039SOL    HW2 6438   1.097   0.801   1.413 -0.1437  0.4746 -0.7912
 2040SOL     OW 6439   2.330   2.100   2.190 -0.3759 -0.3473  0.1531
 2040SOL    HW1 6440   2.362   2.115   2.283  0.8770 -1.7039 -0.0127
 2040SOL    HW2 6441   2.408   2.072   2.133 -0.9518  1.2410 -1.4979
 2041SOL     OW 6442   3.024   0.798   0.203  0.9432  0.3908  0.3802
 2041SOL    HW1 6443   3.025   0.714   0.148 -0.4304  0.1070  0.7561
 2041SOL    HW2 6444   2.984   0.872   0.149  0.6154  0.3897  0.6253
 2042SOL     OW 6445   2.502   0.735   1.540 -0.4258 -0.0530  0.2726
 2042SOL    HW1 6446   2.548   0.672   1.602 -1.0155 -2.3561 -1.4663
 2042SOL    HW2 6447   2.409   0.751   1.572 -0.8628 -1.5504 -0.1334
 2043SOL     OW 6448   2.395   1.348   0.747  0.6280 -0.4222 -0.6221
 2043SOL    HW1 6449   2.451   1.336   0.665  0.4186  0.6602 -0.9271
 2043SOL    HW2 6450   2.331   1.423   0.734  0.5789 -0.2437  0.5316
 2044SOL     OW 6451   2.726   0.859   1.379  0.4213 -0.0146 -0.5243
 2044SOL    HW1 6452   2.647   0.836   1.435  0.6182 -0.9019 -0.5990
 2044SOL    HW2 6453   2.698   0.865   1.283  0.3977 -0.0868 -0.5218
 2045SOL     OW 6454   3.286   5.428   1.659  0.1936 -0.1632  0.0196
 2045SOL    HW1 6455   3.207   5.413   1.601 -1.1555 -0.0605  1.7551
 2045SOL    HW2 6456   3.367   5.444   1.602 -0.9122 -0.7566 -1.7893
 2046SOL     OW 6457   4.638   1.088   2.837  0.2885  0.1567 -0.0020
 2046SOL    HW1 6458   4.710   1.123   2.778  0.7799 -0.2439  0.3549
 2046SOL    HW2 6459   4.674   1.014   2.894 -0.1157  0.7040  0.9821
 2047SOL     OW 6460   2.312   1.599   1.514 -0.1098  0.2884 -0.1740
 2047SOL    HW1 6461   2.306   1.633   1.420  1.6669  0.0823 -0.3995
 2047SOL    HW2 6462   2.401   1.557   1.528  0.0354  1.1736  1.8873
 2048SOL     OW 6463   3.799   0.224   0.883  0.4500 -0.5218  0.3301
 2048SOL    HW1 6464   3.757   0.307   0.920 -0.8930 -1.8093  1.8566
 2048SOL    HW2 6465   3.853   0.248   0.802  0.2174  1.8359  0.7817
 2049SOL     OW 6466   2.499   1.161   5.304 -0.2868  0.0256 -0.4047
 2049SOL    HW1 6467   2.512   1.236   5.369 -1.1010 -1.4982  1.6307
 2049SOL    HW2 6468   2.581   1.102   5.305 -0.1652  0.1817 -1.0285
 2050SOL     OW 6469   2.167   0.330   1.117 -1.0328 -0.2013 -0.2593
 2050SOL    HW1 6470   2.232   0.287   1.055 -1.2167 -2.2106  0.8383
 2050SOL    HW2 6471   2.184   0.428   1.121  2.4453 -0.7220  0.5467
 2051SOL     OW 6472   1.027   1.551   0.438  0.2030 -0.0539 -0.3400
 2051SOL    HW1 6473   1.036   1.452   0.423 -1.8828 -0.0136 -2.4328
 2051SOL    HW2 6474   0.950   1.586   0.385  0.7643  2.7058  0.4976
 2052SOL     OW 6475   1.001   0.170   1.995  0.3443 -0.0216 -0.1675
 2052SOL    HW1 6476   1.013   0.262   2.033 -0.9630  0.8862 -1.8074
 2052SOL    HW2 6477   1.087   0.141   1.953  0.4944  0.9028 -0.5390
 2053SOL     OW 6478   1.466   5.009   1.676  0.1178 -0.2121 -0.3567
 2053SOL    HW1 6479   1.373   5.040   1.659 -0.3020 -0.2340  1.7190
 2053SOL    HW2 6480   1.530   5.069   1.627 -0.9164  0.5314 -0.8463
 2054SOL     OW 6481   3.256   0.310   1.305  0.2222 -0.1746 -0.0740
 2054SOL    HW1 6482   3.313   0.231   1.329  1.7200  0.9436  0.1641
 2054SOL    HW2 6483   3.300   0.394   1.337  0.0898  1.0212 -2.7725
 2055SOL     OW 6484   3.765   0.482   0.700  0.5779 -0.4851  0.1112
 2055SOL    HW1 6485   3.747   0.507   0.795  0.5166 -2.0273  0.5202
 2055SOL    HW2 6486   3.861   0.501   0.678  0.0208  2.3344 -0.3561
 2056SOL     OW 6487   0.828   4.794   1.208  0.6020  0.0329  0.2063
 2056SOL    HW1 6488   0.868   4.836   1.289  2.1731 -0.8186 -0.0658
 2056SOL    HW2 6489   0.901   4.748   1.156 -0.5219 -0.2406 -1.1793
 2057SOL     OW 6490   3.594   0.690   1.425  0.0914  0.0248 -0.4359
 2057SOL    HW1 6491   3.564   0.774   1.470  2.4411  0.4566  0.4702
 2057SOL    HW2 6492   3.687   0.669   1.454  0.2714 -1.8255 -2.1934
 2058SOL     OW 6493   0.435   1.087   3.184 -0.3377  0.2910  0.5466
 2058SOL    HW1 6494   0.507   1.134   3.236 -0.3123  0.6914  0.1572
 2058SOL    HW2 6495   0.477   1.029   3.115 -0.3809  0.1351  0.6514
 2059SOL     OW 6496   1.063   3.823   0.994 -0.3790  0.0434 -0.1014
 2059SOL    HW1 6497   1.045   3.871   1.080 -1.8350 -0.3162 -0.1779
 2059SOL    HW2 6498   1.091   3.729   1.013 -1.6729 -0.3444 -0.0079
 2060SOL     OW 6499   0.833   5.172   1.665 -0.2635 -0.5588 -0.5140
 2060SOL    HW1 6500   0.883   5.237   1.608  1.1800 -1.9289 -0.8456
 2060SOL    HW2 6501   0.894   5.132   1.733 -1.6666  0.1024  1.2208
 2061SOL     OW 6502   3.462   2.130   1.116 -0.0121  0.5909  0.7346
 2061SOL    HW1 6503   3.516   2.214   1.107  2.0450 -0.6969  0.5889
 2061SOL    HW2 6504   3.514   2.052   1.082 -1.7077 -0.8498  1.2599
 2062SOL     OW 6505   3.115   2.572   5.260  0.2380 -0.3525 -0.0437
 2062SOL    HW1 6506   3.098   2.543   5.166  0.2035 -1.6470  0.3461
 2062SOL    HW2 6507   3.103   2.671   5.266  1.2592 -0.0944 -1.6186
 2063SOL     OW 6508   4.002   0.084   3.317  0.1867  0.6046 -0.0817
 2063SOL    HW1 6509   3.959   0.079   3.226 -2.4469  0.8807  1.0465
 2063SOL    HW2 6510   3.936   0.120   3.382  1.7875 -0.2427  2.1091
 2064SOL     OW 6511   1.853   2.929   1.795 -0.2834  0.1994 -0.0768
 2064SOL    HW1 6512   1.892   2.854   1.741  0.0164  0.1230  0.2424
 2064SOL    HW2 6513   1.819   2.893   1.882  1.7132  0.7298  0.9743
 2065SOL     OW 6514   2.943   0.731   2.606  0.4058 -0.4704  0.0570
 2065SOL    HW1 6515   2.956   0.817   2.557 -0.5068 -0.1055  0.4403
 2065SOL    HW2 6516   2.980   0.656   2.552 -0.1668 -0.0255 -0.9676
 2066SOL     OW 6517   4.814   1.757   2.660  0.4354  0.1504 -0.1341
 2066SOL    HW1 6518   4.719   1.755   2.628  0.3594  1.4711 -0.0231
 2066SOL    HW2 6519   4.818   1.789   2.754  1.0357  0.5993 -0.3044
 2067SOL     OW 6520   3.698   1.118   5.291 -0.6327 -0.0431 -0.4377
 2067SOL    HW1 6521   3.683   1.186   5.363 -0.7426  0.9056 -1.3315
 2067SOL    HW2 6522   3.620   1.116   5.229 -0.0655 -0.0306 -1.1737
 2068SOL     OW 6523   1.694   0.266   1.250  0.6343  0.0546 -0.3529
 2068SOL    HW1 6524   1.724   0.202   1.321  0.5663 -1.1898 -1.4035
 2068SOL    HW2 6525   1.748   0.251   1.167  0.5409  1.3017 -0.6547
 2069SOL     OW 6526   0.485   0.487   1.904  0.0103  0.7198 -0.3659
 2069SOL    HW1 6527   0.556   0.455   1.841 -0.1474  1.2955 -0.8479
 2069SOL    HW2 6528   0.395   0.459   1.870  0.0115 -0.2566  0.3939
 2070SOL     OW 6529   5.535   2.044   4.515  0.3077  0.1284 -0.2970
 2070SOL    HW1 6530   5.469   2.118   4.523 -0.2759 -0.4787  0.7982
 2070SOL    HW2 6531   5.506   1.981   4.443  0.8176  0.9621 -1.2433
 2071SOL     OW 6532   3.445   1.935   0.885 -0.1553 -0.4319 -0.2157
 2071SOL    HW1 6533   3.357   1.889   0.877 -0.0299 -0.4612 -1.6487
 2071SOL    HW2 6534   3.438   2.028   0.847 -0.7002  1.2476  3.5659
 2072SOL     OW 6535   3.939   2.069   2.238 -0.1350  0.3162 -0.1829
 2072SOL    HW1 6536   3.892   2.156   2.224 -1.1796 -0.2220 -0.1388
 2072SOL    HW2 6537   3.962   2.060   2.335  1.1922  1.1262 -0.4021
 2073SOL     OW 6538   3.752   1.279   1.747  0.1020  0.2073  0.7993
 2073SOL    HW1 6539   3.845   1.315   1.756  0.0326  0.5292  0.2813
 2073SOL    HW2 6540   3.715   1.258   1.838  0.1820  1.3814  1.1198
 2074SOL     OW 6541   1.470   3.439   1.925 -0.4469  0.3230  0.0513
 2074SOL    HW1 6542   1.481   3.353   1.876  0.9566  1.0969 -1.0521
 2074SOL    HW2 6543   1.443   3.420   2.020 -0.1712 -1.3229 -0.1719
 2075SOL     OW 6544   3.162   4.690   1.162  0.2887  0.0605  0.2074
 2075SOL    HW1 6545   3.218   4.678   1.244  0.0085 -0.5675  0.3159
 2075SOL    HW2 6546   3.140   4.600   1.124  0.0714  0.3366 -0.3196
 2076SOL     OW 6547   3.098   0.619   0.879 -0.4565  0.3582  0.0550
 2076SOL    HW1 6548   3.139   0.572   0.957 -2.7444  0.7844  1.6133
 2076SOL    HW2 6549   3.165   0.681   0.839  0.4575  1.0226  2.4417
 2077SOL     OW 6550   5.072   2.023   0.975  0.5446  0.4081 -0.3475
 2077SOL    HW1 6551   5.124   2.045   1.058 -0.0609 -0.0951  0.1762
 2077SOL    HW2 6552   5.093   2.090   0.904  1.3570  0.6296  0.0880
 2078SOL     OW 6553   2.027   1.919   1.139 -0.0100  0.6010  0.3050
 2078SOL    HW1 6554   1.964   1.884   1.208  2.2098 -0.5442  1.8831
 2078SOL    HW2 6555   2.023   2.019   1.138 -0.6560  0.6094  1.5780
 2079SOL     OW 6556   0.990   0.529   1.584  0.6270 -0.0684 -0.2578
 2079SOL    HW1 6557   0.918   0.465   1.556  0.7895 -0.4828  0.2719
 2079SOL    HW2 6558   0.949   0.617   1.609  0.3636 -0.1074 -0.5447
 2080SOL     OW 6559   3.403   0.408   0.918 -0.1634 -0.1697 -0.2176
 2080SOL    HW1 6560   3.460   0.397   0.999 -0.0613 -0.8109 -0.3736
 2080SOL    HW2 6561   3.308   0.424   0.946 -0.4430 -2.0176  0.0520
 2081SOL     OW 6562   2.692   1.828   5.289  0.7090 -0.6702  0.1094
 2081SOL    HW1 6563   2.593   1.824   5.296  0.6176  1.1239  0.1878
 2081SOL    HW2 6564   2.733   1.774   5.363 -0.2131 -0.2199  0.9659
 2082SOL     OW 6565   3.870   3.617   1.142  0.1143  0.1452  0.3612
 2082SOL    HW1 6566   3.823   3.699   1.111 -0.1153 -0.1870 -0.1886
 2082SOL    HW2 6567   3.874   3.616   1.242 -1.1195  0.1474  0.4287
 2083SOL     OW 6568   4.674   0.471   1.892  0.0753  0.7962  0.5433
 2083SOL    HW1 6569   4.607   0.543   1.907 -0.4724  0.6812 -1.1146
 2083SOL    HW2 6570   4.698   0.429   1.979  0.8216  3.3073  1.6301
 2084SOL     OW 6571   2.158   0.199   0.385  0.5902  0.2919 -0.2260
 2084SOL    HW1 6572   2.204   0.111   0.396  2.4008  1.4544  2.2899
 2084SOL    HW2 6573   2.067   0.195   0.426  1.3404  0.0626  1.4648
 2085SOL     OW 6574   0.322   0.709   4.701  0.0624  0.4855  0.1941
 2085SOL    HW1 6575   0.291   0.642   4.633  2.5397 -0.3793 -0.1773
 2085SOL    HW2 6576   0.411   0.746   4.674  0.0793  1.8191  1.8718
 2086SOL     OW 6577   2.901   0.714   1.078 -0.4973 -0.3440  0.0341
 2086SOL    HW1 6578   2.972   0.680   1.017  0.3406 -0.8408  1.2532
 2086SOL    HW2 6579   2.926   0.696   1.173 -0.4820  2.7371  0.7465
 2087SOL     OW 6580   4.303   2.297   5.347 -0.4692  0.2131 -0.1957
 2087SOL    HW1 6581   4.222   2.257   5.392 -0.2623 -0.1558 -0.1478
 2087SOL    HW2 6582   4.375   2.309   5.415 -0.1192 -0.4396 -0.4390
 2088SOL     OW 6583   3.815   3.549   5.410  0.1914  0.1935  0.5701
 2088SOL    HW1 6584   3.731   3.523   5.457  0.9906  0.4577  2.2300
 2088SOL    HW2 6585   3.794   3.573   5.315 -1.5640  0.1064  0.8975
 2089SOL     OW 6586   2.453   1.840   1.375  0.0411  0.4744  0.3401
 2089SOL    HW1 6587   2.520   1.806   1.441  1.5759  4.4796  1.1445
 2089SOL    HW2 6588   2.382   1.891   1.424 -0.9774  0.2487 -0.8734
 2090SOL     OW 6589   4.344   2.538   4.926  0.2318  0.1656 -0.1778
 2090SOL    HW1 6590   4.309   2.517   5.017  2.1074 -2.0090  0.1209
 2090SOL    HW2 6591   4.269   2.532   4.860 -0.9287  0.6389  1.0522
 2091SOL     OW 6592   4.180   0.915   2.685  0.3721  0.4482  0.2063
 2091SOL    HW1 6593   4.221   0.945   2.772  1.8929 -0.6658 -0.0884
 2091SOL    HW2 6594   4.252   0.901   2.617 -0.8880  2.4606 -1.6546
 2092SOL     OW 6595   2.370   1.645   2.915 -0.0424 -0.3168 -0.8077
 2092SOL    HW1 6596   2.329   1.554   2.921  2.9225 -1.9345 -2.4447
 2092SOL    HW2 6597   2.456   1.646   2.966 -0.3796  1.8753 -0.1803
 2093SOL     OW 6598   1.423   1.301   0.348  0.1755  0.2785 -0.3413
 2093SOL    HW1 6599   1.349   1.294   0.281  1.2950 -0.9238 -1.5162
 2093SOL    HW2 6600   1.462   1.393   0.344 -0.4372  0.5317 -0.6002
 2094SOL     OW 6601   2.062   4.704   1.900  0.0835  0.0487  0.1969
 2094SOL    HW1 6602   2.047   4.622   1.846 -2.2985 -0.2370  1.1328
 2094SOL    HW2 6603   2.116   4.682   1.981 -2.5025 -1.2653  1.7058
 2095SOL     OW 6604   0.652   1.677   5.129  0.2412  0.6163  0.5220
 2095SOL    HW1 6605   0.720   1.665   5.056  0.6237 -2.2284  1.2354
 2095SOL    HW2 6606   0.600   1.593   5.140  1.6209  0.0785  4.8879
 2096SOL     OW 6607   2.437   0.321   1.377  0.5489 -0.0888  0.2333
 2096SOL    HW1 6608   2.354   0.273   1.351 -0.2277  0.9053  0.8218
 2096SOL    HW2 6609   2.494   0.335   1.296  0.0800 -0.6368 -0.1989
 2097SOL     OW 6610   2.249   0.414   0.250 -0.5282  0.3763  0.4213
 2097SOL    HW1 6611   2.192   0.343   0.291 -1.4015  0.5330 -0.4847
 2097SOL    HW2 6612   2.346   0.390   0.262 -0.7930 -0.4124  1.0701
 2098SOL     OW 6613   1.753   1.077   0.922 -0.4503  0.3865 -0.5569
 2098SOL    HW1 6614   1.679   1.102   0.859 -0.3691 -0.8785 -1.1922
 2098SOL    HW2 6615   1.805   1.001   0.883  0.7499  0.7935  0.2105
 2099SOL     OW 6616   3.426   1.544   0.205  0.4061 -0.0116 -0.4778
 2099SOL    HW1 6617   3.372   1.621   0.172 -1.0068 -0.8261 -0.1593
 2099SOL    HW2 6618   3.410   1.464   0.148 -0.2695 -0.7965  0.7522
 2100SOL     OW 6619   0.658   4.518   1.500  0.4389  0.4419  0.1207
 2100SOL    HW1 6620   0.640   4.426   1.537 -0.1123  0.7412  0.6248
 2100SOL    HW2 6621   0.705   4.510   1.412  2.4621 -0.3040  1.1863
 2101SOL     OW 6622   4.228   3.208   0.042 -0.1386  0.3888  0.2245
 2101SOL    HW1 6623   4.222   3.205  -0.058  0.6972  2.3233  0.0772
 2101SOL    HW2 6624   4.311   3.160   0.072  0.3171  0.9423 -0.1275
 2102SOL     OW 6625   2.323   5.277   2.370  0.1562 -0.6011 -0.4558
 2102SOL    HW1 6626   2.263   5.343   2.325 -0.3471 -1.5308 -1.2017
 2102SOL    HW2 6627   2.398   5.253   2.308  0.9270  0.0433  0.2119
 2103SOL     OW 6628   3.754   2.572   5.002  0.4246  0.6135 -0.0040
 2103SOL    HW1 6629   3.783   2.549   5.095 -3.1936 -2.9547  0.4957
 2103SOL    HW2 6630   3.657   2.593   5.001 -0.1129 -1.3594 -3.1757
 2104SOL     OW 6631   2.593   2.367   0.524  0.2785 -0.2528  0.1045
 2104SOL    HW1 6632   2.536   2.285   0.534  0.6517 -0.4786  0.4174
 2104SOL    HW2 6633   2.588   2.421   0.608 -0.6940  0.5299 -0.4297
 2105SOL     OW 6634   3.999   2.039   1.706  0.1227 -1.0417 -0.8256
 2105SOL    HW1 6635   4.081   2.087   1.674  0.4821 -1.4397 -0.5148
 2105SOL    HW2 6636   4.026   1.955   1.753 -0.4578 -1.0599 -0.5191
 2106SOL     OW 6637   2.170   1.085   2.745  0.0919 -0.0549 -0.0828
 2106SOL    HW1 6638   2.166   1.117   2.650  0.2020  0.9624  0.2401
 2106SOL    HW2 6639   2.249   1.025   2.757  0.1987 -0.0146 -0.5831
 2107SOL     OW 6640   2.647   5.452   2.353 -0.4419 -0.6228  0.3164
 2107SOL    HW1 6641   2.636   5.407   2.442 -1.5817  0.4808  0.7694
 2107SOL    HW2 6642   2.608   5.393   2.282 -2.1366 -0.3244  0.9326
 2108SOL     OW 6643   1.823   5.134   1.816  0.0225  0.1692 -0.1354
 2108SOL    HW1 6644   1.843   5.044   1.778  0.0354  0.1077  0.0154
 2108SOL    HW2 6645   1.829   5.130   1.916  0.5198  0.4541 -0.1476
 2109SOL     OW 6646   3.280   0.430   5.318  0.1442  0.4021  0.1392
 2109SOL    HW1 6647   3.343   0.415   5.395  2.1643 -1.0389 -1.6747
 2109SOL    HW2 6648   3.226   0.512   5.335  0.0858 -0.1750  3.3328
 2110SOL     OW 6649   1.623   0.915   1.508  0.2577 -0.0023  0.0129
 2110SOL    HW1 6650   1.692   0.885   1.442  0.4774  0.7871 -0.1272
 2110SOL    HW2 6651   1.572   0.992   1.470  0.0612  0.1487  0.5718
 2111SOL     OW 6652   0.971   0.979   0.972  0.1035  0.3328  0.4307
 2111SOL    HW1 6653   0.918   0.895   0.981  0.4244 -0.0836 -1.1825
 2111SOL    HW2 6654   0.983   1.021   1.062 -1.4025 -0.5037  1.0595
 2112SOL     OW 6655   3.403   1.926   5.029  0.1637 -0.0628 -0.6895
 2112SOL    HW1 6656   3.453   2.009   5.053  0.1124  0.3403 -1.8837
 2112SOL    HW2 6657   3.341   1.901   5.103  0.4482  0.7615 -0.1676
 2113SOL     OW 6658   2.427   1.099   1.108  0.1299  0.5656 -0.2943
 2113SOL    HW1 6659   2.474   1.014   1.129  0.1380  0.2182 -1.6578
 2113SOL    HW2 6660   2.334   1.096   1.146 -0.4101 -0.7029 -1.6519
 2114SOL     OW 6661   2.976   1.243   1.454  0.6411  0.3067 -0.2499
 2114SOL    HW1 6662   2.908   1.316   1.456 -1.4664 -1.5287 -0.3042
 2114SOL    HW2 6663   3.065   1.278   1.483 -0.4750  2.6651  0.5343
 2115SOL     OW 6664   3.791   1.973   0.602 -0.1222 -0.1133  0.5736
 2115SOL    HW1 6665   3.861   2.034   0.641 -0.4939 -0.5566  1.9633
 2115SOL    HW2 6666   3.760   2.011   0.515  2.2592 -0.1986 -0.3986
 2116SOL     OW 6667   3.141   1.739   0.349 -0.2177  0.0499 -0.3471
 2116SOL    HW1 6668   3.074   1.809   0.373 -1.4011 -1.2652  0.3050
 2116SOL    HW2 6669   3.114   1.652   0.388  0.8986 -0.9287 -1.6560
 2117SOL     OW 6670   1.802   2.385   2.277 -0.1220 -0.1753 -0.2779
 2117SOL    HW1 6671   1.848   2.300   2.305  0.8888  0.3157 -0.3835
 2117SOL    HW2 6672   1.744   2.417   2.352 -2.0979 -1.9900 -0.9546
 2118SOL     OW 6673   0.420   4.854   1.311  0.5084 -0.0758  0.1666
 2118SOL    HW1 6674   0.378   4.923   1.369  0.1355  0.4690 -0.7399
 2118SOL    HW2 6675   0.353   4.783   1.290  1.0909 -1.1251  1.6916
 2119SOL     OW 6676   1.500   2.784   3.130 -0.2166 -0.0217 -0.8259
 2119SOL    HW1 6677   1.541   2.875   3.124 -2.5781  1.0747 -2.0259
 2119SOL    HW2 6678   1.480   2.762   3.225  0.4029  0.7045 -0.5204
 2120SOL     OW 6679   4.731   0.115   0.707 -1.0498  0.4827 -0.9925
 2120SOL    HW1 6680   4.766   0.186   0.768  0.4053  0.4267 -1.7118
 2120SOL    HW2 6681   4.632   0.113   0.713 -1.1289  2.4263 -0.7729
 2121SOL     OW 6682   1.780   5.393   2.123 -0.0613 -0.1056 -0.1679
 2121SOL    HW1 6683   1.830   5.377   2.208 -0.1862 -0.0291 -0.0789
 2121SOL    HW2 6684   1.775   5.491   2.105 -0.4055 -0.0943 -0.0357
 2122SOL     OW 6685   0.440   5.268   0.795 -0.0321 -0.2374  0.4602
 2122SOL    HW1 6686   0.471   5.190   0.849  1.3880 -0.6546 -0.8788
 2122SOL    HW2 6687   0.512   5.337   0.790  0.2397 -0.5884 -1.5391
 2123SOL     OW 6688   1.706   0.096   1.769 -0.5353 -0.4275 -0.2761
 2123SOL    HW1 6689   1.751   0.155   1.702 -0.7532 -0.4869 -0.4776
 2123SOL    HW2 6690   1.764   0.018   1.790  0.5102  0.7032  1.2585
 2124SOL     OW 6691   2.924   0.634   1.350  0.2037  0.0761 -0.3024
 2124SOL    HW1 6692   2.858   0.689   1.401 -0.9777 -0.9507 -0.6784
 2124SOL    HW2 6693   2.906   0.537   1.365  0.3379 -0.2484 -2.0131
 2125SOL     OW 6694   3.479   1.082   1.101  0.2304  0.3163 -0.1890
 2125SOL    HW1 6695   3.542   1.151   1.066 -0.9059  1.1561 -0.6341
 2125SOL    HW2 6696   3.424   1.121   1.175  0.3120 -0.4384  0.2767
 2126SOL     OW 6697   2.517   2.096   1.254 -0.1849  0.1885  0.4239
 2126SOL    HW1 6698   2.569   2.107   1.339  1.2003  0.2408 -0.3895
 2126SOL    HW2 6699   2.475   2.005   1.252  0.5301 -0.1593  0.7717
 2127SOL     OW 6700   2.040   0.869   1.378 -0.4647 -0.2190 -0.2691
 2127SOL    HW1 6701   2.073   0.962   1.385 -1.3185 -0.0682  3.3570
 2127SOL    HW2 6702   1.951   0.869   1.332 -1.0623  0.9446  0.8454
 2128SOL     OW 6703   1.526   1.150   1.730  0.8137  0.0089 -0.2717
 2128SOL    HW1 6704   1.438   1.199   1.726  1.2444  0.7714 -0.5831
 2128SOL    HW2 6705   1.539   1.099   1.646  0.7149 -0.0233 -0.2677
 2129SOL     OW 6706   2.943   1.096   4.919 -0.6974 -0.5614 -0.0254
 2129SOL    HW1 6707   2.941   1.171   4.854  0.7430 -0.1224  0.3994
 2129SOL    HW2 6708   2.929   1.131   5.012  0.1643 -0.7639  0.1967
 2130SOL     OW 6709   3.366   2.190   1.374 -0.5077 -0.0657  0.0120
 2130SOL    HW1 6710   3.371   2.180   1.275 -0.2003  0.1578  0.0042
 2130SOL    HW2 6711   3.337   2.283   1.397 -0.2133 -0.0052  0.1387
 2131SOL     OW 6712   3.420   3.999   3.254 -0.3475  0.1355 -0.1402
 2131SOL    HW1 6713   3.447   3.905   3.276  2.0852  0.7517 -0.1952
 2131SOL    HW2 6714   3.474   4.063   3.309 -1.8158  1.5360 -0.2530
 2132SOL     OW 6715   2.368   1.257   0.155  0.3795 -0.1709 -0.4365
 2132SOL    HW1 6716   2.445   1.288   0.098  0.9558  0.7150  0.7980
 2132SOL    HW2 6717   2.398   1.249   0.250 -0.4391 -2.1123 -0.2921
 2133SOL     OW 6718   2.374   4.956   0.699  0.8884  0.1772  0.0295
 2133SOL    HW1 6719   2.473   4.965   0.706  1.0227 -0.7798 -0.4807
 2133SOL    HW2 6720   2.351   4.891   0.626 -0.1143  0.4484  0.0877
 2134SOL     OW 6721   1.211   0.727   1.732  0.0793 -0.0206  0.6592
 2134SOL    HW1 6722   1.304   0.764   1.726  0.0879 -0.2269 -1.0992
 2134SOL    HW2 6723   1.215   0.627   1.737 -0.0336  0.0195  1.7103
 2135SOL     OW 6724   1.541   0.372   2.655  0.3043 -0.6219 -0.4326
 2135SOL    HW1 6725   1.622   0.428   2.639  0.7627 -1.3677 -0.8408
 2135SOL    HW2 6726   1.482   0.415   2.723  0.4846  0.4889 -0.9736
 2136SOL     OW 6727   3.349   0.329   2.268  0.2900 -0.2995 -0.5210
 2136SOL    HW1 6728   3.413   0.263   2.307  3.3259  1.2401 -2.4814
 2136SOL    HW2 6729   3.299   0.287   2.193  1.0751 -0.8093 -0.7703
 2137SOL     OW 6730   2.678   0.154   2.079 -0.2678  0.0615 -0.2633
 2137SOL    HW1 6731   2.655   0.057   2.074 -1.7158  0.3576  0.1081
 2137SOL    HW2 6732   2.654   0.189   2.170  1.5688  0.4701  0.1044
 2138SOL     OW 6733   2.991   1.702   2.533  0.5424  0.1084 -0.1029
 2138SOL    HW1 6734   2.982   1.794   2.572  1.9783 -0.0590  0.6915
 2138SOL    HW2 6735   3.007   1.709   2.434  2.0470  0.8256  0.1525
 2139SOL     OW 6736   1.134   5.417   2.378 -0.0276  0.3503  0.1918
 2139SOL    HW1 6737   1.059   5.483   2.387 -0.9846 -0.8412  1.2202
 2139SOL    HW2 6738   1.123   5.344   2.444 -0.5130 -2.3191 -2.5980
 2140SOL     OW 6739   2.050   1.999   2.985 -0.2222  0.2879  0.7448
 2140SOL    HW1 6740   2.105   1.915   2.988  0.9505  1.0464  2.3810
 2140SOL    HW2 6741   2.017   2.021   3.076 -0.2605  1.7459  0.4183
 2141SOL     OW 6742   2.150   1.549   3.976 -0.0969  0.0124 -0.2934
 2141SOL    HW1 6743   2.100   1.582   4.056 -0.1515 -1.3413  0.2527
 2141SOL    HW2 6744   2.132   1.452   3.963  1.5827 -0.2769 -0.6942
 2142SOL     OW 6745   1.694   0.730   2.349 -0.0652  0.0170 -0.1046
 2142SOL    HW1 6746   1.660   0.820   2.376  1.1327  0.4386  0.0966
 2142SOL    HW2 6747   1.625   0.682   2.296 -1.0719  0.6798  0.5651
 2143SOL     OW 6748   0.823   0.706   1.768 -0.1139 -0.0085  0.5061
 2143SOL    HW1 6749   0.822   0.801   1.739  0.6972 -0.9629 -3.1906
 2143SOL    HW2 6750   0.903   0.689   1.826  1.9926  0.8391 -1.9941
 2144SOL     OW 6751   3.186   1.845   5.166 -0.3296  0.2802  0.1785
 2144SOL    HW1 6752   3.191   1.762   5.111  0.2371 -1.0099  2.0790
 2144SOL    HW2 6753   3.098   1.890   5.151 -0.6310 -0.6288 -0.8937
 2145SOL     OW 6754   2.393   2.553   1.675  0.0360 -0.8648 -0.4705
 2145SOL    HW1 6755   2.356   2.496   1.602  0.7748 -0.0307 -1.5370
 2145SOL    HW2 6756   2.447   2.497   1.738 -0.7038 -1.6145 -0.4882
 2146SOL     OW 6757   2.541   0.548   3.241  0.1724 -0.7052 -0.0658
 2146SOL    HW1 6758   2.484   0.517   3.165  1.7519 -0.8153 -1.2615
 2146SOL    HW2 6759   2.484   0.594   3.309 -1.3120 -0.7446 -1.2337
 2147SOL     OW 6760   3.513   4.532   3.472 -0.0995  0.2597  0.0913
 2147SOL    HW1 6761   3.520   4.499   3.378 -0.7121  0.9289 -0.1992
 2147SOL    HW2 6762   3.420   4.564   3.489  0.2577  1.0410  0.6217
 2148SOL     OW 6763   3.224   0.582   2.157 -0.4584 -0.1905 -0.4195
 2148SOL    HW1 6764   3.124   0.579   2.157 -0.4778  0.3570 -0.3719
 2148SOL    HW2 6765   3.260   0.495   2.189 -0.8826 -1.4041 -3.0390
 2149SOL     OW 6766   2.169   3.198   2.732  0.6255 -0.2824  0.3439
 2149SOL    HW1 6767   2.167   3.134   2.655 -0.0388 -0.3371  0.4001
 2149SOL    HW2 6768   2.114   3.162   2.808  0.3978  0.2611  0.4464
 2150SOL     OW 6769   4.477   1.467   1.987 -0.1597 -0.2392  0.0108
 2150SOL    HW1 6770   4.422   1.501   2.064  0.0882 -2.0141  1.0178
 2150SOL    HW2 6771   4.462   1.369   1.976  1.3634 -0.3938 -0.9175
 2151SOL     OW 6772   3.491   1.807   1.886  0.9679 -0.0644 -0.4477
 2151SOL    HW1 6773   3.573   1.807   1.830  1.0846  1.1678 -0.2825
 2151SOL    HW2 6774   3.490   1.886   1.946 -0.0910 -0.3328 -0.0745
 2152SOL     OW 6775   1.523   1.381   1.163 -0.2642  0.9962  0.1693
 2152SOL    HW1 6776   1.590   1.401   1.092 -0.8961  1.1456 -0.3948
 2152SOL    HW2 6777   1.432   1.371   1.122 -0.1221 -2.5031  0.4365
 2153SOL     OW 6778   1.069   0.790   1.951  0.1502 -0.0847  0.2826
 2153SOL    HW1 6779   1.117   0.764   1.867 -0.9783  0.7120 -0.6397
 2153SOL    HW2 6780   1.086   0.886   1.971 -3.0702  1.0451 -1.5952
 2154SOL     OW 6781   2.507   5.494   4.973  0.2784  0.1638  0.4409
 2154SOL    HW1 6782   2.576   5.446   4.920 -0.6979 -0.3315 -0.4238
 2154SOL    HW2 6783   2.500   5.588   4.942 -0.0899 -0.0465 -0.1262
 2155SOL     OW 6784   0.577   0.619   3.107  0.3256  0.2244  0.5193
 2155SOL    HW1 6785   0.500   0.596   3.166  0.7891 -0.3321  0.9084
 2155SOL    HW2 6786   0.660   0.573   3.139  0.4127 -0.8059 -1.0626
 2156SOL     OW 6787   3.817   1.524   2.818  1.0103 -0.6959 -0.2901
 2156SOL    HW1 6788   3.768   1.498   2.901 -0.7551 -1.9236 -1.6445
 2156SOL    HW2 6789   3.752   1.557   2.750  2.5409  1.3639 -0.8552
 2157SOL     OW 6790   1.693   2.433   0.651 -0.6763  0.0399  0.3557
 2157SOL    HW1 6791   1.601   2.417   0.687 -0.1096 -1.1256  1.3726
 2157SOL    HW2 6792   1.740   2.500   0.709  0.4877 -2.3644  2.3756
 2158SOL     OW 6793   2.904   0.592   3.817  0.1713 -0.2650  0.4891
 2158SOL    HW1 6794   2.974   0.602   3.887  0.1590  1.6769  0.2724
 2158SOL    HW2 6795   2.932   0.640   3.734 -1.3655  0.5515  0.3906
 2159SOL     OW 6796   3.087   0.651   1.754 -0.2183  0.4176  0.1867
 2159SOL    HW1 6797   3.022   0.584   1.790  0.1253 -0.7126 -1.1994
 2159SOL    HW2 6798   3.171   0.648   1.808 -0.2527 -0.2040  0.2228
 2160SOL     OW 6799   2.737   0.504   3.440 -0.2943 -0.3601 -0.0315
 2160SOL    HW1 6800   2.704   0.549   3.357  1.5849  1.5313  0.1437
 2160SOL    HW2 6801   2.826   0.462   3.422  1.8931  3.0522  1.6673
 2161SOL     OW 6802   2.459   1.374   1.145 -0.2681  0.2516  0.1167
 2161SOL    HW1 6803   2.388   1.428   1.191 -0.8920 -0.8815  0.5316
 2161SOL    HW2 6804   2.426   1.280   1.131  1.3309 -0.4469  0.7843
 2162SOL     OW 6805   2.143   0.593   2.187  0.6010 -0.9139  0.5026
 2162SOL    HW1 6806   2.159   0.561   2.094  3.1057  0.7669  0.2593
 2162SOL    HW2 6807   2.048   0.624   2.196  0.5008 -0.3923 -1.7499
 2163SOL     OW 6808   1.794   0.747   2.629 -0.3979  0.1248 -0.1561
 2163SOL    HW1 6809   1.799   0.722   2.533 -2.1484  0.0810 -0.2496
 2163SOL    HW2 6810   1.800   0.665   2.686  1.0871  0.1861 -0.1764
 2164SOL     OW 6811   1.169   0.645   3.563 -0.4008 -0.5823 -0.2262
 2164SOL    HW1 6812   1.074   0.654   3.595  0.1259 -0.8860  1.5217
 2164SOL    HW2 6813   1.203   0.735   3.535 -1.2675 -0.5130 -1.1374
 2165SOL     OW 6814   3.260   0.877   4.339 -0.0043 -0.0913 -0.3167
 2165SOL    HW1 6815   3.314   0.887   4.423 -0.2107 -0.7837 -0.0946
 2165SOL    HW2 6816   3.247   0.780   4.320 -0.8613  0.0723 -0.5752
 2166SOL     OW 6817   3.531   5.478   3.812  0.2974 -0.0463  0.1241
 2166SOL    HW1 6818   3.622   5.489   3.851  1.0908 -1.0789 -1.3238
 2166SOL    HW2 6819   3.528   5.520   3.722 -0.4209 -0.6657 -0.1524
 2167SOL     OW 6820   0.493   0.282   2.966 -0.3579 -0.2434  0.1660
 2167SOL    HW1 6821   0.469   0.191   2.932 -0.6280 -0.6262  1.3483
 2167SOL    HW2 6822   0.414   0.322   3.013  0.6753 -0.7411  2.4438
 2168SOL     OW 6823   1.794   0.480   2.723 -0.2321 -0.1047  0.8863
 2168SOL    HW1 6824   1.892   0.461   2.728 -0.2129  0.3395  2.4604
 2168SOL    HW2 6825   1.757   0.495   2.815 -1.8358 -0.5179  0.3534
 2169SOL     OW 6826   5.243   2.446   2.262  0.1251 -0.3806 -0.5471
 2169SOL    HW1 6827   5.306   2.382   2.218  0.7201 -0.7035  0.7207
 2169SOL    HW2 6828   5.216   2.410   2.352 -1.2595  0.1267 -0.7388
 2170SOL     OW 6829   2.367   2.111   2.453 -0.0734  0.6741  0.1788
 2170SOL    HW1 6830   2.375   2.022   2.498 -0.6262 -0.0965 -1.1980
 2170SOL    HW2 6831   2.306   2.170   2.506 -0.1831  0.0255  0.7810
 2171SOL     OW 6832   1.382   0.821   2.592  0.7427  0.5416 -0.5676
 2171SOL    HW1 6833   1.464   0.807   2.648  0.3467  0.0710 -0.0928
 2171SOL    HW2 6834   1.374   0.746   2.526 -0.0440 -0.1682  0.3155
 2172SOL     OW 6835   3.561   2.232   4.436 -0.1279  0.4418 -0.0093
 2172SOL    HW1 6836   3.615   2.150   4.456 -1.6529 -0.4489  0.7268
 2172SOL    HW2 6837   3.604   2.312   4.476  0.1612 -0.3789  1.3984
 2173SOL     OW 6838   2.307   5.229   3.956  0.4012  0.2173 -0.1787
 2173SOL    HW1 6839   2.253   5.166   4.012 -0.7383  1.9292  0.7399
 2173SOL    HW2 6840   2.305   5.198   3.861 -0.3989 -0.9424  0.1852
 2174SOL     OW 6841   2.654   0.913   2.747  0.4471 -0.5105 -0.7172
 2174SOL    HW1 6842   2.643   0.837   2.684 -0.4271 -0.2805 -0.8510
 2174SOL    HW2 6843   2.746   0.910   2.787 -0.3288 -3.0298  1.1196
 2175SOL     OW 6844   2.605   1.160   3.744 -0.4523  0.7057  0.1951
 2175SOL    HW1 6845   2.562   1.149   3.654 -1.8500  1.9531  0.6653
 2175SOL    HW2 6846   2.626   1.070   3.782 -1.9132  0.0729 -0.4169
 2176SOL     OW 6847   1.307   1.308   2.555  0.1524  0.0065 -0.1936
 2176SOL    HW1 6848   1.319   1.383   2.620  1.4118  0.4441 -0.9000
 2176SOL    HW2 6849   1.342   1.223   2.596  2.0841  0.5082 -0.7028
 2177SOL     OW 6850   2.665   0.448   1.810  0.0097  0.3110 -0.1569
 2177SOL    HW1 6851   2.685   0.356   1.843 -0.7385  0.6413  1.2748
 2177SOL    HW2 6852   2.617   0.442   1.723 -1.7449 -0.7488  0.8217
 2178SOL     OW 6853   2.148   0.912   1.964  0.0756  0.0714 -0.0243
 2178SOL    HW1 6854   2.070   0.858   1.932 -0.5171 -1.2567  3.2806
 2178SOL    HW2 6855   2.232   0.861   1.947  0.0903  0.6580 -1.8857
 2179SOL     OW 6856   2.224   2.135   4.636  0.3350 -0.5653  0.1669
 2179SOL    HW1 6857   2.189   2.161   4.546 -0.2270 -0.1398  0.5016
 2179SOL    HW2 6858   2.312   2.089   4.625 -0.3297 -1.6826 -0.6839
 2180SOL     OW 6859   1.950   1.834   3.341 -0.3476 -0.0287  0.2826
 2180SOL    HW1 6860   1.907   1.754   3.299 -0.4600 -0.3669  1.0260
 2180SOL    HW2 6861   2.048   1.819   3.349 -0.2777  0.1718 -0.1440
 2181SOL     OW 6862   3.234   2.802   5.015  0.1554  0.0250  0.2519
 2181SOL    HW1 6863   3.286   2.871   5.066  2.2365 -0.7380 -0.7305
 2181SOL    HW2 6864   3.137   2.827   5.014  0.5239  1.7090  1.8362
 2182SOL     OW 6865   4.050   2.131   2.773  0.0651 -0.1383  0.1640
 2182SOL    HW1 6866   3.999   2.078   2.841 -0.1632 -0.0280  0.0797
 2182SOL    HW2 6867   4.129   2.174   2.816  0.2052 -0.4776  0.2517
 2183SOL     OW 6868   0.850   0.140   4.249 -0.3671  0.3028 -0.3170
 2183SOL    HW1 6869   0.783   0.142   4.323 -0.4307 -0.8683 -0.3363
 2183SOL    HW2 6870   0.888   0.232   4.236  0.8214  0.2617  2.2365
 2184SOL     OW 6871   4.512   1.975   3.742 -0.3474  0.2279 -0.1493
 2184SOL    HW1 6872   4.539   2.069   3.760  1.0628  0.0683 -1.1767
 2184SOL    HW2 6873   4.438   1.974   3.675  0.6177  0.6163 -1.2691
 2185SOL     OW 6874   1.156   2.134   5.431  0.1266  0.5112 -0.1578
 2185SOL    HW1 6875   1.143   2.151   5.334  2.2413  1.2847 -0.3640
 2185SOL    HW2 6876   1.144   2.037   5.450 -0.2329  0.3407 -1.1910
 2186SOL     OW 6877   1.649   0.384   4.625  0.0368  0.4674  0.0403
 2186SOL    HW1 6878   1.698   0.301   4.651 -2.1126 -0.5607  1.0255
 2186SOL    HW2 6879   1.569   0.360   4.571  0.4723  2.0905 -1.4247
 2187SOL     OW 6880   2.470   1.776   3.943 -0.3349  0.2000 -0.0864
 2187SOL    HW1 6881   2.525   1.851   3.906  1.7036 -0.6213  1.1119
 2187SOL    HW2 6882   2.448   1.794   4.039  0.6158 -0.9141  0.3719
 2188SOL     OW 6883   4.759   0.856   3.508 -0.2981 -0.0036 -0.7021
 2188SOL    HW1 6884   4.815   0.920   3.561  0.1405  0.3725 -1.6153
 2188SOL    HW2 6885   4.731   0.898   3.422  1.3802 -1.5630 -2.0979
 2189SOL     OW 6886   3.399   1.447   3.593  0.3339 -0.0595  0.0945
 2189SOL    HW1 6887   3.369   1.390   3.670  1.7616 -3.7166 -1.7887
 2189SOL    HW2 6888   3.320   1.492   3.552 -0.7240  0.3292  2.3591
 2190SOL     OW 6889   3.135   1.616   1.874 -0.3783  0.1711  0.6550
 2190SOL    HW1 6890   3.090   1.539   1.828 -0.6242  0.2117  0.8274
 2190SOL    HW2 6891   3.176   1.584   1.960  2.3303 -0.5098 -0.7578
 2191SOL     OW 6892   4.596   2.085   1.566 -0.1701 -0.2405 -0.2190
 2191SOL    HW1 6893   4.496   2.085   1.562 -0.2024 -1.1311  0.3228
 2191SOL    HW2 6894   4.631   2.003   1.521  0.2691 -0.4437  0.4836
 2192SOL     OW 6895   0.247   0.411   1.791  0.5994  0.8801  0.3328
 2192SOL    HW1 6896   0.154   0.388   1.820  1.1969  0.1523  1.8026
 2192SOL    HW2 6897   0.246   0.493   1.735 -1.0821  0.0906 -0.8679
 2193SOL     OW 6898   4.374   4.826   3.045 -0.2158 -0.3782 -0.7942
 2193SOL    HW1 6899   4.397   4.834   3.142  0.8018 -1.1176 -0.9602
 2193SOL    HW2 6900   4.285   4.782   3.035  0.7064 -2.5048 -0.2111
 2194SOL     OW 6901   2.286   1.637   1.824  0.1232  0.4670  0.0445
 2194SOL    HW1 6902   2.222   1.676   1.890 -0.4195 -1.0144  0.4204
 2194SOL    HW2 6903   2.258   1.662   1.732 -1.6942 -1.1001  0.1230
 2195SOL     OW 6904   3.368   1.613   2.322 -0.0972 -0.0291  0.6835
 2195SOL    HW1 6905   3.404   1.667   2.399  0.7853  0.3809  0.0013
 2195SOL    HW2 6906   3.444   1.569   2.274 -0.3448  1.6757 -1.4122
 2196SOL     OW 6907   2.703   1.152   1.642  0.4095  0.0374 -0.4283
 2196SOL    HW1 6908   2.788   1.107   1.615 -0.9345 -3.5827  0.6612
 2196SOL    HW2 6909   2.630   1.126   1.578 -0.0436  2.7369 -1.1088
 2197SOL     OW 6910   1.547   0.957   3.570 -0.1655  0.5689 -0.0530
 2197SOL    HW1 6911   1.465   1.008   3.596  0.8713  3.3396 -1.8087
 2197SOL    HW2 6912   1.626   0.991   3.622  0.3346 -0.1332 -0.3331
 2198SOL     OW 6913   2.170   0.360   3.233 -0.4661 -0.3800 -0.5983
 2198SOL    HW1 6914   2.078   0.358   3.272 -0.9096 -0.7748 -1.6325
 2198SOL    HW2 6915   2.233   0.311   3.293 -0.9022 -0.0435  0.1536
 2199SOL     OW 6916   2.817   5.476   4.109 -0.5339 -0.3840  0.0993
 2199SOL    HW1 6917   2.859   5.567   4.118 -0.0982 -0.4755 -0.8742
 2199SOL    HW2 6918   2.747   5.465   4.180 -1.4446  1.1885 -0.4859
 2200SOL     OW 6919   4.247   0.515   2.303 -0.0730  0.3380 -0.0396
 2200SOL    HW1 6920   4.267   0.438   2.243  2.7361 -0.7799  2.1385
 2200SOL    HW2 6921   4.151   0.512   2.331 -0.0455 -2.3768 -0.0206
 2201SOL     OW 6922   3.516   0.146   1.763  0.0606  0.3202 -0.1022
 2201SOL    HW1 6923   3.542   0.056   1.798  3.6321  1.0781 -0.4713
 2201SOL    HW2 6924   3.529   0.215   1.834  0.6899  0.9639 -0.8255
 2202SOL     OW 6925   1.278   0.869   3.150  0.2279  0.2406  0.2607
 2202SOL    HW1 6926   1.196   0.895   3.202 -1.1422 -1.7979 -0.7210
 2202SOL    HW2 6927   1.300   0.940   3.084  0.0096  1.3632  1.3634
 2203SOL     OW 6928   1.812   0.378   3.992  0.0614 -0.2683 -0.0553
 2203SOL    HW1 6929   1.907   0.355   4.011  0.7095  2.3767  0.2423
 2203SOL    HW2 6930   1.795   0.372   3.893  0.8107  0.1737 -0.2140
 2204SOL     OW 6931   3.148   1.005   3.889 -0.3451 -0.3496 -0.3348
 2204SOL    HW1 6932   3.055   1.033   3.914 -0.3044  0.0379 -0.6100
 2204SOL    HW2 6933   3.213   1.048   3.951 -0.4752 -2.7176  1.6223
 2205SOL     OW 6934   2.352   5.549   3.616  0.4971 -0.4846  0.0825
 2205SOL    HW1 6935   2.405   5.498   3.548 -0.7670 -1.9658  0.1840
 2205SOL    HW2 6936   2.406   5.558   3.699  0.3720 -2.6382  0.4526
 2206SOL     OW 6937   1.447   5.464   2.176  0.1517 -0.1394 -0.0409
 2206SOL    HW1 6938   1.352   5.437   2.161 -0.1916  1.2383 -0.5156
 2206SOL    HW2 6939   1.488   5.492   2.090  1.2528 -1.4376  0.0273
 2207SOL     OW 6940   2.149   5.218   2.582  0.3772  0.4881  0.1265
 2207SOL    HW1 6941   2.214   5.211   2.506 -0.4758  0.4141 -0.6044
 2207SOL    HW2 6942   2.190   5.272   2.656  2.9907 -2.9747  1.5123
 2208SOL     OW 6943   2.208   4.311   2.107 -0.1684 -0.1123  0.3213
 2208SOL    HW1 6944   2.229   4.381   2.039  0.8618 -0.1556  0.5680
 2208SOL    HW2 6945   2.114   4.322   2.139 -0.2331  0.7366 -0.1350
 2209SOL     OW 6946   0.673   1.185   3.270 -0.4394 -0.3064 -0.0225
 2209SOL    HW1 6947   0.738   1.195   3.345 -1.0815 -1.6771  0.7566
 2209SOL    HW2 6948   0.722   1.185   3.183  0.5223 -0.5348  0.5051
 2210SOL     OW 6949   1.619   0.350   3.387  0.2573 -0.5706  0.0207
 2210SOL    HW1 6950   1.580   0.378   3.476  0.7122 -0.8992  0.3260
 2210SOL    HW2 6951   1.554   0.290   3.340  0.7907 -1.9770  0.9946
 2211SOL     OW 6952   3.938   1.725   1.376 -0.0340 -0.0144  0.7071
 2211SOL    HW1 6953   4.017   1.785   1.392  0.5984 -0.5490 -0.2554
 2211SOL    HW2 6954   3.970   1.631   1.365 -0.8611 -0.3017  0.7240
 2212SOL     OW 6955   2.625   1.771   1.587  0.4939 -0.6737 -0.0025
 2212SOL    HW1 6956   2.722   1.783   1.567  0.6784 -1.9986  0.0085
 2212SOL    HW2 6957   2.614   1.702   1.658 -0.5046 -1.6572 -1.0575
 2213SOL     OW 6958   3.459   1.920   1.348 -0.0086 -0.0157 -0.0110
 2213SOL    HW1 6959   3.435   2.017   1.351 -1.2579 -0.3181  0.3073
 2213SOL    HW2 6960   3.559   1.910   1.343  0.1046  1.2876 -0.7413
 2214SOL     OW 6961   3.366   1.863   2.490 -0.5604  0.2898 -0.3745
 2214SOL    HW1 6962   3.419   1.932   2.540 -0.3172 -0.2479  0.1066
 2214SOL    HW2 6963   3.302   1.818   2.552 -1.1001  0.4510 -0.8068
 2215SOL     OW 6964   2.893   4.292   4.525 -0.2014 -0.2671 -0.2732
 2215SOL    HW1 6965   2.854   4.251   4.442  0.3394 -1.4867  0.0511
 2215SOL    HW2 6966   2.887   4.227   4.600 -0.0318  0.5628  0.4714
 2216SOL     OW 6967   1.570   0.843   4.576 -0.2024 -0.1311 -0.1603
 2216SOL    HW1 6968   1.484   0.806   4.610  0.2397 -1.6699 -0.6305
 2216SOL    HW2 6969   1.644   0.818   4.639  0.6424 -3.1124 -2.1165
 2217SOL     OW 6970   1.951   5.209   1.356  0.2747  0.3789 -0.0741
 2217SOL    HW1 6971   1.974   5.116   1.324  1.3141  0.5693  0.0664
 2217SOL    HW2 6972   1.945   5.270   1.277  2.8982  0.8599  0.0020
 2218SOL     OW 6973   4.579   5.436   2.993  0.2435  0.1466  0.3712
 2218SOL    HW1 6974   4.634   5.493   2.933  0.8263  0.7796  1.4680
 2218SOL    HW2 6975   4.486   5.471   2.999  0.3601  0.4573  0.3383
 2219SOL     OW 6976   3.491   0.860   0.342  0.5920 -0.1342 -0.2911
 2219SOL    HW1 6977   3.590   0.870   0.352  0.7283 -0.3228 -1.3018
 2219SOL    HW2 6978   3.471   0.769   0.307  0.1085  0.1245 -0.6961
 2220SOL     OW 6979   3.592   2.537   1.692  0.2768 -0.9128 -0.0147
 2220SOL    HW1 6980   3.586   2.562   1.789 -0.8586 -0.1692 -0.2583
 2220SOL    HW2 6981   3.599   2.438   1.684 -0.4331 -1.0458  0.8137
 2221SOL     OW 6982   4.286   2.534   2.665  0.0999 -0.5649 -0.0809
 2221SOL    HW1 6983   4.364   2.541   2.603  0.6258  2.1522  0.7630
 2221SOL    HW2 6984   4.309   2.579   2.752 -2.4142  0.3064  0.1955
 2222SOL     OW 6985   2.887   1.141   0.347 -0.2133  0.2774  0.5466
 2222SOL    HW1 6986   2.850   1.117   0.436 -0.0808  0.9090  0.7788
 2222SOL    HW2 6987   2.987   1.140   0.351 -0.1214 -2.0717 -0.2455
 2223SOL     OW 6988   4.254   0.465   1.459 -0.2490  0.3381 -0.0963
 2223SOL    HW1 6989   4.181   0.398   1.469  0.4800 -0.5502 -0.5863
 2223SOL    HW2 6990   4.292   0.459   1.366  1.4642 -0.3008  0.6119
 2224SOL     OW 6991   5.009   0.354   2.888 -0.7829  0.0029 -0.6001
 2224SOL    HW1 6992   5.000   0.447   2.852 -0.7394  0.1516 -0.2309
 2224SOL    HW2 6993   5.035   0.358   2.985  2.9424 -0.3901 -1.4539
 2225SOL     OW 6994   2.302   1.162   1.622 -0.0683  0.1833 -0.1532
 2225SOL    HW1 6995   2.309   1.261   1.612  0.9471  0.2169  0.6920
 2225SOL    HW2 6996   2.387   1.119   1.591 -0.3213 -0.3830 -0.0766
 2226SOL     OW 6997   2.206   0.427   2.381  0.0792  0.3692  0.5096
 2226SOL    HW1 6998   2.178   0.468   2.294 -0.3133  0.4848  0.6871
 2226SOL    HW2 6999   2.171   0.334   2.387 -1.3917  0.9342  1.2733
 2227SOL     OW 7000   3.681   1.750   0.124 -0.7704  0.1951 -0.3645
 2227SOL    HW1 7001   3.747   1.710   0.187 -0.0458  0.8971 -0.6689
 2227SOL    HW2 7002   3.591   1.710   0.141 -0.1590 -1.2307 -0.3744
 2228SOL     OW 7003   1.640   0.224   4.896  0.0459 -0.2673 -0.7084
 2228SOL    HW1 7004   1.719   0.283   4.881 -1.1140  1.0701 -1.8634
 2228SOL    HW2 7005   1.585   0.260   4.972  1.1093 -1.8761  0.9228
 2229SOL     OW 7006   2.674   1.006   2.407 -0.1960  0.1563  0.1050
 2229SOL    HW1 7007   2.641   0.977   2.317  1.8354  0.7357 -0.8841
 2229SOL    HW2 7008   2.663   0.930   2.472 -2.1067 -0.1227 -0.4782
 2230SOL     OW 7009   0.008   0.186   3.435  0.2387  0.3513  0.0356
 2230SOL    HW1 7010   0.072   0.187   3.512  1.4434 -1.2246 -0.8927
 2230SOL    HW2 7011  -0.065   0.121   3.452  1.1363 -0.8587 -0.5975
 2231SOL     OW 7012   2.369   1.909   2.669  0.3625  0.4804 -0.4268
 2231SOL    HW1 7013   2.333   1.819   2.694  3.8724 -0.8567  0.4050
 2231SOL    HW2 7014   2.306   1.980   2.700 -1.7145 -1.5979  0.4192
 2232SOL     OW 7015   1.974   2.085   2.531  0.1825 -0.0439  0.5535
 2232SOL    HW1 7016   1.991   2.130   2.443  1.8096 -1.9201 -0.1626
 2232SOL    HW2 7017   2.062   2.061   2.574 -0.6044 -0.6707  1.8902
 2233SOL     OW 7018   3.755   2.680   1.951 -0.4686 -0.4690 -0.5315
 2233SOL    HW1 7019   3.667   2.637   1.970 -1.3757  1.1780 -0.7996
 2233SOL    HW2 7020   3.773   2.751   2.019  0.3571 -0.3593 -0.8477
 2234SOL     OW 7021   1.315   0.572   2.092  0.1557  0.0430 -0.4686
 2234SOL    HW1 7022   1.347   0.664   2.069  0.8729  0.3442  1.6030
 2234SOL    HW2 7023   1.389   0.519   2.132 -1.4436  0.3182  3.1903
 2235SOL     OW 7024   3.190   0.123   3.549 -0.2361  0.0095  0.3104
 2235SOL    HW1 7025   3.099   0.096   3.519 -0.1402  0.2246 -0.1971
 2235SOL    HW2 7026   3.183   0.198   3.615 -0.3998  0.7494 -0.5234
 2236SOL     OW 7027   2.140   0.234   2.974  0.1670 -0.4135 -0.1466
 2236SOL    HW1 7028   2.161   0.299   3.047 -0.3826 -0.7935  0.3552
 2236SOL    HW2 7029   2.197   0.152   2.985 -0.8587 -1.0483  0.6692
 2237SOL     OW 7030   3.010   2.710   1.736 -0.2405  0.4139  0.5187
 2237SOL    HW1 7031   2.956   2.764   1.801 -0.4656  2.5946 -1.3745
 2237SOL    HW2 7032   2.957   2.629   1.709 -2.4976  2.2025 -0.8732
 2238SOL     OW 7033   3.336   0.571   2.475 -0.4217  0.1151 -0.0873
 2238SOL    HW1 7034   3.344   0.477   2.442  0.1110  0.1906 -0.1809
 2238SOL    HW2 7035   3.264   0.618   2.424 -0.9428 -0.3390  0.2028
 2239SOL     OW 7036   2.860   1.789   1.469 -0.0675 -0.0856  0.2235
 2239SOL    HW1 7037   2.929   1.862   1.463  0.6777 -0.8991 -1.8801
 2239SOL    HW2 7038   2.852   1.743   1.381 -0.7646 -2.3497  1.3970
 2240SOL     OW 7039   3.355   0.825   3.466  0.3606  0.2739  0.5797
 2240SOL    HW1 7040   3.311   0.807   3.554  0.4732 -0.2442  0.5334
 2240SOL    HW2 7041   3.286   0.852   3.399 -0.1750 -2.2792  0.0321
 2241SOL     OW 7042   2.527   0.072   1.493 -0.2166  0.0452 -0.3729
 2241SOL    HW1 7043   2.481  -0.004   1.448 -0.6374 -0.3038  0.6208
 2241SOL    HW2 7044   2.508   0.157   1.443  0.1055 -0.4680 -1.3778
 2242SOL     OW 7045   1.077   0.585   2.357  0.2761  0.3323 -0.0941
 2242SOL    HW1 7046   0.997   0.570   2.299  0.5090  1.2371 -0.6584
 2242SOL    HW2 7047   1.067   0.670   2.408 -0.2016 -0.7310  1.7030
 2243SOL     OW 7048   2.254   0.232   2.659 -0.3959  0.0423 -0.3801
 2243SOL    HW1 7049   2.167   0.278   2.677 -0.7866 -0.7745 -0.1116
 2243SOL    HW2 7050   2.248   0.182   2.572  0.2441  1.0078 -0.9968
 2244SOL     OW 7051   2.621   5.050   2.151 -0.1319  0.0416  0.0756
 2244SOL    HW1 7052   2.587   5.002   2.232 -0.5561  0.5415  0.1945
 2244SOL    HW2 7053   2.714   5.083   2.169  0.6370 -1.7067 -0.4082
 2245SOL     OW 7054   2.722   1.671   3.801  0.1136  0.4061  0.1479
 2245SOL    HW1 7055   2.761   1.723   3.724  0.2167  1.6436  1.0064
 2245SOL    HW2 7056   2.633   1.710   3.826 -0.9555 -1.3752 -0.7351
 2246SOL     OW 7057   3.212   5.533   2.828  0.0840 -0.3100 -0.1041
 2246SOL    HW1 7058   3.276   5.552   2.902 -1.6590 -1.1534  1.6976
 2246SOL    HW2 7059   3.212   5.435   2.808 -0.6077 -0.3084 -0.1257
 2247SOL     OW 7060   2.018   0.682   2.856  0.5097  0.6662 -0.1972
 2247SOL    HW1 7061   2.075   0.673   2.937 -1.0059 -1.3385  0.7377
 2247SOL    HW2 7062   2.061   0.635   2.779  1.5251  1.8088 -0.3591
 2248SOL     OW 7063   2.638   1.892   2.616  0.2583  0.5855  0.0897
 2248SOL    HW1 7064   2.544   1.897   2.650  0.0791 -0.1958 -0.2686
 2248SOL    HW2 7065   2.669   1.797   2.616  1.4349  0.9319  1.1937
 2249SOL     OW 7066   3.310   0.644   1.900  0.3888  0.1972 -0.0125
 2249SOL    HW1 7067   3.271   0.616   1.988  2.6998 -1.6860  0.4850
 2249SOL    HW2 7068   3.363   0.728   1.913 -0.2173  0.5708  0.1187
 2250SOL     OW 7069   1.407   0.780   4.115  0.5798  0.0368  0.0554
 2250SOL    HW1 7070   1.495   0.812   4.151 -0.0224  3.6886 -1.3333
 2250SOL    HW2 7071   1.346   0.858   4.101 -2.6608 -2.2711  0.1529
 2251SOL     OW 7072   1.582   3.046   3.084  0.1879  0.7706 -0.2261
 2251SOL    HW1 7073   1.650   3.028   3.013 -1.9144 -1.3605 -1.8546
 2251SOL    HW2 7074   1.536   3.133   3.064  1.4822  1.5791  0.1709
 2252SOL     OW 7075   1.774   3.601   1.439  0.4072 -0.0337  0.2459
 2252SOL    HW1 7076   1.818   3.582   1.351 -0.5625 -1.3083  0.0082
 2252SOL    HW2 7077   1.683   3.639   1.423  0.6871  0.8434  0.7140
 2253SOL     OW 7078   3.294   2.444   1.464 -0.4166  0.1799  0.3025
 2253SOL    HW1 7079   3.269   2.457   1.368 -0.3892 -2.0994 -0.0514
 2253SOL    HW2 7080   3.333   2.529   1.499 -0.0179  0.9365 -1.8155
 2254SOL     OW 7081   1.540   5.128   4.007 -0.4177  0.2159 -0.0602
 2254SOL    HW1 7082   1.544   5.153   4.104  1.9094  1.4572 -0.3863
 2254SOL    HW2 7083   1.561   5.031   3.997 -1.4710 -0.1055  0.7144
 2255SOL     OW 7084   3.017   0.405   3.398 -0.3121  0.6528  0.5530
 2255SOL    HW1 7085   2.988   0.315   3.366  0.5916  0.8611 -0.9514
 2255SOL    HW2 7086   3.114   0.402   3.421  0.1274  1.5751 -1.0126
 2256SOL     OW 7087   2.812   1.532   3.289  0.1409  0.2389 -0.7152
 2256SOL    HW1 7088   2.866   1.607   3.251  1.1680  0.8605  1.7287
 2256SOL    HW2 7089   2.872   1.455   3.308  0.2920  0.9035  1.9477
 2257SOL     OW 7090   1.500   1.144   3.929  0.0304  0.6545 -0.3430
 2257SOL    HW1 7091   1.556   1.069   3.893  0.5797  1.1537 -0.5608
 2257SOL    HW2 7092   1.423   1.107   3.981  0.6473 -0.0524  0.0926
 2258SOL     OW 7093   2.931   0.955   2.465 -0.0004  0.1564  0.2144
 2258SOL    HW1 7094   2.979   0.972   2.378 -0.9191 -2.1501 -0.8222
 2258SOL    HW2 7095   2.835   0.981   2.456  0.2469  1.5204  1.1592
 2259SOL     OW 7096   2.754   0.589   4.525  0.1346 -0.4578 -0.0809
 2259SOL    HW1 7097   2.741   0.494   4.553 -0.3774 -1.1320 -2.4770
 2259SOL    HW2 7098   2.676   0.620   4.471 -1.0861  2.3118  2.9014
 2260SOL     OW 7099   3.998   4.695   2.162  0.2161  0.2702 -0.4069
 2260SOL    HW1 7100   3.913   4.700   2.214 -0.4405 -1.6142 -1.2083
 2260SOL    HW2 7101   4.039   4.604   2.173  1.2029  0.5671 -1.4247
 2261SOL     OW 7102   1.459   0.769   0.043 -0.2097  0.0757 -0.1272
 2261SOL    HW1 7103   1.558   0.758   0.051 -0.2244  1.3284  3.2477
 2261SOL    HW2 7104   1.413   0.694   0.089 -0.7594  0.7052  0.3683
 2262SOL     OW 7105   1.487   3.111   1.858 -0.3933  0.0120 -0.9657
 2262SOL    HW1 7106   1.465   3.018   1.888 -0.2274  0.4347  0.5735
 2262SOL    HW2 7107   1.586   3.119   1.847 -0.2683  0.3801  0.3113
 2263SOL     OW 7108   2.746   1.275   2.905 -0.5076 -0.2737  0.0518
 2263SOL    HW1 7109   2.840   1.307   2.920 -1.1236  2.3305 -1.0866
 2263SOL    HW2 7110   2.693   1.286   2.989 -0.6110  1.5067 -0.2170
 2264SOL     OW 7111   3.690   1.441   3.052 -0.4655 -0.0753 -0.0196
 2264SOL    HW1 7112   3.684   1.351   3.095 -1.4489 -0.1836 -0.3468
 2264SOL    HW2 7113   3.731   1.506   3.116 -0.5576 -0.5607  0.5438
 2265SOL     OW 7114   3.640   0.712   3.012  0.0058  0.3872 -0.2787
 2265SOL    HW1 7115   3.733   0.730   2.982 -0.0379  0.0326 -0.6388
 2265SOL    HW2 7116   3.608   0.625   2.972 -0.3612  0.3452  0.0953
 2266SOL     OW 7117   3.385   0.052   3.048  0.2642 -0.2723  0.6393
 2266SOL    HW1 7118   3.360   0.034   3.143  1.3953 -1.3954  0.7659
 2266SOL    HW2 7119   3.478   0.017   3.032 -0.0477 -0.4194 -0.9657
 2267SOL     OW 7120   1.866   0.618   1.605 -0.9304 -0.0465  0.2910
 2267SOL    HW1 7121   1.856   0.604   1.507  0.9494 -0.5674  0.1379
 2267SOL    HW2 7122   1.879   0.530   1.650  2.5283  0.3591  0.3949
 2268SOL     OW 7123   2.297   1.185   1.924 -0.1818  0.6061  0.4921
 2268SOL    HW1 7124   2.344   1.208   1.839 -0.7120  1.1043  0.3238
 2268SOL    HW2 7125   2.290   1.086   1.932  1.4583  0.4921  0.8491
 2269SOL     OW 7126   3.320   0.335   1.703  0.0702 -0.2630 -0.0142
 2269SOL    HW1 7127   3.386   0.260   1.705 -0.4690 -0.7632 -0.8131
 2269SOL    HW2 7128   3.369   0.421   1.720  0.5179 -0.8750  2.0733
 2270SOL     OW 7129   1.850   4.828   2.415  0.6131 -0.4045  0.6296
 2270SOL    HW1 7130   1.842   4.746   2.471  2.0731 -0.2527  1.0936
 2270SOL    HW2 7131   1.911   4.893   2.459  0.0492  0.6484 -0.0829
 2271SOL     OW 7132   1.491   1.575   1.826  0.4486  0.1226  0.5806
 2271SOL    HW1 7133   1.487   1.555   1.728  1.6535  0.0214  0.5374
 2271SOL    HW2 7134   1.400   1.561   1.866 -0.5713  2.0330 -0.8675
 2272SOL     OW 7135   4.957   1.411   3.845  0.0936 -0.3096  0.3893
 2272SOL    HW1 7136   4.986   1.371   3.758  1.1179  0.5671  0.3082
 2272SOL    HW2 7137   5.037   1.448   3.892 -0.5074 -0.4643  1.5439
 2273SOL     OW 7138   1.488   0.361   2.374  0.2375  0.6232 -0.0282
 2273SOL    HW1 7139   1.468   0.280   2.319 -1.9239  0.0656  1.4871
 2273SOL    HW2 7140   1.495   0.335   2.470  1.6534  1.9463  0.2721
 2274SOL     OW 7141   1.921   2.068   3.200  0.6475 -0.4793 -0.3921
 2274SOL    HW1 7142   1.872   2.150   3.231  0.9751 -0.3326 -0.2547
 2274SOL    HW2 7143   1.941   2.010   3.280 -0.7844 -1.3756 -0.6282
 2275SOL     OW 7144   1.023   0.536   3.194 -0.6840 -0.7243  0.7825
 2275SOL    HW1 7145   1.092   0.490   3.248 -2.2839 -2.2204  1.6685
 2275SOL    HW2 7146   1.063   0.615   3.148  1.3658 -1.0378  1.9224
 2276SOL     OW 7147   1.657   1.055   2.943 -0.9421  0.5143 -0.1875
 2276SOL    HW1 7148   1.658   1.139   2.889 -1.0504  0.7729  0.2152
 2276SOL    HW2 7149   1.748   1.040   2.983 -1.3430  1.2902  1.0542
 2277SOL     OW 7150   0.352   1.431   2.815  0.1642 -0.1588  0.1631
 2277SOL    HW1 7151   0.334   1.394   2.906  0.8987  0.9734  0.7791
 2277SOL    HW2 7152   0.428   1.495   2.818 -0.2359  0.4288 -1.1214
 2278SOL     OW 7153   2.166   1.704   1.044 -0.0939  0.1885 -0.5519
 2278SOL    HW1 7154   2.105   1.770   1.089 -1.0043 -1.5441  0.8691
 2278SOL    HW2 7155   2.111   1.639   0.992  0.6354 -0.6080 -0.3442
 2279SOL     OW 7156   1.836   2.569   1.875  0.2885 -0.5320  0.1405
 2279SOL    HW1 7157   1.871   2.616   1.956 -1.7787  1.0148  0.2192
 2279SOL    HW2 7158   1.870   2.614   1.793  2.7520 -2.3738  0.0340
 2280SOL     OW 7159   2.700   1.763   2.910  0.4681  0.1186 -0.5334
 2280SOL    HW1 7160   2.698   1.725   2.817 -1.7075  1.3907 -1.0758
 2280SOL    HW2 7161   2.794   1.788   2.934  1.7875 -3.8722 -0.7705
 2281SOL     OW 7162   2.689   0.560   2.261  0.1895 -0.3217  0.3660
 2281SOL    HW1 7163   2.605   0.613   2.246  0.9489  0.9263  0.3911
 2281SOL    HW2 7164   2.693   0.529   2.356 -0.6721 -1.1794  0.1366
 2282SOL     OW 7165   4.734   1.892   1.738  0.7570 -0.4904  0.1757
 2282SOL    HW1 7166   4.696   1.814   1.787 -0.2638 -0.0334  0.1219
 2282SOL    HW2 7167   4.677   1.972   1.753  0.4161 -0.3268 -1.7272
 2283SOL     OW 7168   3.219   1.633   3.900  0.1002  0.3957 -1.3209
 2283SOL    HW1 7169   3.171   1.672   3.979 -0.5212 -1.1272 -0.9053
 2283SOL    HW2 7170   3.157   1.628   3.822 -0.3791 -1.2544 -0.8829
 2284SOL     OW 7171   0.734   0.189   3.074 -0.3398  0.1517 -0.3882
 2284SOL    HW1 7172   0.635   0.199   3.066 -0.4672  0.7944  1.5381
 2284SOL    HW2 7173   0.756   0.106   3.125 -0.1094  1.9296  2.6432
 2285SOL     OW 7174   3.178   1.022   2.317  0.4221  0.4501 -0.6070
 2285SOL    HW1 7175   3.233   0.940   2.303 -0.0897 -0.5071  2.2550
 2285SOL    HW2 7176   3.230   1.087   2.373 -0.3589  0.6692 -0.1259
 2286SOL     OW 7177   3.039   1.151   2.639  0.3900  0.4273  0.3364
 2286SOL    HW1 7178   2.985   1.094   2.577  0.5011  0.2947  0.3613
 2286SOL    HW2 7179   3.136   1.129   2.629  0.4314  0.6037  0.3546
 2287SOL     OW 7180   1.486   0.863   3.320 -0.1461 -0.0861  0.0157
 2287SOL    HW1 7181   1.462   0.878   3.416 -1.4477 -0.3234 -0.2547
 2287SOL    HW2 7182   1.403   0.859   3.265  0.5726 -0.1878 -1.0981
 2288SOL     OW 7183   3.011   5.268   4.176 -0.5693  0.2070  0.0385
 2288SOL    HW1 7184   2.936   5.219   4.133 -0.3393  0.3941 -0.5880
 2288SOL    HW2 7185   3.004   5.365   4.155 -1.1469  0.4937  1.4595
 2289SOL     OW 7186   1.999   1.249   0.845 -0.2322 -0.2822 -0.3158
 2289SOL    HW1 7187   2.090   1.209   0.855 -0.9301 -1.9047 -0.2624
 2289SOL    HW2 7188   1.933   1.196   0.898 -1.3383  0.4274 -0.9477
 2290SOL     OW 7189   3.653   0.660   4.254  0.5083 -0.1690  0.3643
 2290SOL    HW1 7190   3.681   0.618   4.340  0.3399  1.9566  1.5224
 2290SOL    HW2 7191   3.672   0.759   4.257 -0.9597  0.2251 -1.4188
 2291SOL     OW 7192   3.987   1.337   3.603  0.1495  0.5867 -0.2924
 2291SOL    HW1 7193   3.890   1.355   3.615  0.0234  0.9455 -1.6430
 2291SOL    HW2 7194   4.038   1.423   3.607  0.0313  0.8360 -2.5568
 2292SOL     OW 7195   2.673   0.491   2.567  0.4239  0.0799  0.1180
 2292SOL    HW1 7196   2.699   0.534   2.653  0.4236  0.2751  0.0211
 2292SOL    HW2 7197   2.576   0.464   2.571  1.2800 -3.3815  1.6310
 2293SOL     OW 7198   4.071   2.222   5.510  0.0502  0.0801 -0.3197
 2293SOL    HW1 7199   4.015   2.304   5.523  0.5071  0.2595  0.6154
 2293SOL    HW2 7200   4.020   2.155   5.456 -0.5130  0.7896 -0.6925
 2294SOL     OW 7201   1.223   0.854   2.261  0.4240 -0.1164  0.2961
 2294SOL    HW1 7202   1.265   0.834   2.173 -1.2991 -1.5415 -0.2627
 2294SOL    HW2 7203   1.294   0.872   2.329  1.8499 -0.9853 -0.9160
 2295SOL     OW 7204   1.441   1.613   0.867  0.2926  0.4086  0.6857
 2295SOL    HW1 7205   1.431   1.711   0.884 -0.4808  0.8729 -2.0194
 2295SOL    HW2 7206   1.360   1.564   0.900  0.3649  0.7554  1.3937
 2296SOL     OW 7207   2.280   1.534   1.231  0.3639  0.1252 -0.0299
 2296SOL    HW1 7208   2.229   1.604   1.180 -0.0955  0.0684  0.3401
 2296SOL    HW2 7209   2.216   1.469   1.271  0.8645 -2.0110 -2.4305
 2297SOL     OW 7210   2.272   0.853   3.229  0.0387  0.5180 -0.0344
 2297SOL    HW1 7211   2.192   0.893   3.274  0.3794  2.2164 -0.8537
 2297SOL    HW2 7212   2.301   0.771   3.279 -1.2220  0.7940  1.2120
 2298SOL     OW 7213   0.663   5.294   4.124 -0.4948  0.3414 -0.4194
 2298SOL    HW1 7214   0.613   5.209   4.112  1.8009 -0.7607 -3.3031
 2298SOL    HW2 7215   0.640   5.357   4.049  1.6438  0.1516 -1.2895
 2299SOL     OW 7216   1.533   3.276   2.910  0.7772  0.4253  0.2121
 2299SOL    HW1 7217   1.433   3.283   2.913  0.7736  0.0167  2.7278
 2299SOL    HW2 7218   1.560   3.223   2.829 -1.0531  0.1003 -0.2346
 2300SOL     OW 7219   0.764   0.448   3.220  0.2901  0.1701  0.1265
 2300SOL    HW1 7220   0.859   0.480   3.211  0.6723 -0.2531  2.1429
 2300SOL    HW2 7221   0.752   0.364   3.167  0.6196  1.0034 -1.3124
 2301SOL     OW 7222   0.980   1.788   2.977  0.6460  0.2385  0.3914
 2301SOL    HW1 7223   1.021   1.698   2.960 -0.2651 -0.2358  0.6593
 2301SOL    HW2 7224   0.935   1.788   3.066  0.8302  1.0365  0.4925
 2302SOL     OW 7225   3.635   1.336   5.432 -0.4707  0.2090 -0.5362
 2302SOL    HW1 7226   3.549   1.317   5.481 -0.2808 -0.1238 -0.3237
 2302SOL    HW2 7227   3.630   1.426   5.391 -1.0281  0.0906 -0.7460
 2303SOL     OW 7228   2.312   1.338   2.584  0.0923  0.1801  0.0474
 2303SOL    HW1 7229   2.365   1.253   2.578  1.5140  1.0002  0.6283
 2303SOL    HW2 7230   2.249   1.343   2.506  1.4077 -0.4601 -1.1116
 2304SOL     OW 7231   1.931   0.909   2.987 -0.0893 -0.1487 -0.2533
 2304SOL    HW1 7232   1.875   0.895   3.069  0.5618  0.0979  0.2403
 2304SOL    HW2 7233   1.970   0.821   2.959  0.4661 -0.0757  0.2742
 2305SOL     OW 7234   3.070   4.736   3.923 -0.5516 -0.2151  0.4118
 2305SOL    HW1 7235   3.064   4.636   3.920  1.3507 -0.3249 -1.1023
 2305SOL    HW2 7236   3.082   4.765   4.018  1.5984 -1.6440  0.6469
 2306SOL     OW 7237   2.325   0.803   2.460  0.2527  0.5729  0.2230
 2306SOL    HW1 7238   2.262   0.760   2.525 -0.0097 -0.4522 -0.6990
 2306SOL    HW2 7239   2.285   0.889   2.428 -0.2953  0.3522  0.2921
 2307SOL     OW 7240   2.710   0.576   0.356  0.5974 -0.6297  0.4708
 2307SOL    HW1 7241   2.719   0.675   0.362  1.0507 -0.5704 -0.8692
 2307SOL    HW2 7242   2.786   0.533   0.404 -1.1564 -0.4325  3.6669
 2308SOL     OW 7243   1.066   1.538   2.227  0.8621 -0.1581  0.8077
 2308SOL    HW1 7244   1.057   1.455   2.280 -2.4280  0.3014  1.1936
 2308SOL    HW2 7245   1.060   1.618   2.287  0.1056  0.3527  0.0846
 2309SOL     OW 7246   2.567   0.281   3.356 -0.2238 -0.0497  0.2176
 2309SOL    HW1 7247   2.559   0.370   3.312 -1.2486 -1.2306 -2.1659
 2309SOL    HW2 7248   2.479   0.256   3.396  0.3699  0.4555  1.9513
 2310SOL     OW 7249   0.942   0.961   2.797 -0.1970 -0.0626 -0.4908
 2310SOL    HW1 7250   0.980   1.051   2.776 -1.6261  0.1388 -2.5086
 2310SOL    HW2 7251   1.000   0.890   2.758  0.2220  0.0352 -0.0540
 2311SOL     OW 7252   1.866   0.491   1.983  0.6107 -0.0007 -0.5183
 2311SOL    HW1 7253   1.775   0.451   1.970  0.2105  1.3445 -2.2151
 2311SOL    HW2 7254   1.867   0.542   2.069 -1.2909  2.4591 -1.8220
 2312SOL     OW 7255   2.068   0.203   4.568 -0.5562 -0.0887 -0.6812
 2312SOL    HW1 7256   1.983   0.177   4.523 -0.6324  0.0416 -0.6143
 2312SOL    HW2 7257   2.067   0.169   4.662  0.3675 -1.9255 -1.2943
 2313SOL     OW 7258   3.890   5.287   0.665 -0.7138 -0.5722  0.5009
 2313SOL    HW1 7259   3.826   5.362   0.651 -1.2267 -0.8703  1.2023
 2313SOL    HW2 7260   3.934   5.296   0.754 -0.8601 -1.1665  0.6358
 2314SOL     OW 7261   2.687   1.242   1.285 -0.0186  0.2664 -0.4236
 2314SOL    HW1 7262   2.750   1.318   1.299  1.2291 -0.6031 -1.1531
 2314SOL    HW2 7263   2.623   1.265   1.212  0.9360  0.2857 -1.2782
 2315SOL     OW 7264   4.695   1.913   4.271 -0.1975  0.1280 -0.1968
 2315SOL    HW1 7265   4.655   1.991   4.223  0.2268  1.2940  1.2714
 2315SOL    HW2 7266   4.643   1.894   4.355  1.0592  0.3358  0.6580
 2316SOL     OW 7267   1.791   3.912   2.337  0.7342  0.5361  0.1346
 2316SOL    HW1 7268   1.850   3.972   2.283  0.5804 -0.5185 -1.2425
 2316SOL    HW2 7269   1.743   3.849   2.277  0.4190 -0.5627  1.4937
 2317SOL     OW 7270   2.456   1.128   2.550  0.4976  0.3426 -0.1937
 2317SOL    HW1 7271   2.470   1.036   2.589  1.6879  0.1318 -1.0540
 2317SOL    HW2 7272   2.443   1.121   2.451  1.9422  1.1729 -0.4720
 2318SOL     OW 7273   4.239   0.560   4.514 -0.0315  0.1176  0.2352
 2318SOL    HW1 7274   4.144   0.582   4.534 -0.1628 -1.2079  1.1763
 2318SOL    HW2 7275   4.250   0.549   4.415 -0.8581  0.2084  0.1217
 2319SOL     OW 7276   4.399   1.837   3.965 -0.1809 -0.3005 -0.1765
 2319SOL    HW1 7277   4.469   1.785   4.014 -0.0948 -1.1978 -1.2307
 2319SOL    HW2 7278   4.435   1.867   3.877 -0.8263  0.0065 -0.3429
 2320SOL     OW 7279   3.631   1.381   1.533  0.0196  0.3598 -0.0336
 2320SOL    HW1 7280   3.670   1.469   1.508 -1.4509  1.2415  0.6114
 2320SOL    HW2 7281   3.672   1.348   1.618 -0.2442  1.0020  0.3460
 2321SOL     OW 7282   4.167   3.047   2.910 -0.7315  0.2241  0.3086
 2321SOL    HW1 7283   4.088   3.072   2.967 -1.2754  1.1840 -0.8321
 2321SOL    HW2 7284   4.192   2.952   2.929 -3.4766 -0.8150 -0.7719
 2322SOL     OW 7285   1.075   1.284   2.406  0.3203 -0.1707  0.2884
 2322SOL    HW1 7286   1.047   1.190   2.426 -0.5589  0.4174  2.1044
 2322SOL    HW2 7287   1.161   1.303   2.454  1.0072 -0.3187 -0.8586
 2323SOL     OW 7288   3.923   0.757   3.673  0.3157  0.3633 -0.3517
 2323SOL    HW1 7289   3.873   0.690   3.618  2.4414  0.9687 -3.2440
 2323SOL    HW2 7290   3.858   0.811   3.726 -1.6319 -2.3012  0.2107
 2324SOL     OW 7291   2.734   4.168   1.571  0.3011 -0.1271 -0.0283
 2324SOL    HW1 7292   2.710   4.105   1.646  0.5431 -0.4180 -0.1940
 2324SOL    HW2 7293   2.808   4.228   1.600 -0.0102  0.1636  0.1715
 2325SOL     OW 7294   2.529   1.244   3.203 -0.5629 -0.2136 -0.3367
 2325SOL    HW1 7295   2.493   1.337   3.205  0.4637  0.3185 -2.8774
 2325SOL    HW2 7296   2.455   1.180   3.179 -0.8380  0.2234 -0.6650
 2326SOL     OW 7297   2.962   1.263   0.829  0.6440 -0.1283 -0.0075
 2326SOL    HW1 7298   3.049   1.249   0.877  0.0229  0.1852  1.2342
 2326SOL    HW2 7299   2.889   1.217   0.878  0.0007  0.1383 -0.7015
 2327SOL     OW 7300   4.088   0.498   0.043  0.8059 -0.2671  0.1122
 2327SOL    HW1 7301   4.063   0.590   0.074  2.2519  0.2853 -0.3037
 2327SOL    HW2 7302   4.006   0.441   0.039 -0.1799  1.1136 -0.0126
 2328SOL     OW 7303   3.863   2.043   3.715 -0.9603  0.0608 -0.6788
 2328SOL    HW1 7304   3.776   2.004   3.686 -0.7470  0.3615 -1.8054
 2328SOL    HW2 7305   3.912   2.077   3.634  0.7985 -1.3012 -0.2634
 2329SOL     OW 7306   2.130   1.563   2.494  0.3805 -0.6342 -0.2054
 2329SOL    HW1 7307   2.086   1.482   2.535 -2.2819 -0.7834 -2.9543
 2329SOL    HW2 7308   2.206   1.592   2.552 -2.7275 -0.9105  4.6518
 2330SOL     OW 7309   2.640   0.572   3.876 -0.4570 -0.4763 -0.0406
 2330SOL    HW1 7310   2.731   0.598   3.843  0.2066 -0.8709  1.4170
 2330SOL    HW2 7311   2.639   0.571   3.976 -3.3103  4.1486  0.2750
 2331SOL     OW 7312   1.716   0.854   3.191  0.1251 -0.3038 -0.2981
 2331SOL    HW1 7313   1.627   0.870   3.233 -0.9448 -1.1662 -2.1300
 2331SOL    HW2 7314   1.744   0.759   3.208  0.9714  0.0848  0.6666
 2332SOL     OW 7315   1.372   2.151   1.666 -0.1425 -0.2799  0.0730
 2332SOL    HW1 7316   1.288   2.104   1.692  0.0660 -2.0489 -2.1192
 2332SOL    HW2 7317   1.356   2.205   1.583  1.1291 -1.7631 -1.2117
 2333SOL     OW 7318   2.138   0.628   3.092  0.0769 -0.1848  0.1945
 2333SOL    HW1 7319   2.191   0.543   3.094 -0.3058 -0.6135 -2.9222
 2333SOL    HW2 7320   2.199   0.706   3.095  0.5486 -0.5701  1.1783
 2334SOL     OW 7321   4.498   2.020   3.220  0.1729  0.4057 -0.4670
 2334SOL    HW1 7322   4.494   2.107   3.269  0.8025 -1.0792  2.4611
 2334SOL    HW2 7323   4.452   1.949   3.275 -0.2398 -1.1519 -2.7112
 2335SOL     OW 7324   2.735   1.266   2.389 -0.0807 -0.1915 -0.0989
 2335SOL    HW1 7325   2.701   1.172   2.396 -0.7970  0.0863  0.1747
 2335SOL    HW2 7326   2.739   1.307   2.481 -0.6593  0.3574 -0.3141
 2336SOL     OW 7327   2.354   1.611   3.775 -0.6639  0.3038 -0.0163
 2336SOL    HW1 7328   2.280   1.589   3.838 -0.2385  0.3946  0.5257
 2336SOL    HW2 7329   2.407   1.688   3.811 -0.8426  0.8265 -0.8412
 2337SOL     OW 7330   1.990   5.048   3.144  0.4410 -0.1217  0.6226
 2337SOL    HW1 7331   2.024   4.961   3.179  1.9415 -0.5481 -1.7043
 2337SOL    HW2 7332   2.044   5.077   3.065 -1.3580  1.8761 -0.0025
 2338SOL     OW 7333   2.272   4.901   2.886 -0.4405 -0.2854  0.0927
 2338SOL    HW1 7334   2.231   4.990   2.903 -1.2416 -0.5904 -0.1764
 2338SOL    HW2 7335   2.327   4.874   2.966 -1.1370 -0.0666  0.6581
 2339SOL     OW 7336   2.704   0.942   3.891  0.1221 -0.2580 -0.5710
 2339SOL    HW1 7337   2.624   0.962   3.947 -0.0901 -2.1684 -0.1142
 2339SOL    HW2 7338   2.787   0.967   3.940 -0.1436  0.7965 -0.6375
 2340SOL     OW 7339   1.089   5.284   1.864 -0.5793 -0.3885 -0.0114
 2340SOL    HW1 7340   1.108   5.364   1.808 -0.8459 -0.1338  0.2597
 2340SOL    HW2 7341   1.153   5.211   1.841  0.1992  0.1785  0.3218
 2341SOL     OW 7342   2.846   0.802   1.770 -0.2877 -0.1691 -0.1378
 2341SOL    HW1 7343   2.855   0.883   1.713 -0.6509 -0.3029 -0.3848
 2341SOL    HW2 7344   2.909   0.731   1.738  0.1430  0.0699  0.1758
 2342SOL     OW 7345   1.665   1.444   3.751 -0.5238 -0.2594 -0.4926
 2342SOL    HW1 7346   1.746   1.427   3.808 -0.9519 -0.2269  0.1319
 2342SOL    HW2 7347   1.584   1.404   3.795 -1.2105  1.5365 -0.0416
 2343SOL     OW 7348   1.445   0.347   1.163 -0.1087 -0.8917  0.3366
 2343SOL    HW1 7349   1.437   0.311   1.070  0.0367  1.6993 -0.7517
 2343SOL    HW2 7350   1.541   0.343   1.192  0.1328 -0.1349 -0.3271
 2344SOL     OW 7351   0.466   5.535   3.124 -0.7449 -0.3218  0.5932
 2344SOL    HW1 7352   0.406   5.592   3.179 -1.6509 -1.6196  0.9992
 2344SOL    HW2 7353   0.551   5.518   3.174 -0.9902 -0.3538  1.0056
 2345SOL     OW 7354   3.555   1.095   4.665 -0.0893 -0.1988 -0.0636
 2345SOL    HW1 7355   3.547   1.172   4.602 -0.4286  0.1729  0.4300
 2345SOL    HW2 7356   3.578   1.128   4.756 -0.1786 -0.6878  0.1404
 2346SOL     OW 7357   4.005   0.691   4.625  1.1759 -0.8705  0.1376
 2346SOL    HW1 7358   3.915   0.664   4.661  0.1407 -0.3433 -1.8831
 2346SOL    HW2 7359   4.048   0.756   4.687 -0.1637 -0.5737  0.7914
 2347SOL     OW 7360   3.686   5.026   4.710 -0.4897 -0.4273 -0.2222
 2347SOL    HW1 7361   3.776   5.020   4.666 -0.2811 -0.9166  0.2572
 2347SOL    HW2 7362   3.692   4.988   4.803 -0.5837  1.8046  0.7666
 2348SOL     OW 7363   3.841   0.517   3.525 -0.1654 -0.3297  0.0901
 2348SOL    HW1 7364   3.786   0.484   3.448  0.0548 -0.3020 -0.0781
 2348SOL    HW2 7365   3.846   0.446   3.595  2.0450 -1.5078 -1.1502
 2349SOL     OW 7366   2.641   3.959   0.855  0.1475  0.2660 -0.1061
 2349SOL    HW1 7367   2.710   4.030   0.871  1.2022 -0.8361  0.4190
 2349SOL    HW2 7368   2.687   3.873   0.831 -0.9580 -0.8891  1.6686
 2350SOL     OW 7369   1.893  -0.004   0.655  0.3573 -0.3030  0.7543
 2350SOL    HW1 7370   1.845   0.061   0.597  0.6816 -0.6420  0.0879
 2350SOL    HW2 7371   1.959  -0.055   0.599  0.0686 -1.2357  1.2523
 2351SOL     OW 7372   0.744   2.682   5.025  0.5660 -0.1895  0.3569
 2351SOL    HW1 7373   0.676   2.755   5.017  0.6641  0.2508  2.8395
 2351SOL    HW2 7374   0.727   2.630   5.109  1.2228 -2.2999 -0.7523
 2352SOL     OW 7375   3.192   2.511   4.994  0.2881 -0.1771 -0.2239
 2352SOL    HW1 7376   3.289   2.514   5.020  0.1831  0.7334  0.0999
 2352SOL    HW2 7377   3.162   2.603   4.969 -0.5875 -0.3908  0.0178
 2353SOL     OW 7378   5.257   0.711   4.482 -0.0069 -0.1846 -0.4089
 2353SOL    HW1 7379   5.309   0.726   4.398  0.4299 -0.9899 -0.2905
 2353SOL    HW2 7380   5.218   0.619   4.482 -0.4438 -0.0039  0.0390
 2354SOL     OW 7381   1.417   5.262   3.477 -0.0123 -0.2138 -0.2049
 2354SOL    HW1 7382   1.437   5.249   3.574 -0.8241  0.8757  0.1310
 2354SOL    HW2 7383   1.328   5.223   3.456  0.0057 -0.1368 -0.4244
 2355SOL     OW 7384   0.565   0.615   0.098  0.4539  0.0713  0.2185
 2355SOL    HW1 7385   0.631   0.540   0.096  1.5415  1.0083 -0.6519
 2355SOL    HW2 7386   0.482   0.585   0.145  1.8003 -0.8851  2.1282
 2356SOL     OW 7387   4.662   1.686   0.125 -0.5593  0.4013  0.7939
 2356SOL    HW1 7388   4.597   1.706   0.199 -1.3061 -0.0758  0.2771
 2356SOL    HW2 7389   4.722   1.611   0.153 -1.1322 -0.0778  0.7516
 2357SOL     OW 7390   2.106   3.821   4.501 -0.4259  0.6814  0.2769
 2357SOL    HW1 7391   2.040   3.857   4.434 -2.1395 -1.8021  0.4961
 2357SOL    HW2 7392   2.170   3.760   4.455  0.4020  1.4234  0.4250
 2358SOL     OW 7393   1.920   1.537   1.383 -0.1225 -0.1808  0.3314
 2358SOL    HW1 7394   2.008   1.491   1.399  0.6366  1.2465  0.4335
 2358SOL    HW2 7395   1.853   1.470   1.352  0.6607 -1.5304  1.3980
 2359SOL     OW 7396   3.272   0.516   3.509 -0.0785 -0.3979 -0.1068
 2359SOL    HW1 7397   3.305   0.575   3.583 -0.0667 -0.0805 -0.3672
 2359SOL    HW2 7398   3.342   0.510   3.438 -1.0607  1.3353 -1.2899
 2360SOL     OW 7399   2.462   0.530   0.742 -0.4185 -0.1547 -0.2314
 2360SOL    HW1 7400   2.476   0.558   0.837  2.2440 -0.7314 -0.3633
 2360SOL    HW2 7401   2.476   0.609   0.682 -0.9355 -0.0482 -0.2172
 2361SOL     OW 7402   1.304   1.050   4.091 -0.5110  0.2518  0.2075
 2361SOL    HW1 7403   1.212   1.060   4.052 -0.5521 -1.2581 -0.1795
 2361SOL    HW2 7404   1.306   1.088   4.183 -1.3052  1.0012 -0.0688
 2362SOL     OW 7405   0.866   0.208   3.468 -0.5408  0.0814  0.6324
 2362SOL    HW1 7406   0.952   0.215   3.417 -1.2202  1.1527 -0.4142
 2362SOL    HW2 7407   0.800   0.156   3.414 -0.4304 -1.1726  1.6464
 2363SOL     OW 7408   3.770   0.352   4.997  0.4479  0.0094 -0.0795
 2363SOL    HW1 7409   3.781   0.383   5.092  1.1119  0.7243 -0.3775
 2363SOL    HW2 7410   3.685   0.390   4.960 -0.7385 -1.6843  0.7482
 2364SOL     OW 7411   1.150   1.180   5.062  0.0194  0.2328  0.2893
 2364SOL    HW1 7412   1.191   1.091   5.040 -1.1816 -0.3151  0.2093
 2364SOL    HW2 7413   1.184   1.249   4.998  0.1408 -0.3905 -0.3348
 2365SOL     OW 7414   3.919   1.091   4.969  0.2551  0.1814  0.0500
 2365SOL    HW1 7415   3.974   1.139   4.900 -1.9547  0.3839 -1.6832
 2365SOL    HW2 7416   3.898   0.999   4.936 -1.5693  0.5817 -0.0307
 2366SOL     OW 7417   1.313   1.153   3.606  0.6296 -0.7654  0.1429
 2366SOL    HW1 7418   1.341   1.227   3.667 -0.3824  0.2495 -0.5948
 2366SOL    HW2 7419   1.224   1.117   3.636  0.3327 -0.5547 -0.4826
 2367SOL     OW 7420   4.453   1.707   4.691 -0.0407  0.4120  0.5035
 2367SOL    HW1 7421   4.500   1.619   4.688  1.0198  0.9830 -0.4079
 2367SOL    HW2 7422   4.357   1.693   4.715 -0.1643 -1.1320 -0.7220
 2368SOL     OW 7423   4.474   0.682   4.620 -0.7860 -0.4086  0.1419
 2368SOL    HW1 7424   4.513   0.611   4.677 -2.2862 -0.6637  0.9024
 2368SOL    HW2 7425   4.375   0.669   4.614 -0.9164  0.8472 -0.7885
 2369SOL     OW 7426   0.279   5.413   3.913  0.2177  0.4987 -0.0619
 2369SOL    HW1 7427   0.315   5.320   3.927  0.5053 -0.0161 -3.3043
 2369SOL    HW2 7428   0.353   5.474   3.887 -0.2430  1.1503  0.1343
 2370SOL     OW 7429   1.681   0.314   5.195  0.1130 -0.1934 -0.1314
 2370SOL    HW1 7430   1.679   0.368   5.279  1.2034  2.6395 -1.7538
 2370SOL    HW2 7431   1.601   0.336   5.139  1.2903  0.9825 -1.4479
 2371SOL     OW 7432   3.237   5.384   0.843 -0.4668  0.0248  0.1061
 2371SOL    HW1 7433   3.267   5.395   0.938 -1.9335  0.7037  0.5261
 2371SOL    HW2 7434   3.306   5.420   0.781  0.3883 -0.1719  0.9251
 2372SOL     OW 7435   3.327   1.360   3.844  0.0323  0.4378 -0.1603
 2372SOL    HW1 7436   3.289   1.442   3.886  0.6944  1.2207 -1.0447
 2372SOL    HW2 7437   3.380   1.309   3.913 -1.2284  0.1775  0.6569
 2373SOL     OW 7438   2.511   0.851   5.034 -0.7844 -0.6001  0.3892
 2373SOL    HW1 7439   2.516   0.752   5.017 -1.0497 -0.5304 -0.1305
 2373SOL    HW2 7440   2.453   0.868   5.113 -1.8113 -0.8033 -0.2993
 2374SOL     OW 7441   3.717   0.102   3.422  0.2380 -0.2022  0.6600
 2374SOL    HW1 7442   3.635   0.124   3.475 -0.0103  2.4813 -0.6995
 2374SOL    HW2 7443   3.700   0.020   3.367 -0.9485 -0.5911  1.5587
 2375SOL     OW 7444   2.732   3.190   5.368 -0.0859 -0.6306 -0.9650
 2375SOL    HW1 7445   2.707   3.237   5.452 -1.8140 -2.0231 -0.6485
 2375SOL    HW2 7446   2.693   3.098   5.368 -1.3439 -0.2209 -3.8798
 2376SOL     OW 7447   2.965   4.996   5.478  0.4539  0.2415 -0.6777
 2376SOL    HW1 7448   2.996   4.948   5.396 -0.4190  1.5386 -1.8173
 2376SOL    HW2 7449   2.870   5.025   5.466  0.5094  1.0096  0.5363
 2377SOL     OW 7450   4.521   1.516   0.413 -0.6867 -0.1418 -0.1027
 2377SOL    HW1 7451   4.438   1.462   0.429 -0.8081  0.0287 -0.1387
 2377SOL    HW2 7452   4.496   1.599   0.362 -0.4643 -0.1804 -0.2757
 2378SOL     OW 7453   4.377   4.078   5.474  0.7704  0.6175 -0.4299
 2378SOL    HW1 7454   4.364   4.165   5.522  0.1234  0.5891 -0.5374
 2378SOL    HW2 7455   4.326   4.080   5.388 -1.0189 -0.6441  0.5430
 2379SOL     OW 7456   3.505   0.530   0.376 -0.5181  0.3652  0.0389
 2379SOL    HW1 7457   3.489   0.569   0.467  2.0000  0.5477  0.4811
 2379SOL    HW2 7458   3.432   0.466   0.354 -1.3781  0.5764  2.0429
 2380SOL     OW 7459   2.107   5.376   4.761  0.0371 -0.0901 -0.1649
 2380SOL    HW1 7460   2.092   5.280   4.739 -1.3170  0.2909 -1.0088
 2380SOL    HW2 7461   2.125   5.385   4.859 -2.5577 -0.9628  0.4685
 2381SOL     OW 7462   3.154   1.543   3.516  0.1961  0.1925  0.0050
 2381SOL    HW1 7463   3.128   1.480   3.443 -0.1573  0.6490 -0.2719
 2381SOL    HW2 7464   3.106   1.518   3.600  0.9616 -0.6208  0.2127
 2382SOL     OW 7465   2.545   1.175   3.485 -0.1701  0.3034  0.3213
 2382SOL    HW1 7466   2.611   1.099   3.484 -0.3346  0.1290  1.5302
 2382SOL    HW2 7467   2.546   1.220   3.396  2.7119  1.2554  0.7118
 2383SOL     OW 7468   3.985   1.184   0.518 -0.2555 -0.0711  0.4944
 2383SOL    HW1 7469   3.944   1.272   0.543 -0.0479  0.0027  0.5792
 2383SOL    HW2 7470   3.936   1.110   0.564  0.0567  0.0586  1.0474
 2384SOL     OW 7471   3.096   5.251   5.041  0.2324  0.4941 -0.0983
 2384SOL    HW1 7472   3.188   5.230   5.008 -0.1319  0.4914 -1.1294
 2384SOL    HW2 7473   3.081   5.350   5.038 -0.0885  0.4286 -0.7193
 2385SOL     OW 7474   3.288   0.398   0.288 -0.0476  0.0524  0.2392
 2385SOL    HW1 7475   3.247   0.342   0.359 -2.1780  1.2036  0.0276
 2385SOL    HW2 7476   3.215   0.446   0.238  1.5790  2.2599 -0.1849
 2386SOL     OW 7477   5.103   0.653   5.540 -0.0645  0.3119  0.9612
 2386SOL    HW1 7478   5.073   0.559   5.555 -1.4494  0.7963  1.3022
 2386SOL    HW2 7479   5.103   0.673   5.442  1.2167 -0.3383  0.8070
 2387SOL     OW 7480   2.815   1.007   4.508 -0.2880  0.1814  0.3939
 2387SOL    HW1 7481   2.818   0.948   4.589 -0.8085  0.7713  0.8625
 2387SOL    HW2 7482   2.739   1.072   4.518 -1.6402 -1.0105 -1.4719
 2388SOL     OW 7483   1.017   5.073   3.563  0.3018  0.3018 -0.4323
 2388SOL    HW1 7484   0.953   5.000   3.539  0.1171  0.8920 -1.8149
 2388SOL    HW2 7485   1.091   5.075   3.497 -0.9921  2.9383 -1.9659
 2389SOL     OW 7486   2.305   4.877   0.970  0.0401  0.1447 -0.2459
 2389SOL    HW1 7487   2.343   4.901   0.880 -0.1128 -0.5070 -0.4852
 2389SOL    HW2 7488   2.359   4.922   1.041 -0.1434  1.0770 -0.6743
 2390SOL     OW 7489   1.990   1.403   2.688 -0.0520  0.4534 -0.2829
 2390SOL    HW1 7490   1.905   1.352   2.697  1.0123 -1.1824  0.9218
 2390SOL    HW2 7491   2.003   1.461   2.768  1.4337 -1.6977  1.1445
 2391SOL     OW 7492   5.086   0.487   5.289 -0.3603  0.1420 -0.3816
 2391SOL    HW1 7493   5.078   0.433   5.372  0.6503  1.9132  0.9409
 2391SOL    HW2 7494   5.145   0.440   5.223 -1.6077 -1.5314 -0.3665
 2392SOL     OW 7495   2.690   1.949   4.173  0.5777 -0.0567 -0.1386
 2392SOL    HW1 7496   2.719   2.044   4.183  0.8300 -0.2207  0.8022
 2392SOL    HW2 7497   2.590   1.945   4.174  0.5737  0.1394  0.4213
 2393SOL     OW 7498   2.814   2.491   4.491 -0.1715  0.8674  0.4048
 2393SOL    HW1 7499   2.748   2.550   4.445  0.5765  1.1048 -0.3816
 2393SOL    HW2 7500   2.903   2.500   4.448  0.1039 -0.3788  0.6719
 2394SOL     OW 7501   4.261   4.131   4.568  0.4099  0.0423 -0.5557
 2394SOL    HW1 7502   4.298   4.082   4.647 -4.1494 -3.7508 -0.3651
 2394SOL    HW2 7503   4.309   4.103   4.486  0.4442 -1.7778  0.0529
 2395SOL     OW 7504   4.370   3.261   4.871 -0.2388 -0.0451  0.5284
 2395SOL    HW1 7505   4.362   3.331   4.800 -1.1775  0.2177  0.8799
 2395SOL    HW2 7506   4.386   3.172   4.829 -2.9273 -0.2652 -0.1779
 2396SOL     OW 7507   1.704   0.188   4.344  0.3066  0.1010  0.7570
 2396SOL    HW1 7508   1.643   0.111   4.323 -1.1896  0.3665  3.7171
 2396SOL    HW2 7509   1.669   0.271   4.301 -0.3053 -0.1430  0.7676
 2397SOL     OW 7510   1.414   1.360   5.302  0.6585  0.1064  0.0030
 2397SOL    HW1 7511   1.416   1.432   5.372 -0.7390  0.5456 -0.3851
 2397SOL    HW2 7512   1.447   1.397   5.215  1.1510 -0.0836  0.1050
 2398SOL     OW 7513   4.108   2.610   3.126  0.6136 -0.3057  0.3612
 2398SOL    HW1 7514   4.067   2.551   3.056 -2.5486 -2.0210  3.3616
 2398SOL    HW2 7515   4.164   2.555   3.188  0.7886  0.5681  1.0030
 2399SOL     OW 7516   3.016   0.183   3.957 -0.6893  0.1946 -0.4918
 2399SOL    HW1 7517   2.974   0.183   4.048 -2.1271 -2.6847 -1.0293
 2399SOL    HW2 7518   2.947   0.204   3.888 -0.1870 -0.0581 -1.0850
 2400SOL     OW 7519   1.739   5.179   5.238 -0.3785  0.1356 -0.2738
 2400SOL    HW1 7520   1.740   5.092   5.286  1.1249  0.0236 -0.4668
 2400SOL    HW2 7521   1.827   5.225   5.249 -1.1712  1.7003 -0.0774
 2401SOL     OW 7522   3.434   0.882   3.130 -0.1940 -0.3664  0.2778
 2401SOL    HW1 7523   3.493   0.816   3.177  0.7895  0.8433  0.7934
 2401SOL    HW2 7524   3.348   0.891   3.181 -0.5321 -1.5456 -0.0386
 2402SOL     OW 7525   2.834   2.243   4.375  0.1145  0.3992  0.0751
 2402SOL    HW1 7526   2.826   2.326   4.431  0.0311  0.6657 -0.3287
 2402SOL    HW2 7527   2.767   2.247   4.301 -1.9728 -1.3743  1.7391
 2403SOL     OW 7528   3.516   0.389   4.892 -0.0646 -0.0436 -0.8493
 2403SOL    HW1 7529   3.463   0.322   4.944 -0.1900 -1.4069 -2.6246
 2403SOL    HW2 7530   3.551   0.346   4.808  1.6307  1.5599 -1.0219
 2404SOL     OW 7531   3.514   2.859   4.250 -0.1647 -0.0811  0.1824
 2404SOL    HW1 7532   3.498   2.955   4.271 -0.7527 -0.0038 -0.5809
 2404SOL    HW2 7533   3.434   2.805   4.275 -0.5037 -0.1214 -0.9394
 2405SOL     OW 7534   0.915   1.776   4.191 -0.3919  0.2968 -0.3225
 2405SOL    HW1 7535   0.816   1.767   4.186 -0.2331 -0.9956 -2.2053
 2405SOL    HW2 7536   0.956   1.687   4.211  0.4211  0.7980  0.3635
 2406SOL     OW 7537   0.811   0.601   4.918  0.0165 -0.1967 -0.1959
 2406SOL    HW1 7538   0.825   0.696   4.890 -1.0831 -0.1142 -0.5226
 2406SOL    HW2 7539   0.802   0.597   5.018 -1.8364  0.3355 -0.3066
 2407SOL     OW 7540   3.079   5.142   0.887  0.2981  0.1491  0.5198
 2407SOL    HW1 7541   3.142   5.220   0.882 -0.1814  0.5191  0.1878
 2407SOL    HW2 7542   3.066   5.105   0.795 -0.4144  0.4309  0.5030
 2408SOL     OW 7543   2.794   0.234   5.314  0.0742 -0.1948 -0.6278
 2408SOL    HW1 7544   2.724   0.241   5.244  0.1776  0.4961 -0.6656
 2408SOL    HW2 7545   2.819   0.137   5.327 -0.0344 -0.3373 -1.4449
 2409SOL     OW 7546   3.356   5.151   0.597  0.1133  0.4737 -0.5755
 2409SOL    HW1 7547   3.266   5.194   0.594 -0.5636 -0.7419  0.8851
 2409SOL    HW2 7548   3.345   5.053   0.617  1.8052  0.4973  0.6112
 2410SOL     OW 7549   2.613   0.914   0.064  0.4075 -1.0066  0.3213
 2410SOL    HW1 7550   2.573   0.845   0.004  1.4143 -0.8476 -0.5523
 2410SOL    HW2 7551   2.695   0.951   0.022  0.2271  0.2887  1.0596
 2411SOL     OW 7552   2.201   1.339   3.417  0.0761  0.1329 -0.0658
 2411SOL    HW1 7553   2.272   1.398   3.457  0.0652  0.2600 -0.2365
 2411SOL    HW2 7554   2.237   1.293   3.336 -0.3007  0.8329 -0.6308
 2412SOL     OW 7555   2.311   2.135   5.062 -0.5189  0.2235  0.1959
 2412SOL    HW1 7556   2.302   2.045   5.019 -1.3801  0.4231 -0.0503
 2412SOL    HW2 7557   2.251   2.200   5.017 -0.4707  0.7486  0.8729
 2413SOL     OW 7558   3.343   5.112   5.067 -0.1160 -0.0673  0.4041
 2413SOL    HW1 7559   3.427   5.059   5.064  0.7509  1.2915  0.1992
 2413SOL    HW2 7560   3.337   5.159   5.155 -0.7376 -0.2541  0.4691
 2414SOL     OW 7561   3.128   1.257   4.653  0.2005  0.0900 -0.1026
 2414SOL    HW1 7562   3.088   1.194   4.587 -0.8069 -0.3628  0.9067
 2414SOL    HW2 7563   3.055   1.301   4.705  0.9835 -1.0679  2.0983
 2415SOL     OW 7564   2.990   1.855   4.882 -0.6599 -0.1725  0.1031
 2415SOL    HW1 7565   3.024   1.937   4.835  0.7392 -0.4273  0.5989
 2415SOL    HW2 7566   2.958   1.789   4.815 -0.6011  0.2817 -0.3780
 2416SOL     OW 7567   1.237   0.293   4.255 -0.4601 -0.1641  0.5376
 2416SOL    HW1 7568   1.158   0.314   4.312 -0.6048  0.7462  0.0150
 2416SOL    HW2 7569   1.292   0.375   4.242 -0.3748 -0.3790 -0.5481
 2417SOL     OW 7570   3.462   0.500   4.142 -0.1282  0.1660  0.1835
 2417SOL    HW1 7571   3.454   0.422   4.203  0.3949 -0.0480 -0.0159
 2417SOL    HW2 7572   3.516   0.572   4.187 -0.4079  0.3219  0.2748
 2418SOL     OW 7573   2.073   0.463   4.442  0.9977 -0.4298  0.0214
 2418SOL    HW1 7574   2.069   0.369   4.475 -0.6728  0.0311  1.3327
 2418SOL    HW2 7575   1.984   0.488   4.403  0.9306  1.0019  0.9963
 2419SOL     OW 7576   1.960   5.557   5.225 -0.0861 -0.1314 -0.2632
 2419SOL    HW1 7577   1.987   5.464   5.251  0.1987  0.3009  1.0604
 2419SOL    HW2 7578   1.866   5.574   5.253  0.1233  0.2328  0.2503
 2420SOL     OW 7579   2.069   2.425   3.862 -0.1242  0.3111  0.5705
 2420SOL    HW1 7580   1.977   2.416   3.823 -0.3762  2.3670  0.5727
 2420SOL    HW2 7581   2.130   2.359   3.817 -1.8954 -2.4077  1.8396
 2421SOL     OW 7582   3.358   1.969   3.474 -0.5020 -0.3557 -0.7112
 2421SOL    HW1 7583   3.323   2.058   3.501 -0.5118 -0.3873 -0.6196
 2421SOL    HW2 7584   3.282   1.908   3.452 -0.6048 -0.9895  1.2251
 2422SOL     OW 7585   1.988   5.494   4.410  0.6456  0.4616 -0.2471
 2422SOL    HW1 7586   2.056   5.423   4.389  0.4934 -0.1465  1.2156
 2422SOL    HW2 7587   1.950   5.478   4.501 -1.0040  1.1717 -0.7773
 2423SOL     OW 7588   3.961   0.243   0.331  0.2786 -0.2622 -0.3054
 2423SOL    HW1 7589   4.061   0.242   0.329  0.2926 -0.1140  0.2523
 2423SOL    HW2 7590   3.926   0.249   0.237  0.7770 -1.4899 -0.5951
 2424SOL     OW 7591   1.348   5.379   5.456 -0.1024 -0.2064 -0.2042
 2424SOL    HW1 7592   1.416   5.450   5.439 -0.4833 -0.0385 -1.0874
 2424SOL    HW2 7593   1.364   5.302   5.394 -0.1698 -0.5595  0.2097
 2425SOL     OW 7594   1.829   0.072   3.960 -0.2486 -0.0171  0.0161
 2425SOL    HW1 7595   1.730   0.087   3.961 -0.5177 -1.5704 -0.7898
 2425SOL    HW2 7596   1.871   0.128   3.889 -0.7501 -0.4135 -0.6034
 2426SOL     OW 7597   2.150   1.756   3.018 -0.7138 -0.0852  0.5392
 2426SOL    HW1 7598   2.131   1.729   3.113 -0.8996  1.4404  0.9741
 2426SOL    HW2 7599   2.238   1.718   2.989 -0.6540 -0.5692  1.3228
 2427SOL     OW 7600   2.714   0.510   5.415 -0.4218 -0.2045  0.0084
 2427SOL    HW1 7601   2.627   0.557   5.401 -0.2327 -0.2545 -1.5720
 2427SOL    HW2 7602   2.718   0.430   5.356  1.0539  0.3247 -0.6639
 2428SOL     OW 7603   3.258   5.454   5.250  0.1188 -0.2029 -0.3692
 2428SOL    HW1 7604   3.171   5.405   5.261  0.6592 -1.0159  0.4263
 2428SOL    HW2 7605   3.243   5.552   5.259 -0.7000 -0.3455 -0.1220
 2429SOL     OW 7606   3.858   0.002   4.662 -0.0024 -0.6883 -0.1073
 2429SOL    HW1 7607   3.872   0.015   4.760  0.6252 -2.1638  0.0406
 2429SOL    HW2 7608   3.940   0.031   4.613 -0.0059 -0.6982 -0.1193
 2430SOL     OW 7609   1.436   1.638   4.682 -0.0861  0.1918 -0.4138
 2430SOL    HW1 7610   1.439   1.547   4.639 -0.3646  0.3951 -0.8641
 2430SOL    HW2 7611   1.529   1.666   4.705 -0.1360 -1.0714  1.5808
 2431SOL     OW 7612   4.574   1.926   4.523  0.3396 -0.9089 -0.1965
 2431SOL    HW1 7613   4.508   1.993   4.487  0.9234  0.1184  0.6089
 2431SOL    HW2 7614   4.527   1.862   4.583 -0.4518 -1.9948 -1.8869
 2432SOL     OW 7615   3.951   0.539   4.382 -0.4101 -0.5707  0.4700
 2432SOL    HW1 7616   3.865   0.500   4.412  0.3690 -2.0921  0.8350
 2432SOL    HW2 7617   3.963   0.629   4.424 -1.9521 -0.1756  0.1248
 2433SOL     OW 7618   2.087   0.974   3.395  0.0649 -0.0981 -0.1678
 2433SOL    HW1 7619   2.068   0.984   3.492 -0.9892  0.2571 -0.3934
 2433SOL    HW2 7620   2.004   0.996   3.343  1.0694  1.3403 -1.2322
 2434SOL     OW 7621   4.360   1.004   5.161  0.0831 -0.2183  0.1642
 2434SOL    HW1 7622   4.280   1.062   5.148 -0.3336 -0.7857  0.2056
 2434SOL    HW2 7623   4.373   0.987   5.259  0.0988 -0.3465  0.1399
 2435SOL     OW 7624   4.466   1.752   0.295 -0.4521  0.6463 -0.0405
 2435SOL    HW1 7625   4.371   1.721   0.297 -0.1752 -0.5114 -1.9041
 2435SOL    HW2 7626   4.469   1.848   0.269 -1.0892  0.1861 -1.9947
 2436SOL     OW 7627   1.609   2.296   4.571 -0.0141 -0.7665  0.5649
 2436SOL    HW1 7628   1.584   2.242   4.491 -0.0897 -1.7941  1.2517
 2436SOL    HW2 7629   1.526   2.337   4.610  0.2509  1.3937 -0.9870
 2437SOL     OW 7630   2.320   0.196   0.932  0.1420 -0.4651 -0.0147
 2437SOL    HW1 7631   2.326   0.219   0.835  0.2234 -0.6929 -0.0645
 2437SOL    HW2 7632   2.407   0.158   0.963 -1.2192 -5.1252 -1.0877
 2438SOL     OW 7633   3.869   1.566   0.905 -0.2852  0.3421 -0.5261
 2438SOL    HW1 7634   3.900   1.659   0.890 -1.5775  1.0968  1.0985
 2438SOL    HW2 7635   3.946   1.509   0.934  0.6996  0.6274 -2.4576
 2439SOL     OW 7636   0.907   0.018   5.053 -0.1014 -0.4000  0.6844
 2439SOL    HW1 7637   0.993  -0.010   5.011 -0.1103 -0.3757  0.6494
 2439SOL    HW2 7638   0.907  -0.006   5.150 -0.2209 -0.7695  0.5935
 2440SOL     OW 7639   0.243   2.336   1.015 -0.1691  0.2216  0.3077
 2440SOL    HW1 7640   0.274   2.290   0.932 -1.4632 -1.3857  0.6782
 2440SOL    HW2 7641   0.270   2.433   1.011  0.8366 -0.0857 -1.4109
 2441SOL     OW 7642   3.881   0.936   5.371  0.5006  0.8049 -0.4113
 2441SOL    HW1 7643   3.851   1.009   5.311  0.3775  2.0054  1.0490
 2441SOL    HW2 7644   3.981   0.933   5.373  0.5045  0.9083 -0.5101
 2442SOL     OW 7645   2.355   0.882   4.099 -0.4630 -0.1405  0.1909
 2442SOL    HW1 7646   2.273   0.870   4.155 -0.5681  1.1847  0.3729
 2442SOL    HW2 7647   2.382   0.978   4.102  0.4461 -0.3539 -0.7811
 2443SOL     OW 7648   2.699   5.395   4.767  0.1327 -0.2120  0.3111
 2443SOL    HW1 7649   2.753   5.314   4.789 -1.1069 -0.8948  0.9467
 2443SOL    HW2 7650   2.760   5.473   4.754  1.3834 -1.2940 -0.6384
 2444SOL     OW 7651   0.959   3.855   4.667 -0.0473  0.2778 -0.2786
 2444SOL    HW1 7652   0.902   3.800   4.606  1.0055  0.1014 -1.1179
 2444SOL    HW2 7653   1.022   3.796   4.717  0.9018  0.6671 -0.9801
 2445SOL     OW 7654   1.914   1.901   5.163  0.1287  0.0224 -0.6217
 2445SOL    HW1 7655   1.992   1.849   5.129  0.0430 -0.3124 -0.3182
 2445SOL    HW2 7656   1.902   1.984   5.109  1.2374  0.5218 -0.1156
 2446SOL     OW 7657   5.058   0.229   4.961 -0.0178 -0.0659 -0.6506
 2446SOL    HW1 7658   4.998   0.289   4.908  0.6237 -0.2559 -1.6075
 2446SOL    HW2 7659   5.148   0.225   4.918  0.8396  0.5574  1.0038
 2447SOL     OW 7660   4.035   2.062   3.249  0.2776 -0.2837 -0.3591
 2447SOL    HW1 7661   3.979   2.130   3.201  1.5912  0.8223 -0.3552
 2447SOL    HW2 7662   4.056   1.987   3.187  2.2785  1.3121 -1.7042
 2448SOL     OW 7663   4.939   2.220   4.294 -0.2054 -0.6215 -0.2236
 2448SOL    HW1 7664   4.872   2.148   4.276 -0.3158 -0.4175 -0.6309
 2448SOL    HW2 7665   4.906   2.276   4.371  1.0556 -2.4854  1.7802
 2449SOL     OW 7666   4.969   1.855   4.228  0.7963  0.1553 -0.7486
 2449SOL    HW1 7667   4.969   1.763   4.188  2.2505  0.5716 -1.8260
 2449SOL    HW2 7668   4.877   1.880   4.254  0.2364 -1.2889 -1.2154
 2450SOL     OW 7669   1.993   0.207   0.128  0.0197  0.2082  0.7223
 2450SOL    HW1 7670   2.065   0.163   0.183  0.7422 -0.5537 -0.7573
 2450SOL    HW2 7671   1.911   0.150   0.128  0.7149 -0.8727 -0.6051
 2451SOL     OW 7672   2.341   5.498   0.395  0.2802  0.2351  0.2149
 2451SOL    HW1 7673   2.398   5.481   0.315  0.6441 -3.2716  1.0531
 2451SOL    HW2 7674   2.397   5.535   0.469  0.6383  0.4272 -0.1501
 2452SOL     OW 7675   3.547   0.921   5.470 -0.3706  0.0558  0.1610
 2452SOL    HW1 7676   3.611   0.869   5.526  1.8587 -1.0228 -3.0553
 2452SOL    HW2 7677   3.596   0.995   5.424 -1.5883 -0.2645 -1.7609
 2453SOL     OW 7678   3.365   4.872   0.297 -0.3375  0.4122 -0.3006
 2453SOL    HW1 7679   3.326   4.922   0.220 -0.2548  0.2016 -0.4782
 2453SOL    HW2 7680   3.443   4.922   0.334 -0.2791  0.4354 -0.4543
 2454SOL     OW 7681   3.158   0.932   4.838  0.0819 -0.0321 -0.9501
 2454SOL    HW1 7682   3.068   0.961   4.871  0.7503  1.2586 -0.1901
 2454SOL    HW2 7683   3.156   0.834   4.819 -0.6603 -0.6625  1.8922
 2455SOL     OW 7684   1.159   0.097   0.922  0.3618  0.0766 -0.0783
 2455SOL    HW1 7685   1.163   0.048   0.835  0.8924  1.1957 -0.6951
 2455SOL    HW2 7686   1.247   0.139   0.941  0.1870  0.0358  0.9048
 2456SOL     OW 7687   1.767   0.803   0.298 -0.7356 -0.0654  0.5207
 2456SOL    HW1 7688   1.779   0.894   0.338 -0.3298 -0.2449  0.8163
 2456SOL    HW2 7689   1.745   0.738   0.371  1.2068 -0.6331  0.6425
 2457SOL     OW 7690   2.528   1.013   4.423 -0.1602 -0.2568  0.1344
 2457SOL    HW1 7691   2.530   1.049   4.517 -0.1037 -0.4461  0.2055
 2457SOL    HW2 7692   2.511   1.089   4.359  2.6542  0.3985  0.0253
 2458SOL     OW 7693   1.267   0.602   5.276 -0.2900 -0.0261 -0.3750
 2458SOL    HW1 7694   1.230   0.586   5.368 -0.5329 -1.9743 -0.7696
 2458SOL    HW2 7695   1.361   0.634   5.284 -0.1936 -0.4946  0.5660
 2459SOL     OW 7696   2.379   1.722   0.635 -0.1736 -0.3835  0.2933
 2459SOL    HW1 7697   2.388   1.719   0.535 -0.1681 -0.9206  0.3108
 2459SOL    HW2 7698   2.307   1.660   0.665 -0.3854  0.0037  0.6038
 2460SOL     OW 7699   2.595   1.636   4.821 -0.1847 -0.5574  0.7171
 2460SOL    HW1 7700   2.509   1.593   4.850 -0.1160 -0.3161  1.3032
 2460SOL    HW2 7701   2.614   1.714   4.880  0.5304 -0.7148  0.7035
 2461SOL     OW 7702   3.037   0.145   1.284  0.4771 -0.0013  0.0450
 2461SOL    HW1 7703   3.007   0.230   1.327 -0.3039 -0.1551 -0.1812
 2461SOL    HW2 7704   3.132   0.153   1.256  0.8557  0.2768  1.3592
 2462SOL     OW 7705   3.648   4.905   4.084 -0.2613 -0.1038  0.3886
 2462SOL    HW1 7706   3.614   4.997   4.103 -0.3382  0.0566 -0.4636
 2462SOL    HW2 7707   3.678   4.900   3.988 -2.3480 -1.5976 -0.2417
 2463SOL     OW 7708   2.499   1.862   4.452  0.4407 -0.0309 -0.1625
 2463SOL    HW1 7709   2.482   1.902   4.362  0.4845  1.1557  0.3427
 2463SOL    HW2 7710   2.412   1.842   4.496  0.4012  0.6969  0.0964
 2464SOL     OW 7711   2.020   0.521   4.789  0.2181  0.1337 -0.0681
 2464SOL    HW1 7712   1.999   0.424   4.800 -0.7884  0.2314 -1.0046
 2464SOL    HW2 7713   2.073   0.534   4.704  1.7294  0.2321  0.8516
 2465SOL     OW 7714   4.781   1.758   5.042 -0.3975 -0.4182 -0.1798
 2465SOL    HW1 7715   4.694   1.756   4.993 -0.3655  0.9137 -0.3400
 2465SOL    HW2 7716   4.772   1.710   5.129 -1.1757 -0.6528 -0.3837
 2466SOL     OW 7717   3.456   2.487   5.103 -0.4548 -0.0050  0.9949
 2466SOL    HW1 7718   3.406   2.440   5.177 -0.1928 -1.0332  0.5361
 2466SOL    HW2 7719   3.511   2.420   5.053  1.4490  1.1051  1.5111
 2467SOL     OW 7720   3.498   5.334   0.409  0.8542 -0.2447 -0.6091
 2467SOL    HW1 7721   3.562   5.283   0.351  1.0260 -0.9378  0.1765
 2467SOL    HW2 7722   3.448   5.270   0.468 -0.1663  0.3408 -0.8132
 2468SOL     OW 7723   2.913   1.200   5.155 -0.1449  0.2630 -0.0078
 2468SOL    HW1 7724   2.988   1.180   5.218 -1.0155 -0.5377  0.7933
 2468SOL    HW2 7725   2.876   1.291   5.176  2.2632  1.9134 -2.1273
 2469SOL     OW 7726   4.006   0.550   2.440  0.5752 -0.0435 -0.5758
 2469SOL    HW1 7727   3.959   0.462   2.446 -0.2180  0.4423  1.1329
 2469SOL    HW2 7728   3.970   0.602   2.363 -1.2365  0.0146  0.2565
 2470SOL     OW 7729   3.886   2.840   4.993  0.1067  0.0207  0.3083
 2470SOL    HW1 7730   3.848   2.748   5.003  1.1074 -0.4393 -0.0308
 2470SOL    HW2 7731   3.824   2.895   4.937 -1.5044  0.1899  2.1585
 2471SOL     OW 7732   2.938   0.661   4.307 -0.3215  0.5282 -0.1686
 2471SOL    HW1 7733   2.906   0.655   4.402  0.3221  1.3187  0.1162
 2471SOL    HW2 7734   3.032   0.627   4.301 -0.1040  1.1369 -0.3682
 2472SOL     OW 7735   2.128   0.177   2.403  0.2977 -0.6753  0.3906
 2472SOL    HW1 7736   2.083   0.102   2.451 -2.0143 -0.5056 -1.3427
 2472SOL    HW2 7737   2.189   0.139   2.333 -1.7188 -1.0927 -1.2658
 2473SOL     OW 7738   2.893   0.852   2.019  0.7787  0.1690  0.6518
 2473SOL    HW1 7739   2.868   0.837   1.923  0.5957 -0.8600  0.8472
 2473SOL    HW2 7740   2.947   0.936   2.027  2.9147 -0.9955 -0.7256
 2474SOL     OW 7741   3.756   5.449   1.420  0.5865  0.1764  0.5225
 2474SOL    HW1 7742   3.801   5.440   1.331  1.9500  0.0767  1.1925
 2474SOL    HW2 7743   3.749   5.359   1.462  0.0476  0.2394  0.5715
 2475SOL     OW 7744   0.863   2.390   2.944  0.5258  0.9815  0.1761
 2475SOL    HW1 7745   0.920   2.356   2.869  1.3376  0.0090  1.2056
 2475SOL    HW2 7746   0.914   2.455   3.000  0.1096  1.2770  0.2225
 2476SOL     OW 7747   2.159   2.728   4.616  0.1619  0.3077 -0.4788
 2476SOL    HW1 7748   2.085   2.660   4.621 -0.0289  0.5839  1.2150
 2476SOL    HW2 7749   2.247   2.682   4.616  0.1151 -0.0200  2.8240
 2477SOL     OW 7750   2.082   0.855   4.721 -0.2460 -0.0023 -0.2724
 2477SOL    HW1 7751   2.140   0.871   4.801 -0.3492  2.0881 -0.5731
 2477SOL    HW2 7752   2.113   0.772   4.675  1.7080  0.3650  0.2783
 2478SOL     OW 7753   1.633   2.680   4.338 -0.4625 -0.0099  0.0128
 2478SOL    HW1 7754   1.701   2.669   4.265 -1.4392  0.8417 -1.0698
 2478SOL    HW2 7755   1.542   2.659   4.302 -0.7954 -1.1790  1.4500
 2479SOL     OW 7756   0.759   1.156   4.342  0.1817  0.0814  0.0708
 2479SOL    HW1 7757   0.716   1.215   4.273  0.0975  1.3269  1.1363
 2479SOL    HW2 7758   0.846   1.123   4.307  0.7072  1.6710 -0.2205
 2480SOL     OW 7759   3.008   1.319   2.222 -0.3776 -0.1153  0.0644
 2480SOL    HW1 7760   3.035   1.230   2.185  2.0756 -0.3887  2.2081
 2480SOL    HW2 7761   3.075   1.348   2.290 -1.6758  2.9272  0.1892
 2481SOL     OW 7762   3.191   1.608   5.032  0.4046  0.1818  0.4041
 2481SOL    HW1 7763   3.218   1.607   4.936  0.9290  0.6143  0.5401
 2481SOL    HW2 7764   3.264   1.566   5.087  0.5680  0.8514  0.7165
 2482SOL     OW 7765   1.388   1.346   3.808 -0.5296  0.1609  0.0679
 2482SOL    HW1 7766   1.435   1.272   3.856  1.8862  0.9824 -0.8817
 2482SOL    HW2 7767   1.381   1.426   3.868  0.7416  0.5471 -0.2735
 2483SOL     OW 7768   2.685   3.782   1.123 -0.3427  0.0321  0.5400
 2483SOL    HW1 7769   2.641   3.770   1.034  1.1113 -3.9246  0.1354
 2483SOL    HW2 7770   2.762   3.845   1.113  0.3433 -1.0002 -1.3017
 2484SOL     OW 7771   2.749   0.454   0.789 -0.5229  0.6412  0.4446
 2484SOL    HW1 7772   2.766   0.357   0.803  0.6644  0.3322 -2.4851
 2484SOL    HW2 7773   2.662   0.468   0.743 -0.2190  0.8781 -0.0673
 2485SOL     OW 7774   3.656   0.563   4.514 -0.0001  0.0052  0.0199
 2485SOL    HW1 7775   3.666   0.463   4.518  0.2013 -0.0868 -1.7625
 2485SOL    HW2 7776   3.674   0.602   4.604  1.3044 -1.4604  0.4481
 2486SOL     OW 7777   4.672   2.954   5.007  0.3272  0.0025 -0.1031
 2486SOL    HW1 7778   4.629   2.864   5.010  1.1278 -0.3733  0.2799
 2486SOL    HW2 7779   4.689   2.981   4.912  0.8012 -0.5961 -0.1895
 2487SOL     OW 7780   1.347   1.463   3.380 -0.0332  0.2426  0.6784
 2487SOL    HW1 7781   1.434   1.418   3.399  1.0542  1.7408 -0.5041
 2487SOL    HW2 7782   1.310   1.501   3.465 -0.7124 -2.3047  1.6055
 2488SOL     OW 7783   0.630   1.621   3.081 -0.6506  0.3187  0.3744
 2488SOL    HW1 7784   0.692   1.682   3.131 -0.2064  1.1033 -1.0555
 2488SOL    HW2 7785   0.596   1.550   3.142 -0.6093  1.5672  1.9150
 2489SOL     OW 7786   2.467  -0.003   3.910  0.1707  0.1854  0.3912
 2489SOL    HW1 7787   2.377   0.000   3.954 -1.2601 -0.4358 -2.2783
 2489SOL    HW2 7788   2.504   0.090   3.904 -0.7735  0.5890  0.5875
 2490SOL     OW 7789   0.991   1.845   5.040 -0.2418 -0.1717 -0.3344
 2490SOL    HW1 7790   0.980   1.760   4.988 -0.2654  1.2797 -2.8554
 2490SOL    HW2 7791   0.909   1.901   5.029  0.8933  1.4048 -1.1891
 2491SOL     OW 7792   3.363   0.861   5.270  0.1647  0.1245 -0.0301
 2491SOL    HW1 7793   3.392   0.857   5.174  2.8327  1.1568  0.6583
 2491SOL    HW2 7794   3.440   0.841   5.329 -0.7116  2.2235  1.9631
 2492SOL     OW 7795   1.841   1.459   4.811  0.2365  0.6695 -0.0958
 2492SOL    HW1 7796   1.801   1.456   4.903 -2.4656  0.9973 -1.1907
 2492SOL    HW2 7797   1.810   1.541   4.764  2.1453  0.8592 -1.1138
 2493SOL     OW 7798   1.938   2.928   4.248 -0.2580 -0.6872  0.4291
 2493SOL    HW1 7799   2.005   2.966   4.311 -0.2354 -0.0012  0.0010
 2493SOL    HW2 7800   1.985   2.879   4.174 -0.3083 -3.0848  1.8698
 2494SOL     OW 7801   3.074   2.154   0.175 -0.7820 -0.3858 -0.0175
 2494SOL    HW1 7802   3.011   2.085   0.209 -2.3550  0.9880 -0.0209
 2494SOL    HW2 7803   3.068   2.159   0.076 -0.7268 -0.2002 -0.0123
 2495SOL     OW 7804   3.570   4.395   5.254 -0.5609 -0.5365  0.2436
 2495SOL    HW1 7805   3.623   4.472   5.220  0.5452 -0.4922  1.9246
 2495SOL    HW2 7806   3.512   4.359   5.181  1.1651 -0.0522 -1.4421
 2496SOL     OW 7807   5.217   1.119   2.020  0.1883  0.2162 -0.0248
 2496SOL    HW1 7808   5.224   1.216   2.001  0.0476  0.6395  1.8343
 2496SOL    HW2 7809   5.308   1.082   2.041  0.0193  0.3739  1.0331
 2497SOL     OW 7810   2.846   4.087   4.703  0.0832 -0.0447 -0.0079
 2497SOL    HW1 7811   2.835   3.988   4.709  1.7783 -0.2289  0.3735
 2497SOL    HW2 7812   2.821   4.128   4.790 -2.3787  0.0919 -0.7021
 2498SOL     OW 7813   3.611   1.247   3.370  0.0619 -0.1081 -0.3795
 2498SOL    HW1 7814   3.706   1.254   3.402 -0.1325  0.1859  0.1543
 2498SOL    HW2 7815   3.578   1.338   3.346 -0.5127 -0.0044  0.7248
 2499SOL     OW 7816   2.750   1.629   2.668 -0.3268  0.4902  0.2866
 2499SOL    HW1 7817   2.839   1.648   2.626 -0.9684  1.2379 -0.7818
 2499SOL    HW2 7818   2.723   1.535   2.648 -1.0104  1.0693 -1.8163
 2500SOL     OW 7819   2.543   2.275   4.469 -0.0662  0.1291 -0.0244
 2500SOL    HW1 7820   2.458   2.284   4.418 -0.6833 -0.1515  0.9250
 2500SOL    HW2 7821   2.533   2.205   4.539  1.1518 -0.3400 -0.2847
 2501SOL     OW 7822   4.542   2.140   5.253  0.1245 -1.0967 -0.2627
 2501SOL    HW1 7823   4.629   2.126   5.207 -0.9391 -2.4587 -2.0117
 2501SOL    HW2 7824   4.471   2.160   5.185 -0.9409 -0.0159  1.1090
 2502SOL     OW 7825   3.937   4.351   5.366  0.0618 -0.3984  0.3355
 2502SOL    HW1 7826   3.940   4.369   5.267 -0.4041  0.0867  0.4073
 2502SOL    HW2 7827   3.944   4.437   5.416  1.6939 -0.7415  0.7734
 2503SOL     OW 7828   3.340   2.760   4.468  0.8035 -0.0123 -0.1235
 2503SOL    HW1 7829   3.422   2.815   4.488  1.1169  0.2359 -1.9344
 2503SOL    HW2 7830   3.265   2.791   4.525  1.9784 -0.3471  1.7091
 2504SOL     OW 7831   2.666   0.186   3.597 -0.2354 -0.5542  0.4695
 2504SOL    HW1 7832   2.651   0.227   3.507  1.0055 -0.6866  0.1818
 2504SOL    HW2 7833   2.744   0.230   3.641 -0.8816 -0.4431  1.5235
 2505SOL     OW 7834   1.468   1.896   1.347  0.1448  0.0432  0.0465
 2505SOL    HW1 7835   1.507   1.870   1.259  0.1750  0.3067 -0.0200
 2505SOL    HW2 7836   1.422   1.985   1.338  2.4894  1.4369  0.9296
 2506SOL     OW 7837   3.770   0.943   4.577  1.1174  0.1829 -0.5085
 2506SOL    HW1 7838   3.710   1.019   4.602  0.0592 -0.0858 -2.0259
 2506SOL    HW2 7839   3.757   0.867   4.641  3.3993  1.7648  2.0326
 2507SOL     OW 7840   2.577   0.767   2.518 -0.2663 -0.5097  0.2871
 2507SOL    HW1 7841   2.601   0.670   2.523 -1.1708 -0.8658 -1.7266
 2507SOL    HW2 7842   2.482   0.777   2.490 -0.1321  0.9750  0.2774
 2508SOL     OW 7843   1.127   1.977   0.181  0.0256 -0.4004 -0.0255
 2508SOL    HW1 7844   1.213   1.955   0.228  0.2041 -1.5909 -0.8420
 2508SOL    HW2 7845   1.114   2.076   0.179  2.1235 -0.0830 -1.1149
 2509SOL     OW 7846   2.550   1.301   5.049 -0.2995 -0.6562 -0.2440
 2509SOL    HW1 7847   2.580   1.243   4.974  2.3522  0.0127  0.1920
 2509SOL    HW2 7848   2.511   1.245   5.122  1.8425 -1.9172  0.0062
 2510SOL     OW 7849   3.527   1.319   4.509 -0.0077  0.1526  0.3185
 2510SOL    HW1 7850   3.583   1.377   4.450  0.9468  0.7295  1.7191
 2510SOL    HW2 7851   3.433   1.354   4.511  0.2932  0.9861  0.2568
 2511SOL     OW 7852   2.479   3.956   1.295 -0.3293  0.2510 -0.3763
 2511SOL    HW1 7853   2.464   3.870   1.247  0.8017  0.9678 -2.1119
 2511SOL    HW2 7854   2.561   4.001   1.259 -0.9461  2.1188  0.4107
 2512SOL     OW 7855   1.473   5.534   3.471  0.8710  0.0383 -0.1147
 2512SOL    HW1 7856   1.489   5.567   3.564  1.8603  1.8163 -0.8550
 2512SOL    HW2 7857   1.492   5.436   3.465 -2.0210 -0.8007  2.1840
 2513SOL     OW 7858   3.575   5.165   1.305 -0.1404 -0.5742 -0.1071
 2513SOL    HW1 7859   3.512   5.131   1.375 -1.9805  0.0585 -1.3896
 2513SOL    HW2 7860   3.530   5.165   1.216  0.7392  2.3994 -0.6586
 2514SOL     OW 7861   1.154   0.025   4.876  0.6598 -0.0754  0.2918
 2514SOL    HW1 7862   1.130  -0.067   4.845 -0.0067  0.2140 -0.0696
 2514SOL    HW2 7863   1.243   0.051   4.837 -0.3725  0.4815 -1.8779
 2515SOL     OW 7864   2.399   1.506   3.246  0.6966  0.7855  0.2141
 2515SOL    HW1 7865   2.431   1.522   3.339 -0.4240  1.8464  0.4367
 2515SOL    HW2 7866   2.445   1.570   3.184  1.3681  0.1456  0.0300
 2516SOL     OW 7867   2.810   4.060   0.224  0.3811  0.0745 -0.1763
 2516SOL    HW1 7868   2.716   4.046   0.256  0.7568  0.1298  0.9989
 2516SOL    HW2 7869   2.814   4.143   0.168  0.1148  1.4327  1.6816
 2517SOL     OW 7870   2.355   0.116   2.205 -0.0019 -0.6836 -0.4051
 2517SOL    HW1 7871   2.330   0.163   2.120 -0.6962 -0.7978 -0.2701
 2517SOL    HW2 7872   2.434   0.161   2.246 -0.5519  0.2721 -0.3607
 2518SOL     OW 7873   3.086   5.450   1.456  0.0748  0.1995 -0.4426
 2518SOL    HW1 7874   3.057   5.388   1.383  0.9170 -0.8319  0.0716
 2518SOL    HW2 7875   3.013   5.516   1.475 -0.0254  0.7099 -2.4345
 2519SOL     OW 7876   0.298   5.285   3.246  0.0143 -0.1347  0.6611
 2519SOL    HW1 7877   0.360   5.355   3.210 -1.5898  0.4192 -1.1618
 2519SOL    HW2 7878   0.249   5.242   3.171 -4.1187  1.6470  2.0391
 2520SOL     OW 7879   2.377   1.476   4.879  0.1442  0.2769  0.4989
 2520SOL    HW1 7880   2.440   1.409   4.920  1.7113  0.2167 -1.8076
 2520SOL    HW2 7881   2.298   1.428   4.840  1.4017 -0.3717 -1.4045
 2521SOL     OW 7882   5.202   1.347   1.634 -0.2969 -0.4778  1.3553
 2521SOL    HW1 7883   5.277   1.332   1.699 -0.1069  2.2043  1.8799
 2521SOL    HW2 7884   5.219   1.295   1.550  1.8386 -0.4334  1.7095
 2522SOL     OW 7885   4.573   0.814   1.411  0.5953  0.4879  0.7655
 2522SOL    HW1 7886   4.571   0.717   1.436  2.4892 -0.2621 -1.6036
 2522SOL    HW2 7887   4.492   0.860   1.448 -1.1132 -2.2900  0.7316
 2523SOL     OW 7888   1.734   0.254   3.739  0.2805  0.1199 -0.1972
 2523SOL    HW1 7889   1.773   0.264   3.647 -0.7924 -0.9185 -0.7964
 2523SOL    HW2 7890   1.648   0.304   3.744  0.3453  0.1899  0.2659
 2524SOL     OW 7891   4.302   1.455   0.107  0.3011  0.2363 -0.0385
 2524SOL    HW1 7892   4.275   1.550   0.089  0.6544  0.5878  1.1936
 2524SOL    HW2 7893   4.376   1.429   0.045  0.2704  0.8018 -0.3210
 2525SOL     OW 7894   2.445   0.672   2.197  0.4333  0.4144 -0.3391
 2525SOL    HW1 7895   2.425   0.742   2.128  1.1053 -0.7312 -1.7263
 2525SOL    HW2 7896   2.364   0.660   2.255  0.5206  2.8095  0.3988
 2526SOL     OW 7897   2.644   1.449   4.621 -0.2118 -0.0482  0.1097
 2526SOL    HW1 7898   2.621   1.497   4.706 -2.2198 -2.0506  0.8172
 2526SOL    HW2 7899   2.608   1.500   4.543  1.2158  1.5634  0.4546
 2527SOL     OW 7900   1.505   0.106   5.444 -1.0007 -0.0926 -0.3515
 2527SOL    HW1 7901   1.592   0.083   5.402  0.0909  3.8649 -0.6830
 2527SOL    HW2 7902   1.435   0.117   5.374 -1.6493 -2.3795 -0.1561
 2528SOL     OW 7903   2.695   4.732   0.138 -0.9418  0.3112  0.0612
 2528SOL    HW1 7904   2.711   4.754   0.042 -0.3440  0.8377  0.2725
 2528SOL    HW2 7905   2.648   4.808   0.182 -0.1606  0.5801  0.4543
 2529SOL     OW 7906   2.275   4.714   0.085 -0.0324 -0.0426  0.3791
 2529SOL    HW1 7907   2.270   4.795   0.144  1.0528 -1.5271  2.6349
 2529SOL    HW2 7908   2.353   4.658   0.111 -0.2064 -1.4132 -1.7389
 2530SOL     OW 7909   2.990   2.108   3.611  0.5362  0.0776 -0.0122
 2530SOL    HW1 7910   3.081   2.130   3.576  0.5135 -0.9958 -0.8287
 2530SOL    HW2 7911   2.923   2.171   3.571  0.7597  0.0418 -0.4562
 2531SOL     OW 7912   3.226   1.784   0.851  0.0412  0.3168  0.1241
 2531SOL    HW1 7913   3.163   1.849   0.808 -0.4619 -0.2279  0.0197
 2531SOL    HW2 7914   3.264   1.723   0.781  0.7050  0.6523  0.1842
 2532SOL     OW 7915   1.289   1.451   4.311  0.5719 -0.0258 -0.4000
 2532SOL    HW1 7916   1.309   1.538   4.356  2.0151 -1.0391  1.0485
 2532SOL    HW2 7917   1.352   1.437   4.235 -0.0462  0.4272 -1.0127
 2533SOL     OW 7918   2.831   2.690   4.812 -0.0128 -0.1616  0.4649
 2533SOL    HW1 7919   2.817   2.604   4.862 -0.5953  0.0452  0.6626
 2533SOL    HW2 7920   2.759   2.702   4.745  0.8376 -0.4933 -0.5304
 2534SOL     OW 7921   2.833   3.968   4.062  0.5375  0.5602 -0.1924
 2534SOL    HW1 7922   2.909   3.997   4.121  0.4671  0.0190  0.1771
 2534SOL    HW2 7923   2.822   4.033   3.987  0.5291  1.3586  0.4780
 2535SOL     OW 7924   3.191   1.206   0.454  0.5207 -0.3815 -0.7763
 2535SOL    HW1 7925   3.181   1.147   0.375  1.9671 -0.9965 -0.5264
 2535SOL    HW2 7926   3.136   1.170   0.530  0.0742 -0.4577 -1.1345
 2536SOL     OW 7927   1.994   1.081   3.997  0.1909 -0.4176  0.5373
 2536SOL    HW1 7928   1.982   0.989   3.960 -0.1131  0.0822 -0.6906
 2536SOL    HW2 7929   2.004   1.077   4.096 -1.4153 -1.6465  0.6907
 2537SOL     OW 7930   3.402   0.172   5.055  0.1047  0.9384  0.0517
 2537SOL    HW1 7931   3.321   0.149   5.108  0.6045 -1.4348 -0.0561
 2537SOL    HW2 7932   3.475   0.201   5.116  0.0440  0.2160  0.4861
 2538SOL     OW 7933   2.943   5.101   5.198  0.0995  0.3382  0.1266
 2538SOL    HW1 7934   2.942   5.005   5.172 -0.3749  0.9028 -2.2170
 2538SOL    HW2 7935   3.014   5.149   5.145 -0.2772  1.4416  0.5933
 2539SOL     OW 7936   0.999   3.728   3.041  0.3051  0.1071 -0.3445
 2539SOL    HW1 7937   0.921   3.790   3.044  0.9904  1.0115  2.7384
 2539SOL    HW2 7938   1.078   3.775   3.002  1.1191  1.7419  2.9484
 2540SOL     OW 7939   4.542   2.587   3.799  0.3544  0.2523  0.3470
 2540SOL    HW1 7940   4.486   2.638   3.734 -0.5473 -0.6166  0.4159
 2540SOL    HW2 7941   4.491   2.575   3.884  0.4671 -0.9003  0.2704
 2541SOL     OW 7942   1.480   0.398   5.057 -0.3722 -0.3077  0.3823
 2541SOL    HW1 7943   1.507   0.494   5.048  1.9677 -0.9384 -0.0012
 2541SOL    HW2 7944   1.409   0.377   4.989  1.0252  0.5268 -1.4273
 2542SOL     OW 7945   5.214   1.832   4.460  0.4763 -0.2916 -0.4393
 2542SOL    HW1 7946   5.141   1.769   4.487  0.5361 -0.2784 -0.2462
 2542SOL    HW2 7947   5.175   1.922   4.441  0.4967 -0.1725  0.0761
 2543SOL     OW 7948   2.742   4.406   5.316 -0.2290 -0.5769  0.1816
 2543SOL    HW1 7949   2.789   4.377   5.399  1.5554 -0.9443 -0.9230
 2543SOL    HW2 7950   2.787   4.368   5.236 -1.7578 -0.0223 -1.0033
 2544SOL     OW 7951   3.129   0.652   4.871 -0.2513  0.0795  0.2928
 2544SOL    HW1 7952   3.192   0.622   4.942  2.4718  1.5490 -1.3575
 2544SOL    HW2 7953   3.117   0.578   4.805  0.0117 -0.0909  0.4318
 2545SOL     OW 7954   4.859   1.888   3.591 -0.0199  0.2455 -0.1274
 2545SOL    HW1 7955   4.874   1.987   3.596 -0.7338  0.3055  1.0629
 2545SOL    HW2 7956   4.886   1.845   3.676  0.6034 -0.6522 -0.7582
 2546SOL     OW 7957   1.506   1.850   5.238 -0.2108  0.0371  0.9380
 2546SOL    HW1 7958   1.485   1.896   5.151  0.0987 -1.1835  0.1988
 2546SOL    HW2 7959   1.477   1.908   5.314 -0.9997  0.8867  0.0127
 2547SOL     OW 7960   3.478   3.564   3.453 -0.2005  0.0555 -0.3945
 2547SOL    HW1 7961   3.520   3.652   3.474  0.5724 -0.2438 -0.6220
 2547SOL    HW2 7962   3.388   3.578   3.412  0.4451  0.7955 -1.6324
 2548SOL     OW 7963   4.703   0.549   0.524 -0.4739 -0.5612  0.0211
 2548SOL    HW1 7964   4.739   0.460   0.494  1.2225  0.3987 -0.9252
 2548SOL    HW2 7965   4.616   0.566   0.479 -0.5592 -1.5010 -0.2081
 2549SOL     OW 7966   2.996   1.678   3.162 -0.0675 -0.8228 -0.4836
 2549SOL    HW1 7967   3.056   1.599   3.148 -0.3898 -1.2451  0.4231
 2549SOL    HW2 7968   3.004   1.741   3.085  1.7870 -0.7081 -0.2314
 2550SOL     OW 7969   1.905   0.765   3.542 -0.3461 -0.7284  0.0477
 2550SOL    HW1 7970   1.905   0.862   3.564  0.3737 -0.0242 -2.7548
 2550SOL    HW2 7971   1.998   0.728   3.551 -0.5630 -1.1186  0.8144
 2551SOL     OW 7972   2.885   1.002   0.073 -0.3954 -0.3956  0.9703
 2551SOL    HW1 7973   2.850   1.036   0.161  1.1813  1.9469  0.8067
 2551SOL    HW2 7974   2.916   1.080   0.018  1.7813 -2.0290 -0.2715
 2552SOL     OW 7975   1.307   3.376   5.496 -0.2282 -0.3128 -0.4515
 2552SOL    HW1 7976   1.249   3.372   5.578  0.4953  3.7027  0.4901
 2552SOL    HW2 7977   1.253   3.408   5.418  0.3028  2.4644  0.1966
 2553SOL     OW 7978   3.340   1.435   0.462 -0.3115  0.4112  0.5671
 2553SOL    HW1 7979   3.301   1.345   0.442  1.0119 -0.3309  1.1660
 2553SOL    HW2 7980   3.363   1.481   0.376  0.5734 -0.5678  0.2500
 2554SOL     OW 7981   4.169   1.675   4.782  0.2649 -0.5837 -0.1321
 2554SOL    HW1 7982   4.166   1.684   4.881  0.2852  0.8981 -0.2376
 2554SOL    HW2 7983   4.099   1.734   4.741  0.3699 -1.0467 -1.0123
 2555SOL     OW 7984   3.399   3.562   0.886 -0.3349  0.1832 -0.0847
 2555SOL    HW1 7985   3.498   3.559   0.891 -0.3474 -1.6557 -0.3584
 2555SOL    HW2 7986   3.365   3.638   0.942  1.2264  1.1225 -0.3604
 2556SOL     OW 7987   4.786   4.189   4.702  0.0301 -0.3062  0.4419
 2556SOL    HW1 7988   4.706   4.249   4.710 -0.2535 -0.5973 -0.1311
 2556SOL    HW2 7989   4.813   4.183   4.606  0.1328 -0.9987  0.5123
 2557SOL     OW 7990   3.115   0.955   1.210 -0.0565  0.2262 -0.2767
 2557SOL    HW1 7991   3.154   1.047   1.202  0.4185  0.0411 -0.1257
 2557SOL    HW2 7992   3.016   0.959   1.195 -0.0197  0.7425 -0.3944
 2558SOL     OW 7993   4.692   2.410   5.133  0.2440 -0.0991 -0.6317
 2558SOL    HW1 7994   4.726   2.375   5.046  0.3834 -0.8088 -0.2931
 2558SOL    HW2 7995   4.738   2.364   5.208  0.8317  1.1931 -0.1689
 2559SOL     OW 7996   3.763   4.342   1.613 -0.3923 -0.0636 -0.1988
 2559SOL    HW1 7997   3.703   4.276   1.568 -0.9065  0.0150  0.3636
 2559SOL    HW2 7998   3.710   4.397   1.678 -0.2141  1.7176 -1.4811
 2560SOL     OW 7999   2.875   1.986   0.308  0.1459 -0.1710 -0.3104
 2560SOL    HW1 8000   2.897   1.960   0.402  0.9769 -0.8362 -0.6715
 2560SOL    HW2 8001   2.828   2.074   0.307 -0.6632 -0.5787  0.7888
 2561SOL     OW 8002   2.379   3.729   1.169  0.5000  0.1850  0.0909
 2561SOL    HW1 8003   2.289   3.725   1.211  1.3656  1.1865  2.2189
 2561SOL    HW2 8004   2.371   3.718   1.070 -1.7488 -1.4606  0.3905
 2562SOL     OW 8005   2.139   1.311   0.484  0.4992  0.5557 -0.3974
 2562SOL    HW1 8006   2.146   1.221   0.528  1.7408  0.6863 -0.2976
 2562SOL    HW2 8007   2.168   1.303   0.389 -0.9955  0.5309 -0.8814
 2563SOL     OW 8008   4.376   1.566   5.051 -0.3475 -0.5174 -0.3151
 2563SOL    HW1 8009   4.278   1.553   5.041 -0.3159 -1.2589  0.2941
 2563SOL    HW2 8010   4.401   1.564   5.148  0.2161  0.0793 -0.4386
 2564SOL     OW 8011   3.174   3.265   0.399  0.2033  0.4020 -0.1805
 2564SOL    HW1 8012   3.142   3.327   0.470  0.3830 -0.1699  0.4123
 2564SOL    HW2 8013   3.248   3.309   0.347  2.2958 -0.2608  2.0046
 2565SOL     OW 8014   1.395   3.203   2.585 -0.0177 -0.0187  0.5263
 2565SOL    HW1 8015   1.439   3.284   2.545  1.9604 -0.5100  1.5819
 2565SOL    HW2 8016   1.331   3.233   2.656  0.2539  0.6368  0.5063
 2566SOL     OW 8017   1.703   3.307   0.506  0.0980  0.5698  0.2844
 2566SOL    HW1 8018   1.694   3.239   0.433 -1.9788 -1.7404  2.4894
 2566SOL    HW2 8019   1.800   3.328   0.520  0.7187 -0.8663 -1.4400
 2567SOL     OW 8020   1.880   3.422   1.815  0.6429  0.3383 -0.6255
 2567SOL    HW1 8021   1.836   3.424   1.726  0.0983  0.0946 -0.3687
 2567SOL    HW2 8022   1.965   3.474   1.812  0.4722  0.5853 -1.2014
 2568SOL     OW 8023   1.449   2.420   0.765  0.2625 -0.6151  0.1406
 2568SOL    HW1 8024   1.440   2.353   0.839  1.4396 -0.8726  0.0702
 2568SOL    HW2 8025   1.365   2.474   0.759 -0.8260 -2.2418  0.0375
 2569SOL     OW 8026   5.152   2.627   1.059  0.0281  0.0781  0.0215
 2569SOL    HW1 8027   5.128   2.549   1.118 -1.9042  0.4862 -0.1451
 2569SOL    HW2 8028   5.096   2.624   0.976 -0.8707  2.2106  0.4916
 2570SOL     OW 8029   0.065   2.260   0.380  0.3781  1.0196  0.6265
 2570SOL    HW1 8030   0.000   2.329   0.350  0.4049  0.1104 -1.7545
 2570SOL    HW2 8031   0.027   2.210   0.458 -2.3821 -0.1818 -1.3075
 2571SOL     OW 8032   4.252   3.660   3.569  0.8820  0.1946  0.0300
 2571SOL    HW1 8033   4.165   3.708   3.573  0.1148 -1.0870 -0.5063
 2571SOL    HW2 8034   4.319   3.707   3.627 -0.7480  0.0287  2.1783
 2572SOL     OW 8035   1.865   4.635   5.218  0.1584 -0.2779  0.2547
 2572SOL    HW1 8036   1.802   4.655   5.292 -1.0419  2.1010 -1.2734
 2572SOL    HW2 8037   1.928   4.712   5.206  1.5335 -1.4026 -0.0745
 2573SOL     OW 8038   3.399   2.956   0.552 -0.0698 -0.4495  0.5324
 2573SOL    HW1 8039   3.466   2.937   0.480 -0.8310 -0.9414 -0.0690
 2573SOL    HW2 8040   3.442   2.944   0.642  1.8492  3.3655  0.2910
 2574SOL     OW 8041   3.752   2.992   0.646  0.1713 -0.0271  0.0831
 2574SOL    HW1 8042   3.792   3.083   0.635  0.2273 -0.1176 -0.4709
 2574SOL    HW2 8043   3.796   2.928   0.583 -1.5714  0.1004 -1.3429
 2575SOL     OW 8044   3.200   1.178   0.980 -0.4202 -0.0371  0.3168
 2575SOL    HW1 8045   3.221   1.094   1.030 -2.6874 -1.5107 -1.0392
 2575SOL    HW2 8046   3.267   1.192   0.908  1.1472  0.4956  1.7999
 2576SOL     OW 8047   1.957   4.322   2.214 -0.3468  0.3869 -0.5085
 2576SOL    HW1 8048   1.905   4.392   2.166  0.4747  0.7896 -0.8271
 2576SOL    HW2 8049   1.934   4.232   2.176 -1.9986  0.3749  0.4379
 2577SOL     OW 8050   2.922   3.334   1.336  0.2782  0.0524  0.1622
 2577SOL    HW1 8051   2.930   3.282   1.251 -0.8798 -0.9440  0.6337
 2577SOL    HW2 8052   2.866   3.415   1.319  1.6299  0.8952 -0.4446
 2578SOL     OW 8053   1.750   3.240   1.221 -0.0068  0.1098  0.2976
 2578SOL    HW1 8054   1.651   3.245   1.215 -0.0879 -0.0821  1.4253
 2578SOL    HW2 8055   1.790   3.297   1.148 -0.9191 -0.6323 -0.8224
 2579SOL     OW 8056   0.573   2.281   1.907 -0.0715  0.4336 -0.5197
 2579SOL    HW1 8057   0.523   2.367   1.897  0.8092  1.1002  0.6182
 2579SOL    HW2 8058   0.594   2.264   2.003  1.3648 -0.1146 -0.8947
 2580SOL     OW 8059   3.810   2.528   0.629  0.1483  0.0024 -0.9772
 2580SOL    HW1 8060   3.874   2.571   0.566  1.6060 -0.9073 -0.1795
 2580SOL    HW2 8061   3.854   2.517   0.718 -1.0640 -0.8391 -0.4575
 2581SOL     OW 8062   1.695   2.102   1.142  0.3474  0.2353  0.1389
 2581SOL    HW1 8063   1.607   2.133   1.178 -0.8633 -0.7582 -1.7795
 2581SOL    HW2 8064   1.680   2.057   1.054  2.2338 -3.5353  1.5447
 2582SOL     OW 8065   3.853   2.174   0.935 -0.0178  0.3404  0.1700
 2582SOL    HW1 8066   3.782   2.245   0.932 -0.2700  0.0732 -0.2461
 2582SOL    HW2 8067   3.905   2.176   0.849 -0.1802 -0.1403  0.0632
 2583SOL     OW 8068   1.234   4.205   1.180  0.3404  0.3376  0.8041
 2583SOL    HW1 8069   1.312   4.266   1.178  2.5766 -2.3004 -1.9248
 2583SOL    HW2 8070   1.265   4.112   1.202 -0.7748 -1.9341 -5.2031
 2584SOL     OW 8071   2.191   2.678   1.812 -0.3022  0.0010 -0.6891
 2584SOL    HW1 8072   2.226   2.699   1.903 -1.5308  2.5717 -0.6973
 2584SOL    HW2 8073   2.258   2.624   1.762  0.2877 -1.7485  1.7894
 2585SOL     OW 8074   3.333   2.675   0.489  0.9355 -0.2337  0.2067
 2585SOL    HW1 8075   3.330   2.736   0.409  1.4871  0.8045  0.9462
 2585SOL    HW2 8076   3.429   2.657   0.513  0.8013  0.3378  1.2479
 2586SOL     OW 8077   4.710   3.728   4.917 -0.6008 -0.3901 -0.1354
 2586SOL    HW1 8078   4.636   3.735   4.985 -1.9508 -1.1356 -1.4754
 2586SOL    HW2 8079   4.739   3.820   4.891 -1.8856 -0.0370 -0.4379
 2587SOL     OW 8080   3.062   2.193   1.543 -0.8932  0.4737 -0.3723
 2587SOL    HW1 8081   2.994   2.157   1.607 -2.9509  1.4590 -1.8772
 2587SOL    HW2 8082   3.091   2.284   1.573  1.5121 -0.7907  1.4387
 2588SOL     OW 8083   3.612   5.432   1.796 -0.4733  0.6787 -0.4563
 2588SOL    HW1 8084   3.561   5.354   1.761 -1.7580  1.7951 -1.1706
 2588SOL    HW2 8085   3.709   5.421   1.774 -0.6152 -0.7385 -0.4581
 2589SOL     OW 8086   2.366   2.538   0.928 -0.5148  0.5785 -0.3295
 2589SOL    HW1 8087   2.439   2.582   0.981 -1.6097  1.5470  0.4193
 2589SOL    HW2 8088   2.324   2.467   0.984  0.4489 -0.6416 -1.1048
 2590SOL     OW 8089   3.508   2.559   1.968 -0.2195 -0.4814  0.0938
 2590SOL    HW1 8090   3.416   2.576   1.933  0.1551  1.0433 -0.2279
 2590SOL    HW2 8091   3.505   2.561   2.068 -0.6711 -1.2902  0.1069
 2591SOL     OW 8092   1.506   1.066   0.397  0.2316  0.2218  0.2741
 2591SOL    HW1 8093   1.473   1.159   0.383  0.3382  0.1757 -0.2891
 2591SOL    HW2 8094   1.604   1.067   0.417 -0.1502  0.4040  2.4675
 2592SOL     OW 8095   2.669   2.023   1.768  0.1213 -0.1698 -0.2211
 2592SOL    HW1 8096   2.614   1.979   1.696 -0.6420 -0.8232  0.7296
 2592SOL    HW2 8097   2.683   1.958   1.843 -0.4634  0.9987  0.9297
 2593SOL     OW 8098   3.100   3.730   0.478  0.0807  0.0529  0.2045
 2593SOL    HW1 8099   3.047   3.810   0.451 -0.4960 -0.2483  0.4136
 2593SOL    HW2 8100   3.166   3.756   0.548  0.6626  0.5634 -0.5180
 2594SOL     OW 8101   5.159   1.696   0.912  0.3119  0.4920 -0.2776
 2594SOL    HW1 8102   5.197   1.774   0.863  1.6172  1.1071  1.5969
 2594SOL    HW2 8103   5.159   1.715   1.010 -1.9049 -0.8045  0.0469
 2595SOL     OW 8104   1.737   1.957   1.469  0.0808 -0.0050 -0.5102
 2595SOL    HW1 8105   1.773   2.046   1.498  2.0750 -0.7504 -0.5613
 2595SOL    HW2 8106   1.644   1.969   1.435 -0.2129  1.8329  0.7589
 2596SOL     OW 8107   3.379   2.692   1.550 -0.1739  0.1959 -0.5758
 2596SOL    HW1 8108   3.460   2.660   1.598  0.3644 -1.7095 -2.5872
 2596SOL    HW2 8109   3.406   2.757   1.479  0.1023 -2.4425 -3.0735
 2597SOL     OW 8110   0.319   0.680   1.077  0.0674  0.0711  0.2746
 2597SOL    HW1 8111   0.409   0.676   1.119 -0.8512  0.7400  2.4467
 2597SOL    HW2 8112   0.275   0.590   1.082  1.5743 -1.0420 -3.3092
 2598SOL     OW 8113   2.570   3.120   0.531  0.0045  0.5316 -0.7626
 2598SOL    HW1 8114   2.655   3.074   0.507  0.2434  0.2079  0.5986
 2598SOL    HW2 8115   2.573   3.147   0.627 -0.7493  2.0402 -1.1275
 2599SOL     OW 8116   1.921   3.843   1.530  0.1400  0.8640 -0.6870
 2599SOL    HW1 8117   1.859   3.922   1.537  1.7971  2.6141 -3.5338
 2599SOL    HW2 8118   1.871   3.764   1.495 -1.3290  0.9375  1.1338
 2600SOL     OW 8119   4.545   1.934   1.998 -0.2018 -0.1983 -0.2407
 2600SOL    HW1 8120   4.546   1.835   1.985  0.1496 -0.2402  0.0700
 2600SOL    HW2 8121   4.543   1.955   2.096  0.4453  0.0948 -0.2828
 2601SOL     OW 8122   3.452   3.785   0.542  0.4440 -0.3865  0.4136
 2601SOL    HW1 8123   3.495   3.788   0.452  2.1698 -1.2738  1.1663
 2601SOL    HW2 8124   3.443   3.690   0.572 -0.6326 -0.1293  0.9507
 2602SOL     OW 8125   4.007   2.712   1.872  0.3020 -0.4911 -0.0540
 2602SOL    HW1 8126   3.907   2.712   1.882  0.3206  0.9016  0.2840
 2602SOL    HW2 8127   4.050   2.706   1.962  0.5797 -2.9038 -0.2661
 2603SOL     OW 8128   4.041   1.839   0.476  0.1193 -0.5126  0.1241
 2603SOL    HW1 8129   3.947   1.807   0.481 -0.0512  0.0937  1.1823
 2603SOL    HW2 8130   4.046   1.920   0.418  0.0623 -0.7958 -0.2746
 2604SOL     OW 8131   2.928   4.939   3.848 -0.2005  0.4689  0.9756
 2604SOL    HW1 8132   2.973   4.855   3.880 -0.9205  0.0409  0.8920
 2604SOL    HW2 8133   2.838   4.915   3.809 -0.1915  1.2180  0.4825
 2605SOL     OW 8134   1.733   1.768   0.634 -0.2311 -0.0657 -0.1138
 2605SOL    HW1 8135   1.820   1.800   0.673  1.0023  0.7006 -3.1775
 2605SOL    HW2 8136   1.751   1.695   0.569 -1.9650 -0.3018 -0.3662
 2606SOL     OW 8137   3.278   2.353   0.243 -0.0714  0.6534 -0.0373
 2606SOL    HW1 8138   3.213   2.281   0.220  1.0368  0.0886 -1.5753
 2606SOL    HW2 8139   3.278   2.369   0.342  0.1188 -1.9066  0.4313
 2607SOL     OW 8140   2.330   3.205   5.307  0.5043 -0.1992 -0.2740
 2607SOL    HW1 8141   2.307   3.119   5.353 -2.5003 -0.1535 -1.4426
 2607SOL    HW2 8142   2.362   3.271   5.374 -1.6210 -0.8150  1.4656
 2608SOL     OW 8143   3.195   3.009   3.768  0.3569 -0.3154 -0.3067
 2608SOL    HW1 8144   3.280   3.061   3.759 -0.1503  0.6165  0.1409
 2608SOL    HW2 8145   3.176   2.992   3.864 -0.0020 -0.4394 -0.3966
 2609SOL     OW 8146   1.070   2.980   0.009 -0.5635 -0.1600 -0.2914
 2609SOL    HW1 8147   1.135   3.024  -0.054  0.6771 -1.3960  0.0885
 2609SOL    HW2 8148   1.102   2.991   0.103 -2.6747  2.1271  0.2680
 2610SOL     OW 8149   1.690   3.502   4.962 -0.1012 -0.1921 -0.4335
 2610SOL    HW1 8150   1.648   3.449   5.035  1.9131  0.2898  1.1541
 2610SOL    HW2 8151   1.685   3.600   4.984 -0.4709  0.0412 -1.4975
 2611SOL     OW 8152   1.437   2.604   1.148  0.2965 -0.6389  0.1424
 2611SOL    HW1 8153   1.480   2.668   1.211  1.5893 -0.6716 -0.6650
 2611SOL    HW2 8154   1.422   2.649   1.060 -3.5298  0.1028  1.0283
 2612SOL     OW 8155   3.540   2.570   2.221 -0.8646 -0.4125  0.1962
 2612SOL    HW1 8156   3.463   2.588   2.282 -0.3874  2.4285  0.1327
 2612SOL    HW2 8157   3.620   2.542   2.275 -1.2346 -0.8100  0.5407
 2613SOL     OW 8158   4.198   0.104   1.374 -0.0602 -0.0782  0.1343
 2613SOL    HW1 8159   4.123   0.171   1.372 -0.0475 -0.0630  0.1680
 2613SOL    HW2 8160   4.210   0.071   1.467  0.9506  1.0044  0.4032
 2614SOL     OW 8161   2.732   1.355   0.631 -0.3199 -0.2529  0.4682
 2614SOL    HW1 8162   2.828   1.379   0.624  0.1708 -2.1463 -0.0127
 2614SOL    HW2 8163   2.696   1.383   0.720  1.1317 -0.9328  1.3075
 2615SOL     OW 8164   3.520   4.339   3.704  0.0517  0.3026 -0.2242
 2615SOL    HW1 8165   3.566   4.371   3.787 -2.2236  2.1511  0.4173
 2615SOL    HW2 8166   3.544   4.398   3.627 -2.3317  2.3291  0.4616
 2616SOL     OW 8167   0.034   3.071   1.041 -0.0600 -0.1958  1.0082
 2616SOL    HW1 8168   0.079   2.982   1.046 -0.0945 -0.2776  0.0714
 2616SOL    HW2 8169  -0.039   3.076   1.110 -0.3782 -1.0827  0.7471
 2617SOL     OW 8170   1.846   3.668   0.778  0.0585 -0.3120  0.0481
 2617SOL    HW1 8171   1.796   3.688   0.862 -0.7071  0.1011 -0.4980
 2617SOL    HW2 8172   1.878   3.753   0.736  0.3426 -0.5084 -0.1459
 2618SOL     OW 8173   4.334   2.867   5.109 -0.0807 -0.1294 -0.3610
 2618SOL    HW1 8174   4.267   2.879   5.036  0.5237  1.0319 -0.7585
 2618SOL    HW2 8175   4.286   2.859   5.197 -0.7737  2.0608 -0.4600
 2619SOL     OW 8176   2.303   2.819   0.980 -0.1777 -0.1914 -1.0433
 2619SOL    HW1 8177   2.217   2.865   1.001 -0.6950 -2.3213  2.1235
 2619SOL    HW2 8178   2.284   2.727   0.944  0.6592 -1.2656  1.1062
 2620SOL     OW 8179   4.041   2.630   0.544  0.1975 -0.4965  0.4891
 2620SOL    HW1 8180   4.113   2.582   0.494  0.2437 -0.6111  0.6642
 2620SOL    HW2 8181   4.079   2.669   0.627  0.4156  0.8138 -0.2049
 2621SOL     OW 8182   1.787   0.637   4.904 -0.2067  0.0983  0.1118
 2621SOL    HW1 8183   1.804   0.717   4.961  0.3801 -0.3827  0.6203
 2621SOL    HW2 8184   1.874   0.600   4.871 -0.5292  0.3356 -1.0624
 2622SOL     OW 8185   4.122   4.460   1.216 -0.2444  0.1183 -0.4731
 2622SOL    HW1 8186   4.220   4.448   1.232 -0.6489 -2.7751  0.3683
 2622SOL    HW2 8187   4.103   4.453   1.118  0.2530 -0.6433 -0.5224
 2623SOL     OW 8188   4.034   2.732   1.457 -0.0643  0.0176 -0.2328
 2623SOL    HW1 8189   3.976   2.702   1.532  1.9063 -1.1903  0.8977
 2623SOL    HW2 8190   4.047   2.831   1.461 -2.5069  0.4167 -0.9141
 2624SOL     OW 8191   2.563   3.314   5.183 -0.7499 -0.1916 -0.2752
 2624SOL    HW1 8192   2.471   3.296   5.217 -1.1176 -1.3331 -1.7951
 2624SOL    HW2 8193   2.630   3.285   5.252 -1.5070  0.3281  0.6922
 2625SOL     OW 8194   2.679   4.014   1.787 -0.3408 -0.1522  0.1387
 2625SOL    HW1 8195   2.639   3.923   1.780  0.6051 -0.5376 -0.5988
 2625SOL    HW2 8196   2.764   4.009   1.839  0.1534  0.1328 -0.6124
 2626SOL     OW 8197   3.203   4.051   4.549  0.4080  0.3638 -0.2795
 2626SOL    HW1 8198   3.208   4.134   4.493  1.5233 -1.0765 -2.4522
 2626SOL    HW2 8199   3.287   4.042   4.603 -0.0382  1.0004  0.5436
 2627SOL     OW 8200   4.681   2.076   1.028 -0.1723 -0.0953  0.0934
 2627SOL    HW1 8201   4.776   2.056   1.054 -0.9684 -1.1064  2.4879
 2627SOL    HW2 8202   4.631   1.991   1.015 -1.8720  0.2073  3.5678
 2628SOL     OW 8203   1.448   2.183   1.288  0.4267  0.3026 -0.3141
 2628SOL    HW1 8204   1.497   2.226   1.363  0.5002 -1.5760  0.7687
 2628SOL    HW2 8205   1.369   2.239   1.263  0.5022  1.0506  1.0372
 2629SOL     OW 8206   2.780   2.430   4.951 -0.7002 -0.3437  0.3004
 2629SOL    HW1 8207   2.753   2.497   5.020 -2.1667 -0.6887  0.0925
 2629SOL    HW2 8208   2.818   2.349   4.995  0.9749  0.5273  0.5611
 2630SOL     OW 8209   2.287   2.839   0.359 -0.3691 -0.6218  0.0093
 2630SOL    HW1 8210   2.294   2.763   0.295 -0.4230 -0.6581  0.0461
 2630SOL    HW2 8211   2.352   2.826   0.434 -1.7655 -1.6591  1.0760
 2631SOL     OW 8212   2.231   2.385   1.259 -0.5064  0.1923 -0.2225
 2631SOL    HW1 8213   2.223   2.476   1.217 -0.4171 -0.4707 -1.7552
 2631SOL    HW2 8214   2.317   2.343   1.231 -0.6554 -0.4550  0.2823
 2632SOL     OW 8215   2.738   2.065   5.439 -0.0144  0.1873 -0.1113
 2632SOL    HW1 8216   2.736   1.970   5.409 -1.2036  0.0070  0.5105
 2632SOL    HW2 8217   2.832   2.100   5.430  0.5849 -1.2357  0.2953
 2633SOL     OW 8218   4.893   5.507   0.972  0.1608  0.0939  0.2646
 2633SOL    HW1 8219   4.859   5.588   0.924  1.1240 -0.8678 -2.2024
 2633SOL    HW2 8220   4.954   5.535   1.046  1.3695  1.6185 -1.2440
 2634SOL     OW 8221   3.884   3.144   0.318 -0.3810  1.0127  0.1299
 2634SOL    HW1 8222   3.914   3.176   0.228 -0.9083  0.9036 -0.0883
 2634SOL    HW2 8223   3.953   3.082   0.355  0.8996  2.7614  0.7893
 2635SOL     OW 8224   3.444   2.534   0.175 -0.0474  0.3798  0.0658
 2635SOL    HW1 8225   3.393   2.452   0.200  1.9991 -0.6751  0.9541
 2635SOL    HW2 8226   3.386   2.614   0.187 -2.0323 -0.8765 -0.6285
 2636SOL     OW 8227   3.095   4.624   5.529  0.2458  0.0440  0.2629
 2636SOL    HW1 8228   3.182   4.576   5.514  0.0130 -0.3537  0.1814
 2636SOL    HW2 8229   3.078   4.687   5.453  0.0209 -0.5383 -0.1696
 2637SOL     OW 8230   3.625   2.864   0.394 -0.2646  0.2573 -0.3142
 2637SOL    HW1 8231   3.607   2.919   0.312  1.2826 -1.0323 -1.5768
 2637SOL    HW2 8232   3.719   2.832   0.392 -0.3892 -0.3357  1.6871
 2638SOL     OW 8233   4.649   1.731   5.404  0.1810  0.0406 -0.3996
 2638SOL    HW1 8234   4.628   1.722   5.501 -2.8511  0.4333 -0.9419
 2638SOL    HW2 8235   4.697   1.649   5.373 -0.7941 -1.0789  0.9591
 2639SOL     OW 8236   3.033   2.192   1.269 -0.2716  0.4234  0.2805
 2639SOL    HW1 8237   3.090   2.123   1.224 -0.6330  0.2621  0.0624
 2639SOL    HW2 8238   3.055   2.195   1.366  1.4879  1.7281 -0.0990
 2640SOL     OW 8239   2.995   2.400   0.376  0.1154  0.1512 -0.0873
 2640SOL    HW1 8240   2.979   2.308   0.340  0.0335 -0.9230  2.4977
 2640SOL    HW2 8241   3.089   2.407   0.409 -0.0511  0.8108  0.2658
 2641SOL     OW 8242   2.742   2.136   0.617  0.0138  0.2437 -0.6266
 2641SOL    HW1 8243   2.715   2.203   0.547 -0.4547  0.7345  0.0071
 2641SOL    HW2 8244   2.670   2.067   0.626  1.0276 -1.0905 -2.1422
 2642SOL     OW 8245   2.751   1.412   5.185  0.3677  0.1778 -0.0647
 2642SOL    HW1 8246   2.705   1.467   5.254  0.4092  1.1574 -0.7953
 2642SOL    HW2 8247   2.686   1.385   5.114 -0.2246 -2.7627  1.4306
 2643SOL     OW 8248   2.965   2.834   5.332 -0.8574  0.6039  0.1385
 2643SOL    HW1 8249   3.042   2.890   5.303 -1.8099  1.1184 -1.5156
 2643SOL    HW2 8250   2.882   2.863   5.284 -1.5870 -1.5962 -0.0388
 2644SOL     OW 8251   1.874   2.183   1.647  0.0465 -0.1234  0.0759
 2644SOL    HW1 8252   1.794   2.240   1.666  0.8673  1.0516  0.0974
 2644SOL    HW2 8253   1.918   2.157   1.733 -0.0779 -0.4334  0.0474
 2645SOL     OW 8254   1.228   4.898   2.119  0.3244 -0.3546  0.1896
 2645SOL    HW1 8255   1.204   4.874   2.025  0.0147 -0.7186  0.3641
 2645SOL    HW2 8256   1.226   4.817   2.177  2.3173 -0.4916  0.1496
 2646SOL     OW 8257   3.959   2.834   5.503 -0.1585  0.1127 -0.0333
 2646SOL    HW1 8258   3.876   2.808   5.453  1.1417 -1.6442 -1.4200
 2646SOL    HW2 8259   4.018   2.888   5.444  0.2626  0.2695  0.5222
 2647SOL     OW 8260   3.480   0.869   1.570  0.1959  0.7747  0.1939
 2647SOL    HW1 8261   3.492   0.901   1.664 -0.4937  0.0521  0.5364
 2647SOL    HW2 8262   3.410   0.798   1.568  0.6298  0.3673 -0.7864
 2648SOL     OW 8263   4.010   4.113   4.480  0.1910 -0.1118 -0.4096
 2648SOL    HW1 8264   4.103   4.104   4.517  1.0479 -1.3359 -2.6524
 2648SOL    HW2 8265   4.012   4.173   4.400 -0.8751 -0.4528 -0.7005
 2649SOL     OW 8266   2.833   3.824   4.716 -0.2722 -0.2930  0.3408
 2649SOL    HW1 8267   2.830   3.741   4.660  2.6636 -0.0311 -0.3607
 2649SOL    HW2 8268   2.811   3.802   4.811 -1.4837 -1.4625 -0.1854
 2650SOL     OW 8269   3.457   0.815   1.033  0.2010 -0.7190 -0.9362
 2650SOL    HW1 8270   3.473   0.910   1.059  1.7702 -1.2144  0.0360
 2650SOL    HW2 8271   3.410   0.812   0.944 -2.5797  0.9659  0.3466
 2651SOL     OW 8272   1.346   1.234   0.637  0.4904 -0.2771 -0.1934
 2651SOL    HW1 8273   1.375   1.291   0.560  1.0092 -0.8757 -0.4493
 2651SOL    HW2 8274   1.247   1.244   0.652  0.5449  0.5355 -0.3540
 2652SOL     OW 8275   3.226   2.426   0.492  0.8814 -0.3035  0.6477
 2652SOL    HW1 8276   3.218   2.380   0.581  2.3189 -1.7138  0.0769
 2652SOL    HW2 8277   3.244   2.523   0.507 -2.0668  0.1795  1.8734
 2653SOL     OW 8278   3.658   3.471   2.500  0.1304  0.8664  0.1756
 2653SOL    HW1 8279   3.677   3.399   2.567  1.6870  0.9877 -0.0953
 2653SOL    HW2 8280   3.559   3.479   2.487 -0.0750 -1.4069  0.0062
 2654SOL     OW 8281   1.860   1.027   2.277  0.1270  0.0147 -0.4822
 2654SOL    HW1 8282   1.844   0.984   2.187 -0.1305  1.3125 -1.0881
 2654SOL    HW2 8283   1.780   1.011   2.335  0.4052 -1.0628 -0.3798
 2655SOL     OW 8284   2.772   1.142   3.226  0.3325  0.4789 -0.1711
 2655SOL    HW1 8285   2.694   1.202   3.211  0.5687  1.9019  3.4033
 2655SOL    HW2 8286   2.750   1.073   3.294  1.4608 -0.7002 -0.9445
 2656SOL     OW 8287   2.136   1.389   1.418  0.2299 -0.0242 -0.7024
 2656SOL    HW1 8288   2.126   1.290   1.431 -1.7348  0.2652  0.3405
 2656SOL    HW2 8289   2.202   1.425   1.483  0.6102 -0.5850 -0.7728
 2657SOL     OW 8290   2.957   1.543   0.639  0.2478 -0.0546  0.1039
 2657SOL    HW1 8291   2.894   1.598   0.695  0.5566  0.5783 -0.1657
 2657SOL    HW2 8292   3.042   1.528   0.690  0.1775 -0.2481  0.1630
 2658SOL     OW 8293   2.538   1.344   5.511 -1.0253 -0.0247 -0.2324
 2658SOL    HW1 8294   2.617   1.346   5.572 -2.1878  0.6416  1.3427
 2658SOL    HW2 8295   2.532   1.429   5.460 -1.3418  0.4257  0.5291
 2659SOL     OW 8296   1.773   1.455   5.075  0.0480  1.0653  0.0711
 2659SOL    HW1 8297   1.755   1.377   5.135 -0.9065  1.2244  0.0127
 2659SOL    HW2 8298   1.863   1.492   5.095  0.2127  0.4016  0.6091
 2660SOL     OW 8299   5.448   2.264   5.499 -0.3148 -0.3028  0.6940
 2660SOL    HW1 8300   5.402   2.346   5.532 -0.1393 -0.3218  0.9930
 2660SOL    HW2 8301   5.521   2.239   5.563  1.6052  1.0073 -0.8344
 2661SOL     OW 8302   0.321   1.123   4.938 -0.0493 -0.4603 -0.0315
 2661SOL    HW1 8303   0.289   1.029   4.928 -0.4632 -0.3888  0.5965
 2661SOL    HW2 8304   0.378   1.131   5.020 -0.5556 -0.0288  0.2885
 2662SOL     OW 8305   2.939   3.478   0.941  0.1239  0.4000  0.2018
 2662SOL    HW1 8306   2.903   3.409   0.878 -0.2408  0.0669  0.7638
 2662SOL    HW2 8307   2.946   3.566   0.894 -2.1353  0.6616  0.2606
 2663SOL     OW 8308   3.384   2.651   1.132 -0.1525  0.2598 -0.5190
 2663SOL    HW1 8309   3.397   2.684   1.039 -1.1875  2.7591  0.1430
 2663SOL    HW2 8310   3.303   2.593   1.136 -1.2509  1.6959 -0.8940
 2664SOL     OW 8311   4.355   1.343   0.929 -0.4091 -0.1788  0.3673
 2664SOL    HW1 8312   4.423   1.302   0.990  1.9145  2.5017 -0.1901
 2664SOL    HW2 8313   4.369   1.442   0.926 -2.1566  0.0932 -2.5146
 2665SOL     OW 8314   4.666   2.522   0.475  0.5911 -0.1754  0.1336
 2665SOL    HW1 8315   4.642   2.426   0.467 -2.8131  0.5549  0.0637
 2665SOL    HW2 8316   4.763   2.534   0.455  1.6634 -3.8103  2.2562
 2666SOL     OW 8317   4.823   2.741   1.284  0.0816 -0.6495  0.2952
 2666SOL    HW1 8318   4.784   2.649   1.280  0.3901 -0.7400 -1.3878
 2666SOL    HW2 8319   4.782   2.798   1.212  0.0753  0.4654  1.1473
 2667SOL     OW 8320   3.504   3.100   4.322  0.3328 -0.1712 -0.0633
 2667SOL    HW1 8321   3.504   3.055   4.411 -0.2780 -0.6266 -0.2892
 2667SOL    HW2 8322   3.498   3.199   4.335 -1.0467 -0.2878  0.3899
 2668SOL     OW 8323   4.744   2.381   5.411  0.0020 -0.2025 -0.3966
 2668SOL    HW1 8324   4.678   2.456   5.402 -1.8781 -1.8508 -1.0235
 2668SOL    HW2 8325   4.706   2.310   5.469  1.6251 -0.8418 -0.0638
 2669SOL     OW 8326   2.769   3.329   0.558  0.0896  0.0075  0.6315
 2669SOL    HW1 8327   2.748   3.392   0.483 -0.4012 -0.5546  0.2924
 2669SOL    HW2 8328   2.725   3.241   0.541  1.1161 -0.5727  0.8929
 2670SOL     OW 8329   0.990   1.750   2.348  0.6235  0.4291  0.2710
 2670SOL    HW1 8330   1.061   1.817   2.373  1.0945 -0.3084  0.9566
 2670SOL    HW2 8331   0.931   1.733   2.427 -1.2842  2.1454 -0.6919
 2671SOL     OW 8332   2.520   1.091   1.443 -0.8431 -0.2657  0.6666
 2671SOL    HW1 8333   2.507   0.997   1.412 -3.5479  0.3914 -0.5967
 2671SOL    HW2 8334   2.573   1.141   1.375  0.3182 -0.7585  1.1834
 2672SOL     OW 8335   2.859   1.884   2.258  0.0397 -0.4511 -0.5609
 2672SOL    HW1 8336   2.845   1.980   2.281 -2.2981 -1.1207  1.1166
 2672SOL    HW2 8337   2.920   1.877   2.179  1.9289  2.2993  0.5247
 2673SOL     OW 8338   4.159   1.218   1.970 -0.1845  0.0300  0.0012
 2673SOL    HW1 8339   4.246   1.224   1.920 -0.7557  0.2183 -1.0087
 2673SOL    HW2 8340   4.143   1.304   2.019 -0.3294  0.4341 -0.7342
 2674SOL     OW 8341   2.716   4.949   0.940 -0.3568  0.0261 -0.0443
 2674SOL    HW1 8342   2.677   4.987   0.856 -0.2134  0.8769  0.2606
 2674SOL    HW2 8343   2.753   5.024   0.995 -1.8478 -0.3208  1.5098
 2675SOL     OW 8344   1.468   4.348   2.342 -0.1868 -0.7242 -0.1005
 2675SOL    HW1 8345   1.471   4.416   2.269  1.2488 -0.2893  0.3312
 2675SOL    HW2 8346   1.389   4.366   2.401  0.3065  0.7472  0.1582
 2676SOL     OW 8347   3.087   3.728   0.847  0.4097  0.4671 -0.5216
 2676SOL    HW1 8348   3.139   3.800   0.801 -0.6614  2.3524  1.1163
 2676SOL    HW2 8349   3.113   3.723   0.943  0.6042 -1.5306 -0.6210
 2677SOL     OW 8350   1.425   1.865   0.973 -0.3890  0.7491 -0.5139
 2677SOL    HW1 8351   1.374   1.940   1.015 -1.3643  0.9491 -1.9713
 2677SOL    HW2 8352   1.489   1.827   1.040 -0.8823  1.9363  0.6919
 2678SOL     OW 8353   2.487   2.441   1.942 -0.2940  0.0773  0.7456
 2678SOL    HW1 8354   2.581   2.441   1.974 -0.5291  0.1464  1.4510
 2678SOL    HW2 8355   2.427   2.480   2.012 -0.7093  1.0586 -0.1174
 2679SOL     OW 8356   2.315   3.601   1.668  0.0161  0.6755 -0.0512
 2679SOL    HW1 8357   2.280   3.664   1.599 -0.9202  1.1888  0.8735
 2679SOL    HW2 8358   2.349   3.518   1.623 -0.5612  1.0055 -1.1306
 2680SOL     OW 8359   2.657   0.856   0.379 -0.0088  0.0412  0.3328
 2680SOL    HW1 8360   2.652   0.890   0.286  2.1436  1.2297  0.5798
 2680SOL    HW2 8361   2.662   0.932   0.443  1.5012 -0.7130  1.1721
 2681SOL     OW 8362   3.883   2.581   0.904  0.5580  0.1351 -0.0271
 2681SOL    HW1 8363   3.818   2.504   0.904  0.3616  0.3002  0.0976
 2681SOL    HW2 8364   3.835   2.665   0.930  1.0773  0.0393  1.2795
 2682SOL     OW 8365   2.955   4.394   0.043 -0.0867  0.1066  0.1741
 2682SOL    HW1 8366   2.976   4.487   0.010 -1.9011  0.9528  1.2225
 2682SOL    HW2 8367   2.922   4.400   0.137 -1.8827 -1.3921 -0.3109
 2683SOL     OW 8368   2.692   3.923   5.341  0.2997 -0.4465  0.2585
 2683SOL    HW1 8369   2.781   3.882   5.362  0.8405  0.8857  0.7129
 2683SOL    HW2 8370   2.651   3.959   5.425  0.4200  0.9921 -0.2584
 2684SOL     OW 8371   2.614   1.384   0.893 -0.1456  0.1179  0.1621
 2684SOL    HW1 8372   2.530   1.388   0.839  0.5293  1.7692 -0.8641
 2684SOL    HW2 8373   2.593   1.398   0.990 -1.1050  0.0483 -0.0299
 2685SOL     OW 8374   3.271   2.323   1.719 -0.2978 -0.1786 -0.0569
 2685SOL    HW1 8375   3.288   2.365   1.630 -0.4706 -0.3685 -0.1791
 2685SOL    HW2 8376   3.350   2.266   1.744 -0.3261 -0.2661 -0.1684
 2686SOL     OW 8377   2.512   3.189   0.281 -0.3341  0.2766 -0.5117
 2686SOL    HW1 8378   2.447   3.265   0.283 -1.1684 -0.4163  0.6934
 2686SOL    HW2 8379   2.546   3.173   0.374 -1.1510 -1.5921 -0.4867
 2687SOL     OW 8380   3.511   3.524   5.260  0.1189 -0.2003 -0.2152
 2687SOL    HW1 8381   3.560   3.576   5.190  0.6597  1.4138  1.2839
 2687SOL    HW2 8382   3.413   3.542   5.253  0.0140 -1.1976 -1.4509
 2688SOL     OW 8383   2.302   4.446   0.841  0.0935 -0.0846  0.8032
 2688SOL    HW1 8384   2.365   4.381   0.799  0.7759  0.8417  0.3447
 2688SOL    HW2 8385   2.342   4.482   0.925 -0.5114 -0.6380  1.3359
 2689SOL     OW 8386   3.462   2.391   0.731 -0.1612  0.3212 -0.1146
 2689SOL    HW1 8387   3.370   2.375   0.765  0.3066  1.2837  1.7475
 2689SOL    HW2 8388   3.476   2.489   0.715 -0.2192 -0.0512 -2.8235
 2690SOL     OW 8389   2.313   5.133   0.464  0.8153 -0.6810 -0.2457
 2690SOL    HW1 8390   2.375   5.176   0.399  1.0991 -0.7777 -0.0386
 2690SOL    HW2 8391   2.327   5.171   0.555 -0.9209  0.8694 -0.5622
 2691SOL     OW 8392   2.492   2.146   5.331 -0.3568 -0.2539 -0.0124
 2691SOL    HW1 8393   2.503   2.221   5.266 -0.5763 -0.6543 -0.5164
 2691SOL    HW2 8394   2.581   2.121   5.369 -0.3596  0.6900  0.6520
 2692SOL     OW 8395   3.694   1.641   1.456  0.6631 -0.0106  0.2988
 2692SOL    HW1 8396   3.770   1.653   1.392  0.2025 -1.5409 -0.5829
 2692SOL    HW2 8397   3.674   1.729   1.500 -0.6132  1.8708 -3.5171
 2693SOL     OW 8398   2.791   3.771   4.979  0.4687  0.2518  0.6295
 2693SOL    HW1 8399   2.729   3.695   4.997  0.3247 -0.2482 -1.6778
 2693SOL    HW2 8400   2.767   3.848   5.037 -1.9998 -0.0883  0.1621
 2694SOL     OW 8401   2.207   3.384   0.048 -0.2758 -0.4051 -0.0892
 2694SOL    HW1 8402   2.233   3.351   0.139  0.0258 -1.9898 -0.7207
 2694SOL    HW2 8403   2.288   3.411  -0.002 -0.3483 -0.4016 -0.2047
 2695SOL     OW 8404   1.935   3.083   0.166  0.4291 -0.6541  0.3216
 2695SOL    HW1 8405   1.840   3.064   0.192  0.5282  0.3802  1.4939
 2695SOL    HW2 8406   1.997   3.040   0.232  0.7849 -1.1391 -0.3165
 2696SOL     OW 8407   3.970   3.476   0.929 -0.1852  0.4807 -0.0124
 2696SOL    HW1 8408   3.910   3.397   0.917  0.4257 -0.2762  1.6346
 2696SOL    HW2 8409   3.945   3.524   1.014  1.3368  0.2930  0.5709
 2697SOL     OW 8410   4.543   2.022   0.254  0.1504 -0.1801 -0.7767
 2697SOL    HW1 8411   4.510   2.015   0.160 -0.2466 -0.2968 -0.6295
 2697SOL    HW2 8412   4.487   2.088   0.305 -0.1274 -0.6823 -0.4150
 2698SOL     OW 8413   3.709   2.830   5.397 -0.1172  0.1003  0.1808
 2698SOL    HW1 8414   3.717   2.929   5.381 -0.4947  0.1299  0.1693
 2698SOL    HW2 8415   3.664   2.787   5.319  0.6939 -0.1908 -0.1322
 2699SOL     OW 8416   3.434   1.949   0.427  0.1713 -0.6336  0.5123
 2699SOL    HW1 8417   3.486   2.015   0.480 -2.0799  2.5144 -0.8014
 2699SOL    HW2 8418   3.448   1.966   0.329 -3.0553  0.3999  0.0821
 2700SOL     OW 8419   3.430   0.408  -0.006  0.1277  0.0450  0.3161
 2700SOL    HW1 8420   3.437   0.309   0.007 -2.3149 -0.1700  0.3655
 2700SOL    HW2 8421   3.359   0.445   0.054  1.7932  2.0620  1.1944
 2701SOL     OW 8422   2.747   4.089   1.310 -0.0147 -0.3510 -0.5282
 2701SOL    HW1 8423   2.752   4.068   1.408  0.1911  0.4950 -0.3536
 2701SOL    HW2 8424   2.796   4.174   1.291 -0.7084 -0.0965 -1.2455
 2702SOL     OW 8425   1.262   1.783   1.531  0.3574 -0.5070 -0.2782
 2702SOL    HW1 8426   1.328   1.811   1.601  0.5293 -0.3330 -0.5081
 2702SOL    HW2 8427   1.305   1.788   1.441 -0.0999  0.0009 -0.4691
 2703SOL     OW 8428   3.305   2.793   0.229  0.1603  0.3781 -0.4453
 2703SOL    HW1 8429   3.387   2.825   0.182  1.0742 -0.5210  0.5049
 2703SOL    HW2 8430   3.227   2.798   0.166  1.0561  0.6208 -1.5656
 2704SOL     OW 8431   0.917   3.046   0.998  0.3337  0.4789 -0.1785
 2704SOL    HW1 8432   0.922   2.955   1.040  2.1900 -0.1549 -1.6382
 2704SOL    HW2 8433   0.909   3.115   1.070 -0.0227 -0.7671  1.0160
 2705SOL     OW 8434   3.055   0.331   1.690 -0.1712  0.1831  0.0109
 2705SOL    HW1 8435   3.152   0.326   1.712  0.0345  1.3035 -0.5774
 2705SOL    HW2 8436   3.003   0.355   1.772 -0.0748 -1.3004  0.5336
 2706SOL     OW 8437   1.150   3.019   4.744 -0.4824 -0.0788 -0.2099
 2706SOL    HW1 8438   1.190   2.929   4.727 -0.5310 -0.0588 -0.4417
 2706SOL    HW2 8439   1.062   3.025   4.698 -0.5051  0.0669 -0.1463
 2707SOL     OW 8440   3.566   2.895   0.809  0.5435 -0.1637 -0.0199
 2707SOL    HW1 8441   3.530   2.968   0.866 -0.2120 -1.4915  1.2735
 2707SOL    HW2 8442   3.628   2.933   0.741 -2.7570  2.2278 -1.9956
 2708SOL     OW 8443   0.066   3.156   0.102  0.2487 -0.6966  0.1045
 2708SOL    HW1 8444   0.157   3.196   0.100 -0.9046  2.1409  0.7953
 2708SOL    HW2 8445   0.029   3.152   0.009  0.4740 -0.3472 -0.0008
 2709SOL     OW 8446   2.967   2.970   0.256  0.4493  0.3494 -0.3906
 2709SOL    HW1 8447   3.040   2.980   0.325 -0.2547 -1.8097  0.7867
 2709SOL    HW2 8448   2.997   2.905   0.186 -1.0444 -2.3788  1.3317
 2710SOL     OW 8449   3.375   1.449   1.492  0.1289  0.1113 -0.1385
 2710SOL    HW1 8450   3.470   1.444   1.520  0.0680 -0.3256 -0.0118
 2710SOL    HW2 8451   3.322   1.376   1.535 -0.5228  1.0943  0.7861
 2711SOL     OW 8452   3.524   2.996   4.581  0.6208  0.0482 -0.0811
 2711SOL    HW1 8453   3.578   3.076   4.607  0.9784 -0.4444  0.7268
 2711SOL    HW2 8454   3.451   2.981   4.649 -0.8760  0.9949 -1.4121
 2712SOL     OW 8455   4.068   1.490   1.319 -0.2607  0.5088 -0.2072
 2712SOL    HW1 8456   4.007   1.436   1.261  1.2209 -1.9551  0.4215
 2712SOL    HW2 8457   4.154   1.506   1.271  1.6322 -2.9477  1.6630
 2713SOL     OW 8458   3.082   3.983   5.120 -0.8857 -0.0416 -0.0116
 2713SOL    HW1 8459   3.107   3.987   5.023  1.4317 -0.0464  0.5288
 2713SOL    HW2 8460   2.997   4.034   5.135 -2.0853 -1.2184 -2.2384
 2714SOL     OW 8461   3.790   2.862   4.234  0.3747 -0.3248  0.3346
 2714SOL    HW1 8462   3.692   2.849   4.219  0.6599 -3.3345  0.5321
 2714SOL    HW2 8463   3.807   2.958   4.257 -2.6331  0.0905  1.3237
 2715SOL     OW 8464   2.910   0.355   1.442 -0.1512  0.3252 -0.2779
 2715SOL    HW1 8465   2.840   0.283   1.445  1.1798 -1.1041 -1.7930
 2715SOL    HW2 8466   2.970   0.347   1.521 -0.4748  0.2642 -0.0384
 2716SOL     OW 8467   3.089   3.598   1.343  0.3117 -0.0243 -0.0644
 2716SOL    HW1 8468   3.117   3.688   1.376 -1.6843  0.4832  0.3752
 2716SOL    HW2 8469   2.994   3.602   1.311  0.6901 -1.6167 -1.5437
 2717SOL     OW 8470   0.581   1.783   1.199  0.8619  0.4253 -0.0427
 2717SOL    HW1 8471   0.548   1.726   1.124 -0.3268 -0.7247  1.3061
 2717SOL    HW2 8472   0.661   1.740   1.241  1.3848  0.9557 -0.4617
 2718SOL     OW 8473   2.567   3.757   0.437 -0.1558  0.1793 -0.0220
 2718SOL    HW1 8474   2.493   3.738   0.502  0.7038 -0.8328  0.7011
 2718SOL    HW2 8475   2.655   3.743   0.482  0.4715 -1.2133 -1.5688
 2719SOL     OW 8476   2.168   1.067   1.166  0.3105 -0.6309  0.1868
 2719SOL    HW1 8477   2.087   1.124   1.181 -0.0888 -0.8978 -0.8885
 2719SOL    HW2 8478   2.141   0.982   1.121  0.9991 -1.3787  1.1281
 2720SOL     OW 8479   3.654   1.808   0.775 -0.6087 -0.0222  0.0902
 2720SOL    HW1 8480   3.698   1.876   0.716 -0.2756 -0.2733  0.0420
 2720SOL    HW2 8481   3.567   1.843   0.809 -0.0128  0.7903  0.8083
 2721SOL     OW 8482   2.486   0.651   5.405  0.3397  0.3322 -0.2974
 2721SOL    HW1 8483   2.436   0.643   5.319  0.3301 -0.4874 -0.2229
 2721SOL    HW2 8484   2.421   0.661   5.481  0.2814 -0.4815 -0.2283
 2722SOL     OW 8485   0.315   2.229   5.321 -0.1672  0.4386  0.0225
 2722SOL    HW1 8486   0.370   2.145   5.317  0.0705  0.5445  0.8643
 2722SOL    HW2 8487   0.218   2.205   5.317 -0.0780  0.3086 -2.3602
 2723SOL     OW 8488   3.219   4.046   0.946 -0.0231  0.0013 -0.1823
 2723SOL    HW1 8489   3.175   3.988   1.015 -1.8491  0.7197 -0.6962
 2723SOL    HW2 8490   3.260   3.988   0.875 -0.3255 -0.6837  0.1927
 2724SOL     OW 8491   3.013   2.162   0.703 -0.7831 -0.5677 -0.6065
 2724SOL    HW1 8492   2.921   2.154   0.664 -1.2363 -0.6679  0.4472
 2724SOL    HW2 8493   3.011   2.130   0.798  0.8093 -2.7323 -1.2317
 2725SOL     OW 8494   3.061   4.078   1.812 -0.5204 -0.1367 -0.0822
 2725SOL    HW1 8495   2.993   4.028   1.866  0.4073 -0.6072  0.6683
 2725SOL    HW2 8496   3.023   4.167   1.785 -0.8233  0.3493  1.8013
 2726SOL     OW 8497   1.614   3.698   0.949  0.2941  1.0583  0.0698
 2726SOL    HW1 8498   1.530   3.751   0.961  0.3005  1.3662 -1.0993
 2726SOL    HW2 8499   1.607   3.613   1.001 -0.8523  0.9661 -0.1862
 2727SOL     OW 8500   2.248   0.887   5.221  0.9777 -0.8758  0.2972
 2727SOL    HW1 8501   2.185   0.925   5.153 -0.2160 -1.1111  1.2344
 2727SOL    HW2 8502   2.228   0.926   5.311  2.3685 -0.7557  0.5680
 2728SOL     OW 8503   3.215   2.035   1.143  0.1915  0.0498 -0.0779
 2728SOL    HW1 8504   3.311   2.059   1.126 -0.3857  1.1617 -2.0207
 2728SOL    HW2 8505   3.210   1.943   1.182  2.2212  1.1614  3.2172
 2729SOL     OW 8506   2.874   3.264   0.779 -0.6409  0.1684 -0.4082
 2729SOL    HW1 8507   2.822   3.296   0.700 -1.3053 -0.1633 -0.1101
 2729SOL    HW2 8508   2.947   3.202   0.749  1.1002  2.4119 -1.0751
 2730SOL     OW 8509   2.453   2.857   0.570  0.4129  0.3530  0.0851
 2730SOL    HW1 8510   2.482   2.944   0.531  1.4376  0.3543  0.8136
 2730SOL    HW2 8511   2.514   2.832   0.645 -0.7317 -0.2855  0.8353
 2731SOL     OW 8512   2.504   2.232   1.757 -0.7285 -0.8127 -0.0528
 2731SOL    HW1 8513   2.568   2.162   1.790 -0.9654 -0.5085  1.1174
 2731SOL    HW2 8514   2.507   2.311   1.819 -1.8437 -0.5686 -0.2934
 2732SOL     OW 8515   4.338   1.864   1.205  0.0095 -0.0234 -0.4041
 2732SOL    HW1 8516   4.250   1.893   1.168  0.1103  1.8205  0.6565
 2732SOL    HW2 8517   4.326   1.780   1.258 -1.2948  0.6077  0.3587
 2733SOL     OW 8518   1.164   0.272  -0.003  0.1768 -0.2429 -0.0114
 2733SOL    HW1 8519   1.178   0.205  -0.076 -1.6072 -1.4528  0.6901
 2733SOL    HW2 8520   1.201   0.236   0.083  2.3288  1.2028 -0.2543
 2734SOL     OW 8521   0.167   3.823   4.908 -0.9080  0.1724  0.5554
 2734SOL    HW1 8522   0.129   3.889   4.974  1.0420 -0.2218  2.1646
 2734SOL    HW2 8523   0.207   3.746   4.957  0.5789 -0.1632 -1.0836
 2735SOL     OW 8524   2.175   3.141   1.280  0.2731 -0.2496 -0.1084
 2735SOL    HW1 8525   2.153   3.236   1.299 -0.6272  0.1145 -2.5813
 2735SOL    HW2 8526   2.122   3.081   1.341 -0.6253  0.8115  0.1806
 2736SOL     OW 8527   2.515   4.263   4.207  0.1074 -0.4024  0.0334
 2736SOL    HW1 8528   2.501   4.268   4.306 -3.1947  0.3688 -0.3703
 2736SOL    HW2 8529   2.504   4.169   4.176  0.1258 -0.4782  0.2580
 2737SOL     OW 8530   2.688   2.447   1.510  0.2449  0.0022  0.0794
 2737SOL    HW1 8531   2.653   2.353   1.502  1.7444 -0.6837  1.0561
 2737SOL    HW2 8532   2.624   2.510   1.468 -1.2835 -1.3617  0.2517
 2738SOL     OW 8533   3.470   3.267   5.357  0.1486 -0.1084 -0.0761
 2738SOL    HW1 8534   3.489   3.349   5.303 -0.5950 -0.4380 -0.8640
 2738SOL    HW2 8535   3.544   3.201   5.343 -0.7884 -0.8393 -2.0362
 2739SOL     OW 8536   2.085   1.898   1.706  1.2488 -0.5065  0.2227
 2739SOL    HW1 8537   2.080   1.950   1.621  0.8054 -0.1335  0.4708
 2739SOL    HW2 8538   2.042   1.808   1.693 -1.3534  0.5647  0.7779
 2740SOL     OW 8539   2.704   4.366   2.056 -0.3778 -0.3041  0.2656
 2740SOL    HW1 8540   2.643   4.287   2.047  0.5285 -1.2464  1.9492
 2740SOL    HW2 8541   2.671   4.440   1.996 -0.8992 -2.1186 -1.8266
 2741SOL     OW 8542   3.948   2.657   4.585  0.3607  0.9629  0.0899
 2741SOL    HW1 8543   3.966   2.637   4.489 -0.4435  0.1883  0.0865
 2741SOL    HW2 8544   3.858   2.700   4.594 -0.2652 -0.3717  0.6124
 2742SOL     OW 8545   4.694   1.576   0.804 -0.0768 -0.1239 -0.3213
 2742SOL    HW1 8546   4.703   1.629   0.720 -0.2692 -0.5010 -0.5854
 2742SOL    HW2 8547   4.710   1.635   0.883 -1.5260  0.6355 -0.5494
 2743SOL     OW 8548   2.497   1.247   0.378  0.1320  0.2536 -0.3750
 2743SOL    HW1 8549   2.526   1.343   0.384  0.6640  0.0401  0.7585
 2743SOL    HW2 8550   2.533   1.197   0.457 -0.4729 -0.7959 -0.7537
 2744SOL     OW 8551   2.861   4.080   2.522 -0.2480 -0.3292 -0.2464
 2744SOL    HW1 8552   2.793   4.152   2.536  0.3417 -0.1306  2.0707
 2744SOL    HW2 8553   2.827   3.994   2.561  0.4173 -0.4647  0.0495
 2745SOL     OW 8554   3.443   1.117   0.505 -0.3945 -0.1504  0.3215
 2745SOL    HW1 8555   3.466   1.027   0.469 -0.8529  0.5178 -1.7474
 2745SOL    HW2 8556   3.358   1.149   0.465  1.1662  2.3918 -1.2486
 2746SOL     OW 8557   3.491   2.170   0.235  0.5805 -0.1789 -0.2244
 2746SOL    HW1 8558   3.520   2.172   0.139  0.4481  1.2867 -0.2602
 2746SOL    HW2 8559   3.429   2.247   0.252  3.7064  2.0993  1.9790
 2747SOL     OW 8560   2.362   1.361   2.857  1.4144 -0.2908 -0.6007
 2747SOL    HW1 8561   2.459   1.343   2.867  1.2362 -0.8619  0.1198
 2747SOL    HW2 8562   2.330   1.325   2.769  1.4256 -2.0085  0.0598
 2748SOL     OW 8563   2.100   2.959   3.293  0.4008 -0.2311  0.2586
 2748SOL    HW1 8564   2.090   2.892   3.220 -0.3115 -0.9126  0.9496
 2748SOL    HW2 8565   2.158   2.921   3.365  1.4321  0.5903 -0.1135
 2749SOL     OW 8566   3.770   4.069   3.116  0.1276  0.7607 -0.5508
 2749SOL    HW1 8567   3.716   4.105   3.040  0.2609 -0.0762 -1.0562
 2749SOL    HW2 8568   3.865   4.100   3.106  0.1684  0.5586 -0.7859
 2750SOL     OW 8569   0.408   3.388   1.056 -0.0747 -0.6377 -0.2254
 2750SOL    HW1 8570   0.309   3.383   1.044 -0.1664  0.0356  0.2127
 2750SOL    HW2 8571   0.437   3.316   1.119 -0.2915 -0.8187 -0.3315
 2751SOL     OW 8572   1.759   4.026   3.141 -0.4446  0.1605  0.3683
 2751SOL    HW1 8573   1.686   4.091   3.119 -1.0054 -0.6968 -0.3765
 2751SOL    HW2 8574   1.847   4.073   3.136 -0.7891  0.7229 -0.7793
 2752SOL     OW 8575   3.098   4.058   4.220 -0.2663  0.4154 -0.0399
 2752SOL    HW1 8576   3.049   4.005   4.289 -0.1907  1.8737  1.1934
 2752SOL    HW2 8577   3.179   4.100   4.262  0.0706  0.9129 -1.1495
 2753SOL     OW 8578   3.660   1.596   0.564  0.6090 -0.5583  0.2829
 2753SOL    HW1 8579   3.628   1.679   0.610  1.8642 -0.2180  0.5747
 2753SOL    HW2 8580   3.593   1.523   0.576 -0.7417  0.5331 -0.3697
 2754SOL     OW 8581   2.476   3.161   3.914 -0.5822 -0.3119  0.1932
 2754SOL    HW1 8582   2.513   3.125   4.000 -1.7778 -1.0347  0.4300
 2754SOL    HW2 8583   2.451   3.257   3.927 -1.5231 -0.6410  0.9180
 2755SOL     OW 8584   2.465   4.396   3.638 -0.5214  0.1069  0.2158
 2755SOL    HW1 8585   2.516   4.369   3.720  0.9990  0.3178 -0.6071
 2755SOL    HW2 8586   2.483   4.331   3.565  0.0906  1.2014 -0.6472
 2756SOL     OW 8587   2.651   3.536   2.955  0.2782  0.2562 -0.2358
 2756SOL    HW1 8588   2.581   3.554   2.886  0.0363 -1.4364 -0.4725
 2756SOL    HW2 8589   2.607   3.523   3.044  0.3521  0.0083 -0.2337
 2757SOL     OW 8590   2.278   1.469   2.043  0.4541 -0.1314  0.4992
 2757SOL    HW1 8591   2.264   1.523   1.959  0.2801  0.0029  0.6128
 2757SOL    HW2 8592   2.296   1.374   2.019  0.8505 -0.0068  0.2925
 2758SOL     OW 8593   1.574   4.558   3.666 -0.3502 -0.3548  0.0572
 2758SOL    HW1 8594   1.483   4.531   3.636  0.3643 -1.9595 -0.8087
 2758SOL    HW2 8595   1.621   4.607   3.592 -0.0826 -0.6023  0.0609
 2759SOL     OW 8596   1.821   3.278   2.506  0.0450 -0.1151  0.2212
 2759SOL    HW1 8597   1.788   3.195   2.462 -1.0169  0.6154 -0.4006
 2759SOL    HW2 8598   1.895   3.317   2.451  0.6126 -0.6895  0.5661
 2760SOL     OW 8599   4.087   1.286   2.998 -0.4084  0.4798 -0.4905
 2760SOL    HW1 8600   4.090   1.320   3.092 -0.1264  0.6829 -0.5709
 2760SOL    HW2 8601   3.996   1.249   2.978 -0.5184  0.5931 -0.1923
 2761SOL     OW 8602   0.772   2.484   1.078  0.1573  0.4458  0.2570
 2761SOL    HW1 8603   0.715   2.438   1.010  0.3895 -0.6487  0.7661
 2761SOL    HW2 8604   0.713   2.530   1.145 -0.2577 -1.8022  1.5560
 2762SOL     OW 8605   2.869   4.349   1.306  1.0296 -0.5500 -0.0773
 2762SOL    HW1 8606   2.859   4.388   1.398  1.1417  2.3214 -1.2053
 2762SOL    HW2 8607   2.786   4.367   1.253  2.6354  2.0025 -1.9425
 2763SOL     OW 8608   3.282   2.324   2.428 -0.1862  0.0817  0.5285
 2763SOL    HW1 8609   3.248   2.374   2.349 -0.7932 -0.7623  0.2454
 2763SOL    HW2 8610   3.218   2.251   2.452 -0.0791  0.3843  1.8732
 2764SOL     OW 8611   3.051   0.569   2.410  0.4761  0.1627  0.1332
 2764SOL    HW1 8612   2.987   0.590   2.336 -0.7584  1.9586  1.6285
 2764SOL    HW2 8613   3.044   0.472   2.433 -0.0337 -0.1515 -1.2212
 2765SOL     OW 8614   3.333   1.660   2.721  0.7768  0.3334 -0.6384
 2765SOL    HW1 8615   3.320   1.563   2.744 -0.6957  0.5066 -0.6351
 2765SOL    HW2 8616   3.279   1.716   2.783  1.0846  1.1316 -1.0739
 2766SOL     OW 8617   0.980   2.790   1.733  0.5172 -0.7417 -0.3986
 2766SOL    HW1 8618   0.959   2.693   1.739 -0.1364 -0.6276 -0.7787
 2766SOL    HW2 8619   0.895   2.843   1.735  0.8995  0.0474  3.2724
 2767SOL     OW 8620   2.013   4.114   3.250 -0.2508  0.2134  0.0684
 2767SOL    HW1 8621   2.025   4.023   3.290 -0.8528  0.5480  1.0233
 2767SOL    HW2 8622   2.094   4.170   3.270 -0.4103  0.2777  0.5295
 2768SOL     OW 8623   2.919   4.324   2.864  0.3645 -0.3142 -0.0968
 2768SOL    HW1 8624   3.018   4.324   2.874  0.3145  1.6954  1.0115
 2768SOL    HW2 8625   2.889   4.409   2.821 -0.9203 -0.5216  0.3275
 2769SOL     OW 8626   4.647   3.681   0.931 -0.8595  0.2741 -0.7042
 2769SOL    HW1 8627   4.705   3.728   0.864 -2.0270  0.3108 -1.7138
 2769SOL    HW2 8628   4.625   3.745   1.005  1.9881 -0.2950  0.8069
 2770SOL     OW 8629   3.880   0.916   1.025 -0.7426  0.0424  0.4164
 2770SOL    HW1 8630   3.850   1.004   0.989 -1.3118 -0.6729 -0.9407
 2770SOL    HW2 8631   3.938   0.870   0.958  0.1076 -0.3424  1.3816
 2771SOL     OW 8632   4.639   2.228   3.578  0.1595 -0.2959  0.0560
 2771SOL    HW1 8633   4.649   2.271   3.668 -0.6078  0.9066 -0.4092
 2771SOL    HW2 8634   4.723   2.178   3.556  1.4884  1.7268  0.2538
 2772SOL     OW 8635   3.450   2.893   3.458 -0.4674 -0.0590  0.8663
 2772SOL    HW1 8636   3.352   2.891   3.474 -0.7740  0.6583 -0.7394
 2772SOL    HW2 8637   3.487   2.981   3.489 -0.6976  0.4810 -0.3467
 2773SOL     OW 8638   1.043   2.735   0.276 -0.5130 -0.4524  0.4773
 2773SOL    HW1 8639   1.013   2.828   0.299  0.2030 -0.5210  1.8050
 2773SOL    HW2 8640   1.142   2.728   0.290 -0.0084 -0.5858 -2.5243
 2774SOL     OW 8641   2.413   4.104   3.898 -0.2655 -0.0038  0.3000
 2774SOL    HW1 8642   2.407   4.048   3.815  1.6700  0.4383 -0.1807
 2774SOL    HW2 8643   2.471   4.058   3.965  1.3948  1.4038 -0.1205
 2775SOL     OW 8644   4.054   0.865   0.790 -0.3972 -0.2290 -0.2236
 2775SOL    HW1 8645   4.120   0.929   0.829 -1.2462  0.3436  0.2908
 2775SOL    HW2 8646   4.103   0.786   0.752  0.5225 -0.2474  0.9560
 2776SOL     OW 8647   4.042   2.644   4.330  0.0219  0.2424 -0.5776
 2776SOL    HW1 8648   4.037   2.663   4.232  0.1286  0.3514 -0.5628
 2776SOL    HW2 8649   4.128   2.680   4.367  0.1582 -0.1375 -0.5178
 2777SOL     OW 8650   4.019   1.451   2.068  0.0232  0.3479  0.2008
 2777SOL    HW1 8651   4.025   1.516   2.144 -0.3175 -0.6076  1.0700
 2777SOL    HW2 8652   3.934   1.399   2.075  1.5431 -2.1802  1.2181
 2778SOL     OW 8653   3.439   3.685   2.311 -0.2256 -0.1149  0.3017
 2778SOL    HW1 8654   3.483   3.634   2.237 -0.0839  0.1402  0.2086
 2778SOL    HW2 8655   3.496   3.763   2.336 -1.6161  1.5309 -1.3525
 2779SOL     OW 8656   4.756   2.758   1.554  0.0344  0.1656  0.2951
 2779SOL    HW1 8657   4.791   2.764   1.461 -0.7440  1.1560  0.0481
 2779SOL    HW2 8658   4.816   2.810   1.615  0.6831 -0.6876  0.4041
 2780SOL     OW 8659   4.083   3.325   3.260 -0.2862  0.7156 -0.0163
 2780SOL    HW1 8660   4.167   3.381   3.262  0.1362  0.2797 -2.2210
 2780SOL    HW2 8661   4.014   3.372   3.205 -0.8984  0.2928  0.3838
 2781SOL     OW 8662   1.160   2.205   2.594 -0.4577  0.2052 -0.1720
 2781SOL    HW1 8663   1.079   2.151   2.615 -1.5937  1.9184 -0.0070
 2781SOL    HW2 8664   1.138   2.273   2.524  1.2423 -0.2499 -1.2243
 2782SOL     OW 8665   2.619   1.520   2.093  0.1305 -0.1364 -0.2781
 2782SOL    HW1 8666   2.646   1.431   2.056  0.3254 -1.6624  3.1528
 2782SOL    HW2 8667   2.526   1.513   2.129  0.7000  0.5340  1.4017
 2783SOL     OW 8668   1.468   1.868   3.781 -0.0769 -0.1929  0.4346
 2783SOL    HW1 8669   1.451   1.852   3.879  0.5703  0.0121  0.5854
 2783SOL    HW2 8670   1.382   1.892   3.736 -0.6249 -1.5407  0.6961
 2784SOL     OW 8671   2.845   3.540   2.034  0.4096 -0.1937 -0.0830
 2784SOL    HW1 8672   2.860   3.494   1.947  0.4584 -1.9032  0.7861
 2784SOL    HW2 8673   2.910   3.615   2.043 -0.2317  0.6432 -1.9125
 2785SOL     OW 8674   1.832   1.391   3.952 -0.4699 -0.1223  0.0413
 2785SOL    HW1 8675   1.919   1.375   3.905 -0.5028 -1.7132  0.4483
 2785SOL    HW2 8676   1.800   1.305   3.993 -0.8258  1.0154  2.3155
 2786SOL     OW 8677   1.882   3.696   3.470 -0.3931  0.7544  0.0458
 2786SOL    HW1 8678   1.877   3.598   3.456 -1.0379  0.8057 -0.1193
 2786SOL    HW2 8679   1.793   3.737   3.450  0.3467  1.6058 -1.7313
 2787SOL     OW 8680   3.156   1.790   1.259  0.2792 -0.2240  0.2166
 2787SOL    HW1 8681   3.241   1.737   1.264  0.4016  0.0069  0.6109
 2787SOL    HW2 8682   3.143   1.842   1.344  0.6918  1.1870 -0.5440
 2788SOL     OW 8683   2.011   3.089   2.934 -0.0104  0.1850 -0.1538
 2788SOL    HW1 8684   1.918   3.059   2.913  0.1031 -0.2967  0.0087
 2788SOL    HW2 8685   2.010   3.146   3.016 -0.2397  0.6818 -0.5013
 2789SOL     OW 8686   2.685   4.276   2.534  0.5459 -0.2063  0.1471
 2789SOL    HW1 8687   2.619   4.254   2.606 -1.2402  1.4974 -0.8500
 2789SOL    HW2 8688   2.665   4.367   2.498  2.9907  0.0354 -0.7907
 2790SOL     OW 8689   4.098   0.732   4.923 -0.4177  0.6489  0.3158
 2790SOL    HW1 8690   4.190   0.696   4.914 -0.5719 -0.5460  2.7767
 2790SOL    HW2 8691   4.095   0.826   4.888  1.0892 -0.1247 -2.0422
 2791SOL     OW 8692   1.521   1.084   5.265 -0.6187  0.8139  0.4100
 2791SOL    HW1 8693   1.604   1.046   5.307 -0.5314  0.4314 -0.1061
 2791SOL    HW2 8694   1.524   1.184   5.271 -0.5989  0.7715  1.2953
 2792SOL     OW 8695   1.908   4.066   2.158  0.2675 -0.0718 -0.1159
 2792SOL    HW1 8696   1.987   4.020   2.118  0.2502 -0.1704 -0.0379
 2792SOL    HW2 8697   1.836   4.076   2.089  0.4591  0.2830 -0.2670
 2793SOL     OW 8698   3.023   1.107   0.620  0.4773 -0.0874  0.4911
 2793SOL    HW1 8699   2.981   1.164   0.691  1.2874 -0.6027  1.4151
 2793SOL    HW2 8700   2.999   1.011   0.637  0.5815 -0.2007 -0.0037
 2794SOL     OW 8701   0.808   0.277   2.485 -0.4534  1.0973 -0.1036
 2794SOL    HW1 8702   0.779   0.306   2.576  1.2028 -0.6221  1.0351
 2794SOL    HW2 8703   0.731   0.233   2.439 -0.6772 -0.2429  1.4695
 2795SOL     OW 8704   2.850   1.444   1.091  0.1250 -0.8733 -0.7970
 2795SOL    HW1 8705   2.948   1.430   1.108 -0.0863 -0.8703  0.5262
 2795SOL    HW2 8706   2.823   1.394   1.009  0.9736 -1.9232 -0.4570
 2796SOL     OW 8707   3.494   4.436   3.193 -0.3002  0.4005  0.2623
 2796SOL    HW1 8708   3.430   4.401   3.124 -0.6717  1.4776  0.0353
 2796SOL    HW2 8709   3.586   4.438   3.155 -0.3943  0.3658  0.0271
 2797SOL     OW 8710   3.129   3.786   2.528  0.1229  0.5910 -0.4957
 2797SOL    HW1 8711   3.152   3.694   2.561  1.9804  1.3686  0.5569
 2797SOL    HW2 8712   3.042   3.815   2.567 -0.8028 -0.9217 -1.3320
 2798SOL     OW 8713   4.820   0.049   1.355  0.3139 -0.2718  0.2568
 2798SOL    HW1 8714   4.861  -0.029   1.403 -0.0874  0.0756  1.2007
 2798SOL    HW2 8715   4.764   0.016   1.279 -1.0236 -1.0462  1.5155
 2799SOL     OW 8716   3.323   1.909   3.866 -0.4000 -0.5694  0.5018
 2799SOL    HW1 8717   3.324   1.809   3.858 -1.0332 -0.6260  1.0286
 2799SOL    HW2 8718   3.228   1.941   3.868 -0.2179 -0.0442  1.2477
 2800SOL     OW 8719   3.906   3.178   2.007  0.1153  0.2371 -0.6105
 2800SOL    HW1 8720   3.926   3.091   2.051 -0.1205 -0.3866 -1.7096
 2800SOL    HW2 8721   3.860   3.238   2.073  1.3103 -0.0205  0.5016
 2801SOL     OW 8722   4.103   1.152   1.486  0.3441 -0.2829 -0.1760
 2801SOL    HW1 8723   4.011   1.162   1.447  0.6962 -1.1299 -1.2906
 2801SOL    HW2 8724   4.135   1.240   1.520 -0.4267  0.2656 -0.8344
 2802SOL     OW 8725   4.828   5.271   3.618 -0.0066 -0.1833  0.4319
 2802SOL    HW1 8726   4.735   5.250   3.586 -0.3637  0.5380  0.9790
 2802SOL    HW2 8727   4.823   5.331   3.698  0.9222 -0.6487  0.8476
 2803SOL     OW 8728   4.276   2.849   0.229  0.3028 -0.2624  0.5540
 2803SOL    HW1 8729   4.326   2.924   0.186 -0.9055  1.5645  2.1290
 2803SOL    HW2 8730   4.341   2.785   0.269  1.3826 -0.3055 -1.1546
 2804SOL     OW 8731   1.636   3.095   3.348  0.1306  0.2567 -0.7264
 2804SOL    HW1 8732   1.609   3.063   3.258 -0.4211  1.2590 -0.9321
 2804SOL    HW2 8733   1.558   3.139   3.393 -0.3167 -2.3017  1.2438
 2805SOL     OW 8734   3.950   2.856   2.730 -0.5442  0.1863  0.0280
 2805SOL    HW1 8735   4.000   2.796   2.792 -1.1835 -0.8538 -0.4376
 2805SOL    HW2 8736   3.854   2.830   2.729 -0.5994  0.3862 -1.1588
 2806SOL     OW 8737   2.594   4.616   4.913 -0.0343  0.1627 -0.0160
 2806SOL    HW1 8738   2.669   4.664   4.957  0.4442 -0.3088 -0.3003
 2806SOL    HW2 8739   2.631   4.552   4.845 -0.7067  0.1272 -0.3545
 2807SOL     OW 8740   2.914   3.164   3.881  0.3525  0.3071  0.3013
 2807SOL    HW1 8741   2.979   3.100   3.923  0.2603 -1.3479 -1.9007
 2807SOL    HW2 8742   2.943   3.183   3.787 -1.6121  0.6255 -0.2771
 2808SOL     OW 8743   5.147   2.660   5.452 -0.4379 -0.3427 -0.4421
 2808SOL    HW1 8744   5.095   2.743   5.434 -0.3859 -0.3304 -0.5351
 2808SOL    HW2 8745   5.121   2.590   5.386 -0.8773 -0.5752 -0.0309
 2809SOL     OW 8746   1.974   2.388   2.835  0.3036  0.0844  0.4198
 2809SOL    HW1 8747   1.923   2.307   2.864  0.5611 -0.0515  0.4906
 2809SOL    HW2 8748   1.987   2.449   2.913  1.1777 -0.3776  0.6421
 2810SOL     OW 8749   3.160   3.257   4.640  0.1324 -0.0642 -0.0158
 2810SOL    HW1 8750   3.064   3.228   4.636 -0.3339  1.5398 -1.1833
 2810SOL    HW2 8751   3.166   3.349   4.676  1.2987 -0.3269  0.5082
 2811SOL     OW 8752   1.420   2.465   3.107 -0.8277 -0.3263  0.5436
 2811SOL    HW1 8753   1.462   2.375   3.116  1.3741  0.7320  1.9280
 2811SOL    HW2 8754   1.446   2.506   3.020 -2.6882 -1.3767 -0.5565
 2812SOL     OW 8755   1.773   4.690   4.023 -0.2058  0.0252 -0.4007
 2812SOL    HW1 8756   1.774   4.709   4.121  1.7798 -0.8661 -0.1948
 2812SOL    HW2 8757   1.748   4.594   4.008 -0.8929  0.2585 -0.8118
 2813SOL     OW 8758   3.284   2.720   2.738  0.2243  0.1113  0.3953
 2813SOL    HW1 8759   3.192   2.751   2.714  0.4921  0.8774  0.3393
 2813SOL    HW2 8760   3.280   2.665   2.822 -0.4474 -0.9210 -0.2870
 2814SOL     OW 8761   2.371   4.054   1.511  0.2206 -0.4262 -0.2589
 2814SOL    HW1 8762   2.308   4.118   1.466  2.4336  0.7506 -1.9132
 2814SOL    HW2 8763   2.429   4.011   1.442  2.4259 -0.0877  1.2941
 2815SOL     OW 8764   3.063   3.156   3.410 -0.0084  0.0711 -0.4191
 2815SOL    HW1 8765   3.033   3.061   3.404 -0.2854  0.2015 -1.3051
 2815SOL    HW2 8766   3.014   3.210   3.341  0.7061  0.7037 -0.4355
 2816SOL     OW 8767   3.242   2.226   3.584 -0.4901  0.4986 -0.4649
 2816SOL    HW1 8768   3.340   2.244   3.573  0.0039 -0.0092  2.3196
 2816SOL    HW2 8769   3.194   2.312   3.604  0.0588  0.3330  1.8449
 2817SOL     OW 8770   3.179   2.714   2.079  0.1516  0.1563  0.1408
 2817SOL    HW1 8771   3.151   2.809   2.068 -1.5710 -0.2204  1.0438
 2817SOL    HW2 8772   3.217   2.681   1.992 -1.5058  0.9422 -0.9373
 2818SOL     OW 8773   4.082   2.468   2.193 -0.4324  0.1391  0.1362
 2818SOL    HW1 8774   4.007   2.403   2.181  0.1028 -0.3114 -0.8712
 2818SOL    HW2 8775   4.168   2.425   2.166  0.0916  0.9016  0.5522
 2819SOL     OW 8776   0.928   3.499   4.046  0.1518 -0.4001 -0.2529
 2819SOL    HW1 8777   0.857   3.501   3.976 -1.8320 -1.8523  1.5897
 2819SOL    HW2 8778   0.886   3.489   4.136  2.7193 -2.3937  0.8646
 2820SOL     OW 8779   4.040   3.231   3.497 -0.2317 -0.6251 -0.0207
 2820SOL    HW1 8780   4.077   3.264   3.410  0.1300 -0.5911  0.1449
 2820SOL    HW2 8781   4.019   3.134   3.490 -0.4488 -0.5629 -0.2287
 2821SOL     OW 8782   1.217   0.337   1.281  0.4710  0.5237  0.1163
 2821SOL    HW1 8783   1.311   0.339   1.246  0.6326  1.5210  0.5697
 2821SOL    HW2 8784   1.166   0.265   1.234  1.5319 -0.2308  0.0592
 2822SOL     OW 8785   4.326   2.922   1.332 -0.0842  0.1966  0.3739
 2822SOL    HW1 8786   4.382   2.928   1.414  1.5025  1.1949 -0.7392
 2822SOL    HW2 8787   4.362   2.851   1.272 -1.6712 -1.0405  0.8059
 2823SOL     OW 8788   3.137   2.880   4.600 -0.1438  0.5854 -0.1883
 2823SOL    HW1 8789   3.188   2.939   4.663 -1.6580  1.3233  0.3912
 2823SOL    HW2 8790   3.122   2.791   4.642 -1.5426  1.2217  0.7352
 2824SOL     OW 8791   4.612   3.528   2.696 -0.1662  0.2946 -0.8140
 2824SOL    HW1 8792   4.677   3.561   2.764 -0.8129  2.7647 -1.3184
 2824SOL    HW2 8793   4.520   3.523   2.737 -0.7681  2.8445 -1.6909
 2825SOL     OW 8794   1.543   3.107   4.854 -0.2974  0.2546  0.3606
 2825SOL    HW1 8795   1.520   3.039   4.784 -0.2415  1.3670 -0.7677
 2825SOL    HW2 8796   1.553   3.197   4.812 -0.2566  0.9635  1.8110
 2826SOL     OW 8797   4.577   2.428   1.435  0.2171  0.4379 -0.3883
 2826SOL    HW1 8798   4.674   2.426   1.412  0.4769 -0.5034  0.6803
 2826SOL    HW2 8799   4.532   2.346   1.399 -0.1379  0.7612 -0.6861
 2827SOL     OW 8800   2.900   2.480   1.336 -0.0012  0.4862  0.2906
 2827SOL    HW1 8801   2.926   2.383   1.337 -2.7426 -0.3168  0.6030
 2827SOL    HW2 8802   2.825   2.495   1.399 -1.9444  2.0865 -2.1992
 2828SOL     OW 8803   3.568   4.184   2.974  0.1005 -0.2578  0.1652
 2828SOL    HW1 8804   3.618   4.271   2.972  0.6762 -0.5753  0.6212
 2828SOL    HW2 8805   3.535   4.163   2.882 -1.2072  1.1101  0.2906
 2829SOL     OW 8806   1.860   1.996   2.093 -0.1972  0.0126 -0.1369
 2829SOL    HW1 8807   1.762   2.001   2.109 -0.0710  1.1281  0.4052
 2829SOL    HW2 8808   1.885   2.059   2.019  0.2357  0.4804  0.4026
 2830SOL     OW 8809   2.223   3.248   0.681  0.2958 -0.2409  0.4642
 2830SOL    HW1 8810   2.195   3.287   0.769 -0.4132  1.0924 -0.3119
 2830SOL    HW2 8811   2.311   3.288   0.654 -0.4780  0.9603 -0.3788
 2831SOL     OW 8812   0.872   5.286   2.012 -0.1824 -0.0362  0.5389
 2831SOL    HW1 8813   0.943   5.287   1.941  0.0803 -0.5322  0.7878
 2831SOL    HW2 8814   0.859   5.379   2.048  1.6016 -0.1795  1.7129
 2832SOL     OW 8815   1.594   3.007   0.709 -0.4498  0.1641 -0.0706
 2832SOL    HW1 8816   1.610   3.016   0.807 -0.3190 -1.9175  0.1477
 2832SOL    HW2 8817   1.540   3.085   0.676 -0.7642  0.7361  1.7021
 2833SOL     OW 8818   0.785   1.805   3.195 -0.4756 -0.1673  0.0349
 2833SOL    HW1 8819   0.762   1.902   3.200 -1.3041 -0.3196 -0.5616
 2833SOL    HW2 8820   0.860   1.785   3.258 -0.4612  0.8083  0.3424
 2834SOL     OW 8821   5.019   4.780   2.547 -0.5744 -0.1441  0.3592
 2834SOL    HW1 8822   4.926   4.798   2.517 -0.1099  1.3184 -0.3170
 2834SOL    HW2 8823   5.083   4.807   2.475  0.3405 -2.3875  0.2733
 2835SOL     OW 8824   2.321   3.509   2.227 -0.5932 -0.4287 -0.4913
 2835SOL    HW1 8825   2.224   3.495   2.209 -0.0730 -1.9336 -2.5033
 2835SOL    HW2 8826   2.344   3.474   2.318 -2.0795  0.9267  0.4520
 2836SOL     OW 8827   2.966   1.937   2.919 -0.4216  0.0327  0.2084
 2836SOL    HW1 8828   3.045   1.877   2.905 -0.1643  0.6574 -1.2313
 2836SOL    HW2 8829   2.979   1.991   3.002  0.0976 -0.7264  0.6357
 2837SOL     OW 8830   2.102   2.839   3.030  0.5486  0.0797  0.9030
 2837SOL    HW1 8831   2.071   2.916   2.974  1.1295 -0.3519 -0.0291
 2837SOL    HW2 8832   2.148   2.772   2.972 -0.3614 -1.2063  1.6108
 2838SOL     OW 8833   3.329   3.958   2.569  0.4400  0.1890  0.9826
 2838SOL    HW1 8834   3.412   3.915   2.533  1.5980  2.5258  0.6824
 2838SOL    HW2 8835   3.252   3.895   2.560  1.1280 -0.3368 -3.3380
 2839SOL     OW 8836   2.238   4.212   2.574  0.2066  0.5266 -0.0721
 2839SOL    HW1 8837   2.282   4.182   2.490  0.5525  1.2862 -0.1669
 2839SOL    HW2 8838   2.150   4.255   2.552  0.0900  0.3291 -0.0024
 2840SOL     OW 8839   1.154   5.298   4.816  0.1405  0.7054  0.0520
 2840SOL    HW1 8840   1.188   5.204   4.821 -0.4092  0.5501  1.1614
 2840SOL    HW2 8841   1.079   5.303   4.750  0.2151  0.3756 -0.0595
 2841SOL     OW 8842   3.708   4.083   1.983  0.1275 -0.2813 -0.3561
 2841SOL    HW1 8843   3.626   4.129   2.018 -0.0052  0.4582 -1.5542
 2841SOL    HW2 8844   3.768   4.059   2.059 -0.2434  1.0607  0.3964
 2842SOL     OW 8845   5.257   3.364   3.817 -0.2099  0.2020 -0.2253
 2842SOL    HW1 8846   5.269   3.439   3.753 -0.2739 -0.7679 -1.4227
 2842SOL    HW2 8847   5.340   3.307   3.818 -0.0715  0.3965  0.8326
 2843SOL     OW 8848   1.061   3.268   2.662  0.4578  0.2071 -0.3099
 2843SOL    HW1 8849   1.069   3.345   2.599  0.4489  0.0640 -0.4871
 2843SOL    HW2 8850   1.034   3.301   2.752  0.2186  0.3849 -0.4466
 2844SOL     OW 8851   3.465   2.536   4.505  0.2979  0.0880  0.4742
 2844SOL    HW1 8852   3.420   2.621   4.474  1.9378  1.0984  0.7360
 2844SOL    HW2 8853   3.551   2.525   4.456 -0.4343 -2.1206 -0.4435
 2845SOL     OW 8854   3.027   2.156   5.459 -0.0487 -0.2311 -0.5385
 2845SOL    HW1 8855   2.983   2.243   5.484 -0.5538 -0.3391 -1.0389
 2845SOL    HW2 8856   3.092   2.172   5.386 -0.9605 -0.4419 -1.4231
 2846SOL     OW 8857   1.065   3.479   5.119 -0.3456 -0.5792 -0.6281
 2846SOL    HW1 8858   1.050   3.470   5.021 -2.2009  1.6668 -0.6342
 2846SOL    HW2 8859   0.984   3.448   5.168  0.9082 -2.5803  0.3326
 2847SOL     OW 8860   0.880   3.760   5.323 -0.3984  0.7785  0.4483
 2847SOL    HW1 8861   0.874   3.860   5.330 -0.1453  0.7402  1.3748
 2847SOL    HW2 8862   0.972   3.735   5.292  0.7718  0.7573  3.5224
 2848SOL     OW 8863   4.898   4.571   3.949 -0.2195 -0.0360  0.2226
 2848SOL    HW1 8864   4.935   4.615   3.868 -0.8282  0.3438  0.1415
 2848SOL    HW2 8865   4.971   4.558   4.017 -0.1255  1.6512  0.4896
 2849SOL     OW 8866   3.966   2.292   0.384  0.1942 -0.1472 -0.1579
 2849SOL    HW1 8867   3.950   2.389   0.362  1.7428 -0.3711 -2.5791
 2849SOL    HW2 8868   3.884   2.239   0.362  0.7374  0.0653 -3.0351
 2850SOL     OW 8869   2.216   3.011   1.715 -0.1666 -0.3041 -0.5984
 2850SOL    HW1 8870   2.242   2.922   1.751 -2.9324 -1.4018 -1.0733
 2850SOL    HW2 8871   2.154   3.057   1.779 -0.5169  0.2808 -1.3374
 2851SOL     OW 8872   1.218   5.149   4.424  0.0059  0.3464 -0.6657
 2851SOL    HW1 8873   1.164   5.071   4.393 -1.2775  0.7904  0.3317
 2851SOL    HW2 8874   1.193   5.229   4.370 -1.2035  0.8000  0.4896
 2852SOL     OW 8875   5.516   2.801   3.764  0.4300  0.8682  0.3900
 2852SOL    HW1 8876   5.541   2.835   3.673 -0.9725  1.5089  0.2042
 2852SOL    HW2 8877   5.424   2.834   3.787  1.1397  1.5546  2.4718
 2853SOL     OW 8878   1.760   0.112   2.083 -0.2293 -0.3378  0.0660
 2853SOL    HW1 8879   1.731   0.163   2.002  1.6240 -0.9088 -1.0220
 2853SOL    HW2 8880   1.784   0.176   2.156 -2.0993  0.1796  0.2726
 2854SOL     OW 8881   3.197   1.774   2.921  0.3157 -0.0276 -0.0788
 2854SOL    HW1 8882   3.199   1.686   2.967 -2.2809  0.4897  1.1676
 2854SOL    HW2 8883   3.260   1.837   2.967 -0.0836 -0.3552  0.9215
 2855SOL     OW 8884   2.429   4.630   0.680 -0.1159  0.2062  0.6716
 2855SOL    HW1 8885   2.358   4.578   0.727  0.2383  0.9963  2.1424
 2855SOL    HW2 8886   2.494   4.666   0.747  0.0486  1.9387 -0.3534
 2856SOL     OW 8887   2.150   3.697   3.124 -0.1624  0.0522  1.2272
 2856SOL    HW1 8888   2.107   3.741   3.045  1.6132 -1.2946 -0.5881
 2856SOL    HW2 8889   2.105   3.609   3.141 -0.4578  0.2817  1.6346
 2857SOL     OW 8890   0.115   2.721   3.068 -0.2424 -0.1838  0.0546
 2857SOL    HW1 8891   0.143   2.800   3.122  0.1394 -0.7335  0.6791
 2857SOL    HW2 8892   0.196   2.678   3.028 -0.4413 -0.2942 -0.2283
 2858SOL     OW 8893   3.906   3.230   3.829 -0.4830  0.2160 -0.2132
 2858SOL    HW1 8894   3.906   3.142   3.877  1.0077  0.5624  0.4760
 2858SOL    HW2 8895   3.813   3.250   3.797 -0.9541 -1.3478  0.0744
 2859SOL     OW 8896   0.343   2.155   0.485  0.1534  0.0363  0.0233
 2859SOL    HW1 8897   0.282   2.076   0.485 -0.0044  0.1300  1.4776
 2859SOL    HW2 8898   0.304   2.227   0.428 -0.2874 -0.4967 -0.3588
 2860SOL     OW 8899   3.817   2.729   1.618 -0.3711  0.3461 -0.4246
 2860SOL    HW1 8900   3.817   2.781   1.704 -2.5779  0.7585 -0.6120
 2860SOL    HW2 8901   3.750   2.654   1.625 -0.6985  0.4940 -1.8336
 2861SOL     OW 8902   4.000   2.150   3.513 -0.2430 -1.2340 -0.1142
 2861SOL    HW1 8903   4.040   2.242   3.505  1.6462 -1.7806  1.9347
 2861SOL    HW2 8904   4.017   2.099   3.429  1.4453 -0.6795 -0.1529
 2862SOL     OW 8905   1.210   3.149   2.275  0.3720 -0.0628  0.4037
 2862SOL    HW1 8906   1.164   3.061   2.286 -1.4073  0.3662 -2.3980
 2862SOL    HW2 8907   1.207   3.200   2.361  0.6760 -2.3261  1.8393
 2863SOL     OW 8908   2.682   1.466   4.023  0.0575 -0.2659  0.2744
 2863SOL    HW1 8909   2.702   1.541   3.960  1.9067  0.0804  1.1881
 2863SOL    HW2 8910   2.604   1.414   3.990  0.9780 -0.1412 -2.3250
 2864SOL     OW 8911   4.499   0.547   1.557 -0.2585 -0.3171 -0.2357
 2864SOL    HW1 8912   4.504   0.537   1.657  1.6346  0.3151 -0.2414
 2864SOL    HW2 8913   4.421   0.494   1.523 -0.1359 -1.6522  1.4173
 2865SOL     OW 8914   2.312   1.889   4.967  0.0997  0.1969 -0.0523
 2865SOL    HW1 8915   2.261   1.808   4.937  1.3352 -0.5530 -0.1740
 2865SOL    HW2 8916   2.408   1.866   4.977 -0.0165  0.7219  3.3047
 2866SOL     OW 8917   1.973   3.481   3.938 -0.1967  0.0114 -0.1722
 2866SOL    HW1 8918   1.906   3.419   3.896 -0.1353 -0.6272  0.6392
 2866SOL    HW2 8919   1.995   3.554   3.874 -0.1363 -0.9032 -1.2353
 2867SOL     OW 8920   2.941   4.806   1.930  0.1531 -0.1436  0.4272
 2867SOL    HW1 8921   3.021   4.859   1.899 -1.1721  2.7291  1.5438
 2867SOL    HW2 8922   2.960   4.767   2.020  0.7898 -0.7535  0.0415
 2868SOL     OW 8923   4.127   4.157   3.546  0.2589  0.1016  0.3303
 2868SOL    HW1 8924   4.104   4.234   3.486  1.3349 -0.0761 -0.3256
 2868SOL    HW2 8925   4.168   4.084   3.493 -0.4363 -0.8057  1.0102
 2869SOL     OW 8926   3.650   3.290   3.756 -0.2749  0.4970 -0.0963
 2869SOL    HW1 8927   3.572   3.350   3.777 -1.1096 -0.0379 -1.4763
 2869SOL    HW2 8928   3.705   3.332   3.684  0.8464  0.9472  0.9891
 2870SOL     OW 8929   1.895   2.627   3.033 -0.5044 -0.1866 -0.2103
 2870SOL    HW1 8930   1.954   2.698   3.071 -0.8580  0.2136 -0.4053
 2870SOL    HW2 8931   1.829   2.597   3.102  0.2631 -1.0167  0.1813
 2871SOL     OW 8932   1.389   3.206   3.468 -0.4462  0.5675 -0.4136
 2871SOL    HW1 8933   1.374   3.186   3.565  2.0209  0.9687  0.1016
 2871SOL    HW2 8934   1.387   3.305   3.453 -1.3418  0.4907 -0.9039
 2872SOL     OW 8935   3.212   1.148   3.605 -0.3169 -0.2888 -0.4684
 2872SOL    HW1 8936   3.205   1.083   3.681  0.2880 -1.6038 -1.5010
 2872SOL    HW2 8937   3.125   1.196   3.595 -0.3080  0.1657  1.2439
 2873SOL     OW 8938   3.191   2.349   0.762  0.2996  0.1136  0.2572
 2873SOL    HW1 8939   3.143   2.425   0.804  0.3647  0.8264 -0.9093
 2873SOL    HW2 8940   3.127   2.273   0.747 -0.5237  1.0658 -1.3189
 2874SOL     OW 8941   2.780   3.443   3.651 -0.2504  0.6458  0.5609
 2874SOL    HW1 8942   2.697   3.457   3.597 -0.7017 -0.0345  1.0593
 2874SOL    HW2 8943   2.756   3.414   3.743  0.4905  2.3550  1.3384
 2875SOL     OW 8944   2.080   0.104   3.825  0.4351 -0.1200 -0.0521
 2875SOL    HW1 8945   2.008   0.058   3.773  0.0208  0.8282 -0.3335
 2875SOL    HW2 8946   2.132   0.036   3.877  1.9817 -1.3703 -2.9999
 2876SOL     OW 8947   4.895   3.060   3.452 -0.1417 -0.7219  0.3638
 2876SOL    HW1 8948   4.881   3.134   3.518 -2.9068 -1.7730  1.0797
 2876SOL    HW2 8949   4.873   3.094   3.360 -2.0954 -0.7591  0.7712
 2877SOL     OW 8950   2.018   0.988   3.696  0.4645  0.1730  0.1465
 2877SOL    HW1 8951   2.079   0.921   3.738 -0.8002 -0.8574  0.3665
 2877SOL    HW2 8952   2.072   1.069   3.670  1.8191 -0.4623  0.8478
 2878SOL     OW 8953   2.258   2.809   3.456  0.3139 -0.2901 -0.1671
 2878SOL    HW1 8954   2.266   2.774   3.549  1.1627  0.2174 -0.0507
 2878SOL    HW2 8955   2.323   2.762   3.396  0.5327  0.1617 -0.2841
 2879SOL     OW 8956   3.637   1.845   2.803 -0.2154  0.2055 -0.0460
 2879SOL    HW1 8957   3.585   1.909   2.747  1.1653  1.2595 -0.1953
 2879SOL    HW2 8958   3.634   1.754   2.762 -1.7349  0.2760 -0.1414
 2880SOL     OW 8959   4.181   0.846   2.282 -0.3025  0.4424  0.5519
 2880SOL    HW1 8960   4.178   0.752   2.250  1.0347  0.9642 -1.2821
 2880SOL    HW2 8961   4.093   0.890   2.263 -0.8071 -0.3096  1.0826
 2881SOL     OW 8962   2.553   3.974   0.018 -0.0458 -0.2384  0.2145
 2881SOL    HW1 8963   2.599   4.047   0.069  0.3225 -0.9600  0.9415
 2881SOL    HW2 8964   2.532   3.898   0.080 -2.1893  0.0414 -0.0948
 2882SOL     OW 8965   2.047   3.529   2.162 -0.5046 -0.0573  0.0656
 2882SOL    HW1 8966   1.949   3.516   2.146 -0.3574 -1.8761  0.3868
 2882SOL    HW2 8967   2.065   3.625   2.180 -1.9217  0.6841 -2.0243
 2883SOL     OW 8968   0.724   1.211   3.676  0.3984 -0.2684 -0.1139
 2883SOL    HW1 8969   0.784   1.247   3.605 -0.3068  0.6921 -0.2315
 2883SOL    HW2 8970   0.711   1.112   3.662 -0.3945  0.0490 -1.8307
 2884SOL     OW 8971   2.205   2.723   5.423  0.1623  0.4455  0.0681
 2884SOL    HW1 8972   2.190   2.625   5.438  0.8210  0.4198  0.6011
 2884SOL    HW2 8973   2.158   2.752   5.339 -0.1823 -0.2874  0.0045
 2885SOL     OW 8974   0.327   3.174   4.633  0.3646 -0.4283 -0.5387
 2885SOL    HW1 8975   0.369   3.146   4.719 -2.3110  3.2953  2.2751
 2885SOL    HW2 8976   0.385   3.241   4.587  0.1364  0.3893  0.3469
 2886SOL     OW 8977   2.697   2.681   4.350  0.2049  0.2217 -0.2523
 2886SOL    HW1 8978   2.619   2.742   4.366  0.5714  0.7112 -0.3045
 2886SOL    HW2 8979   2.779   2.736   4.334  0.5391 -0.2899 -0.3075
 2887SOL     OW 8980   3.074   2.779   4.250 -0.2051 -0.1462  0.3248
 2887SOL    HW1 8981   3.063   2.683   4.278 -2.3790  0.2217  0.8932
 2887SOL    HW2 8982   3.087   2.835   4.332 -2.3451  0.4168  0.3304
 2888SOL     OW 8983   3.781   3.663   3.011  0.5197  0.2861  0.0547
 2888SOL    HW1 8984   3.699   3.716   3.031 -0.9189 -1.2630 -1.3620
 2888SOL    HW2 8985   3.800   3.667   2.913  1.1492 -0.6930  0.1224
 2889SOL     OW 8986   5.291   0.942   5.280  0.0273 -0.2284  0.3181
 2889SOL    HW1 8987   5.350   1.012   5.240  0.4180 -0.7633 -0.0633
 2889SOL    HW2 8988   5.293   0.949   5.380 -1.0563  1.2034  0.2593
 2890SOL     OW 8989   2.936   3.824   5.408  0.6456 -0.0954 -0.5034
 2890SOL    HW1 8990   2.976   3.776   5.330  0.7271 -2.4277  0.8827
 2890SOL    HW2 8991   2.963   3.778   5.493  0.5648  2.3505  0.9450
 2891SOL     OW 8992   1.247   1.304   0.143  0.2076  0.9405 -0.2964
 2891SOL    HW1 8993   1.153   1.272   0.153  1.0174 -1.1786  1.2556
 2891SOL    HW2 8994   1.296   1.246   0.079  1.0361  0.6047  0.6157
 2892SOL     OW 8995   3.196   0.594   4.271 -0.1680 -0.0442 -0.1767
 2892SOL    HW1 8996   3.272   0.560   4.217  0.4315  2.3784 -0.9848
 2892SOL    HW2 8997   3.225   0.605   4.366  0.2989  0.2716 -0.3541
 2893SOL     OW 8998   3.466   1.484   5.110 -0.5563 -0.1655  0.9223
 2893SOL    HW1 8999   3.549   1.516   5.155 -0.5524  0.3762  0.5342
 2893SOL    HW2 9000   3.483   1.467   5.013 -0.9807  0.3076  0.7574
 2894SOL     OW 9001   3.947   3.211   0.062 -0.2617 -0.0758 -0.2441
 2894SOL    HW1 9002   3.889   3.182  -0.014  0.6122 -0.9881 -0.5884
 2894SOL    HW2 9003   4.041   3.219   0.030  0.0117  0.1477  0.6089
 2895SOL     OW 9004   4.083   0.550   4.090 -0.2362 -0.7662 -0.6982
 2895SOL    HW1 9005   4.054   0.464   4.130  0.0576 -0.6595 -0.2491
 2895SOL    HW2 9006   4.177   0.570   4.116 -0.7825  0.4414  0.5034
 2896SOL     OW 9007   2.948   1.215   5.456  0.5812  0.2931  0.5530
 2896SOL    HW1 9008   2.863   1.255   5.491  1.0703  1.1143  0.8411
 2896SOL    HW2 9009   3.025   1.265   5.494  1.2010 -0.5091  0.3706
 2897SOL     OW 9010   2.815   1.732   0.796  0.6703 -0.1035 -0.1689
 2897SOL    HW1 9011   2.740   1.797   0.800 -1.1411 -2.1549  2.1069
 2897SOL    HW2 9012   2.866   1.733   0.882  1.2648 -0.9634 -0.4930
 2898SOL     OW 9013   0.604   4.156   5.274  0.1341 -0.4417 -0.4146
 2898SOL    HW1 9014   0.595   4.253   5.294  1.4489 -0.6858  1.6751
 2898SOL    HW2 9015   0.514   4.116   5.255 -0.2584  1.4854 -3.2373
 2899SOL     OW 9016   1.797   1.737   0.128  0.1967  0.3216  0.1589
 2899SOL    HW1 9017   1.864   1.787   0.072 -0.0185 -1.1495 -1.5061
 2899SOL    HW2 9018   1.838   1.652   0.161 -0.1778  0.4581  0.9888
 2900SOL     OW 9019   1.552   3.586   4.095  0.2727 -0.1111  0.5755
 2900SOL    HW1 9020   1.490   3.659   4.069 -0.0953 -0.1398  1.3511
 2900SOL    HW2 9021   1.639   3.625   4.125 -0.2544  0.0896  1.9278
 2901SOL     OW 9022   2.017   4.074   4.919 -0.1758  0.3237  0.2993
 2901SOL    HW1 9023   2.022   4.018   5.002 -1.3385  0.6600  0.6167
 2901SOL    HW2 9024   1.960   4.154   4.936 -1.5731 -0.2825 -1.1817
 2902SOL     OW 9025   3.303   3.003   1.107  0.1947 -0.4840 -0.3051
 2902SOL    HW1 9026   3.358   3.032   1.029  1.2895 -0.0886  0.5909
 2902SOL    HW2 9027   3.358   2.945   1.167 -1.3482 -2.8514 -1.0243
 2903SOL     OW 9028   1.770   2.824   0.144 -0.5556 -0.1571  0.0388
 2903SOL    HW1 9029   1.845   2.804   0.081 -1.8952 -1.0153 -1.3373
 2903SOL    HW2 9030   1.715   2.899   0.108 -2.2546 -1.6787 -0.6827
 2904SOL     OW 9031   2.318   2.952   4.674 -0.1610  0.4793 -0.1579
 2904SOL    HW1 9032   2.251   2.879   4.685 -0.0304  0.5174  0.9946
 2904SOL    HW2 9033   2.394   2.939   4.738  0.4424  0.9866 -0.7479
 2905SOL     OW 9034   1.926   0.588   3.254 -0.5895 -0.0918 -0.1260
 2905SOL    HW1 9035   1.964   0.590   3.346 -2.1490  0.5637  0.5421
 2905SOL    HW2 9036   1.996   0.617   3.188 -0.4190  3.0272  1.2507
 2906SOL     OW 9037   2.792   5.228   3.723  0.0859 -0.5989  0.1933
 2906SOL    HW1 9038   2.885   5.212   3.756 -0.2122 -0.1968  1.2908
 2906SOL    HW2 9039   2.749   5.299   3.779 -0.8245 -0.6482 -0.4168
 2907SOL     OW 9040   4.937   2.795   3.451  0.4540 -0.6654 -0.0537
 2907SOL    HW1 9041   5.026   2.796   3.498  0.2747 -0.7312  0.2850
 2907SOL    HW2 9042   4.904   2.889   3.442  1.0472 -0.5423 -1.1129
 2908SOL     OW 9043   3.433   2.063   5.322  0.0080  0.4571  0.6833
 2908SOL    HW1 9044   3.341   2.092   5.296 -0.6554 -0.5427  1.7931
 2908SOL    HW2 9045   3.494   2.072   5.244 -1.0091  1.2168 -0.0551
 2909SOL     OW 9046   1.103   1.807   4.762 -0.4556 -0.6965 -0.5014
 2909SOL    HW1 9047   1.179   1.861   4.800 -0.4907 -0.9775 -0.0289
 2909SOL    HW2 9048   1.096   1.720   4.810 -1.5603 -0.3546 -0.0129
 2910SOL     OW 9049   3.198   2.058   4.180  0.5137  0.1928  0.9014
 2910SOL    HW1 9050   3.174   1.972   4.224  1.6046 -0.4260  0.3410
 2910SOL    HW2 9051   3.174   2.054   4.083  2.9305 -0.5347  0.2691
 2911SOL     OW 9052   3.575   4.214   0.554  0.3266  0.2911  0.2186
 2911SOL    HW1 9053   3.552   4.274   0.630  0.6169  0.0434  0.5074
 2911SOL    HW2 9054   3.646   4.149   0.583  0.8827  0.5872 -0.4403
 2912SOL     OW 9055   1.859   2.753   4.469  0.1835 -0.0401 -1.0144
 2912SOL    HW1 9056   1.911   2.815   4.410 -0.1008  0.6802 -0.5265
 2912SOL    HW2 9057   1.771   2.733   4.427 -1.0665  2.4285  0.2018
 2913SOL     OW 9058   2.235   4.041   5.144  0.0408 -0.1136  0.4188
 2913SOL    HW1 9059   2.169   3.966   5.155 -1.2772  1.0645  0.7565
 2913SOL    HW2 9060   2.293   4.047   5.226 -0.3699 -0.2659  0.7228
 2914SOL     OW 9061   3.442   2.470   3.311  0.1638  0.2440 -0.3396
 2914SOL    HW1 9062   3.478   2.529   3.383 -2.1517 -0.5834  1.6410
 2914SOL    HW2 9063   3.450   2.375   3.339 -1.3990 -0.0613 -0.8493
 2915SOL     OW 9064   3.680   2.397   0.906  0.4586  0.7149 -0.1463
 2915SOL    HW1 9065   3.609   2.408   0.837 -0.0636  0.0444  0.2641
 2915SOL    HW2 9066   3.638   2.395   0.997  0.8756 -0.7978  0.0362
 2916SOL     OW 9067   4.409   2.588   4.031  0.0138 -0.4061 -0.6162
 2916SOL    HW1 9068   4.427   2.628   4.122  0.7622  1.7986 -1.6476
 2916SOL    HW2 9069   4.321   2.621   3.997 -0.2513 -1.2022 -0.7260
 2917SOL     OW 9070   3.269   0.142   0.091 -0.2402  0.0081  0.8578
 2917SOL    HW1 9071   3.235   0.074   0.155  0.2333 -1.7350 -0.6523
 2917SOL    HW2 9072   3.314   0.216   0.141 -0.5227 -0.9149  2.5310
 2918SOL     OW 9073   5.006   4.387   4.612  0.3322  0.4553  0.4806
 2918SOL    HW1 9074   5.017   4.456   4.684  0.7116  1.3588 -0.4196
 2918SOL    HW2 9075   4.919   4.401   4.565 -0.3535 -0.7162  1.3360
 2919SOL     OW 9076   4.796   2.007   4.809  0.2134  0.6724  0.0683
 2919SOL    HW1 9077   4.709   2.030   4.851  1.2053  3.3103  0.8730
 2919SOL    HW2 9078   4.870   2.025   4.873  1.4522 -0.3799 -1.0055
 2920SOL     OW 9079   5.059   5.213   3.862 -0.2911  0.5555 -0.1634
 2920SOL    HW1 9080   4.959   5.205   3.868 -0.2132  0.3139  1.3734
 2920SOL    HW2 9081   5.087   5.305   3.889 -0.0670  0.4148  0.0925
 2921SOL     OW 9082   1.887   2.638   4.881  0.2685 -0.0705  0.0080
 2921SOL    HW1 9083   1.880   2.556   4.824  0.9942  0.0643 -0.2990
 2921SOL    HW2 9084   1.881   2.612   4.977  2.0329 -0.7140 -0.0144
 2922SOL     OW 9085   4.135   2.976   4.432 -0.4597  0.3104  0.7628
 2922SOL    HW1 9086   4.157   3.020   4.345 -2.8387  1.5303  0.7172
 2922SOL    HW2 9087   4.141   2.877   4.422 -1.8482  0.3656 -1.1697
 2923SOL     OW 9088   2.917   1.892   0.560 -0.0978  0.4109 -0.7792
 2923SOL    HW1 9089   2.906   1.798   0.591  2.7431  0.6326  1.3617
 2923SOL    HW2 9090   2.868   1.954   0.621 -0.3742  0.4454 -1.0332
 2924SOL     OW 9091   1.396   2.026   5.527  0.2853 -0.1027 -0.2361
 2924SOL    HW1 9092   1.491   2.056   5.527  0.2709 -0.0122  0.9480
 2924SOL    HW2 9093   1.336   2.103   5.507  0.4396 -0.1207 -0.7916
 2925SOL     OW 9094   2.284   3.777   4.010  0.5313 -0.4325  0.1455
 2925SOL    HW1 9095   2.205   3.834   3.986  0.5026 -0.5262  0.0148
 2925SOL    HW2 9096   2.364   3.806   3.956  0.2850 -1.1204 -0.6127
 2926SOL     OW 9097   2.014   3.278   0.476 -0.2902  0.1054 -0.2521
 2926SOL    HW1 9098   1.954   3.295   0.397 -0.9400 -0.3085  0.1429
 2926SOL    HW2 9099   2.036   3.366   0.520 -1.2312  0.2083  0.0427
 2927SOL     OW 9100   4.036   3.286   4.280 -0.1098 -0.3670  0.1556
 2927SOL    HW1 9101   4.112   3.226   4.255  1.7603  1.1255  1.9227
 2927SOL    HW2 9102   4.001   3.331   4.198  2.8244  1.0285 -0.4783
 2928SOL     OW 9103   2.929   1.779   1.735 -0.0738  0.1822  0.1922
 2928SOL    HW1 9104   2.892   1.801   1.646  0.3369 -0.6529 -0.1961
 2928SOL    HW2 9105   3.029   1.768   1.728 -0.1609 -0.9415  0.5212
 2929SOL     OW 9106   3.049   1.377   3.352 -0.3968 -0.1169 -0.2097
 2929SOL    HW1 9107   3.021   1.303   3.413 -0.8750  0.3675  0.1742
 2929SOL    HW2 9108   3.062   1.341   3.259  0.0358 -0.8010  0.1072
 2930SOL     OW 9109   4.480   2.643   4.652  0.5603 -0.2797 -0.0520
 2930SOL    HW1 9110   4.435   2.626   4.739  0.7059  0.5580  0.1882
 2930SOL    HW2 9111   4.443   2.579   4.583 -1.5787  0.8729 -0.0660
 2931SOL     OW 9112   2.696   2.610   5.122  0.1113  0.0854  0.0010
 2931SOL    HW1 9113   2.600   2.610   5.094  0.1230 -0.7742 -0.0809
 2931SOL    HW2 9114   2.725   2.703   5.145 -0.6544  0.3928 -0.2624
 2932SOL     OW 9115   4.034   3.636   4.321  0.3132  0.9010  0.0061
 2932SOL    HW1 9116   3.956   3.594   4.275 -0.1848  2.6387 -0.7959
 2932SOL    HW2 9117   4.116   3.580   4.304 -0.1792  0.6180 -1.6205
 2933SOL     OW 9118   2.526   2.261   0.837 -0.5416  0.1973  0.0637
 2933SOL    HW1 9119   2.622   2.243   0.814 -0.1127  2.4944 -0.2244
 2933SOL    HW2 9120   2.470   2.254   0.754 -0.1915  1.3195 -0.2796
 2934SOL     OW 9121   1.950   2.396   4.130  0.0357  0.3454 -0.3557
 2934SOL    HW1 9122   2.002   2.397   4.044 -0.1493 -0.3897 -0.4834
 2934SOL    HW2 9123   2.007   2.361   4.203  0.8713  2.8545  0.3015
 2935SOL     OW 9124   3.209   3.600   3.387  0.3180  0.7080  0.0007
 2935SOL    HW1 9125   3.125   3.551   3.364  0.6859  0.0116  0.1225
 2935SOL    HW2 9126   3.196   3.648   3.474  0.7323 -1.1924  1.1830
 2936SOL     OW 9127   2.105   3.545   1.002  0.5708  0.2668 -0.2098
 2936SOL    HW1 9128   2.182   3.597   0.964 -0.0252 -0.2600 -2.3262
 2936SOL    HW2 9129   2.107   3.452   0.965  0.0309 -0.3691  1.2867
 2937SOL     OW 9130   2.293   5.089   3.698  0.2829 -0.1173 -0.5078
 2937SOL    HW1 9131   2.232   5.009   3.701 -1.1143  0.8913 -1.1962
 2937SOL    HW2 9132   2.248   5.164   3.651  0.7467  1.8064  1.9312
 2938SOL     OW 9133   2.224   4.051   0.266 -0.0252  0.0874 -0.4596
 2938SOL    HW1 9134   2.305   4.009   0.226 -0.1239  1.9468 -2.8539
 2938SOL    HW2 9135   2.204   4.138   0.219 -1.8578  1.0444  1.8410
 2939SOL     OW 9136   2.424   3.438   3.936 -0.0831  0.6820  0.1979
 2939SOL    HW1 9137   2.403   3.511   3.871 -1.3193  2.0724  2.0660
 2939SOL    HW2 9138   2.344   3.422   3.995  0.3115 -1.9004  0.1352
 2940SOL     OW 9139   3.901   1.415   5.230  0.5840  0.0949 -0.4230
 2940SOL    HW1 9140   3.836   1.348   5.265  1.5407 -0.6646 -0.0385
 2940SOL    HW2 9141   3.852   1.489   5.183 -0.5344 -0.4476 -0.1358
 2941SOL     OW 9142   3.147   4.901   5.005 -0.0302 -0.0394  0.3135
 2941SOL    HW1 9143   3.101   4.848   5.077 -1.6162  1.2554  0.3009
 2941SOL    HW2 9144   3.202   4.973   5.047  0.6395 -0.5167  0.2704
 2942SOL     OW 9145   1.747   4.016   4.537  0.2899  0.1866  0.1240
 2942SOL    HW1 9146   1.732   4.114   4.524 -0.3434  0.0707 -0.0276
 2942SOL    HW2 9147   1.798   4.001   4.622 -0.6253  0.5804  0.7580
 2943SOL     OW 9148   3.557   3.698   4.209 -0.3048 -0.1079 -0.5219
 2943SOL    HW1 9149   3.623   3.771   4.196 -2.1339  1.7155  0.0093
 2943SOL    HW2 9150   3.505   3.684   4.124 -0.5367 -0.2100 -0.3656
 2944SOL     OW 9151   3.238   2.487   2.211 -0.3554  0.3099  0.1098
 2944SOL    HW1 9152   3.230   2.581   2.177  1.1951 -0.1976 -1.9088
 2944SOL    HW2 9153   3.208   2.424   2.139  0.4389 -0.7685  0.7050
 2945SOL     OW 9154   3.004   2.030   0.928 -0.0876 -0.3321  1.2121
 2945SOL    HW1 9155   2.954   1.943   0.933  0.3452 -0.7981 -1.1325
 2945SOL    HW2 9156   3.076   2.031   0.997 -0.2992 -1.7326  1.4874
 2946SOL     OW 9157   3.252   2.107   4.724  0.6512  0.4755 -0.2544
 2946SOL    HW1 9158   3.286   2.165   4.650  0.0515 -0.7743 -1.5430
 2946SOL    HW2 9159   3.162   2.072   4.701  1.4874 -1.9671 -0.0888
 2947SOL     OW 9160   3.810   2.701   3.641  0.0905  0.7922 -0.3301
 2947SOL    HW1 9161   3.776   2.712   3.734  2.0409  0.5906  0.4585
 2947SOL    HW2 9162   3.735   2.676   3.580 -0.7491 -2.3673  1.7799
 2948SOL     OW 9163   3.307   4.862   4.787 -0.2880 -0.0970  0.2087
 2948SOL    HW1 9164   3.239   4.893   4.853  0.3715  0.7076  0.5397
 2948SOL    HW2 9165   3.306   4.921   4.707 -0.4613 -0.5117 -0.0954
 2949SOL     OW 9166   4.312   3.123   4.599  0.0078  0.3679  0.0288
 2949SOL    HW1 9167   4.356   3.041   4.634  1.5306  1.8198  1.8026
 2949SOL    HW2 9168   4.245   3.099   4.530  3.8588 -2.0446 -3.3254
 2950SOL     OW 9169   3.678   1.823   4.686  0.1003 -0.6548 -0.2907
 2950SOL    HW1 9170   3.680   1.724   4.699 -0.0669 -0.5574  0.5048
 2950SOL    HW2 9171   3.595   1.861   4.726  1.3220  0.1013  1.6810
 2951SOL     OW 9172   3.875   0.329   0.057  0.2868  0.0646  0.2418
 2951SOL    HW1 9173   3.835   0.253   0.006 -1.1084  0.9174 -0.0111
 2951SOL    HW2 9174   3.803   0.375   0.110  0.8338  1.8890 -0.5078
 2952SOL     OW 9175   3.397   3.542   2.517  0.2556 -0.0095 -0.0083
 2952SOL    HW1 9176   3.413   3.595   2.434  1.5533  1.9583  1.3968
 2952SOL    HW2 9177   3.306   3.561   2.553 -0.1147 -0.4787 -0.6743
 2953SOL     OW 9178   2.571   3.979   4.086 -0.1511  0.1484 -0.1081
 2953SOL    HW1 9179   2.533   3.944   4.171 -1.9248  1.4327 -0.3265
 2953SOL    HW2 9180   2.671   3.967   4.087 -0.1780 -0.2537  1.9505
 2954SOL     OW 9181   2.534   4.263   5.180 -0.4746  0.5098 -0.1463
 2954SOL    HW1 9182   2.589   4.313   5.247  0.7963 -0.1345 -0.6827
 2954SOL    HW2 9183   2.506   4.175   5.219  1.6782 -0.6096 -0.9912
 2955SOL     OW 9184   1.846   2.591   0.326  0.1522 -0.6568  1.0639
 2955SOL    HW1 9185   1.837   2.671   0.267  0.2005 -1.6361 -0.3042
 2955SOL    HW2 9186   1.758   2.544   0.333  0.3398 -1.0064  1.1080
 2956SOL     OW 9187   1.444   3.731   4.422  0.0755  0.2885 -0.3703
 2956SOL    HW1 9188   1.462   3.721   4.324  2.0809  0.2035 -0.0314
 2956SOL    HW2 9189   1.530   3.749   4.470 -0.8268  0.0228  1.4191
 2957SOL     OW 9190   3.094   1.699   4.118  0.1268 -0.7245  0.6968
 2957SOL    HW1 9191   3.131   1.758   4.189 -0.7845 -0.2711  0.8158
 2957SOL    HW2 9192   3.014   1.743   4.076  0.3913 -1.1776 -0.3099
 2958SOL     OW 9193   3.674   3.431   3.336 -0.3235 -0.6012 -0.3796
 2958SOL    HW1 9194   3.584   3.472   3.350 -2.1099 -4.4424  0.6164
 2958SOL    HW2 9195   3.718   3.417   3.425 -0.8731 -2.9283 -0.4228
 2959SOL     OW 9196   4.848   3.823   4.275  0.0891  0.1323 -0.5290
 2959SOL    HW1 9197   4.786   3.883   4.326 -0.2953 -0.5982 -0.1037
 2959SOL    HW2 9198   4.941   3.860   4.279 -0.0608  0.4652  0.1112
 2960SOL     OW 9199   5.206   3.107   0.416  0.4560  0.3332 -0.1155
 2960SOL    HW1 9200   5.135   3.120   0.484  0.6807 -0.0971  0.2089
 2960SOL    HW2 9201   5.165   3.074   0.331  0.2364  0.3265 -0.0073
 2961SOL     OW 9202   3.743   2.006   4.500  0.4230 -0.3046 -0.1052
 2961SOL    HW1 9203   3.713   1.948   4.576  0.4325  0.7460  0.7211
 2961SOL    HW2 9204   3.816   1.959   4.449  2.0882 -0.0990  1.9541
 2962SOL     OW 9205   1.340   3.223   3.191 -0.1512 -0.2853 -0.1545
 2962SOL    HW1 9206   1.289   3.145   3.156 -1.3404  0.1337  0.5649
 2962SOL    HW2 9207   1.379   3.200   3.281  0.8436 -0.5534 -0.6336
 2963SOL     OW 9208   3.050   2.668   3.401  0.3229 -0.2356 -0.0268
 2963SOL    HW1 9209   2.960   2.691   3.364  0.3282  1.8496  1.0970
 2963SOL    HW2 9210   3.120   2.693   3.334  0.1227 -1.0038 -0.5336
 2964SOL     OW 9211   4.241   1.689   5.513  0.7949 -0.0839  1.1698
 2964SOL    HW1 9212   4.295   1.765   5.477 -0.3801 -0.2646 -1.1308
 2964SOL    HW2 9213   4.162   1.725   5.563  0.6753  0.2071  0.7741
 2965SOL     OW 9214   3.737   2.776   1.003  0.3669  0.1760 -0.2552
 2965SOL    HW1 9215   3.669   2.781   0.929 -0.5245 -4.4259 -0.0144
 2965SOL    HW2 9216   3.692   2.794   1.090  0.4150  1.0314 -0.3913
 2966SOL     OW 9217   0.865   2.810   5.484  0.4046 -0.4516  0.1233
 2966SOL    HW1 9218   0.932   2.879   5.513  1.4780 -0.6131 -1.8315
 2966SOL    HW2 9219   0.885   2.724   5.531  2.0954 -0.7033 -0.9572
 2967SOL     OW 9220   2.573   3.772   3.309  0.6355 -0.7625  0.0324
 2967SOL    HW1 9221   2.537   3.696   3.365  0.5248  0.3490  1.5305
 2967SOL    HW2 9222   2.672   3.776   3.319  0.4748  0.4943  1.6336
 2968SOL     OW 9223   0.235   2.566   0.358  0.4003  0.1065 -0.7374
 2968SOL    HW1 9224   0.144   2.605   0.364  0.3190 -0.2054  0.2029
 2968SOL    HW2 9225   0.302   2.632   0.392  0.2131 -0.6765  1.3474
 2969SOL     OW 9226   3.685   2.503   0.327  0.8127  0.1698 -0.3502
 2969SOL    HW1 9227   3.657   2.533   0.418 -0.0472  0.9788 -0.8702
 2969SOL    HW2 9228   3.608   2.509   0.264  1.2581 -0.8992 -1.0189
 2970SOL     OW 9229   2.512   2.918   4.846  0.4292  0.4738 -0.4009
 2970SOL    HW1 9230   2.452   2.849   4.888  1.6660 -0.3046  0.1409
 2970SOL    HW2 9231   2.535   2.988   4.914  2.7278 -0.9814  0.4189
 2971SOL     OW 9232   2.004   1.539   0.899  0.5221  0.5177 -0.6030
 2971SOL    HW1 9233   1.997   1.439   0.892  1.2436  0.4983 -1.3307
 2971SOL    HW2 9234   1.914   1.580   0.890  0.4571  0.0340 -2.8886
 2972SOL     OW 9235   3.007   1.487   0.134  0.2132 -0.3204  0.0079
 2972SOL    HW1 9236   2.979   1.581   0.154 -0.0065 -0.4577  0.3480
 2972SOL    HW2 9237   3.020   1.437   0.219 -0.1331 -0.7359 -0.1796
 2973SOL     OW 9238   3.512   4.042   3.947  0.2293  0.4783 -0.4271
 2973SOL    HW1 9239   3.454   3.974   3.903 -0.9645  2.0050 -1.3130
 2973SOL    HW2 9240   3.511   4.027   4.046 -1.8129  0.5053 -0.3975
 2974SOL     OW 9241   1.376   4.762   4.215  0.1928 -0.4668  0.0432
 2974SOL    HW1 9242   1.392   4.780   4.118  3.1290  0.2267  0.5687
 2974SOL    HW2 9243   1.418   4.674   4.239  1.1606  0.2258  1.0096
 2975SOL     OW 9244   2.173   2.053   5.361 -0.3915 -0.2460  0.5471
 2975SOL    HW1 9245   2.217   2.082   5.446  1.8712 -1.6238 -0.0614
 2975SOL    HW2 9246   2.237   2.066   5.285 -0.8352 -2.7417 -0.3379
 2976SOL     OW 9247   3.900   3.148   3.008 -0.2435 -0.7214  0.2878
 2976SOL    HW1 9248   3.903   3.247   3.022 -1.3867 -0.7490  0.8698
 2976SOL    HW2 9249   3.814   3.124   2.962  1.3337 -1.1524 -2.6192
 2977SOL     OW 9250   3.936   3.344   4.934  0.6034 -0.4160  0.1504
 2977SOL    HW1 9251   3.898   3.358   4.842  1.4656 -0.8786 -0.2973
 2977SOL    HW2 9252   4.035   3.327   4.926  1.2411  2.2267  1.3675
 2978SOL     OW 9253   4.534   2.075   4.891 -0.2415  0.5153 -0.1923
 2978SOL    HW1 9254   4.527   1.984   4.930 -1.2286  0.3192 -0.7811
 2978SOL    HW2 9255   4.465   2.135   4.932 -0.6142  0.5756 -0.8849
 2979SOL     OW 9256   3.384   2.895   5.388  0.0037 -0.3269  0.2424
 2979SOL    HW1 9257   3.417   2.883   5.481 -0.4334 -0.2728  0.4070
 2979SOL    HW2 9258   3.423   2.825   5.329 -0.2704 -0.7908  0.6089
 2980SOL     OW 9259   3.447   1.829   4.434  0.5614 -0.0560  0.0343
 2980SOL    HW1 9260   3.492   1.866   4.353 -0.2089  1.9063  0.4514
 2980SOL    HW2 9261   3.511   1.830   4.511  0.7457 -0.2553 -0.1140
 2981SOL     OW 9262   2.091   2.356   4.720 -0.1804  0.0995 -0.3366
 2981SOL    HW1 9263   2.167   2.291   4.714  0.9684  1.3388  0.2314
 2981SOL    HW2 9264   2.072   2.394   4.629  1.0158  1.0087 -0.2291
 2982SOL     OW 9265   2.286   1.653   0.078 -0.6014  0.1263 -0.1142
 2982SOL    HW1 9266   2.342   1.624   0.001  0.3352  0.4071  0.4480
 2982SOL    HW2 9267   2.247   1.743   0.059 -2.6769 -0.9725 -1.4254
 2983SOL     OW 9268   1.990   2.523   4.517  0.2351 -0.2847 -0.0160
 2983SOL    HW1 9269   1.973   2.468   4.435  3.0511  1.6611 -2.0854
 2983SOL    HW2 9270   1.947   2.612   4.506  2.9119  0.9948 -0.7492
 2984SOL     OW 9271   3.061   2.640   4.672 -0.4865 -0.3368 -0.0769
 2984SOL    HW1 9272   2.980   2.660   4.727  0.4162 -1.1429  1.6438
 2984SOL    HW2 9273   3.090   2.546   4.688  1.1399  0.1209 -0.1218
 2985SOL     OW 9274   4.152   2.160   4.800 -0.2563  0.4112  0.7060
 2985SOL    HW1 9275   4.057   2.152   4.773  0.1364 -0.4312 -0.5144
 2985SOL    HW2 9276   4.160   2.145   4.899 -1.4833  1.5397  1.0122
 2986SOL     OW 9277   2.960   3.423   4.453  0.0120 -0.0636 -0.7027
 2986SOL    HW1 9278   2.902   3.437   4.373  1.0929  0.7601 -1.3588
 2986SOL    HW2 9279   3.054   3.404   4.424  0.8849  2.3040  0.3528
 2987SOL     OW 9280   3.699   0.716   1.107  0.2962 -0.0962 -0.6971
 2987SOL    HW1 9281   3.758   0.779   1.057  1.4373  0.6501  1.4686
 2987SOL    HW2 9282   3.603   0.740   1.091  0.6852  1.4119 -0.8922
 2988SOL     OW 9283   4.229   3.541   5.320 -0.6447 -0.4793 -0.6754
 2988SOL    HW1 9284   4.158   3.476   5.346 -0.6643  0.6144  2.3825
 2988SOL    HW2 9285   4.186   3.623   5.281 -0.7998 -0.9873 -1.6257
 2989SOL     OW 9286   3.478   4.693   3.750 -0.3468  0.0187  0.1557
 2989SOL    HW1 9287   3.453   4.680   3.654  0.9335  1.3140 -0.3979
 2989SOL    HW2 9288   3.570   4.731   3.755 -0.6581  0.6368  1.8799
 2990SOL     OW 9289   2.664   0.105   3.203 -0.4990 -0.0197  0.0198
 2990SOL    HW1 9290   2.626   0.176   3.264  0.4002 -0.7390  1.4838
 2990SOL    HW2 9291   2.631   0.016   3.233  1.2614 -0.5422  0.5150
 2991SOL     OW 9292   2.612   2.940   5.409  0.2295 -0.4094 -0.6371
 2991SOL    HW1 9293   2.512   2.947   5.413  0.3350  2.4688 -0.9146
 2991SOL    HW2 9294   2.647   2.922   5.500 -0.4748  0.3952 -0.1908
 2992SOL     OW 9295   0.336   3.978   4.454  0.4299  0.5442  0.9292
 2992SOL    HW1 9296   0.281   4.049   4.498  0.0244 -0.6555  2.4504
 2992SOL    HW2 9297   0.423   3.969   4.503  1.1860  1.0756 -0.2607
 2993SOL     OW 9298   2.019   1.443   5.233  0.1833 -0.1829 -0.4286
 2993SOL    HW1 9299   2.107   1.415   5.272  0.1606  0.0445 -0.2147
 2993SOL    HW2 9300   2.034   1.505   5.156  0.1916  0.4108  0.0484
 2994SOL     OW 9301   3.900   3.474   2.405  0.5011  0.2402  0.4251
 2994SOL    HW1 9302   3.976   3.462   2.469  0.7996 -0.1968 -0.0156
 2994SOL    HW2 9303   3.814   3.469   2.456  0.6887 -1.4043  0.6132
 2995SOL     OW 9304   4.634   3.923   4.546  0.4430  0.0871  0.0628
 2995SOL    HW1 9305   4.588   3.836   4.561 -0.8279  0.4964 -1.2480
 2995SOL    HW2 9306   4.733   3.911   4.557  0.5957 -2.1427 -2.6118
 2996SOL     OW 9307   3.096   2.277   4.318 -0.0343 -0.0443  0.8463
 2996SOL    HW1 9308   3.004   2.254   4.349 -0.5625  1.6623  0.6797
 2996SOL    HW2 9309   3.134   2.201   4.266 -1.6836 -0.4795  0.2060
 2997SOL     OW 9310   1.917   3.227   4.382 -0.0577 -0.2110  0.3099
 2997SOL    HW1 9311   1.936   3.167   4.459 -1.4015 -2.5325 -1.0547
 2997SOL    HW2 9312   1.845   3.187   4.325 -0.8038  2.5793 -0.8725
 2998SOL     OW 9313   2.597   0.704   1.872 -0.1278  0.1261 -0.4213
 2998SOL    HW1 9314   2.669   0.760   1.830  1.4943 -2.0236 -0.7023
 2998SOL    HW2 9315   2.619   0.607   1.858 -2.8439 -0.6142 -0.0333
 2999SOL     OW 9316   2.850   2.307   4.675  0.5818 -0.3431  0.2745
 2999SOL    HW1 9317   2.801   2.325   4.761 -0.2903  0.1383 -0.3081
 2999SOL    HW2 9318   2.831   2.380   4.610 -1.3587 -2.2628 -1.4591
 3000SOL     OW 9319   4.515   0.055   5.182  0.2256  0.0965 -0.4919
 3000SOL    HW1 9320   4.419   0.034   5.168 -0.1246  0.2441  1.4750
 3000SOL    HW2 9321   4.549   0.006   5.262  1.3134  1.3804 -0.1213
 3001SOL     OW 9322   1.896   3.870   4.761  0.2785 -0.4466  0.9812
 3001SOL    HW1 9323   1.956   3.949   4.773  1.9960 -1.5281 -0.0758
 3001SOL    HW2 9324   1.869   3.835   4.851  0.4733  0.5954  1.4636
 3002SOL     OW 9325   2.105   1.371   4.868  0.1966  0.2131 -0.1357
 3002SOL    HW1 9326   2.106   1.305   4.944  0.8507 -0.8793 -1.0737
 3002SOL    HW2 9327   2.010   1.389   4.842 -0.0132 -2.3588 -1.5158
 3003SOL     OW 9328   1.014   4.340   3.869 -0.0774  0.1108 -0.5172
 3003SOL    HW1 9329   1.089   4.281   3.840 -1.0363 -0.4884 -1.9433
 3003SOL    HW2 9330   1.049   4.432   3.888  0.8560  0.2275 -2.5119
 3004SOL     OW 9331   2.412   1.873   5.263 -0.2312 -0.6053 -0.0406
 3004SOL    HW1 9332   2.449   1.965   5.275 -1.3734 -0.1112 -0.1569
 3004SOL    HW2 9333   2.364   1.868   5.175 -1.5802 -0.8068  0.6781
 3005SOL     OW 9334   2.524   2.841   4.478 -0.2334 -0.2014 -0.2275
 3005SOL    HW1 9335   2.578   2.892   4.544  0.1590 -0.9778  0.0529
 3005SOL    HW2 9336   2.454   2.902   4.439 -0.8628  0.1243  1.3191
 3006SOL     OW 9337   2.772   0.091   0.345 -0.4026  0.4021  0.1810
 3006SOL    HW1 9338   2.858   0.055   0.380 -0.4821 -0.7082 -0.6841
 3006SOL    HW2 9339   2.786   0.183   0.309 -0.0111  0.9827  1.7392
 3007SOL     OW 9340   3.817   4.017   4.909  0.0902 -0.2509  0.0558
 3007SOL    HW1 9341   3.777   4.096   4.863  0.7650  1.0248  1.5811
 3007SOL    HW2 9342   3.816   3.939   4.847 -2.9923  0.1874 -0.6439
 3008SOL     OW 9343   4.296   1.346   0.359  0.7256 -0.2990  0.0117
 3008SOL    HW1 9344   4.205   1.312   0.383  0.3128  0.0856 -0.9560
 3008SOL    HW2 9345   4.290   1.400   0.275  1.9238 -0.6604 -0.3178
 3009SOL     OW 9346   2.072   2.288   4.382 -0.2409 -0.1055 -0.6895
 3009SOL    HW1 9347   2.155   2.294   4.326  1.1627 -0.7889  1.2120
 3009SOL    HW2 9348   2.045   2.192   4.392 -0.3754 -0.0087 -0.0731
 3010SOL     OW 9349   1.275   0.351   4.905 -0.1557 -0.2572  0.8066
 3010SOL    HW1 9350   1.329   0.274   4.870  0.1529  0.5254 -0.5334
 3010SOL    HW2 9351   1.208   0.378   4.836 -1.3520 -0.3257  1.9031
 3011SOL     OW 9352   2.021   2.005   4.402 -0.2939 -0.1101  0.4642
 3011SOL    HW1 9353   2.093   1.961   4.350 -0.1769 -0.8140  1.2054
 3011SOL    HW2 9354   1.932   1.980   4.364 -0.1591  0.9700 -0.6140
 3012SOL     OW 9355   2.811   3.190   4.120  0.6376 -0.6516  0.2692
 3012SOL    HW1 9356   2.774   3.108   4.165 -1.2874 -0.0411 -0.1233
 3012SOL    HW2 9357   2.846   3.165   4.029 -0.0812 -1.0131  0.0899
 3013SOL     OW 9358   2.859   1.671   4.723 -0.1196  0.0656 -0.6166
 3013SOL    HW1 9359   2.876   1.679   4.625 -0.3247  0.2606 -0.6362
 3013SOL    HW2 9360   2.761   1.662   4.739 -0.0028 -1.2631 -0.5241
 3014SOL     OW 9361   3.821   2.649   2.398 -0.1624 -0.5162 -0.2374
 3014SOL    HW1 9362   3.894   2.596   2.443  0.9801  1.8027  0.8454
 3014SOL    HW2 9363   3.744   2.658   2.461  0.6717  1.1222  0.6390
 3015SOL     OW 9364   3.393   0.905   4.972  0.1334 -0.0472  0.2062
 3015SOL    HW1 9365   3.455   0.859   4.909  0.1605 -1.0036  0.9003
 3015SOL    HW2 9366   3.308   0.926   4.925  0.1400 -0.7704 -0.1494
 3016SOL     OW 9367   2.334   2.032   1.525  0.2041  0.3112  0.2121
 3016SOL    HW1 9368   2.350   1.994   1.616 -0.1701  1.5936  0.8358
 3016SOL    HW2 9369   2.236   2.029   1.505  0.3338 -0.4228 -0.3780
 3017SOL     OW 9370   1.794   2.400   4.755 -0.6101  0.4354  0.1198
 3017SOL    HW1 9371   1.740   2.363   4.679  1.2743  0.0678 -1.0957
 3017SOL    HW2 9372   1.881   2.351   4.762 -0.7149  0.4704  2.5511
 3018SOL     OW 9373   2.194   3.217   4.287 -0.0039 -0.1201 -0.0686
 3018SOL    HW1 9374   2.098   3.219   4.314  0.2312  2.0333  0.7440
 3018SOL    HW2 9375   2.225   3.122   4.284 -1.6282 -0.7561  1.5586
 3019SOL     OW 9376   3.458   2.132   0.621 -0.1541  0.0141  0.2187
 3019SOL    HW1 9377   3.367   2.134   0.577  0.9996  0.3726 -2.3448
 3019SOL    HW2 9378   3.483   2.224   0.649 -0.3499  0.0143  0.3922
 3020SOL     OW 9379   3.599   1.080   3.933 -0.2793 -0.1246  0.2053
 3020SOL    HW1 9380   3.591   1.027   4.017 -0.0143 -2.0538 -0.9230
 3020SOL    HW2 9381   3.509   1.118   3.909 -1.2181 -2.5645 -0.4617
 3021SOL     OW 9382   3.481   4.120   1.613 -0.5483  0.3492  0.3029
 3021SOL    HW1 9383   3.488   4.099   1.516  1.3551 -0.1613  0.5034
 3021SOL    HW2 9384   3.488   4.219   1.627 -0.5513  0.4011 -0.0633
 3022SOL     OW 9385   3.588   2.105   5.107  0.0772  0.6783  0.5653
 3022SOL    HW1 9386   3.684   2.098   5.137 -0.0031  0.9877  0.9009
 3022SOL    HW2 9387   3.582   2.167   5.029  0.3457 -0.4452 -0.3829
 3023SOL     OW 9388   3.555   2.434   5.508 -0.1447 -0.8383  0.0326
 3023SOL    HW1 9389   3.534   2.474   5.597  0.7770 -0.4727  0.1009
 3023SOL    HW2 9390   3.599   2.503   5.450  0.7716 -1.5348 -0.1174
 3024SOL     OW 9391   0.442   3.088   4.864  0.0889  0.4761  0.2997
 3024SOL    HW1 9392   0.540   3.071   4.860  0.0915  0.6484 -2.5561
 3024SOL    HW2 9393   0.394   3.001   4.880  0.6526  0.0458 -0.2693
 3025SOL     OW 9394   3.656   4.732   4.300 -0.6993 -0.0859  0.5736
 3025SOL    HW1 9395   3.621   4.803   4.238  0.2805  0.8093  1.0163
 3025SOL    HW2 9396   3.740   4.694   4.262 -0.7285 -0.3647  0.7898
 3026SOL     OW 9397   2.390   1.570   4.190 -0.3840 -0.2211  0.2382
 3026SOL    HW1 9398   2.341   1.527   4.113  0.5252  0.3685 -0.6945
 3026SOL    HW2 9399   2.398   1.668   4.173 -0.6749  0.0156  1.3843
 3027SOL     OW 9400   4.186   1.480   4.610 -0.1282  0.3401  0.0102
 3027SOL    HW1 9401   4.199   1.555   4.674 -0.6264  0.0762  0.4259
 3027SOL    HW2 9402   4.089   1.460   4.599 -0.1118  0.9025 -1.4538
 3028SOL     OW 9403   4.235   2.772   4.000 -0.0080 -0.1981 -0.8010
 3028SOL    HW1 9404   4.251   2.856   3.948  1.5187 -0.7473 -1.2530
 3028SOL    HW2 9405   4.143   2.775   4.039 -0.4549  1.1094 -1.8653
 3029SOL     OW 9406   3.175   1.445   5.451 -0.0131 -0.3770  0.2695
 3029SOL    HW1 9407   3.116   1.496   5.389 -0.6031 -0.1843  0.9636
 3029SOL    HW2 9408   3.157   1.474   5.545  1.9500  0.4577  0.4409
 3030SOL     OW 9409   4.345   3.505   2.803  0.0309  0.3706 -0.2489
 3030SOL    HW1 9410   4.320   3.408   2.803  0.0120  0.3457  1.0464
 3030SOL    HW2 9411   4.263   3.561   2.791 -0.6796  0.2714  3.1469
 3031SOL     OW 9412   5.525   3.242   3.321  0.1815  0.0333 -0.3252
 3031SOL    HW1 9413   5.514   3.194   3.408  3.1922  0.0624  0.1676
 3031SOL    HW2 9414   5.496   3.337   3.331  0.6200  0.0718  0.7206
 3032SOL     OW 9415   3.187   4.816   4.187  0.2615 -0.1216 -0.4219
 3032SOL    HW1 9416   3.200   4.852   4.279 -0.0298  0.0756 -0.4589
 3032SOL    HW2 9417   3.238   4.730   4.177 -1.3683 -1.2554  0.5909
 3033SOL     OW 9418   3.470   3.304   4.928 -0.1207  0.7789  0.1088
 3033SOL    HW1 9419   3.559   3.301   4.975 -0.1144  0.7312  0.0940
 3033SOL    HW2 9420   3.416   3.379   4.965 -0.2362  0.5499  0.4133
 3034SOL     OW 9421   2.388   0.219   4.277  0.0658  0.0665  0.2251
 3034SOL    HW1 9422   2.355   0.273   4.200 -0.0422  1.3558  1.1452
 3034SOL    HW2 9423   2.358   0.124   4.267 -1.6895  0.6481 -0.2655
 3035SOL     OW 9424   3.322   2.419   5.353 -0.3624 -0.0159 -0.2254
 3035SOL    HW1 9425   3.254   2.492   5.356  0.0597  0.4251 -1.1288
 3035SOL    HW2 9426   3.382   2.425   5.433 -0.3498  0.6035 -0.2832
 3036SOL     OW 9427   1.695   4.417   4.176 -0.2023 -0.4150 -0.0646
 3036SOL    HW1 9428   1.688   4.414   4.077  1.6870  1.1097 -0.3135
 3036SOL    HW2 9429   1.789   4.395   4.204 -0.8448 -1.4106  1.4375
 3037SOL     OW 9430   3.535   2.738   5.199  0.3238  0.1118  0.3355
 3037SOL    HW1 9431   3.521   2.646   5.163  0.7723 -0.2786  1.1248
 3037SOL    HW2 9432   3.502   2.805   5.133 -0.7178 -0.6262  0.0776
 3038SOL     OW 9433   2.001   3.536   4.948  0.0201 -0.1246  0.5028
 3038SOL    HW1 9434   1.927   3.471   4.932 -0.9645  0.6896  1.6041
 3038SOL    HW2 9435   2.032   3.574   4.861 -1.2467 -0.0527  0.0725
 3039SOL     OW 9436   1.374   1.815   4.109 -0.2493  0.2758 -0.4203
 3039SOL    HW1 9437   1.350   1.853   4.198 -3.0247 -2.2944  0.0860
 3039SOL    HW2 9438   1.473   1.798   4.106 -0.1843 -0.4051  2.5270
 3040SOL     OW 9439   2.117   0.873   0.961 -0.4280 -0.1886 -0.3147
 3040SOL    HW1 9440   2.178   0.948   0.935  0.7817 -1.2717 -0.6999
 3040SOL    HW2 9441   2.039   0.869   0.897 -0.4077  0.6120 -0.3957
 3041SOL     OW 9442   1.747   1.899   3.498 -0.3242  0.0693  0.1031
 3041SOL    HW1 9443   1.665   1.842   3.487 -1.0932  1.1022  0.3595
 3041SOL    HW2 9444   1.821   1.861   3.441 -0.9292 -0.9480 -0.0389
 3042SOL     OW 9445   4.717   2.925   4.212  0.4005  0.3878 -0.2124
 3042SOL    HW1 9446   4.785   2.953   4.279  2.9294  0.9849 -2.8688
 3042SOL    HW2 9447   4.759   2.866   4.143 -2.0847 -0.2728 -1.2979
 3043SOL     OW 9448   2.165   3.104   3.902  0.2665  0.1035  0.3728
 3043SOL    HW1 9449   2.240   3.167   3.885 -0.1102  0.7959  1.1825
 3043SOL    HW2 9450   2.092   3.120   3.836  0.3542  0.2191  0.3046
 3044SOL     OW 9451   1.538   2.519  -0.005  0.3443  0.5013  0.1376
 3044SOL    HW1 9452   1.533   2.420   0.006  0.6052  0.4240 -0.3669
 3044SOL    HW2 9453   1.485   2.564   0.066  0.1775 -0.0029  0.3351
 3045SOL     OW 9454   2.040   2.725   5.135 -0.1902 -0.3692  0.2100
 3045SOL    HW1 9455   2.034   2.795   5.064 -1.4872 -1.1763 -0.5026
 3045SOL    HW2 9456   1.949   2.689   5.154  0.1613 -0.3674  2.1022
 3046SOL     OW 9457   1.853   2.100   4.985 -0.3942 -0.1592  0.1366
 3046SOL    HW1 9458   1.765   2.108   4.938 -0.6684 -0.9281  0.4974
 3046SOL    HW2 9459   1.923   2.071   4.921 -0.2697  1.0132 -0.2791
 3047SOL     OW 9460   3.156   4.577   4.789  0.1170  0.8446 -0.2269
 3047SOL    HW1 9461   3.228   4.647   4.787  1.3618 -0.3206  1.3115
 3047SOL    HW2 9462   3.184   4.498   4.734  0.4113  0.0678  0.9906
 3048SOL     OW 9463   0.623   2.714   0.308  0.0394 -0.1325 -0.0506
 3048SOL    HW1 9464   0.644   2.775   0.231  1.1652  2.2244  1.9776
 3048SOL    HW2 9465   0.524   2.715   0.325 -0.1543 -0.2709 -1.1178
 3049SOL     OW 9466   1.962   2.242   5.366 -0.1873  0.2355  0.3904
 3049SOL    HW1 9467   1.880   2.251   5.310  0.7727 -0.6311 -1.2404
 3049SOL    HW2 9468   2.012   2.159   5.339  0.4678 -0.0732  2.3703
 3050SOL     OW 9469   4.140   2.853   4.919  0.3808  0.1678 -0.2597
 3050SOL    HW1 9470   4.148   2.908   4.836  0.8374  1.2114  0.4482
 3050SOL    HW2 9471   4.045   2.854   4.950  0.3100  0.2154 -0.4771
 3051SOL     OW 9472   4.579   3.000   1.330 -0.6333 -0.3726 -0.2975
 3051SOL    HW1 9473   4.567   2.926   1.263  0.2527  0.8735 -1.9059
 3051SOL    HW2 9474   4.642   3.069   1.292  0.0750  0.2786  1.9321
 3052SOL     OW 9475   5.194   2.128   0.290 -0.3660  0.6827 -0.1058
 3052SOL    HW1 9476   5.283   2.172   0.276 -0.3455  0.1597 -1.9530
 3052SOL    HW2 9477   5.199   2.033   0.257 -1.1393  0.0980  1.3830
 3053SOL     OW 9478   2.458   3.879   4.314 -0.5199 -0.4320  0.7426
 3053SOL    HW1 9479   2.456   3.922   4.404  0.4226 -0.5040  0.8147
 3053SOL    HW2 9480   2.375   3.824   4.301 -0.7199 -0.3264  1.5176
 3054SOL     OW 9481   4.171   2.356   4.615  0.2603  0.2620 -0.0621
 3054SOL    HW1 9482   4.189   2.269   4.661 -0.9453 -0.1061 -0.2422
 3054SOL    HW2 9483   4.143   2.424   4.683 -0.4319  0.0286 -0.1027
 3055SOL     OW 9484   3.432   1.892   4.785  0.4453 -0.0256 -0.0716
 3055SOL    HW1 9485   3.368   1.961   4.751  2.2128  1.0754 -1.4100
 3055SOL    HW2 9486   3.449   1.908   4.882 -0.0772  0.7018 -0.0881
 3056SOL     OW 9487   2.648   3.091   5.024 -0.2576  0.1853  0.3688
 3056SOL    HW1 9488   2.602   3.168   5.069 -0.8333  0.6759 -1.0135
 3056SOL    HW2 9489   2.740   3.120   4.996 -0.7820  0.6611 -0.9070
 3057SOL     OW 9490   3.219   3.050   5.227  0.2176 -0.1154  0.1576
 3057SOL    HW1 9491   3.154   3.094   5.289  0.7102 -0.5244  0.9721
 3057SOL    HW2 9492   3.284   2.995   5.279 -1.2443 -3.0409 -0.8507
 3058SOL     OW 9493   1.935   1.871   5.445 -0.6029 -0.0074 -0.1518
 3058SOL    HW1 9494   1.931   1.872   5.345 -1.4090  0.2325 -0.1243
 3058SOL    HW2 9495   2.015   1.922   5.476  0.4693 -1.2872 -0.6996
 3059SOL     OW 9496   2.391   4.017   0.688 -0.8142  0.0301 -0.0235
 3059SOL    HW1 9497   2.347   4.075   0.757 -0.6311 -1.0727  1.0612
 3059SOL    HW2 9498   2.469   3.970   0.730 -0.0260  0.1739 -1.2930
 3060SOL     OW 9499   5.146   3.729   3.266 -0.1517 -0.1807  0.5122
 3060SOL    HW1 9500   5.217   3.782   3.220 -0.0482 -0.1654  0.6892
 3060SOL    HW2 9501   5.066   3.788   3.282 -1.0198 -0.7136 -1.5195
 3061SOL     OW 9502   2.777   3.892   3.584  0.2215  0.2156 -0.2735
 3061SOL    HW1 9503   2.803   3.988   3.583 -2.0942  0.9079 -1.4390
 3061SOL    HW2 9504   2.677   3.885   3.578  0.4186 -2.2834 -1.8734
 3062SOL     OW 9505   5.324   2.504   0.025  0.3081 -0.1851  0.0723
 3062SOL    HW1 9506   5.240   2.547  -0.005  0.3396 -0.8580 -1.0363
 3062SOL    HW2 9507   5.391   2.574   0.049 -0.8417  0.3675  1.8532
 3063SOL     OW 9508   2.912   3.340   3.011 -0.5227  0.2087  0.2468
 3063SOL    HW1 9509   2.836   3.400   2.988 -1.6150 -1.9313 -2.2430
 3063SOL    HW2 9510   2.992   3.364   2.956  0.3904  1.7803  2.1108
 3064SOL     OW 9511   4.961   1.677   3.430  0.0170 -0.4754 -0.2034
 3064SOL    HW1 9512   4.920   1.754   3.480 -0.2586 -1.3800  0.9961
 3064SOL    HW2 9513   4.902   1.653   3.353  0.6385  1.1817 -1.2423
 3065SOL     OW 9514   4.348   2.054   4.445 -0.7830 -0.3392 -0.6129
 3065SOL    HW1 9515   4.264   2.035   4.496 -0.9551  0.2076 -0.6942
 3065SOL    HW2 9516   4.343   2.010   4.355 -2.1699  1.8932 -1.7307
 3066SOL     OW 9517   3.981   2.717   4.072 -0.5258  0.7326  0.0947
 3066SOL    HW1 9518   3.955   2.677   3.984 -0.6841  0.4604  0.2660
 3066SOL    HW2 9519   3.899   2.736   4.126 -0.3535 -0.6660  0.8760
 3067SOL     OW 9520   0.632   3.716   4.725 -0.3114 -0.4637  0.0559
 3067SOL    HW1 9521   0.558   3.654   4.751  0.4116 -0.5940  1.9861
 3067SOL    HW2 9522   0.715   3.691   4.775  0.6090  0.6778 -0.8457
 3068SOL     OW 9523   4.080   2.949   3.509 -0.1776  0.5948 -0.2385
 3068SOL    HW1 9524   4.055   2.866   3.459  0.1123  0.8871 -0.8659
 3068SOL    HW2 9525   4.063   2.935   3.607 -0.7769  0.0366 -0.4165
 3069SOL     OW 9526   3.119   2.378   4.689  0.2077 -0.4409  0.7396
 3069SOL    HW1 9527   3.025   2.354   4.664  0.0645 -0.0219  0.8833
 3069SOL    HW2 9528   3.182   2.315   4.643 -0.0272  0.5164 -0.9975
 3070SOL     OW 9529   2.912   1.914   5.136 -0.4022  0.2346 -0.3535
 3070SOL    HW1 9530   2.927   1.876   5.044  1.3064 -0.5082  0.2026
 3070SOL    HW2 9531   2.836   1.865   5.179 -0.4294 -0.2400 -0.9254
 3071SOL     OW 9532   2.176   3.457   3.647 -0.2747 -0.1167 -0.1211
 3071SOL    HW1 9533   2.222   3.383   3.598 -0.9573 -0.4050 -0.3253
 3071SOL    HW2 9534   2.243   3.529   3.667  0.7116 -1.3484  1.2471
 3072SOL     OW 9535   0.772   3.809   3.512 -0.2117  0.8493  0.6512
 3072SOL    HW1 9536   0.872   3.816   3.508 -0.3089  1.7310 -0.9723
 3072SOL    HW2 9537   0.739   3.852   3.596  0.6966  1.7396  0.5626
 3073SOL     OW 9538   2.644   2.644   1.076  0.4342 -0.1410  0.4441
 3073SOL    HW1 9539   2.676   2.739   1.078  1.2850 -0.3157 -1.8168
 3073SOL    HW2 9540   2.723   2.583   1.068 -0.2404 -0.7782 -2.1003
 3074SOL     OW 9541   5.240   3.143   4.696  0.1135 -0.2089 -0.4541
 3074SOL    HW1 9542   5.331   3.137   4.737  0.1822 -0.8731 -0.6959
 3074SOL    HW2 9543   5.182   3.200   4.754  0.2987 -0.8768  0.4145
 3075SOL     OW 9544   3.827   0.098   4.930 -0.4092  0.2300  0.0961
 3075SOL    HW1 9545   3.903   0.063   4.984  0.1936  1.0670 -0.1762
 3075SOL    HW2 9546   3.812   0.194   4.953 -0.0811  0.6355 -1.2603
 3076SOL     OW 9547   1.239   0.520   1.471 -0.6352 -0.4211 -0.2485
 3076SOL    HW1 9548   1.162   0.532   1.533  0.6853 -0.1594  1.4226
 3076SOL    HW2 9549   1.218   0.449   1.404 -2.4761 -0.0179 -0.1451
 3077SOL     OW 9550   4.195   0.936   0.251 -0.2198  0.0162 -0.4193
 3077SOL    HW1 9551   4.266   0.971   0.190  2.4535 -2.7467  0.8543
 3077SOL    HW2 9552   4.213   0.967   0.344  1.0923 -2.8175  0.3947
 3078SOL     OW 9553   1.598   4.939   0.537 -0.2140  0.1697 -0.3121
 3078SOL    HW1 9554   1.611   5.018   0.477 -1.0559  0.9483  0.4933
 3078SOL    HW2 9555   1.537   4.873   0.493  0.5592 -0.0907 -1.0240
 3079SOL     OW 9556   3.580   0.216   5.245  0.6319  0.1064 -0.3660
 3079SOL    HW1 9557   3.675   0.185   5.251  1.5667  2.6260 -0.9923
 3079SOL    HW2 9558   3.527   0.170   5.317  2.3866 -1.0365  0.3002
 3080SOL     OW 9559   2.550   5.291   0.956  0.1218 -0.6036  0.3496
 3080SOL    HW1 9560   2.484   5.250   1.019  0.8667 -2.5363 -0.0355
 3080SOL    HW2 9561   2.621   5.338   1.008 -0.1067 -0.8447  0.8874
 3081SOL     OW 9562   1.886   4.853   1.761  0.7041 -0.2094  0.0181
 3081SOL    HW1 9563   1.955   4.823   1.827  1.7997  0.3438 -0.8326
 3081SOL    HW2 9564   1.799   4.807   1.780  1.0822 -0.3198  1.6061
 3082SOL     OW 9565   2.995   4.595   0.670  0.4669 -0.3553 -0.5813
 3082SOL    HW1 9566   3.029   4.667   0.730  0.4972 -2.5342  2.2299
 3082SOL    HW2 9567   2.905   4.621   0.635  0.7138  1.2577 -0.1054
 3083SOL     OW 9568   0.771   3.416   1.663 -0.3883 -0.1046  0.1078
 3083SOL    HW1 9569   0.675   3.417   1.637 -0.6293 -1.6408  0.8659
 3083SOL    HW2 9570   0.796   3.326   1.697  1.0006  0.6279  1.1305
 3084SOL     OW 9571   1.880   0.450   0.211  0.0885 -0.2655 -0.6423
 3084SOL    HW1 9572   1.943   0.526   0.232 -2.1211  1.4827  0.0921
 3084SOL    HW2 9573   1.932   0.371   0.178  2.6797  0.9051  0.3910
 3085SOL     OW 9574   2.838   5.109   4.051  0.2456 -0.6088  0.0819
 3085SOL    HW1 9575   2.745   5.142   4.032 -0.4441 -2.4984 -0.0240
 3085SOL    HW2 9576   2.866   5.047   3.979  0.9862 -1.2440  0.8984
 3086SOL     OW 9577   2.769   0.760   3.224 -0.2899  0.2065  0.6686
 3086SOL    HW1 9578   2.703   0.699   3.181 -1.2114  1.7005 -0.1253
 3086SOL    HW2 9579   2.861   0.726   3.209 -0.7150 -0.3701 -0.7717
 3087SOL     OW 9580   3.532   4.311   1.982 -0.0596 -0.6175 -0.0778
 3087SOL    HW1 9581   3.440   4.272   1.980 -0.3436  0.0583 -1.0925
 3087SOL    HW2 9582   3.557   4.342   1.890  0.7213  0.2607  0.4135
 3088SOL     OW 9583   2.540   4.909   0.296 -0.2101  0.7890 -0.0128
 3088SOL    HW1 9584   2.522   5.007   0.294 -1.0881  0.6180 -1.1937
 3088SOL    HW2 9585   2.461   4.861   0.335 -0.2217  0.4649 -0.4259
 3089SOL     OW 9586   1.021   4.690   1.051 -0.2884 -0.2076 -0.3089
 3089SOL    HW1 9587   0.997   4.707   0.955  0.2452  2.5262 -0.0280
 3089SOL    HW2 9588   1.120   4.677   1.059 -0.3316 -0.4291 -0.1187
 3090SOL     OW 9589   1.369   5.062   0.653  0.4119 -0.3645  0.6550
 3090SOL    HW1 9590   1.320   4.983   0.689  1.6633 -0.8946  1.2788
 3090SOL    HW2 9591   1.446   5.030   0.598 -0.2072  0.4385 -0.7309
 3091SOL     OW 9592   1.771   4.189   0.992 -0.4216  0.4650  0.2248
 3091SOL    HW1 9593   1.795   4.160   0.900 -1.8180 -0.6119  0.1598
 3091SOL    HW2 9594   1.712   4.270   0.987  3.4673  3.6390  0.4053
 3092SOL     OW 9595   2.580   1.252   1.854  0.0081  0.5566  0.0058
 3092SOL    HW1 9596   2.628   1.224   1.772  2.3697 -0.4120  1.6052
 3092SOL    HW2 9597   2.638   1.237   1.934 -2.4201  0.7806  1.9598
 3093SOL     OW 9598   2.019   0.611   5.213  0.2052  0.0332 -0.1603
 3093SOL    HW1 9599   1.975   0.525   5.187  2.2730 -1.3859  0.8237
 3093SOL    HW2 9600   2.118   0.601   5.208  0.5025  2.8438 -1.4041
 3094SOL     OW 9601   2.757   3.478   0.313 -0.1807  0.0751 -0.1744
 3094SOL    HW1 9602   2.803   3.392   0.291  1.1990  0.7523 -0.0282
 3094SOL    HW2 9603   2.743   3.531   0.230 -0.0573  0.1734 -0.1333
 3095SOL     OW 9604   2.715   5.344   1.360 -0.5050  0.2148  0.2548
 3095SOL    HW1 9605   2.620   5.365   1.338  0.0338  1.6904 -0.8566
 3095SOL    HW2 9606   2.743   5.396   1.441 -1.2727 -2.0069  2.0311
 3096SOL     OW 9607   2.755   3.589   0.060  0.3957 -0.1600  0.0121
 3096SOL    HW1 9608   2.748   3.569  -0.038  1.2782 -2.1690  0.3133
 3096SOL    HW2 9609   2.841   3.636   0.078 -0.4247  1.5583 -0.3271
 3097SOL     OW 9610   1.888   5.399   1.806  0.4549 -0.0736 -0.3789
 3097SOL    HW1 9611   1.967   5.384   1.865  0.3333  0.4462 -0.0772
 3097SOL    HW2 9612   1.832   5.317   1.804 -0.2047  0.2955  1.2423
 3098SOL     OW 9613   2.040   4.955   1.284 -0.2724 -0.5414  0.2938
 3098SOL    HW1 9614   1.988   4.902   1.350 -0.4049 -2.9726 -1.6259
 3098SOL    HW2 9615   2.042   4.907   1.196 -0.2958  2.5882 -1.5941
 3099SOL     OW 9616   1.835   4.522   2.071  0.7840  0.7574 -0.4148
 3099SOL    HW1 9617   1.753   4.574   2.097  1.5778  1.8381  0.0366
 3099SOL    HW2 9618   1.828   4.494   1.976 -1.3350 -1.6145  0.3426
 3100SOL     OW 9619   2.914   4.256   5.141  0.3808  0.0304 -0.2957
 3100SOL    HW1 9620   2.972   4.327   5.179 -1.1389  0.6232  1.0461
 3100SOL    HW2 9621   2.897   4.275   5.044  0.6677  1.0243 -0.1617
 3101SOL     OW 9622   1.736   4.930   2.201 -0.5421 -0.3153  0.4776
 3101SOL    HW1 9623   1.770   4.927   2.295 -0.1411  0.3629  0.3598
 3101SOL    HW2 9624   1.782   5.003   2.151 -0.6023 -0.7922 -0.3054
 3102SOL     OW 9625   1.351   4.717   5.114 -0.4456 -0.0984 -0.8494
 3102SOL    HW1 9626   1.354   4.752   5.020  0.8017 -2.1050 -1.6224
 3102SOL    HW2 9627   1.328   4.620   5.113 -2.7815  0.3524  1.1374
 3103SOL     OW 9628   2.931   4.313   2.222  0.7381 -0.1181  0.3636
 3103SOL    HW1 9629   2.900   4.224   2.256 -0.2740  0.2471  0.4142
 3103SOL    HW2 9630   2.876   4.340   2.143  0.9001  0.5593  0.4736
 3104SOL     OW 9631   1.182   5.427   4.012 -0.2137 -0.4124 -0.0780
 3104SOL    HW1 9632   1.209   5.336   3.980  0.6709 -0.0125 -0.5083
 3104SOL    HW2 9633   1.162   5.485   3.933 -0.3791 -0.1107  0.1829
 3105SOL     OW 9634   2.455   4.859   3.096 -0.1672 -0.4011 -0.0692
 3105SOL    HW1 9635   2.542   4.827   3.060  0.4060  0.6616  0.3219
 3105SOL    HW2 9636   2.454   4.847   3.196 -0.3122 -0.0719 -0.0297
 3106SOL     OW 9637   2.707   3.570   5.346  0.2038 -0.2766 -0.4995
 3106SOL    HW1 9638   2.800   3.534   5.333 -0.1946 -0.8182 -2.0574
 3106SOL    HW2 9639   2.672   3.605   5.259 -1.3998 -0.9132 -0.1495
 3107SOL     OW 9640   2.742   5.420   1.096  0.1138  0.2675  0.0564
 3107SOL    HW1 9641   2.745   5.398   1.194 -0.7379  0.9152  0.2379
 3107SOL    HW2 9642   2.790   5.506   1.079 -0.2584  0.4703  0.0064
 3108SOL     OW 9643   2.672   4.832   1.302 -0.0596  0.2751  0.0019
 3108SOL    HW1 9644   2.735   4.763   1.268 -1.9486 -0.0357 -3.3328
 3108SOL    HW2 9645   2.707   4.923   1.282 -0.1531  0.1248 -0.8771
 3109SOL     OW 9646   2.198   2.473   5.121  0.4188 -0.1494  0.7183
 3109SOL    HW1 9647   2.144   2.557   5.119  1.5421  0.5969  0.8693
 3109SOL    HW2 9648   2.145   2.398   5.080  0.2164  1.1030 -1.4661
 3110SOL     OW 9649   4.284   3.746   0.544  0.4277 -0.0310 -0.3599
 3110SOL    HW1 9650   4.306   3.834   0.503 -0.4682 -0.4406 -1.7979
 3110SOL    HW2 9651   4.233   3.761   0.630  0.3291  0.8402 -0.5583
 3111SOL     OW 9652   0.327   3.579   0.219 -0.0046 -0.1006  0.2611
 3111SOL    HW1 9653   0.424   3.579   0.243  0.6803  0.7521 -2.2082
 3111SOL    HW2 9654   0.277   3.634   0.285  1.4185  0.5431  0.8486
 3112SOL     OW 9655   3.810   4.871   0.878  0.2548 -0.4894 -0.4909
 3112SOL    HW1 9656   3.885   4.807   0.860 -0.6598 -1.3862 -1.2811
 3112SOL    HW2 9657   3.793   4.926   0.796  0.2573 -0.0564 -0.2057
 3113SOL     OW 9658   2.887   5.125   2.145  0.4489 -0.7041 -0.1796
 3113SOL    HW1 9659   2.909   5.069   2.225  0.2636  1.4821  1.5253
 3113SOL    HW2 9660   2.971   5.149   2.097  0.6981 -1.0395  0.0848
 3114SOL     OW 9661   1.236   0.233   0.511 -0.4804 -0.3057 -0.0061
 3114SOL    HW1 9662   1.210   0.274   0.598  0.2430 -0.5550  0.3293
 3114SOL    HW2 9663   1.290   0.151   0.526  0.4712  0.1732 -0.6801
 3115SOL     OW 9664   3.095   3.521   4.794  0.2967  0.6732 -0.2754
 3115SOL    HW1 9665   3.005   3.506   4.835  1.5362  0.7849  2.7366
 3115SOL    HW2 9666   3.091   3.599   4.732 -1.6006  0.8606  0.0221
 3116SOL     OW 9667   3.387   3.712   0.047 -0.2354 -0.6523  0.5638
 3116SOL    HW1 9668   3.429   3.775   0.113  0.1158 -1.2511  0.9344
 3116SOL    HW2 9669   3.310   3.665   0.091 -2.0377  1.2290 -0.4493
 3117SOL     OW 9670   1.274   3.641   2.928 -0.6140  0.2392  0.1082
 3117SOL    HW1 9671   1.348   3.587   2.886 -1.8155 -1.8926  0.5655
 3117SOL    HW2 9672   1.215   3.580   2.982 -2.3583  1.9642  0.2605
 3118SOL     OW 9673   2.242   0.166   1.314  0.6864 -0.1367 -0.5525
 3118SOL    HW1 9674   2.189   0.219   1.248 -2.1880 -1.5025  0.4981
 3118SOL    HW2 9675   2.225   0.068   1.300  2.1147 -0.5884  0.5595
 3119SOL     OW 9676   3.950   4.347   5.107  0.7628 -0.1268  0.0070
 3119SOL    HW1 9677   3.914   4.373   5.017  1.6617 -0.6462 -0.5197
 3119SOL    HW2 9678   3.968   4.249   5.108  0.0442 -0.2617  1.0257
 3120SOL     OW 9679   3.437   4.414   1.286  0.5433 -0.3348  0.4285
 3120SOL    HW1 9680   3.361   4.354   1.264  1.0543 -0.5911 -0.7478
 3120SOL    HW2 9681   3.518   4.385   1.235  1.4131 -0.0317  1.6056
 3121SOL     OW 9682   3.723   5.330   4.909  0.2522  0.0453 -0.1174
 3121SOL    HW1 9683   3.744   5.329   5.007  0.8521  0.8424 -0.2260
 3121SOL    HW2 9684   3.650   5.397   4.891  0.0512 -0.1945 -0.1992
 3122SOL     OW 9685   1.761   5.317   0.106 -0.3032  0.1192  0.3238
 3122SOL    HW1 9686   1.816   5.234   0.097 -1.0539 -0.4331  0.7150
 3122SOL    HW2 9687   1.664   5.292   0.111 -0.5647  1.0488  0.0669
 3123SOL     OW 9688   1.256   4.512   0.462  0.2041  0.2090  0.4804
 3123SOL    HW1 9689   1.320   4.455   0.411  0.9601 -0.5402  2.1956
 3123SOL    HW2 9690   1.216   4.459   0.537 -1.3295  1.1006  0.3334
 3124SOL     OW 9691   0.808   5.307   4.869 -0.0691  0.1358 -0.3777
 3124SOL    HW1 9692   0.892   5.292   4.817 -0.4652 -1.1865 -0.6680
 3124SOL    HW2 9693   0.729   5.284   4.812 -0.5493 -0.4331  0.4981
 3125SOL     OW 9694   2.249   4.924   0.239  0.2087  0.5333 -0.1211
 3125SOL    HW1 9695   2.291   4.894   0.324  0.2571  2.3458  0.5429
 3125SOL    HW2 9696   2.179   4.993   0.259 -0.5689  0.1861 -1.4778
 3126SOL     OW 9697   1.204   4.722   2.332  0.2505 -0.2906 -0.7232
 3126SOL    HW1 9698   1.119   4.695   2.378 -0.1267  0.4870 -0.9433
 3126SOL    HW2 9699   1.264   4.768   2.398 -0.9466  2.2515 -1.2990
 3127SOL     OW 9700   1.769   4.397   5.469 -0.6407  0.0254  0.4310
 3127SOL    HW1 9701   1.756   4.494   5.451  0.3994  0.0335 -0.3933
 3127SOL    HW2 9702   1.752   4.345   5.385  0.0585 -0.3739  0.5283
 3128SOL     OW 9703   3.226   4.226   1.331 -0.0664 -0.1130  0.3029
 3128SOL    HW1 9704   3.308   4.171   1.347  1.3122  1.6315 -0.3659
 3128SOL    HW2 9705   3.207   4.283   1.411  1.3233  1.7930 -0.6296
 3129SOL     OW 9706   1.283   0.463   2.816  0.4610 -0.7958  0.4145
 3129SOL    HW1 9707   1.198   0.515   2.809  0.7902 -0.2994  0.0875
 3129SOL    HW2 9708   1.342   0.504   2.885  0.4547 -1.1115  0.6077
 3130SOL     OW 9709   3.174   4.433   5.019 -0.5159  0.1957 -0.1421
 3130SOL    HW1 9710   3.149   4.509   4.958 -0.4723 -0.2954 -0.7751
 3130SOL    HW2 9711   3.124   4.443   5.106 -0.6867  0.8195 -0.3036
 3131SOL     OW 9712   5.038   0.625   2.928 -0.2726  0.0893  0.4850
 3131SOL    HW1 9713   5.118   0.602   2.983  1.1414  2.3790 -0.4550
 3131SOL    HW2 9714   5.056   0.709   2.876 -2.1528 -1.0320 -2.1986
 3132SOL     OW 9715   4.232   0.220   5.146 -0.0111  0.0325  0.3037
 3132SOL    HW1 9716   4.201   0.199   5.239  1.0600 -0.2503  0.6088
 3132SOL    HW2 9717   4.180   0.298   5.111 -2.3477 -1.5225  0.0837
 3133SOL     OW 9718   3.068   5.287   1.246  0.0011 -0.1389 -0.0907
 3133SOL    HW1 9719   3.145   5.328   1.198 -0.8548  0.2680 -1.1634
 3133SOL    HW2 9720   3.010   5.240   1.181 -1.3641  0.6872  0.4811
 3134SOL     OW 9721   3.919   3.748   4.811 -0.5826  0.0806 -0.3323
 3134SOL    HW1 9722   3.965   3.721   4.727 -0.8606 -0.1354 -0.4148
 3134SOL    HW2 9723   3.827   3.708   4.814 -0.4422 -0.2142  0.2406
 3135SOL     OW 9724   3.078   5.307   0.593  0.1188 -0.0479 -0.8432
 3135SOL    HW1 9725   3.072   5.207   0.593 -0.3168 -0.0244 -1.0874
 3135SOL    HW2 9726   3.092   5.340   0.687 -2.1652 -0.2146 -0.3760
 3136SOL     OW 9727   2.047   5.510   2.546  0.1148  0.2639 -0.0965
 3136SOL    HW1 9728   2.021   5.518   2.642  0.1566  0.4071 -0.0963
 3136SOL    HW2 9729   2.020   5.420   2.511  1.2696 -0.3069  0.4139
 3137SOL     OW 9730   0.811   4.705   0.602 -0.3248  0.4854  0.0885
 3137SOL    HW1 9731   0.730   4.751   0.566 -0.7940  0.8960  1.6052
 3137SOL    HW2 9732   0.789   4.609   0.620 -0.3455  0.4876  0.0753
 3138SOL     OW 9733   3.485   3.191   1.365 -0.9055 -0.5291  0.0299
 3138SOL    HW1 9734   3.466   3.101   1.326  0.6222 -0.3797 -1.1328
 3138SOL    HW2 9735   3.554   3.182   1.437 -0.6034 -0.2610 -0.2262
 3139SOL     OW 9736   2.352   5.485   4.338 -0.3979 -0.1771 -0.3818
 3139SOL    HW1 9737   2.353   5.503   4.436 -0.5621  2.1796 -0.7539
 3139SOL    HW2 9738   2.276   5.425   4.315  0.5948 -2.0866  1.0916
 3140SOL     OW 9739   2.514   5.468   1.897  0.5759  0.0426 -0.0400
 3140SOL    HW1 9740   2.499   5.400   1.826 -1.1968  0.0533  0.2825
 3140SOL    HW2 9741   2.470   5.554   1.871  0.6770  0.3112  0.6511
 3141SOL     OW 9742   3.615   4.453   0.191 -0.1934 -0.0400 -0.1532
 3141SOL    HW1 9743   3.526   4.409   0.206  0.1394 -0.3232  1.1707
 3141SOL    HW2 9744   3.625   4.476   0.094 -0.9724 -1.5994 -0.6399
 3142SOL     OW 9745   3.210   3.421   1.052 -0.3487 -0.1927 -0.6707
 3142SOL    HW1 9746   3.119   3.441   1.017  0.2005 -0.5341 -2.3820
 3142SOL    HW2 9747   3.278   3.447   0.984  0.7015 -2.0684 -0.4058
 3143SOL     OW 9748   2.307   0.251   1.974 -0.6152  0.1284  0.0631
 3143SOL    HW1 9749   2.217   0.228   1.939 -0.0973  0.3880 -1.5598
 3143SOL    HW2 9750   2.376   0.236   1.902  0.1733  3.3092 -0.0129
 3144SOL     OW 9751   3.251   3.632   5.293  0.1311  0.1815  0.2108
 3144SOL    HW1 9752   3.166   3.650   5.243 -0.6505 -0.3514  1.2862
 3144SOL    HW2 9753   3.238   3.551   5.351  1.9289 -0.8976 -0.8347
 3145SOL     OW 9754   3.808   0.018   5.545  0.0988 -0.3007  0.2004
 3145SOL    HW1 9755   3.896  -0.010   5.582  1.7354  2.7074 -1.0706
 3145SOL    HW2 9756   3.813   0.024   5.445 -0.8142  1.8610  0.2106
 3146SOL     OW 9757   2.402   4.948   1.265 -0.1251 -0.4196  0.7097
 3146SOL    HW1 9758   2.483   4.891   1.277  0.3002  0.4223  2.1894
 3146SOL    HW2 9759   2.331   4.918   1.328 -1.6636 -2.2282 -1.7284
 3147SOL     OW 9760   1.546   1.721   0.173 -0.5647  0.0780 -0.2167
 3147SOL    HW1 9761   1.645   1.734   0.162 -0.9011  0.7431 -3.4455
 3147SOL    HW2 9762   1.528   1.666   0.254  2.3256  1.3967  1.4692
 3148SOL     OW 9763   3.268   3.887   0.707  0.4137 -0.1361 -0.2090
 3148SOL    HW1 9764   3.338   3.851   0.646  1.6604  1.2928  0.3256
 3148SOL    HW2 9765   3.221   3.963   0.663 -0.7770 -1.0163 -0.5218
 3149SOL     OW 9766   2.034   4.348   3.671  0.7109 -0.2335 -0.0653
 3149SOL    HW1 9767   2.078   4.407   3.738 -2.5387  2.5472 -0.0919
 3149SOL    HW2 9768   2.054   4.381   3.579  1.6034 -1.3423 -0.2929
 3150SOL     OW 9769   3.386   1.157   2.848 -0.0853 -0.0989 -0.6893
 3150SOL    HW1 9770   3.321   1.125   2.917  2.0575  0.0621  1.5737
 3150SOL    HW2 9771   3.460   1.092   2.839  0.8473  0.9864 -1.1409
 3151SOL     OW 9772   1.020   3.342   0.928 -0.8700 -0.7500  0.4018
 3151SOL    HW1 9773   0.922   3.319   0.926 -0.8217 -0.9221 -1.4088
 3151SOL    HW2 9774   1.065   3.301   0.849  0.3799  0.5985  0.3796
 3152SOL     OW 9775   3.386   5.298   3.986  0.1501  0.0341 -0.4829
 3152SOL    HW1 9776   3.437   5.354   3.921  0.7980 -2.2080 -2.0528
 3152SOL    HW2 9777   3.450   5.240   4.038 -0.6146 -1.9654 -1.6422
 3153SOL     OW 9778   3.722   4.819   1.364  0.2849  0.5313 -0.0557
 3153SOL    HW1 9779   3.767   4.903   1.334  0.4201  0.9561  1.2560
 3153SOL    HW2 9780   3.786   4.763   1.416 -0.4713  0.8528  1.2981
 3154SOL     OW 9781   2.009   3.850   0.611 -0.2157 -0.2277 -0.2660
 3154SOL    HW1 9782   2.066   3.771   0.590  1.4181  0.8697 -0.1865
 3154SOL    HW2 9783   2.004   3.910   0.531  0.5107  0.7122  0.3684
 3155SOL     OW 9784   1.213   3.420   0.529 -0.4041 -0.5089 -0.2804
 3155SOL    HW1 9785   1.172   3.405   0.439 -0.6652  0.9804 -0.4209
 3155SOL    HW2 9786   1.312   3.429   0.519 -0.2470 -1.8770 -0.2063
 3156SOL     OW 9787   3.668   1.180   1.995 -0.0253 -0.2094  0.3514
 3156SOL    HW1 9788   3.591   1.241   2.009  1.9059  2.3501  0.6189
 3156SOL    HW2 9789   3.638   1.085   2.002 -2.6579  0.6732  2.9906
 3157SOL     OW 9790   2.880   3.165   1.065  0.6534 -0.4225 -0.0284
 3157SOL    HW1 9791   2.889   3.178   0.966 -0.8335 -0.5251 -0.1914
 3157SOL    HW2 9792   2.971   3.166   1.107  1.1938  2.1539 -1.0682
 3158SOL     OW 9793   2.613   0.366   1.083 -0.1527  0.1096  0.1610
 3158SOL    HW1 9794   2.545   0.437   1.063  0.0877  0.8375  1.7945
 3158SOL    HW2 9795   2.580   0.278   1.048 -1.8011  0.5017  0.6216
 3159SOL     OW 9796   3.015   3.713   5.153  0.0301  0.5559  0.0230
 3159SOL    HW1 9797   3.052   3.806   5.153 -1.8121  1.3853  2.3807
 3159SOL    HW2 9798   2.946   3.705   5.082 -0.0770  1.1149  0.0606
 3160SOL     OW 9799   2.607   4.682   0.879 -0.1339 -0.1829  0.5957
 3160SOL    HW1 9800   2.655   4.597   0.903  1.1025 -0.0554 -1.2336
 3160SOL    HW2 9801   2.669   4.760   0.891 -1.3158  0.5514  2.4399
 3161SOL     OW 9802   3.150   4.943   1.111  0.5645  0.1567 -0.1246
 3161SOL    HW1 9803   3.138   4.968   1.015 -1.4457  1.2444  0.3344
 3161SOL    HW2 9804   3.140   4.844   1.122  0.3200  0.0787 -0.9809
 3162SOL     OW 9805   3.712   3.949   1.770 -0.0493  0.3341 -0.0175
 3162SOL    HW1 9806   3.702   4.013   1.846 -0.5748  1.1445 -0.7530
 3162SOL    HW2 9807   3.678   3.991   1.686 -0.3376 -0.8826 -0.5366
 3163SOL     OW 9808   2.514   0.168   0.474 -0.5423  0.2209 -0.3175
 3163SOL    HW1 9809   2.497   0.243   0.411 -0.2355  0.2098 -0.4142
 3163SOL    HW2 9810   2.584   0.107   0.436  0.3232  0.7111  0.4451
 3164SOL     OW 9811   1.777   4.823   0.071 -0.1486 -0.2485  0.2912
 3164SOL    HW1 9812   1.783   4.884  -0.008 -0.7750 -2.0452 -1.2257
 3164SOL    HW2 9813   1.784   4.876   0.155  1.5942  1.6154 -0.9507
 3165SOL     OW 9814   3.880   4.300   1.312 -0.3327 -0.5641  0.4031
 3165SOL    HW1 9815   3.944   4.359   1.264 -0.9398  0.7533  1.1787
 3165SOL    HW2 9816   3.871   4.330   1.407 -2.5602 -0.3401  0.1523
 3166SOL     OW 9817   0.644   4.499   0.876 -0.7078 -0.2115  0.3410
 3166SOL    HW1 9818   0.715   4.439   0.914 -0.1183  1.4929  2.0534
 3166SOL    HW2 9819   0.558   4.484   0.924 -0.1625  1.3705  1.9093
 3167SOL     OW 9820   4.482   5.339   2.725  0.1850  0.3561  0.0191
 3167SOL    HW1 9821   4.446   5.246   2.722 -1.6113  0.9993  0.4173
 3167SOL    HW2 9822   4.581   5.337   2.711  0.0670 -1.5217 -0.8101
 3168SOL     OW 9823   1.577   4.761   1.007 -0.0489  0.6328 -0.5882
 3168SOL    HW1 9824   1.517   4.834   1.041  1.1063  1.6195 -0.6094
 3168SOL    HW2 9825   1.603   4.781   0.912  2.0878  1.4438  0.1090
 3169SOL     OW 9826   2.154   0.613   1.410 -0.0656  0.2768 -0.3105
 3169SOL    HW1 9827   2.107   0.699   1.390  0.8127  0.5889 -1.0934
 3169SOL    HW2 9828   2.090   0.537   1.397 -1.0614  0.8226  1.0878
 3170SOL     OW 9829   2.683   3.350   1.030 -0.1105  0.2840  0.1601
 3170SOL    HW1 9830   2.756   3.282   1.037  1.2526  1.5185 -1.1926
 3170SOL    HW2 9831   2.610   3.328   1.094 -0.8203 -3.7420 -1.6970
 3171SOL     OW 9832   3.183   4.885   0.079 -0.7882 -0.1768  0.4323
 3171SOL    HW1 9833   3.103   4.933   0.043  0.4301  0.2413 -1.8395
 3171SOL    HW2 9834   3.170   4.786   0.069 -0.2613 -0.0678 -1.8000
 3172SOL     OW 9835   1.146   5.107   2.323 -0.5128 -0.0824 -0.4074
 3172SOL    HW1 9836   1.144   5.044   2.245 -0.3312  0.1586 -0.6107
 3172SOL    HW2 9837   1.055   5.148   2.335 -0.4642  0.1104 -0.6861
 3173SOL     OW 9838   4.380   1.512   5.327 -0.1336  0.0783 -0.4622
 3173SOL    HW1 9839   4.404   1.437   5.388  0.0568 -0.5027 -1.2323
 3173SOL    HW2 9840   4.310   1.568   5.370 -2.7508 -2.4175 -1.1395
 3174SOL     OW 9841   1.182   4.753   1.457  0.2984 -0.5954 -0.1336
 3174SOL    HW1 9842   1.133   4.742   1.544  1.7502  0.3424  0.8649
 3174SOL    HW2 9843   1.155   4.839   1.415  0.2184 -0.6442 -0.1821
 3175SOL     OW 9844   3.199   3.842   1.428 -0.4974  0.2774  0.0997
 3175SOL    HW1 9845   3.202   3.891   1.516  1.5256  0.9774 -0.2895
 3175SOL    HW2 9846   3.154   3.899   1.360 -0.6373  0.4102  0.3007
 3176SOL     OW 9847   3.503   3.876   1.109  0.9280 -0.1765  0.3984
 3176SOL    HW1 9848   3.509   3.958   1.053 -0.4141  0.5603  1.2690
 3176SOL    HW2 9849   3.588   3.824   1.103  2.4680  2.1271  1.1421
 3177SOL     OW 9850   4.913   5.356   1.553 -0.2351  0.3845 -0.1115
 3177SOL    HW1 9851   4.906   5.264   1.516 -0.9355  0.1277  0.6216
 3177SOL    HW2 9852   4.856   5.363   1.636 -1.1677  1.8154 -0.8284
 3178SOL     OW 9853   3.249   4.598   2.196 -0.2633  0.2440 -0.1565
 3178SOL    HW1 9854   3.249   4.500   2.217 -0.8278  0.2278 -0.2259
 3178SOL    HW2 9855   3.302   4.647   2.265  0.0380 -0.1118 -0.1323
 3179SOL     OW 9856   2.996   4.947   0.322 -0.3938 -0.5304 -0.5097
 3179SOL    HW1 9857   2.973   4.866   0.267  0.7225 -1.2896  0.1024
 3179SOL    HW2 9858   3.094   4.966   0.313 -0.9142  1.8047 -2.0033
 3180SOL     OW 9859   1.867   0.256   2.301 -0.3662  0.0768 -0.1025
 3180SOL    HW1 9860   1.850   0.342   2.350  1.8995  0.1632  0.6819
 3180SOL    HW2 9861   1.958   0.223   2.325  0.4016 -0.4981 -3.3953
 3181SOL     OW 9862   1.186   5.407   2.102 -0.5617 -0.0823  0.1802
 3181SOL    HW1 9863   1.143   5.357   2.027 -0.6988 -0.1678  0.3161
 3181SOL    HW2 9864   1.137   5.389   2.187 -0.7427  0.4611  0.1914
 3182SOL     OW 9865   4.010   5.216   0.910 -0.5999 -0.5420 -0.0161
 3182SOL    HW1 9866   3.925   5.194   0.958 -0.6911  0.1179  0.1372
 3182SOL    HW2 9867   4.029   5.314   0.919  0.0196 -0.6291 -0.3048
 3183SOL     OW 9868   2.693   4.648   3.238 -0.0786  0.4331  0.0894
 3183SOL    HW1 9869   2.684   4.609   3.329 -1.1923  1.7325  0.5804
 3183SOL    HW2 9870   2.709   4.747   3.245  0.6565  0.4238 -1.1165
 3184SOL     OW 9871   3.283   4.329   2.236 -0.0659 -0.1598  0.6796
 3184SOL    HW1 9872   3.220   4.267   2.282 -3.1159  0.2657 -2.5018
 3184SOL    HW2 9873   3.277   4.316   2.137  1.8264  2.7488  0.0469
 3185SOL     OW 9874   2.313   2.984   5.443  1.2404 -0.3485 -0.0410
 3185SOL    HW1 9875   2.267   2.898   5.418 -1.7208  1.4192 -1.2005
 3185SOL    HW2 9876   2.323   2.989   5.542  1.4830 -2.0151  0.0496
 3186SOL     OW 9877   1.527   2.114   4.047 -0.3760 -0.3273  0.1136
 3186SOL    HW1 9878   1.573   2.173   4.114  0.3377 -1.8803  1.0323
 3186SOL    HW2 9879   1.430   2.106   4.071 -0.2902 -0.2452  0.4912
 3187SOL     OW 9880   2.341   3.675   0.901 -0.6381 -0.5601 -0.1476
 3187SOL    HW1 9881   2.423   3.618   0.904 -0.7318 -0.7452 -0.8920
 3187SOL    HW2 9882   2.319   3.698   0.806 -1.8968 -1.1749 -0.0286
 3188SOL     OW 9883   1.844   4.122   0.742 -0.5997 -0.0137  0.1581
 3188SOL    HW1 9884   1.894   4.181   0.678  1.1723 -1.6303 -0.0262
 3188SOL    HW2 9885   1.782   4.063   0.691 -0.6197  0.0388  0.1214
 3189SOL     OW 9886   3.367   4.095   0.408 -0.6120  0.2123  0.7338
 3189SOL    HW1 9887   3.393   4.001   0.385  0.8793  0.8824 -0.5010
 3189SOL    HW2 9888   3.438   4.135   0.467 -0.8991  0.7817  0.6947
 3190SOL     OW 9889   3.086   5.336   2.048 -0.6861 -0.3394  0.1467
 3190SOL    HW1 9890   3.009   5.334   1.985  0.3849 -0.7059 -1.1907
 3190SOL    HW2 9891   3.056   5.372   2.136 -2.5943 -1.3469 -0.0332
 3191SOL     OW 9892   2.774   4.589   2.195  0.7540  0.1069 -0.1612
 3191SOL    HW1 9893   2.771   4.507   2.137 -0.1996 -0.3209  0.4765
 3191SOL    HW2 9894   2.861   4.637   2.179 -0.3932  1.3326 -3.7177
 3192SOL     OW 9895   3.830   3.595   5.153 -0.0491  0.4396  0.0425
 3192SOL    HW1 9896   3.856   3.530   5.081 -0.4558 -0.6257  0.8268
 3192SOL    HW2 9897   3.912   3.636   5.192  0.3090 -0.5644  0.3854
 3193SOL     OW 9898   3.152   5.056   1.364 -0.0582  0.1584 -0.1652
 3193SOL    HW1 9899   3.155   5.012   1.275 -1.9973  0.4465 -0.4136
 3193SOL    HW2 9900   3.094   5.137   1.360 -0.3469  0.0632  1.3984
 3194SOL     OW 9901   2.396   3.617   3.718  0.7150 -0.4522 -0.3690
 3194SOL    HW1 9902   2.389   3.712   3.691 -0.6521 -0.8618 -1.5322
 3194SOL    HW2 9903   2.463   3.570   3.660  0.1215 -0.5939 -0.9422
 3195SOL     OW 9904   4.704   4.300   0.878 -0.3132 -0.1520  0.3727
 3195SOL    HW1 9905   4.647   4.230   0.920 -1.3349  1.1363  1.2299
 3195SOL    HW2 9906   4.649   4.383   0.864  0.9202  0.5627 -0.3871
 3196SOL     OW 9907   1.200   5.071   1.611  0.5487 -0.3558  0.0794
 3196SOL    HW1 9908   1.154   5.056   1.524  1.4443 -1.4668 -0.2247
 3196SOL    HW2 9909   1.141   5.039   1.686  0.8697 -1.9981 -0.3220
 3197SOL     OW 9910   4.096   0.681   3.267 -0.3890  0.6034  0.0989
 3197SOL    HW1 9911   4.192   0.655   3.278 -0.6078  0.1383  0.9692
 3197SOL    HW2 9912   4.077   0.762   3.323 -0.6365  0.3613  0.3692
 3198SOL     OW 9913   3.467   2.856   3.964 -0.1730  0.6401 -0.3585
 3198SOL    HW1 9914   3.444   2.949   3.936 -1.8936  0.1478 -0.6648
 3198SOL    HW2 9915   3.497   2.856   4.059 -0.0204  1.5229 -0.4011
 3199SOL     OW 9916   2.815   5.493   0.675  0.2040 -0.4720  0.2043
 3199SOL    HW1 9917   2.869   5.509   0.592 -0.0526  0.0367  0.1316
 3199SOL    HW2 9918   2.877   5.483   0.753  0.4845 -1.7395 -0.1637
 3200SOL     OW 9919   1.863   4.559   1.405 -0.7140  0.3749 -0.5216
 3200SOL    HW1 9920   1.815   4.593   1.324 -1.7560  0.1431 -0.0236
 3200SOL    HW2 9921   1.918   4.479   1.381  0.0842  1.1211 -1.2672
 3201SOL     OW 9922   1.604   4.634   1.506  0.3399 -0.7887 -0.7653
 3201SOL    HW1 9923   1.543   4.555   1.511 -1.4269  0.4785 -1.2571
 3201SOL    HW2 9924   1.693   4.606   1.471 -0.2868 -2.5241 -1.0395
 3202SOL     OW 9925   2.800   4.019   2.241  0.0719  0.3432 -0.0165
 3202SOL    HW1 9926   2.830   4.007   2.336  1.6117 -0.2291 -0.5421
 3202SOL    HW2 9927   2.705   3.990   2.233  0.3586 -1.0603  1.0779
 3203SOL     OW 9928   3.984   0.244   0.623  0.6091 -0.4366 -0.2895
 3203SOL    HW1 9929   3.997   0.343   0.623  0.7330 -0.4501 -0.5692
 3203SOL    HW2 9930   3.932   0.217   0.542  1.4086 -0.6983 -0.7338
 3204SOL     OW 9931   1.794   0.142   0.429 -0.7895  0.5116  0.4264
 3204SOL    HW1 9932   1.718   0.207   0.437 -1.5169 -0.2591 -0.1310
 3204SOL    HW2 9933   1.795   0.104   0.337 -0.3901 -0.3048  0.7650
 3205SOL     OW 9934   2.718   5.096   1.256  0.1911 -0.1933 -0.6295
 3205SOL    HW1 9935   2.727   5.174   1.318 -0.0152 -0.2486 -0.5282
 3205SOL    HW2 9936   2.770   5.113   1.172 -0.8860  0.6063 -1.1577
 3206SOL     OW 9937   4.781   0.217   0.168  0.2774 -0.8228  0.4507
 3206SOL    HW1 9938   4.704   0.173   0.213  1.5014 -3.5307  0.1143
 3206SOL    HW2 9939   4.781   0.315   0.189 -1.9014 -1.1443  2.3063
 3207SOL     OW 9940   2.830   4.513   1.553  0.0110  0.4643  0.2354
 3207SOL    HW1 9941   2.896   4.575   1.510 -0.1409  0.4714  0.0072
 3207SOL    HW2 9942   2.834   4.523   1.652  1.3568 -0.5384  0.3289
 3208SOL     OW 9943   3.070   2.790   0.056 -0.1911 -0.3293 -0.3940
 3208SOL    HW1 9944   3.064   2.703   0.105  3.3886 -0.5793 -0.1457
 3208SOL    HW2 9945   3.006   2.789  -0.021 -1.5743 -2.3721  0.6926
 3209SOL     OW 9946   2.555   4.327   1.442  0.0191 -0.8751  0.2205
 3209SOL    HW1 9947   2.614   4.255   1.479  0.4638  0.2311  1.7947
 3209SOL    HW2 9948   2.586   4.353   1.351  1.4406 -0.9173  0.6767
 3210SOL     OW 9949   2.869   4.943   2.370 -0.0487  0.5817 -0.2246
 3210SOL    HW1 9950   2.785   4.975   2.413  0.1300  1.9370 -0.8378
 3210SOL    HW2 9951   2.913   4.874   2.429 -1.6196 -0.2277  0.0442
 3211SOL     OW 9952   3.484   3.362   4.057 -0.2180  0.5354  0.2956
 3211SOL    HW1 9953   3.480   3.377   4.156 -1.3587  1.3601  0.1356
 3211SOL    HW2 9954   3.451   3.443   4.009  0.6220  0.2648 -0.7825
 3212SOL     OW 9955   2.021   4.715   2.252 -0.5864  0.7118  0.1311
 3212SOL    HW1 9956   1.971   4.663   2.182 -0.0235  1.0978 -0.5614
 3212SOL    HW2 9957   1.957   4.774   2.301 -1.2775 -0.7470  1.0646
 3213SOL     OW 9958   5.306   4.557   1.453  0.2918 -0.2044  0.4709
 3213SOL    HW1 9959   5.381   4.593   1.508  1.1272 -1.6014  0.2927
 3213SOL    HW2 9960   5.299   4.458   1.467 -1.1677 -0.1788  0.0566
 3214SOL     OW 9961   1.675   5.401   3.045 -0.0271  0.1743 -0.4059
 3214SOL    HW1 9962   1.761   5.355   3.019 -0.2930 -0.0849 -0.8439
 3214SOL    HW2 9963   1.688   5.500   3.040  0.8404  0.1919  1.4770
 3215SOL     OW 9964   3.467   4.396   1.650  0.5591 -0.0715 -0.0797
 3215SOL    HW1 9965   3.389   4.430   1.703  2.0276  1.4176  1.2219
 3215SOL    HW2 9966   3.496   4.465   1.584  0.3483 -0.9055 -1.0642
 3216SOL     OW 9967   2.562   5.214   5.357  0.3631  0.7833 -0.1839
 3216SOL    HW1 9968   2.565   5.183   5.262  1.9335  1.2816 -0.3308
 3216SOL    HW2 9969   2.518   5.303   5.362 -1.0253  0.1156 -0.2340
 3217SOL     OW 9970   1.920   4.410   0.676  0.0226 -0.1128  0.1128
 3217SOL    HW1 9971   1.851   4.473   0.710 -0.9911 -1.5180  0.7733
 3217SOL    HW2 9972   1.888   4.368   0.591 -0.4821 -1.5915  0.9927
 3218SOL     OW 9973   3.615   4.556   5.469 -0.6738 -0.0961  0.0632
 3218SOL    HW1 9974   3.579   4.637   5.422 -2.4247 -0.3267  0.9306
 3218SOL    HW2 9975   3.605   4.477   5.409 -1.5475 -0.1339  0.2390
 3219SOL     OW 9976   4.437   1.184   1.960 -0.1502 -0.2200  0.0664
 3219SOL    HW1 9977   4.421   1.150   2.052 -0.0198  1.5067  0.7767
 3219SOL    HW2 9978   4.506   1.128   1.915 -1.1066 -1.8436  0.5308
 3220SOL     OW 9979   1.684   4.688   1.792 -0.5949  0.4283 -0.4072
 3220SOL    HW1 9980   1.686   4.589   1.797 -1.7900  0.4202  0.4887
 3220SOL    HW2 9981   1.627   4.716   1.715  0.1832  0.4322 -0.9900
 3221SOL     OW 9982   3.672   0.027   2.053 -0.8356  0.6973  0.6443
 3221SOL    HW1 9983   3.751   0.033   1.992 -0.2303 -1.3421  1.1345
 3221SOL    HW2 9984   3.592  -0.001   2.001 -0.8267  1.0380  0.4430
 3222SOL     OW 9985   3.087   4.015   1.258  0.1825  0.8920 -0.3234
 3222SOL    HW1 9986   3.106   4.111   1.280 -1.2062  0.5367  2.9564
 3222SOL    HW2 9987   3.001   4.009   1.208  0.1286  1.3179 -0.2851
 3223SOL     OW 9988   1.512   5.276   1.792 -0.0657 -0.5337  0.1001
 3223SOL    HW1 9989   1.543   5.236   1.706 -0.2980 -2.0421  0.6985
 3223SOL    HW2 9990   1.537   5.216   1.868 -0.2158  0.5861  1.0587
 3224SOL     OW 9991   3.904   4.873   5.500 -0.0441  0.1939  0.5216
 3224SOL    HW1 9992   3.815   4.881   5.544 -0.3690  0.3677 -0.1590
 3224SOL    HW2 9993   3.970   4.834   5.565 -0.8950 -1.0733  0.6564
 3225SOL     OW 9994   3.538   4.082   0.092 -0.1470 -0.5948  0.4356
 3225SOL    HW1 9995   3.503   4.173   0.115 -0.3950 -1.1465  2.4296
 3225SOL    HW2 9996   3.577   4.084  -0.000  0.5895  1.7291  0.7270
 3226SOL     OW 9997   3.202   0.940   3.250 -0.2206 -0.3672 -0.0405
 3226SOL    HW1 9998   3.241   1.030   3.269  1.1615 -0.1997 -2.9768
 3226SOL    HW2 9999   3.122   0.950   3.190  0.1052 -1.0632 -0.6138
 3227SOL     OW10000   3.653   1.102   3.137  0.1172 -0.7655  0.4570
 3227SOL    HW110001   3.633   1.153   3.221  0.2145 -1.4219  0.8907
 3227SOL    HW210002   3.578   1.038   3.119 -0.8353  0.7099 -1.0314
 3228SOL     OW10003   2.571   4.020   0.341  0.1310  0.0134 -0.0833
 3228SOL    HW110004   2.495   4.074   0.378  0.4214 -0.4342  1.1964
 3228SOL    HW210005   2.574   3.930   0.384  2.4560  0.6438  1.2595
 3229SOL     OW10006   1.140   0.571   1.150  0.0025  0.5576  0.4422
 3229SOL    HW110007   1.193   0.496   1.189 -0.3218  0.3583  0.5052
 3229SOL    HW210008   1.158   0.655   1.202  3.2052  1.4298 -1.8219
 3230SOL     OW10009   1.919   0.821   0.780 -0.2192  0.3019 -0.5116
 3230SOL    HW110010   1.836   0.813   0.724 -0.4979  1.1804 -0.2387
 3230SOL    HW210011   1.993   0.769   0.737 -0.8102 -0.1941 -0.9494
 3231SOL     OW10012   2.835   4.885   0.560 -0.4978  0.5063 -0.4085
 3231SOL    HW110013   2.895   4.885   0.480 -0.8874 -0.3117 -0.7182
 3231SOL    HW210014   2.793   4.795   0.570 -0.0639  0.4371  1.0240
 3232SOL     OW10015   3.700   4.173   5.410  0.5227  0.0846 -0.3550
 3232SOL    HW110016   3.642   4.237   5.359 -0.4248 -0.7013 -0.2910
 3232SOL    HW210017   3.777   4.222   5.449 -0.9255  1.4903  0.8912
 3233SOL     OW10018   3.123   4.330   0.695  0.0289  0.2806 -0.1788
 3233SOL    HW110019   3.155   4.342   0.789 -2.4162 -0.9827  0.9013
 3233SOL    HW210020   3.067   4.410   0.669 -1.3510 -0.4562  0.4087
 3234SOL     OW10021   2.986   5.437   0.876  0.1902 -0.1622  0.4507
 3234SOL    HW110022   2.970   5.507   0.946  0.8535 -0.7239  1.1851
 3234SOL    HW210023   3.084   5.417   0.871  0.0530 -0.7205 -0.0599
 3235SOL     OW10024   3.296   4.627   2.668 -0.3915 -0.1495 -0.2412
 3235SOL    HW110025   3.295   4.537   2.625  0.1714 -0.7495  0.9760
 3235SOL    HW210026   3.204   4.650   2.699 -0.2635 -0.9730  0.7882
 3236SOL     OW10027   3.026   0.252   0.224 -0.1629  0.2791  0.0231
 3236SOL    HW110028   3.108   0.287   0.179  0.5286 -1.5204 -0.2020
 3236SOL    HW210029   2.952   0.247   0.158  0.9139 -2.5850 -1.1361
 3237SOL     OW10030   3.096   3.943   4.857  0.4644  0.5008  0.1162
 3237SOL    HW110031   3.057   3.892   4.780  0.0419 -1.2362  1.3959
 3237SOL    HW210032   3.079   4.040   4.845 -2.3913  0.0161 -0.4685
 3238SOL     OW10033   1.438   4.369   1.162 -0.2657  0.1215  0.7880
 3238SOL    HW110034   1.481   4.385   1.073 -0.2541  0.2224  0.8116
 3238SOL    HW210035   1.397   4.454   1.195 -0.7511 -0.0472  0.6201
 3239SOL     OW10036   1.234   4.555   5.500 -0.0770  0.3245  0.2051
 3239SOL    HW110037   1.229   4.593   5.592  0.6113  0.7809  0.0611
 3239SOL    HW210038   1.177   4.473   5.494  0.5483 -0.1956  1.2718
 3240SOL     OW10039   2.245   4.877   1.817 -0.3762  0.3319  0.7999
 3240SOL    HW110040   2.330   4.830   1.839  1.2782  2.9858  0.5405
 3240SOL    HW210041   2.170   4.811   1.813  2.1504 -2.7088 -2.1574
 3241SOL     OW10042   5.050   3.789   5.566  0.1525  0.0142 -0.4498
 3241SOL    HW110043   5.117   3.717   5.583 -1.4200 -1.6797 -1.1332
 3241SOL    HW210044   5.076   3.839   5.483  0.2059 -1.1094 -1.1335
 3242SOL     OW10045   4.216   1.882   0.684 -0.2334  0.4320  0.2222
 3242SOL    HW110046   4.180   1.899   0.592 -1.2291  0.5752  0.6256
 3242SOL    HW210047   4.270   1.798   0.683 -1.8258 -0.6503 -0.1061
 3243SOL     OW10048   4.340   4.322   0.033  0.0564  0.3877 -0.1147
 3243SOL    HW110049   4.387   4.395   0.082  0.6932 -0.9643  1.4003
 3243SOL    HW210050   4.241   4.330   0.047  0.2110  0.1893  1.2130
 3244SOL     OW10051   0.501   4.352   0.027  0.2172 -0.3357  0.6473
 3244SOL    HW110052   0.527   4.294   0.105 -0.6886 -0.0817  1.1592
 3244SOL    HW210053   0.466   4.439   0.061 -1.7626 -0.8440  0.0599
 3245SOL     OW10054   0.838   3.595   1.859  0.2339  0.3345 -0.4700
 3245SOL    HW110055   0.841   3.686   1.817 -0.8852  1.0456  0.9182
 3245SOL    HW210056   0.825   3.526   1.787  1.5544  1.1956 -1.5987
 3246SOL     OW10057   2.390   3.742   2.093  0.0623  0.4350  0.1103
 3246SOL    HW110058   2.299   3.770   2.062 -0.0465 -2.0337 -2.1960
 3246SOL    HW210059   2.380   3.671   2.164  0.0528 -1.1259 -1.3794
 3247SOL     OW10060   2.014   3.930   5.383  0.9318  0.7431  0.8919
 3247SOL    HW110061   2.007   3.877   5.298  1.4494 -0.2675  1.4697
 3247SOL    HW210062   1.930   3.982   5.396  0.5952  0.4270  0.0724
 3248SOL     OW10063   2.425   4.863   2.259  0.1923  0.7284 -0.5792
 3248SOL    HW110064   2.364   4.850   2.338 -0.2813 -0.8144 -1.1622
 3248SOL    HW210065   2.379   4.921   2.191 -0.5957 -0.2845 -0.9381
 3249SOL     OW10066   3.216   3.617   0.244  0.8903 -0.1837  0.2236
 3249SOL    HW110067   3.174   3.663   0.322 -1.6030 -0.0274 -1.1323
 3249SOL    HW210068   3.280   3.547   0.277 -0.6133 -0.6095  2.4080
 3250SOL     OW10069   3.196   0.042   1.849  0.6032  0.3132  0.1532
 3250SOL    HW110070   3.227   0.134   1.828 -1.2432  1.1533  0.9107
 3250SOL    HW210071   3.254  -0.025   1.802  2.3267  1.8176  0.0472
 3251SOL     OW10072   0.903   1.073   1.245  0.6182 -0.1182 -0.5677
 3251SOL    HW110073   0.936   0.990   1.290 -0.0531 -0.2449 -0.3017
 3251SOL    HW210074   0.803   1.071   1.239  0.6021  0.6080 -0.6825
 3252SOL     OW10075   5.234   0.128   0.184 -0.2042 -0.2500  0.1325
 3252SOL    HW110076   5.138   0.112   0.159 -0.5231  0.1494  1.0637
 3252SOL    HW210077   5.250   0.226   0.191  0.5166 -0.2731 -0.8782
 3253SOL     OW10078   1.139   4.982   2.563 -0.0479 -0.0327  0.0110
 3253SOL    HW110079   1.104   5.053   2.623  1.1366 -0.3303  1.0860
 3253SOL    HW210080   1.170   5.023   2.477 -0.1043  0.6318  0.3037
 3254SOL     OW10081   2.972   4.666   3.460 -0.3066 -0.4544  0.4396
 3254SOL    HW110082   3.014   4.756   3.468 -0.5883 -0.2130 -0.5924
 3254SOL    HW210083   2.909   4.651   3.536  0.1897 -0.0237  0.9373
 3255SOL     OW10084   3.612   1.641   2.620 -0.5668  0.5027  0.5060
 3255SOL    HW110085   3.653   1.704   2.553  0.2534 -0.5989 -0.0569
 3255SOL    HW210086   3.513   1.651   2.618 -0.5989  0.1753 -1.2360
 3256SOL     OW10087   1.434   3.780   4.906  0.0871 -0.8432 -0.5716
 3256SOL    HW110088   1.399   3.863   4.864 -0.8032 -1.2438 -0.6512
 3256SOL    HW210089   1.410   3.701   4.849  1.6834 -1.0801 -0.9506
 3257SOL     OW10090   1.665   4.312   0.571 -0.3948 -0.1744  0.6028
 3257SOL    HW110091   1.607   4.238   0.608 -1.8493  1.1799  1.1590
 3257SOL    HW210092   1.636   4.399   0.610 -0.8410  1.1320 -2.4082
 3258SOL     OW10093   2.512   4.638   4.601  0.4511 -0.2355 -0.0148
 3258SOL    HW110094   2.427   4.610   4.557 -0.5766 -0.8451  2.2475
 3258SOL    HW210095   2.499   4.724   4.649  1.4625  0.2479 -0.5509
 3259SOL     OW10096   4.682   3.202   2.866 -0.6632  0.5620 -0.6746
 3259SOL    HW110097   4.646   3.197   2.773 -0.4696 -3.0692 -0.6861
 3259SOL    HW210098   4.781   3.186   2.864 -0.2126  2.7952  0.0532
 3260SOL     OW10099   2.866   5.197   0.376  0.1910 -0.0011  0.3827
 3260SOL    HW110100   2.958   5.237   0.383  0.2695 -0.4695  3.4022
 3260SOL    HW210101   2.873   5.104   0.341  0.5961  0.6121 -1.2869
 3261SOL     OW10102   2.238   4.411   0.159  0.0262  0.2661  0.0505
 3261SOL    HW110103   2.277   4.502   0.173  0.1348  0.0242  1.4539
 3261SOL    HW210104   2.257   4.381   0.065  3.3516  0.1322  0.6201
 3262SOL     OW10105   0.891   0.047   0.929 -0.0643  0.2696 -0.0496
 3262SOL    HW110106   0.862   0.087   0.842 -0.6318 -2.0084 -0.9976
 3262SOL    HW210107   0.991   0.049   0.936 -0.0922  3.2243  0.7207
 3263SOL     OW10108   1.112   5.511   0.693 -0.2594 -0.4291 -0.1786
 3263SOL    HW110109   1.077   5.435   0.747 -1.2579  0.3628  0.3352
 3263SOL    HW210110   1.205   5.491   0.662 -0.2017 -1.4952  0.6457
 3264SOL     OW10111   2.647   5.445   0.202  0.0744 -0.1151 -0.3865
 3264SOL    HW110112   2.709   5.493   0.264  0.1495 -3.0817  2.0764
 3264SOL    HW210113   2.699   5.408   0.125  0.7047  0.4725 -0.2458
 3265SOL     OW10114   3.307   1.163   2.581  0.1752  0.4133 -0.1418
 3265SOL    HW110115   3.387   1.199   2.532  0.0116  1.7665  0.5238
 3265SOL    HW210116   3.330   1.151   2.678 -0.2548  0.2540 -0.0575
 3266SOL     OW10117   0.916   5.509   1.339 -0.1803 -0.1726 -0.0790
 3266SOL    HW110118   0.870   5.552   1.417  1.4609  1.4544  0.0580
 3266SOL    HW210119   0.981   5.573   1.299 -1.1438 -0.8603 -3.0039
 3267SOL     OW10120   3.966   4.219   0.648 -0.1694 -0.1762 -0.3254
 3267SOL    HW110121   3.981   4.245   0.744 -0.2885  0.6558 -0.5268
 3267SOL    HW210122   3.897   4.147   0.644 -0.7662  0.3648  0.1570
 3268SOL     OW10123   1.543   5.259   1.315 -0.6026  0.1137  0.3302
 3268SOL    HW110124   1.607   5.184   1.299  0.7793  1.3001  0.1297
 3268SOL    HW210125   1.452   5.233   1.282  0.2892 -0.7167 -1.5893
 3269SOL     OW10126   3.650   4.502   2.143 -0.0499  0.1396 -0.2231
 3269SOL    HW110127   3.590   4.431   2.105 -0.2266 -0.7961  1.6934
 3269SOL    HW210128   3.730   4.459   2.186  0.1242  1.1325  0.4792
 3270SOL     OW10129   1.990   4.013   0.403  0.1665 -0.5967 -0.2371
 3270SOL    HW110130   1.947   4.102   0.389  0.4057 -0.2535  1.0786
 3270SOL    HW210131   2.080   4.013   0.361  0.3330 -0.0628  0.1047
 3271SOL     OW10132   4.175   3.711   0.156  0.1615 -0.1887 -0.2413
 3271SOL    HW110133   4.177   3.631   0.216  1.0364  0.0635  0.0723
 3271SOL    HW210134   4.100   3.700   0.090 -0.8364 -0.4597  0.8934
 3272SOL     OW10135   1.859   2.984   0.635 -0.0872  0.9198 -0.1947
 3272SOL    HW110136   1.865   2.884   0.628 -0.6599  0.8902 -0.2593
 3272SOL    HW210137   1.764   3.011   0.641  0.0635  1.4792 -0.3389
 3273SOL     OW10138   2.519   4.527   5.431 -0.0014  0.7660  0.3355
 3273SOL    HW110139   2.522   4.622   5.460  2.8340  1.1043 -0.7884
 3273SOL    HW210140   2.608   4.500   5.394 -0.9962 -2.0583 -0.2594
 3274SOL     OW10141   4.137   4.146   5.327 -0.3058  0.0245 -0.2563
 3274SOL    HW110142   4.085   4.226   5.356 -0.0684  0.7334 -1.7109
 3274SOL    HW210143   4.090   4.101   5.251  1.0225  0.5322 -1.4231
 3275SOL     OW10144   3.411   4.299   5.049 -0.2013  0.0358  0.0761
 3275SOL    HW110145   3.333   4.361   5.054 -1.1078 -0.9556 -1.0706
 3275SOL    HW210146   3.387   4.212   5.093  1.3518  0.7212  2.4401
 3276SOL     OW10147   1.999   5.357   0.234 -0.5219 -0.7574  0.3845
 3276SOL    HW110148   2.068   5.397   0.174 -1.1307  0.5882  0.5506
 3276SOL    HW210149   1.911   5.353   0.187 -0.9103 -0.0707  1.0245
 3277SOL     OW10150   1.312   1.001   1.045 -0.0481 -0.3664  0.4851
 3277SOL    HW110151   1.373   0.943   1.099  0.0367 -1.2557 -0.5359
 3277SOL    HW210152   1.317   0.974   0.949 -0.8287  0.6348  0.1442
 3278SOL     OW10153   2.931   4.376   0.314  0.2699  0.0327  0.2197
 3278SOL    HW110154   2.860   4.328   0.366 -0.2370 -0.9296 -1.2770
 3278SOL    HW210155   3.018   4.327   0.325  0.1512 -0.2064  0.1147
 3279SOL     OW10156   1.790   3.562   4.703 -0.1791  0.0987 -0.2786
 3279SOL    HW110157   1.736   3.556   4.787 -1.5534 -0.1248 -1.1464
 3279SOL    HW210158   1.877   3.608   4.722 -0.1323 -0.6270  1.4085
 3280SOL     OW10159   3.942   4.581   0.798  0.5721  0.1505  0.0697
 3280SOL    HW110160   3.990   4.550   0.716  1.4215  2.6198 -0.4427
 3280SOL    HW210161   3.993   4.655   0.841 -1.6209  1.3645  0.7667
 3281SOL     OW10162   0.783   3.794   4.469  0.9875  0.0310 -0.1017
 3281SOL    HW110163   0.730   3.798   4.384 -0.3652  0.0651  0.7193
 3281SOL    HW210164   0.721   3.785   4.547  2.2476 -0.9766  0.8285
 3282SOL     OW10165   3.143   4.365   4.605 -0.3397  0.2275 -0.8789
 3282SOL    HW110166   3.201   4.416   4.540 -0.1822  2.2128  0.7444
 3282SOL    HW210167   3.050   4.360   4.569 -0.5280  2.2980 -0.7977
 3283SOL     OW10168   0.517   3.791   1.466 -0.7325  0.2870  0.0248
 3283SOL    HW110169   0.432   3.744   1.444 -0.6605  0.4326 -0.5655
 3283SOL    HW210170   0.589   3.724   1.484 -1.2300  0.1286  1.6602
 3284SOL     OW10171   0.964   4.517   2.224  0.2556  0.2914  0.0324
 3284SOL    HW110172   0.936   4.608   2.254 -2.2433 -0.0403 -1.0380
 3284SOL    HW210173   1.017   4.525   2.139  1.6181  0.8186  0.9061
 3285SOL     OW10174   1.715   3.999   1.438 -0.0752  0.4573  0.0775
 3285SOL    HW110175   1.763   4.086   1.448  1.7862 -0.3985 -0.9719
 3285SOL    HW210176   1.706   3.977   1.341 -0.4981 -0.5584  0.3325
 3286SOL     OW10177   2.788   3.725   2.819 -0.0779 -0.5165 -0.1456
 3286SOL    HW110178   2.732   3.660   2.869 -0.9427  0.5105  0.2607
 3286SOL    HW210179   2.885   3.703   2.832 -0.3568 -2.3300 -0.8930
 3287SOL     OW10180   3.453   0.734   2.646  0.6110 -0.1267  0.0080
 3287SOL    HW110181   3.482   0.811   2.589  1.1364 -0.6398 -0.4357
 3287SOL    HW210182   3.397   0.672   2.592 -1.3303  0.8193  0.8446
 3288SOL     OW10183   2.119   5.338   1.952  0.2827  0.5055 -0.1936
 3288SOL    HW110184   2.126   5.241   1.975 -1.5081  0.2459 -0.6157
 3288SOL    HW210185   2.175   5.358   1.872  0.1112 -0.3382 -0.5305
 3289SOL     OW10186   3.836   5.041   1.280  0.8989 -0.0073  0.6595
 3289SOL    HW110187   3.747   5.084   1.263  0.6298 -0.9689 -0.6288
 3289SOL    HW210188   3.908   5.109   1.274  0.4555  0.3857 -0.9496
 3290SOL     OW10189   3.119   1.468   4.275  0.4689 -0.5012  0.2540
 3290SOL    HW110190   3.144   1.532   4.203 -0.3560  0.1733  0.5469
 3290SOL    HW210191   3.019   1.465   4.284  0.4441 -2.3555 -0.2077
 3291SOL     OW10192   1.859   4.574   3.357 -0.4718  0.3233  0.3805
 3291SOL    HW110193   1.823   4.481   3.342 -0.0476 -0.1408  2.0828
 3291SOL    HW210194   1.787   4.633   3.392 -0.7524  0.6751 -0.7425
 3292SOL     OW10195   1.362   3.158   3.728  0.2646  0.0183 -0.1783
 3292SOL    HW110196   1.424   3.182   3.802 -0.7166  2.2341  0.0026
 3292SOL    HW210197   1.279   3.213   3.735  0.1971  0.4298 -3.0115
 3293SOL     OW10198   2.840   0.272   0.040 -0.2402  0.4724 -0.0039
 3293SOL    HW110199   2.872   0.267  -0.054 -0.1647  0.3416  0.0287
 3293SOL    HW210200   2.821   0.368   0.064  1.3631  0.7202  0.3851
 3294SOL     OW10201   2.721   3.843   2.574 -0.4247 -0.5884  0.1008
 3294SOL    HW110202   2.743   3.792   2.657  0.2093 -1.0361 -0.3372
 3294SOL    HW210203   2.655   3.792   2.519 -1.3932  0.0284  0.6467
 3295SOL     OW10204   4.750   0.511   4.352 -0.3623 -0.2734  0.2553
 3295SOL    HW110205   4.696   0.495   4.270  0.2474 -0.4219 -0.1214
 3295SOL    HW210206   4.772   0.608   4.360 -2.1669  0.0863  1.3526
 3296SOL     OW10207   2.106   3.557   1.846  0.1903 -0.0168  0.0782
 3296SOL    HW110208   2.199   3.567   1.809  0.0373  0.0560 -0.2946
 3296SOL    HW210209   2.111   3.526   1.941  0.5783 -1.7490 -0.4763
 3297SOL     OW10210   2.308   4.996   2.050  0.6547 -0.1132  0.2695
 3297SOL    HW110211   2.272   4.953   1.967  0.1631 -0.2058  0.5275
 3297SOL    HW210212   2.402   5.028   2.033  0.5801 -0.1832 -0.3030
 3298SOL     OW10213   1.129   0.206   3.362  0.3863 -0.2396 -0.1397
 3298SOL    HW110214   1.156   0.177   3.270 -1.8381 -0.1125 -0.8820
 3298SOL    HW210215   1.168   0.296   3.381 -1.0104  0.8291 -1.9561
 3299SOL     OW10216   3.264   4.677   3.518 -0.4404 -0.0969  0.9642
 3299SOL    HW110217   3.182   4.621   3.504 -0.2135 -0.6138  1.6313
 3299SOL    HW210218   3.246   4.745   3.589 -0.6839  0.6280  0.2227
 3300SOL     OW10219   0.868   4.302   2.090  0.2726 -0.1696  0.2256
 3300SOL    HW110220   0.919   4.217   2.093  0.8228  0.1535  0.1644
 3300SOL    HW210221   0.905   4.366   2.158  0.2224  0.2130 -0.1000
 3301SOL     OW10222   1.311   1.655   4.932 -0.0457  0.7716 -0.0895
 3301SOL    HW110223   1.334   1.570   4.979 -1.1832  0.2546 -0.4355
 3301SOL    HW210224   1.347   1.654   4.839 -1.8283 -0.2602 -0.8086
 3302SOL     OW10225   3.414   5.113   1.771  0.4682 -0.6114  0.2862
 3302SOL    HW110226   3.458   5.070   1.849 -0.4422  0.1538  1.2565
 3302SOL    HW210227   3.375   5.201   1.799  2.3349  0.9393 -1.6488
 3303SOL     OW10228   1.078   4.342   3.554 -0.3336  0.2802 -0.4157
 3303SOL    HW110229   0.979   4.329   3.564 -0.3553  0.7499  0.0071
 3303SOL    HW210230   1.098   4.366   3.459 -0.6505  0.3906 -0.4559
 3304SOL     OW10231   3.099   3.672   4.337 -0.3227 -0.6160 -0.4336
 3304SOL    HW110232   3.094   3.721   4.250  0.2845 -0.4568 -0.3818
 3304SOL    HW210233   3.125   3.577   4.320 -0.1272 -0.5651 -0.4204
 3305SOL     OW10234   0.961   4.780   2.507 -0.0647  0.0447  0.2779
 3305SOL    HW110235   0.881   4.798   2.563 -0.2732  0.9349 -0.2740
 3305SOL    HW210236   1.028   4.853   2.521  0.3313 -0.2939  0.1751
 3306SOL     OW10237   4.310   4.812   2.384 -0.3581 -0.0684  0.7396
 3306SOL    HW110238   4.233   4.869   2.355  0.4991 -0.4113 -2.5873
 3306SOL    HW210239   4.364   4.786   2.304  0.9671 -3.1431  2.4659
 3307SOL     OW10240   1.931   0.218   1.054  0.2168 -0.1479 -0.2142
 3307SOL    HW110241   1.934   0.125   1.019  0.0006 -0.8141  1.4692
 3307SOL    HW210242   2.024   0.253   1.066  0.3211  0.6713 -2.8010
 3308SOL     OW10243   2.293   3.710   0.229 -0.3714  0.1110 -0.5185
 3308SOL    HW110244   2.391   3.722   0.218 -0.2926 -0.0053  0.0448
 3308SOL    HW210245   2.247   3.730   0.142  0.2413 -0.9162 -1.0929
 3309SOL     OW10246   3.360   0.141   2.666 -0.1275  0.1885 -0.1182
 3309SOL    HW110247   3.300   0.068   2.699 -1.1411  0.3046 -1.6085
 3309SOL    HW210248   3.317   0.230   2.682  0.2399  0.3574 -0.0467
 3310SOL     OW10249   1.656   4.892   3.880 -0.0590 -0.1539  0.0254
 3310SOL    HW110250   1.698   4.815   3.928  1.0037  0.8525  0.7411
 3310SOL    HW210251   1.709   4.913   3.797 -2.6256 -2.7584 -2.5137
 3311SOL     OW10252   2.432   4.160   2.363 -0.2789 -0.2035  0.2492
 3311SOL    HW110253   2.462   4.110   2.445 -1.0978  0.3846  0.9273
 3311SOL    HW210254   2.470   4.116   2.282 -0.2205 -1.3623  0.8771
 3312SOL     OW10255   4.262   4.836   3.574  0.2062 -0.0459  0.2188
 3312SOL    HW110256   4.230   4.752   3.617 -2.0275 -0.1940 -1.5219
 3312SOL    HW210257   4.287   4.818   3.479 -0.4340  1.2363 -0.2232
 3313SOL     OW10258   1.191   2.324   2.860 -0.3764  0.1011 -0.2964
 3313SOL    HW110259   1.184   2.306   2.762  0.2485  1.5675 -0.6449
 3313SOL    HW210260   1.229   2.244   2.907 -0.2112 -0.4326 -1.3279
 3314SOL     OW10261   3.916   1.902   4.311 -0.2840 -0.7547 -0.0468
 3314SOL    HW110262   3.963   1.822   4.275  1.7229 -0.1455  1.0665
 3314SOL    HW210263   3.861   1.944   4.239  2.9805  0.0068 -2.3113
 3315SOL     OW10264   1.927   5.463   1.527 -0.3599 -0.2374  0.3303
 3315SOL    HW110265   1.917   5.412   1.613 -2.0012 -1.4688 -0.5199
 3315SOL    HW210266   1.935   5.399   1.451 -1.1913  0.7919 -0.6625
 3316SOL     OW10267   2.925   1.195   3.495 -0.2155 -0.0548 -0.1845
 3316SOL    HW110268   2.861   1.123   3.467 -1.5016  1.5005 -1.3899
 3316SOL    HW210269   2.881   1.254   3.563  0.5589  0.0676  0.2219
 3317SOL     OW10270   2.722   4.636   3.946 -0.0364 -0.1234 -0.5291
 3317SOL    HW110271   2.772   4.703   4.000 -0.8589 -0.4717  0.7081
 3317SOL    HW210272   2.653   4.591   4.004 -0.8116 -0.6541 -1.8211
 3318SOL     OW10273   3.792   4.714   2.328 -0.3857 -0.8299 -0.2695
 3318SOL    HW110274   3.744   4.789   2.372  1.8112  0.1811  0.4931
 3318SOL    HW210275   3.725   4.651   2.288 -2.3425  0.0403  1.4746
 3319SOL     OW10276   3.461   2.139   1.827  0.3426 -0.1567 -1.0307
 3319SOL    HW110277   3.456   2.105   1.921  0.9217  0.8526 -0.6185
 3319SOL    HW210278   3.433   2.066   1.764 -2.3235 -0.1468  0.0222
 3320SOL     OW10279   1.086   4.677   1.709 -0.3847  0.1782  0.0803
 3320SOL    HW110280   1.133   4.596   1.673 -0.4169 -0.0298  0.5022
 3320SOL    HW210281   0.987   4.663   1.704 -0.3934 -0.4568  1.5737
 3321SOL     OW10282   4.266   5.539   1.616 -0.2229  0.0706 -0.2775
 3321SOL    HW110283   4.186   5.482   1.596  0.4059 -0.6497 -0.7888
 3321SOL    HW210284   4.253   5.585   1.705 -1.1142 -0.1774 -0.2686
 3322SOL     OW10285   2.338   0.335   4.035  0.3076 -0.2234  0.4382
 3322SOL    HW110286   2.381   0.295   3.954  2.0536  1.8559  0.2586
 3322SOL    HW210287   2.239   0.331   4.025  0.4363 -2.3308 -0.5805
 3323SOL     OW10288   2.501   4.851   4.810  0.2873 -0.1117  0.1082
 3323SOL    HW110289   2.521   4.766   4.858  0.3457  0.2613  0.7550
 3323SOL    HW210290   2.411   4.885   4.837  1.1765  1.1948  1.6043
 3324SOL     OW10291   3.330   3.713   3.142 -0.1001 -0.4085 -0.3087
 3324SOL    HW110292   3.296   3.677   3.229 -0.1640  0.5216  0.0566
 3324SOL    HW210293   3.252   3.730   3.081 -0.0980 -0.5374 -0.3479
 3325SOL     OW10294   2.826   5.526   2.763  0.0348 -0.2794 -0.1879
 3325SOL    HW110295   2.843   5.492   2.856 -1.0259 -1.6983 -0.4828
 3325SOL    HW210296   2.768   5.607   2.767  1.4236  0.7332  0.4534
 3326SOL     OW10297   2.819   4.591   3.694  0.3214  0.5397  0.1038
 3326SOL    HW110298   2.872   4.506   3.691  0.6889  0.7000  1.2916
 3326SOL    HW210299   2.791   4.609   3.789 -2.1455  0.2989 -0.5132
 3327SOL     OW10300   2.595   4.301   2.877  0.5862 -0.5703 -0.2938
 3327SOL    HW110301   2.530   4.344   2.815  1.0586 -0.2425 -0.5738
 3327SOL    HW210302   2.685   4.343   2.865  0.8353 -0.9701  0.1310
 3328SOL     OW10303   2.229   4.752   4.578 -0.3383 -0.6358 -0.0466
 3328SOL    HW110304   2.136   4.729   4.549  0.1213  0.1141 -2.2743
 3328SOL    HW210305   2.283   4.778   4.499  1.3054  0.6498  1.4226
 3329SOL     OW10306   2.225   4.975   3.363  0.4069  0.2334  0.2872
 3329SOL    HW110307   2.306   4.917   3.374  0.5258  0.3745  0.1595
 3329SOL    HW210308   2.145   4.917   3.346  0.2553  0.0222  1.6268
 3330SOL     OW10309   5.466   3.055   3.532  0.2283  0.1136  0.6019
 3330SOL    HW110310   5.506   2.968   3.503  0.7714  0.6614 -0.3483
 3330SOL    HW210311   5.366   3.050   3.526  0.2977  0.2193 -1.5404
 3331SOL     OW10312   2.158   5.355   3.575 -0.0564 -0.9239  0.0978
 3331SOL    HW110313   2.215   5.436   3.588 -1.1520 -0.0935 -0.1447
 3331SOL    HW210314   2.075   5.363   3.631  1.7863 -3.9246  3.6761
 3332SOL     OW10315   0.826   2.849   3.089 -0.4992  0.1844  0.4361
 3332SOL    HW110316   0.845   2.759   3.128 -0.4844  0.4326  1.0071
 3332SOL    HW210317   0.759   2.840   3.015  0.4164 -0.4502 -0.3268
 3333SOL     OW10318   2.396   4.326   1.653 -0.1319 -0.1373  0.4008
 3333SOL    HW110319   2.381   4.228   1.669  0.5838 -0.0416  1.7738
 3333SOL    HW210320   2.451   4.337   1.570 -0.4560 -0.8776  0.0693
 3334SOL     OW10321   2.548   0.045   4.654 -0.0392  0.6571  0.0911
 3334SOL    HW110322   2.455   0.020   4.624  0.2607  0.5205 -0.7622
 3334SOL    HW210323   2.602  -0.038   4.668 -0.5731  0.6420  2.4591
 3335SOL     OW10324   1.943   5.468   2.809  0.1733  0.4566 -0.0292
 3335SOL    HW110325   1.916   5.565   2.810 -0.7441  0.2138 -0.6187
 3335SOL    HW210326   2.035   5.459   2.848 -0.4162  1.3528  1.6551
 3336SOL     OW10327   2.913   5.420   2.270  0.1311 -0.0393  1.1238
 3336SOL    HW110328   2.926   5.323   2.292 -0.9845 -0.2401  0.9580
 3336SOL    HW210329   2.821   5.449   2.299 -0.0880  0.5837 -0.1088
 3337SOL     OW10330   1.046   0.618   2.808 -0.0975  0.3030 -0.4040
 3337SOL    HW110331   1.006   0.662   2.888  1.4836  0.2549  0.4502
 3337SOL    HW210332   1.066   0.687   2.738  1.5001  0.8453  0.5530
 3338SOL     OW10333   0.558   4.402   5.001 -0.5033 -0.0568  0.0290
 3338SOL    HW110334   0.532   4.413   5.097  1.5683  0.4815  0.5644
 3338SOL    HW210335   0.651   4.436   4.987 -0.2435 -1.4109 -1.9007
 3339SOL     OW10336   3.116   2.088   2.452  0.0011  0.4920  0.6084
 3339SOL    HW110337   3.077   2.022   2.515 -1.2238 -0.1472 -0.7437
 3339SOL    HW210338   3.160   2.039   2.376  0.5581  1.2330  0.4432
 3340SOL     OW10339   2.888   3.989   4.397  0.3018 -0.4596 -0.0865
 3340SOL    HW110340   2.842   3.901   4.384 -1.8898  0.5016  0.7370
 3340SOL    HW210341   2.882   4.016   4.493  1.6360  0.2607 -0.1781
 3341SOL     OW10342   1.042   4.514   2.610  0.2416  0.0528  0.4157
 3341SOL    HW110343   1.005   4.598   2.573 -2.6072 -0.5452  1.5956
 3341SOL    HW210344   1.028   4.439   2.545  1.7993  0.2495 -0.1871
 3342SOL     OW10345   2.578   5.394   3.272 -0.4401 -0.0187 -0.0153
 3342SOL    HW110346   2.569   5.298   3.245 -0.3214 -0.1622  0.4394
 3342SOL    HW210347   2.593   5.399   3.371  3.2058  0.2308 -0.4532
 3343SOL     OW10348   2.975   0.710   3.557  0.4135  0.3291  0.7928
 3343SOL    HW110349   3.001   0.619   3.524  0.3917  0.6570 -0.1311
 3343SOL    HW210350   2.879   0.727   3.537  1.0788  1.6538 -1.6131
 3344SOL     OW10351   2.513   1.398   1.491 -0.5274 -0.0079 -0.5524
 3344SOL    HW110352   2.516   1.400   1.391  0.5786  0.5739 -0.5274
 3344SOL    HW210353   2.601   1.364   1.525 -0.7505  0.1976  0.2318
 3345SOL     OW10354   0.792   4.620   1.717 -0.6936 -0.2879 -0.0470
 3345SOL    HW110355   0.736   4.675   1.779  0.3341 -0.5285  1.1573
 3345SOL    HW210356   0.735   4.584   1.643 -2.4955 -1.7377  1.9074
 3346SOL     OW10357   1.277   0.121   2.350 -0.6503 -0.0425 -0.6868
 3346SOL    HW110358   1.225   0.179   2.414  2.3657  0.9367  1.0537
 3346SOL    HW210359   1.254   0.025   2.367 -0.6715  0.2492  1.2353
 3347SOL     OW10360   3.058   5.171   3.748 -0.0842 -0.3115 -0.0809
 3347SOL    HW110361   3.144   5.177   3.696  0.4393 -0.2658  0.7714
 3347SOL    HW210362   3.034   5.075   3.760  0.4052 -0.3612  0.5594
 3348SOL     OW10363   1.505   5.184   2.679  0.7766  0.0755 -0.5018
 3348SOL    HW110364   1.427   5.147   2.628 -0.4748  0.3875  1.0688
 3348SOL    HW210365   1.520   5.279   2.653  0.7516 -0.0456 -0.9579
 3349SOL     OW10366   3.260   2.585   2.971 -0.1755  0.3878  0.1908
 3349SOL    HW110367   3.354   2.554   2.988 -0.1629  1.1496  1.6497
 3349SOL    HW210368   3.219   2.616   3.057 -1.6021  0.5360 -0.5146
 3350SOL     OW10369   2.570   4.653   1.488 -0.5226  0.7604  0.2081
 3350SOL    HW110370   2.657   4.609   1.514 -1.1877  0.6885  2.5053
 3350SOL    HW210371   2.589   4.737   1.437  0.8072 -0.8429 -2.1580
 3351SOL     OW10372   3.660   5.496   2.983  0.0199 -0.0480 -0.1219
 3351SOL    HW110373   3.626   5.512   2.891 -1.7028 -0.8758  0.3252
 3351SOL    HW210374   3.723   5.569   3.009 -0.5303  0.9170 -1.4365
 3352SOL     OW10375   1.502   4.884   4.432  0.0221 -0.2378  0.4958
 3352SOL    HW110376   1.517   4.983   4.434 -0.2830 -0.1996  0.7969
 3352SOL    HW210377   1.437   4.862   4.358 -0.5900 -0.1218  0.9910
 3353SOL     OW10378   4.717   3.439   1.040 -0.2788 -0.0851 -0.3365
 3353SOL    HW110379   4.806   3.425   0.998  1.0064  1.4792  1.6740
 3353SOL    HW210380   4.678   3.525   1.009  0.6597  1.0617  1.4910
 3354SOL     OW10381   2.406   3.141   2.452 -0.9019 -0.3775 -0.2354
 3354SOL    HW110382   2.448   3.231   2.446  0.7896 -1.0729  0.5871
 3354SOL    HW210383   2.467   3.073   2.412 -2.4567 -1.1121 -1.4805
 3355SOL     OW10384   2.114   4.886   3.673 -1.0481  0.0621 -0.2007
 3355SOL    HW110385   2.162   4.806   3.637 -1.5781 -0.1966 -0.3435
 3355SOL    HW210386   2.051   4.858   3.745 -1.4445  0.3053 -0.4466
 3356SOL     OW10387   1.250   3.288   2.887 -0.2094  0.0930  0.5589
 3356SOL    HW110388   1.215   3.367   2.936  0.4412 -1.3108  3.4919
 3356SOL    HW210389   1.199   3.206   2.915  1.4316 -1.0688  0.3081
 3357SOL     OW10390   4.427   4.195   3.378  0.3953  0.0015 -0.0762
 3357SOL    HW110391   4.448   4.098   3.385  0.1887  0.0059  0.6370
 3357SOL    HW210392   4.396   4.216   3.285 -1.8748 -1.0707  0.3801
 3358SOL     OW10393   2.237   0.581   1.676 -0.0073  0.5148  0.1152
 3358SOL    HW110394   2.218   0.595   1.578 -1.2345  0.7370  0.3712
 3358SOL    HW210395   2.266   0.667   1.717  1.5220  0.2030 -0.2491
 3359SOL     OW10396   2.448   0.044   3.009  0.4248  0.6089 -0.3321
 3359SOL    HW110397   2.401  -0.027   3.060 -0.9516  2.4841  1.1268
 3359SOL    HW210398   2.535   0.065   3.053  1.5559 -1.1318 -1.6171
 3360SOL     OW10399   1.484   0.149   3.245 -0.3786  0.1323  0.7764
 3360SOL    HW110400   1.504   0.078   3.312 -1.1494 -0.7753  0.0655
 3360SOL    HW210401   1.389   0.141   3.215  0.1004  0.1492 -0.8640
 3361SOL     OW10402   2.549   5.121   3.286 -0.0070  0.4488  0.0712
 3361SOL    HW110403   2.463   5.075   3.264  0.5327 -0.8895  0.7104
 3361SOL    HW210404   2.562   5.123   3.385  1.3941 -0.6848 -0.0664
 3362SOL     OW10405   1.914   3.629   1.204 -0.2409  0.3665  0.1711
 3362SOL    HW110406   1.932   3.725   1.186  0.8227  0.1928  0.1996
 3362SOL    HW210407   1.895   3.581   1.118  2.7965 -0.0642 -0.3840
 3363SOL     OW10408   3.048   5.009   4.773 -0.6204  0.0781 -0.4536
 3363SOL    HW110409   3.060   4.942   4.846 -0.5454 -0.2808 -0.7927
 3363SOL    HW210410   3.019   4.963   4.689 -0.3317  0.4369 -0.7555
 3364SOL     OW10411   3.157   0.331   4.924 -0.2794  0.2594 -0.4614
 3364SOL    HW110412   3.076   0.278   4.947 -0.4512  0.4777 -0.5573
 3364SOL    HW210413   3.211   0.348   5.007  0.3711 -1.0285 -0.5992
 3365SOL     OW10414   2.199   5.141   3.002  0.3449 -0.8278 -0.2080
 3365SOL    HW110415   2.202   5.185   3.091 -0.4115 -2.6144  0.7599
 3365SOL    HW210416   2.228   5.206   2.931  1.5551  0.4394  1.3763
 3366SOL     OW10417   2.436   4.444   3.200  0.3891  0.6087  0.5970
 3366SOL    HW110418   2.492   4.365   3.173 -0.6449  0.1773 -0.3695
 3366SOL    HW210419   2.495   4.524   3.209  1.2955 -0.0162  0.4630
 3367SOL     OW10420   3.187   0.178   5.244 -0.4399 -0.2808 -0.1287
 3367SOL    HW110421   3.110   0.213   5.190 -0.8691 -1.5708 -0.3992
 3367SOL    HW210422   3.225   0.251   5.300 -2.7889  0.0728  1.1252
 3368SOL     OW10423   3.007   5.146   2.703  0.4570 -0.1329 -0.2468
 3368SOL    HW110424   3.045   5.160   2.611  2.4696 -0.6651  0.4628
 3368SOL    HW210425   2.963   5.057   2.707 -0.7482  0.4040 -1.0272
 3369SOL     OW10426   2.581   5.245   4.044 -0.4528 -0.8389  0.7244
 3369SOL    HW110427   2.488   5.254   4.010 -0.4534 -0.2957  0.8698
 3369SOL    HW210428   2.601   5.319   4.108  0.5928 -0.0412 -0.4771
 3370SOL     OW10429   2.800   0.557   3.031  0.2170  0.1398 -0.3256
 3370SOL    HW110430   2.882   0.564   3.087 -0.2198 -0.0661  0.3442
 3370SOL    HW210431   2.741   0.484   3.067 -1.8024  2.3949  1.2096
 3371SOL     OW10432   3.042   5.182   2.399  0.0968 -0.2622  0.1786
 3371SOL    HW110433   2.978   5.107   2.416  0.1799 -0.3278  0.2016
 3371SOL    HW210434   3.130   5.145   2.370 -0.1671 -0.1311 -0.8142
 3372SOL     OW10435   2.799   4.039   3.229  0.5199  0.3314  0.1602
 3372SOL    HW110436   2.823   4.044   3.132  2.1142 -0.3312  0.4822
 3372SOL    HW210437   2.833   3.953   3.267 -0.1995  0.5309  1.2861
 3373SOL     OW10438   1.647   5.172   1.568  0.1547 -0.1331 -0.4961
 3373SOL    HW110439   1.635   5.180   1.469 -0.3902  1.8624 -0.3137
 3373SOL    HW210440   1.744   5.166   1.590  0.4887  2.3778 -1.0417
 3374SOL     OW10441   5.070   5.119   2.293  0.2646  0.7329  0.0615
 3374SOL    HW110442   5.113   5.032   2.318 -0.7999 -0.1855 -1.1949
 3374SOL    HW210443   4.980   5.125   2.334 -0.2824  0.5380 -1.0644
 3375SOL     OW10444   1.688   4.722   4.327  0.1584  0.5485  0.2861
 3375SOL    HW110445   1.650   4.631   4.342 -0.7899  0.8821 -0.0488
 3375SOL    HW210446   1.625   4.791   4.363 -0.4653  1.1978 -1.9359
 3376SOL     OW10447   3.447   0.473   3.285 -0.3315 -0.1001  0.2757
 3376SOL    HW110448   3.392   0.499   3.206 -1.6126  0.1733  1.2170
 3376SOL    HW210449   3.511   0.546   3.308  0.4246 -0.4053 -0.8126
 3377SOL     OW10450   2.173   5.296   4.325 -1.1449 -0.6241 -0.1983
 3377SOL    HW110451   2.133   5.230   4.260  2.2011 -1.7833 -1.2745
 3377SOL    HW210452   2.208   5.247   4.404 -0.8083  0.2067  0.1734
 3378SOL     OW10453   3.577   0.292   3.033  0.6765  0.3303 -0.5970
 3378SOL    HW110454   3.554   0.379   2.989  0.1437  1.4732  1.7518
 3378SOL    HW210455   3.493   0.241   3.052  0.8708 -0.0366 -0.7141
 3379SOL     OW10456   2.847   3.265   3.270  0.1628 -0.2117  0.2610
 3379SOL    HW110457   2.854   3.270   3.171 -1.4850 -1.0025  0.0789
 3379SOL    HW210458   2.753   3.280   3.299  0.4467 -0.8304  1.6408
 3380SOL     OW10459   1.626   5.467   3.732 -0.0989  0.1721 -0.4755
 3380SOL    HW110460   1.701   5.507   3.680  0.9484 -0.5127  0.4695
 3380SOL    HW210461   1.599   5.529   3.806 -0.3353  0.3238 -0.6855
 3381SOL     OW10462   2.168   4.039   2.028  0.0061  0.1405 -0.1476
 3381SOL    HW110463   2.193   4.011   1.936 -0.4114 -0.3107 -0.1323
 3381SOL    HW210464   2.198   4.133   2.044 -2.7082  1.4571 -1.8977
 3382SOL     OW10465   3.212   5.344   3.430 -0.0137 -0.4873 -0.2172
 3382SOL    HW110466   3.121   5.357   3.469 -0.1876  0.1938 -0.8233
 3382SOL    HW210467   3.222   5.249   3.400  0.5516 -1.3612  2.4977
 3383SOL     OW10468   3.411   3.996   2.112  0.0765 -0.1099 -0.4090
 3383SOL    HW110469   3.463   4.044   2.183  1.5988 -1.1940 -0.7210
 3383SOL    HW210470   3.335   3.946   2.154  0.2487  0.2116  0.2950
 3384SOL     OW10471   2.469   5.184   4.680 -0.4045  0.1519  0.1071
 3384SOL    HW110472   2.501   5.270   4.719 -1.6270  1.5500 -1.7595
 3384SOL    HW210473   2.545   5.119   4.674  0.9652  1.7096  0.0424
 3385SOL     OW10474   0.488   4.887   3.149  0.0856  0.2028 -0.1715
 3385SOL    HW110475   0.565   4.823   3.150  1.1495  1.4406  0.4604
 3385SOL    HW210476   0.425   4.864   3.224 -0.4465 -1.1107 -0.9854
 3386SOL     OW10477   2.525   3.238   0.788 -0.0135  0.0461 -0.2070
 3386SOL    HW110478   2.592   3.282   0.848 -1.1384 -0.1563  1.2315
 3386SOL    HW210479   2.493   3.154   0.830  0.4244 -1.0171 -1.8958
 3387SOL     OW10480   2.497   4.784   1.904  0.0494 -0.1728 -0.5234
 3387SOL    HW110481   2.557   4.864   1.907  0.4806 -0.4660 -1.0323
 3387SOL    HW210482   2.514   4.727   1.985 -0.0036  0.0668 -0.3422
 3388SOL     OW10483   1.550   2.604   2.013 -0.6588 -0.2777  0.0122
 3388SOL    HW110484   1.585   2.510   2.012 -0.4362 -0.2289  1.4904
 3388SOL    HW210485   1.491   2.618   2.092  2.7710  1.9636  2.5157
 3389SOL     OW10486   4.115   3.629   2.162 -0.2624  0.0573  0.2065
 3389SOL    HW110487   4.068   3.596   2.080  0.4396  0.2857 -0.2958
 3389SOL    HW210488   4.180   3.701   2.137 -1.6628  1.7771  1.2666
 3390SOL     OW10489   0.019   0.108   2.673 -0.1761  0.3359 -0.9047
 3390SOL    HW110490   0.010   0.203   2.703 -1.1325  0.3612 -1.2373
 3390SOL    HW210491  -0.018   0.098   2.580 -1.9135 -0.7350 -0.1514
 3391SOL     OW10492   2.887   4.672   4.770  0.0405  0.0809  0.4124
 3391SOL    HW110493   2.835   4.617   4.705  1.1994 -1.6847  0.8996
 3391SOL    HW210494   2.980   4.636   4.777  1.0699  2.5157  0.3122
 3392SOL     OW10495   4.316   4.671   4.819 -0.4565  0.2240  0.2358
 3392SOL    HW110496   4.258   4.603   4.865 -0.8659 -1.7327 -2.8361
 3392SOL    HW210497   4.409   4.635   4.811 -0.0728  1.1018  0.6050
 3393SOL     OW10498   2.549   4.221   3.411  0.0609  0.2678 -0.0831
 3393SOL    HW110499   2.533   4.214   3.313  0.1985  0.0666 -0.0922
 3393SOL    HW210500   2.646   4.239   3.428  0.1612 -0.3347  0.0361
 3394SOL     OW10501   1.765   2.810   2.034  0.1094  0.7969  0.6822
 3394SOL    HW110502   1.824   2.743   2.079  1.2927 -0.2380 -2.1339
 3394SOL    HW210503   1.673   2.772   2.022  0.8883 -0.6568 -1.2891
 3395SOL     OW10504   0.324   3.799   3.664  0.1140  0.0341  0.2896
 3395SOL    HW110505   0.323   3.897   3.648  1.0459 -0.2191 -1.6157
 3395SOL    HW210506   0.376   3.753   3.592 -0.4646 -1.8936  1.0096
 3396SOL     OW10507   3.729   3.868   3.314  0.7624 -0.5404 -0.1522
 3396SOL    HW110508   3.791   3.791   3.300 -1.0093 -1.7365 -1.8915
 3396SOL    HW210509   3.740   3.934   3.240 -0.8889 -1.4175 -1.2448
 3397SOL     OW10510   1.519   4.192   3.060 -0.1439  0.1703  0.1021
 3397SOL    HW110511   1.451   4.121   3.080  0.1148 -0.0085  0.3699
 3397SOL    HW210512   1.497   4.275   3.111  0.0616 -0.0207  0.5119
 3398SOL     OW10513   2.641   3.933   2.932 -0.1494  0.6185 -0.3552
 3398SOL    HW110514   2.698   3.873   2.876  0.1841  0.3109  0.2997
 3398SOL    HW210515   2.545   3.907   2.923 -0.1095  0.6635 -0.8912
 3399SOL     OW10516   0.980   5.059   3.943  0.0010  0.3294 -0.7884
 3399SOL    HW110517   0.894   5.105   3.918  0.0636  1.0540  0.2603
 3399SOL    HW210518   1.057   5.116   3.915  0.1706 -0.4086 -1.9000
 3400SOL     OW10519   2.525   4.154   1.958  0.1699  0.1956 -0.1191
 3400SOL    HW110520   2.432   4.153   1.922  0.2194  1.7344 -0.3734
 3400SOL    HW210521   2.587   4.108   1.894 -0.2570  0.0356 -0.4190
 3401SOL     OW10522   3.432   3.413   2.949  0.9020  0.3390  0.1323
 3401SOL    HW110523   3.488   3.331   2.965  1.0657  0.4554  0.1618
 3401SOL    HW210524   3.491   3.494   2.951  0.6392  0.5231  0.8070
 3402SOL     OW10525   1.940   3.687   2.728  0.1592 -0.5221  0.3079
 3402SOL    HW110526   1.999   3.710   2.650 -0.0426 -1.2499 -0.0698
 3402SOL    HW210527   1.935   3.587   2.737 -0.9176 -0.4705  0.4045
 3403SOL     OW10528   4.163   2.913   1.760  0.6333 -0.1534  0.2054
 3403SOL    HW110529   4.207   2.854   1.693 -3.0558 -1.2572 -1.5346
 3403SOL    HW210530   4.097   2.859   1.813 -1.5231  1.9343 -0.1528
 3404SOL     OW10531   0.678   2.795   2.350 -0.0356  0.4847  0.3854
 3404SOL    HW110532   0.676   2.753   2.441 -1.6972 -0.8730 -0.2268
 3404SOL    HW210533   0.737   2.740   2.290  0.1640  0.7488  0.3363
 3405SOL     OW10534   3.180   1.106   5.285 -0.0809  0.0529  0.0524
 3405SOL    HW110535   3.215   1.198   5.265 -1.0753  0.5898  0.6878
 3405SOL    HW210536   3.253   1.039   5.271  0.3629  0.8046 -1.4811
 3406SOL     OW10537   1.776   0.031   0.117 -0.3437  0.2791  0.3832
 3406SOL    HW110538   1.679   0.054   0.123 -0.4598  0.7617 -2.1002
 3406SOL    HW210539   1.786  -0.065   0.092 -0.3378  0.8647 -2.0732
 3407SOL     OW10540   1.132   3.008   2.668 -0.5030 -0.3126 -0.0671
 3407SOL    HW110541   1.117   3.107   2.667 -0.8115 -0.3658 -1.0995
 3407SOL    HW210542   1.103   2.968   2.581  0.4776 -1.1898 -0.0104
 3408SOL     OW10543   1.799   4.433   3.016 -0.0818  0.2822  0.1822
 3408SOL    HW110544   1.713   4.479   2.996  0.5694  1.9650  1.0232
 3408SOL    HW210545   1.873   4.475   2.962  0.4581 -0.0854  0.6212
 3409SOL     OW10546   2.116   1.035   2.196  0.7724 -0.7151  0.2237
 3409SOL    HW110547   2.021   1.041   2.226  0.7012  1.4201 -0.2928
 3409SOL    HW210548   2.120   0.989   2.108  0.0262  0.3760 -0.4057
 3410SOL     OW10549   3.097   5.105   3.062 -0.2534  0.2261 -0.6035
 3410SOL    HW110550   3.010   5.063   3.038 -0.7007  0.4149  0.6459
 3410SOL    HW210551   3.170   5.063   3.007 -0.7155 -2.0227  0.3603
 3411SOL     OW10552   1.996   3.634   3.712  0.6891  0.0146 -0.2080
 3411SOL    HW110553   1.972   3.707   3.647 -1.0640 -0.6411 -0.3483
 3411SOL    HW210554   2.062   3.572   3.670  1.1958  0.7812 -0.5643
 3412SOL     OW10555   5.448   4.517   2.053  0.5138  0.0215 -0.4167
 3412SOL    HW110556   5.473   4.441   1.992 -0.2787  0.7337 -1.6773
 3412SOL    HW210557   5.404   4.589   2.000 -0.2900  0.6434  1.0404
 3413SOL     OW10558   3.473   4.681   2.856 -0.2959  0.1323  0.5020
 3413SOL    HW110559   3.403   4.663   2.787  0.0027 -0.9583  0.4607
 3413SOL    HW210560   3.429   4.696   2.945 -0.6703  1.3565  0.1229
 3414SOL     OW10561   2.382   3.056   3.677  0.0403 -0.1294  0.6812
 3414SOL    HW110562   2.432   3.072   3.763 -0.1860  0.2497  0.7414
 3414SOL    HW210563   2.354   2.960   3.673  0.4758 -0.2667  0.8043
 3415SOL     OW10564   0.449   0.394   1.160 -0.6775  0.0280 -0.1278
 3415SOL    HW110565   0.473   0.322   1.095  1.6491 -1.9952  2.7185
 3415SOL    HW210566   0.529   0.419   1.213 -2.2477  2.2914  1.3495
 3416SOL     OW10567   5.478   0.281   3.092  0.2350 -0.3836 -0.0952
 3416SOL    HW110568   5.485   0.181   3.091  2.1204 -0.2808  0.4367
 3416SOL    HW210569   5.414   0.309   3.163 -0.5253 -1.2098 -0.4335
 3417SOL     OW10570   0.274   0.688   2.138  0.5758 -0.3152  0.0169
 3417SOL    HW110571   0.359   0.709   2.091  2.1943 -0.8606  2.4831
 3417SOL    HW210572   0.279   0.596   2.177 -0.6065  0.1132  1.2810
 3418SOL     OW10573   3.373   4.841   3.358  0.4683 -0.5194 -0.3999
 3418SOL    HW110574   3.455   4.871   3.408  0.1963 -0.1127 -0.1925
 3418SOL    HW210575   3.318   4.783   3.418  0.1598 -0.0607 -0.2351
 3419SOL     OW10576   2.416   4.910   3.912  0.2095  0.2145  0.0668
 3419SOL    HW110577   2.380   4.996   3.875 -1.5960 -0.6183 -0.2362
 3419SOL    HW210578   2.500   4.886   3.863 -0.8461  0.3321 -1.9183
 3420SOL     OW10579   1.404   4.792   3.944  0.3614 -0.0693  0.0688
 3420SOL    HW110580   1.354   4.765   3.862 -0.4375  0.5884  0.3312
 3420SOL    HW210581   1.491   4.833   3.917 -0.4983  1.4405 -0.5410
 3421SOL     OW10582   3.974   4.268   4.248  0.1595 -0.3547  0.3959
 3421SOL    HW110583   4.033   4.197   4.210  0.6800  0.0420  0.4568
 3421SOL    HW210584   4.028   4.350   4.268 -0.6085  0.4560 -0.6871
 3422SOL     OW10585   2.556   5.157   2.767  0.0393 -0.5236  0.2144
 3422SOL    HW110586   2.604   5.175   2.852 -0.6136 -0.8465  0.6645
 3422SOL    HW210587   2.523   5.062   2.767 -1.8548  0.0856  0.5871
 3423SOL     OW10588   3.425   4.288   4.737 -0.1196  0.0364 -0.3285
 3423SOL    HW110589   3.429   4.289   4.837 -0.6024  0.2069 -0.3083
 3423SOL    HW210590   3.419   4.194   4.704  1.3663 -0.1064 -0.2609
 3424SOL     OW10591   2.122   0.786   4.217 -0.0626 -0.5805  0.0653
 3424SOL    HW110592   2.024   0.765   4.215  0.1149 -1.3450 -0.6626
 3424SOL    HW210593   2.174   0.706   4.188  0.7740 -0.1006  0.2276
 3425SOL     OW10594   2.002   3.906   4.212  0.2311  0.3643  0.3152
 3425SOL    HW110595   2.013   3.807   4.207  1.3474  0.4582  0.6690
 3425SOL    HW210596   2.019   3.946   4.122 -0.0465  0.2562  0.2130
 3426SOL     OW10597   1.946   4.401   4.289  0.1066  0.4844 -0.0926
 3426SOL    HW110598   1.977   4.432   4.199  0.7385  0.9668  0.2850
 3426SOL    HW210599   1.996   4.318   4.315  0.5583  0.8356  0.1846
 3427SOL     OW10600   2.447   3.970   4.565  0.6315 -0.2481 -0.3691
 3427SOL    HW110601   2.517   3.931   4.626 -0.0712 -1.4496 -0.3001
 3427SOL    HW210602   2.368   3.997   4.619  0.6876  0.2829 -0.5537
 3428SOL     OW10603   0.688   0.164   5.082  0.2482 -0.6759  0.0280
 3428SOL    HW110604   0.698   0.249   5.031  0.2094 -1.4061 -1.2474
 3428SOL    HW210605   0.775   0.115   5.084 -0.3236 -1.8418 -1.5644
 3429SOL     OW10606   2.487   3.595   2.722  0.7767 -0.2608  0.0182
 3429SOL    HW110607   2.418   3.531   2.756  0.4589  0.1423  0.1395
 3429SOL    HW210608   2.460   3.689   2.745 -0.2385  0.1804 -2.6600
 3430SOL     OW10609   1.423   5.205   2.374 -0.2156  0.4433  0.7439
 3430SOL    HW110610   1.334   5.215   2.329 -1.3394 -0.5147  2.6309
 3430SOL    HW210611   1.453   5.110   2.366  0.1853  0.5545  0.9204
 3431SOL     OW10612   3.799   4.671   3.554  0.3101  0.5506 -0.4468
 3431SOL    HW110613   3.791   4.752   3.613  0.6786  0.1223  0.2118
 3431SOL    HW210614   3.713   4.656   3.507  0.1163  1.1104 -0.2869
 3432SOL     OW10615   3.336   4.766   3.081  0.0834 -0.2479 -0.1584
 3432SOL    HW110616   3.260   4.702   3.067  0.8472 -1.0495 -0.7213
 3432SOL    HW210617   3.335   4.798   3.176 -0.2699 -1.1729  0.1626
 3433SOL     OW10618   0.591   2.224   2.506 -0.1258  0.6589 -0.0285
 3433SOL    HW110619   0.521   2.177   2.452  0.9155 -0.4379 -0.4627
 3433SOL    HW210620   0.671   2.241   2.449 -0.4692  3.0593  0.1016
 3434SOL     OW10621   2.923   5.288   3.176  0.4930  0.5877  0.1680
 3434SOL    HW110622   2.927   5.271   3.275  3.0915  1.2426  0.2386
 3434SOL    HW210623   2.987   5.227   3.129 -2.6760 -1.7213 -1.5345
 3435SOL     OW10624   3.335   4.230   3.088 -0.1981  0.0502  0.7300
 3435SOL    HW110625   3.289   4.189   3.166 -0.9212  0.7076  0.6637
 3435SOL    HW210626   3.426   4.189   3.077 -1.1864 -2.1002  0.1643
 3436SOL     OW10627   1.390   4.044   2.308 -0.7043  0.1471 -0.2362
 3436SOL    HW110628   1.365   4.031   2.212 -0.4867  1.2689 -0.4603
 3436SOL    HW210629   1.424   4.137   2.321 -0.2629 -0.1497  0.8326
 3437SOL     OW10630   2.673   0.297   4.272 -0.6663 -0.0205 -0.1885
 3437SOL    HW110631   2.668   0.371   4.206 -2.4163  0.8982  0.8971
 3437SOL    HW210632   2.580   0.269   4.298 -0.0528 -0.1192  2.1144
 3438SOL     OW10633   3.126   4.132   2.378  0.2800 -0.3864  0.2350
 3438SOL    HW110634   3.029   4.130   2.402 -0.1386 -0.2491 -1.3625
 3438SOL    HW210635   3.181   4.118   2.461 -1.1325 -3.6793  0.7966
 3439SOL     OW10636   2.391   1.484   3.525 -0.0926 -0.2243  0.3897
 3439SOL    HW110637   2.372   1.543   3.604 -1.6476 -0.6516  0.3721
 3439SOL    HW210638   2.489   1.465   3.521  0.1836  0.8002  1.4988
 3440SOL     OW10639   3.626   0.632   2.372 -0.4444  0.5350  0.0796
 3440SOL    HW110640   3.664   0.627   2.465 -1.4889 -1.3569  0.4674
 3440SOL    HW210641   3.529   0.605   2.375 -0.2795 -0.3596 -1.6577
 3441SOL     OW10642   3.290   0.149   4.000  0.2562  0.4334  0.1854
 3441SOL    HW110643   3.341   0.226   3.962  1.8847  1.3462  3.7625
 3441SOL    HW210644   3.192   0.165   3.988  0.6185  2.0027 -1.0015
 3442SOL     OW10645   3.389   5.427   2.244 -0.0716  0.4792 -0.4395
 3442SOL    HW110646   3.317   5.479   2.198 -0.1148  0.4544 -0.3999
 3442SOL    HW210647   3.361   5.406   2.337 -1.0446 -1.5152 -1.1004
 3443SOL     OW10648   1.239   0.442   1.826  0.2278 -0.2619 -0.0597
 3443SOL    HW110649   1.227   0.345   1.807  0.6031 -0.2852 -0.1980
 3443SOL    HW210650   1.178   0.470   1.899  0.0903 -0.5945 -0.0469
 3444SOL     OW10651   0.684   4.711   3.159  0.1127  0.0929  0.0806
 3444SOL    HW110652   0.705   4.650   3.236 -0.7465 -0.8470 -0.4033
 3444SOL    HW210653   0.759   4.708   3.093  0.7814  0.7795  0.7916
 3445SOL     OW10654   2.010   5.115   4.710 -0.0217  0.1398  1.3269
 3445SOL    HW110655   1.998   5.058   4.791 -1.6065  0.6180  1.4678
 3445SOL    HW210656   1.930   5.106   4.651  0.4140  1.0058  0.5855
 3446SOL     OW10657   2.481   3.761   1.810 -0.2669 -0.0395  0.0015
 3446SOL    HW110658   2.465   3.729   1.903 -1.7248  2.0705  0.5585
 3446SOL    HW210659   2.445   3.693   1.745 -2.9257  0.1713  1.0989
 3447SOL     OW10660   2.301   4.551   2.008  0.4099  0.3214 -0.0168
 3447SOL    HW110661   2.394   4.578   2.033  0.6416 -0.9929  0.6561
 3447SOL    HW210662   2.287   4.563   1.910  1.1651  0.8969 -0.0579
 3448SOL     OW10663   2.696   4.674   4.302  0.2906 -0.3669  0.7321
 3448SOL    HW110664   2.754   4.666   4.383 -1.2123  1.3237  2.0542
 3448SOL    HW210665   2.746   4.722   4.230  1.5799 -1.7280  0.6579
 3449SOL     OW10666   2.045   4.780   3.251  0.1198  0.1197 -0.2019
 3449SOL    HW110667   2.003   4.711   3.310  1.8644 -0.3854  0.5303
 3449SOL    HW210668   2.110   4.736   3.189  1.2829  1.0610  0.2963
 3450SOL     OW10669   2.301   3.431   2.828 -0.4737  0.6292 -0.0066
 3450SOL    HW110670   2.296   3.422   2.927  1.0013  0.2893  0.0495
 3450SOL    HW210671   2.272   3.346   2.785 -2.5317  1.2318  0.0475
 3451SOL     OW10672   1.756   5.251   2.457 -0.0052 -0.0547  0.6539
 3451SOL    HW110673   1.842   5.262   2.407 -0.9907  1.6782 -0.8088
 3451SOL    HW210674   1.771   5.270   2.554  1.0378  1.6812  0.2037
 3452SOL     OW10675   1.776   4.631   2.622 -0.2689 -0.1251  0.4029
 3452SOL    HW110676   1.717   4.698   2.668 -0.6270 -0.1358 -0.0274
 3452SOL    HW210677   1.721   4.552   2.595 -0.0990 -0.0582 -0.1566
 3453SOL     OW10678   4.577   5.190   3.505 -0.0333 -0.3360  0.3709
 3453SOL    HW110679   4.553   5.093   3.498 -2.9390  0.2085  1.5873
 3453SOL    HW210680   4.515   5.244   3.448  0.8521  0.9170  0.5542
 3454SOL     OW10681   2.364   0.758   1.960 -0.5758  0.0377 -0.4887
 3454SOL    HW110682   2.458   0.737   1.932  0.6677  0.9091  2.6244
 3454SOL    HW210683   2.309   0.674   1.956  0.7797 -0.8754 -0.7385
 3455SOL     OW10684   2.514   4.504   0.454  0.5226 -0.0081 -0.3241
 3455SOL    HW110685   2.516   4.404   0.460  3.3943  0.0189  0.4318
 3455SOL    HW210686   2.482   4.542   0.540  4.0314 -0.3136  1.2909
 3456SOL     OW10687   2.877   4.798   4.151 -0.2456 -0.5261  0.4981
 3456SOL    HW110688   2.858   4.896   4.150 -0.6729 -0.6129 -0.6977
 3456SOL    HW210689   2.957   4.781   4.209  1.0513  0.7688 -0.8282
 3457SOL     OW10690   2.198   4.014   1.245 -0.4197  0.0285 -0.0453
 3457SOL    HW110691   2.281   3.967   1.274 -0.4600 -1.0048 -1.5199
 3457SOL    HW210692   2.183   4.094   1.304  1.5076  0.1549  0.3444
 3458SOL     OW10693   4.086   4.005   1.577 -0.2289  0.3404  0.5458
 3458SOL    HW110694   4.009   3.972   1.522  0.3767  1.3859 -0.9531
 3458SOL    HW210695   4.051   4.060   1.653 -1.0895 -1.4109  1.4820
 3459SOL     OW10696   2.403   3.793   3.088 -0.2837 -0.7234 -0.2160
 3459SOL    HW110697   2.461   3.784   3.169  0.0768 -1.3344 -0.5364
 3459SOL    HW210698   2.317   3.743   3.103  0.2699 -1.8430 -0.6503
 3460SOL     OW10699   2.223   1.164   3.632 -0.1464  0.2455  0.2076
 3460SOL    HW110700   2.303   1.105   3.623  0.5909  1.1925  0.3460
 3460SOL    HW210701   2.215   1.223   3.551 -1.2455 -0.4656 -0.2258
 3461SOL     OW10702   3.690   2.712   3.877  0.0349 -0.4174 -0.0386
 3461SOL    HW110703   3.610   2.754   3.920 -0.5471 -0.8915 -0.6345
 3461SOL    HW210704   3.708   2.623   3.919  0.9651  0.1908  0.8841
 3462SOL     OW10705   1.926   0.730   1.865  0.5557  0.9354  0.0984
 3462SOL    HW110706   1.920   0.719   1.766 -0.1345  1.3440  0.0927
 3462SOL    HW210707   1.930   0.640   1.909  0.7704  0.7550 -0.2918
 3463SOL     OW10708   2.082   0.270   4.017 -0.4810  0.7141  0.3899
 3463SOL    HW110709   2.069   0.217   4.101 -1.7368  0.6511  0.1890
 3463SOL    HW210710   2.063   0.211   3.938 -1.1679  1.2447  0.1413
 3464SOL     OW10711   2.544   5.144   3.591 -1.0299 -0.4905 -0.1028
 3464SOL    HW110712   2.626   5.138   3.648 -0.9925  0.0952 -0.0933
 3464SOL    HW210713   2.469   5.094   3.635 -0.9484 -0.2100  0.3607
 3465SOL     OW10714   2.383   3.724   4.777  0.5327  0.2230  0.1206
 3465SOL    HW110715   2.415   3.812   4.813  0.3767 -0.0288  0.8939
 3465SOL    HW210716   2.366   3.661   4.853  2.4182 -1.1049 -0.4935
 3466SOL     OW10717   2.876   3.958   1.972  0.0608 -0.8094  0.0384
 3466SOL    HW110718   2.963   3.908   1.969  1.5880  1.5800  1.3542
 3466SOL    HW210719   2.847   3.968   2.067  1.3494  3.0878  0.1737
 3467SOL     OW10720   3.912   4.687   4.200 -0.1652  0.5055  0.6334
 3467SOL    HW110721   3.907   4.709   4.102  0.6569 -0.0357  0.4587
 3467SOL    HW210722   3.990   4.626   4.216  0.1135  1.1325  1.7326
 3468SOL     OW10723   1.324   2.850   2.757  0.3880  0.2857  0.2194
 3468SOL    HW110724   1.416   2.889   2.754  0.5210 -0.0525 -0.9046
 3468SOL    HW210725   1.258   2.917   2.723  0.1491  0.6632  1.3821
 3469SOL     OW10726   1.797   4.261   1.466 -0.1695  0.1671 -0.2088
 3469SOL    HW110727   1.707   4.305   1.470  0.5748  1.8119 -0.8208
 3469SOL    HW210728   1.828   4.258   1.371  1.2845  1.4393  0.1934
 3470SOL     OW10729   3.349   0.405   3.919 -0.0944 -0.2888 -0.0744
 3470SOL    HW110730   3.365   0.470   3.845 -0.6546  0.3930  0.3859
 3470SOL    HW210731   3.401   0.433   3.999  1.8181 -1.9284 -0.6666
 3471SOL     OW10732   2.670   4.876   3.772  0.4313  0.2632 -0.4107
 3471SOL    HW110733   2.659   4.782   3.805  0.9621  0.3063 -0.0935
 3471SOL    HW210734   2.690   4.874   3.674  3.3150 -0.1738  0.0785
 3472SOL     OW10735   2.994   1.021   3.105  0.0893  0.1385 -0.3023
 3472SOL    HW110736   2.921   1.058   3.163 -0.3486  0.9288 -1.3390
 3472SOL    HW210737   2.962   1.014   3.011  1.6741  1.4861 -0.9895
 3473SOL     OW10738   1.328   4.460   3.590 -0.5201  0.0284  0.2884
 3473SOL    HW110739   1.264   4.385   3.571  0.4049 -0.4324 -1.1150
 3473SOL    HW210740   1.278   4.536   3.632 -1.6264 -1.0399  0.9967
 3474SOL     OW10741   4.182   5.009   0.728 -0.3119 -0.2393 -0.0333
 3474SOL    HW110742   4.125   5.086   0.758 -0.6700 -1.6045  3.1799
 3474SOL    HW210743   4.279   5.033   0.741 -0.3751  0.0009  0.0040
 3475SOL     OW10744   3.837   5.122   2.997 -0.0037 -0.4681  0.0153
 3475SOL    HW110745   3.743   5.150   2.976  0.0844  0.2863  0.6019
 3475SOL    HW210746   3.890   5.201   3.026  0.8500 -0.8693 -0.3975
 3476SOL     OW10747   3.005   4.432   1.091 -0.0154  0.1179 -0.3389
 3476SOL    HW110748   3.075   4.366   1.064 -1.1673 -1.0492 -0.5891
 3476SOL    HW210749   2.977   4.414   1.186 -0.7131 -0.1186 -0.5796
 3477SOL     OW10750   2.188   5.395   2.899 -0.1664  0.1892  0.1183
 3477SOL    HW110751   2.196   5.405   2.998  1.0038 -0.4877  0.1167
 3477SOL    HW210752   2.274   5.422   2.856 -0.7968  0.8707 -0.7594
 3478SOL     OW10753   1.462   4.870   1.421 -0.3758 -0.2470 -0.5665
 3478SOL    HW110754   1.494   4.783   1.458  3.1384  1.6822  1.3976
 3478SOL    HW210755   1.419   4.923   1.493  0.0968  0.7538 -1.0049
 3479SOL     OW10756   3.200   4.890   1.794  0.2881 -0.0424  0.1680
 3479SOL    HW110757   3.144   4.889   1.711 -1.4586  1.5284  1.2438
 3479SOL    HW210758   3.283   4.943   1.778  0.1696 -0.1041 -0.6783
 3480SOL     OW10759   1.212   3.893   2.956  0.2871 -0.3673  0.3593
 3480SOL    HW110760   1.254   3.808   2.926  0.8564 -1.0389  2.8164
 3480SOL    HW210761   1.263   3.930   3.034  0.4997  2.6478 -1.0499
 3481SOL     OW10762   3.714   0.945   3.742 -0.0991 -0.1277 -0.0854
 3481SOL    HW110763   3.757   0.995   3.666  2.5822 -1.7221  0.2449
 3481SOL    HW210764   3.686   1.009   3.813  0.2027  1.1392 -1.0775
 3482SOL     OW10765   1.821   3.299   3.737  0.0222 -0.6162  0.0661
 3482SOL    HW110766   1.773   3.370   3.685  1.5717  1.2404  1.0035
 3482SOL    HW210767   1.880   3.247   3.676  0.3385  0.2265 -0.3748
 3483SOL     OW10768   1.901   5.226   3.355 -0.2753  0.0790  0.0422
 3483SOL    HW110769   1.938   5.174   3.277  2.3751  0.8236  0.6779
 3483SOL    HW210770   1.909   5.171   3.438 -1.4064 -0.0367  0.0840
 3484SOL     OW10771   3.869   3.001   3.217  0.2003 -0.3094 -0.8892
 3484SOL    HW110772   3.884   3.058   3.137 -0.3176  0.6908 -0.2943
 3484SOL    HW210773   3.804   3.046   3.279 -0.0915 -1.4679 -0.3210
 3485SOL     OW10774   2.825   4.181   3.895 -0.1017  0.4877 -0.0099
 3485SOL    HW110775   2.749   4.235   3.859 -1.7874 -2.1269 -0.6190
 3485SOL    HW210776   2.845   4.210   3.989 -0.6163  2.3996 -0.4548
 3486SOL     OW10777   1.049   4.886   4.513  0.1402 -0.2271 -0.2675
 3486SOL    HW110778   1.055   4.786   4.508 -1.6771 -0.3703 -0.0197
 3486SOL    HW210779   1.078   4.917   4.603  2.3769 -0.3449 -0.8881
 3487SOL     OW10780   0.719   5.500   3.208 -0.0527  0.9436  0.2846
 3487SOL    HW110781   0.703   5.469   3.302 -1.0072 -0.3727 -0.2813
 3487SOL    HW210782   0.800   5.455   3.172  0.2180  1.3234  0.4092
 3488SOL     OW10783   3.254   4.199   1.976 -0.6412 -0.5519 -0.0501
 3488SOL    HW110784   3.176   4.169   1.922 -0.4318 -0.5143 -0.3756
 3488SOL    HW210785   3.305   4.118   2.008 -0.5031 -0.5652 -0.2988
 3489SOL     OW10786   2.418   0.739   3.892  0.0817 -0.2649  0.6586
 3489SOL    HW110787   2.501   0.683   3.894  0.9937  1.0677  0.8587
 3489SOL    HW210788   2.403   0.781   3.981 -0.8118 -0.4637  0.6197
 3490SOL     OW10789   2.027   0.075   3.220 -0.9094  0.0169  0.0948
 3490SOL    HW110790   1.962   0.140   3.182 -0.4416  0.3330 -0.1710
 3490SOL    HW210791   1.978  -0.000   3.264 -1.4489  0.2771 -0.0653
 3491SOL     OW10792   2.254   4.805   2.458 -0.2916 -0.5930 -0.5988
 3491SOL    HW110793   2.186   4.875   2.475  0.2498 -0.1499 -0.2074
 3491SOL    HW210794   2.209   4.716   2.450 -0.8138 -0.4794  0.8057
 3492SOL     OW10795   3.973   5.206   4.017  0.5334  0.5618 -0.2452
 3492SOL    HW110796   4.029   5.147   4.076 -0.4776  0.3332  0.5041
 3492SOL    HW210797   4.026   5.231   3.936  1.1864 -0.9012 -0.2988
 3493SOL     OW10798   2.177   4.548   2.401 -0.5028 -0.1929  0.3396
 3493SOL    HW110799   2.264   4.514   2.367  0.2428  2.1348 -0.2166
 3493SOL    HW210800   2.135   4.608   2.332 -2.5850 -1.2451  0.5863
 3494SOL     OW10801   3.147   3.514   2.675  0.2030 -0.4070  0.2235
 3494SOL    HW110802   3.132   3.572   2.755  1.2391  1.0986 -0.6318
 3494SOL    HW210803   3.162   3.420   2.705 -0.6947 -0.1078  1.6943
 3495SOL     OW10804   2.337   3.655   5.320 -0.4407  0.0356  0.4094
 3495SOL    HW110805   2.321   3.720   5.394  1.2292  1.7792 -0.6702
 3495SOL    HW210806   2.250   3.623   5.285 -1.3015  1.0988  1.4864
 3496SOL     OW10807   3.210   0.206   0.484  0.3586  0.2501 -0.1778
 3496SOL    HW110808   3.286   0.142   0.475 -0.0828 -0.1232 -1.4193
 3496SOL    HW210809   3.162   0.189   0.570  0.2726 -1.0677 -0.4754
 3497SOL     OW10810   2.093   4.474   3.431 -0.0306 -0.0593  0.0393
 3497SOL    HW110811   2.011   4.514   3.391  0.5509  0.8699 -0.2365
 3497SOL    HW210812   2.131   4.406   3.368  0.1290  0.4339 -0.4052
 3498SOL     OW10813   2.674   1.050   4.901 -0.1143 -0.8609 -0.1111
 3498SOL    HW110814   2.633   0.964   4.932 -0.6223 -1.5594 -2.5379
 3498SOL    HW210815   2.774   1.042   4.905 -0.1636 -1.0351  0.9833
 3499SOL     OW10816   2.477   3.473   3.141  0.6183 -0.2083  0.0307
 3499SOL    HW110817   2.385   3.445   3.115 -0.1945  1.6301  0.7489
 3499SOL    HW210818   2.485   3.472   3.241 -0.2530  3.9942  0.3467
 3500SOL     OW10819   0.103   0.165   4.778 -0.8641 -0.3689 -0.1931
 3500SOL    HW110820   0.072   0.207   4.863 -1.0112 -3.5076  1.4417
 3500SOL    HW210821   0.202   0.179   4.768 -0.8012 -0.1987  0.6085
 3501SOL     OW10822   3.826   5.042   3.277  0.3139  0.0813  0.1495
 3501SOL    HW110823   3.809   5.116   3.342  2.6377  0.0827  0.8656
 3501SOL    HW210824   3.822   5.077   3.184 -1.3686  0.4602  0.3416
 3502SOL     OW10825   2.777   4.342   0.731  0.2490 -0.5978  0.1392
 3502SOL    HW110826   2.802   4.400   0.653 -1.8215 -1.3923 -1.2160
 3502SOL    HW210827   2.770   4.397   0.814  1.4229  0.4716 -0.4405
 3503SOL     OW10828   2.544   3.287   4.554  0.7838  0.2701  0.6450
 3503SOL    HW110829   2.536   3.298   4.455  0.8291 -0.0281  0.6064
 3503SOL    HW210830   2.534   3.376   4.599 -0.4423  0.2327  0.4582
 3504SOL     OW10831   3.092   0.083   4.364 -0.1373 -0.1848  0.4391
 3504SOL    HW110832   3.187   0.112   4.372  0.2887 -1.4910  0.2824
 3504SOL    HW210833   3.067   0.028   4.444 -0.2920 -1.1114 -0.2397
 3505SOL     OW10834   2.680   5.288   0.560  0.4582 -0.1166  0.5286
 3505SOL    HW110835   2.711   5.364   0.617  1.4868  1.1316 -1.5755
 3505SOL    HW210836   2.750   5.268   0.491 -1.5151 -0.2203 -1.5420
 3506SOL     OW10837   2.054   4.809   1.073 -0.0659  0.3591 -0.4578
 3506SOL    HW110838   2.138   4.843   1.032  0.6877  0.2470  0.9394
 3506SOL    HW210839   2.035   4.716   1.040  0.3599  0.3710 -0.7402
 3507SOL     OW10840   4.066   3.613   2.857  0.3404 -0.3668 -0.0463
 3507SOL    HW110841   3.968   3.625   2.840  0.1013  0.6388  1.7336
 3507SOL    HW210842   4.090   3.654   2.945  2.3663 -0.6602 -0.3993
 3508SOL     OW10843   1.182   3.640   0.209  0.3371 -0.1162 -0.2393
 3508SOL    HW110844   1.170   3.541   0.220 -1.9353 -0.1477 -2.0189
 3508SOL    HW210845   1.103   3.677   0.160  2.6213  2.0295 -2.6332
 3509SOL     OW10846   3.436   3.407   4.339 -0.1293  0.1580  0.2980
 3509SOL    HW110847   3.429   3.367   4.430 -0.4770  1.9472  1.0948
 3509SOL    HW210848   3.454   3.505   4.346  1.2034  0.1110 -1.5828
 3510SOL     OW10849   1.100   4.831   5.177 -0.4216 -0.1282  0.0345
 3510SOL    HW110850   1.200   4.826   5.175 -0.2938  1.0258  1.5073
 3510SOL    HW210851   1.068   4.816   5.271 -1.5052  1.1172 -0.1110
 3511SOL     OW10852   1.563   3.874   0.005 -0.3954 -0.0648  1.1864
 3511SOL    HW110853   1.498   3.943   0.036 -0.8539 -0.3167  0.8115
 3511SOL    HW210854   1.522   3.783   0.016 -1.1413 -0.1128 -1.3446
 3512SOL     OW10855   2.703   0.560   4.828  0.6739 -0.4777  0.2956
 3512SOL    HW110856   2.692   0.620   4.749 -1.5549 -1.6863 -0.3950
 3512SOL    HW210857   2.761   0.605   4.897 -1.8654  3.0509  0.3892
 3513SOL     OW10858   1.279   2.988   4.332 -0.0217  0.1581 -0.1285
 3513SOL    HW110859   1.180   2.979   4.340 -0.0718 -0.0818 -0.9258
 3513SOL    HW210860   1.316   3.028   4.416 -0.6603 -0.7911  0.6201
 3514SOL     OW10861   2.073   4.418   1.205 -0.1215  0.0186  0.2186
 3514SOL    HW110862   2.063   4.385   1.111 -1.1047 -2.1802  1.0169
 3514SOL    HW210863   2.131   4.499   1.206 -0.7256  0.5780 -2.3573
 3515SOL     OW10864   3.042   4.065   0.631 -0.0657  0.3405  0.1428
 3515SOL    HW110865   3.015   4.033   0.541  0.8787 -0.5764  0.1763
 3515SOL    HW210866   3.091   4.152   0.623 -0.3460  0.4690 -0.1808
 3516SOL     OW10867   4.043   1.487   0.375  0.2248 -0.0814  0.7652
 3516SOL    HW110868   3.959   1.532   0.346  1.2522  1.4197 -0.0043
 3516SOL    HW210869   4.049   1.489   0.475 -0.5133  0.0384  0.8144
 3517SOL     OW10870   2.867   5.200   4.859  0.0971  0.2165  0.1614
 3517SOL    HW110871   2.943   5.160   4.809 -0.5252  1.3621 -1.8665
 3517SOL    HW210872   2.898   5.234   4.948  1.5782 -0.6597 -0.0019
 3518SOL     OW10873   3.759   4.730   2.832  0.2419  0.1680  0.3205
 3518SOL    HW110874   3.666   4.734   2.869 -0.1805 -1.2035 -0.4734
 3518SOL    HW210875   3.764   4.656   2.764  1.4259  1.4435 -1.0396
 3519SOL     OW10876   4.912   5.486   4.054  0.4749  0.6244 -0.0021
 3519SOL    HW110877   4.857   5.406   4.077  0.8632  0.3276 -0.1047
 3519SOL    HW210878   4.957   5.471   3.966  0.9890  0.7259  0.2431
 3520SOL     OW10879   2.872   3.001   4.482 -0.3391  0.3272 -0.1880
 3520SOL    HW110880   2.805   3.038   4.547 -0.6266  1.3385 -1.0468
 3520SOL    HW210881   2.957   2.980   4.531 -0.9124  0.0473  0.7110
 3521SOL     OW10882   2.082   4.726   4.121 -0.6293 -0.3351 -0.2248
 3521SOL    HW110883   2.026   4.782   4.182 -0.8386  0.8747 -1.4773
 3521SOL    HW210884   2.119   4.648   4.172 -3.1434 -0.9956  0.7347
 3522SOL     OW10885   3.540   5.434   5.193 -0.3109  0.1511  0.4220
 3522SOL    HW110886   3.447   5.423   5.225 -0.4721 -0.9021 -0.3391
 3522SOL    HW210887   3.540   5.450   5.094  0.3179 -0.0583  0.3793
 3523SOL     OW10888   1.415   4.860   3.479  0.4693 -0.3418 -0.0671
 3523SOL    HW110889   1.455   4.948   3.453 -0.5549  0.3084  0.5161
 3523SOL    HW210890   1.369   4.820   3.399 -2.3553  1.4774  0.5168
 3524SOL     OW10891   0.621   0.135   4.384  0.0233  0.6867 -0.1087
 3524SOL    HW110892   0.569   0.164   4.464 -0.3595  0.6927 -0.3543
 3524SOL    HW210893   0.566   0.072   4.330  0.7951 -0.4185  0.3495
 3525SOL     OW10894   2.395   3.835   2.826 -0.1776 -0.1885  0.1900
 3525SOL    HW110895   2.398   3.812   2.923  0.6255  0.4195  0.3135
 3525SOL    HW210896   2.307   3.877   2.804  0.4024  1.5515  1.0840
 3526SOL     OW10897   2.783   0.738   0.693 -0.0483  0.2603 -0.6079
 3526SOL    HW110898   2.835   0.766   0.612  2.0658 -0.5186  0.4181
 3526SOL    HW210899   2.817   0.650   0.726 -1.5191  0.0995  0.5952
 3527SOL     OW10900   3.015   4.635   4.386  0.2444  0.3873 -0.3113
 3527SOL    HW110901   2.939   4.588   4.430  0.8032 -0.8013 -0.5701
 3527SOL    HW210902   3.042   4.714   4.441  1.1776 -1.2571  1.7300
 3528SOL     OW10903   2.973   5.487   4.983 -0.0902 -0.7577 -0.4890
 3528SOL    HW110904   2.945   5.490   4.888  0.4492 -0.1735 -0.6378
 3528SOL    HW210905   2.948   5.572   5.029 -0.0483 -0.8986 -0.1988
 3529SOL     OW10906   4.338   5.304   0.241 -0.3129 -0.3593  0.5427
 3529SOL    HW110907   4.419   5.285   0.185  1.5075  2.7397  1.8917
 3529SOL    HW210908   4.273   5.359   0.188  0.1225  0.1908  0.5756
 3530SOL     OW10909   0.395   4.766   3.661 -0.4642  0.0819  0.8438
 3530SOL    HW110910   0.471   4.712   3.696  0.3522 -0.3384 -1.4292
 3530SOL    HW210911   0.313   4.748   3.716  0.4512 -1.3716  1.7911
 3531SOL     OW10912   4.577   3.332  -0.002  0.3858 -0.2021 -0.3795
 3531SOL    HW110913   4.626   3.294   0.077 -1.0165  1.5354  1.4472
 3531SOL    HW210914   4.593   3.431  -0.007 -2.8841  0.4936  0.4151
 3532SOL     OW10915   3.867   0.114   5.279  0.0015 -0.1934 -0.2310
 3532SOL    HW110916   3.882   0.055   5.199 -0.2284 -0.4327 -0.0979
 3532SOL    HW210917   3.955   0.145   5.314  0.0960  0.0657 -0.6946
 3533SOL     OW10918   3.721   4.620   4.720  0.4688 -0.7290  0.0995
 3533SOL    HW110919   3.684   4.696   4.773 -0.7639 -0.8128 -0.5949
 3533SOL    HW210920   3.778   4.655   4.646 -0.6885 -0.4212 -0.6690
 3534SOL     OW10921   2.537   0.861   1.179  0.0859 -0.5051 -0.7742
 3534SOL    HW110922   2.563   0.836   1.085 -0.8009 -0.5507 -1.0189
 3534SOL    HW210923   2.455   0.810   1.205 -0.9172  1.0417 -0.7619
 3535SOL     OW10924   2.796   5.330   0.004 -0.1877  0.1765  0.0637
 3535SOL    HW110925   2.879   5.324   0.059 -0.5125 -0.9990  0.4616
 3535SOL    HW210926   2.763   5.237  -0.017 -1.6926  0.6104  0.3785
 3536SOL     OW10927   3.160   3.928   3.138 -0.1386 -0.0301  0.8425
 3536SOL    HW110928   3.096   3.995   3.177 -0.1909 -0.6885  1.9271
 3536SOL    HW210929   3.245   3.930   3.191  0.0197 -0.5082  0.6020
 3537SOL     OW10930   3.717   4.434   2.989 -0.0970 -0.4721  0.5592
 3537SOL    HW110931   3.687   4.477   2.904 -1.9320 -2.9426 -0.1821
 3537SOL    HW210932   3.786   4.491   3.033  0.8679  0.9676 -2.5064
 3538SOL     OW10933   1.792   4.105   0.215 -0.2750  0.1493 -0.6733
 3538SOL    HW110934   1.842   4.132   0.133 -0.4425  0.8825 -0.5442
 3538SOL    HW210935   1.787   4.005   0.220  1.8489  0.0131 -0.2740
 3539SOL     OW10936   0.867   2.034   4.475  0.6167  0.0832 -0.2369
 3539SOL    HW110937   0.796   1.987   4.422  0.9463 -1.1586  0.3709
 3539SOL    HW210938   0.866   2.131   4.454 -1.5707  0.1850  0.0880
 3540SOL     OW10939   2.401   5.011  -0.018  0.4852  0.0918 -0.4427
 3540SOL    HW110940   2.382   4.952   0.059  2.4952 -0.5906 -0.4008
 3540SOL    HW210941   2.440   5.097   0.014  1.3378 -0.1972 -0.6722
 3541SOL     OW10942   3.767   4.072   3.864 -0.5887 -0.0034  0.3399
 3541SOL    HW110943   3.791   4.014   3.786 -1.7493  0.4542 -0.3734
 3541SOL    HW210944   3.668   4.069   3.878 -0.8344  2.6030 -0.3917
 3542SOL     OW10945   3.227   4.416   3.347  0.2003  0.8344  0.4017
 3542SOL    HW110946   3.306   4.394   3.290 -1.0543 -0.2207 -1.0226
 3542SOL    HW210947   3.253   4.411   3.443  2.2057  1.9490 -0.0302
 3543SOL     OW10948   1.117   5.356   4.256  0.8478 -0.2565 -0.3062
 3543SOL    HW110949   1.112   5.387   4.161  0.6875  0.1464 -0.1666
 3543SOL    HW210950   1.025   5.349   4.294  0.9987  1.8356  0.5428
 3544SOL     OW10951   3.115   5.537   4.626 -0.6999 -0.1267 -0.2241
 3544SOL    HW110952   3.208   5.555   4.658 -0.5853 -0.5787 -0.2917
 3544SOL    HW210953   3.095   5.439   4.636 -1.8941  0.2719  1.7104
 3545SOL     OW10954   2.967   0.311   2.892 -0.1714  0.1004 -0.8598
 3545SOL    HW110955   3.032   0.312   2.817  2.1816  0.5233  1.0712
 3545SOL    HW210956   3.001   0.251   2.965 -2.2851 -0.1670 -0.0164
 3546SOL     OW10957   3.699   3.166   3.324  0.2360  0.0040  0.2433
 3546SOL    HW110958   3.715   3.263   3.305 -4.1641  0.4020 -2.7593
 3546SOL    HW210959   3.633   3.158   3.399  0.6125 -0.7234  0.5070
 3547SOL     OW10960   2.713   4.830   5.372  0.1739 -0.5952 -0.1597
 3547SOL    HW110961   2.680   4.891   5.300 -0.0307 -0.1144  0.3306
 3547SOL    HW210962   2.806   4.801   5.351  0.9120  1.2192  0.3880
 3548SOL     OW10963   3.117   4.018   3.535  0.1263  0.4191  0.2147
 3548SOL    HW110964   3.025   4.058   3.528 -0.0467  0.1760  1.0274
 3548SOL    HW210965   3.163   4.055   3.616  0.7954  0.6186 -0.2408
 3549SOL     OW10966   2.567   4.215   3.123 -0.1530 -0.3770 -0.4595
 3549SOL    HW110967   2.571   4.249   3.029  0.8015 -3.3031 -1.5994
 3549SOL    HW210968   2.581   4.116   3.123 -0.0629 -0.4718  2.8120
 3550SOL     OW10969   2.322   4.621   4.965 -0.0320  0.2680  0.6635
 3550SOL    HW110970   2.415   4.602   4.935 -0.1399  0.1374  0.4039
 3550SOL    HW210971   2.321   4.640   5.063  0.1992 -0.2047  0.7572
 3551SOL     OW10972   2.799   0.926   4.227 -0.0780 -0.4140 -0.3654
 3551SOL    HW110973   2.851   0.844   4.249 -1.2801 -0.9120  0.8101
 3551SOL    HW210974   2.767   0.968   4.312  1.3254  1.8526 -0.8728
 3552SOL     OW10975   0.928   0.166   0.650 -0.0991 -0.5031  0.1608
 3552SOL    HW110976   0.995   0.093   0.635  0.4172 -0.0833  0.4242
 3552SOL    HW210977   0.974   0.249   0.680 -0.6433  0.0670 -0.5331
 3553SOL     OW10978   2.878   4.170   3.619  0.9722  0.4273  0.8762
 3553SOL    HW110979   2.891   4.178   3.717  0.1153  1.2522  0.9306
 3553SOL    HW210980   2.898   4.257   3.575 -0.6793  0.6860  0.5692
 3554SOL     OW10981   2.117   1.359   4.535  0.1177  0.3990  0.0844
 3554SOL    HW110982   2.152   1.279   4.487 -0.2463 -0.4043  1.1227
 3554SOL    HW210983   2.030   1.338   4.578  1.0694  0.5973  2.2786
 3555SOL     OW10984   3.835   3.922   4.471 -0.6275 -0.5941  0.1998
 3555SOL    HW110985   3.809   3.895   4.378  2.6945 -1.4728 -0.6347
 3555SOL    HW210986   3.901   3.997   4.467 -0.1529 -0.8807  1.7997
 3556SOL     OW10987   3.060   1.064   4.446 -0.2159  0.8531 -0.6805
 3556SOL    HW110988   3.104   0.976   4.431  1.1364  0.9673  2.0506
 3556SOL    HW210989   2.964   1.049   4.471 -0.7751  0.3916 -2.8661
 3557SOL     OW10990   1.002   0.810   4.481 -0.1529 -0.1710  0.1486
 3557SOL    HW110991   1.004   0.871   4.560 -1.2925 -0.3391  0.3307
 3557SOL    HW210992   1.087   0.758   4.476  0.6809  1.1255  0.2196
 3558SOL     OW10993   2.807   4.013   5.113  0.2729  0.0250 -0.0573
 3558SOL    HW110994   2.760   3.990   5.198  1.1384 -2.0803 -0.0973
 3558SOL    HW210995   2.828   4.111   5.112 -2.1156  0.6235  0.9114
 3559SOL     OW10996   2.421   4.060   5.350  0.1816 -0.6937  0.1729
 3559SOL    HW110997   2.449   3.982   5.406  2.1156  0.2071  0.5473
 3559SOL    HW210998   2.430   4.144   5.403  1.7627  0.1551 -1.3307
 3560SOL     OW10999   1.606   4.625   3.197 -0.5390 -0.1392 -0.2587
 3560SOL    HW111000   1.590   4.608   3.099  0.7201  1.3013 -0.7554
 3560SOL    HW211001   1.699   4.596   3.220 -0.6673 -0.0298  0.4041
 3561SOL     OW11002   2.040   2.960   0.378 -0.0409 -0.1384  0.0575
 3561SOL    HW111003   1.958   2.904   0.368  0.5412 -0.5915 -2.8309
 3561SOL    HW211004   2.118   2.901   0.400  0.0082 -0.0284  0.1847
 3562SOL     OW11005   0.984   5.187   5.528 -0.1668  0.5494 -0.2245
 3562SOL    HW111006   1.023   5.238   5.452  1.9588 -3.1695 -1.9561
 3562SOL    HW211007   0.952   5.098   5.495  1.4910 -1.5519  3.2150
 3563SOL     OW11008   2.593   0.248   0.057  0.0565 -0.1096 -0.3919
 3563SOL    HW111009   2.553   0.247  -0.035 -1.3079 -2.6006  0.1484
 3563SOL    HW211010   2.686   0.212   0.053 -0.7164 -2.1956 -0.5737
 3564SOL     OW11011   2.851   0.554   0.099 -0.0598  0.1350 -0.4390
 3564SOL    HW111012   2.807   0.574   0.011  0.0388  2.8641  0.0406
 3564SOL    HW211013   2.790   0.581   0.174  2.2353  4.2941  0.2556
 3565SOL     OW11014   2.523   3.541   4.605  0.4963  0.1475 -0.6420
 3565SOL    HW111015   2.473   3.606   4.663  1.7970 -0.3534  1.1117
 3565SOL    HW211016   2.590   3.590   4.551  0.0928  0.4910 -0.8382
 3566SOL     OW11017   3.831   2.277   4.240 -0.0113  0.0682 -0.6859
 3566SOL    HW111018   3.910   2.308   4.292 -0.2018 -1.5197  0.6239
 3566SOL    HW211019   3.855   2.272   4.143  1.2242  0.4273 -0.4165
 3567SOL     OW11020   3.071   2.518   4.386 -0.5191  0.1263 -0.1836
 3567SOL    HW111021   3.115   2.548   4.471 -0.8807  0.4041 -0.0940
 3567SOL    HW211022   3.104   2.427   4.362  0.9949  0.7860 -0.7379
 3568SOL     OW11023   3.178   3.375   3.827  0.2342  0.2442 -0.5445
 3568SOL    HW111024   3.269   3.335   3.841 -0.2249 -0.5697  0.1768
 3568SOL    HW211025   3.132   3.328   3.752 -0.9945 -1.8886  1.4102
 3569SOL     OW11026   3.537   2.873   0.079 -0.0352 -0.0225 -0.0341
 3569SOL    HW111027   3.605   2.843   0.013  0.8074  0.3851  0.6367
 3569SOL    HW211028   3.564   2.960   0.119 -0.4892 -0.2957  0.9055
 3570SOL     OW11029   4.774   4.357   4.455 -0.3195  0.3274  0.4178
 3570SOL    HW111030   4.679   4.364   4.484 -0.2884  3.0611  0.0593
 3570SOL    HW211031   4.785   4.399   4.365  1.1425 -0.4225  0.2213
 3571SOL     OW11032   2.873   0.303   3.708 -0.2345  0.1788  0.4402
 3571SOL    HW111033   2.850   0.399   3.725 -0.5139  0.1853  0.0311
 3571SOL    HW211034   2.973   0.293   3.701 -0.1625  0.3174  1.2089
 3572SOL     OW11035   2.912   0.212   5.038  0.9007  0.4314 -0.2952
 3572SOL    HW111036   2.850   0.207   4.960  0.5616 -0.8918  0.0286
 3572SOL    HW211037   2.862   0.242   5.119  0.6671 -0.5957 -0.0436
 3573SOL     OW11038   4.154   0.905   4.715  0.5819 -0.0185 -0.1474
 3573SOL    HW111039   4.160   0.958   4.630 -0.3514 -0.3213 -0.4195
 3573SOL    HW211040   4.220   0.941   4.781 -0.0872  1.5741 -0.2824
 3574SOL     OW11041   3.301   4.761   4.480 -0.1683 -0.5141  0.4842
 3574SOL    HW111042   3.391   4.805   4.481  0.2385 -1.3481  1.3353
 3574SOL    HW211043   3.310   4.665   4.508 -1.2051 -0.8462 -0.2411
 3575SOL     OW11044   3.385   4.800   5.252 -0.1208  0.4538 -0.0943
 3575SOL    HW111045   3.297   4.757   5.234  1.6531 -3.2387 -0.9283
 3575SOL    HW211046   3.397   4.814   5.350 -0.7801 -1.1749  0.2435
 3576SOL     OW11047   2.850   3.624   0.515 -0.0151  0.0632  0.3014
 3576SOL    HW111048   2.837   3.574   0.430  1.6959  1.6461 -0.9679
 3576SOL    HW211049   2.947   3.647   0.526  0.0881 -1.3115  3.4191
 3577SOL     OW11050   2.613   4.604   3.508 -0.2734 -0.0832  0.6680
 3577SOL    HW111051   2.693   4.622   3.566  1.3646 -1.3648 -1.0524
 3577SOL    HW211052   2.567   4.522   3.540 -0.2740  0.0578  1.0350
 3578SOL     OW11053   3.560   4.795   4.888 -0.2617  0.0841 -0.3839
 3578SOL    HW111054   3.558   4.830   4.982  0.7921  0.2210 -0.4006
 3578SOL    HW211055   3.473   4.813   4.843 -0.2121  1.4578  0.0497
 3579SOL     OW11056   4.473   2.972   3.919  0.3983  0.2188  0.5728
 3579SOL    HW111057   4.507   2.884   3.887  1.0237  0.4356  0.6286
 3579SOL    HW211058   4.499   2.985   4.015  0.2087  0.4195  0.5982
 3580SOL     OW11059   2.781   3.771   4.225  0.2649 -0.0849  0.5232
 3580SOL    HW111060   2.788   3.851   4.166  0.9784  1.4217  2.5150
 3580SOL    HW211061   2.842   3.699   4.192  0.6708  0.7149 -0.5332
 3581SOL     OW11062   4.261   4.364   5.178 -0.1968  0.0748 -0.1203
 3581SOL    HW111063   4.227   4.273   5.200  1.3628 -0.0806  2.0157
 3581SOL    HW211064   4.251   4.424   5.257  1.4259  0.9227 -0.5032
 3582SOL     OW11065   1.839   4.622   0.262  0.3862 -0.0160 -0.2857
 3582SOL    HW111066   1.863   4.527   0.242  0.7911  0.1580 -0.6359
 3582SOL    HW211067   1.823   4.671   0.177 -0.4629  0.0730 -0.0860
 3583SOL     OW11068   4.893   3.256   4.332 -0.1501 -0.5207  0.2578
 3583SOL    HW111069   4.915   3.162   4.359  2.4349 -0.1641 -0.3681
 3583SOL    HW211070   4.977   3.309   4.323 -1.5333  1.8494  0.4410
 3584SOL     OW11071   2.985   0.586   4.639 -0.8446 -0.0345 -0.2898
 3584SOL    HW111072   3.034   0.519   4.583 -1.0963 -0.3790 -0.1047
 3584SOL    HW211073   2.890   0.592   4.608 -1.3203 -1.1329  0.8579
 3585SOL     OW11074   2.778   5.086   4.494  0.4590  0.0349 -0.2753
 3585SOL    HW111075   2.870   5.123   4.488  0.1603  0.6597 -1.1471
 3585SOL    HW211076   2.762   5.052   4.587  1.1908  0.8859  0.1750
 3586SOL     OW11077   4.432   0.348   5.435 -0.2355  0.3198  0.2325
 3586SOL    HW111078   4.468   0.255   5.429 -0.8144 -0.1006  2.4024
 3586SOL    HW211079   4.407   0.380   5.344  2.3333 -0.6630 -0.9166
 3587SOL     OW11080   3.395   0.037   4.220  0.1307 -0.2731  0.1543
 3587SOL    HW111081   3.348   0.060   4.135 -0.6043  0.1837  0.6716
 3587SOL    HW211082   3.491   0.016   4.201  0.4954  1.8025 -0.5278
 3588SOL     OW11083   4.056   0.064   4.472  0.3836 -0.7420  0.2931
 3588SOL    HW111084   4.137   0.117   4.496 -0.2510  0.5108 -0.2439
 3588SOL    HW211085   4.080  -0.004   4.403  0.9722 -0.3897  0.1468
 3589SOL     OW11086   3.651   4.733   3.230 -0.2165 -0.1409  0.0970
 3589SOL    HW111087   3.634   4.807   3.296 -0.2693  1.2740 -1.4318
 3589SOL    HW211088   3.577   4.732   3.163  1.2803  0.3942 -1.6348
 3590SOL     OW11089   3.319   5.282   3.671 -0.2595 -0.4674 -0.1798
 3590SOL    HW111090   3.308   5.326   3.582 -1.0365  0.9344  0.5729
 3590SOL    HW211091   3.371   5.342   3.732  0.0677 -1.3095  0.3904
 3591SOL     OW11092   3.784   5.320   5.187  0.4678 -0.2059 -0.2220
 3591SOL    HW111093   3.821   5.271   5.265  1.8926 -0.7313 -1.1873
 3591SOL    HW211094   3.696   5.362   5.212  0.4844 -1.0608  1.3783
 3592SOL     OW11095   4.030   4.650   3.414 -0.0076  0.1952  0.2890
 3592SOL    HW111096   4.042   4.745   3.383  0.4982  0.2383  0.5945
 3592SOL    HW211097   3.948   4.644   3.470 -0.1965  0.3947  0.0377
 3593SOL     OW11098   2.872   0.025   4.743  0.0316 -0.0352 -0.1409
 3593SOL    HW111099   2.821   0.109   4.723  0.6161  0.7232  1.3892
 3593SOL    HW211100   2.945   0.014   4.675  0.0066  0.7563 -0.3113
 3594SOL     OW11101   3.111   5.167   4.408 -0.0753 -0.7605  0.7203
 3594SOL    HW111102   3.061   5.192   4.325 -0.4754  1.9220  1.6735
 3594SOL    HW211103   3.209   5.181   4.393 -0.0115 -1.5508  0.3242
 3595SOL     OW11104   1.893   4.303   4.954 -0.3266  0.4543  0.1647
 3595SOL    HW111105   1.959   4.335   5.022 -0.5813  1.8323 -0.2037
 3595SOL    HW211106   1.801   4.330   4.981 -0.3623  1.6747 -1.0376
 3596SOL     OW11107   2.175   5.210   5.496 -0.4956 -0.6359  0.0395
 3596SOL    HW111108   2.263   5.177   5.463 -0.6487 -3.1364  1.8667
 3596SOL    HW211109   2.189   5.287   5.558  0.2303  0.0211 -0.9099
 3597SOL     OW11110   2.842   3.776   3.359 -0.2697  0.4328  0.0011
 3597SOL    HW111111   2.893   3.694   3.386 -1.0853  0.2542  1.0418
 3597SOL    HW211112   2.832   3.837   3.437 -1.1684  0.7105 -0.3155
 3598SOL     OW11113   2.216   4.517   4.209  0.0239  0.3957  0.6112
 3598SOL    HW111114   2.293   4.567   4.250  0.2294 -0.2717  1.0524
 3598SOL    HW211115   2.242   4.422   4.194  0.2978  0.8132 -2.0197
 3599SOL     OW11116   4.178   0.054   4.833 -0.1248 -0.0083 -0.4033
 3599SOL    HW111117   4.240   0.017   4.763  1.6097  1.0271  0.5504
 3599SOL    HW211118   4.200   0.014   4.922 -1.2742 -0.0948 -0.1332
 3600SOL     OW11119   3.333   4.596   4.178  0.1674 -0.0639  0.0135
 3600SOL    HW111120   3.421   4.616   4.222 -0.9492  1.5732  1.6950
 3600SOL    HW211121   3.349   4.560   4.086  2.5855 -0.7011  0.5993
 3601SOL     OW11122   1.956   4.572   4.805 -0.0331  0.2507  0.3064
 3601SOL    HW111123   1.875   4.596   4.860 -0.1523  1.2315 -0.2631
 3601SOL    HW211124   1.947   4.614   4.714  1.2558  0.6273  0.3415
 3602SOL     OW11125   2.436   0.029   0.098 -0.3052  0.0117  0.1874
 3602SOL    HW111126   2.469   0.122   0.079 -1.2644  0.2161 -0.5442
 3602SOL    HW211127   2.509  -0.024   0.141  0.7408  0.6733 -0.7216
 3603SOL     OW11128   3.418   3.291   4.608 -0.8037 -0.1611 -0.1504
 3603SOL    HW111129   3.448   3.306   4.702  0.9230  0.0675 -0.7064
 3603SOL    HW211130   3.322   3.262   4.608 -0.7636 -0.4158  1.6828
 3604SOL     OW11131   3.316   4.471   5.425 -0.1481 -0.0193  0.4586
 3604SOL    HW111132   3.405   4.439   5.391 -0.5760  1.0901 -1.8318
 3604SOL    HW211133   3.270   4.395   5.471  2.1489 -0.4906  2.2182
 3605SOL     OW11134   4.492   0.390   5.113 -0.0857  0.6360 -0.2000
 3605SOL    HW111135   4.472   0.297   5.144 -1.6054  1.4462  1.4589
 3605SOL    HW211136   4.408   0.432   5.076  0.6574  1.2529 -1.2502
 3606SOL     OW11137   3.350   0.090   4.489  0.5033 -0.0001 -1.0017
 3606SOL    HW111138   3.347   0.008   4.545 -2.5758  0.5020 -0.2565
 3606SOL    HW211139   3.368   0.064   4.394  1.2351 -1.3255 -0.5329
 3607SOL     OW11140   2.725   5.449   3.863  1.1520 -0.0922 -0.0203
 3607SOL    HW111141   2.759   5.446   3.957  1.9685 -0.1095 -0.3011
 3607SOL    HW211142   2.627   5.465   3.863  0.7884 -2.0227  0.8807
 3608SOL     OW11143   4.137   0.878   5.406 -0.2619 -0.1710  0.0249
 3608SOL    HW111144   4.178   0.967   5.425  1.3367 -0.8661 -0.0620
 3608SOL    HW211145   4.208   0.808   5.403 -1.6009 -1.6534  1.1980
 3609SOL     OW11146   4.489   5.552   4.727 -0.4057  0.2482 -0.1461
 3609SOL    HW111147   4.464   5.512   4.639  0.4396  0.7806 -0.6442
 3609SOL    HW211148   4.546   5.488   4.778  0.0917  0.3937 -0.5042
 3610SOL     OW11149   1.741   3.315   5.319  0.1002 -0.3459 -0.4450
 3610SOL    HW111150   1.819   3.256   5.300 -0.6635 -1.4911 -0.1932
 3610SOL    HW211151   1.772   3.404   5.351  1.3250 -1.5766  2.0495
 3611SOL     OW11152   1.493   1.347   4.132 -0.1553 -0.0606 -0.2235
 3611SOL    HW111153   1.515   1.256   4.096 -2.0177 -0.8598  0.5477
 3611SOL    HW211154   1.426   1.391   4.073  0.6019  0.7636 -0.4883
 3612SOL     OW11155   3.809   2.503   3.361 -0.1863  0.4594  0.1181
 3612SOL    HW111156   3.796   2.599   3.334  0.0838  1.0666  1.9987
 3612SOL    HW211157   3.724   2.468   3.401 -0.1669  0.0312 -0.2088
 3613SOL     OW11158   4.640   4.256   5.378  0.7554  0.0148 -0.0483
 3613SOL    HW111159   4.549   4.238   5.416  0.9549  1.4708  1.1747
 3613SOL    HW211160   4.709   4.239   5.448  1.3974 -0.5342 -0.8025
 3614SOL     OW11161   1.535   5.516   4.316  0.2945  0.0607  0.2568
 3614SOL    HW111162   1.478   5.558   4.245  1.3568  1.8892  0.4110
 3614SOL    HW211163   1.573   5.430   4.282 -0.6025  0.0389 -0.7353
 3615SOL     OW11164   3.436   3.464   3.716 -0.5515  0.0770 -0.0112
 3615SOL    HW111165   3.453   3.494   3.622 -0.5420 -0.0902 -0.0630
 3615SOL    HW211166   3.358   3.513   3.753 -0.0026  0.8066  0.2029
 3616SOL     OW11167   2.361   4.789   0.462 -0.0783  0.0202 -0.0211
 3616SOL    HW111168   2.279   4.734   0.448  0.2172 -0.3546 -0.3051
 3616SOL    HW211169   2.412   4.754   0.541  1.0771 -1.3165 -1.3047
 3617SOL     OW11170   1.171   5.245   0.556 -0.0548  0.7128 -0.1171
 3617SOL    HW111171   1.097   5.264   0.621  2.5616  0.0435  3.3151
 3617SOL    HW211172   1.238   5.184   0.598  2.5175  1.2639 -3.0397
 3618SOL     OW11173   3.823   2.979   3.901  0.0872 -0.4916 -0.1663
 3618SOL    HW111174   3.742   2.944   3.854 -0.5361 -0.1223  0.6024
 3618SOL    HW211175   3.840   2.925   3.983 -0.7357  0.7911  0.8956
 3619SOL     OW11176   4.115   4.024   3.087 -0.6009  0.4419 -0.5138
 3619SOL    HW111177   4.106   4.122   3.106 -0.1577  0.3206  0.3864
 3619SOL    HW211178   4.144   4.011   2.992  0.0167  1.2177 -0.4423
 3620SOL     OW11179   3.457   3.130   3.905 -0.0443  0.2104  0.3934
 3620SOL    HW111180   3.472   3.195   3.979  1.6422 -1.0858  1.2585
 3620SOL    HW211181   3.536   3.132   3.843  0.1072 -1.0922  0.5213
 3621SOL     OW11182   2.201   4.444   4.801 -0.5020 -0.0574  0.1207
 3621SOL    HW111183   2.253   4.508   4.857  0.2755 -0.1682 -0.4478
 3621SOL    HW211184   2.106   4.474   4.795 -0.3835  0.4573  0.7317
 3622SOL     OW11185   3.303   5.031   4.077 -0.2650 -0.4771 -0.8576
 3622SOL    HW111186   3.273   4.937   4.095  2.0308 -0.7716  2.2104
 3622SOL    HW211187   3.393   5.046   4.118  0.0978  2.6914 -2.5017
 3623SOL     OW11188   4.751   4.106   3.589 -0.2498 -0.3296 -0.4305
 3623SOL    HW111189   4.751   4.030   3.654 -0.0864  1.1395  1.3701
 3623SOL    HW211190   4.670   4.162   3.604  0.0899  0.3505 -1.1112
 3624SOL     OW11191   3.890   3.784   2.532  0.3504 -0.1842  0.8603
 3624SOL    HW111192   3.841   3.852   2.477  1.0506 -0.2544  0.1444
 3624SOL    HW211193   3.987   3.807   2.535  0.7190 -1.5380  0.0091
 3625SOL     OW11194   4.422   3.733   4.962  0.6229 -0.0232 -0.3532
 3625SOL    HW111195   4.381   3.791   5.034 -2.1015 -1.2450 -0.8086
 3625SOL    HW211196   4.374   3.749   4.876  0.9302 -1.7649 -0.8669
 3626SOL     OW11197   1.465   4.516   4.310 -0.5187 -0.1074 -0.0514
 3626SOL    HW111198   1.429   4.451   4.377 -0.0746 -1.9176 -1.4868
 3626SOL    HW211199   1.540   4.473   4.259 -0.9886  1.1182 -1.8526
 3627SOL     OW11200   2.593   5.418   4.257 -0.1614  0.2209  0.6707
 3627SOL    HW111201   2.503   5.437   4.296 -0.7174 -0.1289 -0.4228
 3627SOL    HW211202   2.616   5.321   4.270 -0.6506 -0.0578 -0.4489
 3628SOL     OW11203   2.613   4.971   5.160 -0.0276 -0.1798 -0.1894
 3628SOL    HW111204   2.619   5.062   5.118  1.1435  0.9788  2.2911
 3628SOL    HW211205   2.661   4.905   5.103 -0.1117  0.9086 -1.5834
 3629SOL     OW11206   3.685   2.598   4.364 -0.1318  0.6232  0.3851
 3629SOL    HW111207   3.677   2.566   4.270 -0.7441 -0.2511  0.7159
 3629SOL    HW211208   3.741   2.681   4.367  0.7461  0.0909 -0.6213
 3630SOL     OW11209   2.953   3.533   3.935 -0.2073 -0.4226  0.1325
 3630SOL    HW111210   2.872   3.486   3.969  1.0703 -2.0368  1.0783
 3630SOL    HW211211   3.003   3.473   3.873  0.5498  0.3435 -0.0222
 3631SOL     OW11212   2.295   2.767   4.922 -0.5442 -0.3645 -1.0009
 3631SOL    HW111213   2.247   2.709   4.856 -1.0169 -0.6529 -0.4166
 3631SOL    HW211214   2.237   2.845   4.946 -0.7605 -0.7592 -0.2246
 3632SOL     OW11215   2.893   0.163   4.198  0.2939 -0.2440  0.2623
 3632SOL    HW111216   2.807   0.201   4.232  0.5929  0.2445  0.4801
 3632SOL    HW211217   2.959   0.157   4.273 -0.0187 -2.0293  0.4422
 3633SOL     OW11218   3.885   3.052   1.297  0.1209 -0.0206 -0.2264
 3633SOL    HW111219   3.961   3.053   1.362 -1.4042 -0.3078  1.6335
 3633SOL    HW211220   3.844   3.143   1.292 -1.7100 -0.6484  1.6999
 3634SOL     OW11221   0.257   3.238   0.417  0.1268  0.3872  0.1339
 3634SOL    HW111222   0.330   3.304   0.433 -0.3852  0.9588  0.1321
 3634SOL    HW211223   0.266   3.200   0.325 -0.5893  1.7580 -0.5271
 3635SOL     OW11224   1.291   5.129   5.336  0.2729  0.9333  0.1386
 3635SOL    HW111225   1.213   5.184   5.304  0.6607  3.0504  2.4908
 3635SOL    HW211226   1.374   5.158   5.288  0.0927  0.7628 -0.2770
 3636SOL     OW11227   3.359   3.894   4.923 -0.1136 -0.1234 -0.2794
 3636SOL    HW111228   3.260   3.906   4.911 -0.3432  0.1852  1.6030
 3636SOL    HW211229   3.387   3.938   5.008  1.6924 -0.0978 -0.8489
 3637SOL     OW11230   2.170   0.762   3.787  0.2146  0.1847  0.4186
 3637SOL    HW111231   2.106   0.704   3.839 -0.1763  1.1889  1.0907
 3637SOL    HW211232   2.263   0.743   3.817  0.0526  0.1902  0.9431
 3638SOL     OW11233   2.077   4.011   3.898  0.0282 -0.5253 -0.0901
 3638SOL    HW111234   2.117   3.990   3.809 -1.0849 -0.1635 -0.6934
 3638SOL    HW211235   1.981   4.038   3.886 -0.9372 -2.9989  1.4753
 3639SOL     OW11236   0.642   1.292   4.557  0.1181  0.0661  0.1364
 3639SOL    HW111237   0.569   1.346   4.515  1.0220  1.7691  0.6519
 3639SOL    HW211238   0.696   1.247   4.486 -0.8631 -0.4784 -0.2832
 3640SOL     OW11239   4.646   5.021   4.829  0.1712 -0.0324  0.3327
 3640SOL    HW111240   4.708   5.012   4.908  0.6460 -3.3743 -0.2829
 3640SOL    HW211241   4.564   4.967   4.845  1.0811 -2.3393 -2.1233
 3641SOL     OW11242   4.571   4.703   3.945  0.0370  0.3382  0.3955
 3641SOL    HW111243   4.545   4.751   3.862 -1.2798  1.6498  1.5097
 3641SOL    HW211244   4.666   4.722   3.967  0.0652  0.9002 -0.2045
 3642SOL     OW11245   2.376   0.947   3.633  0.2057  0.2415 -0.5909
 3642SOL    HW111246   2.340   0.900   3.553 -0.4506  2.0323 -1.3781
 3642SOL    HW211247   2.378   0.883   3.710  1.3490 -1.6745 -2.1061
 3643SOL     OW11248   2.714   4.207   4.934  0.2160  0.0192 -0.0342
 3643SOL    HW111249   2.659   4.199   5.017 -1.1984  0.3014 -0.9156
 3643SOL    HW211250   2.670   4.271   4.871  0.3934 -1.4432 -1.7003
 3644SOL     OW11251   2.319   4.650   5.223 -0.3178 -0.3252 -0.1329
 3644SOL    HW111252   2.357   4.600   5.301  0.7629  0.0997 -0.3751
 3644SOL    HW211253   2.317   4.748   5.243 -0.4438 -0.2552 -0.4724
 3645SOL     OW11254   2.344   4.927   5.286  0.5347  0.0334  0.6423
 3645SOL    HW111255   2.356   4.950   5.382  2.1297 -1.0690  0.7520
 3645SOL    HW211256   2.420   4.964   5.232 -0.2768  0.5390 -0.1833
 3646SOL     OW11257   2.926   0.046   3.504 -0.3143 -0.5834 -0.6584
 3646SOL    HW111258   2.916   0.092   3.415 -1.1059  1.6891  0.5323
 3646SOL    HW211259   2.845   0.062   3.560 -0.2152 -2.7327  0.2145
 3647SOL     OW11260   3.198   4.458   4.353 -0.4577 -0.3039 -0.1727
 3647SOL    HW111261   3.134   4.530   4.378 -0.5941 -0.0689 -1.1719
 3647SOL    HW211262   3.275   4.497   4.303  0.1098 -0.6848  0.3737
 3648SOL     OW11263   2.362   0.967   0.143 -0.5948 -0.9543  0.0229
 3648SOL    HW111264   2.459   0.946   0.131 -0.1065 -1.0601  3.1871
 3648SOL    HW211265   2.350   1.066   0.149 -0.3834 -0.9845  1.2453
 3649SOL     OW11266   3.768   5.385   3.945  0.6715  0.1444  0.0432
 3649SOL    HW111267   3.814   5.317   4.001  0.5938  0.1980  0.1725
 3649SOL    HW211268   3.754   5.348   3.853  1.1131  0.1868 -0.0427
 3650SOL     OW11269   0.501   4.918   4.867  0.1851  0.1325  0.1856
 3650SOL    HW111270   0.453   4.860   4.801 -0.1537 -1.4914  1.7542
 3650SOL    HW211271   0.547   4.993   4.820  0.5493 -1.3542 -1.9501
 3651SOL     OW11272   1.332   3.877   5.354  0.4684 -0.1678  0.0791
 3651SOL    HW111273   1.409   3.913   5.407  0.0173  1.3972 -0.2979
 3651SOL    HW211274   1.247   3.894   5.404  0.2489 -0.9403 -0.0107
 3652SOL     OW11275   3.194   4.347   2.875  0.5576 -1.2594 -0.1275
 3652SOL    HW111276   3.252   4.297   2.940  1.0363 -1.0099 -0.3608
 3652SOL    HW211277   3.200   4.445   2.894 -0.3319 -1.2757  0.2888
 3653SOL     OW11278   1.655   3.442   3.557 -0.3104  0.1533  0.0071
 3653SOL    HW111279   1.565   3.451   3.516 -0.8452  0.0980  1.1188
 3653SOL    HW211280   1.724   3.430   3.486 -1.2564 -0.4440 -0.8342
 3654SOL     OW11281   3.014   3.270   5.092  0.1258  0.2739  0.1939
 3654SOL    HW111282   3.020   3.188   5.035  1.0466  1.3123 -1.2519
 3654SOL    HW211283   3.007   3.243   5.189 -0.6027 -1.4985 -0.3166
 3655SOL     OW11284   3.148   0.600   2.767 -0.4240  0.1900  0.4759
 3655SOL    HW111285   3.071   0.637   2.715 -1.1974 -0.3612  1.2059
 3655SOL    HW211286   3.216   0.672   2.781 -0.4882  0.5084 -0.7519
 3656SOL     OW11287   3.097   0.127   3.064 -0.5933 -0.0998 -1.1431
 3656SOL    HW111288   3.066   0.040   3.026  0.3884  0.6993 -4.0245
 3656SOL    HW211289   3.195   0.122   3.084 -1.0403 -0.4184  1.2101
 3657SOL     OW11290   1.243   3.676   4.600  0.0485 -0.1545 -1.0146
 3657SOL    HW111291   1.304   3.692   4.522  1.8189 -0.5830  0.2161
 3657SOL    HW211292   1.282   3.605   4.658 -1.9882 -0.8909 -0.4925
 3658SOL     OW11293   3.598   5.226   2.987 -0.5944 -0.2204  0.0854
 3658SOL    HW111294   3.621   5.323   2.979 -2.5239  0.2263 -0.7112
 3658SOL    HW211295   3.554   5.195   2.902 -0.6818 -1.6017  0.6068
 3659SOL     OW11296   0.607   5.475   4.935  0.0189  0.0052 -0.3070
 3659SOL    HW111297   0.685   5.412   4.940  0.6163  0.7615  0.2675
 3659SOL    HW211298   0.637   5.566   4.964 -1.8638 -0.4251  3.5812
 3660SOL     OW11299   3.561   2.660   3.488 -0.2908  0.0049 -0.4354
 3660SOL    HW111300   3.508   2.619   3.563  2.7049 -0.4867  1.5601
 3660SOL    HW211301   3.524   2.751   3.469 -1.5625 -0.1084  1.1837
 3661SOL     OW11302   1.087   4.455   3.024 -0.1581 -0.4464  0.2454
 3661SOL    HW111303   1.024   4.515   2.974 -0.3362  0.0200  1.0272
 3661SOL    HW211304   1.098   4.369   2.973 -3.2568 -1.5298  1.2121
 3662SOL     OW11305   3.257   2.686   3.231 -0.0522  0.6264 -0.1404
 3662SOL    HW111306   3.278   2.600   3.276 -0.8152 -0.1390 -1.1916
 3662SOL    HW211307   3.338   2.745   3.232  1.1107 -0.8783 -1.1167
 3663SOL     OW11308   2.870   5.507   5.378 -0.1299 -0.1376  0.0807
 3663SOL    HW111309   2.825   5.435   5.429  1.3448 -1.6925 -0.7110
 3663SOL    HW211310   2.967   5.486   5.369 -0.1688  0.4703 -2.5998
 3664SOL     OW11311   3.083   4.443   3.897 -0.1769  0.4485 -0.0554
 3664SOL    HW111312   3.068   4.371   3.965 -0.5689  0.1733 -0.4307
 3664SOL    HW211313   3.181   4.452   3.879 -0.1839 -0.7018 -0.7609
 3665SOL     OW11314   3.690   3.631   4.802 -0.9102 -0.1115 -0.0348
 3665SOL    HW111315   3.608   3.614   4.857 -1.2502  1.5760  0.0288
 3665SOL    HW211316   3.688   3.573   4.721 -0.3822 -2.6821  1.6758
 3666SOL     OW11317   1.788   0.125   4.621 -0.3213 -0.1103  0.1059
 3666SOL    HW111318   1.771   0.030   4.646 -0.5511 -0.0122  0.3274
 3666SOL    HW211319   1.760   0.141   4.527  3.5846 -1.3432 -1.4929
 3667SOL     OW11320   2.767   4.379   4.223 -0.2379  0.1587 -0.4744
 3667SOL    HW111321   2.694   4.319   4.192 -0.0969  0.9850 -2.5345
 3667SOL    HW211322   2.733   4.474   4.225  0.8835  0.6251 -1.9975
 3668SOL     OW11323   1.699   4.436   3.904 -0.1020 -0.2343 -0.7062
 3668SOL    HW111324   1.673   4.479   3.818  1.6592 -1.8578 -2.1678
 3668SOL    HW211325   1.791   4.398   3.895  0.1240 -0.4976  1.9182
 3669SOL     OW11326   3.877   4.441   4.859 -0.8886  0.2642 -0.2623
 3669SOL    HW111327   3.814   4.507   4.818 -0.9723 -0.7339 -1.8218
 3669SOL    HW211328   3.888   4.363   4.797 -0.4086 -0.9602  1.3008
 3670SOL     OW11329   2.890   4.068   2.960 -0.0222  0.1983 -0.2081
 3670SOL    HW111330   2.797   4.045   2.932  0.4471  0.7867 -2.5028
 3670SOL    HW211331   2.906   4.165   2.944  1.1657 -0.0175 -0.3913
 3671SOL     OW11332   2.963   3.765   3.764  0.0235  0.1495  0.8665
 3671SOL    HW111333   2.889   3.799   3.706  0.6466 -0.1710 -0.1336
 3671SOL    HW211334   2.931   3.685   3.815 -0.3343  0.0205  0.4496
 3672SOL     OW11335   3.467   5.429   0.108 -0.2510  0.2414  0.0314
 3672SOL    HW111336   3.505   5.514   0.146  0.6275 -0.1413  0.0323
 3672SOL    HW211337   3.537   5.358   0.109 -0.1061  0.2478 -2.4261
 3673SOL     OW11338   3.046   0.028   2.605  0.2362 -0.1755 -0.3626
 3673SOL    HW111339   3.099   0.038   2.689 -1.4074  0.7006  0.6269
 3673SOL    HW211340   2.957  -0.011   2.626 -0.4349  0.6227 -1.6106
 3674SOL     OW11341   3.977   0.538   5.154 -0.5431 -0.1249 -0.2019
 3674SOL    HW111342   3.896   0.598   5.157 -0.2639  0.2342  0.8044
 3674SOL    HW211343   4.020   0.544   5.064 -0.8316  0.7819 -0.2922
 3675SOL     OW11344   2.549   0.612   3.618  0.1811 -0.3961  0.2567
 3675SOL    HW111345   2.621   0.562   3.571  1.2027  0.0209  1.3247
 3675SOL    HW211346   2.563   0.605   3.717  2.4906  4.7550  0.5938
 3676SOL     OW11347   0.477   4.459   5.241 -0.1581 -0.3691 -0.4993
 3676SOL    HW111348   0.550   4.524   5.264  0.0715 -0.7777 -0.0230
 3676SOL    HW211349   0.421   4.443   5.322 -1.2341  0.4879 -1.0508
 3677SOL     OW11350   3.871   4.235   4.675 -0.2664 -0.2091  0.5379
 3677SOL    HW111351   3.920   4.183   4.605  0.4480 -0.0728  0.9233
 3677SOL    HW211352   3.785   4.270   4.638  0.0579 -0.2290 -0.2388
 3678SOL     OW11353   4.427   3.146   3.007  1.2390 -0.0896  0.3602
 3678SOL    HW111354   4.346   3.111   2.960  0.5719 -0.0986  1.4761
 3678SOL    HW211355   4.485   3.194   2.942 -0.5670  1.5350 -0.1668
 3679SOL     OW11356   2.406   2.628   4.624 -0.0388  0.7447 -0.4775
 3679SOL    HW111357   2.463   2.550   4.647 -1.1911  0.1337  0.4367
 3679SOL    HW211358   2.461   2.698   4.578  1.3793  0.0920  0.1700
 3680SOL     OW11359   3.359   5.048   4.578 -0.4263 -0.1547 -0.2215
 3680SOL    HW111360   3.401   5.105   4.648  1.0932 -1.0604 -0.3393
 3680SOL    HW211361   3.430   4.996   4.530 -1.6568 -1.4339 -0.7453
 3681SOL     OW11362   3.678   4.309   4.215 -0.6569 -0.1034 -0.3896
 3681SOL    HW111363   3.627   4.368   4.277  0.3724  0.3172  0.0830
 3681SOL    HW211364   3.775   4.310   4.240 -0.1704  0.2349 -2.1100
 3682SOL     OW11365   2.581   5.174   4.342  0.0135 -0.2535  0.3144
 3682SOL    HW111366   2.501   5.157   4.400  0.3415  0.7433  1.0780
 3682SOL    HW211367   2.665   5.157   4.394  0.3067  0.1519 -0.0131
 3683SOL     OW11368   2.717   0.211   2.776 -0.2641  0.4981  0.1642
 3683SOL    HW111369   2.626   0.251   2.785 -0.0245  1.0456  0.1852
 3683SOL    HW211370   2.780   0.258   2.838  0.4865  1.5110 -1.3188
 3684SOL     OW11371   2.637   3.557   5.078 -0.1670  0.2469 -0.1222
 3684SOL    HW111372   2.624   3.470   5.126 -1.2211 -0.0465 -0.9115
 3684SOL    HW211373   2.566   3.568   5.008  1.7314  0.3136 -2.1389
 3685SOL     OW11374   2.261   5.153   4.530 -0.6527 -0.6042 -0.2876
 3685SOL    HW111375   2.185   5.125   4.588 -1.1082  1.3871  0.1461
 3685SOL    HW211376   2.341   5.173   4.586 -0.6813  0.0336 -0.4689
 3686SOL     OW11377   3.428   5.383   4.572 -0.2769  0.1180  0.3605
 3686SOL    HW111378   3.396   5.306   4.627 -0.4086  1.2454  1.9599
 3686SOL    HW211379   3.528   5.387   4.574 -0.2645 -0.1001  0.1521
 3687SOL     OW11380   0.845   5.201   5.138 -0.1492 -0.4351 -0.1262
 3687SOL    HW111381   0.819   5.253   5.057 -0.9279 -2.8735 -1.5271
 3687SOL    HW211382   0.841   5.103   5.118 -0.3812 -1.1297  2.8675
 3688SOL     OW11383   0.753   3.539   5.398  0.1915 -0.2100 -0.3014
 3688SOL    HW111384   0.805   3.625   5.396  0.7780 -0.5442  0.2534
 3688SOL    HW211385   0.796   3.473   5.338  0.0288 -0.2770 -0.3437
 3689SOL     OW11386   1.542   0.562   4.794  0.0641  0.5234 -0.7168
 3689SOL    HW111387   1.611   0.590   4.861 -1.2067 -0.7329  1.2259
 3689SOL    HW211388   1.585   0.504   4.725  1.0399  0.0131  0.2741
 3690SOL     OW11389   3.173   3.758   3.610  0.0391  0.2129 -0.0024
 3690SOL    HW111390   3.157   3.840   3.556 -0.2670  0.1651  0.0105
 3690SOL    HW211391   3.105   3.753   3.684  1.0730  0.8070  1.0249
 3691SOL     OW11392   2.493   4.512   4.033  0.0829 -0.6370  0.1580
 3691SOL    HW111393   2.462   4.455   4.110 -1.7037 -0.4046 -0.3294
 3691SOL    HW211394   2.427   4.586   4.019  1.3642  0.4201 -0.4351
 3692SOL     OW11395   5.072   2.248   2.875  0.0849  0.1468 -0.5008
 3692SOL    HW111396   5.154   2.296   2.904  0.2791 -0.5774  0.1936
 3692SOL    HW211397   4.991   2.294   2.911  0.1039  1.3830 -1.9268
 3693SOL     OW11398   2.921   1.355   3.945 -0.6434  0.0943  0.0241
 3693SOL    HW111399   2.936   1.260   3.973 -0.0248  0.6917  1.8390
 3693SOL    HW211400   2.843   1.392   3.996  0.3196  1.1214  0.7920
 3694SOL     OW11401   3.340   1.171   3.317 -0.7953  0.0970 -0.1607
 3694SOL    HW111402   3.439   1.189   3.323 -0.6979 -0.8047  1.9736
 3694SOL    HW211403   3.302   1.164   3.409 -2.9863  0.9296 -0.9435
 3695SOL     OW11404   4.155   5.421   4.285 -0.0090 -0.1065  0.1768
 3695SOL    HW111405   4.195   5.410   4.194  0.2021  1.5919  0.0268
 3695SOL    HW211406   4.125   5.332   4.320  0.8304 -0.9252 -1.1163
 3696SOL     OW11407   4.195   1.571   4.315  0.4245  0.4879 -0.1262
 3696SOL    HW111408   4.176   1.553   4.412  1.0910 -0.9433 -0.2439
 3696SOL    HW211409   4.290   1.550   4.295 -0.1707 -1.1703 -1.4938
 3697SOL     OW11410   2.074   1.291   3.844  0.2810 -0.3165 -0.0027
 3697SOL    HW111411   2.045   1.202   3.880  1.4964 -0.4726  0.6312
 3697SOL    HW211412   2.149   1.278   3.780 -0.9217  0.0957 -1.5721
 3698SOL     OW11413   2.086   0.113   5.001 -0.7383 -0.3569 -0.0946
 3698SOL    HW111414   2.022   0.089   5.074  1.3990 -0.9321  1.7285
 3698SOL    HW211415   2.162   0.048   5.000  2.0277  2.5662  0.7731
 3699SOL     OW11416   3.508   3.149   3.524 -0.1148 -0.1996 -0.7238
 3699SOL    HW111417   3.560   3.184   3.602 -0.6155  0.6086 -0.7483
 3699SOL    HW211418   3.428   3.207   3.507  0.2923 -0.0138 -2.1962
 3700SOL     OW11419   2.707   5.171   3.033  0.2006  0.2055 -1.1824
 3700SOL    HW111420   2.637   5.157   3.103  1.1975 -0.4250 -0.2826
 3700SOL    HW211421   2.782   5.225   3.072  1.2425 -1.0167 -1.4348
 3701SOL     OW11422   3.425   4.013   4.683 -0.2779  0.0693  0.2051
 3701SOL    HW111423   3.521   3.989   4.668  0.0757  0.0417  2.2189
 3701SOL    HW211424   3.392   3.967   4.766 -1.8012  0.7341 -0.0001
 3702SOL     OW11425   2.223   5.415   5.016  0.0979  0.0978 -0.7848
 3702SOL    HW111426   2.235   5.323   5.053  1.0807  0.7606  0.6209
 3702SOL    HW211427   2.313   5.458   5.002 -0.3094  2.2396  2.2890
 3703SOL     OW11428   2.291   0.982   4.871  0.4466  0.0252  0.9938
 3703SOL    HW111429   2.322   1.065   4.824 -2.6888  1.1646  0.6551
 3703SOL    HW211430   2.365   0.945   4.927  3.6384  0.0348 -2.7670
 3704SOL     OW11431   4.473   5.168   0.946 -0.0184 -0.0069 -0.5283
 3704SOL    HW111432   4.567   5.201   0.958 -0.3059  0.4701  0.4843
 3704SOL    HW211433   4.475   5.069   0.932  0.7507  0.2135 -2.2680
 3705SOL     OW11434   2.997   4.951   1.568  0.0171  0.1366 -0.3353
 3705SOL    HW111435   3.035   4.998   1.488  0.6475 -1.8593 -1.2790
 3705SOL    HW211436   2.911   4.995   1.594  0.8144  2.0985 -0.8058
 3706SOL     OW11437   3.840   0.499   1.487  0.1423  0.0862 -0.4418
 3706SOL    HW111438   3.861   0.592   1.518 -0.2511  0.2301 -0.5935
 3706SOL    HW211439   3.769   0.460   1.546  1.4517 -0.7412  0.6458
 3707SOL     OW11440   3.632   1.251   2.791  0.4620 -0.6212 -0.0995
 3707SOL    HW111441   3.683   1.320   2.739  1.1527 -1.9167 -1.2222
 3707SOL    HW211442   3.534   1.261   2.773  0.3843  1.0131  0.9850
 3708SOL     OW11443   4.942   5.150   0.046 -0.3326 -0.0422  0.2140
 3708SOL    HW111444   5.010   5.077   0.046 -2.5982 -2.3016 -0.5030
 3708SOL    HW211445   4.881   5.140   0.124 -1.0676  0.6668 -0.2451
 3709SOL     OW11446   5.393   0.405   5.527 -0.0052 -0.1919  0.1647
 3709SOL    HW111447   5.324   0.456   5.578 -1.2816 -1.0802 -0.6185
 3709SOL    HW211448   5.428   0.463   5.453  2.3267  1.3380  2.2956
 3710SOL     OW11449   4.830   2.120   5.566 -0.5261  0.3926  0.0160
 3710SOL    HW111450   4.921   2.161   5.567 -0.7519  0.9313  1.5327
 3710SOL    HW211451   4.825   2.050   5.495  0.9824  0.5395 -0.2591
 3711SOL     OW11452   0.124   1.673   1.687  0.2740 -0.5421 -0.0126
 3711SOL    HW111453   0.204   1.635   1.734  1.0727  0.0366 -0.8520
 3711SOL    HW211454   0.043   1.664   1.745  1.2806  0.4991  1.6291
 3712SOL     OW11455   5.046   5.488   3.836  0.3053  0.3948 -0.5216
 3712SOL    HW111456   5.134   5.526   3.866 -0.1865  0.3185  1.1656
 3712SOL    HW211457   4.997   5.556   3.782  1.2488  0.5646 -1.1867
 3713SOL     OW11458   3.547   0.667   4.954  0.2254 -0.4509 -0.8112
 3713SOL    HW111459   3.534   0.570   4.934 -0.9201 -0.6248  0.5946
 3713SOL    HW211460   3.620   0.677   5.021  0.4555 -0.3303 -1.0813
 3714SOL     OW11461   3.261   1.072   1.876  0.0284  0.5876  0.3268
 3714SOL    HW111462   3.352   1.031   1.878  0.4058  1.2899 -1.0423
 3714SOL    HW211463   3.211   1.039   1.796 -0.6593  0.7581  0.6744
 3715SOL     OW11464   5.358   1.879   0.446  0.1570 -0.0870 -0.1460
 3715SOL    HW111465   5.281   1.860   0.385 -0.5916  0.0362  0.7304
 3715SOL    HW211466   5.415   1.797   0.454 -0.3170 -0.4302 -0.2105
 3716SOL     OW11467   2.413   0.771   0.434 -0.0848 -0.2083 -0.0757
 3716SOL    HW111468   2.512   0.769   0.422  0.0029  0.9956  0.3167
 3716SOL    HW211469   2.372   0.831   0.367 -0.3572  0.6526  0.8361
 3717SOL     OW11470   2.742   0.172   1.833 -0.5964  0.7197  0.3933
 3717SOL    HW111471   2.818   0.119   1.798  0.2153  1.6649  0.6637
 3717SOL    HW211472   2.733   0.157   1.932 -0.4565  0.9490  0.4442
 3718SOL     OW11473   5.546   4.644   0.965 -0.0416 -0.4224 -0.1119
 3718SOL    HW111474   5.466   4.626   1.022 -1.0000  0.4525 -1.1396
 3718SOL    HW211475   5.575   4.739   0.976  1.8224 -1.1072  1.3916
 3719SOL     OW11476   4.899   2.973   0.107  0.4898  0.3279 -0.2064
 3719SOL    HW111477   4.887   3.072   0.115 -0.6653  0.1837  0.1351
 3719SOL    HW211478   4.986   2.946   0.146  0.3389  1.0913  0.6931
 3720SOL     OW11479   0.322   2.571   0.947 -1.0481  0.3980  0.0271
 3720SOL    HW111480   0.292   2.645   0.888 -0.7531  1.2485  0.9209
 3720SOL    HW211481   0.324   2.602   1.042 -0.8875 -0.7441  0.4224
 3721SOL     OW11482   3.663   1.165   4.914 -0.2832  0.5557 -0.0085
 3721SOL    HW111483   3.604   1.147   4.993 -1.5578  0.2611 -1.0077
 3721SOL    HW211484   3.756   1.136   4.936 -0.6224  0.4099  1.3613
 3722SOL     OW11485   5.218   1.096   0.519 -0.6992  0.0328  0.2302
 3722SOL    HW111486   5.158   1.025   0.555 -0.9326  0.3514  0.4724
 3722SOL    HW211487   5.295   1.109   0.581  1.6268 -2.9049 -1.7926
 3723SOL     OW11488   5.237   1.528   3.128  0.1251  0.0169 -0.1903
 3723SOL    HW111489   5.314   1.471   3.156 -0.5230 -0.6565  0.2591
 3723SOL    HW211490   5.249   1.620   3.165  1.5529  0.4256 -1.5417
 3724SOL     OW11491   2.828   0.822   4.686  0.1173 -0.4828  0.3697
 3724SOL    HW111492   2.883   0.740   4.665  0.8847  0.1020  0.0401
 3724SOL    HW211493   2.819   0.831   4.785  0.1565 -0.8887  0.4125
 3725SOL     OW11494   0.766   4.444   0.615  0.3223  0.3341 -0.5740
 3725SOL    HW111495   0.741   4.464   0.709 -1.4419 -0.5112 -0.8302
 3725SOL    HW211496   0.714   4.365   0.582  1.3048  0.2661 -2.0894
 3726SOL     OW11497   5.078   1.592   0.141 -0.0074  0.1426  0.3241
 3726SOL    HW111498   4.989   1.563   0.176  0.7020 -0.7484  1.4916
 3726SOL    HW211499   5.096   1.686   0.170 -0.3292  0.1296  0.5730
 3727SOL     OW11500   0.666   1.547   0.649 -0.2291 -0.1676  0.1446
 3727SOL    HW111501   0.638   1.508   0.737 -0.6262  2.5580  1.3128
 3727SOL    HW211502   0.749   1.600   0.661  0.1668 -0.4188 -1.3219
 3728SOL     OW11503   3.817   3.380   3.579 -0.0374  0.0346  0.6738
 3728SOL    HW111504   3.853   3.455   3.634  1.5595  0.4214 -0.7964
 3728SOL    HW211505   3.892   3.320   3.551 -0.4487  0.8076 -2.4318
 3729SOL     OW11506   0.727   1.434   1.985  0.0312 -0.7536 -0.6135
 3729SOL    HW111507   0.821   1.399   1.985 -0.4766 -2.1995 -0.8822
 3729SOL    HW211508   0.709   1.481   2.071  1.4341  0.8291 -1.1348
 3730SOL     OW11509   0.099   1.241   0.442  0.0232  0.0693 -0.0011
 3730SOL    HW111510   0.116   1.151   0.484 -0.2697 -0.4213 -0.9003
 3730SOL    HW211511   0.091   1.310   0.514  1.1142 -0.4703  0.6666
 3731SOL     OW11512   1.585   1.754   1.163  0.1374  0.1514  0.9997
 3731SOL    HW111513   1.528   1.688   1.212  1.3782 -1.5382  0.3138
 3731SOL    HW211514   1.664   1.778   1.219  0.3548  0.0268  0.7518
 3732SOL     OW11515   0.985   1.193   0.125  0.0736 -0.1087  0.0581
 3732SOL    HW111516   0.952   1.108   0.084  1.4425 -0.4645 -0.3414
 3732SOL    HW211517   0.929   1.269   0.091 -0.1882 -0.6651 -0.8015
 3733SOL     OW11518   5.408   2.810   0.824 -0.3359  0.4301  0.2452
 3733SOL    HW111519   5.309   2.813   0.810 -0.4723  0.0044  1.1017
 3733SOL    HW211520   5.428   2.811   0.921  0.4155 -1.6319  0.1568
 3734SOL     OW11521   3.727   0.169   2.291  0.2780  0.1448 -0.4040
 3734SOL    HW111522   3.717   0.130   2.200  2.5121 -1.1126 -0.1708
 3734SOL    HW211523   3.648   0.144   2.347 -1.4894  1.5443 -2.1385
 3735SOL     OW11524   2.175   2.084   2.751  0.1255 -0.0526  0.0587
 3735SOL    HW111525   2.158   2.183   2.746 -0.8497 -0.2035  0.1972
 3735SOL    HW211526   2.134   2.048   2.834  0.5453 -0.5674  0.0441
 3736SOL     OW11527   5.104   1.214   0.227  0.0730  0.0942 -0.0344
 3736SOL    HW111528   5.191   1.165   0.227  0.7971  1.3113 -0.1103
 3736SOL    HW211529   5.039   1.167   0.286  0.6138 -1.1076 -0.3581
 3737SOL     OW11530   0.164   2.368   4.006 -0.2899 -0.4771 -0.0450
 3737SOL    HW111531   0.102   2.292   3.986 -0.6954 -0.0311 -0.5199
 3737SOL    HW211532   0.159   2.435   3.932  0.7023 -0.3948 -0.0467
 3738SOL     OW11533   4.618   0.043   2.160  0.5644 -0.1063  0.3653
 3738SOL    HW111534   4.641   0.050   2.063  1.2991  1.4488  0.6217
 3738SOL    HW211535   4.670  -0.032   2.201  1.3045  0.1161 -0.1523
 3739SOL     OW11536   5.003   1.728   4.570 -0.0929 -0.1636  0.0264
 3739SOL    HW111537   4.947   1.811   4.562  2.8488  1.9299 -0.7248
 3739SOL    HW211538   5.026   1.713   4.666  0.1158  0.5088  0.0930
 3740SOL     OW11539   5.409   0.595   1.318  0.2045  0.1734  0.3675
 3740SOL    HW111540   5.318   0.596   1.278  0.4007  2.2112 -0.1552
 3740SOL    HW211541   5.478   0.600   1.246  0.6590  0.7173  0.8249
 3741SOL     OW11542   1.289   1.376   1.718  0.0641  0.1468  0.0991
 3741SOL    HW111543   1.283   1.396   1.620  1.2549 -2.0657 -0.5039
 3741SOL    HW211544   1.225   1.303   1.741 -1.0479  1.4436  1.2663
 3742SOL     OW11545   4.582   1.337   0.749  0.5862 -0.4334 -0.2918
 3742SOL    HW111546   4.491   1.328   0.788 -0.4675 -0.7065 -2.6640
 3742SOL    HW211547   4.616   1.430   0.766 -0.7884  0.1653 -0.7215
 3743SOL     OW11548   5.201   1.823   5.043 -0.5480  0.1876  0.1842
 3743SOL    HW111549   5.192   1.726   5.066 -0.5638  0.4879  1.5148
 3743SOL    HW211550   5.253   1.870   5.115  1.0144  0.8460 -1.3166
 3744SOL     OW11551   0.564   4.263   1.143 -0.7514 -0.9480 -0.3013
 3744SOL    HW111552   0.534   4.330   1.211 -1.6348 -1.9577  0.3300
 3744SOL    HW211553   0.664   4.263   1.139 -0.7257 -0.0739  0.1891
 3745SOL     OW11554   0.803   0.604   0.581  0.5029  0.5039 -0.1756
 3745SOL    HW111555   0.715   0.590   0.627 -0.7507  3.4463 -1.3976
 3745SOL    HW211556   0.799   0.566   0.489  0.5375  0.5769 -0.2071
 3746SOL     OW11557   5.294   1.003   0.996 -0.1822 -0.1328  0.3577
 3746SOL    HW111558   5.241   0.980   1.078 -1.1155  0.4755 -0.0577
 3746SOL    HW211559   5.251   1.080   0.949  0.3095 -0.5069 -0.7378
 3747SOL     OW11560   0.586   5.313   1.178 -0.0878 -0.4996  0.6275
 3747SOL    HW111561   0.525   5.349   1.249  0.9049  0.2129  1.1407
 3747SOL    HW211562   0.654   5.382   1.153 -0.3717 -0.7653 -0.9855
 3748SOL     OW11563   0.486   1.855   2.172  0.0399 -0.4352  0.4586
 3748SOL    HW111564   0.578   1.892   2.178 -0.8161  1.7933  0.8409
 3748SOL    HW211565   0.469   1.824   2.079  1.2055 -1.0093  0.4188
 3749SOL     OW11566   3.301   5.377   1.102  0.0974 -0.1380 -0.3150
 3749SOL    HW111567   3.366   5.301   1.099  0.7420  0.4283 -1.8555
 3749SOL    HW211568   3.323   5.438   1.178  0.8399 -0.3965 -0.3210
 3750SOL     OW11569   5.340   2.136   0.894 -0.1369  0.6669  0.9246
 3750SOL    HW111570   5.346   2.204   0.821 -3.2869  2.1850  1.8964
 3750SOL    HW211571   5.359   2.180   0.982  0.7927 -0.4794  1.3259
 3751SOL     OW11572   3.272   0.759   1.239 -0.0347 -0.0537 -0.2464
 3751SOL    HW111573   3.201   0.829   1.236 -1.8365 -1.8216 -0.1043
 3751SOL    HW211574   3.348   0.787   1.179 -1.1608  1.5220 -1.0038
 3752SOL     OW11575   4.677   5.571   1.911 -0.0540 -0.6419  0.2990
 3752SOL    HW111576   4.680   5.562   1.811 -1.6918 -0.0262  0.1602
 3752SOL    HW211577   4.669   5.481   1.952 -2.3734 -0.7923 -0.3289
 3753SOL     OW11578   0.299   1.619   3.630  0.0114  0.8924  0.3958
 3753SOL    HW111579   0.374   1.629   3.564  1.2591  1.9592  1.8872
 3753SOL    HW211580   0.299   1.697   3.692 -0.2836 -0.6545  2.4522
 3754SOL     OW11581   5.100   5.149   1.734 -0.1642  0.2228 -0.1326
 3754SOL    HW111582   5.092   5.085   1.811  2.1352  0.8794  0.7369
 3754SOL    HW211583   5.034   5.124   1.663 -2.5675 -0.2705  2.0945
 3755SOL     OW11584   5.300   2.276   1.423  0.1908  0.0088  0.1840
 3755SOL    HW111585   5.389   2.232   1.436 -1.0192 -2.8313 -0.4362
 3755SOL    HW211586   5.237   2.248   1.495 -0.0593  2.6516  1.1088
 3756SOL     OW11587   4.286   0.618   0.614 -0.4668 -0.2530 -0.3930
 3756SOL    HW111588   4.287   0.651   0.519  0.1885 -0.3389 -0.4224
 3756SOL    HW211589   4.290   0.697   0.676  4.5389 -0.1261 -0.4495
 3757SOL     OW11590   4.739   1.024   1.217 -0.7018 -0.2438 -0.1413
 3757SOL    HW111591   4.693   1.009   1.129 -1.5954  1.5699 -0.0393
 3757SOL    HW211592   4.674   1.008   1.291 -0.2855 -0.6262  0.1450
 3758SOL     OW11593   0.369   2.658   2.981  0.1420  0.6418  0.5540
 3758SOL    HW111594   0.460   2.616   2.982 -0.0210  0.2279  2.7546
 3758SOL    HW211595   0.377   2.754   3.005  0.0451  0.7570  0.1324
 3759SOL     OW11596   4.333   0.945   1.505  0.1469  0.4030 -0.3071
 3759SOL    HW111597   4.304   0.853   1.531  0.3709  0.3918 -0.0906
 3759SOL    HW211598   4.254   1.006   1.502  0.3077  0.8225  2.1318
 3760SOL     OW11599   4.677   1.069   0.914 -0.4811  0.2659  0.3119
 3760SOL    HW111600   4.656   1.009   0.836 -1.3423  1.0590 -0.0890
 3760SOL    HW211601   4.722   1.152   0.881 -1.4465  0.9092  0.5505
 3761SOL     OW11602   3.958   4.583   2.516  0.0166  0.2626  0.4186
 3761SOL    HW111603   3.883   4.529   2.553  0.3564  0.2924  1.1633
 3761SOL    HW211604   3.926   4.635   2.437 -0.4168 -0.7132 -0.0643
 3762SOL     OW11605   4.219   0.668   0.355  0.5145  0.2426  0.1552
 3762SOL    HW111606   4.224   0.755   0.306 -2.3840  0.0658 -0.6319
 3762SOL    HW211607   4.235   0.593   0.291 -0.8740  0.0950 -0.0423
 3763SOL     OW11608   4.204   3.992   1.307 -0.4768 -0.6344 -0.1132
 3763SOL    HW111609   4.157   3.993   1.396 -1.3289  1.0967 -0.5515
 3763SOL    HW211610   4.146   3.946   1.239 -0.8156  0.0253 -0.2746
 3764SOL     OW11611   0.216   0.420   5.334 -0.1899 -0.2012 -0.5622
 3764SOL    HW111612   0.238   0.509   5.372  1.0044 -0.7057 -0.0107
 3764SOL    HW211613   0.162   0.431   5.251  1.4016  1.1115 -1.4859
 3765SOL     OW11614   4.420   2.278   5.043  0.2500  0.1801  1.0019
 3765SOL    HW111615   4.417   2.330   4.958 -0.0713  0.5640  1.2427
 3765SOL    HW211616   4.469   2.332   5.113 -2.1112  1.2411  1.9505
 3766SOL     OW11617   5.244   5.464   5.323 -0.3577  0.0406 -0.1259
 3766SOL    HW111618   5.263   5.561   5.312 -2.2714  0.5203  0.3520
 3766SOL    HW211619   5.196   5.449   5.409  0.7283 -1.4811  0.2536
 3767SOL     OW11620   5.185   2.023   1.231 -0.0380  0.1450  0.5085
 3767SOL    HW111621   5.275   2.068   1.236  0.5385 -1.0068  0.9556
 3767SOL    HW211622   5.153   2.002   1.323 -0.8167  0.6234  0.3520
 3768SOL     OW11623   0.461   1.800   1.444 -0.1637 -0.1313 -0.5657
 3768SOL    HW111624   0.474   1.721   1.505 -0.2641  0.8357  0.7579
 3768SOL    HW211625   0.529   1.797   1.371  2.2166  0.3742  1.4705
 3769SOL     OW11626   4.389   5.245   1.293 -0.4216 -0.6250 -0.0575
 3769SOL    HW111627   4.412   5.148   1.284  0.3263 -0.3448 -1.5051
 3769SOL    HW211628   4.308   5.265   1.237 -0.0606 -0.2579 -0.4570
 3770SOL     OW11629   5.214   0.873   2.360  0.1823 -0.0540  0.4043
 3770SOL    HW111630   5.115   0.884   2.354  0.0939 -1.1970 -0.5328
 3770SOL    HW211631   5.256   0.894   2.272  0.6453 -0.6642  0.4674
 3771SOL     OW11632   4.014   0.520   0.583  0.2235  0.1685 -0.3137
 3771SOL    HW111633   3.977   0.589   0.521  0.5317  1.2603  0.6771
 3771SOL    HW211634   4.110   0.540   0.601 -0.2785  0.9624  1.8678
 3772SOL     OW11635   5.533   5.060   1.326 -0.1353  0.5611 -0.6622
 3772SOL    HW111636   5.454   5.085   1.271  0.1051 -1.0525 -1.7900
 3772SOL    HW211637   5.597   5.005   1.272  0.7042 -0.0471  0.8669
 3773SOL     OW11638   5.314   1.425   2.092  0.7633  0.0765 -0.5131
 3773SOL    HW111639   5.385   1.494   2.100  0.6644  0.0067  1.4141
 3773SOL    HW211640   5.226   1.466   2.117  0.6238 -0.6015  0.1285
 3774SOL     OW11641   4.641   1.884   0.672 -0.0072  0.6836 -0.0548
 3774SOL    HW111642   4.676   1.913   0.583  1.9988 -1.6250 -0.1129
 3774SOL    HW211643   4.710   1.898   0.742 -1.3455  1.9087  1.0917
 3775SOL     OW11644   4.363   5.506   0.450  0.2564 -0.4462  0.4601
 3775SOL    HW111645   4.357   5.440   0.376 -0.6124 -1.7172  1.6197
 3775SOL    HW211646   4.457   5.539   0.458  0.4466 -0.6184 -0.9040
 3776SOL     OW11647   0.300   0.069   0.516 -0.1661 -0.2862  0.5948
 3776SOL    HW111648   0.352   0.039   0.436  0.9879 -0.7288  1.4890
 3776SOL    HW211649   0.256  -0.010   0.559 -1.7567  0.0956 -0.2301
 3777SOL     OW11650   5.114   4.076   0.194 -0.2286 -0.5590 -0.5290
 3777SOL    HW111651   5.031   4.062   0.140  0.3548 -1.5581 -1.1890
 3777SOL    HW211652   5.186   4.014   0.162  0.2367 -0.9456  1.1755
 3778SOL     OW11653   1.316   2.178   0.374  0.7465 -0.0906  0.3831
 3778SOL    HW111654   1.346   2.139   0.461 -0.3027 -1.7232  0.0508
 3778SOL    HW211655   1.222   2.211   0.383  1.4871  2.1263  0.5499
 3779SOL     OW11656   4.200   0.052   0.680  0.0442 -0.0962  0.2025
 3779SOL    HW111657   4.140   0.126   0.648  0.0898 -0.3299 -0.4313
 3779SOL    HW211658   4.262   0.025   0.606 -0.4646 -1.2691  0.1917
 3780SOL     OW11659   0.528   0.675   5.075 -0.4628  0.5696 -0.0461
 3780SOL    HW111660   0.505   0.675   5.172 -0.5812  0.4008 -0.0744
 3780SOL    HW211661   0.504   0.587   5.035  1.5282 -0.1731  0.2354
 3781SOL     OW11662   4.901   5.297   2.864 -0.2641 -0.3799 -0.0351
 3781SOL    HW111663   4.932   5.389   2.889  0.8063 -1.1180  1.5431
 3781SOL    HW211664   4.948   5.268   2.780  0.3455  0.0412  0.1503
 3782SOL     OW11665   3.734   0.460   1.010  0.1100 -0.1755  0.7154
 3782SOL    HW111666   3.730   0.550   1.054 -1.7883 -0.4793  1.2387
 3782SOL    HW211667   3.662   0.401   1.047  0.9612 -1.7411 -0.0259
 3783SOL     OW11668   0.091   3.987   1.069 -0.2072 -0.2269 -0.9282
 3783SOL    HW111669   0.152   4.016   0.995 -1.9120  3.6394 -1.0527
 3783SOL    HW211670   0.017   3.931   1.031 -0.1961  0.3972 -1.9113
 3784SOL     OW11671   5.008   1.210   1.782 -0.4960 -0.0979 -0.0329
 3784SOL    HW111672   5.074   1.262   1.728 -1.0537  1.0893  0.3823
 3784SOL    HW211673   5.031   1.113   1.779  0.5579  0.1601 -0.8683
 3785SOL     OW11674   0.060   2.126   0.836  1.1895  0.3162  0.0275
 3785SOL    HW111675   0.055   2.108   0.738  2.1930 -1.2415  0.2357
 3785SOL    HW211676  -0.033   2.123   0.875  0.4531  3.3356 -1.1975
 3786SOL     OW11677   4.924   4.368   2.075  0.3977 -0.1162 -0.1728
 3786SOL    HW111678   4.965   4.408   2.157 -0.1391 -1.8251  1.0045
 3786SOL    HW211679   4.831   4.337   2.097 -0.3387  0.7789 -1.8830
 3787SOL     OW11680   4.949   4.050   1.386 -0.1962 -0.3962  0.0532
 3787SOL    HW111681   4.897   4.068   1.470 -0.7522  1.5740 -0.6648
 3787SOL    HW211682   5.047   4.060   1.404 -0.3181  0.1392  0.4465
 3788SOL     OW11683   4.765   4.427   1.239  0.0373 -0.4483 -0.3314
 3788SOL    HW111684   4.739   4.483   1.161  0.2381 -0.0052 -0.0869
 3788SOL    HW211685   4.721   4.337   1.233  0.9636 -0.8514 -1.5650
 3789SOL     OW11686   0.484   1.138   5.167 -0.5911 -0.4546 -0.4470
 3789SOL    HW111687   0.550   1.077   5.123 -1.0769 -1.5493  0.3310
 3789SOL    HW211688   0.435   1.090   5.239 -1.3986  0.6918 -0.1931
 3790SOL     OW11689   4.507   1.216   1.106  0.0891 -0.1984  0.1097
 3790SOL    HW111690   4.590   1.174   1.070  0.0955  0.7062 -0.9823
 3790SOL    HW211691   4.450   1.145   1.149  0.8206 -1.0394 -0.2703
 3791SOL     OW11692   0.227   5.419   0.690  0.4048 -1.0879  0.2915
 3791SOL    HW111693   0.308   5.372   0.725  1.3956  1.5563  1.8497
 3791SOL    HW211694   0.200   5.490   0.755 -1.1037  0.3854 -1.8281
 3792SOL     OW11695   0.543   1.647   0.975 -0.7878  0.2168  0.1079
 3792SOL    HW111696   0.561   1.561   0.928 -0.2744  0.2477  0.2426
 3792SOL    HW211697   0.552   1.723   0.911  1.0992  0.3634  0.4862
 3793SOL     OW11698   4.716   0.318   1.400  0.1146 -0.3659 -0.3458
 3793SOL    HW111699   4.699   0.322   1.499 -1.5462 -1.7861 -0.5318
 3793SOL    HW211700   4.758   0.230   1.377 -1.3821 -0.9177 -1.1135
 3794SOL     OW11701   5.025   2.181   0.706 -0.1271  0.1322 -0.3328
 3794SOL    HW111702   4.957   2.107   0.703 -0.7925  0.6133  1.5486
 3794SOL    HW211703   4.980   2.268   0.724  0.6351  1.0920 -2.6931
 3795SOL     OW11704   4.374   3.654   1.191  0.2773  0.1603  0.0817
 3795SOL    HW111705   4.388   3.581   1.124  1.1873 -1.2920  1.7651
 3795SOL    HW211706   4.444   3.724   1.178  0.1941  0.1034 -0.7261
 3796SOL     OW11707   3.687   4.696   0.314  0.3479  0.6357  0.3957
 3796SOL    HW111708   3.706   4.669   0.408  2.7490 -1.2334 -0.5068
 3796SOL    HW211709   3.613   4.640   0.276  1.9071 -1.3282  0.0964
 3797SOL     OW11710   5.148   0.857   1.918  0.1249  0.0065 -0.1220
 3797SOL    HW111711   5.127   0.848   1.821 -1.5899  0.0378  0.2257
 3797SOL    HW211712   5.161   0.954   1.940 -1.1873  0.1742 -0.0117
 3798SOL     OW11713   5.353   1.659   1.502  0.1352  0.4537  0.2034
 3798SOL    HW111714   5.310   1.730   1.447 -0.2034  1.1319  1.3020
 3798SOL    HW211715   5.325   1.670   1.598  1.7399  0.1341  0.7476
 3799SOL     OW11716   0.353   3.748   3.183 -0.2743 -0.2854 -0.0202
 3799SOL    HW111717   0.307   3.675   3.132  1.2076 -1.2786  0.0092
 3799SOL    HW211718   0.355   3.831   3.128 -3.9954  0.5209  0.8005
 3800SOL     OW11719   5.005   0.619   0.431  0.0404  0.0596  0.2879
 3800SOL    HW111720   5.086   0.641   0.486  0.4680 -2.0437  0.6053
 3800SOL    HW211721   4.933   0.686   0.448  1.0157  0.8177  1.5686
 3801SOL     OW11722   3.805   1.618   0.338 -0.0976 -0.1878  0.0267
 3801SOL    HW111723   3.768   1.631   0.430  3.5013 -2.4732  2.0215
 3801SOL    HW211724   3.767   1.534   0.299 -0.5507  0.0153  0.0239
 3802SOL     OW11725   4.918   4.976   1.119 -0.3283  0.3888 -0.2281
 3802SOL    HW111726   4.853   4.955   1.192  0.0266 -1.0804 -0.3014
 3802SOL    HW211727   4.987   4.904   1.114  0.3754  1.0967 -1.2174
 3803SOL     OW11728   4.942   0.718   2.047  0.0918  0.1046  0.0768
 3803SOL    HW111729   4.997   0.792   2.009  0.6357 -1.5436 -2.5913
 3803SOL    HW211730   4.992   0.632   2.041 -2.4245 -1.3845 -1.9303
 3804SOL     OW11731   4.770   1.490   0.497  0.5744  0.1209 -0.1949
 3804SOL    HW111732   4.792   1.405   0.544 -0.3941  0.3457  0.7228
 3804SOL    HW211733   4.675   1.487   0.465  0.1696  1.2633  0.8252
 3805SOL     OW11734   3.559   5.225   2.357  0.1226  0.4320  0.2434
 3805SOL    HW111735   3.482   5.227   2.292  0.2088  0.7309  0.1513
 3805SOL    HW211736   3.642   5.257   2.312  0.6342 -1.2404 -0.0820
 3806SOL     OW11737   3.912   3.982   0.277 -0.2548 -0.3851  0.1054
 3806SOL    HW111738   3.867   4.064   0.244 -0.0246 -0.5703 -0.6786
 3806SOL    HW211739   3.995   3.965   0.224 -1.0671 -1.9273 -0.7261
 3807SOL     OW11740   4.689   5.403   2.451 -0.0240  0.7218 -0.1384
 3807SOL    HW111741   4.651   5.311   2.454 -2.0244  1.5025 -0.5102
 3807SOL    HW211742   4.789   5.397   2.454 -0.1123 -1.4305  0.0971
 3808SOL     OW11743   5.554   1.044   0.264  0.6413 -0.2969  0.1259
 3808SOL    HW111744   5.461   1.009   0.277  1.1113 -1.7647 -0.2986
 3808SOL    HW211745   5.568   1.124   0.322 -0.5867 -0.6251  0.8986
 3809SOL     OW11746   2.741   0.141   2.475 -0.7417 -0.0047 -0.5819
 3809SOL    HW111747   2.764   0.106   2.566  2.0948 -0.3659 -1.3574
 3809SOL    HW211748   2.696   0.069   2.422 -1.4724 -0.1192  0.1660
 3810SOL     OW11749   4.699   2.353   0.920 -0.0700  0.3349  0.1069
 3810SOL    HW111750   4.751   2.370   0.837  0.6938  0.4736  0.6089
 3810SOL    HW211751   4.706   2.257   0.946 -1.1194  0.0733 -0.5236
 3811SOL     OW11752   4.544   1.820   1.039  0.2012  0.4001 -0.3385
 3811SOL    HW111753   4.626   1.778   1.076 -1.4212 -0.3235  2.8099
 3811SOL    HW211754   4.475   1.829   1.111 -2.8459  0.1788 -2.9624
 3812SOL     OW11755   0.181   0.911   2.320 -0.7486 -0.1602 -0.2093
 3812SOL    HW111756   0.209   0.849   2.247  0.6503 -0.7518  0.7811
 3812SOL    HW211757   0.091   0.884   2.354 -1.9864  0.8627 -2.4710
 3813SOL     OW11758   0.313   2.224   1.976  0.0683 -0.1972 -0.4497
 3813SOL    HW111759   0.315   2.323   1.968 -2.5393 -0.2195 -3.3173
 3813SOL    HW211760   0.403   2.186   1.954  0.9034  1.4572 -0.0182
 3814SOL     OW11761   5.370   0.678   1.657 -0.0781  0.3296 -0.1556
 3814SOL    HW111762   5.394   0.593   1.610  0.0193  0.7360 -0.8531
 3814SOL    HW211763   5.449   0.712   1.708  0.3836  0.8398 -1.1793
 3815SOL     OW11764   4.000   4.875   0.545  0.3778 -0.7985 -0.3542
 3815SOL    HW111765   4.056   4.868   0.463  0.3475  0.8002 -0.5454
 3815SOL    HW211766   4.057   4.905   0.622  0.3610 -2.0535  0.1696
 3816SOL     OW11767   4.253   2.208   3.206  0.7476  0.6826  0.1652
 3816SOL    HW111768   4.182   2.156   3.253 -0.4136  1.7081 -0.4016
 3816SOL    HW211769   4.334   2.216   3.265  0.4734 -0.6631  0.7389
 3817SOL     OW11770   3.840   1.159   2.929  0.5582 -0.6598  0.2616
 3817SOL    HW111771   3.796   1.110   3.004 -0.7495  0.8531  0.5309
 3817SOL    HW211772   3.771   1.208   2.876  1.5750 -0.9267 -1.3710
 3818SOL     OW11773   3.183   1.010   0.278 -0.0173  0.2604 -0.1508
 3818SOL    HW111774   3.126   0.930   0.264 -2.1159  2.1056 -3.5219
 3818SOL    HW211775   3.259   1.010   0.212  1.2997  0.0457  1.3029
 3819SOL     OW11776   5.059   2.076   4.475  0.4611  0.4824  0.1973
 3819SOL    HW111777   4.972   2.038   4.507  0.7710 -0.9141 -0.5222
 3819SOL    HW211778   5.041   2.139   4.399  0.1482 -1.5227 -1.5040
 3820SOL     OW11779   4.325   0.691   5.335  0.2525  0.0873 -0.0105
 3820SOL    HW111780   4.268   0.613   5.312 -0.1734  0.3919 -0.0136
 3820SOL    HW211781   4.411   0.660   5.376 -0.8431 -0.3318  2.0951
 3821SOL     OW11782   2.625   0.902   2.148 -0.5828 -0.4714  0.2946
 3821SOL    HW111783   2.573   0.816   2.145 -1.1469 -0.1492  0.5705
 3821SOL    HW211784   2.699   0.899   2.081 -1.1607 -0.8239 -0.3464
 3822SOL     OW11785   4.045   3.056   0.657 -0.2797 -0.1053  0.3239
 3822SOL    HW111786   4.074   2.972   0.612  0.3046 -0.0557  0.6024
 3822SOL    HW211787   4.088   3.135   0.614 -1.0235  0.0819 -0.1010
 3823SOL     OW11788   4.737   1.447   1.253  0.0930 -0.5184 -1.0240
 3823SOL    HW111789   4.644   1.413   1.263 -0.4763  0.9357 -1.2120
 3823SOL    HW211790   4.801   1.370   1.260 -0.9171 -1.2308  1.7689
 3824SOL     OW11791   5.328   2.991   2.614 -0.1205 -0.7622 -0.0423
 3824SOL    HW111792   5.266   2.917   2.640  1.4504 -2.3550 -0.7159
 3824SOL    HW211793   5.420   2.956   2.603  0.7587  1.3808 -0.0441
 3825SOL     OW11794   4.562   5.034   2.031 -0.1307  0.0384  0.1021
 3825SOL    HW111795   4.639   5.019   2.093  0.0396 -0.2187 -0.1690
 3825SOL    HW211796   4.492   4.965   2.047 -0.3254  0.2958  0.3756
 3826SOL     OW11797   0.117   1.568   0.805  0.0233 -0.3027  0.0746
 3826SOL    HW111798   0.172   1.556   0.888 -0.1060 -1.3084  0.0196
 3826SOL    HW211799   0.064   1.653   0.813  0.7290  0.1055  0.6041
 3827SOL     OW11800   5.045   5.390   2.150  0.0462  0.1639  0.4779
 3827SOL    HW111801   5.132   5.344   2.167 -0.0583 -0.2966 -0.1998
 3827SOL    HW211802   5.052   5.486   2.178  0.1550 -0.3168  2.2274
 3828SOL     OW11803   4.984   2.876   2.768 -0.1333 -0.2433  0.0585
 3828SOL    HW111804   4.991   2.811   2.843  1.9676 -0.4338 -0.2335
 3828SOL    HW211805   5.037   2.842   2.690  0.0540  1.2636 -0.5058
 3829SOL     OW11806   1.463   0.696   0.926 -0.1984 -0.3781 -0.9027
 3829SOL    HW111807   1.449   0.769   0.860 -1.6303  0.3132  0.1149
 3829SOL    HW211808   1.383   0.636   0.927  1.0220 -2.1180 -1.8522
 3830SOL     OW11809   4.072   5.086   2.056 -0.4696  0.0332 -0.3331
 3830SOL    HW111810   4.109   5.041   1.975  2.3750 -0.0196  0.8773
 3830SOL    HW211811   4.076   5.185   2.043  0.1867  0.0294 -0.2030
 3831SOL     OW11812   4.915   0.453   4.850  0.1369 -0.6123 -0.3663
 3831SOL    HW111813   4.830   0.468   4.901  1.3154  0.5260  1.4046
 3831SOL    HW211814   4.899   0.467   4.753 -1.8350 -1.1075 -0.1581
 3832SOL     OW11815   4.181   4.954   1.838  0.5689  0.5142 -0.5525
 3832SOL    HW111816   4.256   5.008   1.800 -0.4980  0.1954 -3.3050
 3832SOL    HW211817   4.137   4.902   1.765 -0.9879 -0.9859  1.3561
 3833SOL     OW11818   5.129   5.393  -0.000 -0.0259  0.2216  0.2372
 3833SOL    HW111819   5.080   5.312   0.033  1.1623  0.5402  3.0912
 3833SOL    HW211820   5.083   5.475   0.034  1.1701  0.5783  1.0590
 3834SOL     OW11821   2.102   0.597   1.019 -0.1355 -0.2540  0.1018
 3834SOL    HW111822   2.104   0.556   0.928  1.6573 -0.1329  0.0512
 3834SOL    HW211823   2.110   0.696   1.010  0.6993 -0.2896  0.4062
 3835SOL     OW11824   4.511   0.834   0.392 -0.1365 -0.4843 -0.4366
 3835SOL    HW111825   4.494   0.739   0.368 -2.8233  0.2712 -2.0115
 3835SOL    HW211826   4.571   0.876   0.324 -1.3154 -0.3534 -1.4211
 3836SOL     OW11827   4.115   5.080   2.467  0.4362  0.6702 -0.0179
 3836SOL    HW111828   4.085   5.032   2.385 -1.5442  0.9931  0.4646
 3836SOL    HW211829   4.117   5.016   2.544 -1.0423  1.0446  0.3694
 3837SOL     OW11830   3.214   4.656   1.916  0.3113 -0.4833  0.0678
 3837SOL    HW111831   3.193   4.746   1.878  2.3410 -0.3037 -0.7539
 3837SOL    HW211832   3.182   4.652   2.011  2.4480  2.1322  1.0510
 3838SOL     OW11833   2.721   2.862   5.182 -0.0712  0.3757  0.2392
 3838SOL    HW111834   2.717   2.943   5.123 -0.0683  1.4862  1.7177
 3838SOL    HW211835   2.672   2.880   5.267  2.6480  0.0296  2.0097
 3839SOL     OW11836   3.919   3.023   4.598  0.0702  0.0948  0.3228
 3839SOL    HW111837   3.964   3.021   4.509 -2.3419 -0.6245 -0.9837
 3839SOL    HW211838   3.864   2.940   4.609 -1.9192  1.4583  1.2324
 3840SOL     OW11839   4.371   2.163   0.425 -0.4638  0.2778  0.2067
 3840SOL    HW111840   4.387   2.174   0.524 -0.1318  0.2460  0.1595
 3840SOL    HW211841   4.282   2.122   0.410  0.1686 -1.3142  0.5804
 3841SOL     OW11842   4.154   1.429   1.591 -0.3295  0.5067  0.1711
 3841SOL    HW111843   4.232   1.490   1.600 -0.9121  1.2774  0.1660
 3841SOL    HW211844   4.102   1.453   1.508  0.3601 -1.1003 -0.7640
 3842SOL     OW11845   5.076   0.031   1.197 -0.4094 -0.6310 -0.1715
 3842SOL    HW111846   5.049   0.077   1.282  0.6528 -1.8438  0.8659
 3842SOL    HW211847   5.175   0.019   1.196 -0.2096  0.6260 -2.2783
 3843SOL     OW11848   4.577   0.123   0.286  0.2888 -0.4222 -1.2196
 3843SOL    HW111849   4.510   0.147   0.216 -0.8018  0.0080 -0.0646
 3843SOL    HW211850   4.583   0.023   0.294  0.3978 -0.4734 -1.8791
 3844SOL     OW11851   0.566   0.841   1.097 -0.1520 -0.1458 -0.0203
 3844SOL    HW111852   0.546   0.938   1.112  0.1605  0.4026 -2.6782
 3844SOL    HW211853   0.497   0.802   1.036  0.0182 -1.4950  0.6182
 3845SOL     OW11854   3.610   0.593   5.430 -0.0306 -0.6058  0.4888
 3845SOL    HW111855   3.578   0.520   5.490 -0.1115 -0.6625  0.3775
 3845SOL    HW211856   3.623   0.677   5.483  0.6151 -0.8488  0.7266
 3846SOL     OW11857   0.230   4.366   1.429 -0.3712 -0.5043  0.1089
 3846SOL    HW111858   0.149   4.374   1.371  1.4915 -1.1597 -2.8351
 3846SOL    HW211859   0.253   4.270   1.441 -0.7390 -0.3753  2.0629
 3847SOL     OW11860   3.018   0.835   0.504 -0.2588 -0.0405 -0.6054
 3847SOL    HW111861   3.117   0.822   0.505  0.0408  1.4903 -2.6320
 3847SOL    HW211862   2.986   0.841   0.409 -2.1710  0.4520  0.0138
 3848SOL     OW11863   4.732   0.258   0.474 -0.7271  0.1171  0.4055
 3848SOL    HW111864   4.743   0.202   0.557  1.6408 -0.6055 -0.2961
 3848SOL    HW211865   4.680   0.206   0.407 -0.8748 -0.1519  0.7208
 3849SOL     OW11866   4.567   2.179   1.267  0.0840  0.1629 -0.1561
 3849SOL    HW111867   4.624   2.132   1.199 -0.0523  0.1516 -0.2652
 3849SOL    HW211868   4.471   2.173   1.238  0.2004  1.9480 -1.0550
 3850SOL     OW11869   5.446   0.799   0.411  0.5375 -0.8852 -0.1280
 3850SOL    HW111870   5.541   0.768   0.412  0.9441  0.1143 -2.0866
 3850SOL    HW211871   5.411   0.793   0.317 -2.0188 -3.1344  0.8192
 3851SOL     OW11872   0.047   0.807   1.747 -0.2992 -0.0716 -0.1290
 3851SOL    HW111873   0.080   0.820   1.840  0.5999 -1.7375 -0.1745
 3851SOL    HW211874   0.123   0.779   1.688 -0.9568  0.4267 -1.2493
 3852SOL     OW11875   3.657  -0.008   0.825 -0.2361 -0.3734 -0.4952
 3852SOL    HW111876   3.699   0.080   0.843 -0.5055 -0.0939 -1.2181
 3852SOL    HW211877   3.672  -0.069   0.904  2.2487 -0.5798 -1.0692
 3853SOL     OW11878   4.243   0.223   0.357 -0.4721  0.2077 -0.0264
 3853SOL    HW111879   4.250   0.284   0.436  0.5888 -0.0430  0.0874
 3853SOL    HW211880   4.300   0.142   0.372 -0.9763 -0.2791 -0.6638
 3854SOL     OW11881   0.796   3.277   1.132  0.6539 -0.0026  0.3061
 3854SOL    HW111882   0.848   3.353   1.171  3.1843 -0.2601 -2.2195
 3854SOL    HW211883   0.725   3.313   1.072  1.8332  0.4598 -0.8709
 3855SOL     OW11884   0.191   0.598   2.915  0.4631  0.0685 -0.3254
 3855SOL    HW111885   0.216   0.683   2.961 -0.2296  0.7056 -1.0918
 3855SOL    HW211886   0.256   0.580   2.840  0.8199 -0.2727  0.0625
 3856SOL     OW11887   5.259   1.279   5.074  0.4391 -0.0194  0.3839
 3856SOL    HW111888   5.326   1.288   5.000  1.2083  2.0636  1.2559
 3856SOL    HW211889   5.180   1.227   5.042  0.9816  0.3883 -1.7337
 3857SOL     OW11890   5.324   2.117   5.329 -0.3521  0.3539 -0.3092
 3857SOL    HW111891   5.379   2.079   5.254  0.0395  0.3455 -0.0217
 3857SOL    HW211892   5.383   2.170   5.389 -0.2651 -1.2169  1.0716
 3858SOL     OW11893   4.738   0.114   5.037 -0.4591 -0.2530  0.0763
 3858SOL    HW111894   4.646   0.094   5.072 -1.0059 -0.6261 -1.4677
 3858SOL    HW211895   4.730   0.157   4.947  0.8502  1.6267  0.7933
 3859SOL     OW11896   4.948   4.868   4.792  0.0462  0.1123  0.3543
 3859SOL    HW111897   5.041   4.877   4.756 -0.0505  0.3901  0.1705
 3859SOL    HW211898   4.928   4.945   4.853 -0.7739  1.1683 -1.1843
 3860SOL     OW11899   0.441   1.115   4.691 -0.2234 -0.3139  0.4644
 3860SOL    HW111900   0.382   1.127   4.771 -0.3490  1.3139  0.1724
 3860SOL    HW211901   0.498   1.196   4.680  0.8160 -1.1255 -0.2886
 3861SOL     OW11902   4.322   2.843   2.349 -0.0748  0.2337  0.1093
 3861SOL    HW111903   4.315   2.935   2.311  0.4085  0.6084  0.9212
 3861SOL    HW211904   4.389   2.841   2.422 -1.8865 -0.1659  1.8478
 3862SOL     OW11905   4.631   5.014   0.526  1.1133 -0.6475 -0.0928
 3862SOL    HW111906   4.608   5.100   0.572  1.2290 -0.3784 -0.5266
 3862SOL    HW211907   4.730   5.005   0.521  1.1080 -0.4038 -0.7701
 3863SOL     OW11908   4.916   1.311   2.028 -0.1243 -0.4408 -0.0205
 3863SOL    HW111909   4.923   1.253   1.947 -3.1979 -1.5230  0.3472
 3863SOL    HW211910   4.898   1.255   2.108 -0.7120  0.8538  0.7931
 3864SOL     OW11911   0.190   1.868   0.129  0.0891 -0.5125 -0.3620
 3864SOL    HW111912   0.194   1.962   0.095 -0.2780 -1.0151 -1.8999
 3864SOL    HW211913   0.259   1.855   0.200  1.4265  0.4282 -1.4267
 3865SOL     OW11914   0.408   1.005   1.400  0.1637  0.7208  0.1972
 3865SOL    HW111915   0.380   1.082   1.458 -1.1341 -0.2257  0.8722
 3865SOL    HW211916   0.332   0.978   1.341  0.1632 -0.8268  0.8542
 3866SOL     OW11917   0.317   1.416   2.105 -0.3150  0.2028  0.2764
 3866SOL    HW111918   0.279   1.505   2.131 -0.4187  0.9788 -2.2687
 3866SOL    HW211919   0.417   1.419   2.111 -0.3783 -0.0194  1.6267
 3867SOL     OW11920   3.986   1.129   0.269 -0.0224 -0.0151  0.2323
 3867SOL    HW111921   3.968   1.171   0.358  1.6042  0.1679  0.5115
 3867SOL    HW211922   4.073   1.080   0.273 -0.9377 -1.8231 -0.6459
 3868SOL     OW11923   0.406   2.167   4.931 -0.1721 -0.7265 -0.1363
 3868SOL    HW111924   0.358   2.249   4.901 -2.6046 -0.7001  3.2287
 3868SOL    HW211925   0.487   2.193   4.984 -0.4709 -0.4852  0.2088
 3869SOL     OW11926   3.632   0.304   2.669  0.1366 -0.0995  0.3015
 3869SOL    HW111927   3.614   0.370   2.742 -0.8498 -0.0715  0.0423
 3869SOL    HW211928   3.563   0.232   2.670 -0.6930  0.6145 -1.4315
 3870SOL     OW11929   0.614   0.894   4.359 -0.3248 -0.0552 -0.5955
 3870SOL    HW111930   0.517   0.899   4.381  0.1830  1.8172  1.7058
 3870SOL    HW211931   0.646   0.985   4.330  1.1854 -0.0215  1.0275
 3871SOL     OW11932   5.129   0.339   0.844 -0.7334  0.4028  0.5885
 3871SOL    HW111933   5.038   0.372   0.818 -1.5894 -2.8660 -1.0735
 3871SOL    HW211934   5.196   0.372   0.779 -1.6644 -1.4225 -1.4269
 3872SOL     OW11935   2.897   2.205   1.777 -0.2315 -0.2415  0.5775
 3872SOL    HW111936   2.819   2.146   1.757 -0.5596  0.1999  0.5493
 3872SOL    HW211937   2.933   2.183   1.868 -0.7089 -0.0927  0.8017
 3873SOL     OW11938   5.466   1.942   2.050  0.0191  0.1118  0.0413
 3873SOL    HW111939   5.561   1.968   2.029 -0.8133  2.2596 -1.3660
 3873SOL    HW211940   5.444   1.971   2.143  1.2681 -2.1823  1.1454
 3874SOL     OW11941   5.192   1.266   0.832 -0.2203  0.4075 -0.2402
 3874SOL    HW111942   5.209   1.364   0.825 -2.8330  1.0032  0.3955
 3874SOL    HW211943   5.094   1.251   0.846  0.2641 -2.2372  0.8741
 3875SOL     OW11944   5.234   3.967   1.720  0.3654 -0.4353 -0.4311
 3875SOL    HW111945   5.166   3.931   1.784 -0.0094 -1.9785 -1.6464
 3875SOL    HW211946   5.297   3.894   1.693  1.7142  0.6528 -0.3674
 3876SOL     OW11947   3.821   1.003   1.695 -0.0979 -0.2360 -0.7339
 3876SOL    HW111948   3.753   0.947   1.742  1.3595 -0.4866  1.2511
 3876SOL    HW211949   3.797   1.100   1.703 -0.2361 -0.3208 -0.0153
 3877SOL     OW11950   4.682   1.106   0.597 -0.1364 -0.4305 -0.0804
 3877SOL    HW111951   4.666   1.185   0.655 -1.9093 -1.5790  1.1237
 3877SOL    HW211952   4.612   1.037   0.615 -0.1028 -1.3138 -2.8240
 3878SOL     OW11953   2.419   0.565   1.060 -0.3334  0.0458  0.3135
 3878SOL    HW111954   2.339   0.574   1.001  0.9788  0.6704 -1.4496
 3878SOL    HW211955   2.398   0.603   1.150 -1.4674  1.8428 -0.6521
 3879SOL     OW11956   2.174   5.189   1.495 -0.5178 -0.0670  0.2625
 3879SOL    HW111957   2.096   5.192   1.432  0.8729 -0.5647 -1.5729
 3879SOL    HW211958   2.199   5.094   1.513  1.0138  0.0488 -0.9974
 3880SOL     OW11959   3.736   5.199   1.569  0.2876 -0.0817 -0.0758
 3880SOL    HW111960   3.663   5.178   1.504 -0.0094  0.7929 -0.0461
 3880SOL    HW211961   3.755   5.118   1.625 -0.4491 -0.4149 -0.2899
 3881SOL     OW11962   4.501   1.307   5.477  0.4839  0.3603  0.5783
 3881SOL    HW111963   4.600   1.303   5.467  0.3004  1.5923 -2.8659
 3881SOL    HW211964   4.461   1.219   5.452  0.6702 -0.6601  3.4729
 3882SOL     OW11965   5.197   1.912   1.478 -0.8951  0.3060  0.0905
 3882SOL    HW111966   5.282   1.946   1.518 -1.7728  3.0914 -0.1931
 3882SOL    HW211967   5.124   1.917   1.546 -0.7617 -2.8481  0.5971
 3883SOL     OW11968   5.270   0.751   0.172 -0.0088  0.7814 -0.5135
 3883SOL    HW111969   5.218   0.727   0.090 -0.4264  1.5067 -0.4781
 3883SOL    HW211970   5.298   0.668   0.220 -1.3388  0.3649 -0.4139
 3884SOL     OW11971   3.733   0.905   2.635  0.0890 -0.3173 -0.2716
 3884SOL    HW111972   3.670   0.952   2.573 -0.2579 -0.3376  0.0662
 3884SOL    HW211973   3.819   0.955   2.640  0.1246 -0.3242 -0.7854
 3885SOL     OW11974   4.831   1.178   1.483  0.2205 -0.0378 -0.3779
 3885SOL    HW111975   4.856   1.096   1.534  0.4375 -0.1690 -0.6887
 3885SOL    HW211976   4.732   1.194   1.492  0.2378 -0.1241 -0.0184
 3886SOL     OW11977   4.999   1.796   2.899 -0.2247  0.4987 -0.3409
 3886SOL    HW111978   4.939   1.876   2.896  1.8553  2.1182 -1.6108
 3886SOL    HW211979   5.085   1.820   2.944  0.5647 -0.9360 -1.0190
 3887SOL     OW11980   4.078   0.152   2.402  0.2566 -0.1023  0.1167
 3887SOL    HW111981   3.993   0.198   2.429  0.3477  0.6692 -0.8472
 3887SOL    HW211982   4.146   0.162   2.474  0.4325  1.7251 -0.2647
 3888SOL     OW11983   5.480   2.503   1.649  0.6133  0.5058  0.2240
 3888SOL    HW111984   5.397   2.552   1.621  1.2166  0.5435 -1.6807
 3888SOL    HW211985   5.464   2.405   1.643  0.5033  0.5041  0.5286
 3889SOL     OW11986   3.609   2.358   1.362  0.1026 -0.2243 -0.4615
 3889SOL    HW111987   3.685   2.416   1.332  0.3444  0.1453  0.8365
 3889SOL    HW211988   3.616   2.341   1.460 -2.6759  1.6960  0.2180
 3890SOL     OW11989   5.200   2.042   1.983 -0.3489  0.2327  0.4908
 3890SOL    HW111990   5.286   1.999   2.011 -0.4060 -0.2112 -0.0072
 3890SOL    HW211991   5.133   2.034   2.057  0.5206  2.0100  1.5357
 3891SOL     OW11992   3.739   4.276   0.908  0.0002 -0.3102 -0.3111
 3891SOL    HW111993   3.745   4.370   0.942 -1.7198  0.5236 -2.1546
 3891SOL    HW211994   3.830   4.233   0.912  0.9446  1.6384 -0.0483
 3892SOL     OW11995   3.670   1.332   0.356  0.5058 -0.1455 -0.1749
 3892SOL    HW111996   3.662   1.363   0.451 -1.5512  1.0658 -0.6708
 3892SOL    HW211997   3.614   1.249   0.344  0.3007  0.0343 -0.4576
 3893SOL     OW11998   0.045   5.150   1.983  0.1053 -0.0427  0.0348
 3893SOL    HW111999   0.078   5.081   1.919 -0.0394  1.1916 -1.4159
 3893SOL    HW212000   0.121   5.184   2.038  0.4202 -0.3583 -0.2021
 3894SOL     OW12001   5.518   1.578   1.311 -0.5289 -0.4683 -0.4284
 3894SOL    HW112002   5.597   1.633   1.338 -1.3428 -0.3865  2.0002
 3894SOL    HW212003   5.447   1.584   1.381 -3.0885  0.1204 -2.8736
 3895SOL     OW12004   5.301   1.943   4.821  0.1140  0.0702  0.4064
 3895SOL    HW112005   5.265   1.901   4.904  1.7237  0.6358  1.4474
 3895SOL    HW212006   5.228   1.992   4.773 -0.6817  0.4053  1.9135
 3896SOL     OW12007   4.668   2.260   0.500 -0.8399  0.5765 -0.2114
 3896SOL    HW112008   4.615   2.235   0.582  1.2446 -1.4994  0.6128
 3896SOL    HW212009   4.730   2.186   0.477  0.4916  2.2004 -2.1773
 3897SOL     OW12010   5.317   1.509   0.810 -0.0829  0.0717  0.3892
 3897SOL    HW112011   5.396   1.519   0.870  1.0146  1.6034 -1.1860
 3897SOL    HW212012   5.251   1.582   0.829 -0.7901 -0.7502  1.1808
 3898SOL     OW12013   4.936   1.540   4.394  0.0470  0.1862 -0.4166
 3898SOL    HW112014   4.976   1.607   4.457 -0.4687  0.3295 -0.2358
 3898SOL    HW212015   4.943   1.574   4.300 -2.1433  1.5211 -0.1549
 3899SOL     OW12016   4.731   5.313   0.888  0.1419  0.4053 -0.0440
 3899SOL    HW112017   4.689   5.358   0.809 -2.5689 -0.7236  0.6478
 3899SOL    HW212018   4.800   5.373   0.927  0.7771  1.4663 -2.5721
 3900SOL     OW12019   3.973   1.029   1.942 -0.2514  0.2265 -0.2673
 3900SOL    HW112020   4.046   1.098   1.948  1.1628 -1.1282 -1.1126
 3900SOL    HW212021   3.934   1.030   1.850  0.7613 -1.0094 -0.7412
 3901SOL     OW12022   4.057   5.212   1.261  0.4935 -0.6058 -0.1230
 3901SOL    HW112023   4.080   5.164   1.346  1.0053  0.0233  0.1012
 3901SOL    HW212024   4.118   5.181   1.188  2.0957  1.0027  0.4515
 3902SOL     OW12025   2.129   1.750   2.005  0.1623 -0.5035  0.2549
 3902SOL    HW112026   2.029   1.746   1.994  0.2718  0.7400 -1.6277
 3902SOL    HW212027   2.151   1.788   2.094 -1.0013 -2.0507  1.2615
 3903SOL     OW12028   4.489   4.711   1.158 -0.1935  0.3750 -0.1854
 3903SOL    HW112029   4.412   4.649   1.178 -0.4694  0.6245 -0.4678
 3903SOL    HW212030   4.571   4.657   1.141 -0.0516  0.1311  1.1576
 3904SOL     OW12031   5.503   5.387   5.356 -0.6099  0.2497 -0.4574
 3904SOL    HW112032   5.410   5.418   5.337 -1.4177 -1.7736 -0.0823
 3904SOL    HW212033   5.565   5.424   5.287 -1.7405  1.3709 -0.9103
 3905SOL     OW12034   5.258   3.146   1.620  0.2820  0.5778 -0.2429
 3905SOL    HW112035   5.163   3.134   1.652  0.4027 -0.1645 -0.1359
 3905SOL    HW212036   5.302   3.057   1.615  1.4339  1.0312  1.1206
 3906SOL     OW12037   5.448   0.535   2.291  0.3070  0.0562 -0.8004
 3906SOL    HW112038   5.476   0.444   2.323  0.5420  0.8538  1.4825
 3906SOL    HW212039   5.359   0.529   2.245  0.1640 -1.2964 -0.3794
 3907SOL     OW12040   3.768   1.401   0.095 -0.4160 -0.0402  0.2225
 3907SOL    HW112041   3.719   1.364   0.016 -0.8386 -1.6584  1.1885
 3907SOL    HW212042   3.724   1.368   0.179  0.9037  0.4433  1.1275
 3908SOL     OW12043   5.283   5.051   2.676  0.0257 -0.2720 -0.1272
 3908SOL    HW112044   5.345   5.002   2.615  2.8865  1.0797  1.4910
 3908SOL    HW212045   5.300   5.023   2.770 -0.4596  1.4959  0.5352
 3909SOL     OW12046   4.510   4.096   2.082 -0.5954 -0.0982 -0.0769
 3909SOL    HW112047   4.548   4.076   1.991 -2.3986 -0.3198 -0.8269
 3909SOL    HW212048   4.561   4.045   2.151  0.7380 -0.0213 -0.9537
 3910SOL     OW12049   5.032   4.022   5.057 -0.1117 -0.2082 -0.0122
 3910SOL    HW112050   5.008   3.945   4.998 -1.3996  1.7484 -2.2545
 3910SOL    HW212051   4.949   4.073   5.080  0.8761  1.5942 -0.2449
 3911SOL     OW12052   3.985   2.466   1.805 -0.1642  0.7048 -0.1507
 3911SOL    HW112053   4.006   2.562   1.824 -1.3439  0.6999  1.3270
 3911SOL    HW212054   3.893   2.444   1.838  0.0771 -0.9357 -0.4711
 3912SOL     OW12055   3.958   0.986   2.208 -0.0176 -0.3650  0.2973
 3912SOL    HW112056   3.954   1.017   2.113 -0.9804  0.9415  0.7311
 3912SOL    HW212057   3.881   0.926   2.227 -0.6129  0.4646  0.5879
 3913SOL     OW12058   4.945   1.051   0.010 -0.3372 -0.5639  0.0366
 3913SOL    HW112059   4.999   1.107   0.073 -0.1301 -0.3798 -0.3011
 3913SOL    HW212060   4.900   0.978   0.061  1.4790 -1.6944  0.1240
 3914SOL     OW12061   0.734   2.047   0.953  0.7057 -0.1673 -0.1625
 3914SOL    HW112062   0.788   2.046   1.037  1.4628 -0.0756 -0.6405
 3914SOL    HW212063   0.721   2.141   0.923  0.0936 -0.1749  0.0610
 3915SOL     OW12064   4.165   0.646   1.140 -0.2089 -0.5468 -1.3387
 3915SOL    HW112065   4.073   0.627   1.174 -0.3433  1.7016 -0.2183
 3915SOL    HW212066   4.226   0.571   1.165 -0.6534  0.1658  2.7288
 3916SOL     OW12067   3.638   2.522   4.097  0.0173  0.3190  0.5364
 3916SOL    HW112068   3.677   2.431   4.103  1.7415  0.9250 -0.7147
 3916SOL    HW212069   3.548   2.517   4.053 -0.3822 -0.8673  1.4561
 3917SOL     OW12070   5.177   1.487   4.015 -0.0300  0.2423  0.8311
 3917SOL    HW112071   5.262   1.525   3.979  0.0851 -0.3253  0.4781
 3917SOL    HW212072   5.193   1.449   4.106  0.4372 -1.0723  0.2246
 3918SOL     OW12073   4.399   4.704   2.603 -0.5222  0.7030  0.1593
 3918SOL    HW112074   4.310   4.676   2.641 -0.2388 -3.4559 -1.7812
 3918SOL    HW212075   4.385   4.742   2.512 -0.3122 -1.5117 -0.8563
 3919SOL     OW12076   3.139   0.326   2.694  0.0782 -0.1665 -0.0340
 3919SOL    HW112077   3.100   0.298   2.606  1.9028  0.9015 -1.2469
 3919SOL    HW212078   3.122   0.424   2.708  1.0759 -0.0035  0.0842
 3920SOL     OW12079   0.349   0.621   2.677 -0.1334  0.6601 -0.1464
 3920SOL    HW112080   0.326   0.715   2.651  0.9116  1.1183  0.5159
 3920SOL    HW212081   0.448   0.613   2.689 -0.2598 -0.3993  0.2852
 3921SOL     OW12082   4.004   0.285   1.424  0.4560 -0.0651  0.1324
 3921SOL    HW112083   3.971   0.370   1.465 -0.1211  0.6826 -1.7850
 3921SOL    HW212084   3.939   0.253   1.355  2.2479 -0.2157 -1.5734
 3922SOL     OW12085   4.628   0.553   2.863 -0.3909  0.2685 -0.0669
 3922SOL    HW112086   4.649   0.613   2.785 -1.7293  0.7993 -0.0358
 3922SOL    HW212087   4.547   0.587   2.911 -1.4737 -1.8052 -0.3121
 3923SOL     OW12088   5.495   0.142   1.516 -0.1071 -0.4837 -0.6762
 3923SOL    HW112089   5.532   0.121   1.607 -0.7815 -0.8627 -0.4812
 3923SOL    HW212090   5.422   0.078   1.495 -2.5317  1.8571  0.0967
 3924SOL     OW12091   4.167   0.119   1.835 -0.5289  0.3761  0.0411
 3924SOL    HW112092   4.225   0.074   1.903  2.9392  0.4642 -2.5631
 3924SOL    HW212093   4.155   0.215   1.860  2.2157  0.8702 -0.2163
 3925SOL     OW12094   4.540   5.514   3.877 -0.1258 -0.0919 -0.7247
 3925SOL    HW112095   4.506   5.513   3.971 -0.5067  1.4401 -0.8116
 3925SOL    HW212096   4.541   5.421   3.840 -0.0930 -0.6923  0.7428
 3926SOL     OW12097   3.558   2.242   3.517 -0.2107  0.2727  0.8793
 3926SOL    HW112098   3.595   2.149   3.513 -1.1585 -0.0872 -0.8498
 3926SOL    HW212099   3.566   2.278   3.610 -2.5105 -2.6687  2.3816
 3927SOL     OW12100   0.619   0.490   2.858  0.3963  0.2254 -0.1111
 3927SOL    HW112101   0.606   0.535   2.946 -0.2779 -1.3037  0.5955
 3927SOL    HW212102   0.577   0.399   2.860  1.4397 -0.3281 -1.5974
 3928SOL     OW12103   3.708   1.397   3.621  0.7884  0.0168 -0.1666
 3928SOL    HW112104   3.624   1.355   3.588  0.4477 -0.3917  1.1403
 3928SOL    HW212105   3.704   1.496   3.605 -0.1071  0.0533  0.1907
 3929SOL     OW12106   3.948   1.329   3.332 -0.0277  0.2273  0.1271
 3929SOL    HW112107   3.988   1.351   3.421 -0.8684 -0.7451  0.7691
 3929SOL    HW212108   3.946   1.230   3.320 -1.2957  0.2869 -0.3210
 3930SOL     OW12109   4.165   0.484   5.318 -0.4017 -0.2784  0.0080
 3930SOL    HW112110   4.096   0.512   5.251  0.1151 -0.9832 -0.8541
 3930SOL    HW212111   4.131   0.500   5.410 -1.0472  0.9293 -0.4206
 3931SOL     OW12112   0.692   2.864   4.151 -0.1460 -0.7236  0.4096
 3931SOL    HW112113   0.610   2.915   4.124  1.1197  1.6227  0.7180
 3931SOL    HW212114   0.755   2.858   4.074 -0.0402 -1.3760  0.5373
 3932SOL     OW12115   4.675   2.449   2.672 -0.6396  0.4893 -0.4937
 3932SOL    HW112116   4.603   2.435   2.604 -1.0165  0.4662 -0.0952
 3932SOL    HW212117   4.753   2.494   2.629 -1.2808  1.4236 -0.7114
 3933SOL     OW12118   0.330   1.438   3.935 -0.3936 -0.0294  0.4890
 3933SOL    HW112119   0.369   1.429   3.843  1.2376  0.4745  1.0930
 3933SOL    HW212120   0.382   1.506   3.986 -1.6635  0.1355  1.6031
 3934SOL     OW12121   4.353   1.636   1.642  0.4850 -0.7105  0.0852
 3934SOL    HW112122   4.335   1.731   1.616  0.2712 -1.0278 -0.9590
 3934SOL    HW212123   4.360   1.630   1.742  2.1675  0.6843  0.0939
 3935SOL     OW12124   4.335   1.540   2.198 -0.1420  0.2883  0.1435
 3935SOL    HW112125   4.339   1.638   2.213 -0.9597  0.4350 -0.5117
 3935SOL    HW212126   4.297   1.495   2.279 -1.7464  0.7475 -0.3183
 3936SOL     OW12127   4.655   1.651   1.858  0.0290  0.5896  0.2249
 3936SOL    HW112128   4.720   1.577   1.843 -0.2424  0.4365 -0.2145
 3936SOL    HW212129   4.580   1.618   1.916  1.7351  1.5403  3.1526
 3937SOL     OW12130   3.460   0.503   1.278  0.3073  0.2707 -0.4712
 3937SOL    HW112131   3.524   0.546   1.342 -0.0805 -0.3831  0.3630
 3937SOL    HW212132   3.402   0.574   1.237 -0.6304  0.5155  1.2278
 3938SOL     OW12133   3.833   0.385   1.957  0.1283  0.1697  0.3018
 3938SOL    HW112134   3.782   0.393   2.043  1.1364 -0.0853  0.9332
 3938SOL    HW212135   3.781   0.329   1.893 -0.1583 -0.5169  1.1165
 3939SOL     OW12136   3.892   1.798   2.012  0.3171 -0.6023  0.3546
 3939SOL    HW112137   3.927   1.745   2.089 -1.3429 -2.1231  0.1192
 3939SOL    HW212138   3.908   1.747   1.927  1.6358  0.8069 -0.2920
 3940SOL     OW12139   0.314   2.044   3.115  0.2857 -0.0659  0.1010
 3940SOL    HW112140   0.344   1.976   3.181 -1.3206 -0.2377  0.7121
 3940SOL    HW212141   0.298   2.131   3.163 -0.7229 -0.1466 -0.0677
 3941SOL     OW12142   3.953   1.593   3.208 -0.5692  0.1453  0.2873
 3941SOL    HW112143   3.945   1.499   3.240 -0.0893  0.0531  0.1547
 3941SOL    HW212144   4.030   1.637   3.253 -0.4366  0.2900 -0.0737
 3942SOL     OW12145   4.772   4.784   2.485 -0.1298 -0.0300  0.1053
 3942SOL    HW112146   4.711   4.829   2.549  0.8629  1.8263 -0.1708
 3942SOL    HW212147   4.732   4.787   2.393  0.9310  2.5276 -0.3513
 3943SOL     OW12148   5.020   0.721   1.386 -0.2688 -0.1244 -0.8879
 3943SOL    HW112149   5.054   0.758   1.472 -0.9492 -0.2864 -0.5381
 3943SOL    HW212150   4.926   0.690   1.399 -0.3449 -0.2281 -1.6700
 3944SOL     OW12151   0.045   1.694   0.444 -0.2875 -0.2860 -0.3994
 3944SOL    HW112152  -0.008   1.620   0.486 -0.2397 -0.9223 -1.4165
 3944SOL    HW212153   0.020   1.701   0.347 -0.3396  1.0876 -0.3012
 3945SOL     OW12154   4.315   1.066   2.178  0.2969 -0.5024 -0.1520
 3945SOL    HW112155   4.283   0.975   2.203 -1.3430  0.2541  0.6483
 3945SOL    HW212156   4.251   1.108   2.114  0.6338  0.3529  0.0515
 3946SOL     OW12157   0.680   2.046   3.241  0.3707  0.0404  0.0028
 3946SOL    HW112158   0.659   2.125   3.184  0.0253 -1.7785 -2.5685
 3946SOL    HW212159   0.602   2.025   3.299 -0.8388 -0.2723 -1.6586
 3947SOL     OW12160   3.921   0.644   2.190 -0.0410 -0.6227 -0.1092
 3947SOL    HW112161   3.970   0.646   2.103 -0.4857 -0.3096 -0.3554
 3947SOL    HW212162   3.841   0.703   2.185 -0.4409 -1.1188  0.3004
 3948SOL     OW12163   3.155   0.344   3.716  0.2895  0.1381  0.0013
 3948SOL    HW112164   3.199   0.410   3.655  1.1978  2.5722  2.9883
 3948SOL    HW212165   3.196   0.351   3.807 -2.1230 -2.0314  1.3886
 3949SOL     OW12166   4.334   1.105   3.777  0.1475 -0.3833 -0.2816
 3949SOL    HW112167   4.237   1.126   3.765 -0.2356 -0.5726  1.9619
 3949SOL    HW212168   4.345   1.012   3.813  1.2978 -0.9975 -2.0947
 3950SOL     OW12169   0.173   1.492   2.631  1.4109  0.0398 -0.1612
 3950SOL    HW112170   0.085   1.444   2.639  1.6281 -0.6728 -1.7010
 3950SOL    HW212171   0.223   1.484   2.717 -0.5134  1.5059  1.1901
 3951SOL     OW12172   1.860   1.065   4.943 -0.0741 -0.1522 -0.1942
 3951SOL    HW112173   1.892   0.971   4.953  0.0603 -0.2392 -1.2759
 3951SOL    HW212174   1.760   1.067   4.941 -0.1007 -0.1542  0.7859
 3952SOL     OW12175   1.300   3.034   1.062  0.0104  0.0592 -0.1961
 3952SOL    HW112176   1.394   3.006   1.045 -0.2755 -0.2028 -1.4639
 3952SOL    HW212177   1.239   2.988   0.997 -1.1217 -0.5270  1.2101
 3953SOL     OW12178   5.379   3.470   2.234 -0.9442 -0.0818 -0.1394
 3953SOL    HW112179   5.387   3.566   2.261 -0.0119  0.3330 -1.7136
 3953SOL    HW212180   5.325   3.464   2.150  2.0974 -0.4074 -2.2356
 3954SOL     OW12181   2.109   1.295   2.381 -0.1393  0.3075 -0.1202
 3954SOL    HW112182   2.009   1.296   2.374 -0.0235  0.3125 -2.9099
 3954SOL    HW212183   2.140   1.201   2.394 -0.4632  0.2280  0.1029
 3955SOL     OW12184   4.873   1.233   0.860  0.1316 -0.2960 -0.2909
 3955SOL    HW112185   4.871   1.237   0.760 -1.4740 -1.1838 -0.3388
 3955SOL    HW212186   4.894   1.323   0.897  3.8666 -0.5337 -1.4042
 3956SOL     OW12187   4.753   1.942   0.418  0.1174  0.8366 -0.1087
 3956SOL    HW112188   4.674   1.981   0.372 -0.3874 -1.0970 -0.9824
 3956SOL    HW212189   4.807   1.890   0.353  0.4146 -0.4296  1.0944
 3957SOL     OW12190   4.008   0.829   4.224  0.1300 -0.0946  1.0400
 3957SOL    HW112191   4.011   0.730   4.213  1.3366 -0.0666  0.9798
 3957SOL    HW212192   4.101   0.865   4.229 -0.2901  0.9179  2.1485
 3958SOL     OW12193   4.649   0.667   3.841  0.8722 -0.0944 -0.5912
 3958SOL    HW112194   4.716   0.659   3.767  0.4830  0.9176 -1.0766
 3958SOL    HW212195   4.624   0.763   3.852 -0.8934 -0.5094 -0.7606
 3959SOL     OW12196   4.149   1.392   2.401  0.1184 -0.2066  0.4894
 3959SOL    HW112197   4.125   1.449   2.480  0.0725 -2.0129  1.8338
 3959SOL    HW212198   4.076   1.327   2.383  1.3237 -1.6953  0.7613
 3960SOL     OW12199   3.284   0.019   3.302  0.1201  0.0198  0.1888
 3960SOL    HW112200   3.271  -0.071   3.343 -0.9820 -0.4413 -1.0750
 3960SOL    HW212201   3.265   0.090   3.370 -2.5834 -0.7000  0.3058
 3961SOL     OW12202   4.611   0.285   1.137  0.1986  0.0904 -0.1433
 3961SOL    HW112203   4.593   0.380   1.110  1.1741  0.4557  0.4621
 3961SOL    HW212204   4.639   0.282   1.233  1.7510 -0.6131 -0.5815
 3962SOL     OW12205   2.375   0.662   3.423 -0.0056  0.4386 -0.1154
 3962SOL    HW112206   2.452   0.657   3.487  0.9183 -0.8181 -1.2643
 3962SOL    HW212207   2.291   0.637   3.470  0.6356 -0.3668  0.6393
 3963SOL     OW12208   4.411   1.296   5.025  0.2344  0.2559 -0.2441
 3963SOL    HW112209   4.331   1.257   5.070 -0.2271  0.4665 -0.8664
 3963SOL    HW212210   4.408   1.396   5.032  1.2523  0.2195  1.0765
 3964SOL     OW12211   4.690   0.330   1.663  0.0969 -0.5564  0.1402
 3964SOL    HW112212   4.652   0.239   1.679 -2.0747  0.0441 -1.3384
 3964SOL    HW212213   4.668   0.389   1.741 -0.5567 -0.6514  0.0266
 3965SOL     OW12214   4.613   1.565   2.977 -0.6334 -0.5609  0.1475
 3965SOL    HW112215   4.547   1.639   2.964  0.8180  0.4585 -2.2156
 3965SOL    HW212216   4.571   1.478   2.953 -1.3536 -0.0176 -0.6319
 3966SOL     OW12217   3.242   4.432   1.785  0.2727 -0.0628  0.3652
 3966SOL    HW112218   3.230   4.353   1.845 -1.6295  0.1099  0.2903
 3966SOL    HW212219   3.228   4.516   1.837  0.3558  0.1509  0.0466
 3967SOL     OW12220   5.448   4.591   3.003  0.0020  0.1724 -0.1262
 3967SOL    HW112221   5.363   4.628   3.038  0.0964  0.2426  0.0301
 3967SOL    HW212222   5.525   4.647   3.035 -0.0953  2.1940 -3.0009
 3968SOL     OW12223   4.888   5.462   0.632  0.3694 -0.0948  0.0186
 3968SOL    HW112224   4.827   5.540   0.651  0.9414  0.6677 -1.1219
 3968SOL    HW212225   4.976   5.477   0.676 -0.2497 -1.2361  1.7339
 3969SOL     OW12226   4.516   1.441   2.531 -0.3740  0.1408 -0.3481
 3969SOL    HW112227   4.467   1.360   2.499 -0.2627 -0.4733  0.9717
 3969SOL    HW212228   4.604   1.447   2.483 -1.5481  1.0873 -2.5120
 3970SOL     OW12229   5.013   1.151   3.151 -0.4359  0.2641  0.2492
 3970SOL    HW112230   5.087   1.135   3.086 -0.0494 -1.7283  1.1148
 3970SOL    HW212231   4.980   1.245   3.141  0.8403  0.5776 -1.5269
 3971SOL     OW12232   3.326   0.826   2.228 -0.3371  0.2237  0.7734
 3971SOL    HW112233   3.295   0.733   2.214  0.4246 -0.0826  1.0560
 3971SOL    HW212234   3.382   0.855   2.150 -2.6207  1.3657 -0.5505
 3972SOL     OW12235   4.831   1.937   2.100 -0.0124 -0.3350 -0.1265
 3972SOL    HW112236   4.910   1.897   2.052 -0.1262  0.1289 -0.7093
 3972SOL    HW212237   4.747   1.908   2.055 -0.1120  0.2857 -0.3454
 3973SOL     OW12238   2.438   1.639   5.377 -0.5536 -0.0904 -0.5149
 3973SOL    HW112239   2.404   1.587   5.298  0.4944  0.4940 -1.3859
 3973SOL    HW212240   2.430   1.737   5.358  0.7122  0.0532 -0.3615
 3974SOL     OW12241   5.443   3.534   1.525 -0.6375  0.3523 -0.6056
 3974SOL    HW112242   5.491   3.605   1.473 -2.3140 -0.0758 -2.8666
 3974SOL    HW212243   5.451   3.447   1.477 -0.2675 -0.6187  1.1272
 3975SOL     OW12244   4.487   5.022   2.886  0.7212  0.6681 -0.0651
 3975SOL    HW112245   4.558   5.077   2.930 -1.4003  1.5493  2.5468
 3975SOL    HW212246   4.456   4.951   2.948 -2.2618  1.7929 -0.1067
 3976SOL     OW12247   4.220   0.633   1.837 -0.3204 -0.5553 -0.4716
 3976SOL    HW112248   4.153   0.687   1.886  0.6756  0.7661 -0.5141
 3976SOL    HW212249   4.201   0.635   1.739  0.2183  0.4789 -0.5643
 3977SOL     OW12250   4.952   3.566   2.459 -0.3652  0.1418  0.0687
 3977SOL    HW112251   4.857   3.535   2.454 -0.0767 -1.0644  1.3633
 3977SOL    HW212252   4.957   3.648   2.515 -0.9364  1.7373 -2.1071
 3978SOL     OW12253   5.449   4.815   5.483 -0.3239 -0.0916 -0.0532
 3978SOL    HW112254   5.439   4.781   5.390 -0.4615  2.1818 -0.9188
 3978SOL    HW212255   5.526   4.878   5.488 -0.1730 -0.3601  1.4409
 3979SOL     OW12256   4.205   2.608   3.655  0.0878  0.0678 -0.2713
 3979SOL    HW112257   4.218   2.534   3.589  1.4703  1.6039 -1.8277
 3979SOL    HW212258   4.115   2.599   3.698 -1.1026 -0.7488 -2.7316
 3980SOL     OW12259   4.223   2.705   5.390  0.3557  0.3355  0.0018
 3980SOL    HW112260   4.220   2.653   5.305 -0.1124  0.1476  0.1303
 3980SOL    HW212261   4.239   2.643   5.467 -0.7661  0.2943  0.2183
 3981SOL     OW12262   3.954   1.704   2.956 -0.0845 -0.4320  0.2646
 3981SOL    HW112263   3.951   1.679   3.053 -0.5698  0.6154  0.5490
 3981SOL    HW212264   3.913   1.631   2.901  0.1401 -1.0103  0.8544
 3982SOL     OW12265   0.505   0.256   3.759 -0.6513  0.5427 -0.1248
 3982SOL    HW112266   0.483   0.167   3.720  1.2522  0.4380 -1.0565
 3982SOL    HW212267   0.443   0.325   3.722 -1.3160 -0.1750 -0.3773
 3983SOL     OW12268   3.683   0.386   3.358 -0.6817  0.0559  0.0879
 3983SOL    HW112269   3.597   0.412   3.313 -1.2255  0.3276  1.2227
 3983SOL    HW212270   3.693   0.287   3.355 -2.0396 -0.1899  1.5637
 3984SOL     OW12271   3.163   1.253   3.130  0.2445  0.0404  0.6351
 3984SOL    HW112272   3.249   1.246   3.179  0.3424  1.4966  0.7169
 3984SOL    HW212273   3.135   1.162   3.098  1.3230 -0.5838  1.4049
 3985SOL     OW12274   4.371   1.254   2.370 -0.0031  0.4956 -0.7622
 3985SOL    HW112275   4.289   1.302   2.400 -1.4325 -2.9561  1.4020
 3985SOL    HW212276   4.349   1.196   2.291  0.2329 -0.6389 -0.0168
 3986SOL     OW12277   5.077   1.553   2.210  0.0687  0.3376 -0.0995
 3986SOL    HW112278   5.125   1.640   2.219 -1.2543  0.8768  3.3435
 3986SOL    HW212279   4.999   1.565   2.148  1.3739  0.8266 -1.7070
 3987SOL     OW12280   3.648   0.390   2.164  0.1760  0.0848  0.5423
 3987SOL    HW112281   3.626   0.469   2.221  0.5444  0.2109  0.5192
 3987SOL    HW212282   3.656   0.309   2.221  1.0299  0.2997  0.7550
 3988SOL     OW12283   4.113   5.366   2.823  0.0579 -0.3104  0.2311
 3988SOL    HW112284   4.169   5.294   2.864  0.4423  0.1192  0.4710
 3988SOL    HW212285   4.171   5.433   2.777 -0.1454  0.7234  1.4101
 3989SOL     OW12286   3.674   5.462   0.580  0.2460 -0.2273  0.2280
 3989SOL    HW112287   3.607   5.402   0.536  1.1218 -0.7112 -0.4682
 3989SOL    HW212288   3.645   5.480   0.674  0.0947 -1.9829  0.5545
 3990SOL     OW12289   0.126   1.274   0.790 -0.0507  0.0251 -0.2556
 3990SOL    HW112290   0.089   1.364   0.812 -0.5981 -0.4993  1.0974
 3990SOL    HW212291   0.224   1.282   0.771 -0.2179  0.9816 -0.8194
 3991SOL     OW12292   2.020   4.538   2.638  0.2685 -0.0898 -0.1280
 3991SOL    HW112293   1.940   4.596   2.645  0.7295  0.4604  0.8405
 3991SOL    HW212294   2.028   4.502   2.545 -0.4419  0.7834 -0.5358
 3992SOL     OW12295   3.811   0.896   1.317 -0.6878  0.1190  0.2963
 3992SOL    HW112296   3.728   0.841   1.311  0.0990 -1.2432  1.2379
 3992SOL    HW212297   3.838   0.926   1.226 -2.2957  0.7613 -0.0092
 3993SOL     OW12298   0.520   1.373   4.822  0.1547 -0.0590 -0.0360
 3993SOL    HW112299   0.439   1.417   4.782  0.5727  2.3431  1.5129
 3993SOL    HW212300   0.509   1.369   4.921  1.4346 -0.8014  0.0869
 3994SOL     OW12301   4.870   1.159   2.252 -0.6034  0.7740  0.6409
 3994SOL    HW112302   4.833   1.190   2.340  1.7424  0.1852  1.9195
 3994SOL    HW212303   4.897   1.063   2.260 -1.4737  0.3467 -1.1384
 3995SOL     OW12304   4.223   0.388   3.186 -0.3189 -0.0030 -0.2001
 3995SOL    HW112305   4.196   0.440   3.105 -1.8547  0.4121  0.5339
 3995SOL    HW212306   4.297   0.437   3.233  1.3356 -0.7874 -1.8674
 3996SOL     OW12307   0.251   1.133   1.010 -0.2447 -0.5874 -0.1034
 3996SOL    HW112308   0.172   1.175   0.965 -0.3370 -1.9030 -1.2765
 3996SOL    HW212309   0.234   1.035   1.021  0.9924 -0.7885  0.1403
 3997SOL     OW12310   5.485   0.774   2.422  0.2908  0.3830  0.0734
 3997SOL    HW112311   5.393   0.813   2.433  0.5200  0.9259  0.0904
 3997SOL    HW212312   5.479   0.688   2.372 -0.3343 -0.0534  0.8658
 3998SOL     OW12313   2.671   5.075   2.494  0.0954  0.3071  0.4729
 3998SOL    HW112314   2.667   5.172   2.514 -0.9296  0.7711 -1.7386
 3998SOL    HW212315   2.631   5.023   2.570  0.2791  1.6049  1.4838
 3999SOL     OW12316   2.518   0.700   2.908  0.2251  0.0289  0.1844
 3999SOL    HW112317   2.611   0.676   2.881 -0.1933 -0.0835 -1.2433
 3999SOL    HW212318   2.521   0.768   2.981  1.4563  1.7237 -1.3471
 4000SOL     OW12319   4.054   1.227   4.766  0.0011  0.4003  0.0789
 4000SOL    HW112320   4.140   1.238   4.717 -0.5112  0.3409 -0.8536
 4000SOL    HW212321   3.992   1.301   4.741 -0.6183 -0.1788 -0.1303
 4001SOL     OW12322   4.192   4.480   3.600  0.1698 -0.3143  0.8246
 4001SOL    HW112323   4.093   4.487   3.612  0.1762 -0.3970  0.9186
 4001SOL    HW212324   4.238   4.526   3.676  0.1973  1.4308 -0.1740
 4002SOL     OW12325   3.989   1.064   3.315  0.2594  0.2423 -1.0787
 4002SOL    HW112326   4.030   1.012   3.390 -2.0293  0.2248  0.2729
 4002SOL    HW212327   3.975   1.004   3.237  0.1909 -0.4623 -0.5361
 4003SOL     OW12328   0.515   1.436   3.252 -0.2358 -0.0903 -0.3355
 4003SOL    HW112329   0.432   1.406   3.204  0.1156 -1.7662  0.0291
 4003SOL    HW212330   0.581   1.361   3.254  1.2277  1.1581 -0.4403
 4004SOL     OW12331   4.006   0.955   3.061  0.9099 -0.5975 -0.0026
 4004SOL    HW112332   3.974   1.025   2.997  0.1615 -0.4297  0.5478
 4004SOL    HW212333   3.988   0.864   3.023 -1.7734 -0.5538  0.9835
 4005SOL     OW12334   3.838   0.326   2.932  0.0872  0.3008 -0.1488
 4005SOL    HW112335   3.856   0.378   3.016  1.6861 -0.2646 -0.0928
 4005SOL    HW212336   3.742   0.334   2.908  0.0480  2.4062  0.4348
 4006SOL     OW12337   4.997   2.435   2.675  0.6341  0.1883 -0.3582
 4006SOL    HW112338   5.026   2.508   2.737 -0.0565 -0.9416  1.3641
 4006SOL    HW212339   5.014   2.346   2.717 -2.5687 -0.5986 -0.4448
 4007SOL     OW12340   0.163   1.788   1.106 -0.3068  0.2988 -0.4782
 4007SOL    HW112341   0.208   1.698   1.110 -1.4954 -0.3973 -1.7370
 4007SOL    HW212342   0.154   1.824   1.198  2.1659  0.1670 -0.1193
 4008SOL     OW12343   4.367   0.851   2.485  0.5397 -0.6262 -0.1214
 4008SOL    HW112344   4.410   0.763   2.505  1.5495 -0.2238 -0.4697
 4008SOL    HW212345   4.296   0.838   2.416 -0.0029 -1.3150  0.5414
 4009SOL     OW12346   1.445   0.543   3.949  0.5326  0.2179  0.1410
 4009SOL    HW112347   1.425   0.610   4.020 -0.4930  1.6663 -1.4379
 4009SOL    HW212348   1.360   0.501   3.917  0.8282  0.4794 -1.0471
 4010SOL     OW12349   5.001   2.868   3.708 -0.4706 -0.1715 -0.9181
 4010SOL    HW112350   5.023   2.963   3.732 -0.8092 -0.1938 -0.5131
 4010SOL    HW212351   4.907   2.864   3.674 -0.3853 -0.3293 -1.1326
 4011SOL     OW12352   4.811   1.990   2.898 -0.5377 -0.4643 -0.1893
 4011SOL    HW112353   4.800   2.069   2.838 -2.0976  0.1945  0.9139
 4011SOL    HW212354   4.833   2.020   2.990 -1.3188 -1.2915  0.2807
 4012SOL     OW12355   5.410   1.434   2.681 -0.3451  0.6766 -0.5758
 4012SOL    HW112356   5.445   1.368   2.748 -1.0716  2.3312  1.5553
 4012SOL    HW212357   5.318   1.408   2.653  0.5906 -0.9690 -2.3665
 4013SOL     OW12358   3.652   2.114   3.200 -0.1794  0.2006  0.2597
 4013SOL    HW112359   3.606   2.163   3.275 -4.0422  0.2277 -1.8962
 4013SOL    HW212360   3.728   2.170   3.166 -1.6118  2.6023  0.8016
 4014SOL     OW12361   4.053   5.377   1.554  0.3864 -0.1875 -1.0492
 4014SOL    HW112362   3.990   5.360   1.630  0.2662 -0.4404 -1.2048
 4014SOL    HW212363   4.001   5.380   1.468  0.4598  0.5519 -1.0702
 4015SOL     OW12364   4.908   1.855   3.872  0.5197 -0.3101  0.0898
 4015SOL    HW112365   4.997   1.810   3.862  0.6062 -0.0571 -0.2880
 4015SOL    HW212366   4.838   1.786   3.891  0.1755 -1.0171 -3.1408
 4016SOL     OW12367   4.544   1.053   2.478 -0.7761 -0.2405  0.0781
 4016SOL    HW112368   4.486   0.985   2.523 -2.0717  0.6995 -0.1013
 4016SOL    HW212369   4.486   1.126   2.441  0.6310  1.5508  1.2496
 4017SOL     OW12370   4.112   5.316   5.338 -0.6167  0.4231 -0.7647
 4017SOL    HW112371   4.029   5.260   5.348  0.2416 -0.7388  0.1676
 4017SOL    HW212372   4.115   5.384   5.411  0.4740 -1.2320  0.8372
 4018SOL     OW12373   4.217   2.131   4.066 -0.7955  0.0197  0.2275
 4018SOL    HW112374   4.134   2.087   4.030  0.4458 -0.9731 -1.5730
 4018SOL    HW212375   4.270   2.064   4.118  0.0230 -0.0499 -0.6666
 4019SOL     OW12376   4.330   0.439   1.209  0.0436  0.4401 -0.1746
 4019SOL    HW112377   4.317   0.344   1.180  0.3794  0.0617  0.8632
 4019SOL    HW212378   4.421   0.470   1.183 -1.1243  1.5600 -3.3302
 4020SOL     OW12379   3.837   0.828   3.305 -0.0324 -0.1467 -0.1050
 4020SOL    HW112380   3.841   0.873   3.216  2.1548 -2.4597 -1.3014
 4020SOL    HW212381   3.868   0.733   3.296 -1.0188 -0.8783  2.9150
 4021SOL     OW12382   4.984   0.091   2.543 -0.3131 -0.1086  0.3943
 4021SOL    HW112383   5.059   0.109   2.607  1.5615 -1.1486 -1.3972
 4021SOL    HW212384   4.921   0.169   2.542  0.5672  0.6875  2.1383
 4022SOL     OW12385   3.214   1.842   1.710 -0.2411 -0.0217 -0.0808
 4022SOL    HW112386   3.296   1.853   1.654 -0.6454 -2.1756 -1.2041
 4022SOL    HW212387   3.221   1.758   1.763 -1.6201 -0.1271 -0.0284
 4023SOL     OW12388   5.170   1.773   3.847 -0.1389  0.4008  0.7781
 4023SOL    HW112389   5.170   1.696   3.784  1.6156  0.7272  0.3238
 4023SOL    HW212390   5.263   1.788   3.881 -0.5748  1.8796  1.4051
 4024SOL     OW12391   3.616   1.049   2.427  0.2998 -0.0230 -0.4087
 4024SOL    HW112392   3.670   1.015   2.350  0.3616  1.0546 -0.8604
 4024SOL    HW212393   3.538   1.101   2.393  0.0802  0.1001  0.2585
 4025SOL     OW12394   4.072   1.106   3.714 -0.5143 -0.3726 -0.1658
 4025SOL    HW112395   4.001   1.080   3.779 -0.5878 -0.2741 -0.2066
 4025SOL    HW212396   4.049   1.194   3.673 -0.7482 -0.7017 -0.7435
 4026SOL     OW12397   4.421   2.015   2.958 -0.0519  0.2509  0.6581
 4026SOL    HW112398   4.345   2.080   2.960  1.4420  2.0827  0.1419
 4026SOL    HW212399   4.463   2.009   3.049 -1.3828 -1.5639  1.2237
 4027SOL     OW12400   5.206   1.546   2.861 -0.4358  1.0192  0.1773
 4027SOL    HW112401   5.295   1.542   2.816 -0.0390 -0.7159  1.0118
 4027SOL    HW212402   5.216   1.519   2.957 -2.0399 -0.7234 -0.0701
 4028SOL     OW12403   5.097   0.290   3.186  0.4636  0.3530  0.5879
 4028SOL    HW112404   5.059   0.198   3.187 -0.5722  0.7167 -0.8677
 4028SOL    HW212405   5.047   0.347   3.251  1.9449 -0.3570  2.4557
 4029SOL     OW12406   4.826   0.631   3.645 -0.8792  0.4199 -0.3038
 4029SOL    HW112407   4.805   0.549   3.591  1.0415  1.0747 -2.1799
 4029SOL    HW212408   4.799   0.713   3.594 -1.3760  1.0401  0.8967
 4030SOL     OW12409   4.239   5.501   4.015  0.2657  0.2560 -0.4369
 4030SOL    HW112410   4.197   5.588   3.990 -0.7438  0.0974  0.6434
 4030SOL    HW212411   4.303   5.515   4.090 -0.8755 -0.1195  0.6248
 4031SOL     OW12412   0.723   1.871   3.816  0.7848 -0.1990  0.1524
 4031SOL    HW112413   0.725   1.774   3.840 -0.6737 -0.2758  0.0928
 4031SOL    HW212414   0.731   1.881   3.717 -0.6227 -0.3980 -0.0125
 4032SOL     OW12415   3.768   5.255   3.724  0.1539 -0.0668  0.4104
 4032SOL    HW112416   3.746   5.161   3.750  2.6509 -1.0750 -0.8606
 4032SOL    HW212417   3.750   5.267   3.626 -0.3475  0.8711  0.6062
 4033SOL     OW12418   2.791   0.319   4.526 -0.4334 -0.5676  0.2829
 4033SOL    HW112419   2.887   0.347   4.525 -0.3351 -0.8433  1.0578
 4033SOL    HW212420   2.753   0.325   4.434 -0.7178  3.1232  0.4966
 4034SOL     OW12421   3.785   1.694   3.963  0.0809  0.1647  0.2849
 4034SOL    HW112422   3.801   1.596   3.949 -1.3580  0.0074 -0.3955
 4034SOL    HW212423   3.843   1.726   4.038  1.7380 -0.8477 -0.4883
 4035SOL     OW12424   4.852   2.581   2.481  0.5407 -0.1280  0.5870
 4035SOL    HW112425   4.901   2.666   2.501  0.8706 -0.2429  0.2774
 4035SOL    HW212426   4.901   2.503   2.519  1.1091 -0.3367 -0.5153
 4036SOL     OW12427   0.061   2.036   2.983  0.0451 -0.5219  0.3751
 4036SOL    HW112428   0.153   2.003   3.007  0.8749  0.5901 -1.1266
 4036SOL    HW212429  -0.005   2.002   3.050  1.4550 -1.8362  1.1528
 4037SOL     OW12430   3.991   2.442   2.968  0.4578 -0.0049 -0.2149
 4037SOL    HW112431   4.061   2.376   2.942  0.1890 -0.4580  0.1965
 4037SOL    HW212432   3.911   2.431   2.910  0.7529  0.5742 -0.7454
 4038SOL     OW12433   0.390   2.582   1.292 -0.2156  0.6396 -0.0730
 4038SOL    HW112434   0.336   2.664   1.306  0.8678  1.2481  0.7328
 4038SOL    HW212435   0.340   2.502   1.326 -1.0072  1.0374 -0.2826
 4039SOL     OW12436   4.985   0.056   3.189 -0.4545 -0.1835 -0.3911
 4039SOL    HW112437   5.011  -0.019   3.249 -1.2665 -0.2855 -0.1522
 4039SOL    HW212438   4.955   0.020   3.100 -1.6726 -0.2263  0.0147
 4040SOL     OW12439   0.593   0.716   3.838 -0.1601  0.4181  0.5197
 4040SOL    HW112440   0.535   0.656   3.782 -1.2092  0.1716  1.8287
 4040SOL    HW212441   0.555   0.809   3.835  1.2696  1.0044 -1.2311
 4041SOL     OW12442   0.533   2.928   2.791 -0.1033 -0.1233  0.5320
 4041SOL    HW112443   0.479   2.949   2.873 -2.7579 -0.7684 -0.9521
 4041SOL    HW212444   0.474   2.885   2.722  1.9994  0.5441 -1.8149
 4042SOL     OW12445   4.473   5.534   4.212 -0.2888  0.1359 -0.0431
 4042SOL    HW112446   4.531   5.457   4.237 -1.6685 -0.6138  0.9878
 4042SOL    HW212447   4.517   5.619   4.238 -0.3672 -0.4903  2.3466
 4043SOL     OW12448   4.847   4.856   3.583  0.0472  0.0270 -0.9479
 4043SOL    HW112449   4.812   4.908   3.661 -0.0953 -1.8243  0.2870
 4043SOL    HW212450   4.946   4.869   3.577  0.2744 -0.8817  0.4224
 4044SOL     OW12451   3.095   4.816   2.791  0.2689 -0.5948 -0.4302
 4044SOL    HW112452   3.016   4.864   2.754 -0.3073 -1.4664 -0.3582
 4044SOL    HW212453   3.166   4.883   2.816 -0.3333  0.1737 -0.7248
 4045SOL     OW12454   5.019   1.816   1.956  0.1178  0.1236  0.0696
 4045SOL    HW112455   4.997   1.723   1.927  0.6029  0.1917 -0.5531
 4045SOL    HW212456   5.098   1.813   2.017 -1.2149 -0.0689  1.8551
 4046SOL     OW12457   3.270   0.385   4.681 -0.4561 -0.0785 -0.3140
 4046SOL    HW112458   3.248   0.370   4.777  0.2477 -0.4652 -0.2069
 4046SOL    HW212459   3.365   0.358   4.664 -0.5451  0.0811 -1.0944
 4047SOL     OW12460   4.376   0.664   2.955 -0.0501  0.0454 -0.0659
 4047SOL    HW112461   4.319   0.582   2.950 -1.2785  0.8928 -0.4503
 4047SOL    HW212462   4.317   0.745   2.959  1.1367  0.9142  0.3286
 4048SOL     OW12463   4.746   0.327   2.940  0.4366 -0.4428 -0.3715
 4048SOL    HW112464   4.846   0.328   2.933  0.5273  0.2748  0.8201
 4048SOL    HW212465   4.709   0.413   2.907  0.0924 -1.2073 -2.0641
 4049SOL     OW12466   3.468   0.133   2.403  0.4319  0.9846 -0.2838
 4049SOL    HW112467   3.440   0.126   2.499  1.4678  0.1922 -0.0173
 4049SOL    HW212468   3.447   0.048   2.356  2.9597  0.0246  0.1300
 4050SOL     OW12469   3.397   1.716   3.230  0.1614  0.0642  0.1619
 4050SOL    HW112470   3.469   1.729   3.163 -1.2221 -0.4444 -1.5068
 4050SOL    HW212471   3.379   1.802   3.277  1.1487  0.4373 -0.1276
 4051SOL     OW12472   3.183   2.865   3.511 -0.1626  0.4455  0.3419
 4051SOL    HW112473   3.176   2.898   3.605  0.7512  0.7280  0.3196
 4051SOL    HW212474   3.113   2.796   3.495 -0.5660  0.6609  1.1163
 4052SOL     OW12475   2.716   1.218   2.099 -0.6998 -0.0293 -0.4242
 4052SOL    HW112476   2.760   1.245   2.185  2.4807  0.0639 -1.9426
 4052SOL    HW212477   2.682   1.125   2.107 -0.2744 -0.0915  0.8683
 4053SOL     OW12478   5.500   1.464   3.141 -0.4410 -0.5562  0.3301
 4053SOL    HW112479   5.558   1.461   3.222 -0.7344 -0.9750  0.5342
 4053SOL    HW212480   5.537   1.528   3.074  0.5075 -1.1682  0.2608
 4054SOL     OW12481   3.582   0.707   3.356  0.3887 -0.4974 -0.3108
 4054SOL    HW112482   3.655   0.774   3.350  1.0608 -1.1813  0.0427
 4054SOL    HW212483   3.511   0.740   3.419  0.8277 -0.2298  0.0442
 4055SOL     OW12484   4.891   0.562   3.152 -0.2558 -0.2213  0.2525
 4055SOL    HW112485   4.792   0.578   3.151  0.0024  2.3038  2.4436
 4055SOL    HW212486   4.933   0.607   3.073 -0.7342 -0.1202  0.0526
 4056SOL     OW12487   3.207   1.416   2.391  0.7200  0.3750 -0.6971
 4056SOL    HW112488   3.175   1.444   2.482  1.4688 -1.2846  0.1233
 4056SOL    HW212489   3.276   1.481   2.359  1.5420  0.1991  0.6095
 4057SOL     OW12490   4.687   0.821   2.383 -0.6869 -0.1027 -0.4421
 4057SOL    HW112491   4.651   0.905   2.423  2.1134  0.4244  1.2068
 4057SOL    HW212492   4.619   0.748   2.391 -2.3957  1.4788 -0.0429
 4058SOL     OW12493   1.068   1.060   3.691  0.4431 -0.0760  0.0712
 4058SOL    HW112494   1.075   1.078   3.789  1.4342 -0.9461  0.1792
 4058SOL    HW212495   0.973   1.043   3.666  0.1260  0.5776  0.7901
 4059SOL     OW12496   4.291   1.837   2.195  0.4855  0.3806  0.2413
 4059SOL    HW112497   4.357   1.896   2.242  0.1336 -0.2798  1.6080
 4059SOL    HW212498   4.217   1.893   2.158 -0.7225  0.7178  2.9640
 4060SOL     OW12499   2.905   1.843   3.662  0.6132  0.0367  0.0190
 4060SOL    HW112500   2.932   1.939   3.663 -0.0447  0.2231 -0.0971
 4060SOL    HW212501   2.985   1.786   3.641  1.0898  0.5248  0.4808
 4061SOL     OW12502   3.844   1.685   3.471  0.2787  0.0412  0.0221
 4061SOL    HW112503   3.751   1.663   3.501 -0.0257 -1.8442 -2.0625
 4061SOL    HW212504   3.844   1.701   3.372  2.0067  1.1600  0.1592
 4062SOL     OW12505   4.737   0.305   2.088 -0.2941  0.1093 -0.1600
 4062SOL    HW112506   4.825   0.278   2.050 -0.9042 -0.5930 -1.1191
 4062SOL    HW212507   4.695   0.228   2.136  0.0926  0.7530  1.2489
 4063SOL     OW12508   2.578   0.097   0.981 -0.4908  0.1876 -0.1768
 4063SOL    HW112509   2.585   0.001   1.007 -0.0593  0.1334 -0.4736
 4063SOL    HW212510   2.640   0.115   0.904  2.5660  1.6011  2.3952
 4064SOL     OW12511   4.206   1.631   1.949  0.3794  0.7269 -0.5327
 4064SOL    HW112512   4.131   1.566   1.961  0.5585  0.2044 -2.0279
 4064SOL    HW212513   4.273   1.620   2.023  0.2703 -0.5916 -0.6217
 4065SOL     OW12514   0.566   1.732   5.390 -0.3460  0.4093 -0.5487
 4065SOL    HW112515   0.543   1.653   5.446 -2.0095  0.7396 -0.6857
 4065SOL    HW212516   0.617   1.703   5.309  2.0488 -0.0727  1.0455
 4066SOL     OW12517   0.355   1.200   2.644 -0.7761 -0.3504 -0.0614
 4066SOL    HW112518   0.398   1.113   2.671 -1.9599 -1.3381 -1.2236
 4066SOL    HW212519   0.370   1.268   2.716 -2.1512 -2.2978  2.2268
 4067SOL     OW12520   2.842   2.154   2.294  0.1448  0.4818  0.4809
 4067SOL    HW112521   2.921   2.174   2.351  0.7537 -1.6632  0.4865
 4067SOL    HW212522   2.760   2.146   2.351 -0.0187  2.2199  0.5326
 4068SOL     OW12523   4.973   0.632   3.860  0.1192 -0.5685  0.6277
 4068SOL    HW112524   5.058   0.603   3.815  0.0732  0.9232 -0.5480
 4068SOL    HW212525   4.900   0.638   3.792  0.4296  3.3219  0.3661
 4069SOL     OW12526   4.815   2.346   4.494 -0.3445 -0.2447  0.5176
 4069SOL    HW112527   4.828   2.445   4.483 -2.7421 -0.0578 -1.6640
 4069SOL    HW212528   4.748   2.329   4.566 -1.8988 -0.0469 -0.8179
 4070SOL     OW12529   4.684   0.856   2.104  0.7082  0.0550 -0.1234
 4070SOL    HW112530   4.690   0.762   2.069  0.9178 -0.1973  0.5803
 4070SOL    HW212531   4.672   0.854   2.203 -1.8500  0.7242 -0.3434
 4071SOL     OW12532   5.425   2.245   1.120  0.5724 -0.0264  0.1135
 4071SOL    HW112533   5.510   2.198   1.145  0.7089  0.7805  1.2175
 4071SOL    HW212534   5.413   2.326   1.178 -1.2665 -0.4601  0.3874
 4072SOL     OW12535   4.849   4.113   4.338 -0.3950 -0.0805  0.0151
 4072SOL    HW112536   4.875   4.143   4.246 -0.7867 -0.3969 -0.1990
 4072SOL    HW212537   4.802   4.188   4.385 -0.5902 -0.0688 -0.2011
 4073SOL     OW12538   3.585   0.393   3.620  0.8139 -0.0732 -0.1583
 4073SOL    HW112539   3.549   0.463   3.683  1.3196  0.4048 -0.3975
 4073SOL    HW212540   3.619   0.437   3.537  2.2613 -0.4768  0.1945
 4074SOL     OW12541   3.819   1.101   3.536 -0.1442 -0.0560  0.2993
 4074SOL    HW112542   3.906   1.141   3.563 -0.2881  0.1625  0.4463
 4074SOL    HW212543   3.823   1.073   3.440  0.5656 -1.3610  0.6847
 4075SOL     OW12544   5.468   1.961   1.200 -0.1371  0.0238 -0.2953
 4075SOL    HW112545   5.490   1.874   1.158  0.4070  0.4203 -0.8490
 4075SOL    HW212546   5.514   2.035   1.151 -0.9168  0.6660 -0.0930
 4076SOL     OW12547   1.752   3.180   1.878 -1.1198 -0.7057 -0.0602
 4076SOL    HW112548   1.791   3.259   1.831  0.9712  0.0789  2.7429
 4076SOL    HW212549   1.787   3.096   1.836 -0.1917 -0.0676 -0.6143
 4077SOL     OW12550   5.229   0.553   3.743  0.1597 -0.5100  0.1175
 4077SOL    HW112551   5.265   0.639   3.780 -0.8219 -0.4468  0.9958
 4077SOL    HW212552   5.235   0.482   3.813  0.1221 -0.9234 -0.2931
 4078SOL     OW12553   3.936   1.418   4.585  0.1849 -0.1995  0.3766
 4078SOL    HW112554   3.916   1.342   4.523  0.5200  0.5051 -0.6169
 4078SOL    HW212555   3.851   1.465   4.608  0.2355  0.6995 -1.1090
 4079SOL     OW12556   4.853   2.523   1.728 -0.3487 -0.1601 -0.5312
 4079SOL    HW112557   4.877   2.467   1.649  3.3291 -0.3432  0.5138
 4079SOL    HW212558   4.886   2.617   1.714 -0.2205 -0.0331  0.4949
 4080SOL     OW12559   5.248   2.809   3.573  0.3085 -0.0219  0.0523
 4080SOL    HW112560   5.189   2.864   3.632 -1.3740 -0.4222 -1.1806
 4080SOL    HW212561   5.282   2.730   3.624 -2.2169 -1.1088  0.1694
 4081SOL     OW12562   4.516   0.620   0.852  0.2619 -0.0231 -0.5269
 4081SOL    HW112563   4.419   0.611   0.829  0.5407  0.3011 -1.8956
 4081SOL    HW212564   4.534   0.572   0.938 -0.9708 -0.6634 -0.6005
 4082SOL     OW12565   0.689   0.454   1.733 -0.1122  0.1315  1.0036
 4082SOL    HW112566   0.628   0.465   1.655  0.1407  0.1658  0.8090
 4082SOL    HW212567   0.744   0.537   1.745 -0.2393  0.1748  1.2963
 4083SOL     OW12568   4.280   0.482   4.939 -0.0220 -0.1268  0.4922
 4083SOL    HW112569   4.361   0.455   4.888  0.9000  1.4432  1.0614
 4083SOL    HW212570   4.211   0.409   4.935  2.4591 -2.7781  2.3166
 4084SOL     OW12571   5.147   2.582   2.058  0.1796 -0.7589 -0.0971
 4084SOL    HW112572   5.058   2.535   2.050 -1.1820  1.1615  2.4013
 4084SOL    HW212573   5.204   2.534   2.125  0.6544 -1.4077 -0.9476
 4085SOL     OW12574   5.518   1.827   0.863  0.4221  0.4674 -0.2773
 4085SOL    HW112575   5.432   1.863   0.825 -1.5361 -1.8037  1.6504
 4085SOL    HW212576   5.497   1.750   0.924  3.7090  1.2012  1.9746
 4086SOL     OW12577   5.174   0.473   4.454  0.2528  0.0577  0.2112
 4086SOL    HW112578   5.217   0.409   4.518 -1.5008 -1.9600 -0.5397
 4086SOL    HW212579   5.076   0.479   4.472 -0.0844  0.3897 -1.5088
 4087SOL     OW12580   3.467   0.133   3.569  0.4091  0.1187 -0.2157
 4087SOL    HW112581   3.367   0.125   3.575  0.5442 -0.8640  1.1984
 4087SOL    HW212582   3.497   0.218   3.612  0.2281  0.1229 -0.0985
 4088SOL     OW12583   4.353   1.632   2.634  0.1255 -0.3247  0.0012
 4088SOL    HW112584   4.266   1.582   2.633  0.5942 -1.1407 -1.1594
 4088SOL    HW212585   4.428   1.570   2.613  0.8586  0.6342 -0.2890
 4089SOL     OW12586   1.817   0.926   2.034  0.2750  0.1334  0.2871
 4089SOL    HW112587   1.842   0.857   1.966  2.0508 -1.4759  2.4201
 4089SOL    HW212588   1.741   0.981   2.000  1.4077 -0.2387 -3.1495
 4090SOL     OW12589   3.857   0.818   4.953  0.4832  0.0146 -0.7880
 4090SOL    HW112590   3.810   0.795   5.039 -0.2299  0.2936 -1.0930
 4090SOL    HW212591   3.944   0.770   4.949  0.0169 -0.8910 -0.4169
 4091SOL     OW12592   2.225   5.234   3.353  0.3236  0.1043  0.3360
 4091SOL    HW112593   2.218   5.135   3.361 -0.1037  0.0393 -0.7601
 4091SOL    HW212594   2.202   5.276   3.442 -2.7274 -0.6545  0.0010
 4092SOL     OW12595   4.164   2.056   2.040  0.0238 -0.1702 -0.0664
 4092SOL    HW112596   4.077   2.039   2.086  0.2735 -0.2571  0.3814
 4092SOL    HW212597   4.204   2.141   2.075 -0.0284  0.0392 -0.5018
 4093SOL     OW12598   0.718   1.955   3.560 -0.1870  0.2909 -0.0167
 4093SOL    HW112599   0.633   1.945   3.508 -0.2952 -1.4875  0.4134
 4093SOL    HW212600   0.742   2.051   3.568 -1.1286  0.7101 -1.7938
 4094SOL     OW12601   3.437   1.559   1.982  0.4052 -0.8750  0.2943
 4094SOL    HW112602   3.456   1.643   1.932  0.3510 -1.8331 -1.4121
 4094SOL    HW212603   3.504   1.548   2.056  0.5767  0.5065  0.3630
 4095SOL     OW12604   3.491   2.034   2.673  0.3853  0.0184 -0.2848
 4095SOL    HW112605   3.443   2.114   2.707  2.5540  1.5368 -0.5858
 4095SOL    HW212606   3.562   2.062   2.608  1.0667 -2.1796 -0.5937
 4096SOL     OW12607   4.785   2.509   3.767 -0.4426 -0.0809 -0.2748
 4096SOL    HW112608   4.794   2.412   3.789 -0.5944  0.4211  2.2592
 4096SOL    HW212609   4.693   2.540   3.789 -0.1435  0.8327 -0.2635
 4097SOL     OW12610   0.427   2.522   2.563 -0.0787  0.3065  0.5505
 4097SOL    HW112611   0.472   2.441   2.602 -0.9471 -0.3703  0.1817
 4097SOL    HW212612   0.352   2.551   2.623  1.5576  2.1998  1.8186
 4098SOL     OW12613   0.071   1.676   3.004 -0.0618  0.5140 -0.1831
 4098SOL    HW112614   0.159   1.723   2.994  0.3719 -0.4126 -0.9154
 4098SOL    HW212615   0.028   1.668   2.914 -0.7830  0.7261  0.1362
 4099SOL     OW12616   4.647   1.723   3.836  0.0265 -0.2103 -0.2623
 4099SOL    HW112617   4.627   1.720   3.934  0.4319  1.9295 -0.0543
 4099SOL    HW212618   4.637   1.817   3.803  1.3595 -0.6042 -1.9638
 4100SOL     OW12619   3.660   1.293   4.201  0.1215 -0.3252  0.0159
 4100SOL    HW112620   3.653   1.194   4.191 -0.4725 -0.2934  0.0858
 4100SOL    HW212621   3.583   1.337   4.155  0.2307  0.0934  0.2203
 4101SOL     OW12622   0.480   1.792   1.898 -0.4550  0.2921  0.6089
 4101SOL    HW112623   0.457   1.865   1.834 -0.8701  0.7489  1.2646
 4101SOL    HW212624   0.545   1.729   1.856  0.5662  1.5147  0.3319
 4102SOL     OW12625   3.829   0.321   2.483 -0.3340  0.1003  0.2870
 4102SOL    HW112626   3.762   0.322   2.556 -0.5663 -1.8962  0.1548
 4102SOL    HW212627   3.792   0.272   2.404  1.0982 -0.7154  0.0735
 4103SOL     OW12628   3.626   0.704   3.794 -0.1571 -0.4847 -0.3736
 4103SOL    HW112629   3.647   0.801   3.783  2.5026 -0.9743 -0.2157
 4103SOL    HW212630   3.662   0.672   3.882 -0.0838 -1.8286 -0.8660
 4104SOL     OW12631   4.161   1.867   1.837 -0.1257  0.9708 -0.0775
 4104SOL    HW112632   4.176   1.776   1.876 -3.9159  0.4159  0.4664
 4104SOL    HW212633   4.148   1.933   1.911 -1.1282  1.1772 -0.4259
 4105SOL     OW12634   4.334   0.553   4.231 -0.2831  0.2851  0.4523
 4105SOL    HW112635   4.380   0.468   4.205 -1.7808 -0.9559  1.6761
 4105SOL    HW212636   4.402   0.621   4.258  0.8871 -1.0929  1.0726
 4106SOL     OW12637   4.264   0.131   3.268 -0.6862  0.1690 -0.1250
 4106SOL    HW112638   4.254   0.227   3.241 -1.8113  0.3362  0.7797
 4106SOL    HW212639   4.174   0.093   3.290 -0.1146 -0.6770  0.8986
 4107SOL     OW12640   0.595   5.322   2.293  0.5034  0.3795  0.1583
 4107SOL    HW112641   0.586   5.351   2.198  0.6899 -2.5991 -0.8600
 4107SOL    HW212642   0.623   5.226   2.297  2.7115  0.9951  3.2587
 4108SOL     OW12643   3.831   0.245   1.222  0.5216  0.1549  0.4088
 4108SOL    HW112644   3.842   0.342   1.197  0.3584  0.9823  3.1592
 4108SOL    HW212645   3.736   0.217   1.210  0.3622  0.6449  0.5104
 4109SOL     OW12646   3.229   1.558   3.071  0.0253  0.2353  0.3481
 4109SOL    HW112647   3.273   1.495   3.008  0.4091  2.1668 -1.4531
 4109SOL    HW212648   3.299   1.605   3.125  0.1071  1.5898 -0.8408
 4110SOL     OW12649   3.596   1.514   2.202 -0.0304 -0.2387 -0.4254
 4110SOL    HW112650   3.644   1.602   2.199 -0.0514 -0.2074  0.1810
 4110SOL    HW212651   3.663   1.440   2.195  0.4033 -0.2583  2.7741
 4111SOL     OW12652   3.921   1.161   4.477  0.2148  0.3270  0.0279
 4111SOL    HW112653   4.012   1.125   4.498  1.1259  1.3873 -1.8827
 4111SOL    HW212654   3.851   1.098   4.513  1.6420 -0.0977  2.2302
 4112SOL     OW12655   3.102   1.436   2.649 -0.4468  0.3141  0.0005
 4112SOL    HW112656   3.056   1.358   2.607 -2.9851  0.5123  2.1971
 4112SOL    HW212657   3.072   1.520   2.606 -0.0388  0.2934 -0.3363
 4113SOL     OW12658   4.454   0.590   2.461 -0.1555 -0.3940  0.3391
 4113SOL    HW112659   4.525   0.531   2.424 -1.2834 -1.7961  0.3354
 4113SOL    HW212660   4.368   0.573   2.414 -0.4448  1.5589  0.0633
 4114SOL     OW12661   0.261   0.166   4.119 -0.4970 -0.3467 -0.6402
 4114SOL    HW112662   0.309   0.232   4.061 -0.8813 -0.1048 -0.6855
 4114SOL    HW212663   0.168   0.153   4.085 -1.3342  1.1493  0.9345
 4115SOL     OW12664   1.747   1.324   2.849  0.3920 -0.4590  0.3032
 4115SOL    HW112665   1.799   1.325   2.934 -1.9927 -2.2064  1.9206
 4115SOL    HW212666   1.700   1.412   2.836  0.2994 -0.3800  1.1381
 4116SOL     OW12667   0.063   0.635   3.695  0.2444  0.5730  0.1014
 4116SOL    HW112668   0.046   0.733   3.686  0.5191  0.5390 -0.8425
 4116SOL    HW212669   0.063   0.611   3.792  0.7138  1.6062  0.3747
 4117SOL     OW12670   2.732   0.957   3.410  0.0405 -0.7336  0.1612
 4117SOL    HW112671   2.750   0.884   3.344  3.3067 -0.2663  0.3715
 4117SOL    HW212672   2.742   0.920   3.503  0.0536 -0.3749  0.3021
 4118SOL     OW12673   4.880   0.933   1.689  0.1126  0.0590  0.4828
 4118SOL    HW112674   4.814   0.862   1.715  1.5335 -0.8762  1.6888
 4118SOL    HW212675   4.965   0.889   1.658  1.5148  1.1989  2.5364
 4119SOL     OW12676   3.614   1.833   3.111  0.3441  0.2598 -0.1834
 4119SOL    HW112677   3.665   1.836   3.025  1.4521  0.5832  0.4683
 4119SOL    HW212678   3.643   1.908   3.170 -1.8963  1.3262 -0.3186
 4120SOL     OW12679   4.439   5.144   4.047  0.1218  0.2783  0.2448
 4120SOL    HW112680   4.453   5.045   4.057 -0.1197  0.2205  0.0029
 4120SOL    HW212681   4.420   5.166   3.952 -1.1023  0.3986  0.5049
 4121SOL     OW12682   3.894   0.505   3.158 -0.0438  0.2935  0.3469
 4121SOL    HW112683   3.973   0.548   3.200 -0.4135 -0.1246  1.4977
 4121SOL    HW212684   3.816   0.510   3.220 -0.8815  0.5165 -0.6820
 4122SOL     OW12685   4.188   1.526   3.623 -0.3647  0.0439 -0.0024
 4122SOL    HW112686   4.171   1.623   3.606  2.3323  0.6250  0.2032
 4122SOL    HW212687   4.224   1.515   3.716  0.6989 -0.9612 -0.5177
 4123SOL     OW12688   2.677   5.353   2.614  0.0674 -0.5473  0.1796
 4123SOL    HW112689   2.737   5.425   2.650  0.6228  0.2976 -2.2768
 4123SOL    HW212690   2.631   5.307   2.690  0.6978  1.5175  1.9040
 4124SOL     OW12691   5.042   1.178   1.288  0.5185 -0.6372  0.7244
 4124SOL    HW112692   4.968   1.183   1.355  1.5022  0.1574  1.7888
 4124SOL    HW212693   5.038   1.257   1.227 -0.4483 -1.4207 -0.2737
 4125SOL     OW12694   3.302   4.623   1.384  0.0773 -0.5895 -0.2317
 4125SOL    HW112695   3.368   4.562   1.340  1.5526  1.5098 -1.0531
 4125SOL    HW212696   3.350   4.686   1.444 -1.4330 -0.2716  0.6944
 4126SOL     OW12697   4.484   5.336   1.813 -0.9289  0.8460 -0.2723
 4126SOL    HW112698   4.466   5.239   1.829 -1.0719  0.7216 -1.1180
 4126SOL    HW212699   4.480   5.354   1.714 -1.2468  1.7760 -0.0949
 4127SOL     OW12700   4.376   1.625   0.933 -0.2191  0.3278 -0.0618
 4127SOL    HW112701   4.393   1.642   0.836  0.1165 -1.8189 -0.4275
 4127SOL    HW212702   4.422   1.696   0.987 -0.2488  1.4546 -1.4364
 4128SOL     OW12703   3.507   2.469   3.028  0.2684 -0.0069 -0.0188
 4128SOL    HW112704   3.494   2.439   3.122  0.2741 -0.0232 -0.0231
 4128SOL    HW212705   3.570   2.546   3.026 -0.5505  0.6789  0.0894
 4129SOL     OW12706   2.477   5.180   1.859  0.3604 -0.2242 -0.1199
 4129SOL    HW112707   2.505   5.141   1.772 -1.0896 -1.2264 -0.1700
 4129SOL    HW212708   2.380   5.204   1.855  0.4001  0.2089  1.0517
 4130SOL     OW12709   4.094   4.786   3.093  0.1760 -0.5984 -0.1211
 4130SOL    HW112710   4.078   4.822   3.185  0.9866  1.1167 -0.6095
 4130SOL    HW212711   4.036   4.834   3.027 -0.0057 -1.4389 -0.5913
 4131SOL     OW12712   4.164   1.800   5.035  0.4123  0.0699 -0.3679
 4131SOL    HW112713   4.207   1.891   5.046  0.7530 -0.0291 -0.8312
 4131SOL    HW212714   4.155   1.757   5.125  0.4168  0.4894 -0.1616
 4132SOL     OW12715   4.485   2.443   3.116  0.3364 -0.0473 -0.5743
 4132SOL    HW112716   4.448   2.416   3.027  1.2816 -0.7894 -0.7510
 4132SOL    HW212717   4.551   2.375   3.147  1.8028  1.3827 -0.4179
 4133SOL     OW12718   4.567   1.703   4.143 -0.5136 -0.0453 -0.5766
 4133SOL    HW112719   4.551   1.624   4.202  0.0957  0.3797  0.1811
 4133SOL    HW212720   4.616   1.774   4.195 -0.0498  0.3787 -1.5702
 4134SOL     OW12721   1.256   5.153   3.926 -0.2592  0.4975 -0.1437
 4134SOL    HW112722   1.330   5.119   3.984 -0.3506  0.5206 -0.0135
 4134SOL    HW212723   1.294   5.187   3.841 -0.0427  1.1950  0.2294
 4135SOL     OW12724   0.344   2.161   4.180  0.1020  0.2479 -0.6464
 4135SOL    HW112725   0.317   2.069   4.150 -0.7206 -0.5235  2.0962
 4135SOL    HW212726   0.266   2.223   4.169 -0.7467 -0.4118  1.1861
 4136SOL     OW12727   0.034   4.433   1.277 -0.0495  0.6540  0.1098
 4136SOL    HW112728  -0.021   4.506   1.236 -0.5825  0.6582  0.8135
 4136SOL    HW212729   0.010   4.346   1.233 -0.3694  0.7080  0.1715
 4137SOL     OW12730   4.682   1.411   5.185  0.6810 -0.3090 -0.0654
 4137SOL    HW112731   4.588   1.414   5.221  0.4014  0.7674 -0.8268
 4137SOL    HW212732   4.688   1.341   5.114 -0.3126  1.3670 -1.9312
 4138SOL     OW12733   3.896   1.636   5.477  0.2447  1.0979 -0.0370
 4138SOL    HW112734   3.924   1.719   5.526  0.7545  1.1198 -0.3529
 4138SOL    HW212735   3.847   1.575   5.539 -0.0159  1.5778  0.2335
 4139SOL     OW12736   3.435   0.106   5.452  0.1126  0.7921  0.7327
 4139SOL    HW112737   3.496   0.028   5.469 -0.5323 -0.1028 -0.8645
 4139SOL    HW212738   3.363   0.108   5.521  0.3571  0.1890  1.0105
 4140SOL     OW12739   4.616   2.248   4.683 -0.4917  0.3382  0.1003
 4140SOL    HW112740   4.607   2.217   4.588 -1.0026  2.0016 -0.4274
 4140SOL    HW212741   4.578   2.179   4.744 -2.6632  0.3953 -1.0986
 4141SOL     OW12742   4.135   0.331   0.840  0.4629 -0.3975  0.1647
 4141SOL    HW112743   4.207   0.287   0.893  1.5775  0.2543 -0.7623
 4141SOL    HW212744   4.087   0.263   0.785 -2.3289 -1.5479  3.6248
 4142SOL     OW12745   4.779   0.888   4.889  0.2504  0.0947  0.2612
 4142SOL    HW112746   4.849   0.952   4.861  0.0596 -0.1514 -0.8108
 4142SOL    HW212747   4.712   0.877   4.816 -1.4360  1.0276  1.5950
 4143SOL     OW12748   4.118   0.201   5.387 -0.3047  0.4106 -0.3328
 4143SOL    HW112749   4.123   0.301   5.397 -0.9465  0.3214  1.1676
 4143SOL    HW212750   4.127   0.158   5.477  1.2966 -0.9743 -1.0911
 4144SOL     OW12751   5.149   1.893   0.186 -0.5481  0.1632 -0.3165
 4144SOL    HW112752   5.176   1.890   0.090 -0.1930  0.6590 -0.2405
 4144SOL    HW212753   5.049   1.897   0.193 -0.5501  0.8746 -0.6892
 4145SOL     OW12754   4.483   1.057   3.485  0.1587 -0.5000  0.0729
 4145SOL    HW112755   4.447   0.969   3.516 -2.8621  0.1548 -1.2854
 4145SOL    HW212756   4.428   1.131   3.523  1.4152  0.7206 -0.4109
 4146SOL     OW12757   2.919   1.716   4.440  0.5026 -0.6585  0.4409
 4146SOL    HW112758   2.899   1.650   4.368  1.8122 -1.3140  0.6472
 4146SOL    HW212759   2.855   1.792   4.434 -0.8890 -1.8260  0.0600
 4147SOL     OW12760   4.295   1.968   3.568  0.3596  0.0133  0.2541
 4147SOL    HW112761   4.211   1.948   3.618  0.6118 -0.6198  0.4314
 4147SOL    HW212762   4.299   1.912   3.485  0.3366  0.4576 -0.0527
 4148SOL     OW12763   4.293   4.691   4.333 -0.8630  0.2435  0.3541
 4148SOL    HW112764   4.292   4.745   4.417 -1.7719  2.3528 -0.9148
 4148SOL    HW212765   4.386   4.684   4.298 -0.6761  0.6711  0.7584
 4149SOL     OW12766   0.377   0.994   5.350  0.5499 -0.1621 -0.0289
 4149SOL    HW112767   0.289   0.978   5.306 -0.2790 -0.9193  1.7994
 4149SOL    HW212768   0.363   1.047   5.434  1.7712 -0.5808  0.4636
 4150SOL     OW12769   3.668   1.604   5.310  0.0945  0.1156 -0.0844
 4150SOL    HW112770   3.608   1.649   5.376  0.2661 -0.7632  0.6888
 4150SOL    HW212771   3.764   1.620   5.334  0.1621 -0.8837  0.3842
 4151SOL     OW12772   5.163   0.568   3.473  0.2394 -0.3535 -0.0600
 4151SOL    HW112773   5.167   0.533   3.567  0.7221 -1.8004 -0.5914
 4151SOL    HW212774   5.095   0.517   3.421 -0.0529  0.4666 -0.4916
 4152SOL     OW12775   3.327   1.140   4.059  0.0169  0.3159  0.0733
 4152SOL    HW112776   3.396   1.110   4.125 -0.0791  0.0839  0.0692
 4152SOL    HW212777   3.246   1.172   4.107  0.4181  1.3151  0.0995
 4153SOL     OW12778   0.743   1.337   3.930 -0.4219 -0.2369  0.1576
 4153SOL    HW112779   0.765   1.287   3.846  1.5506 -1.6889  1.4564
 4153SOL    HW212780   0.681   1.282   3.986  1.5056 -1.2118  1.4492
 4154SOL     OW12781   5.522   2.874   4.316  0.7567 -0.4630 -0.4719
 4154SOL    HW112782   5.453   2.918   4.258  0.7511 -0.2155 -0.2814
 4154SOL    HW212783   5.482   2.854   4.406  1.2796  0.8286  0.0758
 4155SOL     OW12784   0.162   0.448   4.757 -0.1867  0.0012  0.2395
 4155SOL    HW112785   0.091   0.472   4.823  1.0738 -2.1514  2.5614
 4155SOL    HW212786   0.237   0.401   4.804  0.8079 -1.6980 -2.7373
 4156SOL     OW12787   4.327   1.916   4.225  0.4430 -0.6521  0.6106
 4156SOL    HW112788   4.260   1.852   4.264 -2.6857  1.4786 -0.8522
 4156SOL    HW212789   4.347   1.890   4.131  1.3485 -0.9812  0.8809
 4157SOL     OW12790   5.035   1.070   5.303 -0.3307  0.0886  0.1071
 4157SOL    HW112791   5.007   1.061   5.398  0.7430 -0.8033  0.3659
 4157SOL    HW212792   5.131   1.045   5.294 -0.2387  0.7844 -1.1140
 4158SOL     OW12793   4.943   0.397   4.011 -0.7491 -0.0323  0.0618
 4158SOL    HW112794   5.016   0.365   4.071  0.0276 -1.0849 -1.3931
 4158SOL    HW212795   4.956   0.494   3.991  0.1477 -0.1720 -0.0530
 4159SOL     OW12796   4.558   1.236   1.532 -0.6899  0.9326 -0.1136
 4159SOL    HW112797   4.482   1.172   1.541  0.9619 -1.2850 -0.9310
 4159SOL    HW212798   4.585   1.269   1.622 -0.6047 -0.7921  0.5282
 4160SOL     OW12799   5.409   3.501   4.163  0.1273 -0.0189 -0.0871
 4160SOL    HW112800   5.330   3.534   4.111 -1.1462 -2.2953  0.2790
 4160SOL    HW212801   5.482   3.569   4.158 -1.1914  1.3820 -1.9191
 4161SOL     OW12802   4.878   2.468   0.132 -0.6433  0.1360  0.4090
 4161SOL    HW112803   4.840   2.487   0.041 -2.2060 -0.4667  0.9001
 4161SOL    HW212804   4.837   2.384   0.168  2.0288 -1.2052  0.5396
 4162SOL     OW12805   4.811   0.460   5.420  0.0248 -0.3537 -0.1534
 4162SOL    HW112806   4.868   0.442   5.500  0.5288 -2.1575 -0.8682
 4162SOL    HW212807   4.869   0.483   5.342 -0.4566  1.2461 -0.0812
 4163SOL     OW12808   0.218   1.904   4.439 -0.0550 -0.1074 -0.6373
 4163SOL    HW112809   0.288   1.975   4.453 -0.4211  0.0659  0.4225
 4163SOL    HW212810   0.128   1.943   4.455 -0.4424 -0.2401 -2.3757
 4164SOL     OW12811   5.211   1.015   3.899  0.1023  0.5299 -0.0913
 4164SOL    HW112812   5.128   1.068   3.915  0.9449  1.4483  1.4639
 4164SOL    HW212813   5.289   1.077   3.889  0.9288 -0.3717  0.6067
 4165SOL     OW12814   3.742   5.328   4.562 -0.0992 -0.0723  0.0678
 4165SOL    HW112815   3.782   5.418   4.581  3.1104 -1.0159 -1.5339
 4165SOL    HW212816   3.767   5.264   4.635 -0.1354 -0.2692 -0.0903
 4166SOL     OW12817   1.146   0.889   0.231  0.3197 -0.2575 -0.4415
 4166SOL    HW112818   1.050   0.869   0.247  0.9626 -2.5446  1.1472
 4166SOL    HW212819   1.162   0.901   0.133 -1.6631  1.0173 -0.6701
 4167SOL     OW12820   4.437   2.734   2.820 -0.0708  0.2025  0.6224
 4167SOL    HW112821   4.372   2.762   2.890  0.8533 -0.6383  1.8664
 4167SOL    HW212822   4.523   2.707   2.864  1.4517  2.1232 -1.0115
 4168SOL     OW12823   4.778   2.086   5.148  0.0666 -0.1393  0.0286
 4168SOL    HW112824   4.829   2.030   5.083  0.7447  0.2697  0.2035
 4168SOL    HW212825   4.772   2.037   5.236  1.6893  0.5334  0.5547
 4169SOL     OW12826   4.136   2.583   4.772 -0.3392  0.6002 -0.2925
 4169SOL    HW112827   4.069   2.586   4.698 -0.6770 -0.6852 -0.0789
 4169SOL    HW212828   4.149   2.674   4.810 -1.5418  0.9722 -0.7297
 4170SOL     OW12829   5.370   5.528   4.791  0.4426 -0.1688  0.3936
 4170SOL    HW112830   5.305   5.503   4.720  0.9165  0.2005 -0.1757
 4170SOL    HW212831   5.456   5.558   4.749  1.5671 -2.2016  1.1488
 4171SOL     OW12832   2.662   1.320   2.652 -0.8238  0.4746 -0.0905
 4171SOL    HW112833   2.681   1.316   2.750  2.1653  0.5209 -0.5803
 4171SOL    HW212834   2.610   1.239   2.625  4.0396 -3.3238  0.5832
 4172SOL     OW12835   4.319   2.508   3.308  0.1824  0.0018  0.0413
 4172SOL    HW112836   4.369   2.486   3.224 -0.7978 -0.8595 -0.3479
 4172SOL    HW212837   4.381   2.546   3.376  1.6142 -2.0375 -0.0254
 4173SOL     OW12838   3.488   5.078   0.869  0.4178  0.2682 -0.1778
 4173SOL    HW112839   3.495   5.107   0.774  0.8526 -0.2497 -0.3099
 4173SOL    HW212840   3.443   4.989   0.873  0.4806  0.2486  0.0963
 4174SOL     OW12841   3.299   0.803   0.562 -1.1580  0.2373 -0.0092
 4174SOL    HW112842   3.290   0.704   0.547  1.0354 -0.0519  0.2561
 4174SOL    HW212843   3.363   0.841   0.496  0.3560  0.8977  1.7427
 4175SOL     OW12844   5.321   5.210   4.890 -0.3904  0.0668 -0.4673
 4175SOL    HW112845   5.335   5.113   4.910 -1.2364 -0.2821 -1.4949
 4175SOL    HW212846   5.393   5.242   4.828  1.2088  0.7048  1.6025
 4176SOL     OW12847   0.096   0.183   3.700  0.0901  0.3023  0.2853
 4176SOL    HW112848   0.112   0.216   3.793 -1.4217  1.4395  0.1907
 4176SOL    HW212849   0.005   0.142   3.695  0.5717 -0.7248 -0.4663
 4177SOL     OW12850   2.751   1.957   4.491 -0.9503  0.6537 -0.5162
 4177SOL    HW112851   2.659   1.923   4.471 -0.7502  0.0294 -0.4221
 4177SOL    HW212852   2.765   2.045   4.446 -1.1974  0.2141 -1.4808
 4178SOL     OW12853   3.975   5.285   4.805  0.7145  0.3473  0.0229
 4178SOL    HW112854   4.048   5.276   4.873  0.4193  1.1585  0.4628
 4178SOL    HW212855   3.887   5.286   4.852  0.3903 -0.8697 -0.5242
 4179SOL     OW12856   3.782   2.370   4.817 -0.0171  0.2540  0.2448
 4179SOL    HW112857   3.791   2.407   4.724 -1.1915 -0.1050 -0.0284
 4179SOL    HW212858   3.803   2.441   4.884 -2.0317  1.4068 -0.2610
 4180SOL     OW12859   3.459   2.034   2.118  0.0847 -0.4863 -0.4525
 4180SOL    HW112860   3.467   2.120   2.169 -0.1005  0.7346 -2.3964
 4180SOL    HW212861   3.378   1.985   2.149  0.5608 -0.3072  1.1558
 4181SOL     OW12862   0.745   1.666   4.852 -0.2929  0.2583  0.3928
 4181SOL    HW112863   0.775   1.720   4.774 -0.9296  0.7055  0.4515
 4181SOL    HW212864   0.746   1.569   4.829 -2.4042  0.4774 -0.8643
 4182SOL     OW12865   0.512   2.254   0.243  0.5175 -0.2941  0.4746
 4182SOL    HW112866   0.491   2.215   0.333 -2.7823  0.3137  0.1005
 4182SOL    HW212867   0.552   2.184   0.185  0.9826 -1.2120  1.8549
 4183SOL     OW12868   4.375   1.150   4.789  0.8459 -0.2375 -0.0135
 4183SOL    HW112869   4.385   1.202   4.873  1.4483  0.7859 -0.7026
 4183SOL    HW212870   4.430   1.066   4.794 -0.6242 -1.1764  1.3457
 4184SOL     OW12871   5.373   4.955   4.952 -0.8304  0.6542  0.3092
 4184SOL    HW112872   5.345   4.860   4.942 -0.5572  0.7369 -1.6405
 4184SOL    HW212873   5.471   4.960   4.968 -0.5818  0.6385 -1.1202
 4185SOL     OW12874   4.088   1.658   5.257 -0.4324  0.0828  0.0501
 4185SOL    HW112875   4.025   1.654   5.335 -2.1709  0.8078 -1.2712
 4185SOL    HW212876   4.098   1.567   5.218 -0.5490 -0.0593  0.3489
 4186SOL     OW12877   5.462   3.239   2.622 -0.0402  0.1509  0.3189
 4186SOL    HW112878   5.465   3.168   2.551  0.4676  0.0861  0.4038
 4186SOL    HW212879   5.539   3.302   2.610 -0.5980  0.8081  0.1248
 4187SOL     OW12880   3.726   0.723   4.744 -0.2761 -0.6049 -0.5544
 4187SOL    HW112881   3.632   0.689   4.754 -1.1589  1.3745 -1.5983
 4187SOL    HW212882   3.758   0.757   4.832 -1.5993  1.1931 -0.7136
 4188SOL     OW12883   1.621   1.473   3.498  0.1851 -0.3480  0.2347
 4188SOL    HW112884   1.637   1.471   3.597 -1.5750 -1.1450  0.5342
 4188SOL    HW212885   1.624   1.380   3.462 -2.4796 -0.4856  0.1645
 4189SOL     OW12886   5.567   2.149   3.946 -0.0138 -0.1122 -0.1134
 4189SOL    HW112887   5.549   2.113   3.855  0.0721 -0.6600  0.0811
 4189SOL    HW212888   5.494   2.120   4.008  0.3642 -0.4515  0.1781
 4190SOL     OW12889   1.766   4.698   4.948 -0.0945 -0.1885 -0.1710
 4190SOL    HW112890   1.775   4.796   4.935 -0.1807 -0.3874 -1.9974
 4190SOL    HW212891   1.800   4.673   5.038  2.5823  1.1492 -0.7107
 4191SOL     OW12892   0.479   2.675   4.735 -0.2563  0.0726 -0.3686
 4191SOL    HW112893   0.435   2.617   4.804  0.6767  0.1808  0.3367
 4191SOL    HW212894   0.409   2.722   4.681 -1.0554 -1.7694 -1.0346
 4192SOL     OW12895   3.594   2.661   0.578 -0.4917  0.0546 -0.4965
 4192SOL    HW112896   3.627   2.746   0.538 -0.0262  1.3923  2.4800
 4192SOL    HW212897   3.672   2.604   0.604 -0.7842 -0.7887 -1.3948
 4193SOL     OW12898   2.656   2.118   4.889 -0.4879  0.2943 -0.1085
 4193SOL    HW112899   2.621   2.197   4.940  0.8961  0.1147  1.1614
 4193SOL    HW212900   2.756   2.120   4.889 -0.4431 -1.1232 -0.6340
 4194SOL     OW12901   1.303   4.561   0.764  0.2340 -0.2197  0.1557
 4194SOL    HW112902   1.399   4.563   0.736  0.3318 -0.8136  0.4269
 4194SOL    HW212903   1.267   4.469   0.750 -0.4803  0.1595 -0.5424
 4195SOL     OW12904   4.088   4.569   4.656  0.0260  0.0397  0.3961
 4195SOL    HW112905   4.035   4.588   4.573  1.1029 -0.0503 -0.3212
 4195SOL    HW212906   4.040   4.608   4.735  0.1232  2.1978 -0.5401
 4196SOL     OW12907   5.510   0.854   5.070  0.3033  0.5397  0.1523
 4196SOL    HW112908   5.438   0.797   5.111  0.4714 -1.3196 -1.9524
 4196SOL    HW212909   5.470   0.936   5.031 -0.5200  0.0966  0.0365
 4197SOL     OW12910   5.076   2.210   5.191 -0.5796  0.1276  0.4773
 4197SOL    HW112911   4.999   2.152   5.217 -0.0691  0.0826  1.9568
 4197SOL    HW212912   5.159   2.177   5.236 -0.1109  1.4892  0.6560
 4198SOL     OW12913   3.317   1.621   4.784 -0.1660 -0.1913 -0.7118
 4198SOL    HW112914   3.346   1.717   4.785 -0.9004  0.0377 -0.6702
 4198SOL    HW212915   3.296   1.593   4.691  0.8801 -0.5718 -0.8336
 4199SOL     OW12916   0.822   1.304   2.345  0.3284 -0.8042 -0.0436
 4199SOL    HW112917   0.789   1.397   2.328 -0.5486 -0.9457  0.8336
 4199SOL    HW212918   0.913   1.308   2.387  0.3527 -0.3435 -0.1404
 4200SOL     OW12919   5.408   5.512   3.675  0.1860  0.5359  0.6606
 4200SOL    HW112920   5.367   5.513   3.583  0.2753  1.2754  0.6194
 4200SOL    HW212921   5.482   5.445   3.678  1.1409  1.5187 -0.2452
 4201SOL     OW12922   0.251   0.314   4.348 -0.4292  0.2717 -0.3467
 4201SOL    HW112923   0.250   0.240   4.281 -2.4070 -0.8829  0.8382
 4201SOL    HW212924   0.336   0.366   4.340 -0.4063 -0.0535 -3.4184
 4202SOL     OW12925   0.842   1.862   4.686 -0.0140  0.5689 -0.0772
 4202SOL    HW112926   0.839   1.932   4.615 -0.3168 -0.0112 -0.6504
 4202SOL    HW212927   0.936   1.849   4.717  0.2734  0.1104 -1.1073
 4203SOL     OW12928   4.777   0.176   4.102 -0.1612  0.0646  0.1350
 4203SOL    HW112929   4.809   0.081   4.109  0.6732  0.4214  1.4915
 4203SOL    HW212930   4.833   0.225   4.036 -0.9767 -0.5140 -1.0251
 4204SOL     OW12931   5.469   2.079   3.697 -0.3863  0.3448  0.2895
 4204SOL    HW112932   5.510   2.011   3.637 -1.3139  0.7647 -0.8759
 4204SOL    HW212933   5.370   2.083   3.680 -0.3163  2.2256  0.0076
 4205SOL     OW12934   4.340   5.366   4.927  0.0967 -0.4668 -0.4334
 4205SOL    HW112935   4.394   5.436   4.880  0.2113 -0.7578 -0.7483
 4205SOL    HW212936   4.398   5.319   4.994  0.2011 -0.6829 -0.6704
 4206SOL     OW12937   4.375   2.468   4.490  0.3245 -0.1153 -0.3412
 4206SOL    HW112938   4.432   2.400   4.444 -0.8630 -1.7265  0.4877
 4206SOL    HW212939   4.296   2.423   4.532 -0.9776  1.8926 -0.4983
 4207SOL     OW12940   3.829   0.994   0.653 -0.0272 -0.0995 -0.9180
 4207SOL    HW112941   3.755   1.037   0.706  1.6948  1.2726  0.5084
 4207SOL    HW212942   3.891   0.948   0.716  0.7591 -0.5703 -2.0169
 4208SOL     OW12943   5.434   1.540   3.891  0.2377 -0.1311 -0.3862
 4208SOL    HW112944   5.424   1.562   3.794  0.4431  2.9209  0.1667
 4208SOL    HW212945   5.521   1.493   3.906  0.6445  0.2038 -1.5888
 4209SOL     OW12946   0.257   1.465   2.376 -0.2268 -0.3725 -0.2553
 4209SOL    HW112947   0.297   1.376   2.354  1.7843  0.2459  0.7184
 4209SOL    HW212948   0.258   1.480   2.475 -0.0285  0.9551 -0.4333
 4210SOL     OW12949   4.370   0.140   0.084 -0.3702  0.4673  0.0382
 4210SOL    HW112950   4.295   0.084   0.118 -0.8061  0.0937 -1.4944
 4210SOL    HW212951   4.344   0.237   0.088  0.0023  0.5361  1.7250
 4211SOL     OW12952   4.103   3.794   0.767  0.1505 -1.2663  0.3674
 4211SOL    HW112953   4.007   3.768   0.775 -0.4813  1.2972  1.9113
 4211SOL    HW212954   4.128   3.858   0.839  2.5591 -0.4645 -1.0311
 4212SOL     OW12955   5.511  -0.031   5.052  0.3591 -0.0724  0.1003
 4212SOL    HW112956   5.450   0.035   5.008  2.2220  0.6788 -1.5343
 4212SOL    HW212957   5.568   0.016   5.118 -0.0093 -0.5441  0.7623
 4213SOL     OW12958   4.771   2.147   2.679  0.1805 -0.7697  0.8055
 4213SOL    HW112959   4.677   2.112   2.672 -0.0921  0.0190  0.3922
 4213SOL    HW212960   4.769   2.247   2.680  1.1019 -0.7024 -0.6532
 4214SOL     OW12961   4.076   1.324   0.074 -0.2296  0.0931 -0.0080
 4214SOL    HW112962   3.993   1.359   0.119 -0.3466  0.5952 -0.5911
 4214SOL    HW212963   4.152   1.385   0.093 -0.3739  0.5417 -0.8140
 4215SOL     OW12964   4.877   1.108   4.769 -0.4126 -0.3182 -0.7391
 4215SOL    HW112965   4.785   1.145   4.755 -0.6458 -1.1373 -1.4772
 4215SOL    HW212966   4.944   1.167   4.724 -0.7750 -0.7389 -1.8747
 4216SOL     OW12967   0.710   5.049   3.837  0.6514  0.3234 -0.9405
 4216SOL    HW112968   0.646   5.054   3.761  0.3548 -1.9377 -0.8901
 4216SOL    HW212969   0.683   4.976   3.900  1.3128  1.6329  0.9594
 4217SOL     OW12970   2.684   0.573   4.148 -0.1607 -0.2213 -0.3689
 4217SOL    HW112971   2.616   0.598   4.216 -0.4279  3.1257 -1.6593
 4217SOL    HW212972   2.776   0.584   4.187 -0.3088 -0.3115  0.0141
 4218SOL     OW12973   0.407   4.934   4.335 -0.4821 -0.4826  0.5459
 4218SOL    HW112974   0.328   4.926   4.395 -0.6481 -0.4030  0.3383
 4218SOL    HW212975   0.417   4.850   4.281 -0.5992 -0.3779  0.3601
 4219SOL     OW12976   4.769   1.939   3.298  0.4683  0.2062  0.5588
 4219SOL    HW112977   4.769   1.894   3.387 -0.9094  0.7746  0.8653
 4219SOL    HW212978   4.675   1.956   3.269  0.9308  1.4631 -0.2772
 4220SOL     OW12979   5.327   1.118   4.310 -0.2378 -0.0295 -0.0742
 4220SOL    HW112980   5.302   1.037   4.257 -0.2082 -1.0761  1.4343
 4220SOL    HW212981   5.278   1.197   4.275 -0.0448 -0.6294 -1.7749
 4221SOL     OW12982   5.449   1.850   4.349 -0.8346  0.3055 -0.0289
 4221SOL    HW112983   5.489   1.778   4.292  0.0567 -0.2419  1.2169
 4221SOL    HW212984   5.362   1.819   4.387  0.5513 -1.1328  2.2860
 4222SOL     OW12985   3.900   2.833   0.456 -0.1708  0.5856  0.3398
 4222SOL    HW112986   3.937   2.836   0.363 -1.5463  0.4248 -0.2243
 4222SOL    HW212987   3.954   2.770   0.512  1.9811  2.2359  0.2718
 4223SOL     OW12988   4.893   2.838   0.428 -0.3904 -0.1573 -0.8636
 4223SOL    HW112989   4.804   2.874   0.403 -0.9715 -0.7250  0.2941
 4223SOL    HW212990   4.890   2.738   0.427  0.2927 -0.1806 -1.0234
 4224SOL     OW12991   5.321   1.682   5.262  0.2810  0.3145 -0.2924
 4224SOL    HW112992   5.288   1.593   5.292  0.8908 -0.2854 -1.3507
 4224SOL    HW212993   5.384   1.671   5.185  1.6450  1.5381  0.5842
 4225SOL     OW12994   5.365   2.402   5.220 -0.3233  0.1534  0.4245
 4225SOL    HW112995   5.454   2.444   5.236 -1.1158  1.7676  0.8385
 4225SOL    HW212996   5.345   2.337   5.294  0.4571 -0.1565  0.3753
 4226SOL     OW12997   3.898   1.859   5.176  0.2820  0.6144 -0.4491
 4226SOL    HW112998   3.959   1.780   5.174 -0.6395 -0.1697  0.9218
 4226SOL    HW212999   3.804   1.830   5.159  0.0300  1.5409 -0.7246
 4227SOL     OW13000   3.482   1.771   5.427  0.5197 -0.3661 -0.1051
 4227SOL    HW113001   3.541   1.844   5.461 -1.4559  2.3952 -2.1375
 4227SOL    HW213002   3.410   1.752   5.493 -0.7339  1.8254 -0.7392
 4228SOL     OW13003   3.170   3.419   4.260 -0.1637  0.5571  0.1048
 4228SOL    HW113004   3.267   3.394   4.267 -1.0543 -4.2317 -0.8065
 4228SOL    HW213005   3.146   3.431   4.163 -0.9964 -1.3755  0.0336
 4229SOL     OW13006   4.299   1.593   1.210 -0.0635  0.0069 -0.5947
 4229SOL    HW113007   4.377   1.543   1.247  0.1104 -0.1913 -1.2017
 4229SOL    HW213008   4.296   1.580   1.110 -1.5646 -0.9931 -0.4719
 4230SOL     OW13009   4.905   4.995   0.488  0.2567 -0.0793 -0.2474
 4230SOL    HW113010   4.911   4.895   0.494 -0.3931 -0.0907  0.3492
 4230SOL    HW213011   4.965   5.035   0.557  0.9450 -0.0393 -0.8549
 4231SOL     OW13012   4.490   2.138   5.524 -0.4828  0.6081 -0.4582
 4231SOL    HW113013   4.510   2.136   5.426 -0.7026 -0.4025 -0.4894
 4231SOL    HW213014   4.473   2.233   5.552  1.7672  1.1971 -0.9387
 4232SOL     OW13015   0.777   2.709   4.360  0.3668  0.1442  0.1003
 4232SOL    HW113016   0.690   2.676   4.397 -0.1852  2.1275  0.6823
 4232SOL    HW213017   0.761   2.756   4.274  0.9226  0.1289 -0.0158
 4233SOL     OW13018   4.312   0.360   0.575  0.7429  0.0573 -0.0743
 4233SOL    HW113019   4.327   0.328   0.668 -1.2494  0.3514  0.3929
 4233SOL    HW213020   4.305   0.460   0.575  0.5820  0.0479 -0.5205
 4234SOL     OW13021   3.880   2.291   2.603  0.1884  0.8094  0.3937
 4234SOL    HW113022   3.925   2.241   2.678  1.0934  2.1572  0.7805
 4234SOL    HW213023   3.939   2.365   2.573 -1.1024  1.6140 -0.2048
 4235SOL     OW13024   1.305   1.687   4.451 -0.3967  0.5108  0.3894
 4235SOL    HW113025   1.321   1.771   4.400 -2.9489  1.2761  0.6903
 4235SOL    HW213026   1.369   1.682   4.528  0.7606  1.3993 -0.4737
 4236SOL     OW13027   5.210   1.577   3.664  0.3094 -0.0368 -0.4647
 4236SOL    HW113028   5.175   1.484   3.657  1.6474 -0.4847 -1.8572
 4236SOL    HW213029   5.267   1.598   3.584 -0.6873  2.3151 -0.6565
 4237SOL     OW13030   4.561   0.486   4.806 -0.1898 -0.0457  0.1654
 4237SOL    HW113031   4.602   0.398   4.780  0.0269 -0.3471  1.4373
 4237SOL    HW213032   4.603   0.518   4.891 -1.3022  0.5680  0.5066
 4238SOL     OW13033   4.321   5.190   4.682  0.0480 -0.2432 -0.2945
 4238SOL    HW113034   4.342   5.208   4.778  0.9805 -1.1105 -0.3210
 4238SOL    HW213035   4.266   5.265   4.645  0.1362  0.3564  0.7642
 4239SOL     OW13036   5.044   3.342   0.948  0.5731  0.4373  0.5119
 4239SOL    HW113037   4.978   3.364   0.875  0.5625 -0.1215  0.3454
 4239SOL    HW213038   5.091   3.425   0.976  0.0074  0.7975  0.4238
 4240SOL     OW13039   3.624   0.268   0.446  0.4954  0.0021 -0.5616
 4240SOL    HW113040   3.656   0.279   0.540  1.2151 -0.9706 -0.6773
 4240SOL    HW213041   3.586   0.354   0.413  0.1271  0.3174  0.6592
 4241SOL     OW13042   4.441   0.998   0.123 -0.4901 -0.1904 -0.3043
 4241SOL    HW113043   4.510   0.950   0.069 -0.1723 -1.4709  1.1926
 4241SOL    HW213044   4.485   1.047   0.198 -1.0845  0.1190 -0.1516
 4242SOL     OW13045   3.611   1.650   3.608 -0.7887  0.6158  0.0798
 4242SOL    HW113046   3.534   1.586   3.611 -0.9848  0.6395 -2.5369
 4242SOL    HW213047   3.591   1.729   3.666 -2.3692  0.2211  0.1173
 4243SOL     OW13048   4.938   1.592   4.795  0.2932 -0.5012  0.1443
 4243SOL    HW113049   4.958   1.633   4.883  0.2109 -0.9294  0.3666
 4243SOL    HW213050   4.843   1.561   4.793  0.6983 -1.8288  0.4586
 4244SOL     OW13051   4.730   2.271   0.212 -0.0899  0.7559 -0.2148
 4244SOL    HW113052   4.735   2.244   0.308 -1.1479 -0.1728 -0.4045
 4244SOL    HW213053   4.757   2.195   0.154  0.3534  1.2517 -0.6751
 4245SOL     OW13054   2.330   0.603   5.179  0.4915 -0.1877 -0.3259
 4245SOL    HW113055   2.380   0.573   5.098  0.8340  1.6334 -0.8482
 4245SOL    HW213056   2.304   0.699   5.168  2.9821  1.0498  2.8303
 4246SOL     OW13057   4.952   4.363   0.678  0.4781 -0.0078  0.2985
 4246SOL    HW113058   4.860   4.348   0.643  0.3796 -0.3106  0.6767
 4246SOL    HW213059   5.001   4.428   0.619 -0.1883  0.6405  0.4579
 4247SOL     OW13060   4.409   1.356   3.513 -0.3363 -0.1829 -0.9185
 4247SOL    HW113061   4.492   1.383   3.562 -0.1879  1.3751 -1.9369
 4247SOL    HW213062   4.329   1.401   3.555 -0.3320  0.3305 -1.4364
 4248SOL     OW13063   4.869   0.588   1.732 -0.8360 -0.0376  0.0509
 4248SOL    HW113064   4.838   0.554   1.643  1.0496 -1.0885 -0.2671
 4248SOL    HW213065   4.808   0.554   1.804 -0.8006 -1.5359 -0.5858
 4249SOL     OW13066   2.474   0.280   4.552 -0.5138 -0.1373  0.0647
 4249SOL    HW113067   2.530   0.209   4.593  0.3997  0.3005 -0.4142
 4249SOL    HW213068   2.455   0.258   4.457  0.7380  0.7883 -0.4294
 4250SOL     OW13069   4.278   0.889   4.215  0.4851  0.0314  0.0715
 4250SOL    HW113070   4.304   0.873   4.119  0.7027 -1.5200  0.3691
 4250SOL    HW213071   4.331   0.829   4.274 -0.1160  0.5215  1.1264
 4251SOL     OW13072   3.846   2.347   3.917  0.0334 -0.0887 -0.2865
 4251SOL    HW113073   3.888   2.259   3.936  1.3086  0.1616 -1.7327
 4251SOL    HW213074   3.898   2.394   3.846 -0.8357  1.6788  0.1877
 4252SOL     OW13075   0.380   1.461   0.360  0.4923  0.3705 -0.2518
 4252SOL    HW113076   0.314   1.428   0.427  0.3408  3.2514  1.1595
 4252SOL    HW213077   0.447   1.520   0.405  1.9923  0.2849 -2.2398
 4253SOL     OW13078   2.252   4.939   1.542  0.0879  0.2103 -0.6192
 4253SOL    HW113079   2.165   4.892   1.525 -0.0169  0.7842 -1.7860
 4253SOL    HW213080   2.269   4.942   1.640 -0.2676 -1.5707 -0.4637
 4254SOL     OW13081   4.612   1.051   5.068 -0.1824  0.5106 -0.6500
 4254SOL    HW113082   4.519   1.024   5.094 -1.1898  2.3929 -2.0752
 4254SOL    HW213083   4.652   0.979   5.011 -0.9754 -0.0928 -0.4718
 4255SOL     OW13084   5.315   1.327   3.370 -0.3806 -0.5039  0.0088
 4255SOL    HW113085   5.328   1.253   3.304 -0.3649 -2.3316  1.9611
 4255SOL    HW213086   5.230   1.312   3.421  0.1837  0.2333  1.2099
 4256SOL     OW13087   5.222   1.101   2.991 -0.2760  0.7318  0.0272
 4256SOL    HW113088   5.229   1.135   2.898  0.5117 -0.2170 -0.2860
 4256SOL    HW213089   5.292   1.144   3.048 -1.8911  2.6699  0.6640
 4257SOL     OW13090   2.433   1.156   4.082  0.4127 -0.4526  0.1530
 4257SOL    HW113091   2.440   1.225   4.010 -0.2955  0.0939  0.5901
 4257SOL    HW213092   2.438   1.202   4.171  3.1301 -1.2723  0.5219
 4258SOL     OW13093   3.942   4.501   3.672  0.0803  0.4888  0.4724
 4258SOL    HW113094   3.884   4.580   3.655  0.6653  0.6012 -1.3074
 4258SOL    HW213095   3.905   4.447   3.747 -0.8408  1.9449  1.0996
 4259SOL     OW13096   0.645   0.379   4.237  0.1750 -0.1143  0.3365
 4259SOL    HW113097   0.638   0.287   4.276 -1.1747 -0.4302 -0.5948
 4259SOL    HW213098   0.741   0.401   4.222  0.4943 -1.8223 -0.4440
 4260SOL     OW13099   4.089   1.991   4.487  0.2776 -0.1852  0.8734
 4260SOL    HW113100   4.015   1.991   4.420  1.4663 -2.0945 -0.5009
 4260SOL    HW213101   4.070   1.922   4.557  1.4686 -1.8860 -0.3982
 4261SOL     OW13102   4.109   1.799   3.974 -0.5061  0.2452  0.6009
 4261SOL    HW113103   4.209   1.796   3.977 -0.5008 -1.7449 -0.1289
 4261SOL    HW213104   4.078   1.808   3.879 -1.0149 -0.7777  0.6546
 4262SOL     OW13105   5.020   3.005   4.615  0.3009 -0.0043 -0.3189
 4262SOL    HW113106   5.113   3.041   4.618  0.1734  0.6823 -2.4016
 4262SOL    HW213107   5.005   2.943   4.692  2.0604  0.8092  0.7513
 4263SOL     OW13108   4.097   0.877   3.492 -0.0857 -0.2535  0.4000
 4263SOL    HW113109   4.031   0.842   3.559  0.8631 -0.0398  1.4705
 4263SOL    HW213110   4.155   0.946   3.535  1.3911 -1.0330 -0.2714
 4264SOL     OW13111   3.585   0.491   5.184 -0.2824  0.1143 -0.2749
 4264SOL    HW113112   3.559   0.394   5.185 -2.0234  0.4985 -2.1642
 4264SOL    HW213113   3.575   0.529   5.276  0.2489 -1.4255  0.4553
 4265SOL     OW13114   4.364   3.919   5.163  0.6448 -0.4860  0.4858
 4265SOL    HW113115   4.447   3.883   5.208  0.4229 -0.9281  0.5480
 4265SOL    HW213116   4.390   3.988   5.096  1.0847 -0.7770  0.3504
 4266SOL     OW13117   5.469   1.650   5.030  0.0835  0.6376 -0.0136
 4266SOL    HW113118   5.465   1.582   4.957  1.7443  0.1317  0.3285
 4266SOL    HW213119   5.498   1.738   4.994  2.6290 -0.0227  0.2246
 4267SOL     OW13120   4.615   0.950   3.863 -0.0678  0.8216 -0.2275
 4267SOL    HW113121   4.537   1.011   3.849  0.3488  1.6886  1.1271
 4267SOL    HW213122   4.682   0.994   3.922  0.8609 -0.4336 -0.3135
 4268SOL     OW13123   4.049   5.475   0.845  0.3294  0.1807 -0.1366
 4268SOL    HW113124   4.038   5.553   0.908 -0.6430  0.9571 -1.2246
 4268SOL    HW213125   4.106   5.502   0.768 -0.0306 -0.1806 -0.5318
 4269SOL     OW13126   3.905   0.550   1.242 -0.2283 -0.0071  0.0337
 4269SOL    HW113127   3.822   0.585   1.199 -1.2920 -0.7284  1.3975
 4269SOL    HW213128   3.884   0.521   1.336  1.0781 -2.1784 -0.2720
 4270SOL     OW13129   0.563   4.770   0.037 -0.1384 -0.4465  0.6297
 4270SOL    HW113130   0.648   4.801   0.080  0.9495 -2.1864 -0.1392
 4270SOL    HW213131   0.509   4.849   0.008  1.7294  0.7135  0.1383
 4271SOL     OW13132   3.547   2.296   4.910 -0.0413  0.0863 -0.2405
 4271SOL    HW113133   3.489   2.345   4.846  0.9698  1.0174 -0.4827
 4271SOL    HW213134   3.643   2.306   4.882  0.3502 -0.2069  0.9419
 4272SOL     OW13135   3.355   0.911   4.621 -0.8130 -0.4339  0.1969
 4272SOL    HW113136   3.434   0.972   4.629 -2.1739  1.3124  0.8487
 4272SOL    HW213137   3.280   0.945   4.678 -1.1133 -3.6516  1.9552
 4273SOL     OW13138   2.271   5.492   0.833 -0.5987 -0.3708 -0.5855
 4273SOL    HW113139   2.355   5.446   0.805 -0.7080  0.0850 -1.7125
 4273SOL    HW213140   2.293   5.585   0.865 -0.6685 -0.2465 -0.8933
 4274SOL     OW13141   5.365   0.145   5.280  0.3074 -0.3742 -0.7912
 4274SOL    HW113142   5.431   0.154   5.355 -0.3904  1.4738 -0.3460
 4274SOL    HW213143   5.363   0.230   5.227 -1.0055 -0.7526 -1.3899
 4275SOL     OW13144   0.274   2.511   4.431  0.0169 -0.7553  0.4664
 4275SOL    HW113145   0.293   2.421   4.470 -0.1333 -0.7062  0.6613
 4275SOL    HW213146   0.200   2.503   4.364  0.5913 -0.9150 -0.1538
 4276SOL     OW13147   4.804   2.636   4.905 -0.2560  0.1041  0.5490
 4276SOL    HW113148   4.805   2.537   4.888  0.3986  0.0864  0.6590
 4276SOL    HW213149   4.715   2.663   4.941 -0.7651 -0.2941 -0.3725
 4277SOL     OW13150   3.771   0.739   5.198 -0.0788  0.0335  0.0202
 4277SOL    HW113151   3.719   0.671   5.249  1.0102 -0.1996  0.8360
 4277SOL    HW213152   3.789   0.819   5.256  1.3126 -0.3045  0.0910
 4278SOL     OW13153   0.828   0.885   3.238 -0.0910  0.3129 -0.0764
 4278SOL    HW113154   0.843   0.799   3.288  1.0294 -0.4700 -1.6838
 4278SOL    HW213155   0.731   0.895   3.216 -0.3510 -0.1155  0.8172
 4279SOL     OW13156   4.098   0.362   1.930 -0.4977 -0.4084  0.3570
 4279SOL    HW113157   4.135   0.445   1.888 -1.8272  0.1229  0.2072
 4279SOL    HW213158   3.999   0.368   1.935 -0.5078 -1.2907  1.8489
 4280SOL     OW13159   4.179   1.817   3.111 -0.6853 -0.0560  0.1290
 4280SOL    HW113160   4.102   1.833   3.049  0.1112 -1.4258 -1.2904
 4280SOL    HW213161   4.204   1.721   3.109 -0.4140 -0.0964  2.4040
 4281SOL     OW13162   0.319   1.828   5.133 -0.2417  0.1239 -0.0135
 4281SOL    HW113163   0.382   1.875   5.194 -0.8615  1.4394 -0.3412
 4281SOL    HW213164   0.263   1.895   5.085  0.6959 -0.7728 -2.5803
 4282SOL     OW13165   0.566   1.853   4.080 -0.4679 -0.4248  0.1482
 4282SOL    HW113166   0.608   1.855   3.989 -1.9025 -1.5372 -0.5724
 4282SOL    HW213167   0.475   1.894   4.075 -0.8456 -1.1513  0.9238
 4283SOL     OW13168   2.945   1.105   4.060 -0.3588 -0.7184  0.0604
 4283SOL    HW113169   3.011   1.155   4.116 -1.7197  0.8431  0.3536
 4283SOL    HW213170   2.886   1.051   4.119 -0.3497 -0.8602 -0.0608
 4284SOL     OW13171   4.708   0.541   5.007 -0.0739 -0.7066  0.9174
 4284SOL    HW113172   4.758   0.615   5.053 -2.2723  0.9157  0.8614
 4284SOL    HW213173   4.671   0.478   5.075 -2.4584  1.1291  1.4580
 4285SOL     OW13174   5.405   1.844   3.945 -0.7112  0.1098  0.0946
 4285SOL    HW113175   5.433   1.775   4.011  0.0946 -1.3693 -1.7142
 4285SOL    HW213176   5.470   1.845   3.869 -0.7317  2.8519  0.0135
 4286SOL     OW13177   4.382   5.445   4.486  0.5202 -0.4674  0.6495
 4286SOL    HW113178   4.386   5.467   4.388  1.7194  0.2273  0.8402
 4286SOL    HW213179   4.292   5.409   4.508  0.0123  0.0038 -0.5797
 4287SOL     OW13180   4.737   4.945   1.336 -0.0244 -0.9959  0.2138
 4287SOL    HW113181   4.734   4.851   1.371  0.1111 -0.9149  0.4487
 4287SOL    HW213182   4.645   4.984   1.338  0.1677 -0.5697  1.6718
 4288SOL     OW13183   4.232   2.315   2.945  0.0646  0.0081 -0.1180
 4288SOL    HW113184   4.238   2.283   3.040  1.3046  3.8657  1.3268
 4288SOL    HW213185   4.324   2.318   2.905 -0.2223  0.1610 -0.7793
 4289SOL     OW13186   4.042   0.279   4.230 -0.2908 -0.1696  0.2892
 4289SOL    HW113187   3.973   0.345   4.259  0.6049  1.0420 -0.2288
 4289SOL    HW213188   4.067   0.220   4.307 -2.1334 -0.8796  0.3898
 4290SOL     OW13189   0.871   1.702   2.589 -0.2921 -0.1807  0.0695
 4290SOL    HW113190   0.815   1.780   2.618 -1.5513 -0.6977 -0.8857
 4290SOL    HW213191   0.861   1.628   2.656 -0.2522 -0.0520  0.2200
 4291SOL     OW13192   4.956   0.899   2.291  0.3124  0.3321  0.1729
 4291SOL    HW113193   4.928   0.875   2.198  1.3071  1.6604 -0.5066
 4291SOL    HW213194   4.883   0.877   2.354  1.1613 -4.6995 -0.2253
 4292SOL     OW13195   0.193   1.110   1.936 -0.2699 -0.8762 -0.1055
 4292SOL    HW113196   0.164   1.152   2.022  0.5357  0.1027 -0.3037
 4292SOL    HW213197   0.138   1.146   1.861  0.6091  0.0471 -0.3135
 4293SOL     OW13198   4.780   1.249   5.464 -0.3755  0.0523  0.1864
 4293SOL    HW113199   4.842   1.312   5.416 -0.3980 -0.0694 -0.0051
 4293SOL    HW213200   4.827   1.162   5.479 -0.2481  0.2081  0.6992
 4294SOL     OW13201   4.438   0.861   4.835  0.3554  0.1267  0.2823
 4294SOL    HW113202   4.432   0.810   4.921  2.4123 -0.0255  0.3775
 4294SOL    HW213203   4.462   0.798   4.761 -3.0855 -0.0836 -0.8421
 4295SOL     OW13204   4.100   5.282   5.047 -0.0657 -0.1706  0.3780
 4295SOL    HW113205   4.197   5.295   5.026 -0.2315  1.4512  0.4474
 4295SOL    HW213206   4.087   5.287   5.146 -0.2253 -0.3365  0.3652
 4296SOL     OW13207   3.093   5.259   4.669 -0.0666  0.0665 -0.0165
 4296SOL    HW113208   3.093   5.175   4.722  3.3129 -0.4370 -0.5578
 4296SOL    HW213209   3.105   5.237   4.572 -1.3366  1.1419 -0.4500
 4297SOL     OW13210   5.371   4.608   1.192  0.0397  0.0600  0.1129
 4297SOL    HW113211   5.339   4.532   1.135  0.8145  1.3493 -2.1836
 4297SOL    HW213212   5.328   4.604   1.282  0.1051 -3.0979  0.0945
 4298SOL     OW13213   3.469   2.077   4.229  0.7136  0.4408  0.6557
 4298SOL    HW113214   3.484   2.145   4.301  1.3437 -0.4016  1.3361
 4298SOL    HW213215   3.372   2.055   4.224  0.7964 -0.3919  2.1010
 4299SOL     OW13216   5.231   0.719   0.540 -0.4051 -0.1774 -0.0264
 4299SOL    HW113217   5.293   0.769   0.480  0.1336 -1.1855 -0.3241
 4299SOL    HW213218   5.193   0.782   0.608  0.3395  0.6121 -0.3187
 4300SOL     OW13219   3.324   5.310   1.910 -0.0350  0.0819  0.6138
 4300SOL    HW113220   3.297   5.349   1.822  0.9347  1.6220  0.9663
 4300SOL    HW213221   3.244   5.305   1.970 -0.0940  2.3302  0.8183
 4301SOL     OW13222   4.225   1.165   4.050 -0.2606 -0.0871  0.4921
 4301SOL    HW113223   4.276   1.081   4.033 -2.3035 -1.0549 -1.5078
 4301SOL    HW213224   4.142   1.144   4.102 -0.5442  0.7689  0.4133
 4302SOL     OW13225   4.671   2.251   3.841 -0.0570 -0.3110 -0.0904
 4302SOL    HW113226   4.604   2.275   3.910 -1.5719 -0.5836 -1.4103
 4302SOL    HW213227   4.744   2.196   3.882 -1.0372 -0.6624  1.2277
 4303SOL     OW13228   3.133   0.497   0.075  0.2816 -0.1644  0.1483
 4303SOL    HW113229   3.157   0.540  -0.012  1.5087  1.5065  1.2516
 4303SOL    HW213230   3.036   0.513   0.095  0.3653  0.7714 -0.1915
 4304SOL     OW13231   4.936   5.297   5.116  0.0842  0.2086  0.1619
 4304SOL    HW113232   4.898   5.292   5.208  0.2960 -0.5471  0.2167
 4304SOL    HW213233   5.033   5.272   5.118  0.1352  0.3640 -0.2399
 4305SOL     OW13234   2.752   5.073   1.644  0.1500 -0.1654 -0.1211
 4305SOL    HW113235   2.671   5.087   1.588 -0.5056  1.4474  1.1453
 4305SOL    HW213236   2.725   5.034   1.732  1.1324 -2.4174 -0.7296
 4306SOL     OW13237   5.192   1.476   4.691 -0.2048 -0.1722  0.3420
 4306SOL    HW113238   5.115   1.509   4.744  0.1307  0.2537  0.5726
 4306SOL    HW213239   5.196   1.525   4.603  0.6815  0.9109  0.9582
 4307SOL     OW13240  -0.014   2.116   1.410  0.6779  0.0868  0.4011
 4307SOL    HW113241   0.082   2.102   1.435  0.2531 -1.3600  1.3768
 4307SOL    HW213242  -0.042   2.046   1.344  0.5453  1.1191 -0.6668
 4308SOL     OW13243   5.499   0.580   4.860  0.1998  0.5138  0.2042
 4308SOL    HW113244   5.477   0.610   4.953  0.4887  0.6230  0.2368
 4308SOL    HW213245   5.472   0.650   4.795  0.0963  0.4831  0.2139
 4309SOL     OW13246   2.588   1.850   4.972  0.4536  0.4602 -0.1135
 4309SOL    HW113247   2.582   1.943   4.934 -1.6792  0.5159  0.2698
 4309SOL    HW213248   2.639   1.854   5.058  0.2592  1.3041 -0.0215
 4310SOL     OW13249   4.746   5.166   4.618 -0.1133  0.2639  0.1607
 4310SOL    HW113250   4.710   5.141   4.708  0.1763 -1.1111 -0.0934
 4310SOL    HW213251   4.841   5.137   4.610  0.5137  2.1884  0.1237
 4311SOL     OW13252   4.230   1.386   2.804  0.2815 -0.6741  0.4454
 4311SOL    HW113253   4.159   1.348   2.864  0.3944 -1.0903  0.3200
 4311SOL    HW213254   4.320   1.352   2.833  0.3802 -0.5265  0.3125
 4312SOL     OW13255   4.930   1.289   4.298  0.0217 -0.2242 -0.2068
 4312SOL    HW113256   4.840   1.268   4.258  0.3877 -2.5942  0.0517
 4312SOL    HW213257   4.924   1.373   4.352 -2.4668 -1.1014  1.0589
 4313SOL     OW13258   4.302   0.463   0.198 -0.3272 -0.2270  0.1961
 4313SOL    HW113259   4.262   0.477   0.108 -0.7767 -1.5834  0.1632
 4313SOL    HW213260   4.274   0.374   0.234  1.1943 -0.4320  0.9606
 4314SOL     OW13261   5.179   1.365   4.263  0.0449 -0.3950  0.8625
 4314SOL    HW113262   5.085   1.334   4.276  0.6717 -2.8513  0.0492
 4314SOL    HW213263   5.215   1.397   4.350 -1.7410  1.3323  1.0401
 4315SOL     OW13264   0.353   2.248   3.620  0.2747 -0.1431  0.2328
 4315SOL    HW113265   0.370   2.220   3.715 -0.0037  0.4949  0.4791
 4315SOL    HW213266   0.418   2.202   3.560  2.5896  1.7995  1.0744
 4316SOL     OW13267   4.868   3.443   5.208 -0.5697  0.3866  0.3443
 4316SOL    HW113268   4.811   3.371   5.247  0.6901 -1.1751 -0.5685
 4316SOL    HW213269   4.964   3.427   5.232 -0.0071  0.5407 -1.5826
 4317SOL     OW13270   3.603   1.845   3.836  0.7406  0.2151  0.5288
 4317SOL    HW113271   3.670   1.788   3.884  2.8540  0.8375 -1.4790
 4317SOL    HW213272   3.598   1.935   3.881  0.9118  0.0141  0.9584
 4318SOL     OW13273   4.083   2.432   3.431  0.6106 -0.1732 -0.3236
 4318SOL    HW113274   3.998   2.479   3.407  0.1951  0.1855  1.6825
 4318SOL    HW213275   4.160   2.477   3.385 -0.0534  0.8558 -0.4580
 4319SOL     OW13276   1.592   2.231   0.007 -0.3523 -0.7440 -0.1546
 4319SOL    HW113277   1.639   2.164  -0.049  0.2003 -1.6079  1.2927
 4319SOL    HW213278   1.641   2.243   0.093 -1.0785  0.6746  0.0872
 4320SOL     OW13279   2.259   1.753   4.514  0.2425 -0.3059  0.4050
 4320SOL    HW113280   2.258   1.802   4.427  0.6762  1.7485  1.5037
 4320SOL    HW213281   2.166   1.749   4.551  0.3760  0.7495  0.8693
 4321SOL     OW13282   4.875   1.872   0.171  0.4706  0.2779  0.5760
 4321SOL    HW113283   4.796   1.817   0.143  1.4047 -0.9645  0.3116
 4321SOL    HW213284   4.879   1.955   0.115  0.0725 -0.2638 -0.2774
 4322SOL     OW13285   4.835   0.521   1.193  0.0802 -0.1888  0.5704
 4322SOL    HW113286   4.901   0.597   1.191  0.9451 -0.9325 -0.6699
 4322SOL    HW213287   4.881   0.437   1.165 -0.9828 -1.0881  1.4658
 4323SOL     OW13288   4.154   5.075   3.526 -0.1106  0.0663  0.2740
 4323SOL    HW113289   4.196   4.993   3.567 -2.2717 -1.7402 -0.9131
 4323SOL    HW213290   4.101   5.123   3.595  0.3011 -0.1318  0.7354
 4324SOL     OW13291   4.410   1.693   0.654  0.0077  0.0728  0.1061
 4324SOL    HW113292   4.489   1.753   0.652  1.0751 -1.2399  0.8309
 4324SOL    HW213293   4.406   1.639   0.570  1.0696 -1.2787  0.8910
 4325SOL     OW13294   5.339   5.211   5.490  0.4800  0.4482 -0.2702
 4325SOL    HW113295   5.424   5.230   5.441  0.1357 -2.4948 -2.3443
 4325SOL    HW213296   5.277   5.289   5.481  2.0833  1.7251 -0.7162
 4326SOL     OW13297   5.330   2.540   4.306 -0.0801  0.2070  0.3345
 4326SOL    HW113298   5.333   2.588   4.394 -1.0215 -0.1420  0.5652
 4326SOL    HW213299   5.343   2.442   4.322 -1.3070  0.0113  0.2110
 4327SOL     OW13300   4.747   4.653   0.590 -0.5382  0.2761  0.5784
 4327SOL    HW113301   4.844   4.676   0.595 -0.7793  1.3134  0.7380
 4327SOL    HW213302   4.736   4.554   0.580  0.5180  0.0993  1.1066
 4328SOL     OW13303   5.311   0.787   3.818 -0.3378  0.0349 -0.0780
 4328SOL    HW113304   5.263   0.865   3.858  0.2044  1.6492 -2.3594
 4328SOL    HW213305   5.408   0.807   3.812  0.2197 -1.9033  1.5787
 4329SOL     OW13306   4.400   1.279   4.264  0.1681 -0.1860 -0.4991
 4329SOL    HW113307   4.329   1.248   4.200  0.9050  0.1948 -1.5417
 4329SOL    HW213308   4.365   1.276   4.357 -1.6189  1.0337 -1.0724
 4330SOL     OW13309   3.896   3.460   0.149  0.2737 -0.4553  0.2906
 4330SOL    HW113310   3.906   3.535   0.084  0.5363 -1.3068 -0.6832
 4330SOL    HW213311   3.920   3.374   0.104 -2.1615 -1.4321  0.7002
 4331SOL     OW13312   3.708   0.335   4.033  0.0103 -0.0712 -0.3329
 4331SOL    HW113313   3.733   0.432   4.027  0.4012 -0.1059  0.5540
 4331SOL    HW213314   3.617   0.322   3.994 -0.2407  0.7383 -0.0410
 4332SOL     OW13315   4.767   1.243   0.214  0.1571 -0.3794  0.3712
 4332SOL    HW113316   4.674   1.224   0.245  0.1933  0.2068  0.8528
 4332SOL    HW213317   4.768   1.251   0.114 -0.6777  1.4642  0.4706
 4333SOL     OW13318   0.033   1.508   4.385 -0.3579  0.4592 -0.0761
 4333SOL    HW113319   0.073   1.545   4.468  0.2927  0.1695 -0.2554
 4333SOL    HW213320   0.069   1.416   4.368 -1.0657  0.2098 -0.2661
 4334SOL     OW13321   3.015   0.871   5.418 -0.6349  0.5713  0.0881
 4334SOL    HW113322   2.967   0.921   5.490  1.8143  1.6206  1.1061
 4334SOL    HW213323   3.049   0.935   5.349 -1.0056 -0.1830 -0.8207
 4335SOL     OW13324   5.397   2.075   4.145  0.2931  0.8592 -0.3497
 4335SOL    HW113325   5.300   2.058   4.126 -0.7138  1.5280  3.2658
 4335SOL    HW213326   5.433   1.998   4.198  2.4320 -0.3278 -3.3016
 4336SOL     OW13327   1.266   1.591   0.140 -0.0637  0.1833  1.1804
 4336SOL    HW113328   1.254   1.497   0.108 -0.3942  0.1904  1.2757
 4336SOL    HW213329   1.259   1.594   0.239  1.1632  0.1315  1.2826
 4337SOL     OW13330   3.423   4.518   4.607 -0.6054  0.3113  0.6829
 4337SOL    HW113331   3.419   4.432   4.658  0.1738  0.1487  0.4889
 4337SOL    HW213332   3.507   4.567   4.632 -0.4526  0.4503 -0.0898
 4338SOL     OW13333   4.721   1.863   1.477  0.3464  0.4041 -0.3520
 4338SOL    HW113334   4.659   1.787   1.458 -0.8950  1.3201 -0.0894
 4338SOL    HW213335   4.750   1.859   1.573  0.8510 -0.1259 -0.5213
 4339SOL     OW13336   1.021   4.534   5.201  0.0261 -0.2746 -0.1233
 4339SOL    HW113337   0.971   4.509   5.119 -1.1994  1.9718 -0.1512
 4339SOL    HW213338   1.119   4.522   5.186 -0.0880  0.9888 -2.2959
 4340SOL     OW13339  -0.008   4.780   0.411 -0.9893  0.3067  0.3273
 4340SOL    HW113340   0.036   4.730   0.485 -0.8294 -0.6709 -0.4048
 4340SOL    HW213341   0.060   4.803   0.341 -1.2179  0.8185  0.2664
 4341SOL     OW13342   3.357   3.195   0.051  0.6307  0.2561 -0.6353
 4341SOL    HW113343   3.434   3.176   0.112  0.6273 -0.0072 -0.7110
 4341SOL    HW213344   3.392   3.225  -0.038  0.6475  0.0984 -0.6822
 4342SOL     OW13345   5.133   1.759   1.176 -0.3504  0.0402  0.2896
 4342SOL    HW113346   5.162   1.854   1.183 -0.4352  0.1540 -0.7771
 4342SOL    HW213347   5.055   1.743   1.236 -0.2714  0.6167  0.5462
 4343SOL     OW13348   4.591   5.402   1.194 -0.7594  0.2400 -0.4180
 4343SOL    HW113349   4.680   5.357   1.190 -0.1406  1.4352 -0.6709
 4343SOL    HW213350   4.524   5.340   1.234  0.1542 -0.7259 -0.3385
 4344SOL     OW13351   3.401   1.426   2.899  0.1903 -0.3253 -0.2464
 4344SOL    HW113352   3.499   1.447   2.908  0.4286 -1.7316  0.7990
 4344SOL    HW213353   3.390   1.329   2.878 -0.9545  0.1815 -2.2155
 4345SOL     OW13354   4.476   3.259   1.023  0.1251 -0.2950  0.1318
 4345SOL    HW113355   4.400   3.261   0.958  0.9202  1.2034 -0.8101
 4345SOL    HW213356   4.533   3.341   1.010  1.9130 -1.3759  0.7876
 4346SOL     OW13357   4.370   3.792   2.399 -0.3692 -0.0740  0.1195
 4346SOL    HW113358   4.344   3.696   2.414 -0.4557  0.0277  0.6381
 4346SOL    HW213359   4.342   3.820   2.307  0.7468 -0.9123 -0.5112
 4347SOL     OW13360   3.225   3.409   5.432 -0.3167  0.2343  0.2537
 4347SOL    HW113361   3.214   3.404   5.531  0.3793  3.7797  0.6321
 4347SOL    HW213362   3.276   3.330   5.400  0.0010 -0.6786  2.7913
 4348SOL     OW13363   1.011   3.023   0.328  0.3270 -0.4432  0.3303
 4348SOL    HW113364   1.045   3.098   0.272  3.0052 -2.3534 -0.7759
 4348SOL    HW213365   1.051   3.028   0.419 -2.1937  1.3034  1.4748
 4349SOL     OW13366   2.386   1.647   0.363  0.1251  0.6331 -0.4966
 4349SOL    HW113367   2.465   1.587   0.375  0.3548  1.0743  0.2820
 4349SOL    HW213368   2.355   1.643   0.268  1.6549  1.1618 -1.0452
 4350SOL     OW13369   5.457   3.074   5.417  0.0761  0.2183 -0.1030
 4350SOL    HW113370   5.433   3.011   5.343  1.8709 -1.4458  0.6640
 4350SOL    HW213371   5.519   3.144   5.382 -1.8058  1.5565 -0.9233
 4351SOL     OW13372   0.929   4.049   0.250  0.3804 -0.6714 -0.2092
 4351SOL    HW113373   0.880   4.011   0.328  0.3390  1.2431  0.7378
 4351SOL    HW213374   1.023   4.069   0.276  0.8089 -1.4362 -1.1178
 4352SOL     OW13375   4.208   5.132   1.060 -0.9583  0.6271  0.3801
 4352SOL    HW113376   4.147   5.166   0.990 -0.7506  1.9890  0.8304
 4352SOL    HW213377   4.300   5.120   1.022 -0.8832  1.2110  0.3640
 4353SOL     OW13378   4.513   0.885   0.664 -0.2228  0.2504 -0.6696
 4353SOL    HW113379   4.500   0.854   0.569 -1.3845 -1.3409 -0.0454
 4353SOL    HW213380   4.516   0.805   0.724 -0.7218  1.2906  0.7795
 4354SOL     OW13381   3.149   2.766   1.051  0.7004  0.0353  0.0949
 4354SOL    HW113382   3.089   2.735   1.124  0.6769 -0.6032 -0.1921
 4354SOL    HW213383   3.207   2.841   1.084  0.6047 -0.1725  0.7276
 4355SOL     OW13384   3.397   3.441   0.354  0.0144 -0.1467 -0.3785
 4355SOL    HW113385   3.426   3.480   0.441 -0.5928  0.1004 -0.2844
 4355SOL    HW213386   3.478   3.419   0.299  0.3753  0.6858 -0.1895
 4356SOL     OW13387   3.829   4.015   2.402  0.1115 -0.1008 -0.1916
 4356SOL    HW113388   3.833   4.101   2.453  0.8976  0.0548 -0.4999
 4356SOL    HW213389   3.891   4.020   2.324  0.9347 -1.3194  0.3527
 4357SOL     OW13390   5.482   1.941   1.667 -0.0128 -0.5673  0.2062
 4357SOL    HW113391   5.550   1.925   1.596 -1.6641 -1.6433 -1.2070
 4357SOL    HW213392   5.489   1.869   1.736  0.8293 -0.1800  0.5355
 4358SOL     OW13393   4.702   1.644   2.375  0.5188  0.0643  0.2506
 4358SOL    HW113394   4.748   1.732   2.360 -2.1523  1.4119 -0.7343
 4358SOL    HW213395   4.701   1.592   2.289  0.7095 -0.2269  0.4233
 4359SOL     OW13396   0.437   4.014   4.220  0.0694 -0.1028 -0.2268
 4359SOL    HW113397   0.403   3.999   4.313 -0.3214 -0.4018 -0.4115
 4359SOL    HW213398   0.535   3.997   4.217  0.0555 -0.2556  0.0971
 4360SOL     OW13399   3.279   4.218   4.344  0.0908  0.0910 -0.2042
 4360SOL    HW113400   3.247   4.313   4.344 -0.3407 -0.0417 -1.0722
 4360SOL    HW213401   3.352   4.208   4.276  1.3629  0.1772  1.0994
 4361SOL     OW13402   1.177   2.560   5.202  0.1936  0.1962 -0.2848
 4361SOL    HW113403   1.136   2.626   5.139 -0.5310  1.2930  1.2640
 4361SOL    HW213404   1.265   2.594   5.233  0.2384 -0.0128 -0.1828
 4362SOL     OW13405   0.041   2.412   1.932  0.1759  0.4102 -0.3361
 4362SOL    HW113406   0.053   2.326   1.982  2.0370  0.9858  0.2852
 4362SOL    HW213407  -0.008   2.394   1.847 -0.4711 -1.0663  0.3097
 4363SOL     OW13408   4.853   2.109   3.133 -0.4541 -0.5661 -0.0902
 4363SOL    HW113409   4.784   2.180   3.149  0.0187 -0.4696  1.7705
 4363SOL    HW213410   4.836   2.032   3.194  0.0279 -1.3499 -0.9178
 4364SOL     OW13411   5.363   1.008  -0.024 -0.5151 -0.0003 -0.4521
 4364SOL    HW113412   5.392   1.102  -0.037  0.4571 -0.3580 -0.9843
 4364SOL    HW213413   5.324   0.997   0.067 -0.5089  0.8841 -0.3413
 4365SOL     OW13414   4.770   5.316   1.779 -0.1712 -0.4581  0.4808
 4365SOL    HW113415   4.768   5.305   1.879 -1.3064 -0.5531  0.4651
 4365SOL    HW213416   4.715   5.244   1.737 -0.5630  0.2033 -0.1475
 4366SOL     OW13417   0.178   3.167   1.348 -0.3632  0.4101  0.3282
 4366SOL    HW113418   0.239   3.182   1.271  0.5163 -0.7583  0.7713
 4366SOL    HW213419   0.166   3.069   1.363 -1.6787  0.6152  0.7839
 4367SOL     OW13420   3.893   2.216   0.661 -0.2161  0.0991 -0.4348
 4367SOL    HW113421   3.823   2.287   0.666  0.8799  1.3171 -1.4990
 4367SOL    HW213422   3.957   2.238   0.587  0.4210 -1.7763 -0.4966
 4368SOL     OW13423   0.387   1.991   1.103 -0.2427 -0.1141  0.5051
 4368SOL    HW113424   0.433   1.903   1.116  2.9487  1.0448 -1.6321
 4368SOL    HW213425   0.430   2.059   1.163 -0.5427  0.6192 -0.1034
 4369SOL     OW13426   4.545   3.151   0.372 -0.2153 -0.2778  0.1869
 4369SOL    HW113427   4.536   3.249   0.352 -2.3531 -0.5711 -0.5415
 4369SOL    HW213428   4.539   3.136   0.470 -2.7488  0.1256  0.1465
 4370SOL     OW13429   4.250   0.503   3.684 -0.0457 -0.6469 -0.3921
 4370SOL    HW113430   4.185   0.446   3.633 -0.4082  0.7913 -1.6217
 4370SOL    HW213431   4.199   0.561   3.747  0.3664 -2.0453  1.2981
 4371SOL     OW13432   0.133   3.326   1.091  0.1923 -0.1208 -0.0994
 4371SOL    HW113433   0.047   3.375   1.099  0.1628 -0.3630  1.3529
 4371SOL    HW213434   0.115   3.234   1.056 -0.1295 -0.1105  0.0308
 4372SOL     OW13435   3.742   5.128   0.970 -0.1279 -0.0686  0.0975
 4372SOL    HW113436   3.785   5.038   0.958  0.5010 -0.0520  1.8555
 4372SOL    HW213437   3.661   5.134   0.912  0.2250 -1.4897 -0.6020
 4373SOL     OW13438   2.585   4.310   3.878  0.1503  0.5801 -0.3373
 4373SOL    HW113439   2.540   4.385   3.926  0.6574 -0.0712  1.2053
 4373SOL    HW213440   2.532   4.226   3.888  1.7587 -0.2711  1.7750
 4374SOL     OW13441   4.846   1.520   0.244 -0.0980  0.3797  0.4347
 4374SOL    HW113442   4.827   1.425   0.222 -2.4602  1.1167 -1.1508
 4374SOL    HW213443   4.828   1.536   0.341 -1.2309 -0.4839  0.3871
 4375SOL     OW13444   0.461   4.975   5.447 -0.3354 -0.0752 -0.8587
 4375SOL    HW113445   0.415   4.924   5.374  0.7978  1.3952 -2.6873
 4375SOL    HW213446   0.509   5.054   5.408  1.7920 -0.2073  1.2550
 4376SOL     OW13447   5.160   1.808   2.249  0.4815 -0.0973 -0.4746
 4376SOL    HW113448   5.242   1.795   2.305  0.7542  0.3532 -0.7664
 4376SOL    HW213449   5.119   1.897   2.270  0.0200 -0.3506 -0.2764
 4377SOL     OW13450   0.361   4.229   1.995  0.3752  0.0776 -0.4826
 4377SOL    HW113451   0.320   4.321   1.990  0.0882 -0.0237  0.0268
 4377SOL    HW213452   0.442   4.232   2.053  0.7209  0.1358 -0.9617
 4378SOL     OW13453   4.396   2.555   1.928  0.0100 -0.1897 -0.6742
 4378SOL    HW113454   4.323   2.486   1.921 -0.3231  0.1861 -0.9365
 4378SOL    HW213455   4.395   2.613   1.847 -1.0405  1.4278  0.4331
 4379SOL     OW13456   3.903   1.269   1.157  0.9682 -0.2765  0.1027
 4379SOL    HW113457   3.883   1.223   1.244 -0.4993  0.4728  0.1905
 4379SOL    HW213458   3.818   1.301   1.116  1.8147  1.0955 -0.6579
 4380SOL     OW13459   3.677   1.082   0.870 -0.3838  0.1994  0.1618
 4380SOL    HW113460   3.695   1.168   0.918 -1.2386 -1.2455  3.3194
 4380SOL    HW213461   3.578   1.070   0.861 -0.2560 -0.2540 -0.6987
 4381SOL     OW13462   3.164   3.012   0.418  0.1974  0.2788 -0.1393
 4381SOL    HW113463   3.246   2.983   0.466 -0.3525  1.9461  1.9339
 4381SOL    HW213464   3.162   3.112   0.411 -1.3917  0.2507 -0.6200
 4382SOL     OW13465   5.422   2.932   0.383  0.4986 -0.0438 -0.3697
 4382SOL    HW113466   5.493   2.982   0.333 -0.4533  0.6344 -1.0826
 4382SOL    HW213467   5.336   2.984   0.381  0.3546 -0.1214  1.7967
 4383SOL     OW13468   0.627   2.576   3.005  0.0485 -0.1721  0.1123
 4383SOL    HW113469   0.671   2.493   2.970 -1.6051 -0.9162 -0.3123
 4383SOL    HW213470   0.674   2.606   3.088 -0.8347 -3.0912  1.8238
 4384SOL     OW13471   4.123   4.593   1.466 -0.2402 -0.2230 -0.2560
 4384SOL    HW113472   4.116   4.546   1.378 -1.3698  0.9709 -0.8321
 4384SOL    HW213473   4.037   4.639   1.487  0.3118  0.2886  1.0464
 4385SOL     OW13474   4.689   2.904   5.529 -0.4635  0.2215  0.9231
 4385SOL    HW113475   4.760   2.942   5.588  0.0574 -0.9808  1.0862
 4385SOL    HW213476   4.716   2.916   5.433  0.3537 -0.9024  0.9886
 4386SOL     OW13477   1.503   5.253   5.230  0.1910 -0.0590 -0.8034
 4386SOL    HW113478   1.501   5.350   5.204  0.3124  0.6980  1.6638
 4386SOL    HW213479   1.597   5.220   5.228  0.4253  0.4889  0.1875
 4387SOL     OW13480   3.348   4.049   5.167 -0.3417  0.4533 -0.2674
 4387SOL    HW113481   3.398   3.988   5.229  1.2135 -0.2479 -2.1352
 4387SOL    HW213482   3.252   4.019   5.161 -0.1117 -0.4807  0.4828
 4388SOL     OW13483   5.476   3.067   1.988  0.3380  0.2409 -0.3324
 4388SOL    HW113484   5.458   3.136   2.059  0.7278  1.1044 -1.0547
 4388SOL    HW213485   5.521   3.111   1.910  0.7615 -0.8796 -0.7301
 4389SOL     OW13486   4.501   3.169   1.768 -0.4964  0.3805  0.1158
 4389SOL    HW113487   4.492   3.084   1.716  2.2214  0.2938 -0.3799
 4389SOL    HW213488   4.521   3.244   1.705  0.3939  0.7408  0.8142
 4390SOL     OW13489   3.262   3.131   4.961  0.0057 -0.4122  0.6469
 4390SOL    HW113490   3.340   3.192   4.948  0.4018 -1.0710 -0.1396
 4390SOL    HW213491   3.245   3.120   5.059  1.1073 -0.5262  0.8423
 4391SOL     OW13492   3.505   3.198   3.134  0.3487  0.4066  0.3032
 4391SOL    HW113493   3.582   3.186   3.197 -0.0734 -1.1458  0.5599
 4391SOL    HW213494   3.451   3.277   3.164 -0.8437 -1.2861  3.0227
 4392SOL     OW13495   4.821   3.327   0.423  0.3625 -0.1916 -0.0404
 4392SOL    HW113496   4.735   3.378   0.429 -0.1220 -0.9078 -0.6047
 4392SOL    HW213497   4.815   3.246   0.482  0.7387 -0.1110  0.1063
 4393SOL     OW13498   0.182   3.738   4.646 -0.0245  0.5753  0.1032
 4393SOL    HW113499   0.147   3.804   4.580 -0.6173  0.9379  0.7738
 4393SOL    HW213500   0.166   3.771   4.739  0.1682 -0.2518  0.4396
 4394SOL     OW13501   4.174   3.971   2.832  0.0768 -0.2056  0.2537
 4394SOL    HW113502   4.273   3.982   2.819 -0.4436  2.5333 -2.5910
 4394SOL    HW213503   4.137   3.910   2.763 -0.5998  1.6213 -1.0909
 4395SOL     OW13504   1.042   2.208   0.437 -0.2454  0.6313 -0.2008
 4395SOL    HW113505   1.030   2.206   0.537  0.2350  1.2609 -0.1227
 4395SOL    HW213506   0.984   2.280   0.398  1.0843  1.7730 -0.1348
 4396SOL     OW13507   4.242   3.794   4.746  0.0194  0.6398  0.0861
 4396SOL    HW113508   4.182   3.791   4.665  1.6763 -1.9105 -1.1969
 4396SOL    HW213509   4.300   3.875   4.742 -2.0486  2.2030  0.4196
 4397SOL     OW13510   4.918   2.542   0.410 -0.7397 -0.0672  0.0229
 4397SOL    HW113511   4.983   2.476   0.446 -0.0483  1.6897  2.2048
 4397SOL    HW213512   4.903   2.524   0.313  1.0147 -2.0826  0.0524
 4398SOL     OW13513   4.059   4.778   0.147  0.3049  0.4292  0.3509
 4398SOL    HW113514   4.130   4.792   0.216 -2.8956  2.0596  3.6797
 4398SOL    HW213515   3.997   4.706   0.178 -1.1986  1.1542 -0.8457
 4399SOL     OW13516   3.353   4.606   0.383 -0.3370 -0.3973  0.0746
 4399SOL    HW113517   3.284   4.550   0.336  1.0310 -0.6946 -1.6532
 4399SOL    HW213518   3.335   4.702   0.364 -0.7235 -0.4219  0.2885
 4400SOL     OW13519   4.084   1.857   0.117 -0.2898  0.1442 -0.7109
 4400SOL    HW113520   4.150   1.932   0.125 -1.5589  1.2039  0.5445
 4400SOL    HW213521   3.992   1.894   0.126 -1.0249 -1.4186 -1.4703
 4401SOL     OW13522   0.433   1.973   1.681 -0.1625  0.8493 -0.4427
 4401SOL    HW113523   0.347   2.018   1.657 -0.8662  0.1211  0.5748
 4401SOL    HW213524   0.463   1.916   1.605 -0.4719  1.2818 -0.8914
 4402SOL     OW13525   5.525   2.679   0.404 -0.0347 -0.1720  0.1702
 4402SOL    HW113526   5.488   2.621   0.476  1.9928  1.3350  2.5759
 4402SOL    HW213527   5.479   2.768   0.407 -2.3342 -1.0880 -2.7583
 4403SOL     OW13528   4.919   1.562   5.255  0.0925  0.6741 -0.2095
 4403SOL    HW113529   4.970   1.529   5.334 -0.5266  1.3339  0.4921
 4403SOL    HW213530   4.843   1.500   5.236 -1.3355  1.8561  1.3835
 4404SOL     OW13531   5.010   2.268   0.439  0.3821 -0.1523 -0.3890
 4404SOL    HW113532   5.073   2.221   0.378  0.1423  0.1055 -0.8402
 4404SOL    HW213533   5.018   2.230   0.531  0.9460 -0.3535 -0.5182
 4405SOL     OW13534   4.302   2.587   0.444  0.0677 -0.4206  0.5642
 4405SOL    HW113535   4.390   2.625   0.415 -0.8866  0.8951 -0.8040
 4405SOL    HW213536   4.270   2.522   0.375 -1.4184  1.4315 -0.6212
 4406SOL     OW13537   2.877   4.087   0.845 -0.3325  0.3793 -0.0944
 4406SOL    HW113538   2.968   4.072   0.806 -0.2928  1.6590 -0.5339
 4406SOL    HW213539   2.835   4.168   0.804 -0.8252  1.0354  1.6012
 4407SOL     OW13540   4.363   2.544   0.702 -0.8443  0.4563  0.3291
 4407SOL    HW113541   4.276   2.563   0.746 -2.3696 -0.1980 -2.2179
 4407SOL    HW213542   4.351   2.541   0.603  1.9598 -0.3381 -0.0924
 4408SOL     OW13543   3.276   1.300   4.872 -0.0155 -0.4751  0.5857
 4408SOL    HW113544   3.226   1.259   4.795 -1.5527  0.3822  1.0884
 4408SOL    HW213545   3.211   1.347   4.933  1.2946 -0.2272  1.8449
 4409SOL     OW13546   5.000   1.526   1.657 -0.2678 -0.2473  0.2794
 4409SOL    HW113547   4.967   1.571   1.574 -1.0185  0.3925  0.9055
 4409SOL    HW213548   5.080   1.470   1.635 -2.0704 -2.3073 -1.3936
 4410SOL     OW13549   4.954   1.562   1.915  0.5672 -0.0260 -0.4105
 4410SOL    HW113550   4.943   1.475   1.961 -0.8621  0.4907  0.2843
 4410SOL    HW213551   4.971   1.547   1.817 -0.4917 -1.0642 -0.4489
 4411SOL     OW13552   5.009   3.631   4.730 -0.0295 -0.0364 -0.1319
 4411SOL    HW113553   5.000   3.558   4.662 -0.6417  0.0080 -0.1054
 4411SOL    HW213554   4.983   3.595   4.820 -1.4791  0.5044 -0.3057
 4412SOL     OW13555   5.127   3.552   1.285 -0.3947 -0.6628 -0.2063
 4412SOL    HW113556   5.046   3.591   1.331 -0.9087 -1.1889 -0.6424
 4412SOL    HW213557   5.156   3.470   1.334  0.6328  0.1890  0.6600
 4413SOL     OW13558   0.364   3.374   3.735  0.7206  0.3309  0.3074
 4413SOL    HW113559   0.440   3.435   3.757  1.2107  0.1440 -0.7945
 4413SOL    HW213560   0.286   3.393   3.795  1.3609  1.0711  0.9056
 4414SOL     OW13561   4.049   2.123   1.104 -0.3977  0.4083 -0.6188
 4414SOL    HW113562   4.037   2.024   1.118  1.9139  0.0263 -0.8969
 4414SOL    HW213563   3.970   2.159   1.054 -1.0790 -1.3936 -0.9323
 4415SOL     OW13564   4.498   4.134   0.965  0.2866 -0.1619 -0.2337
 4415SOL    HW113565   4.431   4.162   1.034  0.1500 -1.9337  0.3873
 4415SOL    HW213566   4.451   4.092   0.887  0.5801  0.0419 -0.5249
 4416SOL     OW13567   3.275   1.429   4.489 -0.2254 -0.1468 -0.6778
 4416SOL    HW113568   3.221   1.368   4.546 -0.5117  1.1056  0.4661
 4416SOL    HW213569   3.225   1.449   4.405 -1.8377  1.3316  0.5410
 4417SOL     OW13570   3.811   1.561   4.972 -0.3256 -0.2683  0.2166
 4417SOL    HW113571   3.798   1.646   5.024 -2.5671 -0.8295  0.7052
 4417SOL    HW213572   3.724   1.533   4.932  0.8575 -1.1418 -1.9043
 4418SOL     OW13573   4.625   2.667   3.003  0.8770  0.6299 -0.3923
 4418SOL    HW113574   4.695   2.724   3.045  0.0141  1.6640 -0.3231
 4418SOL    HW213575   4.601   2.592   3.066  1.4361  0.6526 -0.1469
 4419SOL     OW13576   5.116   3.862   4.276 -0.0355 -0.2493 -0.3138
 4419SOL    HW113577   5.171   3.906   4.206  1.2973 -0.9685  0.2351
 4419SOL    HW213578   5.146   3.767   4.287  0.8963  0.2612  2.2856
 4420SOL     OW13579   5.243   1.630   1.777 -0.5315 -0.2482  0.4262
 4420SOL    HW113580   5.248   1.531   1.770 -1.7672 -0.2256 -1.9270
 4420SOL    HW213581   5.149   1.660   1.758  0.1671  1.4664 -0.5525
 4421SOL     OW13582   4.043   4.872   4.766  0.0759  0.0207 -0.1324
 4421SOL    HW113583   4.122   4.931   4.755  1.3811 -1.7465 -0.7226
 4421SOL    HW213584   4.021   4.829   4.679 -1.1697 -0.0058  0.1655
 4422SOL     OW13585   0.122   4.465   3.935 -0.1879 -0.2882 -0.1727
 4422SOL    HW113586   0.123   4.508   4.025 -0.8796  0.9388 -0.7222
 4422SOL    HW213587   0.187   4.389   3.933  1.4314  1.0244  0.6836
 4423SOL     OW13588   0.686   2.473   0.181  0.3261  0.1671  0.2356
 4423SOL    HW113589   0.607   2.411   0.187  0.7203 -0.4062 -0.3597
 4423SOL    HW213590   0.659   2.564   0.213 -0.2366 -0.3291  1.2290
 4424SOL     OW13591   4.523   1.166   0.301  0.0728 -0.0041  0.0072
 4424SOL    HW113592   4.557   1.131   0.388  0.9318 -0.2683 -0.4270
 4424SOL    HW213593   4.466   1.247   0.318  0.9474  0.4744  0.7531
 4425SOL     OW13594   0.259   4.192   5.042  0.0573 -0.2455 -0.3828
 4425SOL    HW113595   0.169   4.169   5.078  0.4733 -0.5552  0.4845
 4425SOL    HW213596   0.263   4.290   5.024 -1.6421 -0.6611 -3.8590
 4426SOL     OW13597   0.905   1.651   0.694 -0.5420 -0.0817 -0.0389
 4426SOL    HW113598   0.945   1.689   0.777  0.0584  0.7467 -0.6938
 4426SOL    HW213599   0.957   1.681   0.614  1.2222 -3.8610 -0.5074
 4427SOL     OW13600   4.992   1.150   5.037  0.3905  0.0547  0.4250
 4427SOL    HW113601   5.017   1.122   5.130  0.7344  2.0137  0.9713
 4427SOL    HW213602   5.016   1.077   4.973 -1.3191 -2.0260  2.0031
 4428SOL     OW13603   0.179   1.990   1.973 -0.4278 -0.2521 -0.5690
 4428SOL    HW113604   0.236   1.920   1.931 -0.5797 -0.9992  0.4284
 4428SOL    HW213605   0.228   2.078   1.971  1.3598 -1.1062  1.3668
 4429SOL     OW13606   3.189   3.916   0.185 -0.9509  0.1532  0.0797
 4429SOL    HW113607   3.272   3.870   0.218 -1.6515 -0.3616  1.1890
 4429SOL    HW213608   3.213   3.980   0.112  0.3277 -0.4845 -0.0892
 4430SOL     OW13609   0.562   3.941   2.238 -0.3543  0.1575  0.6742
 4430SOL    HW113610   0.487   3.875   2.228  1.0121 -1.1730 -2.0125
 4430SOL    HW213611   0.574   3.963   2.335 -2.4517 -1.6329  1.4447
 4431SOL     OW13612   1.617   4.389   5.054 -0.3583 -0.0473 -0.4383
 4431SOL    HW113613   1.615   4.480   5.012  2.0002  0.3797  0.1639
 4431SOL    HW213614   1.549   4.330   5.011 -0.3638  1.3262 -2.4619
 4432SOL     OW13615   0.258   2.501   0.654  0.4716 -0.3898 -0.0506
 4432SOL    HW113616   0.257   2.585   0.708 -0.6590 -1.1439  1.1736
 4432SOL    HW213617   0.225   2.519   0.562 -1.9222  0.1546  0.8380
 4433SOL     OW13618   4.506   0.660   1.935 -0.6684 -0.5868  0.0218
 4433SOL    HW113619   4.507   0.760   1.948 -0.7987 -0.2563 -2.1903
 4433SOL    HW213620   4.411   0.630   1.924 -0.7167 -1.1428  1.7142
 4434SOL     OW13621   4.504   3.349   3.262  0.2801  0.1538  0.0801
 4434SOL    HW113622   4.565   3.392   3.196  1.3109  3.9402  3.0831
 4434SOL    HW213623   4.417   3.399   3.264 -0.2052 -0.6919  0.7297
 4435SOL     OW13624   5.197   2.026   2.778  0.1561  0.1586 -0.0813
 4435SOL    HW113625   5.253   1.979   2.847 -0.7335  1.7902  1.8479
 4435SOL    HW213626   5.154   2.106   2.819 -1.9371  0.1458 -2.0593
 4436SOL     OW13627   4.249   4.851   1.428  0.8954 -0.1816 -0.2239
 4436SOL    HW113628   4.269   4.758   1.461 -0.8853 -1.1219 -1.5955
 4436SOL    HW213629   4.180   4.893   1.487  1.9007  0.4068  0.5578
 4437SOL     OW13630   4.456   2.429   1.028  0.1083  0.3148 -0.0781
 4437SOL    HW113631   4.403   2.345   1.016  2.7753 -1.4533 -0.2715
 4437SOL    HW213632   4.530   2.432   0.961 -1.1547  3.9919 -1.5503
 4438SOL     OW13633   2.606   3.588   0.917  0.5231  0.4369  0.4874
 4438SOL    HW113634   2.645   3.516   0.974  1.3893  1.8441  1.7526
 4438SOL    HW213635   2.679   3.651   0.889 -0.5339  2.1426  1.4180
 4439SOL     OW13636   4.503   2.701   0.246 -0.4249  1.0223 -0.0603
 4439SOL    HW113637   4.574   2.760   0.284 -0.3665  1.5291 -0.9164
 4439SOL    HW213638   4.513   2.697   0.146  0.0214 -1.0289  0.0369
 4440SOL     OW13639   5.468   1.758   1.867  0.6657 -0.3793 -0.4130
 4440SOL    HW113640   5.384   1.709   1.845 -0.5426  0.6986  1.4744
 4440SOL    HW213641   5.446   1.837   1.924  2.8765  0.5301 -0.7315
 4441SOL     OW13642   5.399   4.021   5.315  0.9453  0.2485 -0.0983
 4441SOL    HW113643   5.305   3.990   5.323  1.1507 -0.0025  1.6896
 4441SOL    HW213644   5.402   4.121   5.318  0.6346  0.3388 -1.7622
 4442SOL     OW13645   0.107   2.594   2.119 -0.0705  0.1587  0.3079
 4442SOL    HW113646   0.080   2.687   2.095 -1.0361  0.2460  1.5977
 4442SOL    HW213647   0.076   2.531   2.048 -0.9921  0.6279  0.2769
 4443SOL     OW13648   5.423   4.082   4.840  0.1738  0.2611 -0.7257
 4443SOL    HW113649   5.413   3.986   4.815  0.8194 -0.3872  1.3330
 4443SOL    HW213650   5.341   4.113   4.888  0.7777  0.1193  0.4239
 4444SOL     OW13651   5.112   4.336   0.252  0.6826 -0.5741  0.0202
 4444SOL    HW113652   5.107   4.237   0.233  3.5667 -0.8455  0.1375
 4444SOL    HW213653   5.087   4.387   0.169  0.2095 -1.4142 -0.3735
 4445SOL     OW13654   0.113   2.560   1.463  0.8449  0.1557  0.3859
 4445SOL    HW113655   0.042   2.553   1.532 -0.0915 -0.5371 -0.6193
 4445SOL    HW213656   0.142   2.655   1.454  0.6177  0.3262  1.3512
 4446SOL     OW13657   3.630   3.591   2.151  0.3073 -0.5483 -0.2434
 4446SOL    HW113658   3.710   3.649   2.166 -1.5770  1.7843  1.5912
 4446SOL    HW213659   3.588   3.615   2.063  0.0227  0.3346  0.1173
 4447SOL     OW13660   4.547   4.373   1.464 -0.4067  0.0001 -0.5029
 4447SOL    HW113661   4.640   4.405   1.446  0.0182 -0.5052  0.7025
 4447SOL    HW213662   4.551   4.289   1.518 -1.5665 -0.2150 -0.7258
 4448SOL     OW13663   3.543   0.309   1.120  0.0400 -0.0362 -0.5012
 4448SOL    HW113664   3.532   0.213   1.145  1.8836 -0.0195  0.5997
 4448SOL    HW213665   3.487   0.366   1.181  2.6639 -0.1695  2.2886
 4449SOL     OW13666   2.954   2.052   4.664 -0.3354 -0.1286 -0.4992
 4449SOL    HW113667   2.918   2.145   4.668 -1.7917 -0.7150  1.1280
 4449SOL    HW213668   2.906   2.000   4.594 -1.1853 -0.3004  0.1995
 4450SOL     OW13669   5.399   3.814   4.748 -0.3895  0.5197  0.1794
 4450SOL    HW113670   5.308   3.808   4.787  1.3157 -0.8935  4.5316
 4450SOL    HW213671   5.427   3.723   4.715  0.4408  0.2168  1.6329
 4451SOL     OW13672   3.549   1.352   0.621 -0.3947 -0.0039  0.2866
 4451SOL    HW113673   3.535   1.266   0.572  0.0978 -0.1193  0.3427
 4451SOL    HW213674   3.487   1.356   0.700 -1.9029  0.6126 -0.8659
 4452SOL     OW13675   3.517   1.101   1.424 -0.0869 -0.2871 -0.2262
 4452SOL    HW113676   3.491   1.017   1.472 -1.1280 -1.4276 -2.6314
 4452SOL    HW213677   3.529   1.175   1.490  0.1667 -2.1358  1.9008
 4453SOL     OW13678   5.507   3.306   1.424  0.1475 -0.3116  0.0682
 4453SOL    HW113679   5.596   3.267   1.397 -0.1689 -0.2530 -1.1129
 4453SOL    HW213680   5.437   3.235   1.419 -0.2842  0.1755 -1.3043
 4454SOL     OW13681   5.235   2.973   1.894  0.2235  0.4037 -0.4903
 4454SOL    HW113682   5.191   2.986   1.983  0.5760  0.7852 -0.3680
 4454SOL    HW213683   5.333   2.992   1.902  0.3581 -0.1215 -0.8327
 4455SOL     OW13684   0.131   0.121   5.248 -0.2587  0.3361 -0.2185
 4455SOL    HW113685   0.186   0.057   5.301 -1.1480  1.0314  1.6391
 4455SOL    HW213686   0.141   0.213   5.286 -1.5137  0.7366 -0.8027
 4456SOL     OW13687   1.023   2.762   4.594 -0.0769 -0.1444  0.0813
 4456SOL    HW113688   0.991   2.767   4.688  1.8564 -0.9944  0.8282
 4456SOL    HW213689   0.945   2.767   4.532 -1.7194 -2.6212  1.7792
 4457SOL     OW13690   4.755   3.823   0.744  0.6774  0.1061  0.3294
 4457SOL    HW113691   4.680   3.854   0.686  1.4575 -2.1417 -2.0703
 4457SOL    HW213692   4.818   3.900   0.761 -0.3117  1.1621 -0.6130
 4458SOL     OW13693   4.331   5.241   2.472 -0.7323 -0.0445 -0.1555
 4458SOL    HW113694   4.315   5.321   2.530 -0.0716 -0.1187  0.1454
 4458SOL    HW213695   4.248   5.185   2.467 -0.3436 -0.9512  2.1285
 4459SOL     OW13696   1.631   2.275   1.755  0.9494  0.2573 -0.0542
 4459SOL    HW113697   1.548   2.225   1.779 -0.6883  2.7279 -0.2076
 4459SOL    HW213698   1.680   2.301   1.838  0.8359 -0.0470  0.1081
 4460SOL     OW13699   2.522   3.978   2.179 -0.1539  0.6199  0.0271
 4460SOL    HW113700   2.488   3.888   2.151 -0.2595  0.8447 -0.5666
 4460SOL    HW213701   2.540   4.035   2.099  2.1462  0.3471  0.2776
 4461SOL     OW13702   0.782   0.682   4.398  0.2982 -0.0059  0.2378
 4461SOL    HW113703   0.865   0.738   4.401  0.5289 -0.2048 -1.3544
 4461SOL    HW213704   0.701   0.741   4.402  0.5255  0.2943  0.4471
 4462SOL     OW13705   0.041   3.140   4.648 -0.1983 -0.0681 -0.2692
 4462SOL    HW113706   0.009   3.154   4.742  1.8146  3.0686  0.1062
 4462SOL    HW213707   0.141   3.137   4.647 -0.1724 -0.0104 -2.3166
 4463SOL     OW13708   2.592   4.545   1.828  0.2371  0.9200 -0.2299
 4463SOL    HW113709   2.555   4.638   1.820 -0.4377  0.8410  1.5613
 4463SOL    HW213710   2.525   4.480   1.792 -0.9728  0.8765  1.9148
 4464SOL     OW13711   0.132   2.818   1.061 -0.4404  0.1944 -0.3232
 4464SOL    HW113712   0.192   2.836   1.139  1.4606 -3.6425 -0.6693
 4464SOL    HW213713   0.063   2.750   1.088 -1.7042  1.0620 -1.2480
 4465SOL     OW13714   2.064   2.519   0.206 -0.5717  0.0151 -0.3540
 4465SOL    HW113715   1.981   2.548   0.254 -1.0330 -0.7881 -0.6494
 4465SOL    HW213716   2.043   2.444   0.143  0.2221  0.3569 -1.0600
 4466SOL     OW13717   0.378   3.527   1.849  0.1552  0.0138  0.0647
 4466SOL    HW113718   0.351   3.621   1.830  2.5653  0.5086 -1.3360
 4466SOL    HW213719   0.414   3.485   1.765 -1.5242 -2.4477  0.4571
 4467SOL     OW13720   3.282   2.630   1.833  0.4862 -0.2752 -0.4248
 4467SOL    HW113721   3.187   2.650   1.808 -0.4960 -1.6219  1.8877
 4467SOL    HW213722   3.319   2.561   1.771 -0.0715  0.1865 -1.2905
 4468SOL     OW13723   2.691   2.889   0.112  0.1114  0.3284  0.0620
 4468SOL    HW113724   2.712   2.977   0.156  0.4388  0.8485 -1.0973
 4468SOL    HW213725   2.732   2.815   0.165  1.7417  1.0446 -0.1106
 4469SOL     OW13726   4.129   2.679   0.817  0.7726 -0.7546 -0.4102
 4469SOL    HW113727   4.171   2.736   0.888 -0.5087  0.6663 -0.7408
 4469SOL    HW213728   4.040   2.646   0.849 -1.5245  2.7946 -2.4582
 4470SOL     OW13729   4.776   5.082   0.243 -0.2631  0.2158  0.0400
 4470SOL    HW113730   4.678   5.099   0.239 -0.1373  1.3138  1.1025
 4470SOL    HW213731   4.805   5.073   0.338  0.7523  0.4933 -0.2283
 4471SOL     OW13732   0.282   1.683   2.192 -0.3031  0.5009 -0.0585
 4471SOL    HW113733   0.354   1.752   2.190  0.1109  0.0835  0.0653
 4471SOL    HW213734   0.266   1.653   2.286 -0.0547  0.0000 -0.1693
 4472SOL     OW13735   3.843   1.968   0.125  0.0816  0.1952  0.7518
 4472SOL    HW113736   3.776   1.894   0.132  2.1274 -1.7746  0.7632
 4472SOL    HW213737   3.829   2.017   0.039 -0.6526 -0.9171  0.2051
 4473SOL     OW13738   4.289   2.222   0.991 -0.3478  0.8388 -0.2435
 4473SOL    HW113739   4.315   2.139   0.941  1.1345  0.7409  0.6300
 4473SOL    HW213740   4.205   2.205   1.043  1.1682 -0.9495  1.7970
 4474SOL     OW13741   3.866   3.707   2.223  0.1165 -0.1344 -0.1783
 4474SOL    HW113742   3.843   3.643   2.297  1.2212 -0.7126 -0.3154
 4474SOL    HW213743   3.964   3.705   2.207  0.1872  1.6802 -0.1310
 4475SOL     OW13744   3.952   4.108   1.862  0.3093 -0.0149  0.4177
 4475SOL    HW113745   4.003   4.028   1.894  0.8668  0.2203  0.1130
 4475SOL    HW213746   3.858   4.103   1.897 -0.3940 -2.0297 -1.5074
 4476SOL     OW13747   1.230   2.283   5.189 -0.3921 -0.5763 -0.0123
 4476SOL    HW113748   1.168   2.238   5.124 -1.4993 -0.0906  0.6880
 4476SOL    HW213749   1.199   2.376   5.207  1.5794  0.3546 -1.0298
 4477SOL     OW13750   3.465   2.870   1.266 -0.1720  0.0838  0.3303
 4477SOL    HW113751   3.434   2.788   1.217 -1.8600  1.2805 -0.6935
 4477SOL    HW213752   3.560   2.857   1.295  0.1953 -1.5108 -1.4128
 4478SOL     OW13753   4.302   3.362   1.502 -0.4588 -0.0628 -0.2636
 4478SOL    HW113754   4.274   3.291   1.566 -2.0748  0.2324 -0.6106
 4478SOL    HW213755   4.315   3.323   1.411 -1.8203  0.1345 -0.5633
 4479SOL     OW13756   1.466   3.382   0.840  0.1687  0.4845  0.2715
 4479SOL    HW113757   1.475   3.479   0.866  1.4654  0.4299  0.0805
 4479SOL    HW213758   1.550   3.351   0.797  0.4576 -1.2272  1.9291
 4480SOL     OW13759   4.400   2.575   1.275  0.6419 -0.0122  0.5782
 4480SOL    HW113760   4.472   2.545   1.337 -0.9598 -3.2984  1.0676
 4480SOL    HW213761   4.395   2.513   1.197 -1.9273 -0.2372  0.8356
 4481SOL     OW13762   3.796   2.833   2.198  0.4328  0.2921 -0.4255
 4481SOL    HW113763   3.792   2.771   2.276 -0.6849  0.1993 -0.5404
 4481SOL    HW213764   3.797   2.928   2.229  0.6928  0.2395 -0.2798
 4482SOL     OW13765   5.167   4.227   1.221  0.5493  0.0947  0.3821
 4482SOL    HW113766   5.177   4.177   1.306 -2.4357  1.2967  1.5644
 4482SOL    HW213767   5.104   4.179   1.160  2.0546 -0.3557 -0.9220
 4483SOL     OW13768   4.551   2.778   1.148  0.4794  0.0712 -0.1595
 4483SOL    HW113769   4.504   2.818   1.070  0.3483  0.5840  0.1793
 4483SOL    HW213770   4.506   2.692   1.174 -0.2057  0.5007  0.0946
 4484SOL     OW13771   5.441   3.961   0.339 -0.0902  0.1449 -0.1366
 4484SOL    HW113772   5.437   4.051   0.382 -2.1322 -0.3031  0.7260
 4484SOL    HW213773   5.383   3.960   0.257  0.1189 -0.3119 -0.2847
 4485SOL     OW13774   3.714   2.823   1.362  0.0970 -0.2913 -0.6324
 4485SOL    HW113775   3.765   2.909   1.355 -0.6346  0.3161  1.0842
 4485SOL    HW213776   3.760   2.762   1.425 -0.6849 -0.1715  0.0702
 4486SOL     OW13777   3.148   3.111   1.450 -0.3437  0.2523  0.3877
 4486SOL    HW113778   3.153   3.012   1.464 -2.6337  0.0571  0.2655
 4486SOL    HW213779   3.121   3.130   1.356 -1.3015  0.8989  0.7692
 4487SOL     OW13780   4.660   4.514   5.272  0.9451 -0.0777  0.1151
 4487SOL    HW113781   4.757   4.535   5.286  1.2621 -0.3725 -1.4251
 4487SOL    HW213782   4.642   4.420   5.301  1.3316 -0.3195 -0.4123
 4488SOL     OW13783   5.274   1.406   5.336  0.2270 -0.1548 -0.3731
 4488SOL    HW113784   5.294   1.374   5.243  1.2552 -1.1169  0.1592
 4488SOL    HW213785   5.313   1.342   5.403  0.5858  1.1724  0.7292
 4489SOL     OW13786   5.322   5.473   1.200 -0.2780  0.8751  0.8030
 4489SOL    HW113787   5.345   5.469   1.297 -1.3048 -2.1133  1.0290
 4489SOL    HW213788   5.378   5.407   1.150 -1.1580  0.9171 -0.2736
 4490SOL     OW13789   4.478   2.392   0.017  0.3256 -0.5198 -1.3182
 4490SOL    HW113790   4.500   2.369   0.112  0.4936  0.3549 -1.1365
 4490SOL    HW213791   4.461   2.491   0.009 -1.2370 -0.8061 -1.9028
 4491SOL     OW13792   4.040   1.854   1.132  0.3082 -0.3016  0.0870
 4491SOL    HW113793   4.045   1.831   1.035 -2.0633  1.7744 -0.6393
 4491SOL    HW213794   3.985   1.786   1.180  0.3363 -0.6053 -0.3111
 4492SOL     OW13795   4.231   2.386   0.285  0.7595  0.2540 -0.4031
 4492SOL    HW113796   4.296   2.321   0.324 -0.5943 -0.6230  0.4750
 4492SOL    HW213797   4.143   2.341   0.269 -0.5344  2.0307  1.1215
 4493SOL     OW13798   3.841   4.325   2.264 -0.2438 -0.0876 -0.4844
 4493SOL    HW113799   3.930   4.368   2.248  0.9847 -2.8962 -1.7361
 4493SOL    HW213800   3.835   4.295   2.359  0.8790 -1.3743 -0.8027
 4494SOL     OW13801   4.426   3.517   5.149  0.4780  0.7687  0.0428
 4494SOL    HW113802   4.366   3.524   5.228  0.3115 -1.6103  0.1844
 4494SOL    HW213803   4.405   3.591   5.084  0.0994  2.2813  1.8218
 4495SOL     OW13804   4.069   4.271   0.056 -0.0926 -0.2594 -0.1278
 4495SOL    HW113805   4.038   4.336  -0.014 -0.2323  0.4151  0.5452
 4495SOL    HW213806   4.027   4.182   0.041 -1.4162  0.3158  0.0590
 4496SOL     OW13807   1.184   2.384   1.497 -0.7026 -0.2401  0.0906
 4496SOL    HW113808   1.226   2.434   1.573  0.0817 -3.6535  2.1215
 4496SOL    HW213809   1.225   2.414   1.411 -0.2689  2.4359  1.1198
 4497SOL     OW13810   2.777   1.301   0.120  0.2630  0.5362 -0.5478
 4497SOL    HW113811   2.768   1.270   0.215 -2.9323  3.7097  0.4201
 4497SOL    HW213812   2.823   1.390   0.118 -0.7995  1.0993 -1.7742
 4498SOL     OW13813   4.898   3.716   0.327  0.6601  0.2282 -0.2736
 4498SOL    HW113814   4.990   3.694   0.294  1.3528  2.0600  0.3344
 4498SOL    HW213815   4.875   3.658   0.405  1.4383 -0.0068 -0.2174
 4499SOL     OW13816  -0.008   2.628   3.302  0.4927  0.4531  0.3845
 4499SOL    HW113817   0.031   2.651   3.213 -0.6858 -1.0335 -0.5715
 4499SOL    HW213818  -0.002   2.529   3.316  1.0107  0.7153  2.1498
 4500SOL     OW13819   3.829   3.251   0.573 -0.5935 -0.9346 -0.4485
 4500SOL    HW113820   3.815   3.226   0.478 -0.4049  1.2563 -1.1102
 4500SOL    HW213821   3.927   3.261   0.591 -0.5330 -2.7703  0.4067
 4501SOL     OW13822   0.446   4.054   4.903 -0.0386  0.1869 -0.2408
 4501SOL    HW113823   0.380   4.105   4.957 -0.1315 -0.6549  0.4517
 4501SOL    HW213824   0.416   3.960   4.893  1.1342 -0.2592  0.2443
 4502SOL     OW13825   4.984   1.950   4.994  0.1207  0.0133 -0.6400
 4502SOL    HW113826   5.082   1.933   5.007  0.2645  0.6582 -0.8512
 4502SOL    HW213827   4.934   1.863   5.001  0.4305 -0.0202  1.9119
 4503SOL     OW13828   4.724   4.177   5.124  0.0887 -0.0042 -0.2353
 4503SOL    HW113829   4.700   4.204   5.217  0.9850 -1.3925  0.4234
 4503SOL    HW213830   4.699   4.081   5.110  2.6648 -0.7050 -0.4149
 4504SOL     OW13831   0.566   3.923   0.194 -0.0338  0.1930  0.0918
 4504SOL    HW113832   0.614   3.977   0.126 -1.0311  0.8167 -0.1452
 4504SOL    HW213833   0.495   3.979   0.238 -0.9006 -0.8234  0.0543
 4505SOL     OW13834   0.006   0.586   1.083  0.4088 -0.1633 -0.0518
 4505SOL    HW113835  -0.025   0.575   0.989  0.0822 -0.6904  0.1087
 4505SOL    HW213836   0.060   0.506   1.110 -2.5103 -1.8451  1.3510
 4506SOL     OW13837   5.164   3.026   1.220  0.4773  0.1337 -0.1308
 4506SOL    HW113838   5.257   2.993   1.204  0.0462 -0.7139 -0.9817
 4506SOL    HW213839   5.113   2.960   1.276  0.1375  0.1868 -0.3700
 4507SOL     OW13840   3.799   3.041   1.036 -0.3578  0.0354 -0.0559
 4507SOL    HW113841   3.828   3.037   1.132 -0.3292  1.3746  0.0156
 4507SOL    HW213842   3.808   2.951   0.994  0.9596 -0.2624  0.8176
 4508SOL     OW13843   4.339   2.870   1.977 -0.5164 -0.6987  0.1756
 4508SOL    HW113844   4.275   2.901   1.907 -0.9281 -0.1051  0.8016
 4508SOL    HW213845   4.290   2.818   2.047  0.0642 -2.2352 -0.5239
 4509SOL     OW13846   2.551   1.554   1.799 -0.9973  0.2934 -0.4998
 4509SOL    HW113847   2.546   1.459   1.831  1.3918  0.1396 -0.3860
 4509SOL    HW213848   2.468   1.603   1.825 -2.0072 -1.6073 -0.0290
 4510SOL     OW13849   3.228   4.326   0.924 -0.1666 -0.0072 -0.0281
 4510SOL    HW113850   3.232   4.229   0.949  1.8969  0.2864  1.0368
 4510SOL    HW213851   3.315   4.352   0.883 -1.4574  0.9327 -2.3181
 4511SOL     OW13852   4.370   1.975   0.887 -0.0543  0.6023 -0.2264
 4511SOL    HW113853   4.300   1.942   0.824 -1.6285 -0.0865  1.7812
 4511SOL    HW213854   4.425   1.897   0.919  0.1478  0.8198 -0.0448
 4512SOL     OW13855   4.826   1.938   5.368  0.1370  0.5839  0.1052
 4512SOL    HW113856   4.905   1.883   5.343 -0.0283 -0.0371  0.9252
 4512SOL    HW213857   4.752   1.879   5.402  0.1760  1.3237  1.5842
 4513SOL     OW13858   0.488   3.429   5.208  0.0068 -0.1871  0.3333
 4513SOL    HW113859   0.516   3.522   5.232  1.7065 -0.7281  0.6017
 4513SOL    HW213860   0.393   3.430   5.176  0.6250  1.9899 -1.7237
 4514SOL     OW13861   2.627   2.117   2.445 -0.3779 -0.4633  0.0656
 4514SOL    HW113862   2.528   2.134   2.446 -0.2562  0.4865  1.9400
 4514SOL    HW213863   2.648   2.045   2.511  0.3253  0.6931  1.1651
 4515SOL     OW13864   1.791   3.502   2.065  0.1192 -0.3994 -0.5230
 4515SOL    HW113865   1.824   3.464   1.979  0.3527 -1.6924  0.1172
 4515SOL    HW213866   1.737   3.433   2.114  0.3628  0.1664  0.5736
 4516SOL     OW13867   4.008   1.816   0.848 -0.3149 -0.0130  0.1063
 4516SOL    HW113868   3.932   1.866   0.807  0.6326  1.7772  0.4184
 4516SOL    HW213869   4.090   1.831   0.794 -0.0220 -1.3517  0.1593
 4517SOL     OW13870   3.623   3.056   2.945 -0.2368  0.4413  0.6902
 4517SOL    HW113871   3.583   2.980   2.895  0.5876  0.9917 -0.8682
 4517SOL    HW213872   3.553   3.101   3.000 -1.0100 -0.6066  0.5819
 4518SOL     OW13873   4.001   2.782   0.206 -0.5016  0.1290 -0.4201
 4518SOL    HW113874   4.093   2.807   0.234 -1.6017  1.2095  2.6270
 4518SOL    HW213875   3.989   2.801   0.109  1.9768  1.4350 -0.5381
 4519SOL     OW13876   1.844   2.227   0.563  0.3942 -0.3482  0.3917
 4519SOL    HW113877   1.771   2.160   0.552 -0.1821  0.2522  0.4973
 4519SOL    HW213878   1.805   2.315   0.592  1.1297  0.0438  0.2296
 4520SOL     OW13879   0.608   0.612   0.838  0.2653  0.2367  0.0987
 4520SOL    HW113880   0.596   0.707   0.812  0.3903  0.0836 -0.5427
 4520SOL    HW213881   0.536   0.557   0.797  0.3448  0.0177  0.2498
 4521SOL     OW13882   3.926   3.551   0.433  0.3738 -0.1649 -0.3008
 4521SOL    HW113883   3.920   3.500   0.348  1.3750 -0.4043 -0.2401
 4521SOL    HW213884   4.001   3.515   0.489  0.1668  0.4245  0.3838
 4522SOL     OW13885   5.203   2.293   1.859 -0.4796  0.1758  0.0351
 4522SOL    HW113886   5.202   2.203   1.902 -2.5431  0.3635  0.4564
 4522SOL    HW213887   5.129   2.349   1.896  0.0795  1.6746 -1.0181
 4523SOL     OW13888   5.095   2.415   1.207 -0.2103  0.2014  0.0315
 4523SOL    HW113889   5.138   2.325   1.220 -1.0551 -0.3473 -0.8190
 4523SOL    HW213890   5.064   2.450   1.295  2.0008  0.6595  0.7002
 4524SOL     OW13891  -0.011   2.919   2.390  0.0955  0.0114  0.4263
 4524SOL    HW113892   0.015   3.006   2.348  1.0350  0.2891  1.5310
 4524SOL    HW213893   0.070   2.862   2.403 -0.1754 -0.1407  1.6496
 4525SOL     OW13894   5.487   3.612   4.569  0.5421  0.3561 -0.3090
 4525SOL    HW113895   5.481   3.548   4.493 -1.2315 -1.0234  0.9055
 4525SOL    HW213896   5.581   3.616   4.602  1.2211  0.5336 -2.1403
 4526SOL     OW13897   4.552   3.409   0.327  0.1712 -0.0535 -0.2465
 4526SOL    HW113898   4.544   3.440   0.232 -0.7447  0.6673  0.0613
 4526SOL    HW213899   4.528   3.483   0.389  0.1627 -0.7021  0.5449
 4527SOL     OW13900   0.095   2.766   4.102  0.1855  0.1260 -0.1753
 4527SOL    HW113901   0.066   2.812   4.186  2.2538  0.8885  0.1677
 4527SOL    HW213902   0.177   2.711   4.121 -0.7366 -1.6939 -1.1658
 4528SOL     OW13903   0.248   3.590   5.064  0.0704 -0.1056 -0.1777
 4528SOL    HW113904   0.174   3.596   5.130  0.3822  0.7967  0.0957
 4528SOL    HW213905   0.229   3.515   5.000 -1.3481  0.4549 -0.4475
 4529SOL     OW13906   4.787   2.180   1.763  0.0622  0.5864 -0.3226
 4529SOL    HW113907   4.739   2.166   1.677  0.1036 -0.1609 -0.2271
 4529SOL    HW213908   4.726   2.224   1.829 -0.6811 -0.8664 -0.0155
 4530SOL     OW13909   3.655   1.512   4.367  0.0228  0.3411 -0.4387
 4530SOL    HW113910   3.698   1.447   4.305 -0.1908  0.1066 -0.3387
 4530SOL    HW213911   3.598   1.576   4.314 -0.1556  0.1442 -0.4855
 4531SOL     OW13912   3.917   3.950   2.138  0.6820 -0.3331  0.7618
 4531SOL    HW113913   3.980   3.927   2.063 -1.7190 -0.4583 -1.3541
 4531SOL    HW213914   3.882   3.866   2.179  0.0094 -0.3207  0.2284
 4532SOL     OW13915   0.558   0.109   2.360  0.1763  0.5893 -0.2081
 4532SOL    HW113916   0.571   0.010   2.350 -1.1868  0.2899  0.6637
 4532SOL    HW213917   0.466   0.133   2.328  0.6369  1.6391 -0.7633
 4533SOL     OW13918   2.433   2.561   5.015  0.6985 -0.1579  0.3787
 4533SOL    HW113919   2.360   2.523   5.071  0.4869 -1.4363 -0.7351
 4533SOL    HW213920   2.404   2.649   4.977  0.6797  0.5128  1.8702
 4534SOL     OW13921   1.308   2.577   0.482  0.4772  0.1247  0.2644
 4534SOL    HW113922   1.365   2.638   0.537 -1.7057  3.1184 -0.5431
 4534SOL    HW213923   1.244   2.529   0.541  0.5818  0.5180  0.7036
 4535SOL     OW13924   4.518   1.793   4.950  0.1064 -0.0526 -0.1900
 4535SOL    HW113925   4.512   1.764   4.854  1.6919  0.0461 -0.3478
 4535SOL    HW213926   4.457   1.738   5.006 -0.9754  0.0078 -1.2802
 4536SOL     OW13927   5.446   4.521   0.737 -0.1041 -0.2927  0.0415
 4536SOL    HW113928   5.479   4.568   0.819  0.6681  0.6113 -0.7588
 4536SOL    HW213929   5.468   4.424   0.743 -0.3099 -0.2885  1.0267
 4537SOL     OW13930   5.088   3.296   4.876 -0.3267 -0.5094  0.2833
 4537SOL    HW113931   5.137   3.248   4.948  1.9351  1.0299 -0.1528
 4537SOL    HW213932   5.060   3.387   4.909  1.3119  0.4729 -0.9187
 4538SOL     OW13933   4.766   1.702   1.061 -0.1564  0.0753 -0.0412
 4538SOL    HW113934   4.799   1.775   1.121 -0.2011  0.5194 -0.5495
 4538SOL    HW213935   4.788   1.613   1.101 -0.3933  0.3654  0.7426
 4539SOL     OW13936   4.102   4.777   0.895  0.4715 -0.0976 -0.8807
 4539SOL    HW113937   4.158   4.842   0.843 -0.3522  1.0859 -0.3279
 4539SOL    HW213938   4.117   4.791   0.993 -0.7547  0.2318 -0.7188
 4540SOL     OW13939   4.274   3.442   0.161 -0.1120 -0.3931  0.2964
 4540SOL    HW113940   4.254   3.354   0.119  1.0668 -0.4759 -0.1096
 4540SOL    HW213941   4.352   3.484   0.116 -0.3959  0.6742  0.7610
 4541SOL     OW13942   0.650   1.864   0.084  0.3860  0.1848 -0.6129
 4541SOL    HW113943   0.634   1.851  -0.014 -1.2504 -2.2994 -0.1206
 4541SOL    HW213944   0.735   1.818   0.110  1.3408  1.6766 -0.9726
 4542SOL     OW13945   4.089   4.496   0.582 -0.6536  0.2079 -0.0151
 4542SOL    HW113946   4.075   4.401   0.553 -0.5924 -0.4271  1.8859
 4542SOL    HW213947   4.176   4.529   0.545  0.2186 -1.1234  0.7423
 4543SOL     OW13948   0.024   3.449   4.877 -0.3758 -0.2119 -0.4803
 4543SOL    HW113949  -0.071   3.435   4.851 -0.3501 -1.2202 -0.0672
 4543SOL    HW213950   0.078   3.472   4.795 -0.7641 -0.8095 -0.9137
 4544SOL     OW13951   3.509   4.789   0.811  0.4137 -0.2013  0.2852
 4544SOL    HW113952   3.535   4.715   0.749 -0.9356 -0.5712  0.1238
 4544SOL    HW213953   3.543   4.769   0.903  0.9066 -0.5296  0.0351
 4545SOL     OW13954   5.192   5.525   5.017 -0.4032 -0.1976  0.4644
 4545SOL    HW113955   5.243   5.526   5.102 -1.2975 -3.3270  1.1603
 4545SOL    HW213956   5.254   5.503   4.941 -0.2902 -1.6900  0.9678
 4546SOL     OW13957   4.816   2.790   2.035 -0.0240 -0.2851  0.0608
 4546SOL    HW113958   4.725   2.821   2.008  0.3594  1.0897  0.2624
 4546SOL    HW213959   4.808   2.731   2.116 -0.7894 -0.8053 -0.3811
 4547SOL     OW13960   4.100   0.656   2.736  0.1100 -0.0333 -0.4270
 4547SOL    HW113961   4.156   0.738   2.726  3.0213 -2.0507 -2.0103
 4547SOL    HW213962   4.058   0.633   2.648 -0.1776 -0.5468 -0.1620
 4548SOL     OW13963   3.687   1.343   0.983  0.2346 -1.1551  0.0967
 4548SOL    HW113964   3.733   1.418   0.936  0.3883 -1.1622  0.2373
 4548SOL    HW213965   3.588   1.358   0.980  0.3387  0.3194  2.1978
 4549SOL     OW13966   2.868   5.499   3.023 -0.1937  0.4820  0.1649
 4549SOL    HW113967   2.800   5.563   3.059  0.0805  0.1295  1.3245
 4549SOL    HW213968   2.888   5.429   3.091  0.8081  0.1601 -0.4428
 4550SOL     OW13969   0.655   2.839   3.363  0.8435  0.8193  0.1652
 4550SOL    HW113970   0.700   2.799   3.443  0.7926  0.8711  0.2206
 4550SOL    HW213971   0.716   2.835   3.285  0.4199 -0.3926 -0.1190
 4551SOL     OW13972   4.999   2.251   3.346  0.6869  0.2309 -0.0924
 4551SOL    HW113973   4.993   2.351   3.341 -0.8959  0.3760  2.7993
 4551SOL    HW213974   4.954   2.212   3.265 -1.5017  1.8879  0.2098
 4552SOL     OW13975   3.538   3.627   2.735  0.0025 -0.3198  0.3091
 4552SOL    HW113976   3.492   3.579   2.660 -0.3520 -0.9354  0.9080
 4552SOL    HW213977   3.469   3.670   2.794  0.1740 -1.2808  1.2350
 4553SOL     OW13978   2.984   2.141   2.018 -0.0815 -0.4073 -0.4310
 4553SOL    HW113979   3.030   2.052   2.027  0.4095 -0.0385  0.9788
 4553SOL    HW213980   2.915   2.150   2.089  1.1489  1.0605  0.6377
 4554SOL     OW13981   1.142   5.564   4.437  0.2342  0.4907 -0.2480
 4554SOL    HW113982   1.130   5.507   4.356  0.4519 -2.4041  1.6071
 4554SOL    HW213983   1.228   5.540   4.483  0.1873  2.1463  0.8077
 4555SOL     OW13984   3.947   1.185   2.386  0.3257  0.0805 -0.3458
 4555SOL    HW113985   3.959   1.113   2.319  0.1525 -0.5627  0.3038
 4555SOL    HW213986   3.925   1.145   2.475 -2.0719  0.9763 -0.4347
 4556SOL     OW13987   4.890   2.186   2.168 -0.5222  0.0252  0.3204
 4556SOL    HW113988   4.827   2.254   2.129  0.5553  0.6435 -0.3805
 4556SOL    HW213989   4.859   2.094   2.144 -1.6413  0.2806  0.7265
 4557SOL     OW13990   4.238   3.049   3.271 -0.3931  0.2922 -0.1405
 4557SOL    HW113991   4.176   3.120   3.238 -0.4305  0.1934 -0.2858
 4557SOL    HW213992   4.195   2.999   3.346 -0.5227  0.1713 -0.2945
 4558SOL     OW13993   5.286   3.011   2.957 -0.6714  0.1070  0.1229
 4558SOL    HW113994   5.309   3.107   2.945  0.3817  0.0454  1.4413
 4558SOL    HW213995   5.209   2.987   2.897 -0.8338  1.7094 -0.3437
 4559SOL     OW13996   4.927   1.300   0.601  0.6969 -0.0991  0.3597
 4559SOL    HW113997   4.897   1.221   0.547  1.1173  0.9592 -1.4861
 4559SOL    HW213998   5.015   1.332   0.566  1.3429  0.2013  2.1646
 4560SOL     OW13999   4.872   3.147   2.232 -0.1265 -0.2733  0.0873
 4560SOL    HW114000   4.921   3.060   2.221 -0.2241 -0.5804  1.8540
 4560SOL    HW214001   4.794   3.149   2.170 -0.1241 -1.4366  0.0205
 4561SOL     OW14002   3.883   3.435   3.107  0.3060 -0.3122  0.4385
 4561SOL    HW114003   3.865   3.499   3.032  1.0260 -1.1590 -0.5005
 4561SOL    HW214004   3.814   3.445   3.178  1.1149  2.3813  0.9279
 4562SOL     OW14005   4.904   2.419   0.708 -0.4242 -0.2030  0.1985
 4562SOL    HW114006   4.932   2.506   0.748  1.5611 -0.3506 -0.7851
 4562SOL    HW214007   4.855   2.436   0.622 -0.0442 -0.0554  0.0112
 4563SOL     OW14008   5.025   1.968   1.700  0.1369  0.4843  0.3911
 4563SOL    HW114009   5.057   1.958   1.794 -0.1387 -4.0199  0.2292
 4563SOL    HW214010   4.925   1.970   1.698  0.0312 -1.8794  0.2173
 4564SOL     OW14011   3.558   2.821   2.829  0.1092  0.5882 -0.8871
 4564SOL    HW114012   3.600   2.764   2.899  0.6189  1.4104 -0.5003
 4564SOL    HW214013   3.467   2.786   2.807 -0.0375  0.2824  0.1522
 4565SOL     OW14014   4.795   4.509   2.500  0.5732  0.1817 -0.0391
 4565SOL    HW114015   4.803   4.603   2.466  0.3319 -0.0491 -0.7622
 4565SOL    HW214016   4.732   4.507   2.577  1.5795  0.8121  0.8188
 4566SOL     OW14017   5.080   2.519   3.318 -0.7420  0.4500  0.5706
 4566SOL    HW114018   5.134   2.596   3.283 -0.4505 -0.6918 -1.6447
 4566SOL    HW214019   5.113   2.493   3.408  1.5284  0.6703 -0.1385
 4567SOL     OW14020   3.514   2.410   1.124 -0.4557  0.0025 -0.6359
 4567SOL    HW114021   3.445   2.483   1.122 -0.7956 -0.3141 -2.4055
 4567SOL    HW214022   3.550   2.401   1.217 -1.3956  1.4842 -0.0818
 4568SOL     OW14023   2.538   3.685   2.430  0.0078  0.3798  0.0526
 4568SOL    HW114024   2.582   3.625   2.363  0.6975  0.3868  0.4881
 4568SOL    HW214025   2.502   3.630   2.505  0.6778  0.5051  0.4733
 4569SOL     OW14026   4.051   4.950   1.582  0.2269 -0.6571  0.0259
 4569SOL    HW114027   3.959   4.965   1.546  0.4571 -1.4685 -0.9161
 4569SOL    HW214028   4.100   5.037   1.586 -1.5889  0.3758  3.4978
 4570SOL     OW14029   0.331   2.936   2.989 -0.4139  0.9478 -0.0854
 4570SOL    HW114030   0.293   2.935   3.081  2.0191 -0.5544  1.0015
 4570SOL    HW214031   0.264   2.975   2.926 -3.2922 -0.5883  1.7996
 4571SOL     OW14032   0.494   3.355   3.051  0.0693  0.8558 -0.0781
 4571SOL    HW114033   0.460   3.351   3.145  1.2504  0.9183  0.3741
 4571SOL    HW214034   0.512   3.262   3.018  0.9569  0.8903  0.2725
 4572SOL     OW14035   1.528   3.762   1.545 -0.4967 -0.2828 -0.4324
 4572SOL    HW114036   1.521   3.722   1.637 -0.5988 -0.5484 -0.5540
 4572SOL    HW214037   1.549   3.860   1.553  0.0387 -0.4203 -0.1408
 4573SOL     OW14038   3.509   1.020   4.226 -0.0608 -0.1946 -0.0049
 4573SOL    HW114039   3.591   0.972   4.257 -0.4806 -0.4189  0.8080
 4573SOL    HW214040   3.428   0.976   4.266 -0.4151  1.8843  1.7401
 4574SOL     OW14041   5.034   3.569   2.149  0.6062 -0.0405  0.5213
 4574SOL    HW114042   5.028   3.482   2.099 -0.0354  0.3972 -0.1970
 4574SOL    HW214043   5.008   3.554   2.244  0.3696 -0.6160  0.3727
 4575SOL     OW14044   4.908   2.721   5.161  0.1409 -0.0101 -0.2944
 4575SOL    HW114045   4.895   2.704   5.064 -1.2863 -1.6408  0.1249
 4575SOL    HW214046   4.966   2.649   5.200  0.0807  0.2011  0.1932
 4576SOL     OW14047   4.167   3.231   0.489  0.4394 -0.6144 -0.4553
 4576SOL    HW114048   4.217   3.181   0.418  0.6039  0.1944 -0.9230
 4576SOL    HW214049   4.209   3.320   0.503 -0.1598 -0.3937 -0.0092
 4577SOL     OW14050   3.702   2.114   2.487 -0.1549  0.1747  0.4830
 4577SOL    HW114051   3.661   2.156   2.406 -0.4583  1.7369  1.4151
 4577SOL    HW214052   3.767   2.178   2.529  1.1979 -1.2038  0.6092
 4578SOL     OW14053   4.762   3.916   1.655  0.4300 -0.2393  0.2341
 4578SOL    HW114054   4.811   3.850   1.712 -0.2071  0.2783  1.4378
 4578SOL    HW214055   4.698   3.867   1.596  0.7006 -0.7631  0.3669
 4579SOL     OW14056   4.392   4.282   2.474 -0.1804  0.1265  0.0809
 4579SOL    HW114057   4.471   4.234   2.437  0.2445  2.4007 -2.2005
 4579SOL    HW214058   4.410   4.308   2.569  1.3818 -0.3228 -0.0748
 4580SOL     OW14059   0.098   3.065   2.829  0.0512 -0.8582 -0.0122
 4580SOL    HW114060   0.041   3.059   2.911 -0.3983  0.7567 -0.1850
 4580SOL    HW214061   0.072   2.994   2.765 -0.2075 -1.5717  0.8615
 4581SOL     OW14062   2.101   4.381   2.861  0.2517 -0.0665 -0.7033
 4581SOL    HW114063   2.143   4.471   2.872 -0.7831  0.2101  1.3329
 4581SOL    HW214064   2.041   4.382   2.781  1.8318  0.3712 -1.9530
 4582SOL     OW14065   0.424   3.211   2.300  0.5809 -0.2744 -0.1614
 4582SOL    HW114066   0.356   3.189   2.370  1.9041 -0.8536  0.9837
 4582SOL    HW214067   0.389   3.284   2.242 -0.4167  0.4701  1.3153
 4583SOL     OW14068   4.999   4.059   1.015  0.2417  0.3225  0.4847
 4583SOL    HW114069   4.944   3.992   1.063 -1.8237  2.5253  1.4070
 4583SOL    HW214070   4.960   4.076   0.924 -0.0557  1.1762  0.7587
 4584SOL     OW14071   0.296   2.973   2.143  0.1279 -0.1444  0.5021
 4584SOL    HW114072   0.357   3.045   2.110  0.5186 -0.4118  0.6368
 4584SOL    HW214073   0.337   2.929   2.223 -0.0343 -0.6199  0.3265
 4585SOL     OW14074   4.560   1.786   2.567  0.1904 -0.1176  0.4580
 4585SOL    HW114075   4.482   1.741   2.611  1.3148 -1.4108  1.2192
 4585SOL    HW214076   4.597   1.727   2.496  0.2556  0.6559 -0.1667
 4586SOL     OW14077   3.141   1.209   4.225  0.4296 -0.4987  0.2444
 4586SOL    HW114078   3.134   1.152   4.307 -0.4332  0.4804  0.8903
 4586SOL    HW214079   3.144   1.306   4.252  0.5292 -0.1746 -0.8679
 4587SOL     OW14080   4.007   2.774   3.319 -0.4515  0.0446  0.4584
 4587SOL    HW114081   4.043   2.717   3.245 -0.0733  0.3081  0.4408
 4587SOL    HW214082   3.965   2.856   3.279  0.6253  0.6756  0.5806
 4588SOL     OW14083   4.207   2.181   1.570 -0.3823 -0.0633  0.0273
 4588SOL    HW114084   4.282   2.240   1.600  1.0362 -1.0651 -1.3576
 4588SOL    HW214085   4.171   2.214   1.482  0.5288 -1.2855 -0.8397
 4589SOL     OW14086   0.052   1.854   2.376 -0.2236 -0.1560 -0.3442
 4589SOL    HW114087   0.091   1.924   2.317  0.3955 -0.5923 -0.4724
 4589SOL    HW214088  -0.033   1.820   2.337  1.1794 -1.8832 -2.1098
 4590SOL     OW14089   3.622   1.967   3.579  0.3384  0.4923 -0.0016
 4590SOL    HW114090   3.532   1.947   3.542  1.2836 -2.1290 -1.0982
 4590SOL    HW214091   3.629   1.929   3.671  0.8421 -0.8634 -0.5761
 4591SOL     OW14092   3.856   3.042   2.364  0.2211 -0.7960  0.3072
 4591SOL    HW114093   3.805   3.102   2.425  2.5670  2.0607 -0.2940
 4591SOL    HW214094   3.925   2.992   2.415  0.1785 -0.7590  0.4003
 4592SOL     OW14095   3.444   2.303   2.795 -0.3286  0.3182  0.2828
 4592SOL    HW114096   3.463   2.331   2.889 -1.5873  0.4364  0.5178
 4592SOL    HW214097   3.468   2.378   2.733 -0.1906  0.5225  0.5779
 4593SOL     OW14098   3.592   4.198   2.276 -0.2250  0.2321  0.3581
 4593SOL    HW114099   3.569   4.241   2.363  2.8505  1.2779  0.7965
 4593SOL    HW214100   3.682   4.229   2.247 -1.0814 -0.1884 -3.1834
 4594SOL     OW14101   4.461   2.898   4.702 -0.1517 -0.5857 -0.6250
 4594SOL    HW114102   4.444   2.802   4.682 -0.4368 -0.4324 -1.1328
 4594SOL    HW214103   4.558   2.911   4.723  0.0894 -0.8194 -1.5448
 4595SOL     OW14104   4.263   3.770   1.612  0.2806 -0.2748  0.3844
 4595SOL    HW114105   4.240   3.695   1.550 -0.7219 -0.0533  0.4607
 4595SOL    HW214106   4.200   3.847   1.595  0.6413  0.1649  0.9941
 4596SOL     OW14107   3.883   1.171   3.936  0.3291  0.3541  0.8558
 4596SOL    HW114108   3.930   1.163   4.024  0.5077 -1.2278  0.6548
 4596SOL    HW214109   3.788   1.142   3.946  0.3159  0.2899  0.5512
 4597SOL     OW14110   4.594   2.917   1.886 -0.4974 -0.7269 -0.0182
 4597SOL    HW114111   4.500   2.909   1.921 -0.5043  1.0656  0.4635
 4597SOL    HW214112   4.592   2.926   1.787 -0.7416 -1.7801 -0.1241
 4598SOL     OW14113   5.159   2.795   4.057  0.0744 -0.4293  0.3128
 4598SOL    HW114114   5.249   2.751   4.046 -0.1420 -0.7187 -0.3714
 4598SOL    HW214115   5.089   2.738   4.014 -0.3843 -0.0039  0.4935
 4599SOL     OW14116   0.370   1.244   1.515 -0.1902 -0.2557 -0.0538
 4599SOL    HW114117   0.423   1.246   1.600  4.1948  0.3102 -2.4778
 4599SOL    HW214118   0.325   1.332   1.501 -0.6262 -0.2213  1.4267
 4600SOL     OW14119   5.197   4.018   3.644 -0.0112 -0.2295 -0.3169
 4600SOL    HW114120   5.125   3.958   3.680 -0.0655  0.1530  0.2208
 4600SOL    HW214121   5.286   3.990   3.681 -0.2462  1.1174  1.4114
 4601SOL     OW14122   5.465   4.363   3.157 -0.7205  0.6858 -0.0930
 4601SOL    HW114123   5.467   4.279   3.102 -1.3483  0.1845  0.6366
 4601SOL    HW214124   5.461   4.443   3.096  1.2586  0.2654 -0.8250
 4602SOL     OW14125   5.505   3.048   3.123  0.3844  0.3712 -0.1938
 4602SOL    HW114126   5.492   3.133   3.174 -0.2893  1.1289 -1.5767
 4602SOL    HW214127   5.416   3.015   3.091  0.6897 -0.6344 -0.0266
 4603SOL     OW14128   4.711   3.048   3.140  0.3225 -0.0798 -1.0330
 4603SOL    HW114129   4.670   3.059   3.049  1.3106  0.8499 -1.3854
 4603SOL    HW214130   4.788   3.110   3.149 -0.3348  0.5302  0.8052
 4604SOL     OW14131   4.747   4.684   3.095  0.3412  0.1822  0.3612
 4604SOL    HW114132   4.795   4.618   3.153  0.9037  0.1452 -0.1339
 4604SOL    HW214133   4.733   4.769   3.146  0.8555  0.1625  0.5416
 4605SOL     OW14134   2.595   1.600   3.088  0.1848  0.0104 -0.2771
 4605SOL    HW114135   2.638   1.650   3.012  2.8556 -0.2159  0.9795
 4605SOL    HW214136   2.666   1.554   3.142 -1.8785 -2.1545  0.7536
 4606SOL     OW14137   4.051   2.500   2.516  0.0148 -0.8688 -0.6191
 4606SOL    HW114138   4.094   2.468   2.432  0.1329  0.9694 -1.3243
 4606SOL    HW214139   4.119   2.500   2.590  0.7781  0.2811 -1.2758
 4607SOL     OW14140   5.006   5.014   1.961  0.0189 -0.3578 -0.2007
 4607SOL    HW114141   4.971   5.099   1.999  1.8408  0.9832 -1.3416
 4607SOL    HW214142   5.089   4.987   2.011 -0.2871 -1.2250 -0.1392
 4608SOL     OW14143   4.525   4.154   2.914 -0.4066  0.5281 -0.1654
 4608SOL    HW114144   4.500   4.106   2.830  0.8607 -0.7803  0.1779
 4608SOL    HW214145   4.605   4.211   2.898  0.2333 -0.2226  0.2939
 4609SOL     OW14146   3.666   3.518   0.926 -0.0620 -0.1268 -0.4992
 4609SOL    HW114147   3.678   3.424   0.959  0.1090  0.6930  1.9707
 4609SOL    HW214148   3.753   3.553   0.890  0.1996 -0.4640 -0.1925
 4610SOL     OW14149   3.978   3.149   2.715  0.0041 -0.2453  0.1243
 4610SOL    HW114150   4.029   3.121   2.796  0.8666 -0.9968 -0.6597
 4610SOL    HW214151   3.983   3.077   2.646 -0.4029  0.5370 -0.7412
 4611SOL     OW14152   3.123   3.961   3.939 -0.4089 -0.1043 -0.7022
 4611SOL    HW114153   3.101   3.995   4.030  0.3228 -3.1315  0.7295
 4611SOL    HW214154   3.040   3.926   3.896 -0.6913  1.0045 -1.0969
 4612SOL     OW14155   0.022   0.651   2.022 -0.1059  0.8034  0.2373
 4612SOL    HW114156   0.103   0.652   2.082  1.1428  1.7535 -1.3731
 4612SOL    HW214157  -0.059   0.673   2.076  0.3042 -2.1675  2.3441
 4613SOL     OW14158   4.366   3.800   1.861  0.4559 -0.5500  0.1293
 4613SOL    HW114159   4.335   3.756   1.777  0.5457 -1.6343  0.6339
 4613SOL    HW214160   4.425   3.736   1.911  0.2429  0.0060  1.1064
 4614SOL     OW14161   4.796   1.591   3.215 -0.0528 -0.2243 -0.7129
 4614SOL    HW114162   4.731   1.624   3.145 -0.0466 -1.6227 -1.4173
 4614SOL    HW214163   4.765   1.502   3.249  1.0083 -0.4709 -0.3714
 4615SOL     OW14164   4.789   4.550   4.258 -0.4148  0.6544 -0.4843
 4615SOL    HW114165   4.882   4.567   4.226 -0.1540 -0.4877 -0.3718
 4615SOL    HW214166   4.758   4.628   4.313  1.1836  0.2871  1.0345
 4616SOL     OW14167   0.659   1.911   4.341 -0.5660 -0.5503  0.2008
 4616SOL    HW114168   0.622   1.843   4.405 -2.5458  0.4420  0.2113
 4616SOL    HW214169   0.628   1.889   4.249  0.7178 -0.9275 -0.1529
 4617SOL     OW14170   4.426   4.053   4.393  0.1197  0.0349  0.0976
 4617SOL    HW114171   4.488   4.013   4.460  0.4984 -1.1616 -0.9323
 4617SOL    HW214172   4.479   4.106   4.326 -0.0538 -0.2469 -0.2689
 4618SOL     OW14173   3.975   4.382   2.804  0.6875  0.3622  0.4628
 4618SOL    HW114174   4.041   4.449   2.840 -0.2810  0.6166  1.8208
 4618SOL    HW214175   3.982   4.297   2.855 -0.2586  0.5084  0.8604
 4619SOL     OW14176   4.499   2.322   2.877  0.4143  0.0294  0.0687
 4619SOL    HW114177   4.567   2.255   2.905  0.2826 -0.1659 -0.0722
 4619SOL    HW214178   4.536   2.379   2.803  1.1820  1.2987  1.3742
 4620SOL     OW14179   5.355   1.845   2.938  0.1130  0.3011 -0.0596
 4620SOL    HW114180   5.412   1.833   3.020  0.4305  1.5255 -0.0797
 4620SOL    HW214181   5.391   1.787   2.864 -1.1184 -2.0324  1.0804
 4621SOL     OW14182   5.366   0.871   3.088  0.4263  0.0547 -0.6206
 4621SOL    HW114183   5.302   0.939   3.052  0.2050 -0.0905 -0.5057
 4621SOL    HW214184   5.356   0.866   3.187  0.1109 -0.4734 -0.6715
 4622SOL     OW14185   3.684   1.850   1.700  0.1715  0.0686  0.1996
 4622SOL    HW114186   3.703   1.940   1.659  0.1326  0.0145  0.0629
 4622SOL    HW214187   3.769   1.798   1.706  0.2538  0.2461  0.5968
 4623SOL     OW14188   4.072   1.534   2.650 -0.8194  0.0523 -0.0018
 4623SOL    HW114189   4.127   1.470   2.704 -0.8414 -1.3000 -1.4871
 4623SOL    HW214190   3.987   1.554   2.697 -0.6237 -0.7006  0.6959
 4624SOL     OW14191   5.508   3.921   3.415  0.1317  0.2027 -0.5082
 4624SOL    HW114192   5.566   4.002   3.409 -0.2178  0.3708 -1.8661
 4624SOL    HW214193   5.533   3.868   3.496  1.0645  1.1211 -0.1802
 4625SOL     OW14194   4.377   3.703   3.009  0.8802 -0.3183  0.1154
 4625SOL    HW114195   4.354   3.635   2.939  0.3337 -0.5175  0.4867
 4625SOL    HW214196   4.293   3.742   3.047  1.1932  0.6574 -0.1804
 4626SOL     OW14197   4.774   2.794   3.213 -0.0478 -0.3743 -0.6838
 4626SOL    HW114198   4.805   2.775   3.306 -2.2832 -0.2873  0.1331
 4626SOL    HW214199   4.761   2.892   3.201  2.3262 -0.1190 -1.8614
 4627SOL     OW14200   3.890   4.685   1.579 -0.0903 -0.0307 -0.4075
 4627SOL    HW114201   3.817   4.650   1.638 -0.1991  0.3333 -0.3221
 4627SOL    HW214202   3.932   4.765   1.623 -1.7489  1.7615 -1.8780
 4628SOL     OW14203   3.554   1.503   4.042  0.6939 -0.0535  0.1500
 4628SOL    HW114204   3.501   1.552   3.973 -0.3088 -1.8549 -0.4228
 4628SOL    HW214205   3.650   1.498   4.012  0.6537  0.8176 -0.1653
 4629SOL     OW14206   3.991   1.667   2.237 -0.7125  0.3589 -0.0835
 4629SOL    HW114207   4.069   1.720   2.270  1.2908 -3.4430  1.9202
 4629SOL    HW214208   3.916   1.674   2.302 -0.4618  0.7117  0.1699
 4630SOL     OW14209   5.013   1.452   1.149  0.9859 -0.1807 -0.0267
 4630SOL    HW114210   5.004   1.475   1.052 -1.8191 -0.7286  0.0161
 4630SOL    HW214211   5.057   1.528   1.197  1.3940  0.5774 -1.5406
 4631SOL     OW14212   1.181   2.754   2.040  0.3422 -0.3160  0.3321
 4631SOL    HW114213   1.167   2.797   2.129 -1.2453 -0.0807  0.0086
 4631SOL    HW214214   1.094   2.753   1.990  0.9698 -1.3844 -0.7957
 4632SOL     OW14215   4.277   3.093   2.176 -0.2183  0.3372  0.8879
 4632SOL    HW114216   4.328   3.121   2.095 -0.6122 -0.1371  0.4656
 4632SOL    HW214217   4.202   3.157   2.192  0.2007  0.7523  1.2170
 4633SOL     OW14218   5.523   1.664   4.162 -0.0675 -0.1996  0.0509
 4633SOL    HW114219   5.472   1.600   4.105 -1.3918 -0.4233  1.4000
 4633SOL    HW214220   5.575   1.613   4.231  0.1622  0.1195  0.1177
 4634SOL     OW14221   4.884   1.941   1.154  0.2412 -0.3268 -0.1726
 4634SOL    HW114222   4.889   1.979   1.246  1.6913 -1.2711  0.1636
 4634SOL    HW214223   4.966   1.965   1.103  1.1699 -2.7774  0.0146
 4635SOL     OW14224   3.461   2.889   3.194 -0.1281  0.0284 -0.7530
 4635SOL    HW114225   3.424   2.980   3.177 -0.2356  0.4805  1.5588
 4635SOL    HW214226   3.487   2.881   3.291  1.3306 -1.8859 -1.2339
 4636SOL     OW14227   0.238   3.964   2.146 -0.2782  0.0696  0.0843
 4636SOL    HW114228   0.315   4.013   2.107  0.1340 -0.0011  0.7898
 4636SOL    HW214229   0.154   3.990   2.099 -0.0575  1.3854  0.3783
 4637SOL     OW14230   5.108   1.292   2.326 -1.0994 -0.0672 -0.1873
 4637SOL    HW114231   5.019   1.262   2.292 -2.1602  2.2733  0.2954
 4637SOL    HW214232   5.139   1.372   2.274 -0.5963  0.7878  1.3503
 4638SOL     OW14233   4.752   2.961   2.620 -0.4369  0.4267  0.6358
 4638SOL    HW114234   4.833   2.925   2.666 -0.1332  0.2382 -0.0446
 4638SOL    HW214235   4.779   3.034   2.558 -0.4359 -1.3061 -1.5032
 4639SOL     OW14236   1.105   2.513   3.049  0.3648 -0.1090  0.0071
 4639SOL    HW114237   1.157   2.598   3.033  0.0487 -0.1617 -1.4351
 4639SOL    HW214238   1.144   2.440   2.994 -0.6423 -0.3893 -0.3461
 4640SOL     OW14239   4.415   2.293   1.710 -0.1445 -0.5960 -0.3837
 4640SOL    HW114240   4.422   2.202   1.750  0.2339 -0.7939 -0.8911
 4640SOL    HW214241   4.505   2.338   1.713  0.2134 -1.1072 -2.1374
 4641SOL     OW14242   4.488   4.660   1.835 -0.2202 -0.6486  0.0256
 4641SOL    HW114243   4.559   4.710   1.785  0.8282 -1.2330  0.8868
 4641SOL    HW214244   4.425   4.617   1.770 -0.7918  1.2445 -0.7378
 4642SOL     OW14245   4.105   3.748   3.122 -0.3107  0.3620  0.0695
 4642SOL    HW114246   4.105   3.848   3.122 -2.2189  0.4724 -2.7578
 4642SOL    HW214247   4.027   3.715   3.175 -0.7530  0.4661 -0.5033
 4643SOL     OW14248   0.169   3.348   3.144  0.5248 -0.1817  0.0324
 4643SOL    HW114249   0.104   3.319   3.213  0.8523  1.1463  0.9392
 4643SOL    HW214250   0.262   3.333   3.178  0.6963  1.3433  0.3068
 4644SOL     OW14251   3.849   3.327   1.307 -0.2591 -0.2312  0.3681
 4644SOL    HW114252   3.874   3.394   1.377 -0.2732 -0.2167  0.3593
 4644SOL    HW214253   3.920   3.326   1.236 -0.3037 -0.1601  0.3221
 4645SOL     OW14254   1.699   3.683   3.709 -0.0488 -0.0358 -0.6717
 4645SOL    HW114255   1.676   3.591   3.679 -1.1991  0.1781 -0.4716
 4645SOL    HW214256   1.785   3.681   3.761  0.3945 -0.8502 -1.4213
 4646SOL     OW14257   5.458   4.074   2.353  0.0295  0.0821  0.1201
 4646SOL    HW114258   5.500   4.079   2.262  2.6797 -3.5259  0.8934
 4646SOL    HW214259   5.478   4.158   2.403  2.8481  0.2124 -1.0378
 4647SOL     OW14260   4.068   3.203   2.267 -0.7826 -0.2110 -0.5590
 4647SOL    HW114261   4.012   3.128   2.301 -0.8324 -0.5112 -1.2838
 4647SOL    HW214262   4.019   3.289   2.279 -1.4679 -0.4855 -1.3124
 4648SOL     OW14263   5.339   0.801   2.091  0.5429 -0.1130  0.2026
 4648SOL    HW114264   5.264   0.809   2.025  0.0618 -0.5468  0.6835
 4648SOL    HW214265   5.398   0.881   2.084  0.6755 -0.2876 -0.9601
 4649SOL     OW14266   3.731   3.237   2.674  0.2639  0.5608  0.0476
 4649SOL    HW114267   3.831   3.232   2.680  0.2625  0.2792 -0.1353
 4649SOL    HW214268   3.690   3.187   2.751  0.2667  0.9074  0.2719
 4650SOL     OW14269   3.839   2.440   1.276  0.0003 -0.3908 -0.0629
 4650SOL    HW114270   3.922   2.473   1.321 -1.0555 -0.8682  2.3655
 4650SOL    HW214271   3.859   2.424   1.179  2.3001  0.9646  0.0958
 4651SOL     OW14272   4.023   3.854   3.542  0.0142 -0.4095  0.3788
 4651SOL    HW114273   4.097   3.904   3.497  1.0915 -0.6581  1.8062
 4651SOL    HW214274   3.948   3.917   3.564  0.6104  0.2263  0.6066
 4652SOL     OW14275   1.328   2.276   2.252 -0.3914 -0.1615  0.0619
 4652SOL    HW114276   1.307   2.367   2.217  0.8930 -0.4359 -1.5462
 4652SOL    HW214277   1.339   2.281   2.352 -1.1683  1.2569  0.1056
 4653SOL     OW14278   4.339   4.052   3.723  0.0268  0.3259  0.4076
 4653SOL    HW114279   4.255   4.078   3.675 -0.3343 -1.2222  0.1491
 4653SOL    HW214280   4.405   4.128   3.718 -1.0174  1.2313 -0.1362
 4654SOL     OW14281   4.179   0.066   3.728 -0.2526  0.0091 -0.1244
 4654SOL    HW114282   4.099   0.023   3.769  0.7132 -0.5204  1.2595
 4654SOL    HW214283   4.186   0.161   3.757  1.1887 -0.7298  2.1867
 4655SOL     OW14284   2.231   4.263   3.289 -0.6598 -0.4751  0.0696
 4655SOL    HW114285   2.293   4.311   3.226 -0.5468 -1.0771 -0.2799
 4655SOL    HW214286   2.285   4.214   3.357 -0.7756 -0.1970  0.3660
 4656SOL     OW14287   4.495   2.927   2.570 -0.5979 -0.1189 -0.2594
 4656SOL    HW114288   4.456   2.851   2.623 -0.7901  0.7382  0.8857
 4656SOL    HW214289   4.594   2.929   2.583 -0.1128 -2.0999 -2.9092
 4657SOL     OW14290   1.031   1.420   4.041  0.4341  0.0359  0.0267
 4657SOL    HW114291   0.999   1.419   4.136 -0.4978  0.2889 -0.2839
 4657SOL    HW214292   0.953   1.420   3.979  1.0390 -0.5523 -0.7541
 4658SOL     OW14293   0.790   2.270   4.360  0.5535  0.5135  0.0419
 4658SOL    HW114294   0.745   2.297   4.445 -0.0797 -2.2753  0.7235
 4658SOL    HW214295   0.721   2.246   4.292  0.9406 -1.2755  0.2171
 4659SOL     OW14296   0.016   4.119   4.081  0.2740  0.0833 -0.1189
 4659SOL    HW114297   0.064   4.180   4.145  1.8935 -1.6413  0.3961
 4659SOL    HW214298  -0.065   4.165   4.046  1.4890  2.5720  0.1432
 4660SOL     OW14299   4.451   2.647   2.219 -0.0914  0.5253 -0.4102
 4660SOL    HW114300   4.373   2.708   2.235  0.4528  1.2344 -0.3751
 4660SOL    HW214301   4.448   2.611   2.126 -0.7650  0.1003 -0.2240
 4661SOL     OW14302   4.141   2.044   2.522 -0.4705 -0.4392 -0.3162
 4661SOL    HW114303   4.104   2.075   2.609  1.5174 -0.9450  0.7707
 4661SOL    HW214304   4.152   1.945   2.523  1.4539 -0.2710 -0.2953
 4662SOL     OW14305   4.713   1.474   2.154 -0.8145 -0.3325  0.2656
 4662SOL    HW114306   4.763   1.388   2.151 -1.2475 -0.6334  1.4340
 4662SOL    HW214307   4.644   1.475   2.082  2.0909  0.9217 -2.8146
 4663SOL     OW14308   3.122   1.536   1.480 -0.0782  0.0605  0.2370
 4663SOL    HW114309   3.220   1.518   1.483  0.4802  2.3833 -1.4668
 4663SOL    HW214310   3.096   1.567   1.388 -2.0440  1.3617  1.1633
 4664SOL     OW14311   3.189   3.311   2.891  0.1740  0.3624 -0.2429
 4664SOL    HW114312   3.205   3.226   2.940 -0.7233  1.0159  1.2494
 4664SOL    HW214313   3.256   3.379   2.920 -0.4049  0.7750  0.1428
 4665SOL     OW14314   3.810   3.639   2.743  0.3117  0.2861  0.1587
 4665SOL    HW114315   3.834   3.678   2.654  1.5198 -2.0324 -0.6043
 4665SOL    HW214316   3.718   3.600   2.738  0.6451 -0.4592 -0.3117
 4666SOL     OW14317   0.386   2.746   5.464  0.0098 -0.1595 -0.6518
 4666SOL    HW114318   0.364   2.650   5.448  1.3833 -0.1298 -3.2677
 4666SOL    HW214319   0.321   2.803   5.413  0.1059  0.2583 -0.3058
 4667SOL     OW14320   5.047   4.550   1.877  0.2262 -0.1788 -0.2495
 4667SOL    HW114321   5.023   4.484   1.948 -0.7805  0.1243 -0.2950
 4667SOL    HW214322   5.061   4.502   1.790 -2.1265 -0.2236 -0.6736
 4668SOL     OW14323   5.009   2.267   3.805 -0.1454  0.0520 -0.4213
 4668SOL    HW114324   5.089   2.291   3.750 -0.9038 -0.3971 -1.7814
 4668SOL    HW214325   5.022   2.299   3.899  1.0229  1.2255 -0.9439
 4669SOL     OW14326   4.615   2.412   1.845  0.2325  0.0442  0.4344
 4669SOL    HW114327   4.666   2.481   1.793 -1.3025 -0.9424 -2.5910
 4669SOL    HW214328   4.538   2.456   1.891  0.1282  0.5774 -0.2297
 4670SOL     OW14329   3.752   4.936   2.656  0.6494 -0.1639 -0.0179
 4670SOL    HW114330   3.844   4.947   2.618  0.4321  0.3690 -0.4141
 4670SOL    HW214331   3.752   4.862   2.723  1.8735  1.2247  1.5969
 4671SOL     OW14332   4.774   4.537   3.334  0.1502  0.3797  0.4847
 4671SOL    HW114333   4.838   4.472   3.375 -0.6834 -1.3419 -0.8261
 4671SOL    HW214334   4.681   4.500   3.340 -0.2247  0.9895 -1.1504
 4672SOL     OW14335   3.422   2.536   3.710 -0.6667 -0.5135 -0.1269
 4672SOL    HW114336   3.396   2.581   3.796 -1.9042 -0.5940 -0.4458
 4672SOL    HW214337   3.498   2.474   3.727 -0.2662  0.1781  0.7220
 4673SOL     OW14338   4.097   2.523   1.305  0.4627 -0.2696 -0.4265
 4673SOL    HW114339   4.073   2.588   1.377  2.1293  0.9783 -0.9481
 4673SOL    HW214340   4.191   2.539   1.275  1.3324 -3.5400  0.0950
 4674SOL     OW14341   5.199   3.118   2.414 -0.1335 -0.7208  0.2162
 4674SOL    HW114342   5.119   3.068   2.380 -0.2591 -0.3959  0.0281
 4674SOL    HW214343   5.246   3.063   2.482  0.2232 -1.4659 -0.6061
 4675SOL     OW14344   5.070   5.225   3.174  0.1561  0.5046  0.1728
 4675SOL    HW114345   4.988   5.273   3.205 -2.6829 -1.8990 -2.8606
 4675SOL    HW214346   5.118   5.185   3.252 -1.8904  1.4855  2.0093
 4676SOL     OW14347   3.208   1.980   1.938 -0.3157 -0.0958 -0.0416
 4676SOL    HW114348   3.224   1.924   1.856  1.4754 -1.8318  1.4020
 4676SOL    HW214349   3.233   2.074   1.919  0.2529 -0.5027 -1.4463
 4677SOL     OW14350   3.686   1.547   4.654  0.3619 -0.5732  0.1376
 4677SOL    HW114351   3.670   1.530   4.556 -0.8503 -1.1176  0.4079
 4677SOL    HW214352   3.616   1.499   4.707  1.1034 -0.4049  1.2872
 4678SOL     OW14353   0.771   1.540   3.456 -0.5770 -0.0591  0.2029
 4678SOL    HW114354   0.683   1.581   3.434 -0.6508  0.0486  0.6775
 4678SOL    HW214355   0.805   1.579   3.542 -0.4883 -0.7317  0.4835
 4679SOL     OW14356   3.932   2.094   3.962 -0.1851 -0.0673 -0.0547
 4679SOL    HW114357   3.919   2.077   3.865  0.5724  1.7882 -0.5294
 4679SOL    HW214358   3.863   2.045   4.015  0.1486 -2.1344 -1.4019
 4680SOL     OW14359   4.196   3.169   1.671 -0.2013  0.6282  0.6115
 4680SOL    HW114360   4.174   3.224   1.752 -0.8798 -0.0579  0.9122
 4680SOL    HW214361   4.188   3.072   1.694 -2.1904  0.4114 -0.7168
 4681SOL     OW14362   3.660   4.228   3.315 -0.0500  0.0691  0.5619
 4681SOL    HW114363   3.690   4.188   3.228 -0.3427  0.3531  0.3263
 4681SOL    HW214364   3.739   4.266   3.363  0.1536 -0.3356  0.5484
 4682SOL     OW14365   2.076   5.068   2.237 -0.5045  0.1146 -0.0458
 4682SOL    HW114366   2.162   5.032   2.199  0.4045  0.9427  1.1516
 4682SOL    HW214367   2.058   5.024   2.325  0.0116  1.7083  0.8831
 4683SOL     OW14368   0.100   2.353   2.528  0.1623 -0.5506  0.0936
 4683SOL    HW114369   0.131   2.337   2.622 -0.1150  0.9811  0.4728
 4683SOL    HW214370   0.047   2.437   2.524 -2.4080 -2.1110 -0.9053
 4684SOL     OW14371   3.143   1.849   4.351  0.4430  0.6877 -0.4264
 4684SOL    HW114372   3.234   1.835   4.389  0.7995  1.3570 -1.0264
 4684SOL    HW214373   3.081   1.778   4.387  0.5621  1.7151  2.0078
 4685SOL     OW14374   2.755   0.639   2.778 -0.1827 -0.1520  0.2936
 4685SOL    HW114375   2.828   0.685   2.728 -0.7159  0.9493  0.5006
 4685SOL    HW214376   2.793   0.589   2.856  0.3486  0.3645  0.3640
 4686SOL     OW14377   4.867   1.447   2.573 -0.1355 -0.2505  0.4859
 4686SOL    HW114378   4.855   1.355   2.537  0.1058 -0.5731  1.2242
 4686SOL    HW214379   4.814   1.512   2.517 -0.3540 -0.8386  0.0052
 4687SOL     OW14380   3.771   2.489   2.786  0.1759  0.1522  0.0542
 4687SOL    HW114381   3.698   2.556   2.786 -2.5195 -2.5115 -1.2574
 4687SOL    HW214382   3.802   2.474   2.692  1.3006  0.1065  0.4167
 4688SOL     OW14383   0.948   2.344   4.814 -0.0039 -0.2157 -0.5121
 4688SOL    HW114384   1.010   2.359   4.737 -1.8931 -1.0897 -2.3075
 4688SOL    HW214385   0.874   2.411   4.810 -1.6322 -1.9502 -1.1741
 4689SOL     OW14386   4.511   4.452   3.384 -0.3227 -0.3204  0.2082
 4689SOL    HW114387   4.502   4.353   3.372  1.6634 -0.3968 -1.3667
 4689SOL    HW214388   4.424   4.497   3.363 -0.8129 -1.6310 -0.6746
 4690SOL     OW14389   5.435   1.069   2.614 -0.5443 -0.2015 -0.0130
 4690SOL    HW114390   5.391   1.073   2.524 -1.1035 -1.2911  0.1973
 4690SOL    HW214391   5.504   0.997   2.615 -0.1064  0.2124  0.2538
 4691SOL     OW14392   4.154   4.839   4.154 -0.1831 -0.6079  0.2874
 4691SOL    HW114393   4.196   4.783   4.225  0.1181 -1.3458 -0.4535
 4691SOL    HW214394   4.102   4.781   4.092 -1.3732  0.1580  0.5218
 4692SOL     OW14395   2.915   1.002   1.523  0.1238  0.3451  0.9826
 4692SOL    HW114396   2.843   0.950   1.478 -1.5658  1.3294  2.4112
 4692SOL    HW214397   2.930   1.087   1.473  1.6032 -0.6149 -0.3123
 4693SOL     OW14398   3.059   2.015   3.875  0.2195 -0.3214  0.2823
 4693SOL    HW114399   2.968   1.974   3.883  0.2061 -0.4575 -0.4656
 4693SOL    HW214400   3.060   2.079   3.798  0.4957  0.4099  0.8780
 4694SOL     OW14401   1.167   4.163   3.742 -0.0074 -0.0684  0.2282
 4694SOL    HW114402   1.261   4.140   3.719 -0.0820  1.1968 -1.4903
 4694SOL    HW214403   1.123   4.208   3.664 -2.2510 -1.2228  0.7294
 4695SOL     OW14404   1.215   3.271   0.758 -0.5317  0.0774  0.0979
 4695SOL    HW114405   1.248   3.292   0.665 -0.6848 -0.1330 -0.0024
 4695SOL    HW214406   1.289   3.289   0.823 -1.0688  2.3561  0.1910
 4696SOL     OW14407   5.019   2.654   3.861  0.4796  0.0402 -0.1335
 4696SOL    HW114408   5.014   2.728   3.795  0.8036 -0.4950 -0.7667
 4696SOL    HW214409   4.944   2.589   3.844 -0.6229  0.8784  1.2539
 4697SOL     OW14410   4.969   4.955   2.777 -0.2366  0.2263  0.4286
 4697SOL    HW114411   4.954   5.050   2.751 -1.2285  0.1283  0.5984
 4697SOL    HW214412   5.005   4.904   2.699 -1.3041  0.3711 -0.1701
 4698SOL     OW14413   4.433   4.008   4.736 -0.5939  0.5550 -0.1902
 4698SOL    HW114414   4.463   4.052   4.821  1.1129  1.1579 -1.0664
 4698SOL    HW214415   4.510   3.960   4.694 -1.5629 -0.2373 -1.1110
 4699SOL     OW14416   0.303   2.583   4.093 -0.5862  0.4100 -0.1483
 4699SOL    HW114417   0.269   2.490   4.086  1.2726 -0.3366  0.1388
 4699SOL    HW214418   0.403   2.582   4.103 -0.4964  2.4373 -0.3094
 4700SOL     OW14419   0.085   1.965   3.472 -0.6685  0.1015  0.1389
 4700SOL    HW114420   0.096   1.875   3.515  0.5288  0.7059  1.1550
 4700SOL    HW214421   0.168   1.989   3.422 -0.8323  0.8045  0.1971
 4701SOL     OW14422   0.114   4.013   1.348  0.5807  0.0318  0.2318
 4701SOL    HW114423   0.204   4.033   1.387  1.0405 -1.9755  0.2942
 4701SOL    HW214424   0.122   4.009   1.248  0.8287 -1.2160  0.2852
 4702SOL     OW14425   4.308   3.974   3.975 -0.2366  0.0855 -0.4078
 4702SOL    HW114426   4.336   4.005   3.884  0.3485  0.2143 -0.1861
 4702SOL    HW214427   4.299   3.874   3.975 -0.3480  0.0946 -0.6335
 4703SOL     OW14428   4.905   2.848   1.741 -0.0159 -0.4581  0.3350
 4703SOL    HW114429   4.853   2.850   1.826 -0.4971  0.5949  0.0397
 4703SOL    HW214430   5.001   2.826   1.761 -0.3976 -1.6449  0.9702
 4704SOL     OW14431   4.055   1.794   2.521  0.0356  0.6408  0.6291
 4704SOL    HW114432   3.956   1.798   2.523 -0.2331 -2.4596 -0.4257
 4704SOL    HW214433   4.087   1.713   2.571  1.9347  0.9776  0.0657
 4705SOL     OW14434   5.227   4.490   3.867 -0.0419 -0.2975  0.2002
 4705SOL    HW114435   5.230   4.570   3.807  3.3692  1.0062  1.8665
 4705SOL    HW214436   5.202   4.519   3.959 -0.9684 -1.5738  0.3733
 4706SOL     OW14437   0.173   2.046   2.243  0.5130 -0.0852  0.1203
 4706SOL    HW114438   0.202   1.993   2.163  0.0813  1.4264 -1.0719
 4706SOL    HW214439   0.178   2.144   2.222 -3.4233  0.3465  0.5042
 4707SOL     OW14440   4.915   3.446   3.288  0.0598 -0.2868  0.0033
 4707SOL    HW114441   5.014   3.453   3.284  0.1620 -0.0895  1.9115
 4707SOL    HW214442   4.878   3.531   3.327 -0.7617 -0.8249  0.4112
 4708SOL     OW14443   2.812   1.342   3.689  0.2794 -0.7115 -0.8036
 4708SOL    HW114444   2.730   1.284   3.694  0.9381 -1.7537 -1.4357
 4708SOL    HW214445   2.857   1.344   3.778 -0.6278  0.1922 -0.3456
 4709SOL     OW14446   4.737   2.377   2.082 -0.9484  0.3584  0.5832
 4709SOL    HW114447   4.696   2.390   1.992  0.3492  0.9412  0.0499
 4709SOL    HW214448   4.731   2.463   2.133 -0.5200  0.4026  0.5568
 4710SOL     OW14449   4.098   4.933   2.709 -0.6240  0.1594  0.3379
 4710SOL    HW114450   4.151   4.854   2.680  1.1905  1.2606  0.5216
 4710SOL    HW214451   4.053   4.912   2.796 -1.8689 -1.3497 -0.6222
 4711SOL     OW14452   3.850   2.119   5.156  0.7300 -0.0448  0.2615
 4711SOL    HW114453   3.879   2.157   5.068 -2.3333  0.2800 -0.7174
 4711SOL    HW214454   3.866   2.020   5.156 -0.5403 -0.3033 -1.3190
 4712SOL     OW14455   5.315   2.988   4.166 -0.1443  0.3902 -0.1161
 4712SOL    HW114456   5.279   3.076   4.137 -0.8748 -0.7599 -3.0703
 4712SOL    HW214457   5.242   2.919   4.163  0.6644 -0.5605  0.9678
 4713SOL     OW14458   4.521   2.944   1.600  0.2496 -0.2482 -0.5438
 4713SOL    HW114459   4.577   2.973   1.523 -0.3238 -0.2994 -0.9856
 4713SOL    HW214460   4.492   2.849   1.586 -3.1367  0.8620 -2.2927
 4714SOL     OW14461   4.400   2.843   0.647  0.1850 -0.1179  0.1118
 4714SOL    HW114462   4.332   2.832   0.719  1.3390 -0.9031  1.1367
 4714SOL    HW214463   4.464   2.766   0.649  0.1517 -0.2610 -1.9010
 4715SOL     OW14464   4.865   4.748   1.804 -0.4249 -0.2237 -0.4423
 4715SOL    HW114465   4.907   4.820   1.860 -1.5868 -0.7014  1.1217
 4715SOL    HW214466   4.910   4.661   1.823 -0.5035 -0.3045 -0.6301
 4716SOL     OW14467   4.369   0.826   3.566  0.4374  0.3120  0.6425
 4716SOL    HW114468   4.294   0.801   3.504  1.0905 -1.0906  0.3608
 4716SOL    HW214469   4.435   0.751   3.568  1.1722  0.9762  1.9053
 4717SOL     OW14470   3.674   4.877   0.120 -0.8682 -0.4429  0.5663
 4717SOL    HW114471   3.682   4.815   0.198 -1.4894 -0.0598  0.9362
 4717SOL    HW214472   3.676   4.971   0.152  0.0354 -0.2548  0.0075
 4718SOL     OW14473   2.869   1.824   3.995  0.1954  0.4914  0.5179
 4718SOL    HW114474   2.818   1.799   3.913  1.6454  0.8245 -0.5184
 4718SOL    HW214475   2.806   1.864   4.062 -1.0415  0.0590 -0.3500
 4719SOL     OW14476   0.825   1.022   1.752 -0.0280  0.2205  0.2051
 4719SOL    HW114477   0.738   1.005   1.705 -0.4394  1.2591  0.5815
 4719SOL    HW214478   0.808   1.045   1.847  0.6993  0.0239  0.3915
 4720SOL     OW14479   4.091   3.300   1.891 -0.2670 -0.0983 -0.9082
 4720SOL    HW114480   4.018   3.252   1.940 -0.4144  1.2113  0.2422
 4720SOL    HW214481   4.179   3.278   1.933  0.1938 -2.4106 -2.8754
 4721SOL     OW14482   3.636   2.671   2.597 -0.9528  0.2438 -0.1178
 4721SOL    HW114483   3.546   2.628   2.589 -1.5573  1.2057  1.1277
 4721SOL    HW214484   3.631   2.747   2.661  0.4257  1.2565 -1.1367
 4722SOL     OW14485   3.691   1.956   1.018  0.7111  0.1672  0.3185
 4722SOL    HW114486   3.663   1.898   0.941 -2.4586 -0.4260  1.7301
 4722SOL    HW214487   3.756   2.024   0.986  2.3693 -2.2798 -2.0435
 4723SOL     OW14488   3.249   1.936   2.250 -0.1597 -0.3909 -0.1862
 4723SOL    HW114489   3.210   1.851   2.213 -0.0700  0.2027 -1.6776
 4723SOL    HW214490   3.310   1.913   2.327 -1.0090 -1.5742  0.1703
 4724SOL     OW14491   3.482   2.114   3.926 -0.1538 -0.2138 -0.0335
 4724SOL    HW114492   3.465   2.123   4.024 -1.8530  1.0661 -0.3999
 4724SOL    HW214493   3.418   2.049   3.887 -1.1066  1.0484 -0.6507
 4725SOL     OW14494   5.129   3.348   2.561 -0.3234 -0.1033  0.1567
 4725SOL    HW114495   5.152   3.266   2.507 -0.5989 -0.9205  1.2573
 4725SOL    HW214496   5.052   3.396   2.518  0.6540  0.3251 -1.2163
 4726SOL     OW14497   3.361   1.950   3.027 -0.6132 -0.3619  0.5421
 4726SOL    HW114498   3.443   1.925   3.079 -0.6864 -0.0052  0.8351
 4726SOL    HW214499   3.387   2.010   2.951 -0.5162 -0.8182  0.2096
 4727SOL     OW14500   4.487   3.914   3.378  0.2421  1.0915 -0.1739
 4727SOL    HW114501   4.579   3.945   3.354  0.9405 -0.1929  0.6981
 4727SOL    HW214502   4.490   3.816   3.399 -1.0539  1.3053  1.1781
 4728SOL     OW14503   0.296   2.726   3.759 -0.5601 -0.1177 -0.4136
 4728SOL    HW114504   0.254   2.675   3.684 -1.0161 -0.5597  0.1439
 4728SOL    HW214505   0.380   2.679   3.787 -1.7042 -1.3752  1.0416
 4729SOL     OW14506   3.500   4.072   2.746  0.3978  0.0172  0.1243
 4729SOL    HW114507   3.418   4.029   2.706 -0.4523  1.7139 -0.0751
 4729SOL    HW214508   3.573   4.005   2.752 -0.9320 -1.5073  0.0867
 4730SOL     OW14509   4.706   3.457   2.465 -0.1171  0.9029 -0.2625
 4730SOL    HW114510   4.665   3.474   2.555 -0.2388  0.6191 -0.2634
 4730SOL    HW214511   4.636   3.425   2.402 -0.1737  1.7859 -0.6585
 4731SOL     OW14512   4.739   1.318   1.788 -0.9550 -0.1748 -0.1010
 4731SOL    HW114513   4.690   1.245   1.836 -0.4403  0.1613  0.9689
 4731SOL    HW214514   4.836   1.294   1.782 -1.0358 -0.2772 -1.1200
 4732SOL     OW14515   4.914   3.140   3.975  0.2888  0.3687 -0.2703
 4732SOL    HW114516   4.990   3.163   4.037 -0.0802 -0.6982  0.6099
 4732SOL    HW214517   4.850   3.080   4.023 -0.9301  0.9676 -1.1310
 4733SOL     OW14518   2.064   2.074   1.467 -0.5598 -0.0911  0.4101
 4733SOL    HW114519   2.042   2.082   1.370  2.3458  1.8995 -0.2285
 4733SOL    HW214520   2.007   2.138   1.520  0.4572  1.6868 -0.5610
 4734SOL     OW14521   3.181   4.249   0.015  0.0488 -0.2284  0.4205
 4734SOL    HW114522   3.174   4.160  -0.029  0.1793 -0.1719  0.2822
 4734SOL    HW214523   3.089   4.285   0.032 -0.2251  1.7077 -3.8535
 4735SOL     OW14524   5.453   2.331   3.610 -0.0906  0.2315  0.2719
 4735SOL    HW114525   5.460   2.238   3.648 -0.2466  0.0744 -0.0833
 4735SOL    HW214526   5.496   2.395   3.673 -1.4766  0.1510  1.3526
 4736SOL     OW14527   0.179   4.884   4.493  0.1611 -0.2734 -0.0359
 4736SOL    HW114528   0.123   4.845   4.420  1.9018 -2.3047 -0.3728
 4736SOL    HW214529   0.121   4.936   4.555 -1.8651 -1.1460 -1.1100
 4737SOL     OW14530   3.332   2.551   4.216  0.5907  0.6576  0.6376
 4737SOL    HW114531   3.242   2.595   4.212  1.2489  2.1613  1.2951
 4737SOL    HW214532   3.362   2.547   4.312  2.3111  2.6182  0.2656
 4738SOL     OW14533   0.570   4.293   1.637 -0.3211  0.1763  0.0614
 4738SOL    HW114534   0.585   4.213   1.578 -1.7540 -1.9918  2.4061
 4738SOL    HW214535   0.618   4.279   1.724 -1.7603  1.1682  1.0620
 4739SOL     OW14536   3.952   4.890   2.914  0.5382 -0.6649  0.4102
 4739SOL    HW114537   3.876   4.837   2.876 -0.8300  2.9052 -2.4881
 4739SOL    HW214538   3.917   4.973   2.956  2.7124 -0.5621  2.2035
 4740SOL     OW14539   3.202   0.793   3.711  0.3104 -0.0220  0.0335
 4740SOL    HW114540   3.111   0.775   3.674 -0.5232 -0.1251  2.0011
 4740SOL    HW214541   3.197   0.871   3.773  1.3538 -0.6433  0.9273
 4741SOL     OW14542   4.115   2.719   2.104  0.3319  0.4056 -0.0326
 4741SOL    HW114543   4.070   2.786   2.164  0.8497  0.0587  0.7582
 4741SOL    HW214544   4.104   2.627   2.142  0.3983  0.1404 -0.6412
 4742SOL     OW14545   1.100   3.125   1.775 -0.1341  0.3950  0.2317
 4742SOL    HW114546   1.124   3.153   1.868 -1.1437 -1.1286  1.0119
 4742SOL    HW214547   1.182   3.121   1.719  0.4562  1.6255  0.9714
 4743SOL     OW14548   3.168   2.241   4.981 -0.5173  0.3781  0.1843
 4743SOL    HW114549   3.199   2.184   4.905  1.5642 -0.3006  1.4414
 4743SOL    HW214550   3.185   2.337   4.961 -1.1866  0.3181 -0.7084
 4744SOL     OW14551   4.497   2.457   2.468  0.1297 -0.5381  0.1696
 4744SOL    HW114552   4.445   2.514   2.405 -1.9235 -1.6444  0.7502
 4744SOL    HW214553   4.506   2.365   2.430  1.8949 -0.3271  0.0003
 4745SOL     OW14554   3.897   1.969   2.934  0.4927 -0.0787  0.8862
 4745SOL    HW114555   3.927   1.873   2.936  1.1775  0.1047  3.5141
 4745SOL    HW214556   3.799   1.972   2.915  0.1262 -1.4733  2.2370
 4746SOL     OW14557   3.132   2.801   1.501  0.2858 -0.6919 -0.0500
 4746SOL    HW114558   3.222   2.774   1.535 -0.0016 -0.8589  0.6166
 4746SOL    HW214559   3.064   2.783   1.572 -0.3950 -1.3403 -0.8422
 4747SOL     OW14560   0.324   1.799   2.847 -0.8088 -0.4318  0.5147
 4747SOL    HW114561   0.318   1.817   2.749  1.1440  0.3913  0.5034
 4747SOL    HW214562   0.417   1.816   2.879 -1.4415 -0.4820  2.5618
 4748SOL     OW14563   4.959   2.387   1.487  0.0399 -0.5360 -0.1498
 4748SOL    HW114564   4.915   2.316   1.433  0.0751 -0.1917 -0.6458
 4748SOL    HW214565   5.014   2.346   1.560  1.0570 -1.0659 -1.1923
 4749SOL     OW14566   0.608   3.321   0.842  0.4533 -0.5264 -0.2871
 4749SOL    HW114567   0.607   3.225   0.815  0.6292 -1.3577  2.3614
 4749SOL    HW214568   0.533   3.339   0.905  1.7857  0.4472  1.1034
 4750SOL     OW14569   4.151   3.872   2.550 -0.3174 -0.0043  0.2038
 4750SOL    HW114570   4.151   3.970   2.529  0.4522 -0.0226  0.0799
 4750SOL    HW214571   4.233   3.830   2.511 -1.7236 -1.1428 -1.7428
 4751SOL     OW14572   5.100   2.740   1.376  0.0845  0.0374 -0.2059
 4751SOL    HW114573   5.144   2.687   1.304  1.8475  1.8876 -0.5825
 4751SOL    HW214574   5.002   2.721   1.377  0.3932 -1.8317 -1.4692
 4752SOL     OW14575   4.892   3.833   4.564 -0.0696 -0.3634  0.0363
 4752SOL    HW114576   4.921   3.754   4.618  0.6591 -0.0250  0.1523
 4752SOL    HW214577   4.940   3.833   4.476 -1.4746 -1.0760 -0.7498
 4753SOL     OW14578   5.433   2.777   2.936 -0.0064 -0.2072 -0.0718
 4753SOL    HW114579   5.389   2.865   2.951 -0.2168 -0.5717  1.6420
 4753SOL    HW214580   5.519   2.773   2.988 -0.9758 -1.7021  1.5489
 4754SOL     OW14581   4.191   3.533   0.773 -0.5271  0.2612 -0.5885
 4754SOL    HW114582   4.108   3.520   0.827  0.7747  0.8809  1.6654
 4754SOL    HW214583   4.175   3.603   0.703 -2.2104 -0.4701 -0.9923
 4755SOL     OW14584   2.563   0.280   2.301  0.3274  0.0433  0.2432
 4755SOL    HW114585   2.535   0.376   2.295  0.1554  0.0508  1.0338
 4755SOL    HW214586   2.611   0.265   2.387  1.8731 -0.2091 -0.6279
 4756SOL     OW14587   3.054   0.631   4.018  0.4937  0.0317  0.3502
 4756SOL    HW114588   2.983   0.645   4.087 -0.1356 -2.1364  0.2195
 4756SOL    HW214589   3.144   0.649   4.058  0.0531  0.0481  1.3689
 4757SOL     OW14590   4.206   2.121   5.074 -0.6369  0.1001  0.0973
 4757SOL    HW114591   4.283   2.184   5.062 -0.3514 -0.2609 -0.0055
 4757SOL    HW214592   4.176   2.122   5.170  0.8547 -1.2744  0.6384
 4758SOL     OW14593   3.703   2.792   4.636 -0.3499  0.1397 -1.4888
 4758SOL    HW114594   3.625   2.839   4.596 -0.5960  0.4120 -0.6942
 4758SOL    HW214595   3.675   2.746   4.720  0.2422 -0.1338 -1.4363
 4759SOL     OW14596   0.243   3.759   3.936 -0.5399  0.7980 -0.5530
 4759SOL    HW114597   0.252   3.739   3.839  0.8365 -1.2124 -0.0871
 4759SOL    HW214598   0.284   3.848   3.956  1.7233  0.0226 -1.4449
 4760SOL     OW14599   4.912   4.731   4.538 -0.0678  0.7674  0.1549
 4760SOL    HW114600   4.816   4.716   4.513  0.0457 -3.3663  1.3914
 4760SOL    HW214601   4.924   4.717   4.636  2.0987 -1.4990 -0.3210
 4761SOL     OW14602   1.744   3.730   4.233  0.1528  0.8445 -0.0116
 4761SOL    HW114603   1.836   3.691   4.223  0.1171  0.1711  1.9054
 4761SOL    HW214604   1.728   3.753   4.329 -2.3286 -0.7017  0.0114
 4762SOL     OW14605   3.413   3.664   3.990 -0.1741 -0.0926 -0.0485
 4762SOL    HW114606   3.318   3.673   4.020 -0.4314  0.0470 -0.8780
 4762SOL    HW214607   3.435   3.738   3.927  0.5786  0.0346  0.3469
 4763SOL     OW14608   3.946   2.482   5.500 -0.3516 -0.1038  0.1206
 4763SOL    HW114609   3.931   2.488   5.598 -0.2033 -0.7872  0.1905
 4763SOL    HW214610   4.005   2.558   5.471  0.4192 -0.4508  0.7314
 4764SOL     OW14611   4.591   3.357   4.098  0.2691 -0.4749  0.2054
 4764SOL    HW114612   4.646   3.403   4.168 -2.2796 -0.1267  2.1500
 4764SOL    HW214613   4.566   3.423   4.027 -0.0393  0.1619  0.8827
 4765SOL     OW14614   5.359   2.910   1.595  0.5224  0.0596  0.2144
 4765SOL    HW114615   5.454   2.904   1.623  1.5658  1.0818 -2.7395
 4765SOL    HW214616   5.323   2.818   1.579  1.0515 -0.3177  1.1048
 4766SOL     OW14617   4.597   5.184   5.372  0.0113 -0.7682 -0.2669
 4766SOL    HW114618   4.645   5.101   5.343 -2.2166 -2.3648  0.3311
 4766SOL    HW214619   4.501   5.176   5.348 -0.2509  1.7628 -0.2947
 4767SOL     OW14620   3.611   3.363   0.200 -0.0094 -0.2222  0.3342
 4767SOL    HW114621   3.709   3.375   0.209 -0.3730  2.9452  1.2793
 4767SOL    HW214622   3.579   3.408   0.116 -0.7361 -0.5453  0.4254
 4768SOL     OW14623   0.515   3.052   3.514  0.0442 -0.2684 -0.4598
 4768SOL    HW114624   0.554   2.983   3.452  1.3868  1.2125 -1.3350
 4768SOL    HW214625   0.559   3.140   3.497 -3.0057  1.3034 -0.7406
 4769SOL     OW14626   1.941   1.311   3.369  0.0126  0.0961  0.3645
 4769SOL    HW114627   2.037   1.324   3.395 -0.1930 -1.3493  2.0666
 4769SOL    HW214628   1.913   1.218   3.392 -1.9732  0.6953  0.5183
 4770SOL     OW14629   3.875   2.278   3.155  0.1326 -0.3126  0.1155
 4770SOL    HW114630   3.913   2.330   3.079 -0.8161 -0.6638 -0.6136
 4770SOL    HW214631   3.846   2.342   3.227 -0.2996  0.1153 -0.4303
 4771SOL     OW14632   3.567   2.174   5.519 -0.8009  0.4179 -0.2713
 4771SOL    HW114633   3.544   2.266   5.487  0.1683  0.1740 -1.7354
 4771SOL    HW214634   3.519   2.106   5.464 -0.3009  0.0178 -0.2201
 4772SOL     OW14635   3.784   3.547   4.209 -0.5381  0.4855 -0.0686
 4772SOL    HW114636   3.827   3.507   4.129  2.2986  0.3518  1.3778
 4772SOL    HW214637   3.700   3.595   4.182  0.8123  1.3120 -3.2290
 4773SOL     OW14638   3.444   3.630   4.943  0.6434 -0.3968  0.4407
 4773SOL    HW114639   3.367   3.576   4.976  0.1884  1.4713  2.6546
 4773SOL    HW214640   3.411   3.719   4.912  1.7420 -0.1951 -0.1982
 4774SOL     OW14641   2.970   4.657   0.300  0.1992  0.0046  0.1403
 4774SOL    HW114642   2.882   4.658   0.254  0.5818 -0.9299 -0.6527
 4774SOL    HW214643   2.998   4.563   0.318  0.0083  0.3376  2.4412
 4775SOL     OW14644   3.507   2.242   2.272  0.5793 -0.8280 -0.4214
 4775SOL    HW114645   3.528   2.331   2.231  1.5804 -0.4925  0.7243
 4775SOL    HW214646   3.436   2.254   2.341 -0.5328 -1.2472 -1.4669
 4776SOL     OW14647   4.009   0.755   0.090 -0.2873 -0.1195  0.5324
 4776SOL    HW114648   4.030   0.821   0.162 -1.3288  1.3056 -0.4291
 4776SOL    HW214649   4.049   0.785   0.004 -2.7625  0.5946 -0.4535
 4777SOL     OW14650   3.189   2.497   3.566 -0.7312  0.2180  0.7079
 4777SOL    HW114651   3.158   2.580   3.519  1.9722  0.9532  0.0483
 4777SOL    HW214652   3.270   2.518   3.620  1.4885 -2.3729 -1.3320
 4778SOL     OW14653   1.099   1.612   2.773 -0.3232 -0.1072  0.3845
 4778SOL    HW114654   1.037   1.684   2.743 -1.1517 -0.7290  0.5719
 4778SOL    HW214655   1.193   1.647   2.773 -0.2187 -0.1212 -3.0596
 4779SOL     OW14656   4.461   3.528   2.267  0.2886  0.0808 -0.0798
 4779SOL    HW114657   4.379   3.520   2.325  1.2207  0.4942  1.3462
 4779SOL    HW214658   4.499   3.438   2.251  0.0299 -0.0395 -0.0295
 4780SOL     OW14659   0.911   3.095   3.128 -0.6860 -0.0086 -0.0576
 4780SOL    HW114660   0.864   3.014   3.092  0.9041 -1.1008  0.1980
 4780SOL    HW214661   0.890   3.174   3.071 -0.0962 -1.2011 -2.0532
 4781SOL     OW14662   1.269   2.858   3.892  0.4415 -0.0704  0.3720
 4781SOL    HW114663   1.293   2.867   3.795  2.8397  1.3074  1.0154
 4781SOL    HW214664   1.198   2.924   3.915 -0.2333 -0.4881 -0.4409
 4782SOL     OW14665   4.837   2.089   4.004  0.3233  0.0205  0.9339
 4782SOL    HW114666   4.920   2.143   3.997  0.2866 -0.0270 -0.0387
 4782SOL    HW214667   4.853   1.998   3.966 -0.1905  0.0446  0.6459
 4783SOL     OW14668   5.274   3.487   3.583  0.0755  0.1301  0.0985
 4783SOL    HW114669   5.226   3.494   3.496 -1.6587  0.2279  1.0105
 4783SOL    HW214670   5.373   3.493   3.568 -0.1548 -0.5158 -1.9010
 4784SOL     OW14671   4.368   3.411   3.640 -0.2067  0.3254 -0.6647
 4784SOL    HW114672   4.290   3.367   3.685  1.2105 -1.5133  0.1521
 4784SOL    HW214673   4.339   3.497   3.599 -2.3119  0.4813  0.9668
 4785SOL     OW14674   0.393   2.160   3.876 -0.5405  0.3384  0.1052
 4785SOL    HW114675   0.340   2.196   3.954 -0.7935  1.9991 -0.7739
 4785SOL    HW214676   0.473   2.111   3.910 -1.7817 -0.8760  1.4351
 4786SOL     OW14677   3.953   3.713   5.565 -0.1709  0.0788  0.1019
 4786SOL    HW114678   3.897   3.671   5.495  0.6480  0.3738 -0.7441
 4786SOL    HW214679   3.966   3.810   5.544  0.5235  0.0508  0.3671
 4787SOL     OW14680   4.833   2.524   3.197  0.5589  0.6378 -0.1687
 4787SOL    HW114681   4.799   2.618   3.203  0.8989  0.8692 -1.5240
 4787SOL    HW214682   4.933   2.524   3.200  0.5672  0.3402 -0.4038
 4788SOL     OW14683   4.690   4.447   0.146  0.3331 -0.2746  0.9247
 4788SOL    HW114684   4.597   4.474   0.169 -0.9763 -0.4955 -3.3434
 4788SOL    HW214685   4.753   4.523   0.166 -1.6247  1.9799 -0.8827
 4789SOL     OW14686   4.294   2.269   2.156  0.1743  0.1991 -0.4398
 4789SOL    HW114687   4.393   2.277   2.174  0.4038  0.2846 -1.6418
 4789SOL    HW214688   4.276   2.298   2.062 -0.5886 -2.5358 -1.1992
 4790SOL     OW14689   0.380   3.018   0.176 -0.3364 -0.2120  0.1865
 4790SOL    HW114690   0.477   3.018   0.202 -0.7131 -1.2392  1.7762
 4790SOL    HW214691   0.354   3.108   0.142  1.0450  0.2305  0.2401
 4791SOL     OW14692   5.112   4.358   1.680 -0.2740 -0.0118  0.1267
 4791SOL    HW114693   5.206   4.335   1.657 -0.2528  0.8803 -0.7504
 4791SOL    HW214694   5.055   4.276   1.673  0.2285 -0.3222 -0.4906
 4792SOL     OW14695   3.769   2.402   4.535  0.1785 -0.1271  0.3962
 4792SOL    HW114696   3.866   2.383   4.519 -0.0921 -1.7411  0.4585
 4792SOL    HW214697   3.736   2.468   4.468  0.9695 -0.7133 -0.6080
 4793SOL     OW14698   0.493   3.335   4.457 -0.8007 -0.4753 -0.5970
 4793SOL    HW114699   0.504   3.313   4.360 -1.2382 -1.9270 -0.3485
 4793SOL    HW214700   0.582   3.334   4.501 -0.6162  0.0334 -0.9514
 4794SOL     OW14701   1.345   2.899   3.640  0.4263  0.2133  0.3131
 4794SOL    HW114702   1.289   2.900   3.557  0.3093  0.6179  0.3942
 4794SOL    HW214703   1.351   2.991   3.678  0.8115  0.1011  0.5342
 4795SOL     OW14704   0.966   1.368   1.484  0.5770 -0.3591 -0.5427
 4795SOL    HW114705   0.984   1.463   1.509 -0.1216 -0.6038  1.0344
 4795SOL    HW214706   0.873   1.344   1.513  1.4712 -2.1243  1.0011
 4796SOL     OW14707   0.286   2.411   0.156 -0.0362 -0.1180 -0.3306
 4796SOL    HW114708   0.266   2.472   0.233  0.9856  0.6730 -0.6649
 4796SOL    HW214709   0.375   2.368   0.169  0.0471 -0.1505 -0.9489
 4797SOL     OW14710   3.962   3.613   3.687  0.3487 -0.1081 -0.6305
 4797SOL    HW114711   4.017   3.617   3.769  0.2142 -1.0871 -0.4811
 4797SOL    HW214712   3.955   3.705   3.647 -2.1074  1.0564  2.0962
 4798SOL     OW14713   5.137   2.540   4.616  0.3261  0.4236  0.3609
 4798SOL    HW114714   5.051   2.526   4.566 -0.7329 -0.5700  2.3021
 4798SOL    HW214715   5.200   2.466   4.596 -0.5203 -0.5875  1.2467
 4799SOL     OW14716   4.845   3.245   4.773  0.0523  0.3238  0.3722
 4799SOL    HW114717   4.841   3.325   4.713  0.1652 -0.4693 -0.7196
 4799SOL    HW214718   4.940   3.220   4.789  0.0028 -0.2301 -0.1704
 4800SOL     OW14719   5.115   1.518   5.059 -0.5133 -0.0667  0.1481
 4800SOL    HW114720   5.164   1.432   5.074 -2.3281 -1.2091 -0.0310
 4800SOL    HW214721   5.032   1.518   5.114 -0.9119  1.2526 -0.4264
 4801SOL     OW14722   3.800   4.011   3.559  0.3044 -0.5437  0.5144
 4801SOL    HW114723   3.789   3.962   3.472  0.7349  2.1267 -1.1396
 4801SOL    HW214724   3.716   4.060   3.581  0.8656  0.4598  0.4837
 4802SOL     OW14725   1.419   1.769   2.157 -0.3356  1.0598 -0.6348
 4802SOL    HW114726   1.375   1.857   2.137  0.7471  1.6481 -0.5016
 4802SOL    HW214727   1.370   1.696   2.110 -1.6649  1.6422 -0.2174
 4803SOL     OW14728   1.821   2.819   3.971 -0.6685  0.1410  0.1891
 4803SOL    HW114729   1.909   2.857   3.999  0.0139 -0.0353 -1.6192
 4803SOL    HW214730   1.814   2.821   3.872 -2.7015  0.0928  0.2960
 4804SOL     OW14731   1.237   2.590   3.935  0.6562 -0.0134  0.3883
 4804SOL    HW114732   1.327   2.545   3.933  1.7667  2.0554  1.1399
 4804SOL    HW214733   1.248   2.688   3.922 -1.3257  0.5272  2.1510
 4805SOL     OW14734   3.678   3.925   4.684 -0.8188  0.2153  0.2347
 4805SOL    HW114735   3.678   3.827   4.703 -1.7873 -0.1994 -1.6466
 4805SOL    HW214736   3.708   3.941   4.589 -3.3382  1.4595 -0.4611
 4806SOL     OW14737   4.222   3.097   4.202  0.0455 -0.1070 -0.4316
 4806SOL    HW114738   4.193   3.094   4.106 -2.0937 -0.6494  0.1937
 4806SOL    HW214739   4.322   3.096   4.206  0.1817 -0.7190 -2.6272
 4807SOL     OW14740   4.332   3.503   4.719 -0.1617  0.1673  0.4685
 4807SOL    HW114741   4.273   3.495   4.639 -0.3022  0.4197  0.5430
 4807SOL    HW214742   4.277   3.531   4.798  0.0892  0.6252  0.4884
 4808SOL     OW14743   0.441   3.782   4.984 -0.2867  0.0938 -0.3520
 4808SOL    HW114744   0.400   3.695   5.009  0.0688 -0.1709 -0.6835
 4808SOL    HW214745   0.540   3.778   4.998 -0.4221  0.9537  1.1017
 4809SOL     OW14746   5.276   3.695   1.927  0.4684  0.6343 -0.7878
 4809SOL    HW114747   5.266   3.596   1.940 -1.7321  1.0331  1.3545
 4809SOL    HW214748   5.294   3.739   2.015 -0.0207  2.2822 -1.4666
 4810SOL     OW14749   5.258   2.646   1.589  0.1132  0.4240  0.4682
 4810SOL    HW114750   5.186   2.661   1.521  1.8925  1.2393 -1.3326
 4810SOL    HW214751   5.227   2.682   1.678 -2.4028 -1.0001  0.2628
 4811SOL     OW14752   0.041   2.426   0.830  0.0664 -0.2477 -0.3983
 4811SOL    HW114753   0.038   2.338   0.876 -2.5680  1.7103  3.7580
 4811SOL    HW214754   0.128   2.471   0.851 -0.1121 -0.3834  0.6892
 4812SOL     OW14755   4.930   5.432   0.378 -0.3389  0.7111  0.2098
 4812SOL    HW114756   4.911   5.438   0.476 -0.2672  0.3451  0.2484
 4812SOL    HW214757   4.987   5.352   0.360 -1.3898  0.0457 -0.2862
 4813SOL     OW14758   5.279   2.685   3.213  0.6347  0.3856  0.0867
 4813SOL    HW114759   5.366   2.663   3.257  0.2744  0.2743  0.7568
 4813SOL    HW214760   5.248   2.775   3.243  0.1641  0.1179  0.4193
 4814SOL     OW14761   4.992   0.368   0.351 -0.2055  0.1476 -0.0157
 4814SOL    HW114762   4.975   0.462   0.381  0.4723 -0.1619  1.4584
 4814SOL    HW214763   4.907   0.316   0.354 -0.4317  0.5162 -0.0474
 4815SOL     OW14764   0.419   3.545   4.764  0.0978 -0.5768 -0.3392
 4815SOL    HW114765   0.408   3.466   4.823  0.3139  0.5178  1.2092
 4815SOL    HW214766   0.331   3.590   4.752  0.3615  0.2311  0.6543
 4816SOL     OW14767   4.948   2.967   4.363 -0.2437 -0.2145 -0.7229
 4816SOL    HW114768   4.971   2.973   4.460 -0.1390 -1.2648 -0.6661
 4816SOL    HW214769   4.996   2.890   4.322 -1.1581 -0.4800 -1.3432
 4817SOL     OW14770   1.428   1.610   5.407 -0.3793 -0.3637  0.5029
 4817SOL    HW114771   1.511   1.627   5.354 -0.9349  0.4680 -0.1235
 4817SOL    HW214772   1.353   1.664   5.370 -0.9448 -0.2534  1.7595
 4818SOL     OW14773   5.018   5.002   5.328 -0.9993 -0.4048  0.1007
 4818SOL    HW114774   5.064   4.939   5.264  0.1571  0.8063 -0.3192
 4818SOL    HW214775   5.081   5.026   5.401 -0.6236  1.8679 -0.8818
 4819SOL     OW14776   4.511   4.673   5.444  0.3603 -0.5839  0.3593
 4819SOL    HW114777   4.574   4.732   5.494 -0.0864  1.7258 -1.6271
 4819SOL    HW214778   4.561   4.595   5.407  1.0607 -1.2940  2.5998
 4820SOL     OW14779   4.759   2.601   3.501  0.5281  0.3787  0.4775
 4820SOL    HW114780   4.781   2.526   3.564  2.0443  0.0259 -0.4219
 4820SOL    HW214781   4.838   2.662   3.493 -0.0996  1.1389 -0.1027
 4821SOL     OW14782   1.006   2.238   0.107  0.5086 -0.3057  0.4209
 4821SOL    HW114783   0.907   2.230   0.119  0.4007  0.4731  0.1011
 4821SOL    HW214784   1.032   2.199   0.018  0.4295 -0.1025  0.3090
 4822SOL     OW14785   5.296   2.923   3.843  0.1130  0.7198 -0.3689
 4822SOL    HW114786   5.221   2.885   3.896  1.1214 -0.6894  0.1234
 4822SOL    HW214787   5.262   2.996   3.784 -1.8320 -0.5994 -0.9761
 4823SOL     OW14788   0.366   5.186   5.158  0.4263  0.0223 -0.6074
 4823SOL    HW114789   0.338   5.228   5.244 -0.0438  0.5924 -1.0220
 4823SOL    HW214790   0.346   5.250   5.083 -1.3190 -1.3451 -1.3826
 4824SOL     OW14791   4.827   3.961   3.996  0.1327 -0.0767  0.0675
 4824SOL    HW114792   4.876   4.047   4.009 -1.5927  0.7799  1.3292
 4824SOL    HW214793   4.808   3.919   4.085  2.9887 -3.0720 -0.5312
 4825SOL     OW14794   5.018   2.959   5.395  0.3701 -0.2008  0.2589
 4825SOL    HW114795   4.933   2.970   5.342  0.8914 -0.4503 -0.6407
 4825SOL    HW214796   4.998   2.974   5.492 -0.2514  2.2145 -0.1569
 4826SOL     OW14797   5.127   4.285   3.615 -0.4073  0.1087  0.3972
 4826SOL    HW114798   5.148   4.188   3.630  0.8172  0.6255  2.3248
 4826SOL    HW214799   5.194   4.324   3.552 -0.8374 -0.2564 -0.2964
 4827SOL     OW14800   4.601   2.133   4.163 -0.3389 -0.3921  0.8178
 4827SOL    HW114801   4.544   2.210   4.135 -0.8716 -1.0182  0.1055
 4827SOL    HW214802   4.672   2.118   4.095 -0.5373 -0.8191  0.6976
 4828SOL     OW14803   4.662   2.481   4.217  0.6287  0.0481 -0.4497
 4828SOL    HW114804   4.759   2.482   4.193  0.6930  0.4076 -0.1769
 4828SOL    HW214805   4.640   2.395   4.264  1.1010  0.5184  0.6569
 4829SOL     OW14806   1.236   2.622   2.669  0.1318  0.4482 -0.1607
 4829SOL    HW114807   1.268   2.715   2.688 -0.5611  0.7969 -0.6352
 4829SOL    HW214808   1.145   2.610   2.709  1.1221 -0.7975  1.8901
 4830SOL     OW14809   4.158   1.180   5.125  0.1786  0.1284  0.4827
 4830SOL    HW114810   4.123   1.223   5.208  1.3251 -0.8952  1.5375
 4830SOL    HW214811   4.082   1.141   5.073 -0.4484 -0.4042  1.7524
 4831SOL     OW14812   0.035   1.587   3.629 -0.0506  0.0465  0.4747
 4831SOL    HW114813   0.131   1.579   3.604  0.2024 -0.8272  1.6219
 4831SOL    HW214814  -0.022   1.580   3.547  0.8427  0.1274 -0.1631
 4832SOL     OW14815   5.079   3.401   0.485 -0.0034  0.0951 -0.3834
 4832SOL    HW114816   4.983   3.374   0.483  0.0212 -0.1140  0.4853
 4832SOL    HW214817   5.091   3.473   0.554  0.4392  0.2130 -0.5841
 4833SOL     OW14818   0.067   2.070   2.703  0.1371 -0.1080  0.6921
 4833SOL    HW114819   0.076   2.052   2.801 -0.8893  1.0153  1.0223
 4833SOL    HW214820   0.155   2.056   2.658  1.1267  1.2274  2.1067
 4834SOL     OW14821   4.299   2.523   5.184 -0.1099 -0.3032 -0.7471
 4834SOL    HW114822   4.385   2.551   5.227 -0.8158  0.8175  0.0274
 4834SOL    HW214823   4.271   2.434   5.220 -1.0174  0.8835  1.7658
 4835SOL     OW14824   0.360   2.608   1.649  0.5296  0.4557  0.1247
 4835SOL    HW114825   0.444   2.596   1.596  0.5130 -0.2295  0.2515
 4835SOL    HW214826   0.291   2.652   1.592  1.7166  3.3061  0.7146
 4836SOL     OW14827   1.245   2.028   4.813  0.3414 -0.0887 -0.8151
 4836SOL    HW114828   1.307   2.100   4.843  1.4693 -0.7112 -1.5385
 4836SOL    HW214829   1.210   2.049   4.722 -0.3471  0.1540 -0.4989
 4837SOL     OW14830   3.293   3.301   3.443  0.2469  0.0070  0.1620
 4837SOL    HW114831   3.214   3.243   3.423 -1.1998  1.7727  0.5729
 4837SOL    HW214832   3.267   3.397   3.435  3.0684  0.7105 -2.5779
 4838SOL     OW14833   4.368   3.252   5.366  1.0160 -0.1619  0.2849
 4838SOL    HW114834   4.433   3.284   5.435 -0.5579  0.2205  1.6527
 4838SOL    HW214835   4.369   3.152   5.362  0.7833 -0.2134  1.2329
 4839SOL     OW14836   4.889   3.441   4.599  0.1885  0.3402  0.2398
 4839SOL    HW114837   4.913   3.388   4.518  1.5472  1.7231 -0.3132
 4839SOL    HW214838   4.803   3.490   4.583  0.3951  0.5188 -0.3383
 4840SOL     OW14839   4.520   4.342   3.986  0.5728  0.2945  0.0352
 4840SOL    HW114840   4.581   4.354   3.909 -0.5992  1.7911 -0.7157
 4840SOL    HW214841   4.547   4.403   4.060 -0.4625  1.6020 -0.6231
 4841SOL     OW14842   1.009   2.713   4.214 -0.1798 -0.1838  0.0760
 4841SOL    HW114843   0.983   2.690   4.120 -1.2535 -2.0745  0.7699
 4841SOL    HW214844   0.929   2.702   4.273  0.4783  0.9939  1.2252
 4842SOL     OW14845   0.084   3.536  -0.012 -0.1802 -0.5319  0.2666
 4842SOL    HW114846   0.175   3.573   0.008  1.1248 -3.2259 -0.2156
 4842SOL    HW214847   0.019   3.567   0.058  1.3400  0.6030  1.2416
 4843SOL     OW14848   0.405   2.935   4.419 -0.4624  0.1583  0.2227
 4843SOL    HW114849   0.406   2.963   4.323  1.0381  1.0869  0.4633
 4843SOL    HW214850   0.410   3.016   4.477  0.6392 -0.4537  1.0276
 4844SOL     OW14851   4.045   3.780   4.576  0.3910 -0.0840 -0.4771
 4844SOL    HW114852   3.974   3.849   4.561  0.2798 -0.3383 -1.1285
 4844SOL    HW214853   4.040   3.711   4.505  0.2394 -0.9935  0.3955
 4845SOL     OW14854   1.448   4.306   3.904  0.2095 -0.1140  0.3393
 4845SOL    HW114855   1.473   4.253   3.823  0.3747  2.6454 -1.5477
 4845SOL    HW214856   1.523   4.367   3.929  0.2143 -0.9716  2.7311
 4846SOL     OW14857   0.685   0.916   2.828 -0.1552 -0.0386  0.5298
 4846SOL    HW114858   0.630   0.967   2.762  0.1671  1.8618  1.6291
 4846SOL    HW214859   0.779   0.949   2.826  1.0557 -3.1615 -1.2386
 4847SOL     OW14860   4.550   3.265   2.273 -0.7264  0.1079  0.1847
 4847SOL    HW114861   4.595   3.219   2.197 -1.5488  0.9118 -0.8200
 4847SOL    HW214862   4.484   3.203   2.315 -0.1496 -0.3952  0.3796
 4848SOL     OW14863   1.468   2.219   0.938 -0.2278  0.4724 -0.2425
 4848SOL    HW114864   1.524   2.153   0.888 -1.0822  0.8062 -1.7156
 4848SOL    HW214865   1.393   2.171   0.983 -0.1431  0.3063 -0.2758
 4849SOL     OW14866   0.336   3.289   0.109  0.5104  0.0370 -0.3592
 4849SOL    HW114867   0.329   3.384   0.137 -0.1196  0.0811 -0.6281
 4849SOL    HW214868   0.379   3.284   0.019  1.2392  0.0066 -0.0094
 4850SOL     OW14869   5.314   3.267   4.476 -0.5593 -0.0748  0.1009
 4850SOL    HW114870   5.291   3.209   4.554 -0.4634 -1.5653 -0.9473
 4850SOL    HW214871   5.404   3.241   4.441 -0.4836  0.7751 -0.3447
 4851SOL     OW14872   4.769   4.539   4.784 -0.4650 -0.2300  0.4457
 4851SOL    HW114873   4.834   4.511   4.854  0.0119 -0.5957 -0.1280
 4851SOL    HW214874   4.694   4.472   4.779 -0.3054 -0.4022  0.3553
 4852SOL     OW14875   3.733   3.251   0.898  0.1731  0.1533  0.2399
 4852SOL    HW114876   3.751   3.228   0.802  0.9167  0.6453  0.2570
 4852SOL    HW214877   3.752   3.171   0.955 -0.6932 -0.2780 -0.0590
 4853SOL     OW14878   4.266   2.707   4.412  0.0310 -0.7040 -0.3092
 4853SOL    HW114879   4.279   2.616   4.453  0.3175  0.1520  1.6242
 4853SOL    HW214880   4.353   2.741   4.379  0.0517 -0.8559 -0.4128
 4854SOL     OW14881   5.324   4.221   3.939 -0.4733  0.0398 -0.0478
 4854SOL    HW114882   5.286   4.155   3.873 -1.8094  1.6313 -0.9520
 4854SOL    HW214883   5.271   4.305   3.936 -0.0858  0.4605  2.5667
 4855SOL     OW14884   4.604   3.428   3.499 -0.4241  0.4092  0.6399
 4855SOL    HW114885   4.583   3.398   3.406  0.2109 -1.8992  1.1792
 4855SOL    HW214886   4.533   3.395   3.561 -0.5002  1.3752  1.0823
 4856SOL     OW14887   3.709   3.023   4.891  0.0509  0.1671 -0.3409
 4856SOL    HW114888   3.724   3.053   4.797  3.0229  0.7217  0.2350
 4856SOL    HW214889   3.710   3.102   4.953  1.9280 -0.4573  0.5157
 4857SOL     OW14890   5.240   3.701   3.770  0.6119  0.0498 -0.0360
 4857SOL    HW114891   5.259   3.660   3.680  1.9154 -0.4588  0.4463
 4857SOL    HW214892   5.308   3.771   3.790  0.3261  0.1663  0.5591
 4858SOL     OW14893   5.249   2.513   0.537  0.3245 -0.4767 -0.0567
 4858SOL    HW114894   5.190   2.593   0.541  0.9735 -0.0365  1.1029
 4858SOL    HW214895   5.329   2.527   0.595  0.0153 -2.3029  0.8966
 4859SOL     OW14896   4.055   2.936   2.484 -0.1635 -0.2567  0.2785
 4859SOL    HW114897   4.035   2.881   2.566  0.0639  0.2097  0.6530
 4859SOL    HW214898   4.139   2.904   2.442  0.1962  0.0658  0.7374
 4860SOL     OW14899   1.783   1.297   5.283 -0.1566  0.3640  0.3501
 4860SOL    HW114900   1.731   1.276   5.365  1.2135  0.1577  1.1957
 4860SOL    HW214901   1.869   1.342   5.308  1.5838 -2.1128 -0.6950
 4861SOL     OW14902   0.653   3.439   2.271 -0.1637 -0.4923  0.6491
 4861SOL    HW114903   0.619   3.470   2.183 -0.4789 -1.8211  0.2682
 4861SOL    HW214904   0.690   3.346   2.261  2.9274  0.5576  1.1968
 4862SOL     OW14905   5.031   3.423   0.034 -0.3081 -0.3351 -0.2334
 4862SOL    HW114906   5.057   3.409  -0.061 -0.7011 -0.2972 -0.3503
 4862SOL    HW214907   5.086   3.364   0.093  0.8011  0.5328 -0.3621
 4863SOL     OW14908   1.662   1.885   4.101  0.0798 -0.2613  0.0174
 4863SOL    HW114909   1.635   1.962   4.043  3.2990  0.1927 -1.1020
 4863SOL    HW214910   1.690   1.808   4.043  0.9521 -0.7173  1.0095
 4864SOL     OW14911   3.469   4.012   4.205 -0.1334 -0.7253  0.2839
 4864SOL    HW114912   3.410   3.941   4.243 -0.6233  0.5911  2.1728
 4864SOL    HW214913   3.531   4.045   4.277  1.0699 -0.2406 -0.9432
 4865SOL     OW14914   5.287   3.762   0.473 -0.3804 -0.1193  0.7129
 4865SOL    HW114915   5.332   3.844   0.438 -0.9087  0.7305  1.9423
 4865SOL    HW214916   5.229   3.723   0.402 -0.2204  0.6374  0.1480
 4866SOL     OW14917   0.426   1.678   4.886 -0.3560  0.1846 -0.2549
 4866SOL    HW114918   0.526   1.676   4.888 -0.3563 -1.2831 -0.7552
 4866SOL    HW214919   0.392   1.735   4.961  0.8835  2.6427 -1.4319
 4867SOL     OW14920   4.342   0.851   3.957 -0.3287  0.2577  0.0885
 4867SOL    HW114921   4.420   0.790   3.945 -0.6784 -0.1270 -0.2421
 4867SOL    HW214922   4.263   0.816   3.906 -0.6098  0.8455  0.1094
 4868SOL     OW14923   3.705   3.274   5.055 -0.6155  0.8329 -0.0567
 4868SOL    HW114924   3.792   3.296   5.010 -0.5505 -0.6141 -0.6912
 4868SOL    HW214925   3.724   3.235   5.145 -0.6141  0.6059 -0.1558
 4869SOL     OW14926   3.206   2.115   0.502  0.1920 -0.5367 -0.1186
 4869SOL    HW114927   3.143   2.106   0.579  1.3946 -0.8404  0.8775
 4869SOL    HW214928   3.242   2.025   0.478  1.4244 -0.2017  0.3814
 4870SOL     OW14929   1.184   0.686   0.470 -0.0893 -0.2220 -0.4303
 4870SOL    HW114930   1.111   0.734   0.518 -0.5103 -2.6073  1.5323
 4870SOL    HW214931   1.156   0.591   0.454  1.3363 -0.3361 -2.6191
 4871SOL     OW14932   1.203   2.385   4.161 -0.2331  0.4064 -0.1013
 4871SOL    HW114933   1.292   2.423   4.184 -0.7567  1.3153  0.4997
 4871SOL    HW214934   1.173   2.421   4.072 -0.2963  0.6411  0.0138
 4872SOL     OW14935   2.881   2.167   5.019 -0.0777 -0.5578  0.3178
 4872SOL    HW114936   2.978   2.178   4.998 -0.1771  0.4185  0.3606
 4872SOL    HW214937   2.868   2.083   5.073  0.7014 -0.8235  0.1055
 4873SOL     OW14938   3.554   3.509   5.535 -0.1162 -0.1530 -0.1601
 4873SOL    HW114939   3.487   3.574   5.569  1.1526  1.5178 -0.6970
 4873SOL    HW214940   3.547   3.502   5.436  1.3621  1.1326 -0.3958
 4874SOL     OW14941   4.276   3.259   2.720  0.1973 -0.1667 -0.5417
 4874SOL    HW114942   4.370   3.248   2.689 -0.2568 -0.9104 -1.7290
 4874SOL    HW214943   4.246   3.175   2.765 -0.2925 -0.4059 -1.2950
 4875SOL     OW14944   0.140   4.178   0.126 -0.4281  0.1768  0.0956
 4875SOL    HW114945   0.102   4.086   0.133  1.9759 -0.9133 -0.0372
 4875SOL    HW214946   0.072   4.239   0.086 -1.0857 -2.2620 -2.8863
 4876SOL     OW14947   0.030   3.035   3.977  0.1145 -0.2135 -0.2319
 4876SOL    HW114948  -0.063   2.997   3.979 -0.1398  0.3937  1.3593
 4876SOL    HW214949   0.051   3.074   4.067  1.9403 -0.4008 -0.5486
 4877SOL     OW14950   0.813   2.594   3.963 -0.4521  0.1315  0.9710
 4877SOL    HW114951   0.861   2.513   3.929 -1.0669  0.1733 -0.0153
 4877SOL    HW214952   0.853   2.676   3.923  0.0696  0.3228  1.8514
 4878SOL     OW14953   5.421   3.163   4.888  0.8649 -0.2375 -0.1026
 4878SOL    HW114954   5.337   3.171   4.941 -0.4185 -2.2790 -1.6884
 4878SOL    HW214955   5.479   3.092   4.928  1.5047  0.6337  0.5420
 4879SOL     OW14956   4.031   3.735   5.247 -0.3901 -0.5811  0.0993
 4879SOL    HW114957   3.994   3.819   5.285  0.4101 -0.2712  0.2270
 4879SOL    HW214958   4.084   3.757   5.165  0.2953 -0.8802  0.4516
 4880SOL     OW14959   5.395   2.407   0.276  0.0024  0.1871 -0.8737
 4880SOL    HW114960   5.373   2.477   0.208 -0.4421  1.5535  0.6015
 4880SOL    HW214961   5.319   2.398   0.340  0.9754  0.0348  0.3123
 4881SOL     OW14962   4.573   2.589   5.280  0.5540 -0.6679  0.2868
 4881SOL    HW114963   4.624   2.525   5.222 -1.9340 -1.2742 -1.3609
 4881SOL    HW214964   4.567   2.678   5.235  1.1833 -0.2268  1.0524
 4882SOL     OW14965   0.603   1.312   4.185  0.4892  0.3532 -0.2045
 4882SOL    HW114966   0.524   1.280   4.238  0.9760  2.3991  1.9262
 4882SOL    HW214967   0.576   1.391   4.130  0.5301 -0.3710 -1.2748
 4883SOL     OW14968   0.947   2.304   3.837  0.5710 -0.6985 -0.2250
 4883SOL    HW114969   1.016   2.234   3.856  0.7003 -0.3490  0.6143
 4883SOL    HW214970   0.990   2.381   3.791  1.0376  0.0901  1.4487
 4884SOL     OW14971   4.614   3.514   4.503 -0.0156  0.0140 -0.1963
 4884SOL    HW114972   4.539   3.449   4.488  0.6259 -0.6435 -0.6260
 4884SOL    HW214973   4.594   3.570   4.584  0.6895 -2.6618  1.9791
 4885SOL     OW14974   4.466   3.127   0.641 -0.5307  0.3507  0.3621
 4885SOL    HW114975   4.406   3.181   0.701 -0.3793  0.8233  0.0913
 4885SOL    HW214976   4.430   3.034   0.634 -1.0067  0.5163  0.5333
 4886SOL     OW14977   4.651   3.905   5.235 -1.0033 -0.2999 -0.3265
 4886SOL    HW114978   4.712   3.930   5.310 -1.2258 -0.8586  0.0455
 4886SOL    HW214979   4.656   3.806   5.219 -0.8940 -0.1708 -1.1024
 4887SOL     OW14980   5.396   2.662   4.069 -0.2533  0.1205  0.1346
 4887SOL    HW114981   5.374   2.620   4.156 -1.0694 -0.3412 -0.2853
 4887SOL    HW214982   5.490   2.698   4.072  0.6109 -2.0003  0.4134
 4888SOL     OW14983   3.452   3.533   0.623 -0.2318 -0.0429  0.4762
 4888SOL    HW114984   3.542   3.490   0.619 -2.0762 -4.5407  1.3524
 4888SOL    HW214985   3.422   3.538   0.718 -1.7976 -0.8846  0.0661
 4889SOL     OW14986   4.247   2.804   3.012  0.2106  1.1222 -0.1714
 4889SOL    HW114987   4.185   2.738   3.054  1.1520  0.5227  0.3401
 4889SOL    HW214988   4.318   2.829   3.078  0.2511  2.1445 -0.5822
 4890SOL     OW14989   4.612   3.766   2.574  0.3387  0.4568  0.7436
 4890SOL    HW114990   4.616   3.676   2.618  0.8475  0.9222  1.6790
 4890SOL    HW214991   4.537   3.766   2.507  0.2325 -0.6089  0.8319
 4891SOL     OW14992   2.798   4.536   4.513  0.0039 -0.0912 -0.6685
 4891SOL    HW114993   2.831   4.444   4.534  0.3033  0.4157  1.2745
 4891SOL    HW214994   2.699   4.539   4.525 -0.2003 -0.4918 -2.1197
 4892SOL     OW14995   0.682   3.278   3.775  0.2579 -0.2278  0.5178
 4892SOL    HW114996   0.647   3.329   3.853  0.1610 -0.7137  0.7995
 4892SOL    HW214997   0.689   3.181   3.800 -0.4915 -0.5097 -0.3069
 4893SOL     OW14998   5.039   2.749   4.761 -0.0295  0.0687  0.3767
 4893SOL    HW114999   5.064   2.675   4.699 -0.3421  0.4617 -0.2311
 4893SOL    HW215000   4.947   2.731   4.798 -2.0757  2.1876 -3.1236
 4894SOL     OW15001   4.912   2.495   4.136 -0.7428  0.2994 -0.0141
 4894SOL    HW115002   4.964   2.580   4.127 -0.0904 -0.0390  0.5101
 4894SOL    HW215003   4.966   2.418   4.102 -1.0841  0.0113  0.0888
 4895SOL     OW15004   1.056   3.815   4.958 -0.2129  0.1057 -0.4691
 4895SOL    HW115005   1.073   3.912   4.941 -1.8490  0.2763 -1.4604
 4895SOL    HW215006   1.095   3.788   5.046  0.4363  1.6029 -0.2723
 4896SOL     OW15007   0.176   3.220   4.145  0.4063 -0.0193 -0.1838
 4896SOL    HW115008   0.148   3.217   4.241  0.8986  0.6765 -0.0061
 4896SOL    HW215009   0.249   3.154   4.129 -0.0310 -0.5056 -0.2100
 4897SOL     OW15010   0.104   2.407   5.198  0.5042  0.3727  0.2575
 4897SOL    HW115011   0.058   2.349   5.130 -0.4774  1.1149  0.2778
 4897SOL    HW215012   0.203   2.406   5.180  0.2990  0.2863 -0.9746
 4898SOL     OW15013   3.404   4.312   0.183  0.1959 -0.3344 -0.3204
 4898SOL    HW115014   3.331   4.299   0.116 -0.1196 -1.0353  0.1465
 4898SOL    HW215015   3.386   4.255   0.263 -0.9505  2.4817  1.6303
 4899SOL     OW15016   0.678   4.008   3.996 -0.0698  0.0936  0.0730
 4899SOL    HW115017   0.673   3.910   4.016  1.3047  0.0016  0.1096
 4899SOL    HW215018   0.686   4.058   4.082 -0.7413  0.2330  0.0524
 4900SOL     OW15019   4.027   3.382   5.380 -0.7512  0.4866 -0.3751
 4900SOL    HW115020   3.969   3.332   5.316 -1.8252 -1.2760  1.8578
 4900SOL    HW215021   3.971   3.419   5.454  0.5063  2.1123 -0.1777
 4901SOL     OW15022   4.383   2.157   2.435 -0.7283  0.0003  0.2002
 4901SOL    HW115023   4.408   2.176   2.530 -0.4714 -0.0474  0.1430
 4901SOL    HW215024   4.296   2.108   2.432 -0.5098 -0.4088  0.4367
 4902SOL     OW15025   4.038   3.974   5.548  0.3495 -0.2777 -0.1707
 4902SOL    HW115026   4.135   3.981   5.523  0.2169 -1.7339 -1.2587
 4902SOL    HW215027   3.984   3.964   5.464 -0.9185  1.8825  0.3171
 4903SOL     OW15028   4.350   3.656   3.997  0.0025  0.3716 -0.9088
 4903SOL    HW115029   4.434   3.683   4.045  0.0040 -1.9545  0.5742
 4903SOL    HW215030   4.372   3.587   3.928 -0.5823  0.4152 -1.1433
 4904SOL     OW15031   0.477   2.010   5.314 -0.1693  0.4169 -0.3364
 4904SOL    HW115032   0.512   1.917   5.328  0.1817  0.7059  0.8279
 4904SOL    HW215033   0.554   2.072   5.298 -0.4132  0.4990 -1.2407
 4905SOL     OW15034   4.439   3.046   0.130  0.0833  0.0355  0.3762
 4905SOL    HW115035   4.474   3.110   0.198  1.4236 -0.7263  0.4420
 4905SOL    HW215036   4.512   3.022   0.065 -1.1183  0.6403 -1.2759
 4906SOL     OW15037   4.887   2.602   4.483 -0.3955  0.0558  0.1255
 4906SOL    HW115038   4.814   2.665   4.509 -1.2553 -0.8079 -0.1526
 4906SOL    HW215039   4.945   2.645   4.414 -1.1010  0.4676 -0.2161
 4907SOL     OW15040   3.944   2.471   3.692 -0.4658  0.1872  0.5679
 4907SOL    HW115041   3.926   2.399   3.624 -2.2177 -1.1780  2.3492
 4907SOL    HW215042   3.901   2.556   3.662  0.3890  0.1517 -0.8800
 4908SOL     OW15043   5.422   3.939   3.776 -0.6885  0.3909 -0.3125
 4908SOL    HW115044   5.467   3.860   3.732  0.0024  1.0771 -0.8796
 4908SOL    HW215045   5.492   4.006   3.803 -1.2537  0.7363  0.3122
 4909SOL     OW15046   1.112   1.774   3.991  0.1548 -0.2865 -0.6889
 4909SOL    HW115047   1.028   1.803   4.038  0.0019 -0.5140 -0.8182
 4909SOL    HW215048   1.192   1.807   4.041  0.0410 -1.9527  0.6742
 4910SOL     OW15049   0.023   2.548   4.697 -0.3896  0.3156  0.6155
 4910SOL    HW115050   0.051   2.620   4.633 -1.7539 -1.5151 -2.2362
 4910SOL    HW215051  -0.051   2.494   4.656  0.1966 -2.3784  2.8306
 4911SOL     OW15052   3.526   4.330   3.996 -0.4893  0.7111  0.1870
 4911SOL    HW115053   3.574   4.320   4.083 -0.5685  1.0658  0.2734
 4911SOL    HW215054   3.506   4.240   3.958 -2.3227  0.5024  1.5598
 4912SOL     OW15055   5.389   1.686   4.723  0.0057  0.1029  0.0530
 4912SOL    HW115056   5.353   1.779   4.716 -0.6180 -0.0437  1.2115
 4912SOL    HW215057   5.316   1.620   4.709  0.6101 -0.2607 -1.7057
 4913SOL     OW15058   2.866   2.444   1.048 -0.4619  0.1201  0.2090
 4913SOL    HW115059   2.896   2.460   1.143 -0.0394 -0.6814  0.2153
 4913SOL    HW215060   2.819   2.356   1.043 -1.7199  0.7887 -0.0594
 4914SOL     OW15061   4.297   3.537   4.276 -0.5282  0.5418  0.0099
 4914SOL    HW115062   4.337   3.492   4.356 -0.7956  2.7374  1.4674
 4914SOL    HW215063   4.370   3.581   4.223 -0.3988 -0.5849 -0.7995
 4915SOL     OW15064   4.278   4.510   0.848  0.3362 -0.0531 -0.7109
 4915SOL    HW115065   4.217   4.589   0.845 -0.4835 -0.5052  1.6468
 4915SOL    HW215066   4.227   4.429   0.874  1.4158 -1.1110 -1.7538
 4916SOL     OW15067   3.706   3.190   4.643 -0.2692 -0.3229  0.6091
 4916SOL    HW115068   3.724   3.287   4.662  1.5419 -0.3392 -0.7321
 4916SOL    HW215069   3.789   3.148   4.605 -1.4462 -2.0689 -0.1501
 4917SOL     OW15070   3.026   3.689   3.102  0.0957 -0.5085 -0.3445
 4917SOL    HW115071   3.001   3.648   3.190  3.5445 -0.0582  1.0176
 4917SOL    HW215072   3.032   3.788   3.113 -2.1899 -0.1170 -1.9587
 4918SOL     OW15073   4.728   3.018   4.750 -0.1335 -0.7885  0.1138
 4918SOL    HW115074   4.767   3.108   4.765 -1.1156 -0.5551  1.3714
 4918SOL    HW215075   4.771   2.977   4.669 -0.9231  1.5191 -1.5812
 4919SOL     OW15076   3.833   3.931   5.338 -0.5015  0.2640  0.0807
 4919SOL    HW115077   3.787   3.883   5.262  0.9841 -0.2923 -0.5035
 4919SOL    HW215078   3.782   4.014   5.360 -0.0193  1.4833 -2.8397
 4920SOL     OW15079   5.326   5.025   4.463 -0.6506 -0.2320 -0.0756
 4920SOL    HW115080   5.277   5.088   4.403 -2.1169 -1.1760  0.0570
 4920SOL    HW215081   5.344   4.940   4.413  0.0429 -0.2387  0.1761
 4921SOL     OW15082   1.086   3.186   4.954  0.1956  0.3484  0.7562
 4921SOL    HW115083   1.086   3.156   5.049  1.8191  0.1363  0.7228
 4921SOL    HW215084   1.119   3.112   4.895  0.5238  0.9234  0.2000
 4922SOL     OW15085   4.942   3.361   3.798 -0.1304  0.2822  0.1482
 4922SOL    HW115086   5.040   3.374   3.784 -0.1533 -0.5553 -0.9458
 4922SOL    HW215087   4.927   3.287   3.863 -0.0439  0.6428  0.5835
 4923SOL     OW15088   4.752   2.721   0.900 -0.1866 -0.4160 -0.4402
 4923SOL    HW115089   4.701   2.701   0.983  0.8013 -2.2744 -0.2488
 4923SOL    HW215090   4.697   2.696   0.820 -0.9210  0.8728 -0.3684
 4924SOL     OW15091   5.218   3.178   5.350  0.0877  0.4980 -0.0871
 4924SOL    HW115092   5.138   3.133   5.389  0.7032 -0.0134  0.6171
 4924SOL    HW215093   5.300   3.147   5.398  1.1044 -1.5072 -2.8777
 4925SOL     OW15094   4.418   3.072   3.649 -0.1464  0.1012  0.2071
 4925SOL    HW115095   4.362   3.155   3.658 -2.3225 -1.1968 -0.6672
 4925SOL    HW215096   4.470   3.058   3.733 -1.9708  0.8091  1.5160
 4926SOL     OW15097   0.344   2.254   0.748  0.1158 -0.2867  0.4955
 4926SOL    HW115098   0.357   2.214   0.657 -0.7408 -1.3640  0.8280
 4926SOL    HW215099   0.286   2.335   0.741  0.4021 -0.1185  0.0308
 4927SOL     OW15100   5.315   4.569   4.421 -0.2273  0.1916 -0.2122
 4927SOL    HW115101   5.215   4.583   4.422 -0.2878 -0.2158  1.1594
 4927SOL    HW215102   5.336   4.478   4.456  0.6145 -0.0280 -1.2237
 4928SOL     OW15103   4.289   4.822   4.589 -0.0790 -0.3661  0.4809
 4928SOL    HW115104   4.359   4.891   4.604  0.4741 -1.0811  1.2910
 4928SOL    HW215105   4.280   4.766   4.671  0.0605 -1.7530 -0.4191
 4929SOL     OW15106   4.778   2.918   5.275 -0.4604 -0.7183  0.0957
 4929SOL    HW115107   4.731   2.967   5.202  1.9916  0.2142 -0.9593
 4929SOL    HW215108   4.835   2.846   5.236 -0.2480 -1.1908  1.2294
 4930SOL     OW15109   3.837   2.330   2.218  0.0317 -0.3619 -0.2265
 4930SOL    HW115110   3.826   2.414   2.271 -0.6044 -0.5376 -0.0707
 4930SOL    HW215111   3.768   2.326   2.146  1.2531  0.1537 -1.4673
 4931SOL     OW15112   1.252   0.606   0.221 -0.0037  0.8343  0.1269
 4931SOL    HW115113   1.241   0.699   0.256  1.7243  0.3450  2.1972
 4931SOL    HW215114   1.196   0.543   0.275 -1.2803  0.6425 -1.3590
 4932SOL     OW15115   4.037   4.070   5.083 -0.0799  0.2067  0.2709
 4932SOL    HW115116   3.941   4.063   5.055  0.5684  3.0681 -3.4374
 4932SOL    HW215117   4.084   3.985   5.060 -1.3440 -0.6507  0.6946
 4933SOL     OW15118   5.155   1.990   4.074  0.7798  0.2902  0.4151
 4933SOL    HW115119   5.122   1.957   3.986 -0.1361  4.4744 -1.0772
 4933SOL    HW215120   5.099   1.953   4.147 -0.4536 -0.9236 -1.0737
 4934SOL     OW15121   0.450   2.038   4.514  0.4878 -0.2810 -0.4394
 4934SOL    HW115122   0.480   2.002   4.603  0.3084  0.3978 -0.0984
 4934SOL    HW215123   0.525   2.029   4.448  0.4103 -1.3760 -0.4033
 4935SOL     OW15124   4.679   2.289   3.260  0.2646 -0.1150  0.2328
 4935SOL    HW115125   4.745   2.364   3.260 -0.8257  0.8921  0.2857
 4935SOL    HW215126   4.645   2.274   3.353 -0.0861 -0.1444  0.1029
 4936SOL     OW15127   0.414   1.416   4.495  0.2481  0.2441  0.3282
 4936SOL    HW115128   0.397   1.508   4.460 -0.4420  0.9670  2.4149
 4936SOL    HW215129   0.356   1.399   4.575 -0.8160 -2.6142 -0.8797
 4937SOL     OW15130   5.224   2.468   4.996 -0.4624  0.1566 -0.4049
 4937SOL    HW115131   5.262   2.429   5.081 -2.2038  0.3714  0.5273
 4937SOL    HW215132   5.243   2.566   4.993 -2.2561  0.5873  0.8754
 4938SOL     OW15133   4.125   3.392   4.544 -0.6148  0.3126  0.2105
 4938SOL    HW115134   4.159   3.315   4.600 -0.5129  0.0440 -0.2135
 4938SOL    HW215135   4.096   3.357   4.455 -0.7138  0.7504  0.0723
 4939SOL     OW15136   1.932   1.133   5.511  0.0636 -0.2364 -0.0742
 4939SOL    HW115137   1.868   1.148   5.586 -1.4973 -0.2441 -1.3395
 4939SOL    HW215138   1.885   1.149   5.424  1.3262 -1.9274 -1.1227
 4940SOL     OW15139   0.050   1.819   3.751  0.0405  0.0550 -0.1233
 4940SOL    HW115140   0.035   1.737   3.696 -0.6446  0.1040 -0.0184
 4940SOL    HW215141   0.148   1.837   3.758  0.2427 -1.2144  0.5357
 4941SOL     OW15142   4.216   3.067   3.908  0.4831  0.1557  0.2920
 4941SOL    HW115143   4.315   3.073   3.914  0.6144 -0.7543 -0.7096
 4941SOL    HW215144   4.181   3.136   3.845  0.4883  0.3571  0.5069
 4942SOL     OW15145   4.057   1.816   3.678  0.1096 -0.2767 -0.1183
 4942SOL    HW115146   4.005   1.900   3.689 -0.2563 -0.6956  1.6212
 4942SOL    HW215147   4.028   1.769   3.594 -1.9718 -0.2408  0.5305
 4943SOL     OW15148   1.376   2.381   4.656  0.8380  0.0657 -0.2821
 4943SOL    HW115149   1.370   2.344   4.749 -2.0228  0.7034 -0.1312
 4943SOL    HW215150   1.286   2.413   4.626  1.6016 -0.3228 -3.3923
 4944SOL     OW15151   5.430   1.203   3.138 -0.0263 -0.0688  0.2899
 4944SOL    HW115152   5.497   1.149   3.088  3.3212  1.7206  2.4792
 4944SOL    HW215153   5.455   1.299   3.136 -3.4491  0.9590  0.0495
 4945SOL     OW15154   2.794   2.928   4.235 -0.4311 -0.4702  0.0429
 4945SOL    HW115155   2.875   2.932   4.176 -0.2130  3.4810  0.3263
 4945SOL    HW215156   2.821   2.947   4.330 -1.5540  0.1871  0.2499
 4946SOL     OW15157   4.750   3.476   4.273 -0.3935 -1.0154 -0.1134
 4946SOL    HW115158   4.706   3.513   4.355  0.9136  1.0036 -0.2453
 4946SOL    HW215159   4.785   3.384   4.292 -1.8983 -1.4083  0.9135
 4947SOL     OW15160   4.655   1.389   3.330 -0.5275 -0.1867  0.0384
 4947SOL    HW115161   4.564   1.350   3.321  0.4630 -2.2437 -2.3379
 4947SOL    HW215162   4.712   1.330   3.387  0.0808 -0.4943 -0.8583
 4948SOL     OW15163   5.378   4.492   0.230  0.7374 -0.2664  0.4154
 4948SOL    HW115164   5.306   4.426   0.250 -0.0748  0.1302 -1.0013
 4948SOL    HW215165   5.443   4.495   0.306 -1.5604  0.4969  2.4909
 4949SOL     OW15166   4.441   3.794   3.714  0.0135  0.1479 -0.3686
 4949SOL    HW115167   4.540   3.799   3.728 -0.0280  1.1739 -0.3700
 4949SOL    HW215168   4.400   3.882   3.740 -0.7833  0.0499 -1.2724
 4950SOL     OW15169   4.501   3.132   4.201 -0.0587 -0.3384  0.1580
 4950SOL    HW115170   4.568   3.067   4.237  1.0124  0.2126 -0.7992
 4950SOL    HW215171   4.548   3.207   4.155 -1.3389 -0.5006 -1.5240
 4951SOL     OW15172   3.489   3.109   0.949 -0.3186 -0.0861  0.5989
 4951SOL    HW115173   3.476   3.151   0.860 -1.4181 -0.6384  0.4671
 4951SOL    HW215174   3.574   3.140   0.990 -0.0775  0.5983 -0.4022
 4952SOL     OW15175   4.951   1.581   4.125 -0.3662  0.3525 -0.4976
 4952SOL    HW115176   4.873   1.527   4.093  0.5533 -1.2680 -0.0910
 4952SOL    HW215177   5.035   1.547   4.082  0.5637 -0.2059  1.6498
 4953SOL     OW15178   3.133   4.166   3.292  0.2437 -0.3159 -0.1064
 4953SOL    HW115179   3.159   4.258   3.320 -0.9074  0.1088 -0.3621
 4953SOL    HW215180   3.141   4.103   3.369 -1.1928  0.4857  0.7354
 4954SOL     OW15181   4.354   3.203   1.278  0.2832  0.3159  0.2528
 4954SOL    HW115182   4.399   3.211   1.190  0.7858  1.2498  0.5749
 4954SOL    HW215183   4.342   3.106   1.302  2.4531  0.0107  0.3125
 4955SOL     OW15184   5.152   3.726   5.126 -0.5721  0.6851  0.2946
 4955SOL    HW115185   5.111   3.635   5.130 -0.5464  0.6963  2.9896
 4955SOL    HW215186   5.147   3.761   5.033 -0.2690 -2.1803 -0.8953
 4956SOL     OW15187   4.774   3.247   3.606  0.0727 -0.0403  0.0431
 4956SOL    HW115188   4.830   3.285   3.679  1.0079  0.5441 -0.9496
 4956SOL    HW215189   4.716   3.319   3.567 -0.3548 -0.3280  0.1374
 4957SOL     OW15190   0.625   2.968   3.772  0.1201 -0.2725 -0.2601
 4957SOL    HW115191   0.589   2.998   3.683 -2.1187 -3.0567 -0.4374
 4957SOL    HW215192   0.562   2.997   3.844  0.9859  0.3876  0.2589
 4958SOL     OW15193   5.494   2.092   0.586  0.0821  0.5596 -0.0104
 4958SOL    HW115194   5.446   2.022   0.532  0.4466  0.0141  0.3627
 4958SOL    HW215195   5.427   2.152   0.629 -0.2457  0.3171 -0.1745
 4959SOL     OW15196   4.823   2.413   2.951  0.5370  0.5165 -0.2590
 4959SOL    HW115197   4.836   2.452   3.042 -0.8309 -3.1980  1.7687
 4959SOL    HW215198   4.761   2.471   2.898  0.3238  2.1509  1.6489
 4960SOL     OW15199   5.151   3.191   3.419 -0.0969 -0.1879  0.1254
 4960SOL    HW115200   5.160   3.291   3.416 -0.5453 -0.0439  2.1603
 4960SOL    HW215201   5.072   3.162   3.365  0.3428  0.4931 -0.9038
 4961SOL     OW15202   0.022   2.355   3.365  0.0628  0.5967  0.5929
 4961SOL    HW115203   0.116   2.323   3.350  0.6125  2.0391  0.8060
 4961SOL    HW215204  -0.001   2.345   3.462 -0.8983 -1.9727  0.1763
 4962SOL     OW15205   0.379   2.295   4.560  0.4665 -0.4033 -0.9906
 4962SOL    HW115206   0.469   2.334   4.581 -0.5510  0.5917  2.0029
 4962SOL    HW215207   0.390   2.197   4.540  2.0662 -0.9240  1.7883
 4963SOL     OW15208   0.245   2.239   3.373 -0.1107 -0.3251 -0.4968
 4963SOL    HW115209   0.338   2.245   3.338 -0.5409  1.3254 -1.4409
 4963SOL    HW215210   0.248   2.219   3.471  1.2713  0.6329 -0.3099
 4964SOL     OW15211   3.412   3.845   3.793  0.1151  0.3147  0.1316
 4964SOL    HW115212   3.487   3.786   3.763 -0.3442 -0.7333  1.0140
 4964SOL    HW215213   3.331   3.828   3.736  0.1674  0.5478 -0.0143
 4965SOL     OW15214   1.056   3.110   3.597 -0.1379  0.0160  1.0413
 4965SOL    HW115215   1.109   3.193   3.613 -1.4995  0.7437  2.0135
 4965SOL    HW215216   0.989   3.126   3.525  0.8109 -0.8374 -0.0570
 4966SOL     OW15217   2.423   3.462   0.596  0.1782  0.1021  0.1239
 4966SOL    HW115218   2.497   3.405   0.632  1.1163  0.1674 -1.5888
 4966SOL    HW215219   2.443   3.558   0.616 -0.2012  0.0181  0.9383
 4967SOL     OW15220   5.399   0.754   0.897 -0.7994 -0.4648 -0.0396
 4967SOL    HW115221   5.329   0.805   0.947 -0.8830  2.7005 -2.9795
 4967SOL    HW215222   5.404   0.789   0.803  2.6556 -2.6744 -0.8463
 4968SOL     OW15223   3.657   5.478   4.178  0.1319 -0.1980 -0.5348
 4968SOL    HW115224   3.681   5.465   4.081 -1.0768 -1.2143 -0.7252
 4968SOL    HW215225   3.676   5.394   4.228  0.7536  0.3283  0.1187
 4969SOL     OW15226   1.571   4.561   2.927 -0.1314  0.1702 -0.7144
 4969SOL    HW115227   1.481   4.534   2.895 -0.3909  0.4150 -0.2073
 4969SOL    HW215228   1.603   4.640   2.874 -1.1149  1.3951  0.4481
 4970SOL     OW15229   0.004   5.055   0.558 -0.0906 -0.0593 -0.3005
 4970SOL    HW115230   0.049   5.092   0.476 -0.6238  1.0009 -0.1244
 4970SOL    HW215231   0.073   5.013   0.617  0.3936 -0.2179 -0.9670
 4971SOL     OW15232   4.518   4.390   5.055  0.3447 -0.2012  0.4421
 4971SOL    HW115233   4.440   4.380   5.118 -0.1181  0.0594 -0.0875
 4971SOL    HW215234   4.588   4.448   5.097 -0.5056  1.0081  0.2177
 4972SOL     OW15235   0.602   4.221   2.122  0.2691 -0.1229  0.5502
 4972SOL    HW115236   0.594   4.122   2.113 -1.0237  0.1215 -1.8523
 4972SOL    HW215237   0.697   4.248   2.111  0.6894 -1.0837  1.6019
 4973SOL     OW15238   4.558   0.595   1.177 -0.4269 -0.2283  0.4015
 4973SOL    HW115239   4.655   0.576   1.195 -1.0161 -3.0212  1.1291
 4973SOL    HW215240   4.527   0.670   1.235  1.0687  0.1020  0.8179
 4974SOL     OW15241   4.395   3.865   0.240 -0.3892  0.6560  0.0606
 4974SOL    HW115242   4.320   3.818   0.194 -1.0088  0.0988  1.5566
 4974SOL    HW215243   4.362   3.952   0.276 -0.4516  0.2397  1.0502
 4975SOL     OW15244   3.334   4.385   2.518 -0.3201 -0.6005  0.4023
 4975SOL    HW115245   3.321   4.382   2.419 -1.2197  1.9073  0.3493
 4975SOL    HW215246   3.255   4.345   2.563 -0.6236 -0.3795  0.0801
 4976SOL     OW15247   4.429   5.070   1.786 -0.1357  0.0536 -0.2204
 4976SOL    HW115248   4.508   5.070   1.724 -0.4051  1.4712 -0.5984
 4976SOL    HW215249   4.458   5.041   1.877  0.6048 -0.4557 -0.6085
 4977SOL     OW15250   3.803   1.325   2.194 -0.3890 -0.0468 -0.2238
 4977SOL    HW115251   3.786   1.252   2.128  1.8783  0.3690 -1.3582
 4977SOL    HW215252   3.848   1.287   2.275 -0.5348 -0.1020 -0.1667
 4978SOL     OW15253   1.079   4.779   5.441 -0.0260  0.3128 -0.2619
 4978SOL    HW115254   1.109   4.684   5.445  0.4933  0.4938  0.4981
 4978SOL    HW215255   1.152   4.838   5.477  0.2080  1.1286 -1.9912
 4979SOL     OW15256   5.558   3.221   1.788  0.0659 -0.3388 -0.5126
 4979SOL    HW115257   5.570   3.164   1.707 -0.8138 -2.0784  0.5170
 4979SOL    HW215258   5.479   3.282   1.775  0.7686  0.3995 -1.4687
 4980SOL     OW15259   4.550   4.526   0.835  0.1327  0.4725 -0.0803
 4980SOL    HW115260   4.572   4.621   0.855 -1.2977  0.5540  1.2822
 4980SOL    HW215261   4.452   4.515   0.823  0.2416 -0.8722  0.0254
 4981SOL     OW15262   4.046   4.800   5.059  0.3119 -0.4867  0.1399
 4981SOL    HW115263   4.141   4.785   5.088 -0.0721 -1.9639  0.6898
 4981SOL    HW215264   4.044   4.808   4.959  0.9940 -0.6724  0.1021
 4982SOL     OW15265   5.180   3.844   0.989 -0.1173 -0.8287  0.1703
 4982SOL    HW115266   5.157   3.924   1.044 -0.4499 -0.0468 -1.0683
 4982SOL    HW215267   5.206   3.873   0.897  0.5854 -2.0932 -0.0565
 4983SOL     OW15268   2.749   4.483   0.972 -0.4026 -0.0770 -0.0985
 4983SOL    HW115269   2.696   4.437   1.043 -1.1747  2.4566  1.0736
 4983SOL    HW215270   2.845   4.489   1.001 -0.3807 -0.5273 -0.0656
 4984SOL     OW15271   3.824   0.008   0.357 -0.4932  0.2260  0.3811
 4984SOL    HW115272   3.775  -0.018   0.440  0.8955 -0.6566  0.9608
 4984SOL    HW215273   3.873   0.095   0.373  1.7266 -1.1055  1.3940
 4985SOL     OW15274   0.591   0.620   2.418  0.8237 -0.1101  0.3331
 4985SOL    HW115275   0.611   0.628   2.516 -1.5443  0.5364  0.8315
 4985SOL    HW215276   0.676   0.612   2.367  2.2370  1.4550  2.2916
 4986SOL     OW15277   2.865   4.533   1.832  0.4027  0.1398 -0.3505
 4986SOL    HW115278   2.914   4.609   1.874 -1.1557  0.2721  1.3972
 4986SOL    HW215279   2.767   4.544   1.848  0.0913 -2.0368 -0.3983
 4987SOL     OW15280   5.259   3.551   0.682 -0.1923 -0.0300 -0.0653
 4987SOL    HW115281   5.201   3.559   0.763  0.6588  1.5965  0.4433
 4987SOL    HW215282   5.254   3.636   0.629  2.5426  0.6719  0.6159
 4988SOL     OW15283   3.221   5.070   3.316 -0.0600 -0.0781  0.2220
 4988SOL    HW115284   3.188   5.094   3.225 -0.2077  0.7831  0.4999
 4988SOL    HW215285   3.277   4.987   3.310 -0.3680 -0.2370 -0.5932
 4989SOL     OW15286   4.841   5.123   2.438 -0.5486  0.1965  0.3243
 4989SOL    HW115287   4.901   5.154   2.511 -1.7402 -0.9973  1.9064
 4989SOL    HW215288   4.747   5.148   2.459 -0.9465 -0.3456 -0.7185
 4990SOL     OW15289   5.198   5.233   5.129 -0.4421  0.4721  0.4212
 4990SOL    HW115290   5.235   5.247   5.038 -0.2698  0.2802  0.4625
 4990SOL    HW215291   5.193   5.321   5.177  0.4818  0.4251  0.6178
 4991SOL     OW15292   3.469   4.817   1.517 -0.3499 -0.4564  0.1970
 4991SOL    HW115293   3.547   4.799   1.457  1.4188  0.6583  2.0118
 4991SOL    HW215294   3.452   4.916   1.521  0.0890 -0.4092  2.0192
 4992SOL     OW15295   4.747   0.494   0.170  0.0046  0.3116 -0.3645
 4992SOL    HW115296   4.709   0.523   0.082  0.3861  2.9198  0.2703
 4992SOL    HW215297   4.816   0.559   0.200 -1.0809  0.2577  2.5402
 4993SOL     OW15298   3.437   3.219   0.686  0.3107 -0.0677  0.1474
 4993SOL    HW115299   3.430   3.149   0.614 -0.6636 -0.9935  1.0903
 4993SOL    HW215300   3.361   3.283   0.677  0.7776  0.4329 -0.2633
 4994SOL     OW15301   0.320   4.294   1.004 -0.0613  0.2469  0.1445
 4994SOL    HW115302   0.406   4.287   1.055 -0.6480 -0.2153  1.1053
 4994SOL    HW215303   0.296   4.205   0.967  1.2320  0.9085 -2.4820
 4995SOL     OW15304   2.560   4.876   2.646 -0.2342  0.3091 -0.2054
 4995SOL    HW115305   2.493   4.883   2.572  0.0299 -1.4209 -0.6437
 4995SOL    HW215306   2.568   4.781   2.676  0.1377  0.8796  1.6320
 4996SOL     OW15307   3.073   4.999   0.635 -0.0201 -0.2007  0.2970
 4996SOL    HW115308   3.149   4.940   0.608  0.2256 -1.1266  2.7034
 4996SOL    HW215309   2.987   4.948   0.627 -0.1696  0.1714 -0.5260
 4997SOL     OW15310   4.293   3.253   0.814  0.3410 -0.4835  0.1273
 4997SOL    HW115311   4.212   3.200   0.839 -0.3174 -0.0734 -1.0471
 4997SOL    HW215312   4.268   3.349   0.801  0.9961 -0.3657 -0.3181
 4998SOL     OW15313   5.150   4.771   0.315  0.6227  0.3154  0.0127
 4998SOL    HW115314   5.126   4.696   0.375 -1.6335  1.1412  0.2278
 4998SOL    HW215315   5.203   4.737   0.237  2.6492 -0.9241  1.8472
 4999SOL     OW15316   4.254   4.339   1.770  0.2160 -0.0873 -0.5189
 4999SOL    HW115317   4.297   4.425   1.744  0.4302 -0.7390 -2.4635
 4999SOL    HW215318   4.154   4.350   1.765  0.2213  0.2456 -0.0174
 5000SOL     OW15319   3.410   4.742   2.361 -0.5193 -0.1624 -0.2030
 5000SOL    HW115320   3.437   4.655   2.401 -1.0927 -0.0100  0.5312
 5000SOL    HW215321   3.474   4.813   2.390 -1.5521  0.1569  1.3555
 5001SOL     OW15322   3.441   4.855   5.501 -0.5396 -0.2775 -0.1929
 5001SOL    HW115323   3.366   4.877   5.564  0.5788  0.7255  0.8592
 5001SOL    HW215324   3.527   4.849   5.553  0.4053  0.4726 -1.5931
 5002SOL     OW15325   5.160   0.591   1.208  0.2405  0.5477 -0.2477
 5002SOL    HW115326   5.117   0.631   1.126 -2.9875 -0.8241  0.6241
 5002SOL    HW215327   5.117   0.629   1.290  1.3249 -0.3045  0.7405
 5003SOL     OW15328   3.628   3.915   0.741  0.2907  0.3340  0.1947
 5003SOL    HW115329   3.577   3.985   0.791 -0.8374  2.2911 -3.2721
 5003SOL    HW215330   3.564   3.859   0.688  1.4638  0.5655 -1.5649
 5004SOL     OW15331   4.456   0.142   0.746 -0.1628 -0.0696 -0.4379
 5004SOL    HW115332   4.482   0.110   0.837 -1.8738  1.1922  0.5609
 5004SOL    HW215333   4.363   0.110   0.724 -0.8718  1.9154 -0.5206
 5005SOL     OW15334   5.493   2.686   0.124  0.0378 -0.1314  0.3037
 5005SOL    HW115335   5.494   2.663   0.222 -1.9820  1.2505  0.7100
 5005SOL    HW215336   5.575   2.739   0.101  0.2213  0.0906  1.3971
 5006SOL     OW15337   2.526   4.648   2.118  0.2533  0.4461  0.2713
 5006SOL    HW115338   2.611   4.605   2.148 -1.1178 -1.6680  1.3754
 5006SOL    HW215339   2.509   4.730   2.174  0.9993  0.2516  0.8046
 5007SOL     OW15340   0.409   3.022   1.786  0.2990 -0.0326 -1.0553
 5007SOL    HW115341   0.342   2.948   1.794  0.4188  0.0322  1.8046
 5007SOL    HW215342   0.410   3.075   1.871  1.6393  2.0415 -2.2771
 5008SOL     OW15343   3.761   5.006   1.753  0.2307  0.5543  0.7234
 5008SOL    HW115344   3.717   4.916   1.753 -0.1499  0.7415  0.8294
 5008SOL    HW215345   3.766   5.040   1.847 -0.4810  1.0630  0.5851
 5009SOL     OW15346   4.601   4.014   0.091  0.0949 -0.2054 -0.5099
 5009SOL    HW115347   4.549   3.949   0.146  1.5681 -0.3219  0.7881
 5009SOL    HW215348   4.546   4.041   0.012 -1.1693 -1.7842 -0.2256
 5010SOL     OW15349   4.528   5.317   0.054  0.2317 -0.1426  0.3168
 5010SOL    HW115350   4.521   5.405   0.006  2.1854  0.7047  1.4834
 5010SOL    HW215351   4.547   5.245  -0.012 -0.7823  0.3860 -0.5870
 5011SOL     OW15352   3.171   3.891   2.235 -0.1996 -0.1884  0.0470
 5011SOL    HW115353   3.162   3.834   2.316  1.2932  0.7121  0.9000
 5011SOL    HW215354   3.143   3.984   2.256 -1.0475 -0.2181 -0.8665
 5012SOL     OW15355   4.352   4.559   1.610  0.8644 -0.4771  0.5190
 5012SOL    HW115356   4.430   4.510   1.571  1.9547  1.9082 -0.4778
 5012SOL    HW215357   4.273   4.549   1.550  0.6599 -2.0439  1.0031
 5013SOL     OW15358   4.945   4.760   5.067 -0.0722 -0.9539 -0.1518
 5013SOL    HW115359   5.031   4.785   5.112 -0.7271 -0.8731  1.1037
 5013SOL    HW215360   4.952   4.777   4.969  1.4198 -1.1726 -0.1001
 5014SOL     OW15361   4.891   2.993   0.798  0.9566 -0.4528  0.0974
 5014SOL    HW115362   4.926   3.026   0.886  0.7892 -1.7887  0.7056
 5014SOL    HW215363   4.863   2.897   0.809  0.1506 -0.3767 -1.2066
 5015SOL     OW15364   3.153   3.997   5.458  0.1992 -0.6875  0.0610
 5015SOL    HW115365   3.073   3.946   5.426  0.1085 -1.3319  1.2597
 5015SOL    HW215366   3.235   3.963   5.413  0.0381 -1.3874  0.2891
 5016SOL     OW15367   4.939   4.398   0.964 -0.2080  0.6564  0.1442
 5016SOL    HW115368   4.966   4.416   0.870 -1.6208 -0.4730 -0.5195
 5016SOL    HW215369   4.869   4.326   0.966  1.0945 -0.6812  2.1936
 5017SOL     OW15370   0.287   4.036   0.874 -0.1090 -0.5508 -0.0940
 5017SOL    HW115371   0.281   3.948   0.827 -0.7477 -0.0504 -0.9625
 5017SOL    HW215372   0.366   4.035   0.937  2.9810 -0.0906 -3.6070
 5018SOL     OW15373   3.832   4.341   3.874  0.0486  0.3073 -0.0489
 5018SOL    HW115374   3.813   4.243   3.861 -0.5462  0.5371 -0.9493
 5018SOL    HW215375   3.787   4.372   3.958  1.7214 -0.5760  1.2442
 5019SOL     OW15376   4.120   4.502   4.199 -0.0923  0.2195  0.2294
 5019SOL    HW115377   4.178   4.552   4.263 -0.1393 -0.3480  0.7215
 5019SOL    HW215378   4.177   4.458   4.129 -0.0055  0.4402  0.1606
 5020SOL     OW15379   3.794   3.880   1.054  0.5011  0.3982  0.4951
 5020SOL    HW115380   3.852   3.870   0.973  0.1297  0.8301  0.1698
 5020SOL    HW215381   3.812   3.968   1.097 -2.0612  1.9641 -1.3746
 5021SOL     OW15382   3.683   5.349   2.587  0.3397  0.7484  0.3215
 5021SOL    HW115383   3.779   5.320   2.582 -0.1139 -0.7127 -0.5108
 5021SOL    HW215384   3.628   5.292   2.526 -1.1835  1.0618  1.3590
 5022SOL     OW15385   4.399   4.430   1.249 -0.4734  0.0203 -0.1833
 5022SOL    HW115386   4.448   4.417   1.336 -1.0899 -1.5049 -0.0363
 5022SOL    HW215387   4.403   4.346   1.196  0.1650  1.0362 -1.8055
 5023SOL     OW15388   0.476   3.264   5.435 -0.1227 -0.5960 -0.0532
 5023SOL    HW115389   0.483   3.320   5.352 -0.7832 -0.1348  0.1898
 5023SOL    HW215390   0.552   3.285   5.496 -1.1512  1.1524  0.6904
 5024SOL     OW15391   4.552   2.680   5.525 -0.1556 -0.2752 -0.0288
 5024SOL    HW115392   4.611   2.758   5.543  0.9937 -1.4437  1.6187
 5024SOL    HW215393   4.551   2.659   5.427  2.0261 -0.0902 -0.1216
 5025SOL     OW15394   3.192   0.683   5.382  0.1627  0.4444 -0.3360
 5025SOL    HW115395   3.125   0.756   5.397  2.6830  2.4436  2.3677
 5025SOL    HW215396   3.273   0.722   5.338  1.5045 -0.7123  1.0220
 5026SOL     OW15397   1.150   4.065   4.909 -0.2376  0.5569 -0.1220
 5026SOL    HW115398   1.222   4.061   4.978 -1.1743 -2.3276  0.8313
 5026SOL    HW215399   1.073   4.119   4.944 -0.8540 -1.1678  1.3426
 5027SOL     OW15400   4.357   1.044   1.250 -0.1151 -0.3215 -0.2480
 5027SOL    HW115401   4.367   1.004   1.342 -0.1719  1.1200  0.4137
 5027SOL    HW215402   4.267   1.021   1.214 -1.1748  1.2989  1.2069
 5028SOL     OW15403   5.290   4.490   2.300  0.0784 -0.4753  0.0197
 5028SOL    HW115404   5.200   4.463   2.335 -0.3210 -1.7439 -1.8549
 5028SOL    HW215405   5.289   4.488   2.200  2.2551 -0.7294 -0.0411
 5029SOL     OW15406   3.569   0.004   4.932  0.2882 -0.1378  0.1569
 5029SOL    HW115407   3.509   0.075   4.970 -0.8230 -0.8655 -0.2171
 5029SOL    HW215408   3.664   0.035   4.939 -0.1222  1.1052  0.6053
 5030SOL     OW15409   0.479   3.393   0.555  0.2524 -0.2184 -0.3446
 5030SOL    HW115410   0.555   3.333   0.528  2.4057  1.6996  1.0861
 5030SOL    HW215411   0.498   3.432   0.645 -0.6937  3.0950 -1.4427
 5031SOL     OW15412   3.713   3.491   0.588 -0.6182 -0.2260 -0.1638
 5031SOL    HW115413   3.777   3.537   0.526  0.1310  0.7482  1.2804
 5031SOL    HW215414   3.744   3.398   0.604 -0.4429 -0.2682 -0.7148
 5032SOL     OW15415   5.310   4.110   1.940 -0.0355 -0.0626 -0.4241
 5032SOL    HW115416   5.308   4.081   1.845  0.9283  1.4020 -0.9196
 5032SOL    HW215417   5.216   4.123   1.973 -0.3622 -0.2402 -1.2709
 5033SOL     OW15418   3.294   5.417   2.514  0.4015 -0.0066  0.1523
 5033SOL    HW115419   3.236   5.496   2.532  1.4093  0.7788  0.0566
 5033SOL    HW215420   3.266   5.341   2.572 -2.1531 -0.4151 -1.4515
 5034SOL     OW15421   4.332   4.193   1.152  0.1130 -0.0795 -0.3644
 5034SOL    HW115422   4.251   4.195   1.093  0.9427 -0.4055 -1.5386
 5034SOL    HW215423   4.313   4.137   1.233 -0.4545 -1.1747 -1.2246
 5035SOL     OW15424   3.698   3.238   1.517  0.2780 -0.4729 -0.1957
 5035SOL    HW115425   3.759   3.274   1.447 -0.4518  1.7004  0.2147
 5035SOL    HW215426   3.751   3.217   1.600  0.5281  1.2764  0.1195
 5036SOL     OW15427   2.957   4.316   1.726 -0.1457  0.6108 -0.0093
 5036SOL    HW115428   2.999   4.360   1.647 -3.0506  2.3320 -0.7595
 5036SOL    HW215429   2.918   4.386   1.786 -0.6473 -0.7985  1.3655
 5037SOL     OW15430   3.413   3.861   5.333  0.0183  0.2951  0.4239
 5037SOL    HW115431   3.363   3.778   5.353 -0.7527  0.6379 -0.0424
 5037SOL    HW215432   3.506   3.838   5.304 -0.3540 -0.4271 -0.2065
 5038SOL     OW15433   0.082   5.289   5.033 -0.3376 -0.1282  0.1726
 5038SOL    HW115434   0.164   5.313   4.980 -0.3491 -0.8434 -0.1852
 5038SOL    HW215435   0.015   5.362   5.026 -0.0656  0.0832 -0.2418
 5039SOL     OW15436   2.618   4.237   0.093 -0.0635  0.0573 -0.1701
 5039SOL    HW115437   2.630   4.327   0.134  0.6246 -0.1528  0.1077
 5039SOL    HW215438   2.546   4.241   0.024  1.1812  1.2549 -1.4724
 5040SOL     OW15439   5.180   4.185   2.690 -0.0059  0.2568 -0.0186
 5040SOL    HW115440   5.242   4.261   2.707  1.5300 -1.1565  0.9768
 5040SOL    HW215441   5.127   4.166   2.773  0.0705 -0.1465 -0.0587
 5041SOL     OW15442   4.224   3.495   0.454 -0.3506  0.1700 -0.4021
 5041SOL    HW115443   4.222   3.498   0.354 -0.6139 -0.5006 -0.4232
 5041SOL    HW215444   4.229   3.588   0.490 -0.4475  0.4262 -1.0318
 5042SOL     OW15445   1.615   4.909   5.281  0.2861  0.0114 -0.2822
 5042SOL    HW115446   1.578   4.949   5.197  0.5097 -0.9489 -0.8477
 5042SOL    HW215447   1.551   4.842   5.318  1.1707 -1.2376 -0.9534
 5043SOL     OW15448   2.024   3.948   0.861  0.1852  0.2845  0.2883
 5043SOL    HW115449   2.045   3.881   0.790  1.2796 -0.1377  0.9916
 5043SOL    HW215450   1.952   4.009   0.828  0.4899 -0.0544 -1.0862
 5044SOL     OW15451   1.075   0.446   2.037  0.2723  0.6716 -0.3779
 5044SOL    HW115452   0.999   0.481   2.091 -0.7938  1.1763 -2.0947
 5044SOL    HW215453   1.154   0.505   2.050  0.0334  0.8014  0.5731
 5045SOL     OW15454   5.124   2.916   0.233  0.0584  0.0498  0.2076
 5045SOL    HW115455   5.142   2.834   0.288 -0.3602 -2.6707 -3.3026
 5045SOL    HW215456   5.193   2.922   0.161 -1.4381  1.2360 -1.1940
 5046SOL     OW15457   2.860   3.966   1.095  0.1563  0.2278 -0.4510
 5046SOL    HW115458   2.811   4.022   1.162 -0.5085  1.4646 -1.9025
 5046SOL    HW215459   2.859   4.012   1.007  0.6488 -1.5417 -1.4255
 5047SOL     OW15460   3.511   4.089   0.908 -0.0375  0.3206  0.4001
 5047SOL    HW115461   3.529   4.186   0.888 -1.4949  0.5057 -0.1263
 5047SOL    HW215462   3.418   4.079   0.942  0.0499 -0.9323  0.3056
 5048SOL     OW15463   5.107   2.756   0.594  0.1680 -0.6201 -0.7366
 5048SOL    HW115464   5.028   2.766   0.533 -0.4458 -1.6868 -0.1562
 5048SOL    HW215465   5.134   2.846   0.628 -0.3296 -0.1604 -1.5216
 5049SOL     OW15466   3.242   3.791   1.088 -0.7553  0.2447 -0.2443
 5049SOL    HW115467   3.215   3.744   1.172 -0.2012 -1.3158 -0.9028
 5049SOL    HW215468   3.341   3.806   1.088 -0.8028  0.5794 -0.4603
 5050SOL     OW15469   5.424   4.689   2.421 -0.1299  0.3460  0.0013
 5050SOL    HW115470   5.370   4.633   2.359 -0.9251  1.3626 -0.2567
 5050SOL    HW215471   5.513   4.646   2.437 -0.8862 -1.2068  0.1966
 5051SOL     OW15472   4.392   4.757   5.199 -0.3303  0.6342  0.2439
 5051SOL    HW115473   4.430   4.752   5.291  1.0816 -1.7477 -0.3819
 5051SOL    HW215474   4.337   4.676   5.180 -0.2865  0.8858 -1.1271
 5052SOL     OW15475   0.269   1.036   0.106 -0.6289 -0.4357 -0.5580
 5052SOL    HW115476   0.257   1.132   0.129  2.4204 -0.1849  0.4999
 5052SOL    HW215477   0.201   0.981   0.153 -0.8713  1.0132  0.8445
 5053SOL     OW15478   4.788   0.341   0.865 -0.8275  0.9789 -0.3484
 5053SOL    HW115479   4.757   0.320   0.958  2.3735  0.7348  0.7763
 5053SOL    HW215480   4.794   0.441   0.854 -1.0202  1.0060 -0.2158
 5054SOL     OW15481   4.996   5.262   1.162 -0.3418 -0.3394 -0.3633
 5054SOL    HW115482   4.979   5.168   1.190  0.2463 -0.1906  0.5261
 5054SOL    HW215483   5.029   5.263   1.068  0.3610 -1.0972 -0.1426
 5055SOL     OW15484   4.316   4.759   0.085 -0.3057  0.0082  0.0723
 5055SOL    HW115485   4.230   4.799   0.053 -0.3273 -0.8848 -1.0717
 5055SOL    HW215486   4.383   4.764   0.011 -0.2423 -1.8124 -0.0326
 5056SOL     OW15487   3.957   3.395   4.038  0.1659 -0.0364 -0.0344
 5056SOL    HW115488   4.015   3.469   4.004 -0.9358  1.6377  1.5551
 5056SOL    HW215489   3.918   3.345   3.960  1.3825  0.6676 -1.1343
 5057SOL     OW15490   5.359   4.289   1.568  0.1835  0.4166 -0.0403
 5057SOL    HW115491   5.343   4.206   1.514  2.2917 -0.0630 -0.0160
 5057SOL    HW215492   5.457   4.308   1.572 -0.2145  2.6805  0.3474
 5058SOL     OW15493   3.993   1.127   4.193  0.3572  0.1182  0.2047
 5058SOL    HW115494   3.970   1.032   4.215  1.3793 -0.1634  0.1049
 5058SOL    HW215495   3.983   1.183   4.275 -2.3003  0.3625 -0.1992
 5059SOL     OW15496   4.224   1.671   0.387 -0.0227 -0.0181  0.0793
 5059SOL    HW115497   4.167   1.592   0.364 -1.6129  1.1390 -0.1499
 5059SOL    HW215498   4.167   1.743   0.426  1.9149 -0.3172  3.9348
 5060SOL     OW15499   4.119   4.101   0.462  0.5274 -0.1765 -0.3679
 5060SOL    HW115500   4.073   4.024   0.419 -0.2521  0.5435 -0.8460
 5060SOL    HW215501   4.057   4.147   0.525  1.0250 -0.0086  0.0086
 5061SOL     OW15502   5.440   4.230   0.826 -0.2092 -0.2401  0.1109
 5061SOL    HW115503   5.512   4.165   0.800 -0.5913 -0.6530  0.0732
 5061SOL    HW215504   5.360   4.216   0.767 -1.3264 -1.5956  1.8386
 5062SOL     OW15505   5.482   4.323   0.032 -0.5477  0.3879 -0.3551
 5062SOL    HW115506   5.475   4.386   0.109 -0.1302 -0.3986  0.3319
 5062SOL    HW215507   5.391   4.299  -0.000 -0.7517 -0.0509  0.5304
 5063SOL     OW15508   3.874   5.146   5.420 -0.1450 -0.1903 -0.5609
 5063SOL    HW115509   3.876   5.046   5.427 -1.8614 -0.3648 -1.8927
 5063SOL    HW215510   3.828   5.184   5.500  2.2713 -0.2558  0.9611
 5064SOL     OW15511   2.925   0.258   2.134  0.4156  0.2561 -0.2423
 5064SOL    HW115512   2.831   0.270   2.101 -0.3072  2.6585  2.3713
 5064SOL    HW215513   2.924   0.208   2.221  1.6904 -0.5105 -0.6324
 5065SOL     OW15514   4.109   3.807   1.095 -0.3384 -0.0612 -0.3720
 5065SOL    HW115515   4.195   3.763   1.072  0.5301  1.8479 -1.0359
 5065SOL    HW215516   4.043   3.739   1.125  0.9718 -1.7339 -1.1348
 5066SOL     OW15517   4.976   3.102   1.030 -0.2994 -0.2306 -0.2293
 5066SOL    HW115518   5.000   3.193   0.998  1.9992 -0.8752 -0.5354
 5066SOL    HW215519   5.042   3.073   1.099 -1.2786 -1.4917  0.2203
 5067SOL     OW15520   4.002   0.084   1.065 -0.5483  0.5264 -0.4391
 5067SOL    HW115521   3.934   0.158   1.072 -0.7953  0.3450 -0.8806
 5067SOL    HW215522   4.088   0.115   1.105 -1.3413  0.1884  1.6443
 5068SOL     OW15523   2.044   0.223   1.967  0.2366  0.5905 -0.4162
 5068SOL    HW115524   1.981   0.156   2.006  0.9037  0.7578  1.0037
 5068SOL    HW215525   1.996   0.309   1.951 -0.9315 -0.4397 -3.3050
 5069SOL     OW15526   1.994   4.819   1.521 -0.2876 -0.2255  0.1016
 5069SOL    HW115527   1.964   4.850   1.611 -0.1613  0.2811 -0.0280
 5069SOL    HW215528   1.939   4.740   1.492 -1.1347  0.3669  0.0897
 5070SOL     OW15529   4.418   5.207   0.652 -0.8597  0.2820  0.8354
 5070SOL    HW115530   4.500   5.257   0.624  0.7225 -3.3388 -1.7174
 5070SOL    HW215531   4.412   5.205   0.752  1.8984  1.0547  1.0780
 5071SOL     OW15532   4.767   4.670   1.396  0.3313  0.1696  0.1387
 5071SOL    HW115533   4.866   4.657   1.404  0.3989  0.7426  0.2411
 5071SOL    HW215534   4.730   4.601   1.334  0.6276 -0.7419  0.9566
 5072SOL     OW15535   5.171   2.897   5.147  0.0470  0.2394  0.0928
 5072SOL    HW115536   5.253   2.888   5.203  0.9094  3.2555 -0.4783
 5072SOL    HW215537   5.090   2.897   5.206  0.4072 -2.2633  0.7021
 5073SOL     OW15538   3.563   3.783   1.942  0.5036  0.1224 -0.6031
 5073SOL    HW115539   3.633   3.816   1.878  2.5390  1.2287  1.9757
 5073SOL    HW215540   3.548   3.853   2.012  0.6794 -2.1222  1.8303
 5074SOL     OW15541   3.870   3.736   1.689 -0.4946 -0.1856 -0.4620
 5074SOL    HW115542   3.813   3.685   1.754 -1.5040  2.2423  0.7114
 5074SOL    HW215543   3.843   3.832   1.691  1.4032  0.4544 -2.4427
 5075SOL     OW15544   1.216   3.280   1.118  0.4882 -0.3926 -0.0649
 5075SOL    HW115545   1.133   3.307   1.069 -0.9598  0.5614  2.7068
 5075SOL    HW215546   1.241   3.186   1.093 -1.1058 -0.5106 -1.3491
 5076SOL     OW15547   4.826   3.854   1.230  0.6875  0.4826 -0.0277
 5076SOL    HW115548   4.884   3.928   1.266  1.6952 -0.1968 -0.2192
 5076SOL    HW215549   4.826   3.778   1.295 -0.1828  0.5700  0.0741
 5077SOL     OW15550   3.275   4.374   3.612  0.0849  0.0554 -0.2694
 5077SOL    HW115551   3.210   4.360   3.687  0.1112 -0.3499 -0.3223
 5077SOL    HW215552   3.368   4.365   3.646  0.3081  3.9438  0.5686
 5078SOL     OW15553   2.866   5.174   1.049  0.4661 -0.1124 -0.1284
 5078SOL    HW115554   2.931   5.142   0.980  0.8073  0.9188 -0.2932
 5078SOL    HW215555   2.832   5.264   1.025 -2.5130 -1.3417 -1.0353
 5079SOL     OW15556   4.452   4.254   0.542 -0.4718 -0.5865  0.3724
 5079SOL    HW115557   4.466   4.184   0.612  1.3016 -1.0501 -0.4074
 5079SOL    HW215558   4.435   4.209   0.454 -0.1747 -0.0256  0.0261
 5080SOL     OW15559   3.497   3.883   0.271 -0.2515 -0.6863  0.4855
 5080SOL    HW115560   3.496   3.966   0.215 -0.6124 -0.4543  0.8269
 5080SOL    HW215561   3.591   3.859   0.294 -0.1164 -0.6332  0.0077
 5081SOL     OW15562   3.612   4.787   1.773  0.0123  0.5806  0.4413
 5081SOL    HW115563   3.545   4.805   1.702  1.7448  0.8861 -1.1983
 5081SOL    HW215564   3.567   4.749   1.854 -1.9868  0.0332 -0.8820
 5082SOL     OW15565   2.154   3.660   0.459 -0.0847  0.5636 -0.1497
 5082SOL    HW115566   2.185   3.649   0.364  0.6918 -0.9494  0.2481
 5082SOL    HW215567   2.110   3.576   0.490 -0.7923  1.2196  0.6854
 5083SOL     OW15568   2.872   5.288   1.849 -0.4336  0.1336  0.2819
 5083SOL    HW115569   2.886   5.221   1.777 -1.0392  0.4097 -0.1109
 5083SOL    HW215570   2.786   5.268   1.897  0.4581 -0.6277  1.5872
 5084SOL     OW15571   0.578   4.803   2.340 -0.3963 -0.2841  0.6973
 5084SOL    HW115572   0.544   4.783   2.432 -1.2522  0.6051  0.5769
 5084SOL    HW215573   0.503   4.832   2.282  0.1010 -1.0355 -0.3612
 5085SOL     OW15574   3.152   2.768   0.674  0.6710  0.1774  0.3257
 5085SOL    HW115575   3.227   2.747   0.611 -0.7477 -0.5098 -1.1942
 5085SOL    HW215576   3.146   2.698   0.744  1.0508 -0.1098  0.0741
 5086SOL     OW15577   5.033   4.380   5.173 -0.2699  0.1513  0.1400
 5086SOL    HW115578   4.956   4.386   5.110 -0.7564 -0.0717  0.6967
 5086SOL    HW215579   5.114   4.422   5.132 -0.2732 -0.9645 -1.0749
 5087SOL     OW15580   5.341   2.911   0.061  0.3337 -0.3689 -0.1595
 5087SOL    HW115581   5.397   2.833   0.089  0.7945 -0.5892 -1.5828
 5087SOL    HW215582   5.392   2.967  -0.003  0.3383  1.6406  1.5180
 5088SOL     OW15583   5.273   4.699   1.854 -0.6327 -1.2581 -0.0865
 5088SOL    HW115584   5.195   4.643   1.882 -0.5194 -1.3210  0.1071
 5088SOL    HW215585   5.249   4.751   1.772 -1.3141 -0.3240  0.6726
 5089SOL     OW15586   0.529   4.481   2.187  0.2904 -0.1418 -0.6106
 5089SOL    HW115587   0.546   4.391   2.148 -0.6169 -0.2421 -0.8025
 5089SOL    HW215588   0.551   4.551   2.119  1.7705 -0.1618 -0.1888
 5090SOL     OW15589   1.692   5.048   2.803 -0.5747 -0.1615 -0.0377
 5090SOL    HW115590   1.620   5.107   2.767 -1.2080 -2.3484 -2.7021
 5090SOL    HW215591   1.781   5.082   2.773 -0.5110  1.6780  1.9789
 5091SOL     OW15592   4.670   2.917   0.285  0.6524 -0.1755 -0.6397
 5091SOL    HW115593   4.750   2.932   0.227  2.4133 -0.2987  1.6080
 5091SOL    HW215594   4.628   3.006   0.307  0.2672 -0.0946 -1.6546
 5092SOL     OW15595   3.920   4.558   0.223 -0.0119  0.4653 -0.0416
 5092SOL    HW115596   3.842   4.597   0.272 -0.1441  0.0247  0.1043
 5092SOL    HW215597   3.930   4.461   0.247 -0.2071  0.1808 -1.0393
 5093SOL     OW15598   4.208   5.164   1.569  0.5226 -0.1940 -0.5137
 5093SOL    HW115599   4.164   5.254   1.571 -1.7751 -1.2541  0.5338
 5093SOL    HW215600   4.301   5.172   1.604  0.6015  1.8652 -1.0493
 5094SOL     OW15601   4.271   3.860   2.151  0.2758  0.0944 -0.0182
 5094SOL    HW115602   4.230   3.951   2.162  1.2452  0.3737  1.5901
 5094SOL    HW215603   4.328   3.858   2.069 -1.2074  0.3528 -1.0859
 5095SOL     OW15604   2.281   5.382   1.717  0.1110  0.1345 -0.1569
 5095SOL    HW115605   2.290   5.316   1.642  1.7865 -0.0872  0.1783
 5095SOL    HW215606   2.259   5.472   1.680  2.2518  0.3353 -1.1274
 5096SOL     OW15607   2.516   0.865   3.121 -0.1075 -0.2956 -0.7434
 5096SOL    HW115608   2.426   0.873   3.164  0.0058  0.5451 -0.6588
 5096SOL    HW215609   2.588   0.885   3.187  0.0598  1.1834 -1.3313
 5097SOL     OW15610   3.621   4.237   1.182 -0.6456 -0.0483 -0.2709
 5097SOL    HW115611   3.700   4.275   1.231 -1.4816 -0.7364  1.7281
 5097SOL    HW215612   3.653   4.192   1.098  0.8854  1.0260 -0.3048
 5098SOL     OW15613   4.402   3.523   0.953  0.1478 -0.2736 -0.6208
 5098SOL    HW115614   4.487   3.570   0.931  0.6778  0.3581  2.2798
 5098SOL    HW215615   4.328   3.557   0.894  1.1179  2.0505 -0.6131
 5099SOL     OW15616   4.967   5.389   2.433 -0.2611  0.2517 -0.0338
 5099SOL    HW115617   4.988   5.482   2.461 -1.6260  0.5153  0.1796
 5099SOL    HW215618   4.989   5.377   2.336 -2.0188  1.4687 -0.6392
 5100SOL     OW15619   3.691   5.376   1.062 -0.6441  0.4173 -0.1732
 5100SOL    HW115620   3.762   5.411   1.123  1.1388  1.8013 -2.8190
 5100SOL    HW215621   3.714   5.284   1.033 -0.7237  0.3036  0.1232
 5101SOL     OW15622   4.214   4.865   0.380 -0.3238 -0.1599 -0.1008
 5101SOL    HW115623   4.292   4.848   0.440  0.9637 -0.4658 -1.7884
 5101SOL    HW215624   4.213   4.961   0.353 -1.7256  0.3060  1.4714
 5102SOL     OW15625   2.251   4.109   1.004  0.3021  0.2856 -0.4403
 5102SOL    HW115626   2.213   4.068   1.087  0.0647  0.2072 -0.5907
 5102SOL    HW215627   2.180   4.160   0.956  0.2522 -0.3109 -1.0096
 5103SOL     OW15628   4.549   2.615   1.637  0.1044  0.0969 -0.1029
 5103SOL    HW115629   4.541   2.537   1.575 -0.6008  2.1380 -2.7428
 5103SOL    HW215630   4.632   2.666   1.616  0.2158  0.4635  1.1426
 5104SOL     OW15631   3.720   4.500   1.858  0.1807  0.4103  0.5696
 5104SOL    HW115632   3.677   4.523   1.945 -1.9622  0.8278 -0.5359
 5104SOL    HW215633   3.805   4.552   1.848 -0.2864  1.4495  1.7735
 5105SOL     OW15634   3.566   4.920   5.123 -0.3418  0.3412  0.0171
 5105SOL    HW115635   3.652   4.914   5.174 -0.0394  1.9248 -0.2391
 5105SOL    HW215636   3.497   4.863   5.167  1.2977 -2.4465 -0.8215
 5106SOL     OW15637   4.793   3.591   3.845 -0.4607  0.3258 -0.6522
 5106SOL    HW115638   4.826   3.626   3.933  0.3604 -0.8013 -0.4809
 5106SOL    HW215639   4.847   3.511   3.820 -0.5335  0.7698 -2.3128
 5107SOL     OW15640   0.064   0.859   2.643 -0.0012  0.3935 -0.0066
 5107SOL    HW115641   0.030   0.812   2.724  0.5132 -0.1011 -0.0615
 5107SOL    HW215642   0.037   0.808   2.561 -0.0181  0.5668 -0.1097
 5108SOL     OW15643   0.774   5.226   0.704 -0.1987 -0.3736  0.2032
 5108SOL    HW115644   0.790   5.183   0.615  1.4570 -1.1221  0.8208
 5108SOL    HW215645   0.752   5.323   0.690 -2.5416 -1.0007 -1.1263
 5109SOL     OW15646   1.629   5.016   1.290  0.8045 -0.5834 -0.1467
 5109SOL    HW115647   1.674   4.971   1.213  1.2772 -3.7625  1.8202
 5109SOL    HW215648   1.578   4.949   1.343 -1.7041  1.9431  0.9177
 5110SOL     OW15649   3.007   4.705   1.433  0.0758  0.2001 -0.0111
 5110SOL    HW115650   3.070   4.708   1.356  0.1678 -2.6016 -0.1479
 5110SOL    HW215651   3.019   4.787   1.490  2.3145  0.7429 -1.1711
 5111SOL     OW15652   4.315   5.504   2.008 -0.6953  0.0581  0.3617
 5111SOL    HW115653   4.352   5.485   2.099 -0.5382 -0.2649  0.2336
 5111SOL    HW215654   4.377   5.467   1.939  0.8011  2.9191 -0.0019
 5112SOL     OW15655   2.646   3.541   2.230 -0.0878 -0.1022  0.7336
 5112SOL    HW115656   2.727   3.555   2.173  0.0684  2.3378  1.4460
 5112SOL    HW215657   2.564   3.547   2.173  0.1562 -0.4127  0.3465
 5113SOL     OW15658   5.268   0.369   5.125 -0.3794  0.4134  0.7815
 5113SOL    HW115659   5.267   0.456   5.076  2.1776 -0.0482 -0.2974
 5113SOL    HW215660   5.253   0.294   5.060  1.8500 -0.1358  0.8153
 5114SOL     OW15661   0.632   3.992   2.491  0.2612  0.1070  0.1605
 5114SOL    HW115662   0.720   3.945   2.491 -0.1096 -0.6315 -0.8213
 5114SOL    HW215663   0.631   4.062   2.563  0.9460 -1.1665  1.4684
 5115SOL     OW15664  -0.015   5.340   1.006  0.0236  0.1563  0.2460
 5115SOL    HW115665   0.076   5.309   1.032 -0.6447 -1.2670  1.0034
 5115SOL    HW215666  -0.032   5.315   0.910  1.0244  1.9112 -0.4207
 5116SOL     OW15667   2.742   4.908   3.248 -0.5180 -0.2603 -0.5660
 5116SOL    HW115668   2.805   4.927   3.174 -1.7269 -0.7672 -1.7671
 5116SOL    HW215669   2.674   4.982   3.253  0.2587  0.3977  0.8527
 5117SOL     OW15670   3.820   5.021   0.652  0.0884 -0.6828  0.1157
 5117SOL    HW115671   3.891   4.973   0.601 -0.0829 -0.0549 -0.7626
 5117SOL    HW215672   3.840   5.119   0.652 -1.3146 -0.3385 -1.1337
 5118SOL     OW15673   3.870   3.416   4.672 -0.3023  0.0474 -0.5263
 5118SOL    HW115674   3.961   3.416   4.629 -0.1809 -0.3613 -0.2731
 5118SOL    HW215675   3.804   3.459   4.609 -0.3090 -1.3617 -1.5403
 5119SOL     OW15676   0.052   3.472   4.376 -0.1495  0.0488  0.0813
 5119SOL    HW115677   0.144   3.504   4.352  0.2415 -1.4332 -0.4999
 5119SOL    HW215678   0.006   3.438   4.294 -0.7393 -0.3733  0.5780
 5120SOL     OW15679   0.874   4.304   0.999 -0.2253 -0.8709 -0.1202
 5120SOL    HW115680   0.899   4.289   0.904  0.6051 -3.0608  0.3751
 5120SOL    HW215681   0.957   4.308   1.055 -0.7371 -3.4465  0.9578
 5121SOL     OW15682   2.392   0.471   2.560 -0.5699 -0.2491  0.1688
 5121SOL    HW115683   2.386   0.391   2.620  1.8689 -1.6685 -1.3066
 5121SOL    HW215684   2.324   0.463   2.487  0.1335 -1.4245 -0.3956
 5122SOL     OW15685   5.299   5.101   1.188  0.0394  0.1456  0.5189
 5122SOL    HW115686   5.266   5.076   1.097 -1.2746  0.0995  0.9788
 5122SOL    HW215687   5.240   5.174   1.225  0.4337  0.0145  1.4078
 5123SOL     OW15688   4.872   4.373   1.525 -0.3680  0.3930 -0.0432
 5123SOL    HW115689   4.947   4.428   1.564  0.9246 -1.1572 -0.2361
 5123SOL    HW215690   4.875   4.380   1.425 -0.5565  0.4255 -0.0456
 5124SOL     OW15691   5.453   0.607   5.335  0.4187 -0.1731  0.2134
 5124SOL    HW115692   5.502   0.684   5.375  1.1338  0.0453 -1.0003
 5124SOL    HW215693   5.381   0.641   5.274 -0.3093 -0.4908  0.8740
 5125SOL     OW15694   3.522   4.597   0.602 -0.3857  0.0920  0.1713
 5125SOL    HW115695   3.617   4.606   0.574 -0.1417  0.4354  1.0844
 5125SOL    HW215696   3.465   4.584   0.521  0.4008  0.1515 -0.4055
 5126SOL     OW15697   1.338   3.981   4.503 -0.2336  0.6212  0.0945
 5126SOL    HW115698   1.338   3.886   4.470 -0.6073  0.9028 -0.7324
 5126SOL    HW215699   1.244   4.015   4.505 -0.0328  1.1956 -0.2457
 5127SOL     OW15700   5.014   4.714   0.599  0.6591  0.2179 -0.2670
 5127SOL    HW115701   5.089   4.758   0.649  0.5578  0.0173  0.0651
 5127SOL    HW215702   5.049   4.631   0.554  0.3270 -0.7089  1.1134
 5128SOL     OW15703   4.968   0.316   1.106 -0.2131 -0.4679  0.2233
 5128SOL    HW115704   4.944   0.221   1.130 -0.6064 -1.0606 -2.2700
 5128SOL    HW215705   5.057   0.317   1.061 -0.0668  0.4140  0.5245
 5129SOL     OW15706   2.174   5.429   2.200 -0.1803  0.8345 -0.4301
 5129SOL    HW115707   2.243   5.500   2.207 -0.2171  0.7916  0.6685
 5129SOL    HW215708   2.161   5.403   2.105 -0.3664  2.4846 -0.8844
 5130SOL     OW15709   0.235   4.006   2.440  0.2905 -0.3819  0.0468
 5130SOL    HW115710   0.314   3.948   2.417  0.8544  0.6736 -0.8013
 5130SOL    HW215711   0.187   4.030   2.356 -1.2479 -1.3910  0.5962
 5131SOL     OW15712   0.813   5.033   0.893 -0.0267 -0.3894  0.7517
 5131SOL    HW115713   0.785   5.102   0.826  2.1972  0.7696  0.9207
 5131SOL    HW215714   0.760   5.046   0.977  0.4550  1.2833  0.8339
 5132SOL     OW15715   4.630   4.789   0.837  0.3105  0.0876 -0.3886
 5132SOL    HW115716   4.671   4.880   0.843 -0.0277  0.3278 -1.5356
 5132SOL    HW215717   4.673   4.737   0.763  1.9040 -1.4527  1.4824
 5133SOL     OW15718   5.210   4.591   0.852 -0.0560  0.2731 -0.0553
 5133SOL    HW115719   5.277   4.544   0.794  1.1757  0.3677  1.2172
 5133SOL    HW215720   5.179   4.528   0.924  2.0880  1.4689  2.0503
 5134SOL     OW15721   1.729   3.958   1.164 -0.6332 -0.1137  0.4050
 5134SOL    HW115722   1.726   4.043   1.112  0.2951 -0.9908 -1.1675
 5134SOL    HW215723   1.821   3.918   1.157 -1.0850 -1.3121  1.0244
 5135SOL     OW15724   0.831   2.013   1.208 -0.3646 -0.1115 -0.2783
 5135SOL    HW115725   0.863   2.089   1.266 -0.7469 -0.1833  0.0319
 5135SOL    HW215726   0.865   1.927   1.245 -1.9448 -0.3151  0.8181
 5136SOL     OW15727   3.528   4.988   2.023 -0.8211  0.0789 -0.4146
 5136SOL    HW115728   3.623   5.017   2.032 -0.5685 -0.8646  0.1680
 5136SOL    HW215729   3.525   4.888   2.012 -1.7455  0.0908 -0.3588
 5137SOL     OW15730   5.466   4.318   2.443 -0.1292  0.3191 -0.3873
 5137SOL    HW115731   5.386   4.362   2.400 -0.7841 -0.4448  0.0205
 5137SOL    HW215732   5.545   4.327   2.383 -0.5755  0.8955 -0.9076
 5138SOL     OW15733   3.389   1.217   2.290  0.3516 -0.5089  0.2940
 5138SOL    HW115734   3.314   1.270   2.328  0.7901  0.2110  0.1700
 5138SOL    HW215735   3.398   1.238   2.192  0.8709 -0.4018  0.3636
 5139SOL     OW15736   4.258   2.085   0.099  0.5059 -0.7534  0.0613
 5139SOL    HW115737   4.341   2.078   0.044  0.0451 -0.6189 -0.6559
 5139SOL    HW215738   4.194   2.149   0.056  1.3536  1.8279  2.3001
 5140SOL     OW15739   0.067   4.549   2.771 -0.1835  0.0879 -0.4874
 5140SOL    HW115740   0.129   4.470   2.765  1.6527  1.1334  2.3313
 5140SOL    HW215741  -0.007   4.528   2.834 -1.0328 -0.1452 -1.5479
 5141SOL     OW15742   3.294   4.984   2.906 -0.5503  0.0186  0.1304
 5141SOL    HW115743   3.377   5.022   2.865 -0.6041 -2.0821 -2.1536
 5141SOL    HW215744   3.318   4.908   2.966 -0.7899 -0.1063  0.0688
 5142SOL     OW15745   3.212   4.996   2.333 -0.1931 -0.3286 -0.7079
 5142SOL    HW115746   3.270   4.917   2.353 -0.0727  0.4737  2.7010
 5142SOL    HW215747   3.260   5.058   2.271  1.3962 -1.0837 -0.2879
 5143SOL     OW15748   4.070   3.074   0.915  0.1835 -0.0361  0.4520
 5143SOL    HW115749   3.979   3.074   0.957 -0.3599 -1.0440 -0.6401
 5143SOL    HW215750   4.061   3.054   0.817  1.4635  1.4390  0.0007
 5144SOL     OW15751   0.218   1.648   5.512 -0.1009  0.5799  0.0302
 5144SOL    HW115752   0.134   1.596   5.496  1.1955 -2.3514  1.8442
 5144SOL    HW215753   0.197   1.733   5.560 -2.1069  0.6174 -0.8125
 5145SOL     OW15754   3.500   4.699   2.008 -0.4359  0.3196 -0.4028
 5145SOL    HW115755   3.541   4.634   2.072  1.0719 -0.5276 -2.1381
 5145SOL    HW215756   3.401   4.685   2.005 -0.8699  1.6464  3.0605
 5146SOL     OW15757   1.836   0.517   1.096  0.3656 -0.3150 -0.1382
 5146SOL    HW115758   1.816   0.462   1.014  0.3443 -0.9861  0.3048
 5146SOL    HW215759   1.928   0.555   1.089  0.7644 -1.2162 -0.0269
 5147SOL     OW15760   4.549   4.019   1.819 -0.1664 -0.4624  0.0892
 5147SOL    HW115761   4.498   3.935   1.837 -2.0641  0.2749 -1.3673
 5147SOL    HW215762   4.611   4.005   1.741  0.3339 -0.8000  0.5462
 5148SOL     OW15763   5.308   4.389   1.048 -0.7402  0.5624 -0.8030
 5148SOL    HW115764   5.369   4.346   0.982 -1.4153 -1.0984 -0.4009
 5148SOL    HW215765   5.266   4.318   1.106 -1.2137  1.8542  0.4967
 5149SOL     OW15766   4.086   5.365   2.055 -0.6010  0.1980 -0.2839
 5149SOL    HW115767   4.176   5.401   2.031 -0.7069  0.0974 -0.8566
 5149SOL    HW215768   4.069   5.378   2.153  0.0775  0.1125 -0.1532
 5150SOL     OW15769   2.991   1.393   2.920  0.0143  0.1772 -0.2843
 5150SOL    HW115770   3.045   1.396   2.836  0.1039 -0.0022 -0.2324
 5150SOL    HW215771   3.049   1.366   2.996  0.0448  0.8069 -0.0749
 5151SOL     OW15772   2.903   3.256   0.224  0.0290 -0.6598 -0.7395
 5151SOL    HW115773   2.988   3.304   0.244 -0.6536  0.0593  0.5234
 5151SOL    HW215774   2.917   3.157   0.233  0.4794 -0.4956  0.4683
 5152SOL     OW15775   2.985   0.346   0.708 -0.2751  0.1948 -0.2834
 5152SOL    HW115776   3.058   0.310   0.767  0.7179  1.0769 -0.9240
 5152SOL    HW215777   2.931   0.413   0.759  0.5205  0.8876 -0.3275
 5153SOL     OW15778   4.780   2.463   1.166  0.3986 -0.1803 -0.0164
 5153SOL    HW115779   4.877   2.452   1.146  0.0756 -0.0298 -1.8199
 5153SOL    HW215780   4.727   2.443   1.084 -1.0760  0.2483  0.8019
 5154SOL     OW15781   4.863   4.337   4.963  0.1230 -0.6205  0.1024
 5154SOL    HW115782   4.797   4.292   5.023 -1.0758 -0.3945 -1.0015
 5154SOL    HW215783   4.855   4.299   4.871  1.2898 -0.3238 -0.1349
 5155SOL     OW15784   4.078   0.313   4.925 -0.0249  0.1892 -0.1144
 5155SOL    HW115785   3.979   0.301   4.929  0.0192 -0.0441  0.2864
 5155SOL    HW215786   4.117   0.250   4.858 -0.2449  0.9018 -0.9240
 5156SOL     OW15787   2.517   5.288   2.163 -0.2868 -0.6992  0.3647
 5156SOL    HW115788   2.488   5.346   2.087  0.3671 -0.8222  0.0147
 5156SOL    HW215789   2.558   5.204   2.127 -1.5585 -1.5503  0.8741
 5157SOL     OW15790   3.666   4.781   1.069  0.1921 -0.7799 -0.6731
 5157SOL    HW115791   3.725   4.840   1.015  0.7857 -0.8947 -0.1604
 5157SOL    HW215792   3.672   4.806   1.166 -1.3301 -0.1714 -0.7074
 5158SOL     OW15793   0.054   0.030   1.774  0.2234  0.5885 -0.3082
 5158SOL    HW115794   0.140   0.074   1.800  0.5895  0.4268 -1.2331
 5158SOL    HW215795   0.034  -0.045   1.838 -0.2249  1.8309  1.0748
 5159SOL     OW15796   4.779   4.978   2.180 -0.1278 -0.0793  0.3217
 5159SOL    HW115797   4.818   5.031   2.256 -0.0189 -0.8322  0.7990
 5159SOL    HW215798   4.850   4.958   2.113  0.1635 -0.8317  0.8396
 5160SOL     OW15799   2.930   0.178   3.267  0.4901  0.5151 -0.1020
 5160SOL    HW115800   2.848   0.142   3.222 -0.3812  1.1311  0.9488
 5160SOL    HW215801   3.009   0.166   3.206 -0.6476  1.3779 -1.8513
 5161SOL     OW15802   3.748   3.774   0.340  0.0922  0.4466 -0.3209
 5161SOL    HW115803   3.789   3.683   0.344 -0.1974  0.2177 -1.9171
 5161SOL    HW215804   3.820   3.841   0.321  0.2843  0.5556  0.7194
 5162SOL     OW15805   2.164   3.967   2.687 -0.1289 -0.0611  0.8826
 5162SOL    HW115806   2.082   3.975   2.743 -1.2526  0.9388 -0.7952
 5162SOL    HW215807   2.197   4.058   2.663 -0.8396 -0.3775 -1.5995
 5163SOL     OW15808   0.111   3.416   1.943  0.6754  0.3971  0.5602
 5163SOL    HW115809   0.079   3.337   1.890 -0.6675 -0.1167  2.0765
 5163SOL    HW215810   0.119   3.495   1.883  3.9263 -1.2450 -1.4668
 5164SOL     OW15811   3.632   2.254   1.637 -0.0954  0.1517  0.2308
 5164SOL    HW115812   3.602   2.225   1.727  2.2273 -0.4340  0.8761
 5164SOL    HW215813   3.682   2.180   1.593 -0.3119  0.7836 -1.1382
 5165SOL     OW15814   4.387   5.422   2.267 -0.0705  0.1138  0.4132
 5165SOL    HW115815   4.465   5.478   2.295  1.5494 -2.1968  0.8269
 5165SOL    HW215816   4.364   5.358   2.341 -1.7014  0.0533 -0.1129
 5166SOL     OW15817   0.468   3.663   0.618  0.0042  0.3050  0.1478
 5166SOL    HW115818   0.556   3.703   0.643 -0.5306  0.9138  1.1231
 5166SOL    HW215819   0.479   3.606   0.537  1.0556  1.3305 -0.4533
 5167SOL     OW15820   0.679   4.534   0.265  0.2196  0.1414 -0.6451
 5167SOL    HW115821   0.707   4.459   0.206 -1.0963 -1.1387  0.2891
 5167SOL    HW215822   0.757   4.595   0.281  1.2274 -0.8306 -1.6837
 5168SOL     OW15823   5.479   3.506   0.947  0.2656 -0.1684 -0.2441
 5168SOL    HW115824   5.497   3.521   0.850  0.1310 -0.9966 -0.4018
 5168SOL    HW215825   5.389   3.544   0.971 -1.0001 -2.4110 -1.1025
 5169SOL     OW15826   0.143   2.900   0.078 -0.2305  0.3514  0.3140
 5169SOL    HW115827   0.235   2.915   0.115 -0.3083  1.2119  0.1781
 5169SOL    HW215828   0.087   2.980   0.097 -0.5402  0.4259 -0.8733
 5170SOL     OW15829   4.229   5.146   0.431  0.5623 -0.0784  0.2127
 5170SOL    HW115830   4.268   5.172   0.519  2.3277 -2.4689  0.2093
 5170SOL    HW215831   4.261   5.210   0.360  1.7912 -0.0324  0.7863
 5171SOL     OW15832   3.799   4.672   0.567  0.4444 -0.1181 -0.5107
 5171SOL    HW115833   3.863   4.747   0.555 -0.2326  1.3355  3.5259
 5171SOL    HW215834   3.832   4.610   0.638 -0.9627 -1.3985 -0.9096
 5172SOL     OW15835  -0.002   4.455   0.439  0.2439  0.0983 -0.4800
 5172SOL    HW115836   0.013   4.479   0.535  0.5764  1.2261 -0.8022
 5172SOL    HW215837   0.085   4.459   0.390  0.2900 -1.6099 -0.6157
 5173SOL     OW15838   0.299   3.700  -0.006  0.4343 -0.5660 -0.2034
 5173SOL    HW115839   0.374   3.697  -0.072  0.6343  3.6489 -0.4390
 5173SOL    HW215840   0.331   3.666   0.082  2.0432 -0.7054 -0.8142
 5174SOL     OW15841   5.233   3.252   0.117 -0.2956 -0.3623 -0.1862
 5174SOL    HW115842   5.251   3.170   0.063  1.0468 -0.3515  0.2193
 5174SOL    HW215843   5.309   3.269   0.179  0.2000  2.1050 -1.3767
 5175SOL     OW15844   3.464   3.679   4.529 -0.9790  0.4801 -0.0340
 5175SOL    HW115845   3.460   3.752   4.461 -1.6791  1.2891  0.8546
 5175SOL    HW215846   3.394   3.693   4.599  0.0813  0.0118  1.1897
 5176SOL     OW15847   4.705   4.391   0.545 -0.5847  0.5221  0.3326
 5176SOL    HW115848   4.613   4.366   0.573 -0.4730  0.1578  0.3842
 5176SOL    HW215849   4.728   4.343   0.460 -1.5161  2.8441 -1.3120
 5177SOL     OW15850   2.389   5.357   2.726 -0.0849  0.0605  0.2346
 5177SOL    HW115851   2.443   5.281   2.761  2.1364  1.2310 -0.5000
 5177SOL    HW215852   2.421   5.382   2.635  0.2946  2.8037  1.0266
 5178SOL     OW15853   4.344   0.154   2.505 -0.8659  0.5896 -0.0737
 5178SOL    HW115854   4.358   0.210   2.423  0.3319  2.4457  1.2919
 5178SOL    HW215855   4.432   0.127   2.542 -1.4276 -1.5536 -0.2069
 5179SOL     OW15856   3.070   3.784   2.005 -0.0117  0.0351 -0.1217
 5179SOL    HW115857   3.118   3.811   2.089  0.3097  2.4771 -0.9966
 5179SOL    HW215858   3.138   3.758   1.936  0.0341  1.9246 -0.8454
 5180SOL     OW15859   3.759   0.905   4.301 -0.3603 -0.1602  0.5222
 5180SOL    HW115860   3.785   0.908   4.397  1.4054  4.1031  0.1224
 5180SOL    HW215861   3.841   0.887   4.245 -0.7799  0.4368 -0.3036
 5181SOL     OW15862   0.816   4.458   1.301  0.2913  0.0858 -0.4624
 5181SOL    HW115863   0.831   4.516   1.221  0.5483 -0.7983 -1.0765
 5181SOL    HW215864   0.902   4.414   1.327  0.5904  1.5989  1.3243
 5182SOL     OW15865   5.113   4.795   1.185  0.2475  0.7153 -0.5171
 5182SOL    HW115866   5.186   4.810   1.118 -0.8963 -0.8936 -2.2431
 5182SOL    HW215867   5.084   4.699   1.181 -0.7487  0.8922  1.4157
 5183SOL     OW15868   4.498   5.255   3.776 -0.3643  0.2279 -0.1299
 5183SOL    HW115869   4.399   5.251   3.784 -0.5283  0.3570 -1.7147
 5183SOL    HW215870   4.526   5.211   3.691  0.9150  0.4539  0.1554
 5184SOL     OW15871   4.677   5.171   2.991  0.0361  0.6648 -0.4554
 5184SOL    HW115872   4.756   5.204   2.939  0.6645 -0.5295 -0.2995
 5184SOL    HW215873   4.627   5.249   3.029  1.9882  1.4562  0.6731
 5185SOL     OW15874   5.211   2.913   3.318  0.1780  0.5111  0.2928
 5185SOL    HW115875   5.223   3.012   3.308  2.0359  0.2050 -1.2129
 5185SOL    HW215876   5.230   2.886   3.412 -0.1829  1.5645  0.6785
 5186SOL     OW15877   4.709   4.268   2.394  0.6624 -0.3330  0.2115
 5186SOL    HW115878   4.740   4.351   2.439  0.6630 -0.2670  0.0875
 5186SOL    HW215879   4.687   4.287   2.299 -0.6218 -0.1756  0.5127
 5187SOL     OW15880   3.777   2.060   1.914 -0.0635 -0.0501  0.4148
 5187SOL    HW115881   3.828   2.071   1.829  2.3345  3.4977  2.0460
 5187SOL    HW215882   3.823   1.992   1.972 -0.5851 -1.0583 -0.3316
 5188SOL     OW15883   3.734   0.824   2.193 -0.3087 -0.4373  0.6210
 5188SOL    HW115884   3.674   0.821   2.113  2.5668 -3.4361 -1.6769
 5188SOL    HW215885   3.694   0.769   2.267 -0.4641 -2.4807 -0.8981
 5189SOL     OW15886   3.794   0.602   4.024  0.2239 -0.1173  0.1383
 5189SOL    HW115887   3.747   0.627   4.109  0.6598 -1.1638  0.7202
 5189SOL    HW215888   3.891   0.587   4.044  0.7268  1.5092 -0.9420
 5190SOL     OW15889   4.381   4.514   0.447 -0.0245 -0.1705  0.0312
 5190SOL    HW115890   4.436   4.591   0.479  1.8531 -0.2457 -2.6770
 5190SOL    HW215891   4.405   4.432   0.498  0.8682  0.2440  0.2934
 5191SOL     OW15892   5.003   3.123   1.707  0.3265 -0.7928 -0.3903
 5191SOL    HW115893   4.973   3.039   1.750  1.0064 -0.8857 -0.0813
 5191SOL    HW215894   4.959   3.133   1.618 -0.0692 -1.2660 -0.2482
 5192SOL     OW15895   3.315   0.821   2.861 -0.2778  1.0632 -0.0190
 5192SOL    HW115896   3.382   0.801   2.789 -0.8125  0.9269 -0.4823
 5192SOL    HW215897   3.363   0.861   2.940  0.6941 -1.0952  0.5737
 5193SOL     OW15898   4.857   5.037   5.026  0.3857 -0.0005  0.1112
 5193SOL    HW115899   4.886   5.119   5.075  0.2057 -0.3645  0.8430
 5193SOL    HW215900   4.874   4.956   5.083  0.7883 -0.4937 -0.7003
 5194SOL     OW15901   3.753   0.636   2.615  0.2410  0.0012 -0.4030
 5194SOL    HW115902   3.841   0.610   2.576 -0.7174 -1.4928 -1.6999
 5194SOL    HW215903   3.756   0.732   2.643  2.4490 -0.1822  0.1839
 5195SOL     OW15904   4.627   4.774   2.252 -0.6870  0.0417 -0.1558
 5195SOL    HW115905   4.680   4.848   2.209 -0.3108  0.7809  1.5023
 5195SOL    HW215906   4.589   4.715   2.181 -0.3174  1.3556 -1.4981
 5196SOL     OW15907   3.948   1.055   2.656 -0.1178 -0.1905 -0.3124
 5196SOL    HW115908   3.948   1.116   2.735  0.6604  0.8697 -1.0922
 5196SOL    HW215909   4.038   1.011   2.648 -0.2013 -0.3135 -0.5788
 5197SOL     OW15910   3.954   4.621   1.887  0.1273 -0.8431  0.3458
 5197SOL    HW115911   4.003   4.538   1.859 -0.2115 -0.9197 -0.0309
 5197SOL    HW215912   3.979   4.644   1.981 -1.8619 -2.9790  1.5072
 5198SOL     OW15913   5.478   3.619   3.173  0.1705 -0.1001 -0.7501
 5198SOL    HW115914   5.562   3.633   3.120  1.1423  0.4883  0.8682
 5198SOL    HW215915   5.426   3.704   3.178  0.2999 -0.0393 -0.4077
 5199SOL     OW15916   4.121   4.573   2.932 -0.4039  0.0811 -0.2923
 5199SOL    HW115917   4.086   4.645   2.992  0.3902  0.1243  0.1400
 5199SOL    HW215918   4.200   4.531   2.975 -1.0245 -1.2477 -0.4137
 5200SOL     OW15919   4.654   0.029   1.624 -0.7332  0.7118  0.0261
 5200SOL    HW115920   4.564  -0.016   1.618 -1.3951  2.0112 -0.1227
 5200SOL    HW215921   4.688   0.047   1.532 -0.2877  0.1771  0.0832
 5201SOL     OW15922   0.152   3.481   1.629 -0.2926  0.0347 -0.4936
 5201SOL    HW115923   0.054   3.492   1.614 -0.6858 -1.5759  0.5638
 5201SOL    HW215924   0.175   3.383   1.631  0.9657  0.3088  1.2957
 5202SOL     OW15925   5.213   4.752   3.033 -0.2693 -0.0248 -0.1642
 5202SOL    HW115926   5.177   4.689   2.964 -0.1041 -0.4553  0.1453
 5202SOL    HW215927   5.145   4.824   3.051 -0.8741 -0.6865  0.2273
 5203SOL     OW15928   0.622   3.753   3.024  0.2558  0.4576 -0.8583
 5203SOL    HW115929   0.684   3.792   3.092 -0.2899 -1.0421  0.5677
 5203SOL    HW215930   0.530   3.792   3.035 -0.2113 -0.9095  0.3523
 5204SOL     OW15931   4.326  -0.025   3.043 -0.2026  0.1630  0.2735
 5204SOL    HW115932   4.333   0.006   3.138 -0.9671  0.0202  0.3816
 5204SOL    HW215933   4.272   0.040   2.990  0.2830  0.2811 -0.0891
 5205SOL     OW15934   5.282   0.039   3.903 -0.1255  0.3118 -0.1666
 5205SOL    HW115935   5.262   0.137   3.909 -2.8690 -0.2003  0.6006
 5205SOL    HW215936   5.329   0.019   3.817  0.4264  2.2672 -0.3558
 5206SOL     OW15937   5.211   4.847   5.152  0.3023  0.4707 -0.0361
 5206SOL    HW115938   5.233   4.923   5.091 -0.4045  1.3728  0.8071
 5206SOL    HW215939   5.294   4.793   5.169  0.3722 -0.2998 -2.4005
 5207SOL     OW15940   3.116   3.963   2.857 -0.0208  0.3521  0.2718
 5207SOL    HW115941   3.179   3.958   2.934 -0.0609 -0.6767  0.2548
 5207SOL    HW215942   3.027   3.997   2.888 -0.4661 -1.3510  0.9924
 5208SOL     OW15943   3.267   0.570   3.044 -0.2822  0.4722  0.3407
 5208SOL    HW115944   3.239   0.539   2.953  0.8946  0.3597  0.0003
 5208SOL    HW215945   3.279   0.669   3.043  3.3998  0.1535 -0.7471
 5209SOL     OW15946   0.524   4.576   2.651 -0.0743  0.0812 -0.1798
 5209SOL    HW115947   0.600   4.641   2.651 -0.0313  0.0910 -2.0327
 5209SOL    HW215948   0.528   4.519   2.733  0.7409  1.4226  0.7461
 5210SOL     OW15949   3.412   2.538   2.547  0.2941 -0.0275 -0.5264
 5210SOL    HW115950   3.358   2.460   2.514  0.6448 -0.4218 -0.1949
 5210SOL    HW215951   3.350   2.608   2.584  0.0177 -1.9813  3.2157
 5211SOL     OW15952   4.745   3.798   3.679  0.3066 -0.3520 -0.3058
 5211SOL    HW115953   4.823   3.850   3.714 -1.0805  0.1674  2.2452
 5211SOL    HW215954   4.743   3.708   3.723  0.2900 -0.9802 -1.5324
 5212SOL     OW15955   4.678   0.064   3.535  0.3371 -0.8369 -0.2718
 5212SOL    HW115956   4.634   0.138   3.483 -0.4484 -1.6174 -0.7355
 5212SOL    HW215957   4.687  -0.016   3.477  0.8805 -1.2156  0.3326
 5213SOL     OW15958   0.567   3.578   3.705  0.5299 -0.4149 -0.4413
 5213SOL    HW115959   0.602   3.591   3.612  1.6334  0.1623  0.0357
 5213SOL    HW215960   0.584   3.661   3.759 -0.4520 -0.5998  0.1702
 5214SOL     OW15961   3.587   0.528   2.812 -0.5306 -0.3632 -0.4309
 5214SOL    HW115962   3.499   0.555   2.771 -0.6059  0.0345 -0.0150
 5214SOL    HW215963   3.662   0.560   2.754 -0.6602 -1.5194 -1.2869
 5215SOL     OW15964   0.285   3.893   2.814  0.2044  0.1276  0.6980
 5215SOL    HW115965   0.210   3.956   2.792 -0.3982 -0.6063  0.6302
 5215SOL    HW215966   0.343   3.934   2.885  2.0167  2.4412 -1.8990
 5216SOL     OW15967   5.030   5.210   2.626 -0.1590  0.6061  0.0623
 5216SOL    HW115968   5.033   5.293   2.571 -0.7953 -0.7034 -2.0630
 5216SOL    HW215969   5.104   5.149   2.599 -0.2299  0.0929  0.9675
 5217SOL     OW15970   3.610   3.858   2.450 -0.4023  0.3253 -0.5694
 5217SOL    HW115971   3.611   3.849   2.550  2.3106 -1.3552 -0.6474
 5217SOL    HW215972   3.678   3.925   2.422  2.2419 -2.4789 -1.3655
 5218SOL     OW15973   5.098   2.722   4.325 -0.4358  0.1592  0.0733
 5218SOL    HW115974   5.173   2.735   4.391  0.5086 -0.8279 -0.7792
 5218SOL    HW215975   5.134   2.683   4.241 -2.1229 -1.5442  0.0933
 5219SOL     OW15976   4.863   3.459   0.783 -0.0232  0.4509 -0.0110
 5219SOL    HW115977   4.861   3.520   0.703 -0.4763  0.5463  0.0670
 5219SOL    HW215978   4.798   3.385   0.769 -0.0494  0.4269  0.2392
 5220SOL     OW15979   4.750   4.027   3.336  0.3456  0.1216 -0.2902
 5220SOL    HW115980   4.735   4.100   3.270 -1.5451  0.2675  0.2452
 5220SOL    HW215981   4.779   4.067   3.423  0.3320  0.1492 -0.2982
 5221SOL     OW15982   4.454   4.029   1.413  0.3938  0.7006  0.8184
 5221SOL    HW115983   4.365   4.005   1.372  0.0319 -0.5993  2.2774
 5221SOL    HW215984   4.439   4.082   1.496  0.9547  0.0744  1.3276
 5222SOL     OW15985   4.159   4.658   2.688 -0.1997 -0.2352  0.3159
 5222SOL    HW115986   4.149   4.627   2.783 -1.3579 -2.0947 -0.3500
 5222SOL    HW215987   4.081   4.627   2.635 -0.2737  1.9958 -0.9816
 5223SOL     OW15988   4.489   5.007   4.577 -0.2080  0.1159  0.4458
 5223SOL    HW115989   4.421   5.076   4.601  0.3565  1.1053 -0.7107
 5223SOL    HW215990   4.576   5.030   4.620  0.6347  1.5337 -1.8779
 5224SOL     OW15991   3.708   4.562   0.938 -0.3470  0.2014  0.2863
 5224SOL    HW115992   3.694   4.643   0.996  0.1405  0.8841 -0.5222
 5224SOL    HW215993   3.797   4.570   0.892  0.6095 -1.7348  1.6757
 5225SOL     OW15994   5.223   4.056   1.455 -0.2147 -0.3381  0.1247
 5225SOL    HW115995   5.230   3.967   1.411 -2.0221 -0.1371 -0.6363
 5225SOL    HW215996   5.225   4.044   1.554  2.9454 -0.8696  0.1235
 5226SOL     OW15997   0.131   4.861   2.296  0.4950 -0.2837 -0.4019
 5226SOL    HW115998   0.107   4.765   2.282 -1.6248  0.0350  0.5258
 5226SOL    HW215999   0.171   4.872   2.387 -1.3625 -0.0495  0.4527
 5227SOL     OW16000   5.369   3.965   2.600 -0.0771 -0.1297  0.0877
 5227SOL    HW116001   5.402   3.962   2.505 -0.2193 -2.2162  0.0581
 5227SOL    HW216002   5.299   4.036   2.609  1.1892  1.3150 -0.9167
 5228SOL     OW16003   4.453   5.359   1.516 -0.6030 -0.1782  0.3184
 5228SOL    HW116004   4.386   5.432   1.531  1.1772  1.3468  1.2855
 5228SOL    HW216005   4.435   5.314   1.429 -2.8789  0.1488  0.5719
 5229SOL     OW16006   3.402   1.289   2.022  0.1364 -0.2049 -0.0992
 5229SOL    HW116007   3.384   1.387   2.012 -1.0967 -0.2112  1.6667
 5229SOL    HW216008   3.338   1.238   1.965 -0.5173 -0.0171  0.4523
 5230SOL     OW16009   5.245   5.227   4.311 -0.0325  0.1938 -0.6739
 5230SOL    HW116010   5.152   5.197   4.293  0.4424 -0.7763 -1.6934
 5230SOL    HW216011   5.289   5.253   4.224  0.6231  0.6774 -0.2091
 5231SOL     OW16012   5.298   4.504   5.327  0.0404  0.6050 -0.2640
 5231SOL    HW116013   5.329   4.584   5.274  2.6618  0.2471  0.6307
 5231SOL    HW216014   5.239   4.535   5.402  0.6871  1.6785 -0.1768
 5232SOL     OW16015   4.307   4.537   2.372  0.2212  0.4680 -0.2814
 5232SOL    HW116016   4.355   4.458   2.410 -2.5601 -1.2655 -0.0999
 5232SOL    HW216017   4.307   4.611   2.439  1.5074  0.0914  0.1730
 5233SOL     OW16018   0.779   4.211   2.937 -0.3557  0.1591 -0.0582
 5233SOL    HW116019   0.835   4.130   2.920 -0.7891 -0.3675  0.9416
 5233SOL    HW216020   0.811   4.256   3.021 -0.4829  0.7088 -0.2998
 5234SOL     OW16021   4.097   0.312   3.572 -0.1388  0.3054 -0.1805
 5234SOL    HW116022   4.150   0.238   3.532  2.3872  0.5072  2.4948
 5234SOL    HW216023   4.007   0.277   3.600 -0.6610 -0.6080 -2.7446
 5235SOL     OW16024   0.142   4.754   3.075 -0.0392  0.2223  0.5822
 5235SOL    HW116025   0.221   4.756   3.014 -1.5178  0.8133 -1.3930
 5235SOL    HW216026   0.109   4.847   3.091  0.6549  0.1420  2.8145
 5236SOL     OW16027   4.416   2.777   3.643 -0.7484 -0.2648 -0.3205
 5236SOL    HW116028   4.330   2.729   3.630 -1.5965  1.1982 -0.3302
 5236SOL    HW216029   4.403   2.874   3.623  0.2755  0.4357  2.1042
 5237SOL     OW16030   3.469   4.087   1.326 -0.3951  0.1513 -0.1337
 5237SOL    HW116031   3.491   3.997   1.289 -1.6672 -0.3829  0.3550
 5237SOL    HW216032   3.510   4.158   1.269  1.3567 -0.7391 -0.0406
 5238SOL     OW16033   3.576   5.535   2.741 -0.0144 -0.5034 -0.4209
 5238SOL    HW116034   3.612   5.464   2.681  1.6600  1.7855 -2.3781
 5238SOL    HW216035   3.503   5.584   2.693  0.1690  0.2837  0.0817
 5239SOL     OW16036   0.839   3.155   1.744  0.3228  0.9964  0.4445
 5239SOL    HW116037   0.794   3.074   1.706  0.7775  0.8667  0.1761
 5239SOL    HW216038   0.937   3.138   1.752  0.1428  0.6791  2.5308
 5240SOL     OW16039   0.590   5.498   3.953 -0.3172 -0.1717  0.2791
 5240SOL    HW116040   0.575   5.503   3.855 -0.6320 -2.6032  0.1562
 5240SOL    HW216041   0.687   5.516   3.973 -0.7356  3.0831 -0.1269
 5241SOL     OW16042   0.217   0.422   3.588 -0.3303 -0.0615 -0.0323
 5241SOL    HW116043   0.175   0.510   3.608 -3.5974 -1.0591 -1.8061
 5241SOL    HW216044   0.164   0.349   3.632 -0.2906 -1.3860 -2.0693
 5242SOL     OW16045   5.332   3.734   2.328  0.1867  0.1154  0.4860
 5242SOL    HW116046   5.306   3.679   2.407 -0.1321 -0.6538 -0.1360
 5242SOL    HW216047   5.254   3.792   2.300  0.7143  1.3657  1.5087
 5243SOL     OW16048   3.611   4.941   3.441  0.0703 -0.4566 -0.6646
 5243SOL    HW116049   3.671   4.996   3.383  0.5855 -0.5904 -0.2613
 5243SOL    HW216050   3.638   4.950   3.537 -3.1889  2.9946  0.1853
 5244SOL     OW16051   4.423   4.549   0.189 -0.2205 -0.3140 -0.1616
 5244SOL    HW116052   4.406   4.555   0.288 -1.0808  0.0075 -0.3241
 5244SOL    HW216053   4.386   4.630   0.144  1.1015  0.0532 -0.6348
 5245SOL     OW16054   4.803   3.771   3.265  0.3944  0.6448 -0.2703
 5245SOL    HW116055   4.752   3.724   3.337 -2.4698  1.0424 -1.9306
 5245SOL    HW216056   4.808   3.869   3.286  2.6805  0.3186  1.0613
 5246SOL     OW16057   4.033   5.277   3.689  0.1683  0.6523 -0.0717
 5246SOL    HW116058   3.935   5.271   3.710  0.0199  0.7685 -0.7332
 5246SOL    HW216059   4.046   5.324   3.602  0.8930  2.0778  0.7603
 5247SOL     OW16060   4.233   3.531   2.392 -0.3774  0.0157 -0.2414
 5247SOL    HW116061   4.167   3.546   2.318 -0.3220 -0.9034 -0.4997
 5247SOL    HW216062   4.189   3.480   2.466  0.1605 -1.0530 -0.6378
 5248SOL     OW16063   2.935   4.300   3.221  0.4029  0.2705 -0.1307
 5248SOL    HW116064   2.853   4.248   3.199 -0.6576  0.3054  3.1991
 5248SOL    HW216065   3.010   4.237   3.242  0.6774  0.2253 -1.1671
 5249SOL     OW16066   5.209   5.076   3.378  0.2548 -0.6669 -0.0985
 5249SOL    HW116067   5.187   4.985   3.342 -0.9462 -0.0497 -0.9908
 5249SOL    HW216068   5.161   5.089   3.465 -0.2290 -0.5897 -0.3733
 5250SOL     OW16069   3.774   3.363   2.162 -0.3954 -0.7869 -0.2150
 5250SOL    HW116070   3.813   3.383   2.252  0.3402 -0.6047 -0.5604
 5250SOL    HW216071   3.689   3.414   2.151  1.3397  2.2098 -1.0112
 5251SOL     OW16072   0.440   3.703   3.441 -0.1784  0.3822  0.0907
 5251SOL    HW116073   0.531   3.662   3.427 -0.2016 -0.1875  1.4878
 5251SOL    HW216074   0.393   3.708   3.353  0.7065 -0.5174 -0.4679
 5252SOL     OW16075   3.617   4.933   2.412 -0.3860 -0.4273 -0.1722
 5252SOL    HW116076   3.635   5.027   2.385 -0.9298 -0.5169 -0.8755
 5252SOL    HW216077   3.652   4.917   2.504 -1.4399  0.8225  0.4737
 5253SOL     OW16078   4.215   3.594   1.385  0.1800 -0.2747 -0.5006
 5253SOL    HW116079   4.281   3.623   1.316  1.0664 -0.3351  0.3031
 5253SOL    HW216080   4.247   3.510   1.428 -1.2653 -1.2398 -1.2594
 5254SOL     OW16081   5.253   5.192   2.112  0.6164  0.1229  0.0456
 5254SOL    HW116082   5.181   5.147   2.165  0.0860  0.0433 -0.7360
 5254SOL    HW216083   5.338   5.140   2.120  0.1161 -0.8022 -0.5173
 5255SOL     OW16084   0.360   4.476   2.454 -0.0759  0.3856 -0.0206
 5255SOL    HW116085   0.412   4.516   2.530 -1.8554  2.2841  0.3005
 5255SOL    HW216086   0.405   4.499   2.368  1.4560 -0.9976  0.3568
 5256SOL     OW16087   3.993   4.350   1.764  0.4660 -0.5698  0.3536
 5256SOL    HW116088   3.985   4.267   1.820  0.7077 -0.3244  0.7608
 5256SOL    HW216089   3.911   4.361   1.708  0.6276 -1.3271 -0.0419
 5257SOL     OW16090   1.697   5.063   3.110  0.4029 -0.5356  0.5469
 5257SOL    HW116091   1.697   5.013   3.024  0.1223 -2.4548  1.5963
 5257SOL    HW216092   1.791   5.070   3.145  0.4473 -0.2737  0.3785
 5258SOL     OW16093   3.564   3.815   3.015 -0.3383  0.0187  0.1287
 5258SOL    HW116094   3.488   3.797   3.077 -2.3078  1.3594 -1.7636
 5258SOL    HW216095   3.602   3.905   3.036 -0.5615  0.1828 -0.1686
 5259SOL     OW16096   3.116   4.590   3.151  0.5454 -0.0321 -0.0089
 5259SOL    HW116097   3.021   4.563   3.135  0.3761 -0.0215  0.8735
 5259SOL    HW216098   3.157   4.528   3.218  0.3473  1.4493  1.5512
 5260SOL     OW16099   3.936   4.247   2.520 -0.2192 -0.0364  0.3730
 5260SOL    HW116100   3.966   4.304   2.596  1.8407  0.6986 -0.8899
 5260SOL    HW216101   4.016   4.207   2.475 -1.2099  0.7811 -2.3010
 5261SOL     OW16102   4.392   4.835   3.323  0.0525 -0.1300  0.1743
 5261SOL    HW116103   4.360   4.928   3.307  0.6795 -0.2655 -2.2286
 5261SOL    HW216104   4.485   4.837   3.360  0.2382  0.1932 -0.3085
 5262SOL     OW16105   4.655   4.321   2.116 -0.2150  0.4282  0.0760
 5262SOL    HW116106   4.601   4.405   2.118  0.1288  0.6884 -0.8765
 5262SOL    HW216107   4.594   4.244   2.096  0.0556  1.1465 -4.9687
 5263SOL     OW16108   3.829   0.078   1.604  0.0361 -0.3979  0.4059
 5263SOL    HW116109   3.874   0.152   1.552 -0.8077 -1.1351 -1.4724
 5263SOL    HW216110   3.803   0.005   1.541 -1.4931 -1.1327  1.8231
 5264SOL     OW16111   4.517   4.255   3.645 -0.0985 -0.2721  0.2369
 5264SOL    HW116112   4.535   4.353   3.656  0.8339 -0.4711  0.5810
 5264SOL    HW216113   4.475   4.238   3.555 -4.5220  0.9647  1.7921
 5265SOL     OW16114   5.140   3.857   2.910 -0.0536 -0.2797 -0.5602
 5265SOL    HW116115   5.236   3.885   2.902  0.2913 -0.8107  1.2586
 5265SOL    HW216116   5.082   3.938   2.909  0.7085  0.3756  1.7206
 5266SOL     OW16117   0.819   2.511   2.042 -0.1369  0.0675  0.1525
 5266SOL    HW116118   0.764   2.588   2.010  0.6528  0.6209  0.1264
 5266SOL    HW216119   0.759   2.445   2.087 -0.6752  1.2580  1.2569
 5267SOL     OW16120   5.461   4.319   1.859  0.7342 -0.5477  0.6973
 5267SOL    HW116121   5.392   4.262   1.904 -1.1867  0.0864 -1.2735
 5267SOL    HW216122   5.518   4.262   1.800  0.8022 -0.8481  1.0501
 5268SOL     OW16123   4.344   3.278   1.974 -0.9173 -0.6250  0.1462
 5268SOL    HW116124   4.399   3.355   2.007 -1.3515  0.6926 -1.9832
 5268SOL    HW216125   4.393   3.229   1.902 -0.9854 -1.8758  0.9187
 5269SOL     OW16126   2.295   4.148   2.881  0.2083  0.2868 -0.4615
 5269SOL    HW116127   2.229   4.220   2.856  1.3128  0.6964 -2.4557
 5269SOL    HW216128   2.387   4.184   2.875  0.8257 -1.3872 -1.9726
 5270SOL     OW16129   1.008   0.247   3.709 -0.0817 -0.4940  0.2630
 5270SOL    HW116130   0.961   0.232   3.622  0.6461 -1.2019 -0.0176
 5270SOL    HW216131   0.942   0.279   3.778 -0.7260 -0.2687 -0.4492
 5271SOL     OW16132   3.972   1.679   4.185 -0.3024  0.3710 -0.0193
 5271SOL    HW116133   4.038   1.627   4.239 -1.1976 -2.1221 -1.1672
 5271SOL    HW216134   4.006   1.689   4.091 -1.7005 -1.4010 -0.7627
 5272SOL     OW16135   3.763   5.238   3.460 -0.1170  0.0297  0.1685
 5272SOL    HW116136   3.845   5.293   3.443  0.6515 -0.8164  1.0185
 5272SOL    HW216137   3.691   5.265   3.396  0.4006  1.6651  0.2337
 5273SOL     OW16138   3.506   4.099   3.526  0.0093  0.0691 -0.0767
 5273SOL    HW116139   3.510   4.153   3.610  2.6106 -1.6526  1.0349
 5273SOL    HW216140   3.529   4.157   3.448  1.7675  0.8620  0.9655
 5274SOL     OW16141   4.578   4.911   2.649 -0.1320 -0.3664 -0.8891
 5274SOL    HW116142   4.576   4.942   2.744  0.6293 -0.8590 -0.7005
 5274SOL    HW216143   4.507   4.842   2.635 -0.8198  0.3343 -0.9143
 5275SOL     OW16144   0.133   5.068   4.080  0.6157  0.3293 -0.1283
 5275SOL    HW116145   0.208   5.122   4.040  2.3699 -2.3430 -0.7132
 5275SOL    HW216146   0.052   5.079   4.023  1.5374  0.7044 -1.4353
 5276SOL     OW16147   0.990   3.480   2.844  0.0508  0.1391 -0.0246
 5276SOL    HW116148   1.003   3.542   2.921  0.4045 -0.5355  0.4733
 5276SOL    HW216149   0.954   3.531   2.766 -2.0486  0.5423  1.1154
 5277SOL     OW16150   5.512   4.387   3.718  0.2550  0.2931  0.4357
 5277SOL    HW116151   5.416   4.408   3.737  0.1029 -0.0894  0.1138
 5277SOL    HW216152   5.568   4.415   3.795 -0.1323  0.3944  0.6864
 5278SOL     OW16153   4.454   4.018   2.707 -0.0633 -0.0655 -0.4492
 5278SOL    HW116154   4.526   3.958   2.672  1.5133  2.1016 -1.1504
 5278SOL    HW216155   4.397   4.050   2.632  0.2474  0.7044 -0.3721
 5279SOL     OW16156   4.744   5.248   3.890  0.5799 -0.1055 -0.0457
 5279SOL    HW116157   4.653   5.254   3.848  1.1342  0.2575 -1.2424
 5279SOL    HW216158   4.736   5.262   3.989 -0.5397  1.1635 -0.2821
 5280SOL     OW16159   3.646   5.439   3.274  0.1475 -0.2149 -0.2567
 5280SOL    HW116160   3.665   5.430   3.176 -1.7259  0.1823 -0.6971
 5280SOL    HW216161   3.566   5.384   3.298  1.1299 -1.0385  1.2667
 5281SOL     OW16162   5.212   5.339   1.878  0.4650  0.5525  0.6010
 5281SOL    HW116163   5.198   5.308   1.972  0.0277  0.7758  0.6122
 5281SOL    HW216164   5.167   5.276   1.815  0.0154  0.8737  0.5947
 5282SOL     OW16165   2.362   3.898   3.699 -0.6089 -0.8268  0.5326
 5282SOL    HW116166   2.427   3.927   3.628  0.1550 -0.8739  1.1923
 5282SOL    HW216167   2.269   3.904   3.664 -0.3855  0.9939  0.1481
 5283SOL     OW16168   0.319   4.548   3.384  0.9710  0.1070  0.0878
 5283SOL    HW116169   0.239   4.531   3.328  2.2359 -0.1232 -1.7268
 5283SOL    HW216170   0.339   4.646   3.387  1.0705  0.0948 -0.1319
 5284SOL     OW16171   4.563   0.271   3.737 -0.3516  0.1087  0.7733
 5284SOL    HW116172   4.581   0.178   3.703 -0.3906  0.6841 -0.9386
 5284SOL    HW216173   4.486   0.269   3.800 -0.7196 -0.9549  0.3175
 5285SOL     OW16174   5.344   5.374   3.033 -0.2466  0.0214 -0.0583
 5285SOL    HW116175   5.261   5.326   3.061 -0.6806 -0.4787 -2.0247
 5285SOL    HW216176   5.326   5.422   2.947  1.2608  0.6541 -0.0435
 5286SOL     OW16177   2.879   1.050   2.859  0.1290  0.2246  0.1214
 5286SOL    HW116178   2.804   1.116   2.868  0.3395  0.4341  0.3590
 5286SOL    HW216179   2.947   1.087   2.795  0.1248  0.1240  0.0597
 5287SOL     OW16180   2.533   4.614   2.676 -0.1060  0.0809  0.6875
 5287SOL    HW116181   2.469   4.543   2.705  1.1076 -0.8768  1.1086
 5287SOL    HW216182   2.553   4.603   2.579  1.0691 -0.9928  1.0271
 5288SOL     OW16183   3.889   4.991   4.517  0.3486 -0.3237  0.2016
 5288SOL    HW116184   3.979   5.028   4.537 -0.5020  1.5674  0.7201
 5288SOL    HW216185   3.867   5.007   4.420 -0.6022  2.0081  0.7323
 5289SOL     OW16186   0.420   2.497   1.894 -1.0756 -0.1426  0.8477
 5289SOL    HW116187   0.443   2.558   1.970  1.8043 -0.7613  0.6029
 5289SOL    HW216188   0.409   2.550   1.810 -0.0798  0.2070  0.9229
 5290SOL     OW16189   4.148   3.279   3.741  0.4174  0.1888 -0.1010
 5290SOL    HW116190   4.063   3.281   3.793 -0.4192 -0.2665 -1.4149
 5290SOL    HW216191   4.128   3.263   3.645  1.9121  1.3075 -0.6336
 5291SOL     OW16192   3.490   0.327   1.947 -0.4364  0.5511 -0.2387
 5291SOL    HW116193   3.396   0.341   1.978 -0.9054 -0.7760 -0.9910
 5291SOL    HW216194   3.553   0.341   2.023 -1.4476 -1.1112  0.9767
 5292SOL     OW16195   4.512   0.246   4.406  0.5097 -0.6501 -0.0560
 5292SOL    HW116196   4.490   0.280   4.315 -2.1136 -0.6044  0.5288
 5292SOL    HW216197   4.612   0.239   4.416  0.8952  0.5813 -2.4349
 5293SOL     OW16198   4.286   4.071   0.785 -0.7116  0.1668  0.3409
 5293SOL    HW116199   4.238   4.084   0.698  0.6226 -2.0258 -0.8120
 5293SOL    HW216200   4.229   4.105   0.860 -2.4750  0.9124 -1.2544
 5294SOL     OW16201   3.105   4.263   2.637  0.4809 -0.1540 -0.3451
 5294SOL    HW116202   3.024   4.215   2.671 -0.2642  2.0421  1.2107
 5294SOL    HW216203   3.165   4.287   2.713  0.2937  2.2364 -0.8595
 5295SOL     OW16204   4.626   5.453   3.279 -0.7515  0.1326 -0.4579
 5295SOL    HW116205   4.610   5.466   3.182 -0.3958 -0.2766 -0.5734
 5295SOL    HW216206   4.541   5.421   3.323 -0.5732 -0.9432 -0.8670
 5296SOL     OW16207   3.062   0.056   2.330  0.1364  0.2383 -0.0118
 5296SOL    HW116208   3.065   0.046   2.429 -1.4713  0.3597  0.0711
 5296SOL    HW216209   3.012  -0.021   2.290  0.4551  0.3792 -0.6926
 5297SOL     OW16210   0.270   5.448   2.604 -0.7907  0.2252  0.2029
 5297SOL    HW116211   0.364   5.434   2.574 -0.5996 -0.7801  1.2025
 5297SOL    HW216212   0.210   5.384   2.557 -0.5925 -0.8585  1.3637
 5298SOL     OW16213   4.621   4.556   2.714  0.3905 -0.1515  0.1963
 5298SOL    HW116214   4.544   4.605   2.673  0.0493 -0.3473  0.5841
 5298SOL    HW216215   4.675   4.619   2.769  0.0939 -0.1524  0.4952
 5299SOL     OW16216   4.205   2.883   0.482  0.2549 -0.8412 -0.2227
 5299SOL    HW116217   4.290   2.853   0.524  1.3606  1.7242 -0.4626
 5299SOL    HW216218   4.217   2.894   0.384 -0.4466 -0.7834 -0.3116
 5300SOL     OW16219   2.873   4.900   2.681  0.0942  0.4288  0.2383
 5300SOL    HW116220   2.778   4.917   2.708 -0.1325  3.0732 -1.8325
 5300SOL    HW216221   2.876   4.831   2.609 -0.2530  0.4957  0.1617
 5301SOL     OW16222   3.515   0.258   4.646 -0.6636  0.1165 -0.5731
 5301SOL    HW116223   3.596   0.262   4.588 -0.7415 -1.6990 -0.8801
 5301SOL    HW216224   3.455   0.184   4.614 -2.2061  1.0952 -0.0432
 5302SOL     OW16225   4.626   0.152   2.573  0.0085  0.4504  0.2986
 5302SOL    HW116226   4.667   0.069   2.535  1.7989  1.6761 -0.5290
 5302SOL    HW216227   4.678   0.232   2.544 -1.5264  1.8727  1.2933
 5303SOL     OW16228   4.036   4.898   3.336  0.0626 -0.1315 -0.1388
 5303SOL    HW116229   4.080   4.971   3.389  0.3609 -0.7681  0.5102
 5303SOL    HW216230   3.952   4.933   3.296  0.2612  0.6079  0.0585
 5304SOL     OW16231   4.873   4.077   0.779  0.1154  0.0618  0.4090
 5304SOL    HW116232   4.804   4.135   0.823  0.9012  1.0012  0.4382
 5304SOL    HW216233   4.901   4.118   0.692  2.7096  1.2960  1.6998
 5305SOL     OW16234   5.285   0.286   0.458  0.4674 -0.4401  0.1363
 5305SOL    HW116235   5.195   0.243   0.445 -0.1326  1.3098 -2.1702
 5305SOL    HW216236   5.353   0.215   0.477 -1.1627 -1.9380  0.6540
 5306SOL     OW16237   3.523   5.084   2.761 -0.1060 -0.0859  0.2376
 5306SOL    HW116238   3.607   5.044   2.725  0.5121  0.7466  0.7078
 5306SOL    HW216239   3.452   5.081   2.691  1.0069  1.3165 -1.0310
 5307SOL     OW16240   2.227   0.508   1.943  0.4090  0.1271  0.4178
 5307SOL    HW116241   2.208   0.507   1.844 -0.6882 -1.8497  0.5871
 5307SOL    HW216242   2.283   0.428   1.966  3.0501  2.0576  1.0319
 5308SOL     OW16243   4.732   4.310   2.845 -0.1433  0.0220 -0.4303
 5308SOL    HW116244   4.828   4.310   2.874  0.0104 -2.7810 -0.6900
 5308SOL    HW216245   4.722   4.368   2.764  0.5570  3.1799  1.5638
 5309SOL     OW16246   4.528   4.551   4.192 -0.1046 -0.3075  0.3337
 5309SOL    HW116247   4.558   4.594   4.106  0.1618  0.9098  1.0130
 5309SOL    HW216248   4.605   4.546   4.255 -0.0770 -2.0424  0.1987
 5310SOL     OW16249   4.756   0.246   3.228  0.2614  0.0912 -0.1044
 5310SOL    HW116250   4.825   0.174   3.226 -1.5163 -1.7144 -0.4230
 5310SOL    HW216251   4.734   0.273   3.134  0.2366  0.3695 -0.0198
 5311SOL     OW16252   3.204   0.203   2.073 -0.6084 -0.3614 -0.1757
 5311SOL    HW116253   3.188   0.130   2.006  0.3713 -1.5823  0.8584
 5311SOL    HW216254   3.117   0.248   2.095 -1.3302 -1.5459 -0.4994
 5312SOL     OW16255   2.438   1.411   2.336 -0.5462  0.6938 -0.3606
 5312SOL    HW116256   2.479   1.494   2.372 -1.7584  0.7540  0.9929
 5312SOL    HW216257   2.498   1.333   2.354  1.0294  1.3464 -2.4639
 5313SOL     OW16258   3.756   4.462   2.660  0.3180  0.2607  0.3186
 5313SOL    HW116259   3.704   4.389   2.617  0.6280 -0.0389  0.4460
 5313SOL    HW216260   3.825   4.422   2.721 -0.1137  0.6761  1.0895
 5314SOL     OW16261   3.889   4.546   3.159  0.0050  0.0503  0.1411
 5314SOL    HW116262   3.960   4.613   3.180  0.1566 -0.9751  3.4413
 5314SOL    HW216263   3.799   4.585   3.180 -0.0284 -0.2630  0.5829
 5315SOL     OW16264   4.175   4.139   2.443  0.3004 -0.8592 -0.2999
 5315SOL    HW116265   4.252   4.198   2.464 -1.9896  2.2554 -0.0029
 5315SOL    HW216266   4.172   4.121   2.345  0.3381  0.6523 -0.5961
 5316SOL     OW16267   2.516   4.026   2.613  0.3688  0.6054 -1.0699
 5316SOL    HW116268   2.457   3.971   2.672 -1.2734  2.1214 -1.1964
 5316SOL    HW216269   2.606   3.983   2.605 -0.0545 -0.7356  0.8003
 5317SOL     OW16270   0.275   2.509   3.579 -0.1514 -0.0855 -0.0363
 5317SOL    HW116271   0.294   2.412   3.594  0.9102  0.3246  1.5301
 5317SOL    HW216272   0.343   2.548   3.519  1.2328  0.3038  1.7017
 5318SOL     OW16273   4.566   3.853   1.133 -0.2631  0.1888 -0.3187
 5318SOL    HW116274   4.526   3.944   1.133 -2.9417 -0.8659  1.5097
 5318SOL    HW216275   4.649   3.852   1.189  0.0808  1.5581 -0.7779
 5319SOL     OW16276   3.958   5.276   2.594 -0.2373 -0.1942  0.0494
 5319SOL    HW116277   4.015   5.201   2.560 -0.4835 -1.2366  1.7894
 5319SOL    HW216278   4.012   5.331   2.658  0.0081  1.2876 -1.3831
 5320SOL     OW16279   3.743   5.248   4.303 -0.2887  0.5422 -0.1836
 5320SOL    HW116280   3.741   5.264   4.402 -2.3603  0.7664 -0.1993
 5320SOL    HW216281   3.826   5.200   4.278 -0.0871 -0.2102  1.7885
 5321SOL     OW16282   3.904   4.707   4.482 -0.5810 -0.0770 -0.0092
 5321SOL    HW116283   3.918   4.688   4.384  1.5077 -0.5961  0.3383
 5321SOL    HW216284   3.902   4.806   4.497  4.1375  0.2492 -0.1143
 5322SOL     OW16285   0.111   5.394   3.716 -0.2166 -0.3314  0.3423
 5322SOL    HW116286   0.147   5.379   3.625 -0.7163  1.1272 -0.1229
 5322SOL    HW216287   0.186   5.403   3.781  0.1735 -0.1923 -0.1249
 5323SOL     OW16288   0.039   5.349   2.785  0.6404  0.5439  0.0592
 5323SOL    HW116289  -0.042   5.378   2.733  0.2724  0.3029  0.4997
 5323SOL    HW216290   0.058   5.253   2.766 -0.3003  0.0642  1.3916
 5324SOL     OW16291   3.518   3.828   3.469 -0.0011  0.1775 -0.4381
 5324SOL    HW116292   3.600   3.839   3.412 -1.0809 -0.9787 -2.3110
 5324SOL    HW216293   3.505   3.911   3.524  2.3071  0.4612 -0.2112
 5325SOL     OW16294   4.540   3.186   2.638 -0.4089 -0.0612  0.0517
 5325SOL    HW116295   4.596   3.217   2.561 -0.5737 -1.1776 -0.5247
 5325SOL    HW216296   4.524   3.088   2.631  1.5324 -0.6806  2.7459
 5326SOL     OW16297   3.561   4.272   2.568  0.3412 -0.6230 -0.0284
 5326SOL    HW116298   3.477   4.322   2.550  0.8896  0.7382  1.0051
 5326SOL    HW216299   3.539   4.185   2.614 -0.5610 -0.8762 -0.9103
 5327SOL     OW16300   0.544   4.986   3.625  0.0853  0.0434 -0.0019
 5327SOL    HW116301   0.474   5.045   3.586  1.1446 -0.0403 -2.2068
 5327SOL    HW216302   0.503   4.899   3.653 -0.4152 -1.2388 -4.0251
 5328SOL     OW16303   4.499   4.850   3.741  0.4394  0.8112  0.4137
 5328SOL    HW116304   4.431   4.880   3.675  0.5044  0.3134  0.1155
 5328SOL    HW216305   4.566   4.923   3.756  1.2924  0.4237 -1.2219
 5329SOL     OW16306   2.142   0.588   3.565  0.2263  0.0933  0.0463
 5329SOL    HW116307   2.134   0.491   3.586  1.0615 -0.0128 -0.0956
 5329SOL    HW216308   2.159   0.639   3.649  2.1064 -0.1615 -0.1541
 5330SOL     OW16309   3.038   4.916   3.503 -0.6479 -0.6041 -0.5487
 5330SOL    HW116310   3.105   4.901   3.576 -1.3217  0.1597  0.2523
 5330SOL    HW216311   3.083   4.958   3.424 -0.0136 -0.9310 -0.3608
 5331SOL     OW16312   0.911   3.510   1.279 -0.0497 -0.9386  0.5404
 5331SOL    HW116313   1.003   3.525   1.315 -0.3348  0.9657  0.5807
 5331SOL    HW216314   0.892   3.578   1.208 -1.3039 -1.5300  0.2893
 5332SOL     OW16315   3.792   5.124   1.995 -0.5361 -0.2793 -0.4396
 5332SOL    HW116316   3.882   5.095   2.026 -0.3575 -0.2089 -0.8789
 5332SOL    HW216317   3.763   5.205   2.046 -0.2454 -0.1638 -0.4543
 5333SOL     OW16318   4.223   4.497   3.335  0.9062  0.1405  0.0436
 5333SOL    HW116319   4.153   4.567   3.346 -0.0672 -0.7594 -0.3293
 5333SOL    HW216320   4.241   4.454   3.424 -1.7323 -2.1586 -0.4234
 5334SOL     OW16321   4.877   3.963   2.053 -0.0296  0.1412  0.6702
 5334SOL    HW116322   4.924   4.046   2.025 -0.0138 -0.0288  0.1791
 5334SOL    HW216323   4.812   3.984   2.127 -0.9363  0.8185 -0.2970
 5335SOL     OW16324   0.067   4.822   2.790 -0.0078  0.0871 -0.1790
 5335SOL    HW116325   0.077   4.804   2.693  0.1016 -2.2031  0.1915
 5335SOL    HW216326   0.069   4.736   2.840  1.1418  1.2706  1.9837
 5336SOL     OW16327   0.056   3.773   2.301  0.1838 -0.9803  0.1515
 5336SOL    HW116328   0.090   3.831   2.227  0.4291 -0.8878  0.3360
 5336SOL    HW216329  -0.044   3.778   2.304  0.1983 -0.6330  0.1160
 5337SOL     OW16330   0.549   0.837   2.257 -0.5749  0.0664  0.3970
 5337SOL    HW116331   0.534   0.808   2.163 -1.0133 -0.4559  0.6241
 5337SOL    HW216332   0.528   0.762   2.319  1.9091 -0.3608  0.8093
 5338SOL     OW16333   5.302   3.450   3.069  0.1883  0.1367  0.6517
 5338SOL    HW116334   5.375   3.513   3.095  1.7943 -1.1307 -0.5398
 5338SOL    HW216335   5.341   3.375   3.016 -1.9582 -0.7988  0.3069
 5339SOL     OW16336   0.040   5.095   5.288 -0.0571 -0.5389 -0.0180
 5339SOL    HW116337  -0.017   5.156   5.233 -2.3428 -0.7313  1.9666
 5339SOL    HW216338   0.110   5.149   5.335 -0.0024  0.0542 -0.7611
 5340SOL     OW16339   5.176   4.875   1.670  0.4270  0.5635  0.2721
 5340SOL    HW116340   5.177   4.975   1.682 -2.4463  0.6690  0.4982
 5340SOL    HW216341   5.143   4.853   1.579  0.7640 -0.1837  0.3269
 5341SOL     OW16342   5.143   4.783   3.410 -0.0637  0.4411  0.2812
 5341SOL    HW116343   5.157   4.715   3.337 -0.4022  0.0994  0.5258
 5341SOL    HW216344   5.186   4.751   3.494 -0.4108  0.4204  0.4551
 5342SOL     OW16345   1.669   0.153   2.699  0.0916  0.0078 -0.5992
 5342SOL    HW116346   1.746   0.172   2.761 -0.3451  0.6773 -0.2544
 5342SOL    HW216347   1.615   0.236   2.688 -0.9106 -0.6096 -0.3888
 5343SOL     OW16348   3.011   0.571   3.189 -0.2458 -0.5906 -0.0472
 5343SOL    HW116349   3.010   0.505   3.264  0.3623 -0.9412 -0.3427
 5343SOL    HW216350   3.103   0.576   3.149 -0.2330  0.5631  0.0804
 5344SOL     OW16351   2.853   4.536   3.066  0.2209  0.3927 -0.2120
 5344SOL    HW116352   2.862   4.445   3.105 -0.8455  0.1564 -0.4895
 5344SOL    HW216353   2.781   4.586   3.114  0.9121  1.1659  0.0568
 5345SOL     OW16354   0.081   5.437   4.463  0.0892 -0.8511  0.2675
 5345SOL    HW116355   0.101   5.362   4.400  0.9922 -0.9500  0.6580
 5345SOL    HW216356   0.159   5.452   4.523  0.5988  1.5322 -0.8968
 5346SOL     OW16357   4.664   3.933   2.234 -0.2189 -0.1265 -0.5964
 5346SOL    HW116358   4.722   3.941   2.315  0.1111 -0.4778 -0.7938
 5346SOL    HW216359   4.613   3.847   2.238 -3.0247  1.4629  1.0490
 5347SOL     OW16360   5.416   3.208   2.204  0.6493 -0.4081 -0.4743
 5347SOL    HW116361   5.421   3.307   2.213  0.0683 -0.5792  3.5540
 5347SOL    HW216362   5.344   3.172   2.264  2.7644 -3.4561  0.5112
 5348SOL     OW16363   4.679   4.799   1.639 -0.0859  0.5771  0.4956
 5348SOL    HW116364   4.751   4.786   1.707  0.2269  0.2479  0.1078
 5348SOL    HW216365   4.698   4.742   1.559 -0.8328  0.4066  0.4296
 5349SOL     OW16366   4.319   4.403   3.081  0.3602 -0.0908 -0.2874
 5349SOL    HW116367   4.298   4.424   3.177 -1.0440 -1.0002 -0.3608
 5349SOL    HW216368   4.407   4.442   3.057  0.0424  1.4699  0.9269
 5350SOL     OW16369   4.052   4.938   2.262  0.5936 -0.3695  0.5056
 5350SOL    HW116370   4.025   4.846   2.236  0.2810 -0.0434 -0.3582
 5350SOL    HW216371   4.048   4.998   2.182 -0.3745  0.6611  1.2913
 5351SOL     OW16372   2.754   4.878   3.513  0.1266 -0.2120 -0.1796
 5351SOL    HW116373   2.849   4.887   3.540 -0.1021  1.7775  0.0975
 5351SOL    HW216374   2.748   4.864   3.414  0.7147 -1.1626 -0.0922
 5352SOL     OW16375   5.228   3.262   0.660  0.1920 -0.4920 -0.6163
 5352SOL    HW116376   5.271   3.336   0.712  1.2226 -1.2969 -0.3026
 5352SOL    HW216377   5.172   3.301   0.587  0.2442  0.6068 -0.0856
 5353SOL     OW16378   4.529   3.496   1.671 -0.0400  0.1075  0.4338
 5353SOL    HW116379   4.446   3.458   1.631 -0.4195  0.3211  1.0082
 5353SOL    HW216380   4.549   3.584   1.628 -0.0385 -0.0011  0.2090
 5354SOL     OW16381   5.231   4.126   3.083  0.1620  0.1378  0.0222
 5354SOL    HW116382   5.226   4.084   3.173  0.6060 -0.2050 -0.1105
 5354SOL    HW216383   5.140   4.123   3.040  0.0091  0.0639  0.3466
 5355SOL     OW16384   2.870   4.660   2.550  0.1749 -0.1072 -0.0383
 5355SOL    HW116385   2.837   4.627   2.639 -0.5547  1.4647  0.3156
 5355SOL    HW216386   2.939   4.597   2.515  0.1928 -0.9791  1.4470
 5356SOL     OW16387   4.544   0.054   0.985  0.2363 -0.7310  0.5274
 5356SOL    HW116388   4.565   0.143   1.025  0.3281 -1.2048  1.5752
 5356SOL    HW216389   4.572  -0.018   1.049 -2.7456 -1.4649  1.1582
 5357SOL     OW16390   4.717   4.401   3.828 -0.1020 -0.1568  0.2759
 5357SOL    HW116391   4.779   4.460   3.880  2.1871 -2.1037 -0.0396
 5357SOL    HW216392   4.677   4.452   3.752 -0.6211  1.7332  1.7598
 5358SOL     OW16393   4.352   1.286   3.189 -0.6678  0.3588  0.0630
 5358SOL    HW116394   4.337   1.329   3.278 -2.0236  0.5364 -0.2190
 5358SOL    HW216395   4.398   1.198   3.201 -1.8802 -0.1681  1.0642
 5359SOL     OW16396   4.944   4.265   3.860 -0.0191 -0.0598  0.1313
 5359SOL    HW116397   4.855   4.309   3.862  0.0578  0.0845  0.4611
 5359SOL    HW216398   5.001   4.309   3.790 -0.0919  0.0700  0.1528
 5360SOL     OW16399   5.291   4.434   3.475  0.3896 -0.4540 -0.0473
 5360SOL    HW116400   5.365   4.367   3.464 -0.2287 -1.1969  0.1934
 5360SOL    HW216401   5.277   4.483   3.389  2.2527  0.8807  0.3430
 5361SOL     OW16402   3.951   5.354   3.034 -0.0936  0.0906 -0.0607
 5361SOL    HW116403   3.897   5.438   3.033 -0.9486 -0.4433  0.2773
 5361SOL    HW216404   4.012   5.353   2.954 -0.0238  1.0539 -0.0283
 5362SOL     OW16405   4.685   0.484   4.092 -0.2099 -0.0652 -0.3425
 5362SOL    HW116406   4.641   0.546   4.027 -0.7242  0.2032  0.2571
 5362SOL    HW216407   4.760   0.436   4.046 -1.5558 -1.0664 -1.5781
 5363SOL     OW16408   0.888   4.300   3.182 -0.5576  0.3585  0.1067
 5363SOL    HW116409   0.954   4.367   3.149 -1.9735  1.7370  0.0065
 5363SOL    HW216410   0.850   4.330   3.269 -0.8675 -0.5630  0.3055
 5364SOL     OW16411   4.801   0.074   3.776  0.3341 -0.2392  0.0564
 5364SOL    HW116412   4.738   0.042   3.846  0.5444 -3.0005 -0.8876
 5364SOL    HW216413   4.751   0.093   3.692  0.1183  2.8423  0.7340
 5365SOL     OW16414   0.552   3.538   2.873  0.8159 -0.0867  0.6765
 5365SOL    HW116415   0.578   3.627   2.911  1.6333 -0.0520  0.0718
 5365SOL    HW216416   0.549   3.469   2.945 -1.0669  0.6635  1.3817
 5366SOL     OW16417   5.075   3.587   2.940  1.1086  0.0791  0.7849
 5366SOL    HW116418   5.155   3.545   2.982  2.5946  1.2084 -0.7887
 5366SOL    HW216419   5.088   3.685   2.933  0.0020  0.1774 -0.3674
 5367SOL     OW16420   0.806   3.814   2.260 -0.4448 -0.4645 -0.1231
 5367SOL    HW116421   0.877   3.869   2.216  0.4715 -0.4886  1.2373
 5367SOL    HW216422   0.716   3.852   2.239  0.0850  0.6966 -0.3762
 5368SOL     OW16423   3.736   0.181   4.273  0.3712  0.2405  0.7293
 5368SOL    HW116424   3.745   0.241   4.193  0.1605  0.0838  0.5852
 5368SOL    HW216425   3.734   0.085   4.243  0.3054  0.1805  0.9240
 5369SOL     OW16426   3.370   5.130   2.552 -0.2517  0.2635  0.4749
 5369SOL    HW116427   3.307   5.069   2.504 -2.2115  2.0740  0.6140
 5369SOL    HW216428   3.441   5.162   2.488  0.3287 -1.4774  0.2092
 5370SOL     OW16429   1.422   4.817   2.488  0.3414 -0.1026 -0.6545
 5370SOL    HW116430   1.441   4.869   2.405 -1.1793  2.3518  0.3933
 5370SOL    HW216431   1.496   4.831   2.554  0.7142 -0.6362 -0.9514
 5371SOL     OW16432   1.028   5.307   3.310 -0.3126  0.5983 -0.9998
 5371SOL    HW116433   1.043   5.382   3.374  0.1841  0.0221 -0.4281
 5371SOL    HW216434   1.051   5.337   3.218 -0.2960  1.1991 -0.8063
 5372SOL     OW16435   4.190   5.127   4.168 -0.0849  0.0884  0.5499
 5372SOL    HW116436   4.272   5.159   4.122 -1.0493  0.1793 -1.2212
 5372SOL    HW216437   4.192   5.027   4.174  0.3834  0.1232  0.9692
 5373SOL     OW16438   4.112   4.440   2.200  0.2868  0.4831  0.1758
 5373SOL    HW116439   4.188   4.453   2.264  0.6579 -0.4439 -0.0624
 5373SOL    HW216440   4.148   4.412   2.111 -0.3725 -1.5474  0.4899
 5374SOL     OW16441   3.816   0.238   3.636  0.0153  0.0859  0.0369
 5374SOL    HW116442   3.736   0.280   3.678  0.7060  0.6980  0.7828
 5374SOL    HW216443   3.794   0.205   3.545 -1.0109  0.4691  0.1430
 5375SOL     OW16444   4.959   3.107   2.921 -0.7482 -0.4018  0.1566
 5375SOL    HW116445   5.015   3.187   2.899 -0.6423 -0.0902  1.4488
 5375SOL    HW216446   4.964   3.041   2.847 -1.0256  0.8845 -1.0497
 5376SOL     OW16447   3.021   4.738   2.168  0.0328  1.0257 -0.1366
 5376SOL    HW116448   3.098   4.679   2.193  1.5886  1.2813 -3.6064
 5376SOL    HW216449   3.034   4.828   2.209  1.3064  0.8877 -0.1811
 5377SOL     OW16450   5.024   4.465   2.335 -0.2739  0.0138 -0.0364
 5377SOL    HW116451   4.963   4.495   2.409 -1.3758 -1.4165 -0.3033
 5377SOL    HW216452   5.058   4.373   2.356 -0.5304 -0.3765 -1.2330
 5378SOL     OW16453   3.901   3.933   1.400  0.1967  0.6197 -0.0899
 5378SOL    HW116454   3.918   3.962   1.306  3.4216 -1.3337 -0.2713
 5378SOL    HW216455   3.887   3.834   1.402 -0.1888  0.6809  1.4799
 5379SOL     OW16456   4.530   3.642   2.010  0.0780  0.4501 -0.5540
 5379SOL    HW116457   4.489   3.608   2.094 -0.2607  1.9051 -0.1071
 5379SOL    HW216458   4.624   3.671   2.028  0.0718  0.5753 -0.7190
 5380SOL     OW16459   3.739   3.922   2.752  0.4057  0.4468 -0.0599
 5380SOL    HW116460   3.818   3.908   2.692  1.1294  0.5754  0.8338
 5380SOL    HW216461   3.715   3.835   2.796 -0.0132  0.3909 -0.3873
 5381SOL     OW16462   5.064   0.256   2.049 -0.3025  0.2463  0.1371
 5381SOL    HW116463   5.082   0.179   1.988 -1.0994 -0.7587  1.1285
 5381SOL    HW216464   5.068   0.341   1.997  2.5644 -0.2569 -0.6175
 5382SOL     OW16465   3.072   0.369   4.508  1.1993  0.2386 -1.1473
 5382SOL    HW116466   3.140   0.375   4.580 -0.0955  0.0985  0.1414
 5382SOL    HW216467   3.073   0.277   4.468 -0.5860 -0.9812  1.3604
 5383SOL     OW16468   5.009   3.335   2.027  0.1692 -0.1934  0.1028
 5383SOL    HW116469   4.989   3.253   2.080 -0.4506 -0.7814 -1.0074
 5383SOL    HW216470   4.951   3.337   1.945  1.1592  0.6331 -0.6075
 5384SOL     OW16471   0.410   4.017   3.051  0.1240 -0.3594  0.2107
 5384SOL    HW116472   0.375   4.103   3.013 -0.7828 -0.3199  1.0789
 5384SOL    HW216473   0.444   4.033   3.143 -1.3909 -1.1811  0.9440
 5385SOL     OW16474   0.188   2.914   3.243  0.1880 -0.7305 -0.6630
 5385SOL    HW116475   0.116   2.984   3.241  0.2235 -0.6994 -1.2106
 5385SOL    HW216476   0.223   2.905   3.336  2.1795  2.0672 -1.0097
 5386SOL     OW16477   3.436   1.939   1.619  0.1091 -0.6005 -0.2740
 5386SOL    HW116478   3.516   1.895   1.661  0.5237  1.0620  0.7460
 5386SOL    HW216479   3.459   1.969   1.526 -0.1028 -2.2248 -0.8916
 5387SOL     OW16480   2.474   0.163   1.757  0.2414  0.1202  0.0900
 5387SOL    HW116481   2.562   0.173   1.802  0.3335 -1.2021  0.2506
 5387SOL    HW216482   2.488   0.150   1.659  0.2879 -0.8749  0.2198
 5388SOL     OW16483   5.463   4.308   4.698  0.1118 -0.0047  0.0595
 5388SOL    HW116484   5.446   4.230   4.757  0.5951 -0.4431 -0.3738
 5388SOL    HW216485   5.379   4.333   4.649 -0.0100 -0.3337  0.1039
 5389SOL     OW16486   4.506   4.410   4.465 -0.3783 -0.1331  0.1344
 5389SOL    HW116487   4.449   4.428   4.385 -1.2161 -0.4205  0.6499
 5389SOL    HW216488   4.452   4.424   4.548  0.7912  1.3204  0.7078
 5390SOL     OW16489   4.345   5.093   3.283 -0.3697  0.2305  0.8053
 5390SOL    HW116490   4.296   5.110   3.368 -2.7171 -1.1826 -0.1525
 5390SOL    HW216491   4.297   5.138   3.207  0.0465 -0.8314 -0.1220
 5391SOL     OW16492   4.947   1.055   3.640 -0.0261  0.2559 -0.0099
 5391SOL    HW116493   4.938   1.084   3.735 -0.6493 -1.4598  0.5066
 5391SOL    HW216494   5.022   0.988   3.632  2.3969  2.9022 -1.4233
 5392SOL     OW16495   5.108   5.269   4.712 -0.2952 -0.1455  0.2036
 5392SOL    HW116496   5.140   5.338   4.648 -0.7618 -1.6724 -1.7841
 5392SOL    HW216497   5.185   5.236   4.767  0.0786  1.3265  0.5917
 5393SOL     OW16498   0.812   4.548   3.728 -0.1484  0.1638 -0.1670
 5393SOL    HW116499   0.867   4.605   3.667  0.4459  0.3173  0.4955
 5393SOL    HW216500   0.868   4.472   3.761 -0.8979 -0.7662 -0.9584
 5394SOL     OW16501   4.889   4.313   3.479 -0.3340  0.2910  0.0487
 5394SOL    HW116502   4.982   4.306   3.517 -0.4957  1.0238  0.6022
 5394SOL    HW216503   4.834   4.237   3.513  0.3064 -0.7091 -1.0489
 5395SOL     OW16504   3.869   5.004   4.241  0.3883 -0.2513  0.6294
 5395SOL    HW116505   3.792   4.960   4.194  0.8626  0.0632 -0.4432
 5395SOL    HW216506   3.955   4.962   4.211  0.7204  0.1889  0.9601
 5396SOL     OW16507   3.971   4.589   5.498 -0.2247 -0.0925 -0.6222
 5396SOL    HW116508   3.889   4.644   5.479 -0.4827 -0.7024 -1.3357
 5396SOL    HW216509   3.984   4.582   5.597 -0.1195  1.3352 -0.5038
 5397SOL     OW16510   5.392   4.947   2.929  0.0845  0.0426  0.4722
 5397SOL    HW116511   5.467   4.911   2.873  0.7889  0.5746  1.0696
 5397SOL    HW216512   5.338   4.870   2.964  0.5656 -0.3574  0.3470
 5398SOL     OW16513   2.540   5.232   0.345  0.0704 -0.5037 -0.3537
 5398SOL    HW116514   2.600   5.215   0.422 -0.8826 -1.2228  0.2455
 5398SOL    HW216515   2.574   5.311   0.293  1.6846 -1.0865 -0.2257
 5399SOL     OW16516   5.129   0.312   4.200  0.4464 -0.0696 -0.2492
 5399SOL    HW116517   5.116   0.215   4.220  1.0186 -0.1938 -0.4687
 5399SOL    HW216518   5.146   0.362   4.285  0.3493 -0.1912 -0.1583
 5400SOL     OW16519   0.057   0.493   5.136 -0.1061 -0.7245 -0.0608
 5400SOL    HW116520  -0.005   0.517   5.212  0.8349 -0.3903  0.6213
 5400SOL    HW216521   0.118   0.570   5.118  0.3579 -1.1894 -0.4685
 5401SOL     OW16522   3.126   3.030  -0.006 -0.3719 -0.3447 -0.7905
 5401SOL    HW116523   3.209   3.070   0.032 -0.0767 -0.9333 -0.8045
 5401SOL    HW216524   3.100   2.950   0.048 -0.6247 -0.4840 -1.1158
 5402SOL     OW16525   5.076   4.704   4.326 -0.0070 -0.0459 -0.2667
 5402SOL    HW116526   5.008   4.722   4.398 -0.6972  0.0787 -0.9357
 5402SOL    HW216527   5.158   4.758   4.343 -0.3596  0.3668  0.1449
 5403SOL     OW16528   5.324   0.246   4.855 -0.0861  0.0577 -0.4429
 5403SOL    HW116529   5.320   0.155   4.814 -1.3015  0.5382 -1.4623
 5403SOL    HW216530   5.335   0.314   4.782 -0.3646  0.8112  0.2068
 5404SOL     OW16531   3.342   5.149   2.161 -0.1965  0.0684  0.7704
 5404SOL    HW116532   3.346   5.245   2.132  0.7944 -0.0529  0.4483
 5404SOL    HW216533   3.415   5.098   2.116 -0.1692 -0.6558  1.6058
 5405SOL     OW16534   3.297   0.577   5.083 -0.6774 -0.8586 -0.1632
 5405SOL    HW116535   3.303   0.526   5.169 -1.7309 -0.9986 -0.1546
 5405SOL    HW216536   3.385   0.620   5.063 -0.5856 -0.2997  1.3128
 5406SOL     OW16537   4.922   4.596   5.290 -0.0985 -0.1316 -0.0547
 5406SOL    HW116538   4.970   4.513   5.263  2.6217  1.0873  0.7158
 5406SOL    HW216539   4.918   4.659   5.213 -0.7283 -0.3235 -0.1857
 5407SOL     OW16540   5.062   0.918   0.654  0.0373 -0.0525 -0.2150
 5407SOL    HW116541   4.971   0.880   0.640  0.4245 -0.3375 -2.2986
 5407SOL    HW216542   5.072   0.947   0.749 -3.0241  2.1116 -0.4057
 5408SOL     OW16543   4.268   0.248   4.520  0.6755  0.3781  0.4288
 5408SOL    HW116544   4.247   0.343   4.542  0.9665  0.4107  0.5721
 5408SOL    HW216545   4.355   0.244   4.471  0.4397  0.2270  0.0166
 5409SOL     OW16546   4.583   3.994   0.569  0.0224 -0.2616 -0.4258
 5409SOL    HW116547   4.648   4.058   0.529 -0.1386  0.4579  0.4320
 5409SOL    HW216548   4.582   3.910   0.515  2.0240 -0.5014 -0.1633
 5410SOL     OW16549   0.788   3.249   2.932  0.1309 -0.3648 -1.0792
 5410SOL    HW116550   0.822   3.336   2.898  0.6905 -0.8684 -1.8263
 5410SOL    HW216551   0.773   3.186   2.856  0.3167 -1.1309 -0.4994
 5411SOL     OW16552   0.425   0.346   3.413  0.2964  0.1594 -0.1539
 5411SOL    HW116553   0.471   0.431   3.386  0.9263 -0.1801 -0.1729
 5411SOL    HW216554   0.338   0.368   3.457 -0.3160  0.7662 -1.5944
 5412SOL     OW16555   3.221   4.873   3.697 -0.4564  0.1199 -0.2542
 5412SOL    HW116556   3.171   4.843   3.779 -1.1693 -0.5109 -0.9076
 5412SOL    HW216557   3.306   4.918   3.725 -0.7565  0.0411  0.8383
 5413SOL     OW16558   4.409   5.355   3.389 -0.1718 -0.0611  0.1292
 5413SOL    HW116559   4.403   5.420   3.465  2.1939  0.8790 -0.4072
 5413SOL    HW216560   4.328   5.366   3.330 -2.0287 -0.7761  2.4011
 5414SOL     OW16561   1.333   5.057   4.653  0.1413  0.2985 -0.1560
 5414SOL    HW116562   1.252   5.033   4.705  0.6828 -1.2416  0.0206
 5414SOL    HW216563   1.307   5.085   4.560 -0.6133  0.4181  0.0866
 5415SOL     OW16564   4.306   0.169   1.125 -0.1240 -0.0316 -0.3606
 5415SOL    HW116565   4.271   0.159   1.219 -1.3896 -0.6564 -0.8614
 5415SOL    HW216566   4.375   0.098   1.108  0.2642  0.2161  0.1610
 5416SOL     OW16567   3.237   5.274   2.764  0.1485 -0.1442 -0.1504
 5416SOL    HW116568   3.150   5.229   2.780  0.2789 -0.0082  1.0391
 5416SOL    HW216569   3.299   5.211   2.716 -0.4124 -0.4323 -0.5003
 5417SOL     OW16570   4.679   4.840   0.048  0.0197 -0.1421  0.3323
 5417SOL    HW116571   4.754   4.815   0.109 -0.8747 -1.1770  1.0551
 5417SOL    HW216572   4.619   4.905   0.095  0.1843  0.2746 -0.0386
 5418SOL     OW16573   4.038   3.834   4.140  0.5280  0.8981 -0.1295
 5418SOL    HW116574   4.100   3.912   4.150  1.1760  0.2280  1.3326
 5418SOL    HW216575   4.055   3.768   4.213  0.1873 -0.7577 -1.4693
 5419SOL     OW16576   4.085   3.008   1.468 -0.5163  0.4877 -0.0386
 5419SOL    HW116577   4.079   3.072   1.545  1.6497 -0.8559  1.3795
 5419SOL    HW216578   4.181   3.000   1.441 -0.7847 -1.8263 -0.4224
 5420SOL     OW16579   0.174   3.449   3.974  0.3240 -0.2601  0.0706
 5420SOL    HW116580   0.143   3.369   4.026 -0.8983  0.2753  0.2131
 5420SOL    HW216581   0.254   3.489   4.018  0.7147 -1.1778  0.2120
 5421SOL     OW16582   0.105   0.268   5.017  0.0195  0.3508 -0.5963
 5421SOL    HW116583   0.083   0.359   5.052  2.8255  0.9324 -0.1624
 5421SOL    HW216584   0.112   0.204   5.094 -0.7656  0.0198 -0.7926
 5422SOL     OW16585   3.254   3.972   1.679  0.3416 -0.2317  0.5354
 5422SOL    HW116586   3.176   4.021   1.717  0.1660 -0.1242  0.0371
 5422SOL    HW216587   3.331   4.035   1.668  0.2413 -0.1530  0.2696
 5423SOL     OW16588   5.191   5.125   0.911 -0.4986  0.3443  0.0242
 5423SOL    HW116589   5.177   5.026   0.909  1.5387  0.0273 -1.1273
 5423SOL    HW216590   5.285   5.146   0.884 -1.5186  2.7326 -2.0404
 5424SOL     OW16591   5.022   1.434   5.471  0.2441 -0.2690 -0.0472
 5424SOL    HW116592   5.036   1.504   5.541  0.4354  0.3287 -0.6638
 5424SOL    HW216593   5.111   1.407   5.433  0.4749 -2.8710  2.0590
 5425SOL     OW16594   4.420   3.323   4.429  0.1003 -0.6083  0.4732
 5425SOL    HW116595   4.460   3.279   4.349 -0.5220 -1.2859  0.5308
 5425SOL    HW216596   4.395   3.254   4.497  0.3876 -0.0600  1.1502
 5426SOL     OW16597   5.297   3.908   0.116  0.8303  0.1741 -0.2544
 5426SOL    HW116598   5.246   3.822   0.116 -0.6248  1.0117  0.2032
 5426SOL    HW216599   5.386   3.894   0.073  0.6435 -1.5687 -0.1273
 5427SOL     OW16600   4.727   1.451   4.007  0.3204 -0.2386 -0.2144
 5427SOL    HW116601   4.648   1.476   3.952  0.4150 -0.5613 -0.5020
 5427SOL    HW216602   4.806   1.437   3.948  0.7105  0.5189  0.1083
 5428SOL     OW16603   5.141   3.824   4.849 -0.2627 -0.7559 -0.0800
 5428SOL    HW116604   5.130   3.912   4.804 -0.1457 -0.6317  0.1349
 5428SOL    HW216605   5.101   3.752   4.792  1.2686 -0.8189 -1.1244
 5429SOL     OW16606   4.485   4.929   0.219  0.2912 -0.1276  0.0054
 5429SOL    HW116607   4.490   4.958   0.314  0.1063  0.5254 -0.1778
 5429SOL    HW216608   4.425   4.849   0.211  0.2873 -0.1675  0.4256
 5430SOL     OW16609   4.743   4.222   0.292  0.4286 -0.1055  0.2155
 5430SOL    HW116610   4.688   4.152   0.246  0.0601  0.1775  0.2261
 5430SOL    HW216611   4.734   4.309   0.244 -0.3596  0.3188  1.0998
 5431SOL     OW16612   4.224   2.586   0.088 -0.1822 -0.4444  0.0273
 5431SOL    HW116613   4.278   2.661   0.128  0.7565  0.3767 -2.5355
 5431SOL    HW216614   4.211   2.514   0.156  2.3780  0.2652  1.3969
 5432SOL     OW16615   0.954   4.880   0.440  0.2882  0.6326  0.4425
 5432SOL    HW116616   0.923   4.819   0.513  4.2747 -0.5855  1.4009
 5432SOL    HW216617   0.924   4.973   0.458  0.9782  0.3321  3.6399
 5433SOL     OW16618   4.080   3.627   3.940  0.1175  0.3956  0.6846
 5433SOL    HW116619   4.040   3.681   4.015  1.4211  0.0168  1.6875
 5433SOL    HW216620   4.180   3.633   3.944  0.2351 -0.6281 -0.2920
 5434SOL     OW16621   4.786   0.251   4.362  0.1527  0.8087  0.1591
 5434SOL    HW116622   4.781   0.225   4.265 -1.3222  1.5142  0.0289
 5434SOL    HW216623   4.770   0.349   4.371 -3.1456  0.2761  1.3525
 5435SOL     OW16624   0.338   5.362   4.567  0.2087  0.1877  0.2673
 5435SOL    HW116625   0.409   5.425   4.598 -1.0081  2.4460 -1.1763
 5435SOL    HW216626   0.354   5.337   4.472  0.5575 -1.6151  0.7574
 5436SOL     OW16627   0.608   2.815   0.062 -0.1404 -0.0076 -0.2924
 5436SOL    HW116628   0.684   2.815  -0.002 -0.7658 -0.7745 -1.0658
 5436SOL    HW216629   0.522   2.807   0.011 -0.6385 -0.7839  0.6334
 5437SOL     OW16630   4.341   0.342   3.888  0.3711 -0.0611 -0.3444
 5437SOL    HW116631   4.258   0.295   3.917 -0.1251 -0.0759 -1.7003
 5437SOL    HW216632   4.319   0.403   3.812  1.3786  0.8842  0.0904
 5438SOL     OW16633   4.668   4.739   4.439  0.7678  0.1441  0.6869
 5438SOL    HW116634   4.628   4.718   4.528  2.3578 -1.2068  1.1355
 5438SOL    HW216635   4.669   4.838   4.426  0.6298  0.3759  2.2293
 5439SOL     OW16636   0.043   0.551   3.993  0.7196 -0.8624  0.4489
 5439SOL    HW116637   0.142   0.557   3.982  0.5704  0.3106 -0.4896
 5439SOL    HW216638   0.021   0.530   4.089  1.8405  0.2311  0.9743
 5440SOL     OW16639   3.056   5.450   3.916  0.1260  0.5006  0.1302
 5440SOL    HW116640   3.079   5.546   3.935 -1.9777  1.0905 -0.0175
 5440SOL    HW216641   2.959   5.444   3.891 -0.2204 -1.9101  1.8094
 5441SOL     OW16642   1.082   0.463   4.472 -0.4216 -0.1023  0.1711
 5441SOL    HW116643   1.068   0.493   4.567 -0.8197  3.7196 -0.9432
 5441SOL    HW216644   1.159   0.513   4.432 -0.6773 -1.1470 -1.7309
 5442SOL     OW16645   5.544   0.521   0.742 -0.3805  0.2162  0.4802
 5442SOL    HW116646   5.447   0.503   0.728 -0.6910  1.8463  0.3279
 5442SOL    HW216647   5.557   0.617   0.768  1.3318  0.5020 -1.1742
 5443SOL     OW16648   4.518   0.226   3.361 -0.7098  0.4285 -0.4035
 5443SOL    HW116649   4.582   0.236   3.285 -0.7574 -2.0076 -0.8431
 5443SOL    HW216650   4.435   0.180   3.329 -1.0419  0.0220  0.9537
 5444SOL     OW16651   0.210   3.599   2.755  0.1525 -0.4048 -0.4353
 5444SOL    HW116652   0.236   3.694   2.770 -2.4411  0.4473 -0.9572
 5444SOL    HW216653   0.122   3.595   2.707  0.0338 -3.0728 -0.1383
 5445SOL     OW16654   3.713   0.524   0.221 -0.3391 -0.0834  0.4611
 5445SOL    HW116655   3.776   0.529   0.298 -1.0773 -2.1255  1.2844
 5445SOL    HW216656   3.619   0.532   0.254 -0.6555 -0.6620 -0.2625
 5446SOL     OW16657   3.442   2.686   4.875 -0.1915 -0.4310  0.6596
 5446SOL    HW116658   3.426   2.598   4.830 -0.9984  0.3528 -0.6311
 5446SOL    HW216659   3.360   2.713   4.926 -0.4682  0.2139 -0.1004
 5447SOL     OW16660   0.359   2.782   0.459  0.2131 -0.4999  0.4332
 5447SOL    HW116661   0.458   2.785   0.472  0.4523  0.5206 -1.3072
 5447SOL    HW216662   0.319   2.869   0.487 -0.0889 -0.6151  0.3672
 5448SOL     OW16663   5.199   4.563   3.247  0.6534 -0.3212  0.3056
 5448SOL    HW116664   5.137   4.494   3.212  0.1919 -0.0772  0.6359
 5448SOL    HW216665   5.207   4.638   3.181  0.4724 -0.2744  0.3392
 5449SOL     OW16666   3.202   5.450   0.207  0.1350 -0.2899  0.6742
 5449SOL    HW116667   3.297   5.439   0.176  0.3501  0.2625  1.1219
 5449SOL    HW216668   3.146   5.379   0.166  1.1116 -1.8855  1.9788
 5450SOL     OW16669   0.676   3.565   3.424 -0.0013  0.2237 -0.1496
 5450SOL    HW116670   0.735   3.644   3.441  0.6033  0.0378 -1.2864
 5450SOL    HW216671   0.676   3.544   3.326 -3.0292  1.0433 -0.4156
 5451SOL     OW16672   4.111   3.800   4.992  0.9493 -0.1053  0.0238
 5451SOL    HW116673   4.190   3.810   4.930 -0.2167  1.2548 -1.3315
 5451SOL    HW216674   4.030   3.776   4.938  0.0557  0.3259  1.1452
 5452SOL     OW16675   5.198   5.431   4.519  0.4549  0.3842 -0.2366
 5452SOL    HW116676   5.182   5.374   4.438  0.0074  0.0936  0.0546
 5452SOL    HW216677   5.280   5.486   4.505  0.9705 -0.4284 -0.4638
 5453SOL     OW16678   4.630   4.745   4.709 -0.5252 -0.0669 -0.3365
 5453SOL    HW116679   4.677   4.662   4.740  0.9228  0.3573 -1.2961
 5453SOL    HW216680   4.659   4.822   4.765  1.3871  0.5281 -2.0226
 5454SOL     OW16681   1.708   2.890   5.146 -0.2603 -0.3525  0.4519
 5454SOL    HW116682   1.710   2.830   5.226 -1.7201 -1.0022  0.0324
 5454SOL    HW216683   1.775   2.963   5.158  0.7609 -1.4082  1.4836
 5455SOL     OW16684   4.987   3.860   3.790  0.1526  0.4141 -0.2935
 5455SOL    HW116685   4.957   3.885   3.882  1.1599  0.0617  0.1456
 5455SOL    HW216686   5.060   3.792   3.796 -0.1703 -0.0583 -1.3777
 5456SOL     OW16687   3.392   2.604   3.968  0.1318 -0.5459  0.3049
 5456SOL    HW116688   3.371   2.567   4.059 -2.6093 -0.4712 -0.1915
 5456SOL    HW216689   3.412   2.702   3.976 -2.0414 -0.0683  0.7313
 5457SOL     OW16690   5.138   5.347   1.373 -0.0749  0.3647  0.2514
 5457SOL    HW116691   5.082   5.348   1.290 -0.4813  0.5489  0.5261
 5457SOL    HW216692   5.079   5.342   1.453  0.3624 -1.4548  0.4991
 5458SOL     OW16693   5.188   5.012   5.560 -0.1718 -0.0464 -0.4278
 5458SOL    HW116694   5.252   4.937   5.579  0.9083  0.7733 -0.7069
 5458SOL    HW216695   5.237   5.086   5.513 -1.3758  0.5434 -0.7821
 5459SOL     OW16696   5.362   4.809   4.310 -0.3874 -0.2208 -0.2761
 5459SOL    HW116697   5.364   4.715   4.345 -0.8268  0.2923  1.2107
 5459SOL    HW216698   5.448   4.830   4.264 -0.2244 -1.2970 -0.4717
 5460SOL     OW16699   4.501   3.100   5.146 -0.2152  0.6555  0.5690
 5460SOL    HW116700   4.583   3.072   5.096  1.5865  1.0985  3.0947
 5460SOL    HW216701   4.437   3.023   5.150  0.3826  0.0462 -0.7894
 5461SOL     OW16702   4.063   4.285   3.064  0.0237 -0.2623 -0.1305
 5461SOL    HW116703   4.001   4.356   3.096  1.2244 -0.7282  3.7922
 5461SOL    HW216704   4.152   4.325   3.042  0.4617 -0.3283  1.3433
 5462SOL     OW16705   4.780   4.846   4.076 -0.4557 -0.6043  0.3404
 5462SOL    HW116706   4.730   4.876   4.158  0.1822 -2.7709  1.6130
 5462SOL    HW216707   4.879   4.855   4.093 -0.3040 -1.5520  0.0309
 5463SOL     OW16708   2.270   4.435   3.851  0.0603 -0.8247  0.3431
 5463SOL    HW116709   2.326   4.414   3.771 -0.3619 -0.2974 -0.1003
 5463SOL    HW216710   2.275   4.532   3.872 -2.5215 -0.2568 -1.1940
 5464SOL     OW16711   4.206   4.539   5.357  0.4655 -0.2903 -0.0734
 5464SOL    HW116712   4.284   4.551   5.419 -0.5083 -0.5019  1.2449
 5464SOL    HW216713   4.121   4.540   5.410 -0.2991 -2.6331 -1.1095
 5465SOL     OW16714   4.718   0.915   0.221 -0.5780  0.1557 -0.3049
 5465SOL    HW116715   4.785   0.849   0.253 -1.4339 -0.7360 -0.3257
 5465SOL    HW216716   4.676   0.882   0.136 -1.0339  0.7184 -0.3057
 5466SOL     OW16717   4.929   0.027   5.293  0.1880 -0.3153  0.2583
 5466SOL    HW116718   4.848   0.080   5.318  1.5635  1.7818  0.5629
 5466SOL    HW216719   4.930  -0.059   5.343  0.6346  1.7740  4.2747
 5467SOL     OW16720   4.138   0.220   3.980 -0.4343  0.3540 -0.0656
 5467SOL    HW116721   4.063   0.169   3.939  1.2178 -1.9657 -0.4146
 5467SOL    HW216722   4.112   0.251   4.071 -2.1007  0.4372 -0.5431
 5468SOL     OW16723   0.187   4.997   3.706  0.1166  0.2264  0.9026
 5468SOL    HW116724   0.176   4.897   3.700  0.8143  0.1540  0.8273
 5468SOL    HW216725   0.097   5.040   3.699  0.0387 -0.1886 -3.1793
 5469SOL     OW16726   4.100   4.225   3.829  0.2183 -0.7602 -0.5303
 5469SOL    HW116727   4.011   4.249   3.867  1.2035  2.6361 -0.0207
 5469SOL    HW216728   4.093   4.221   3.729 -0.1756  1.6490 -0.6660
 5470SOL     OW16729   4.501   5.167   5.057  0.2750 -0.0322  0.5018
 5470SOL    HW116730   4.473   5.151   5.152 -0.9741  0.4796  0.2387
 5470SOL    HW216731   4.466   5.094   4.999 -1.1107  0.9301  0.0769
 5471SOL     OW16732   3.595   0.131   0.174 -0.1502 -0.6902  0.4634
 5471SOL    HW116733   3.678   0.106   0.125  0.0277 -1.4383  1.1236
 5471SOL    HW216734   3.619   0.169   0.263 -0.4349  1.4779 -0.3317
 5472SOL     OW16735   3.361   4.504   3.926  0.7649  0.3695 -0.6758
 5472SOL    HW116736   3.437   4.445   3.956  1.6573  1.4837 -0.6633
 5472SOL    HW216737   3.398   4.580   3.872 -0.2569  1.4048  0.0444
 5473SOL     OW16738   5.355   3.254   2.855  0.2614  0.4002  0.1517
 5473SOL    HW116739   5.260   3.278   2.837 -0.0050 -1.5696 -1.4676
 5473SOL    HW216740   5.402   3.238   2.768  1.1420 -1.7891  0.9462
 5474SOL     OW16741   4.887   4.817   0.210  0.1731 -0.1021  0.4362
 5474SOL    HW116742   4.986   4.811   0.225  0.0062 -0.4528  1.5183
 5474SOL    HW216743   4.857   4.912   0.221  0.3028 -0.0941  0.7253
 5475SOL     OW16744   0.842   4.481   4.059  0.1557  0.4524  0.1628
 5475SOL    HW116745   0.851   4.382   4.050 -0.5361 -0.1273  3.9966
 5475SOL    HW216746   0.932   4.523   4.060  0.4447 -0.0258 -1.7926
 5476SOL     OW16747   5.002   4.358   2.954  0.2100  0.4758  0.3882
 5476SOL    HW116748   4.990   4.367   3.053  1.2169 -0.8770  0.6619
 5476SOL    HW216749   5.047   4.440   2.919  0.9859  0.4448  1.2636
 5477SOL     OW16750   0.596   1.737   4.543  0.3903  0.6422 -0.0694
 5477SOL    HW116751   0.596   1.761   4.640 -0.5429  0.0883  0.0782
 5477SOL    HW216752   0.669   1.671   4.524 -0.2788 -0.2964  0.5398
 5478SOL     OW16753   0.529  -0.005   4.674  0.8791 -0.0942 -0.1090
 5478SOL    HW116754   0.517   0.094   4.671 -4.4606 -0.4202  0.9507
 5478SOL    HW216755   0.557  -0.032   4.766  1.0377  0.3620 -0.0215
 5479SOL     OW16756   4.978   2.042   2.556  0.2055 -0.0798  0.0273
 5479SOL    HW116757   5.039   2.001   2.625 -0.3477  0.0637  0.6051
 5479SOL    HW216758   4.906   2.094   2.601  0.0523  0.3333 -0.6747
 5480SOL     OW16759   3.917   3.677   3.346  0.5582  0.2158 -0.5536
 5480SOL    HW116760   3.909   3.578   3.360 -2.8107  0.5253  0.6071
 5480SOL    HW216761   3.963   3.718   3.425  0.3289 -0.2426 -0.1766
 5481SOL     OW16762   0.483   5.278   0.174 -0.1911  0.3805  0.2046
 5481SOL    HW116763   0.539   5.195   0.181 -1.1178 -0.1213  3.0613
 5481SOL    HW216764   0.396   5.256   0.130  0.2078  0.2304 -0.5258
 5482SOL     OW16765   0.509   3.048   0.813 -0.1407 -0.4370 -0.8062
 5482SOL    HW116766   0.584   2.983   0.805 -0.7692 -1.0350 -2.0148
 5482SOL    HW216767   0.448   3.040   0.734 -0.3502  1.4870 -0.9022
 5483SOL     OW16768   1.231   5.123   0.259 -0.1792  0.0069  0.3780
 5483SOL    HW116769   1.204   5.052   0.325 -2.9422  0.9224  0.3362
 5483SOL    HW216770   1.183   5.208   0.280  0.7554  1.0294 -1.3934
 5484SOL     OW16771   0.998   0.637   4.066  0.3412 -0.5611  0.4030
 5484SOL    HW116772   0.967   0.609   3.975 -1.1751  2.1865 -0.0346
 5484SOL    HW216773   0.929   0.694   4.108  2.5313  1.2254  1.7945
 5485SOL     OW16774   0.292   1.579   5.241 -0.0843 -0.0487 -0.3379
 5485SOL    HW116775   0.306   1.662   5.187 -0.0198 -0.1117 -0.4200
 5485SOL    HW216776   0.281   1.602   5.337 -1.3333  0.1603 -0.5231
 5486SOL     OW16777   4.158   3.143   5.067  0.5802 -0.3128  0.2656
 5486SOL    HW116778   4.175   3.086   4.986 -1.2612  0.1226 -0.4614
 5486SOL    HW216779   4.095   3.097   5.129  0.2057  0.3148  0.3624
 5487SOL     OW16780   4.122   0.939   1.157 -0.1025 -0.2967  0.0714
 5487SOL    HW116781   4.149   0.843   1.150  0.3721 -0.1234 -0.5309
 5487SOL    HW216782   4.030   0.951   1.119 -1.0585 -0.8763  2.0616
 5488SOL     OW16783   4.661   3.645   5.205  0.3649  0.5601  0.6311
 5488SOL    HW116784   4.740   3.584   5.204 -0.6410 -0.9030  2.5105
 5488SOL    HW216785   4.577   3.590   5.201 -0.5821  1.9994 -0.1890
 5489SOL     OW16786   3.748   0.268   4.517 -0.6336 -0.0172 -0.5312
 5489SOL    HW116787   3.737   0.223   4.429  0.1707  0.8364 -1.0892
 5489SOL    HW216788   3.816   0.220   4.572 -1.4606 -0.8109 -0.1818
 5490SOL     OW16789   0.778   4.527   3.337  0.0250 -0.1919  0.0107
 5490SOL    HW116790   0.709   4.463   3.371  0.6013 -1.5065 -1.2214
 5490SOL    HW216791   0.812   4.583   3.413 -0.9663 -0.8677  0.9856
 5491SOL     OW16792   3.903   2.144   4.709 -0.2420  0.0302 -0.3039
 5491SOL    HW116793   3.858   2.116   4.624 -1.2576 -1.1866  0.5901
 5491SOL    HW216794   3.843   2.206   4.760  0.1633  0.3870 -0.2573
 5492SOL     OW16795   4.463   0.342   4.139 -0.2724  0.0344 -0.1521
 5492SOL    HW116796   4.555   0.381   4.126 -0.4298  0.0710 -1.2591
 5492SOL    HW216797   4.418   0.334   4.050 -1.5833  0.5914  0.4346
 5493SOL     OW16798   4.536   3.983   4.116 -0.2708 -0.4126 -0.2779
 5493SOL    HW116799   4.603   4.056   4.097 -0.0711 -0.4344  0.3416
 5493SOL    HW216800   4.462   3.989   4.049  1.0479 -1.2770 -1.8964
 5494SOL     OW16801   5.277   1.003   0.267 -0.4061  0.0026  0.2030
 5494SOL    HW116802   5.250   0.908   0.250  0.0805 -0.1175  0.0908
 5494SOL    HW216803   5.258   1.027   0.362  0.5247 -0.5692  0.5488
 5495SOL     OW16804   4.908   5.397   4.877 -0.1788 -0.0551 -0.3907
 5495SOL    HW116805   4.917   5.354   4.966 -0.7530  0.0988 -0.2524
 5495SOL    HW216806   4.962   5.347   4.810  1.4669  0.6992  0.3182
 5496SOL     OW16807   1.079   4.597   3.955 -0.0363  0.3291 -0.1037
 5496SOL    HW116808   1.096   4.663   3.882  1.7603 -1.0443 -0.9973
 5496SOL    HW216809   1.126   4.626   4.038  2.4299 -0.7173 -1.0456
 5497SOL     OW16810   4.825   3.966   4.827  0.0659  0.4453 -0.2820
 5497SOL    HW116811   4.814   4.060   4.794 -1.6960 -0.0984 -1.3740
 5497SOL    HW216812   4.861   3.909   4.753  0.3115  0.0865  0.1113
 5498SOL     OW16813   3.917   5.439   1.210 -0.0027 -0.0055  0.4545
 5498SOL    HW116814   3.958   5.517   1.164  0.6369 -0.3278  0.4759
 5498SOL    HW216815   3.983   5.365   1.216 -0.9580 -1.0081 -0.6671
 5499SOL     OW16816   5.123   0.215   5.416  0.2629 -0.2976  0.0075
 5499SOL    HW116817   5.210   0.225   5.367 -0.7817  0.1729 -1.8570
 5499SOL    HW216818   5.066   0.147   5.369  0.2925 -2.0054  2.2665
 5500SOL     OW16819   5.468   5.193   4.629 -0.3346 -0.1438  0.0563
 5500SOL    HW116820   5.413   5.126   4.578 -0.8366  0.4842 -0.2398
 5500SOL    HW216821   5.513   5.255   4.565  2.8319 -2.1812  0.1216
 5501SOL     OW16822   3.983   5.255   0.414  0.3548  0.4282 -0.1085
 5501SOL    HW116823   4.078   5.238   0.441  0.3768  0.3349 -0.2481
 5501SOL    HW216824   3.924   5.248   0.495  0.5237  0.9425  0.0667
 5502SOL     OW16825   3.846   4.831   5.237 -0.2951  0.1464 -0.7338
 5502SOL    HW116826   3.922   4.807   5.176 -0.4146 -1.8511 -0.1847
 5502SOL    HW216827   3.879   4.836   5.331 -1.0742 -2.6462 -0.2117
 5503SOL     OW16828   1.166   5.507   3.455 -0.4878 -1.1713 -0.1284
 5503SOL    HW116829   1.138   5.598   3.426  0.1585 -1.0185 -0.2903
 5503SOL    HW216830   1.263   5.507   3.477 -0.6089 -1.6817  0.4527
 5504SOL     OW16831   1.326   0.095   5.228 -0.2750  0.0300 -0.1181
 5504SOL    HW116832   1.295   0.168   5.166  0.2603 -0.3938 -0.9111
 5504SOL    HW216833   1.252   0.068   5.289 -0.6935  0.7434 -0.3026
 5505SOL     OW16834   2.946   4.384   3.477 -0.1198 -0.8734 -0.1522
 5505SOL    HW116835   2.932   4.334   3.392 -0.0711  1.4406 -1.5973
 5505SOL    HW216836   2.973   4.478   3.457 -1.2302  0.0995  2.4004
 5506SOL     OW16837   5.445   4.731   5.207 -0.0995 -0.0361 -0.1651
 5506SOL    HW116838   5.467   4.664   5.137  0.2207  0.2389 -0.3302
 5506SOL    HW216839   5.525   4.789   5.225 -1.1925  2.2934 -2.2065
 5507SOL     OW16840   5.280   3.925   0.727 -0.0881 -0.3570  0.0393
 5507SOL    HW116841   5.371   3.962   0.707  0.2849 -1.3847 -0.1776
 5507SOL    HW216842   5.239   3.891   0.643 -0.5601 -0.1616  0.1885
 5508SOL     OW16843   3.049   5.213   0.106 -0.6742 -0.2085  0.6380
 5508SOL    HW116844   2.998   5.135   0.071 -1.3805  0.4219  0.2487
 5508SOL    HW216845   3.132   5.226   0.050 -1.2180  0.1017 -0.1163
 5509SOL     OW16846   3.480   2.967   5.066  0.7486 -0.0280 -0.3802
 5509SOL    HW116847   3.531   2.952   4.981 -1.5198 -1.3226 -1.6095
 5509SOL    HW216848   3.488   3.063   5.094  2.0195  0.2822 -1.7004
 5510SOL     OW16849   1.027   3.824   4.312  0.2821 -0.8953 -0.2643
 5510SOL    HW116850   0.956   3.782   4.369  1.9401 -1.2810  1.6474
 5510SOL    HW216851   1.071   3.897   4.363  0.4716  0.1577 -1.8732
 5511SOL     OW16852   4.524   2.256   4.378 -0.2921 -0.0764 -0.2521
 5511SOL    HW116853   4.454   2.190   4.404  1.4200 -1.5768  0.8749
 5511SOL    HW216854   4.575   2.222   4.299  0.1979  0.1691 -0.0498
 5512SOL     OW16855   5.091   5.099   0.654 -0.2537  0.2435  0.1594
 5512SOL    HW116856   5.094   5.138   0.746 -0.0312 -0.1681  0.3290
 5512SOL    HW216857   5.180   5.059   0.631 -0.0242  1.1483 -0.5947
 5513SOL     OW16858   1.714   1.423   4.295 -0.4031 -0.1667 -0.1444
 5513SOL    HW116859   1.719   1.325   4.314  0.4066 -0.6011 -2.2599
 5513SOL    HW216860   1.657   1.439   4.215  1.0565  0.8410 -1.0476
 5514SOL     OW16861   1.850   3.569   0.317  0.2509 -0.1138 -0.2802
 5514SOL    HW116862   1.894   3.501   0.258  0.9911 -0.2835  0.4484
 5514SOL    HW216863   1.753   3.575   0.295  0.3875 -0.6504 -1.0602
 5515SOL     OW16864   0.118   4.063   3.153  0.0766  0.4314 -0.0280
 5515SOL    HW116865   0.196   4.120   3.127  0.1043  0.8944  1.0185
 5515SOL    HW216866   0.043   4.079   3.089  0.6373  0.4178 -0.7045
 5516SOL     OW16867   5.500   3.245   3.777  0.4037 -0.1309 -0.6062
 5516SOL    HW116868   5.504   3.206   3.685 -0.7949 -1.9221  0.0446
 5516SOL    HW216869   5.527   3.175   3.843 -2.5930 -0.1870  0.6807
 5517SOL     OW16870   0.972   3.498   3.218 -0.0399 -0.1835 -0.1521
 5517SOL    HW116871   0.873   3.486   3.210 -0.0685 -0.4836  0.5596
 5517SOL    HW216872   0.998   3.588   3.182 -0.8302  0.7147  1.4092
 5518SOL     OW16873   4.309   4.399   4.648 -0.3466  0.1925 -0.2116
 5518SOL    HW116874   4.243   4.473   4.661 -0.3328  0.5880 -2.0639
 5518SOL    HW216875   4.267   4.311   4.672  0.0380  0.8268  3.2844
 5519SOL     OW16876   3.542   4.498   4.364 -0.0923  0.2670  0.2199
 5519SOL    HW116877   3.588   4.586   4.352  0.3724 -0.0661 -0.5501
 5519SOL    HW216878   3.496   4.496   4.452 -1.3200  1.8277 -0.3464
 5520SOL     OW16879   4.371   1.289   4.539  0.1930  0.2328  0.2859
 5520SOL    HW116880   4.307   1.364   4.553 -2.1572 -1.2467 -1.6684
 5520SOL    HW216881   4.398   1.250   4.627 -0.3909  1.8443  1.2013
 5521SOL     OW16882   3.338   4.883   0.626 -0.0287 -0.0980  0.4680
 5521SOL    HW116883   3.361   4.838   0.539  1.3009  0.6875  0.3871
 5521SOL    HW216884   3.391   4.842   0.700  1.4405  1.4763  0.3460
 5522SOL     OW16885   4.537   3.714   4.184 -0.0443 -0.2713  0.6543
 5522SOL    HW116886   4.539   3.813   4.173  0.1267 -0.4299 -0.8669
 5522SOL    HW216887   4.628   3.680   4.209  0.1838 -0.1745 -0.0453
 5523SOL     OW16888   4.379   4.836   2.025  0.3099  0.1952 -0.0779
 5523SOL    HW116889   4.414   4.775   1.954  0.5385 -0.1276  0.3082
 5523SOL    HW216890   4.284   4.860   2.006  0.2957 -0.0850 -0.3607
 5524SOL     OW16891   5.174   0.138   4.628  0.2591  0.5793  0.3685
 5524SOL    HW116892   5.165   0.059   4.568  0.9299 -0.5796  1.7341
 5524SOL    HW216893   5.084   0.181   4.641 -0.2776 -0.4861  0.2878
 5525SOL     OW16894   4.987   4.169   5.355  0.8443 -0.5560  0.4224
 5525SOL    HW116895   4.926   4.193   5.431  2.9081  0.9426  1.7168
 5525SOL    HW216896   5.003   4.250   5.298  2.5409 -0.5589  0.8362
 5526SOL     OW16897   3.664   4.623   5.202  0.2444  0.2144 -0.3812
 5526SOL    HW116898   3.731   4.674   5.255 -0.3243 -0.5570  1.1439
 5526SOL    HW216899   3.663   4.657   5.108 -0.1210  2.9976  0.5439
 5527SOL     OW16900   4.500   4.528   2.077 -0.1313 -0.0712 -0.2346
 5527SOL    HW116901   4.428   4.565   2.136 -1.9419 -1.1184 -1.6748
 5527SOL    HW216902   4.483   4.556   1.983  2.5632  1.3594 -0.3977
 5528SOL     OW16903   0.346   4.614   4.876  0.0384 -0.1775 -0.5047
 5528SOL    HW116904   0.369   4.654   4.788 -0.9017 -2.0219 -1.6557
 5528SOL    HW216905   0.396   4.528   4.888  0.4301  0.2259  0.9474
 5529SOL     OW16906   4.648   3.734   3.039  0.2464  0.0808  0.2853
 5529SOL    HW116907   4.685   3.724   3.131  1.4603  0.7205 -0.1207
 5529SOL    HW216908   4.548   3.730   3.044  0.2312  1.3133  1.7881
 5530SOL     OW16909   5.462   4.760   4.678  0.3206 -0.1678  0.4025
 5530SOL    HW116910   5.530   4.695   4.712  1.8909 -0.1460 -2.3591
 5530SOL    HW216911   5.499   4.852   4.678 -1.4112  0.6286  3.0083
 5531SOL     OW16912   2.371   0.698   1.292  0.3668  0.2247  0.3598
 5531SOL    HW116913   2.285   0.662   1.328  0.1295  1.1557  0.7530
 5531SOL    HW216914   2.435   0.713   1.367  1.0217 -0.8034  0.0338
 5532SOL     OW16915   5.413   5.125   4.009  0.4524  0.8716  0.1770
 5532SOL    HW116916   5.335   5.080   3.965 -0.1875  2.1439 -0.0551
 5532SOL    HW216917   5.382   5.209   4.054  1.4688  0.6872  1.2653
 5533SOL     OW16918   3.917   0.755   1.522  0.0366  0.0748 -0.0444
 5533SOL    HW116919   3.916   0.802   1.610 -1.1262 -0.6698  0.3689
 5533SOL    HW216920   3.898   0.821   1.449 -1.8360  0.2609  0.5463
 5534SOL     OW16921   0.729   4.826   2.675 -0.0157 -0.0655 -0.2335
 5534SOL    HW116922   0.631   4.847   2.667 -0.1871  0.5507  2.5084
 5534SOL    HW216923   0.773   4.895   2.732  1.5145 -1.6298  0.5635
 5535SOL     OW16924   4.159   4.500   4.968 -0.0669 -0.2448 -0.4854
 5535SOL    HW116925   4.185   4.458   5.055  1.7347  0.9895 -0.3839
 5535SOL    HW216926   4.061   4.485   4.952 -0.4629 -0.4079  1.7829
 5536SOL     OW16927   3.436   5.140   5.338  0.6051  0.7555  0.1845
 5536SOL    HW116928   3.532   5.150   5.364  0.7194  1.3771 -0.4614
 5536SOL    HW216929   3.421   5.046   5.305  1.0814  0.7701 -0.0830
 5537SOL     OW16930   5.172   0.167   2.722 -0.3322 -0.2516 -0.2118
 5537SOL    HW116931   5.244   0.210   2.668  1.1883 -1.3399  0.8592
 5537SOL    HW216932   5.133   0.234   2.785  1.0534 -0.0523  0.4862
 5538SOL     OW16933   5.369   4.940   0.286  0.4400  0.6839 -0.1493
 5538SOL    HW116934   5.442   4.888   0.330  0.0052  0.5970  0.4811
 5538SOL    HW216935   5.280   4.904   0.314  0.1098 -0.9827 -3.0031
 5539SOL     OW16936   5.204   4.934   4.691  0.5537  0.4200 -0.4481
 5539SOL    HW116937   5.266   4.880   4.747 -1.3568 -0.3751  1.0018
 5539SOL    HW216938   5.255   4.977   4.617  3.1728  1.3035  1.6982
 5540SOL     OW16939   3.503   0.313   4.318 -0.1772  0.2478  0.0642
 5540SOL    HW116940   3.448   0.262   4.384  0.4889 -1.8855 -0.9209
 5540SOL    HW216941   3.583   0.259   4.293  0.5165  1.7606 -1.1673
 5541SOL     OW16942   4.149   5.043   4.540 -0.2046 -0.4139  0.3041
 5541SOL    HW116943   4.192   4.954   4.527  0.2884 -0.0666 -0.5059
 5541SOL    HW216944   4.216   5.107   4.578  0.3955  0.4605 -2.0872
 5542SOL     OW16945   5.375   3.859   3.174 -0.2558 -0.0661 -0.0782
 5542SOL    HW116946   5.416   3.891   3.259  2.9345 -1.1478 -1.0454
 5542SOL    HW216947   5.425   3.899   3.097 -0.5896 -2.0305 -1.3732
 5543SOL     OW16948   2.169   5.071   4.133 -0.0997 -0.7102  0.1304
 5543SOL    HW116949   2.225   4.999   4.173  1.1607  0.0975 -0.1483
 5543SOL    HW216950   2.072   5.048   4.146  0.2747 -1.9808  0.8687
 5544SOL     OW16951   4.678   0.204   4.754  0.5476 -0.5485 -0.1787
 5544SOL    HW116952   4.596   0.152   4.729 -0.5734  1.2887 -0.5570
 5544SOL    HW216953   4.750   0.187   4.687 -0.6212  0.2110 -1.6965
 5545SOL     OW16954   0.745   5.104   0.168 -0.3971  0.7164 -0.0682
 5545SOL    HW116955   0.756   5.087   0.070 -2.2633  0.8082 -0.3278
 5545SOL    HW216956   0.829   5.145   0.204  0.4971  0.2560 -1.5103
 5546SOL     OW16957   3.550   0.040   1.203 -0.3820 -0.2144  0.5785
 5546SOL    HW116958   3.482   0.003   1.265 -0.8130 -1.5850 -0.6489
 5546SOL    HW216959   3.575  -0.030   1.135  1.8677  0.4184  0.6801
 5547SOL     OW16960   3.589   2.330   3.797  0.7219 -0.8255  0.0524
 5547SOL    HW116961   3.674   2.345   3.848  0.4795 -2.8382  1.1503
 5547SOL    HW216962   3.534   2.261   3.844 -1.5720  0.4598 -0.6096
 5548SOL     OW16963   0.052   3.744   0.373  0.8073  0.1664  0.6030
 5548SOL    HW116964   0.001   3.827   0.350  1.0746  0.0034 -0.6252
 5548SOL    HW216965   0.051   3.731   0.472  1.4043  2.0521  0.8841
 5549SOL     OW16966   4.488   0.567   3.572 -0.3611  0.2297  0.1289
 5549SOL    HW116967   4.555   0.533   3.638  0.0128  1.0976  0.2156
 5549SOL    HW216968   4.396   0.548   3.604 -0.1755  0.3965  0.7713
 5550SOL     OW16969   4.531   3.484   3.867 -0.2513  0.0900  0.0201
 5550SOL    HW116970   4.507   3.422   3.792 -0.5456  0.4231 -0.1639
 5550SOL    HW216971   4.624   3.517   3.855 -0.4102  0.3965 -0.3762
 5551SOL     OW16972   3.508   5.206   3.253 -0.1540 -0.1291 -0.1065
 5551SOL    HW116973   3.417   5.164   3.257 -1.3106  2.2806  0.9391
 5551SOL    HW216974   3.540   5.206   3.159 -2.3166  1.0086 -0.9183
 5552SOL     OW16975   4.349   5.181   5.314  0.3063 -0.8646 -0.1097
 5552SOL    HW116976   4.326   5.104   5.374 -0.5949 -1.7575 -1.5298
 5552SOL    HW216977   4.275   5.249   5.318  0.0355 -1.1287 -0.5097
 5553SOL     OW16978   3.429   5.032   3.739 -0.2044  0.0979  0.5547
 5553SOL    HW116979   3.524   4.998   3.740 -0.5045 -0.8160  2.0831
 5553SOL    HW216980   3.429   5.131   3.726  1.0169  0.1973  1.1629
 5554SOL     OW16981   4.025   5.384   3.449 -0.6165  0.3453 -0.6808
 5554SOL    HW116982   4.017   5.468   3.396 -2.0411  0.4482 -0.3230
 5554SOL    HW216983   4.057   5.310   3.389 -0.5357  0.8588 -1.2773
 5555SOL     OW16984   4.190   4.862   1.148  0.4614 -0.4975  0.2384
 5555SOL    HW116985   4.225   4.838   1.239  1.5719  1.0118  0.2443
 5555SOL    HW216986   4.176   4.961   1.143  1.0249 -0.4747 -1.4267
 5556SOL     OW16987   0.423   4.708   4.192 -0.2256  0.4075  0.2169
 5556SOL    HW116988   0.475   4.626   4.169  1.8695  1.6942  0.0396
 5556SOL    HW216989   0.394   4.754   4.108  0.0965  0.7186  0.2712
 5557SOL     OW16990   4.528   4.758   0.481 -0.0526 -0.0041 -0.1841
 5557SOL    HW116991   4.555   4.855   0.477  0.0267 -0.0621 -1.8294
 5557SOL    HW216992   4.592   4.709   0.540  0.8040  0.6787 -0.5192
 5558SOL     OW16993   5.151   3.593   0.285  0.0856 -0.0233 -0.1883
 5558SOL    HW116994   5.122   3.511   0.334 -2.4982  1.1136  0.3736
 5558SOL    HW216995   5.178   3.568   0.192 -1.5610 -1.4190 -0.3447
 5559SOL     OW16996   4.406   4.904   4.945  0.4779 -0.3828  0.1523
 5559SOL    HW116997   4.402   4.887   5.044  0.1066  1.6090  0.5223
 5559SOL    HW216998   4.382   4.820   4.896  1.3801 -1.6195  1.7206
 5560SOL     OW16999   0.369   3.331   4.941 -0.4920 -0.1222 -0.0630
 5560SOL    HW117000   0.398   3.241   4.909 -1.4523 -0.5105  0.1131
 5560SOL    HW217001   0.317   3.321   5.026 -1.4067  0.4959 -0.5308
 5561SOL     OW17002   4.657   1.460   4.538 -0.2869 -0.2466  0.9883
 5561SOL    HW117003   4.746   1.499   4.514 -1.0688  1.0494  0.0380
 5561SOL    HW217004   4.638   1.477   4.634 -0.2315  0.9992  0.7943
 5562SOL     OW17005   3.817   4.295   0.342  0.4037 -0.2006  0.2427
 5562SOL    HW117006   3.806   4.286   0.441 -0.4932 -0.1548  0.1637
 5562SOL    HW217007   3.738   4.344   0.304  1.2408  0.7166 -0.3678
 5563SOL     OW17008   4.197   4.084   4.231 -0.4072 -0.4203 -0.1771
 5563SOL    HW117009   4.215   4.069   4.133 -1.6987 -2.0427 -0.2148
 5563SOL    HW217010   4.276   4.053   4.284 -0.0303 -0.3170 -0.6602
 5564SOL     OW17011   4.663   4.997   4.318 -0.2879 -0.5208  0.4376
 5564SOL    HW117012   4.570   4.975   4.287  0.5765 -2.2357 -1.1830
 5564SOL    HW217013   4.660   5.069   4.387 -2.6863  0.7795 -0.8985
 5565SOL     OW17014   0.944   0.998   4.230 -0.4017  0.1226 -0.1080
 5565SOL    HW117015   0.972   0.943   4.309  0.0999  0.8807  0.2580
 5565SOL    HW217016   0.883   0.944   4.171 -1.1647 -0.3054  1.0319
 5566SOL     OW17017   3.131   3.771   4.585  0.0581  0.0852 -0.6846
 5566SOL    HW117018   3.096   3.714   4.511 -0.9416  0.6934 -0.6968
 5566SOL    HW217019   3.100   3.865   4.573  0.2654  0.2856  0.2607
 5567SOL     OW17020   4.527   0.568   0.308  0.3573 -1.0879 -0.0777
 5567SOL    HW117021   4.447   0.524   0.267  0.2642 -2.2944  1.3419
 5567SOL    HW217022   4.610   0.535   0.264  0.1432 -0.5701 -0.8901
 5568SOL     OW17023   2.727   4.257   0.440 -0.5655 -0.0189  0.3406
 5568SOL    HW117024   2.673   4.233   0.359  2.0315 -2.0533 -0.9401
 5568SOL    HW217025   2.704   4.195   0.515  1.3476 -2.4160 -0.8872
 5569SOL     OW17026   4.665   5.313   0.602 -0.1715  0.2230 -0.1119
 5569SOL    HW117027   4.751   5.350   0.638  1.7290 -2.6279 -1.3687
 5569SOL    HW217028   4.650   5.350   0.510  0.2085  0.0526 -0.2471
 5570SOL     OW17029   3.180   0.486   1.093  0.1696 -0.3363  0.1433
 5570SOL    HW117030   3.149   0.562   1.150  0.3908  0.1473 -0.3688
 5570SOL    HW217031   3.207   0.410   1.151  0.6007  0.2311  0.7080
 5571SOL     OW17032   3.841   3.714   0.768  0.2715  0.0692 -0.1993
 5571SOL    HW117033   3.781   3.789   0.793  0.4323  0.3894 -0.7609
 5571SOL    HW217034   3.801   3.662   0.692 -0.8151 -1.6564  1.4573
 5572SOL     OW17035   3.425   5.190   4.805 -0.0748  0.4077 -0.7082
 5572SOL    HW117036   3.375   5.164   4.888 -0.0557 -0.1087 -0.8581
 5572SOL    HW217037   3.516   5.223   4.830  1.0765 -2.4683 -0.6662
 5573SOL     OW17038   4.628   0.861   5.519 -0.6581 -0.1143  0.0302
 5573SOL    HW117039   4.688   0.888   5.444 -1.0518  0.4349 -0.0883
 5573SOL    HW217040   4.573   0.782   5.491 -0.8427  0.1223 -0.2815
 5574SOL     OW17041   4.437   4.124   4.988  0.4332 -0.0231  0.3214
 5574SOL    HW117042   4.351   4.161   4.953 -0.3481 -1.0319  1.1040
 5574SOL    HW217043   4.489   4.197   5.031  0.1809  0.6931 -0.5529
 5575SOL     OW17044   4.274   4.408   3.966  0.4544  0.2520 -0.6160
 5575SOL    HW117045   4.210   4.345   3.922  0.3615  0.4929 -0.8273
 5575SOL    HW217046   4.363   4.364   3.975  0.7588  0.5450 -1.9673
 5576SOL     OW17047   5.156   3.141   3.685 -0.1731  0.6398 -0.3289
 5576SOL    HW117048   5.183   3.231   3.720 -1.0347  1.4496 -1.6740
 5576SOL    HW217049   5.148   3.144   3.586 -1.3451 -0.6146 -0.3086
 5577SOL     OW17050   0.338   2.483   5.452  0.2272  0.2839 -0.3404
 5577SOL    HW117051   0.311   2.461   5.546  1.2890 -1.0543 -0.3094
 5577SOL    HW217052   0.309   2.409   5.391  0.0382  0.8774 -0.9730
 5578SOL     OW17053   3.569   1.403   4.876 -0.1701 -0.3770 -0.0667
 5578SOL    HW117054   3.609   1.313   4.892  0.6383 -0.1098 -0.5306
 5578SOL    HW217055   3.482   1.393   4.828 -0.8212 -0.9789  1.2063
 5579SOL     OW17056   4.516   1.655   3.413  0.0320 -0.2638 -0.0769
 5579SOL    HW117057   4.534   1.617   3.504 -1.3854 -1.7512 -0.3716
 5579SOL    HW217058   4.552   1.594   3.343 -0.6513 -0.1397 -0.5453
 5580SOL     OW17059   4.634   3.699   3.442 -0.3037  0.1966 -0.0520
 5580SOL    HW117060   4.607   3.606   3.469  0.4597 -0.2704 -0.8506
 5580SOL    HW217061   4.681   3.743   3.518 -0.4990 -0.1441  0.2714
 5581SOL     OW17062   4.221   4.239   4.903 -0.1600  0.4564 -0.6649
 5581SOL    HW117063   4.147   4.193   4.951  0.2565  0.1807 -0.2717
 5581SOL    HW217064   4.198   4.335   4.889 -1.9321 -0.2638 -3.3089
 5582SOL     OW17065   4.442   4.880   4.141 -0.2645 -0.1810 -0.0846
 5582SOL    HW117066   4.483   4.791   4.124  1.1051  0.3987  0.0246
 5582SOL    HW217067   4.343   4.871   4.144 -0.2325 -1.4407 -1.5465
 5583SOL     OW17068   3.431   0.040   0.471  0.1287 -0.0837  0.2797
 5583SOL    HW117069   3.494   0.111   0.440 -0.7624 -0.1426 -1.8548
 5583SOL    HW217070   3.459  -0.048   0.433 -1.4579 -0.0324 -1.1304
 5584SOL     OW17071   2.567   0.307   5.183 -0.1025  0.4565 -0.3209
 5584SOL    HW117072   2.507   0.331   5.106 -0.0399 -1.1565 -0.9001
 5584SOL    HW217073   2.517   0.320   5.269 -1.1390 -0.3651 -0.7667
 5585SOL     OW17074   3.769   0.937   0.391  0.3281  0.8694  0.4572
 5585SOL    HW117075   3.785   1.015   0.330  1.3297  1.1378  1.0405
 5585SOL    HW217076   3.806   0.957   0.482  0.5236 -0.2490  0.6416
 5586SOL     OW17077   0.647   1.911   2.473 -0.3436  0.5468 -0.5113
 5586SOL    HW117078   0.575   1.972   2.506 -0.5463  0.3416 -0.5770
 5586SOL    HW217079   0.624   1.817   2.496 -0.1705  0.4668 -0.6688
 5587SOL     OW17080   3.931   0.084   3.878 -0.1291 -0.2451  0.0121
 5587SOL    HW117081   3.897   0.016   3.943  0.0942  0.0626  0.4576
 5587SOL    HW217082   3.858   0.109   3.815 -0.6388  0.1567  0.7454
 5588SOL     OW17083   4.253   5.274   3.857  0.2663 -0.2833  0.9815
 5588SOL    HW117084   4.237   5.358   3.909  1.2662  0.3336  0.3054
 5588SOL    HW217085   4.181   5.264   3.788 -0.0994 -0.2205  1.3462
 5589SOL     OW17086   2.997   3.278   3.650 -0.0581  0.4326  0.4744
 5589SOL    HW117087   2.914   3.332   3.636 -1.4927 -2.0655 -1.7060
 5589SOL    HW217088   3.033   3.250   3.561  2.0954 -0.1009  1.4527
 5590SOL     OW17089   4.896   4.708   2.869  0.2541  0.4350  0.3498
 5590SOL    HW117090   4.833   4.696   2.945  0.6941  2.3511  1.0624
 5590SOL    HW217091   4.905   4.805   2.847  1.6210  0.0711 -0.8860
 5591SOL     OW17092   4.732   4.965   3.810  0.1141  0.3004 -0.0171
 5591SOL    HW117093   4.735   5.058   3.846 -2.5751  1.1343 -1.6276
 5591SOL    HW217094   4.740   4.899   3.885  0.4735  1.8270  1.3350
 5592SOL     OW17095   0.229   4.462   5.098  0.2582  0.3386  0.6747
 5592SOL    HW117096   0.251   4.510   5.013  0.7107  0.4261  0.8369
 5592SOL    HW217097   0.287   4.497   5.172  0.2192 -0.0855  0.9098
 5593SOL     OW17098   4.397   0.444   2.704 -0.7905 -0.0990  0.0170
 5593SOL    HW117099   4.470   0.485   2.759 -1.6756  1.2374  0.2476
 5593SOL    HW217100   4.397   0.485   2.613  0.2837 -1.8699 -0.8106
 5594SOL     OW17101   5.035   4.614   1.443  0.2819  0.4486  0.3737
 5594SOL    HW117102   5.119   4.604   1.497  1.4442  2.2110 -1.0218
 5594SOL    HW217103   5.052   4.582   1.350 -0.3819  1.4242 -0.0933
 5595SOL     OW17104   1.121   4.241   2.864 -0.1404  0.0150 -0.6793
 5595SOL    HW117105   1.162   4.251   2.774 -0.4113 -0.1930 -0.8262
 5595SOL    HW217106   1.063   4.159   2.866 -0.0038 -0.0792 -0.2691
 5596SOL     OW17107  -0.026   4.522   5.026  0.1396  0.7751  0.3733
 5596SOL    HW117108   0.061   4.489   5.064  0.8843  1.9634 -0.2487
 5596SOL    HW217109  -0.020   4.524   4.926 -0.7644  0.4669  0.2993
 5597SOL     OW17110   0.949   2.615   2.588  0.3602 -0.3516 -0.1143
 5597SOL    HW117111   0.981   2.682   2.521 -0.3726  0.5913  0.4606
 5597SOL    HW217112   0.855   2.636   2.613 -0.1826 -2.1012 -0.5488
 5598SOL     OW17113   3.650   3.689   3.792 -0.3411  0.0459 -0.0635
 5598SOL    HW117114   3.614   3.602   3.760  2.0676 -0.5204 -1.4372
 5598SOL    HW217115   3.723   3.674   3.859  0.2943  0.9719 -0.5157
 5599SOL     OW17116   4.443   0.495   3.318  0.4783  0.5972 -0.3114
 5599SOL    HW117117   4.468   0.532   3.407 -2.2125 -0.9766  1.2329
 5599SOL    HW217118   4.461   0.397   3.316  1.2780  0.7369 -1.8694
 5600NA      NA17119   1.582   5.391   2.346  0.3905 -0.1046 -0.4086
 5601NA      NA17120   2.179   1.483   2.269  0.2725 -0.0624 -0.2997
 5602NA      NA17121   0.196   1.961   0.953 -0.2041  0.1653  0.1307
 5603NA      NA17122   1.356   1.786   0.039 -0.5164 -0.1778 -0.1503
 5604NA      NA17123   2.082   3.074   0.585 -0.0822 -0.3230 -0.1906
 5605NA      NA17124   0.194   0.008   2.802  0.0679  0.2814 -0.1107
 5606NA      NA17125   1.632   3.917   2.520 -0.0860 -0.3203  0.4436
 5607NA      NA17126   4.960   0.024   5.046 -0.2017  0.4816 -0.0458
 5608NA      NA17127   3.152   5.226   3.972  0.6864 -0.8584 -0.0733
 5609NA      NA17128   2.277   4.019   4.921 -0.2029 -0.1982 -0.0177
 5610NA      NA17129   4.472   3.106   3.240 -0.1672  0.1070  0.4608
 5611NA      NA17130   4.983   1.587   2.758  0.0068  0.1748 -0.5031
 5612NA      NA17131   0.402   3.422   2.722 -0.2873 -0.2373 -0.5074
 5613NA      NA17132   4.361   3.283   5.120 -0.3876 -0.1729 -0.7570
 5614NA      NA17133   3.897   5.363   0.236  0.0459 -0.1936  0.0044
 5615NA      NA17134   0.182   2.862   3.896  0.6324  0.1502 -0.0615
 5616CL      CL17135   1.093   2.854   2.371  0.2882 -0.0938  0.2839
 5617CL      CL17136   1.116   3.339   0.223  0.1595  0.0434  0.1917
 5618CL      CL17137   1.028   4.014   2.098 -0.3543  0.0502 -0.3496
 5619CL      CL17138   1.070   5.239   2.760  0.1429  0.1590  0.1788
 5620CL      CL17139   3.009   4.771   5.250 -0.1862 -0.1186  1.0688
 5621CL      CL17140   1.755   5.159   4.517  0.1827  0.2000  0.7420
 5622CL      CL17141   3.546   0.875   1.922  0.0618 -0.2222 -0.0695
 5623CL      CL17142   2.540   3.472   3.462 -0.0717 -0.2466  0.1688
 5624CL      CL17143   3.707   5.204   0.157 -0.0387 -0.0806  0.0436
 5625CL      CL17144   0.400   3.008   4.034  0.2959  0.1029 -0.0800
 5626CL      CL17145   4.103   5.485   0.084 -0.0379  0.0858  0.1266
 5627CL      CL17146   0.217   2.845   1.391  0.0542  0.3402  0.1005
 5628CL      CL17147   3.770   3.146   5.338 -0.1460 -0.2833 -0.1398
 5629CL      CL17148   3.735   4.919   3.761 -0.3230 -0.1265 -0.2747
 5630CL      CL17149   0.409   1.943   3.416 -0.3269 -0.4030  0.2166
 5631CL      CL17150   4.065   4.265   0.952 -0.0633  0.0748 -0.2029
   5.55121   5.55121   5.55121
