Protein in water
17150
    1LEU      N    1   3.237   3.382   1.375 -0.6820  0.5383 -0.1331
    1LEU     H1    2   3.177   3.452   1.334  1.6284  0.6441 -3.7639
    1LEU     H2    3   3.309   3.361   1.308 -2.1833 -2.0082 -1.1295
    1LEU     H3    4   3.185   3.297   1.395 -0.2119 -0.0244 -1.2560
    1LEU     CA    5   3.286   3.433   1.504  0.2260 -0.8356  0.2395
    1LEU     HA    6   3.371   3.368   1.525 -0.1364 -2.6183 -3.2071
    1LEU     CB    7   3.352   3.568   1.492 -0.0917  0.2688  0.3150
    1LEU    HB1    8   3.298   3.633   1.561 -0.7929 -0.2574  0.2648
    1LEU    HB2    9   3.342   3.611   1.392  1.0357 -2.0194 -0.8563
    1LEU     CG   10   3.504   3.566   1.537  0.1741  1.0659 -0.0030
    1LEU     HG   11   3.563   3.506   1.468 -0.3240  0.2932  0.2357
    1LEU    CD1   12   3.569   3.704   1.545  0.4240  0.0192  0.0672
    1LEU   HD11   13   3.678   3.697   1.539  0.5154  1.7200 -1.2517
    1LEU   HD12   14   3.527   3.766   1.465 -0.7761 -0.1740  0.5312
    1LEU   HD13   15   3.546   3.754   1.639  0.1945  1.4037 -0.6995
    1LEU    CD2   16   3.511   3.501   1.679 -0.0744  0.2646 -0.1348
    1LEU   HD21   17   3.418   3.521   1.733 -1.5721 -0.5007 -2.3081
    1LEU   HD22   18   3.533   3.394   1.677  1.6483  0.5636  0.9167
    1LEU   HD23   19   3.589   3.541   1.744 -0.8858  0.6572  0.6218
    1LEU      C   20   3.183   3.426   1.613 -0.7017  0.3731 -0.0668
    1LEU      O   21   3.198   3.342   1.701 -0.1717  0.4284  0.5455
    2ILE      N   22   3.074   3.506   1.597  0.2386 -0.3325  0.0405
    2ILE      H   23   3.081   3.567   1.517  0.8627  1.2858  1.2806
    2ILE     CA   24   2.956   3.500   1.683 -1.2576 -1.1126  0.1408
    2ILE     HA   25   2.973   3.549   1.779 -1.9074 -1.6628  0.5487
    2ILE     CB   26   2.849   3.574   1.603  0.0281  0.3675 -0.3107
    2ILE     HB   27   2.835   3.535   1.503  0.2441 -0.6198  0.0341
    2ILE    CG2   28   2.705   3.568   1.661  0.1010  0.3711 -0.2718
    2ILE   HG21   29   2.705   3.624   1.754 -0.1338  1.4262 -0.8887
    2ILE   HG22   30   2.636   3.611   1.589  0.4646 -0.2850 -1.0295
    2ILE   HG23   31   2.680   3.464   1.682  1.1284  0.3673  1.0571
    2ILE    CG1   32   2.893   3.721   1.575  0.2140  0.6586 -0.1068
    2ILE   HG11   33   2.988   3.727   1.521  0.3179 -1.1995 -0.1890
    2ILE   HG12   34   2.918   3.769   1.670  2.5247  1.6228 -1.1300
    2ILE     CD   35   2.792   3.807   1.504  0.1658 -0.1512  0.3136
    2ILE    HD1   36   2.841   3.904   1.497 -0.4241  0.1310 -0.0320
    2ILE    HD2   37   2.768   3.774   1.403 -0.8981 -1.1537  0.8727
    2ILE    HD3   38   2.712   3.820   1.576  0.8548  0.1615  1.0384
    2ILE      C   39   2.920   3.365   1.733  0.2951 -0.5167 -0.0475
    2ILE      O   40   2.902   3.352   1.854 -0.1404  0.1288 -0.3055
    3LEU      N   41   2.900   3.264   1.647 -0.1120  0.4350 -0.2089
    3LEU      H   42   2.916   3.286   1.550  2.0156  0.1160  0.0206
    3LEU     CA   43   2.847   3.133   1.689  0.2958 -0.4764  0.3834
    3LEU     HA   44   2.757   3.154   1.748  0.3774  1.5113 -0.1500
    3LEU     CB   45   2.811   3.050   1.568 -0.1474  0.0752  0.6336
    3LEU    HB1   46   2.826   2.947   1.601  3.1542  0.2652  0.0652
    3LEU    HB2   47   2.886   3.074   1.493  1.2561 -2.4604  1.1293
    3LEU     CG   48   2.669   3.065   1.504  0.4816 -0.4630 -0.3819
    3LEU     HG   49   2.656   3.173   1.500  0.0765 -0.5154 -0.5849
    3LEU    CD1   50   2.666   3.021   1.353  0.9059 -0.1422 -0.9803
    3LEU   HD11   51   2.560   3.013   1.328  0.8688  0.3512 -0.9935
    3LEU   HD12   52   2.709   3.104   1.297  0.0711  1.1791  0.2781
    3LEU   HD13   53   2.713   2.923   1.341 -0.6944 -1.1551  0.4953
    3LEU    CD2   54   2.555   3.007   1.603 -0.1437 -0.1438  0.3725
    3LEU   HD21   55   2.590   3.007   1.707  2.0138  0.8502 -0.3044
    3LEU   HD22   56   2.462   3.064   1.594 -0.2867 -0.3888  0.2882
    3LEU   HD23   57   2.537   2.905   1.569  0.2534  0.0478 -0.4428
    3LEU      C   58   2.952   3.055   1.775 -0.0327 -0.4170  0.4173
    3LEU      O   59   2.912   2.981   1.866 -0.2649 -0.3592 -0.0147
    4LEU      N   60   3.080   3.079   1.755 -0.3258 -0.4273 -0.3706
    4LEU      H   61   3.104   3.144   1.682 -2.1449  0.7504  0.0170
    4LEU     CA   62   3.186   3.027   1.841  0.0311 -0.2403  0.1457
    4LEU     HA   63   3.166   2.920   1.843  1.2165 -0.4714  1.8658
    4LEU     CB   64   3.326   3.046   1.788 -0.6229  0.1012 -0.1748
    4LEU    HB1   65   3.372   3.138   1.825  1.1477 -0.9625  0.3715
    4LEU    HB2   66   3.323   3.053   1.680  0.7921 -0.1265 -0.2427
    4LEU     CG   67   3.431   2.940   1.836 -0.8238 -1.1631  0.4835
    4LEU     HG   68   3.389   2.841   1.820 -0.9057 -0.9087 -1.0313
    4LEU    CD1   69   3.550   2.967   1.737 -0.4951  0.2222 -0.2118
    4LEU   HD11   70   3.522   2.951   1.633 -1.7303  1.2709 -0.0621
    4LEU   HD12   71   3.580   3.072   1.737 -3.8465  1.3195 -1.8208
    4LEU   HD13   72   3.631   2.894   1.747 -0.9772 -0.1474  1.2023
    4LEU    CD2   73   3.477   2.959   1.974  0.0693  0.3634 -0.3125
    4LEU   HD21   74   3.497   3.060   2.012 -2.4624  0.1090  2.0782
    4LEU   HD22   75   3.401   2.912   2.037  0.2715  0.4713  0.0132
    4LEU   HD23   76   3.570   2.907   1.993 -0.5334 -0.4315  0.5833
    4LEU      C   77   3.165   3.071   1.987  0.1057  0.0500 -0.4152
    4LEU      O   78   3.155   2.988   2.077 -0.9223  0.0170  0.2965
    5VAL      N   79   3.159   3.207   2.008  0.1491 -0.6671  0.1058
    5VAL      H   80   3.170   3.265   1.926 -0.1900 -0.8669 -0.0829
    5VAL     CA   81   3.120   3.280   2.131  0.3990 -0.4217 -0.4714
    5VAL     HA   82   3.197   3.265   2.206  0.2607  0.0441 -0.2353
    5VAL     CB   83   3.104   3.432   2.112  0.2865  0.0781  0.2616
    5VAL     HB   84   3.014   3.451   2.053  1.9755 -0.7319 -2.8083
    5VAL    CG1   85   3.100   3.508   2.244 -0.8464 -0.6674  0.2350
    5VAL   HG11   86   3.104   3.615   2.225 -1.1808 -0.7139 -0.1084
    5VAL   HG12   87   3.010   3.487   2.303  0.1349 -1.8143  1.3919
    5VAL   HG13   88   3.188   3.478   2.301  1.3627  1.8588 -1.6375
    5VAL    CG2   89   3.226   3.490   2.036  0.1244  0.2685  0.4343
    5VAL   HG21   90   3.244   3.449   1.937 -2.8105  2.5727 -1.2299
    5VAL   HG22   91   3.191   3.590   2.010  0.3351 -0.0750 -1.2300
    5VAL   HG23   92   3.320   3.488   2.090  0.0524 -0.4831  0.5451
    5VAL      C   93   2.998   3.222   2.197  0.1701  0.8487  0.7146
    5VAL      O   94   3.004   3.183   2.308  0.0662 -0.0578  0.0601
    6LEU      N   95   2.891   3.213   2.124  0.3446  0.6807 -0.2876
    6LEU      H   96   2.902   3.250   2.031 -0.5937  1.9849  0.0948
    6LEU     CA   97   2.758   3.177   2.169 -0.5023 -0.1999  0.1852
    6LEU     HA   98   2.721   3.248   2.242  2.1870 -1.8902  3.5035
    6LEU     CB   99   2.664   3.185   2.048 -0.5070  0.3845 -0.1298
    6LEU    HB1  100   2.687   3.112   1.971  1.2367  1.3864 -0.6238
    6LEU    HB2  101   2.675   3.278   1.993  0.2264  0.4973  0.1928
    6LEU     CG  102   2.519   3.177   2.090  0.4154  0.4956  0.2987
    6LEU     HG  103   2.497   3.222   2.187 -0.1250  2.8447 -0.8445
    6LEU    CD1  104   2.433   3.243   1.984  0.2872  0.4836  0.6831
    6LEU   HD11  105   2.465   3.206   1.886  2.9593 -1.8565  2.3209
    6LEU   HD12  106   2.329   3.217   2.005 -0.0772  0.5075 -0.9488
    6LEU   HD13  107   2.436   3.352   1.988  0.8392  0.6919 -2.5721
    6LEU    CD2  108   2.458   3.027   2.095 -0.0268 -1.0526  1.1846
    6LEU   HD21  109   2.351   3.022   2.117 -0.5468  0.6321 -0.6236
    6LEU   HD22  110   2.483   2.973   2.004 -1.0459 -0.4179  0.5049
    6LEU   HD23  111   2.514   2.994   2.182  3.2639  0.7528 -0.0791
    6LEU      C  112   2.758   3.039   2.229  0.5219 -0.0088  0.6154
    6LEU      O  113   2.706   3.027   2.336  0.5374 -0.7336 -0.6487
    7VAL      N  114   2.801   2.941   2.156 -0.1159 -0.2959 -0.1641
    7VAL      H  115   2.836   2.976   2.068  2.8024  1.2318  1.4460
    7VAL     CA  116   2.818   2.802   2.178 -0.3068 -0.3193 -0.6224
    7VAL     HA  117   2.723   2.758   2.208 -0.7495  0.5594 -0.7272
    7VAL     CB  118   2.859   2.716   2.055  0.6517 -0.0718 -0.2747
    7VAL     HB  119   2.953   2.758   2.020  0.9324 -0.0790  0.4684
    7VAL    CG1  120   2.881   2.570   2.087 -0.4605 -0.0970  0.3992
    7VAL   HG11  121   2.910   2.515   1.997  0.4005 -2.4439  1.9951
    7VAL   HG12  122   2.963   2.569   2.160  0.1465  0.2034 -0.2698
    7VAL   HG13  123   2.799   2.515   2.134 -0.3463 -2.6033 -2.0844
    7VAL    CG2  124   2.738   2.725   1.955 -0.2821  0.2704 -0.5679
    7VAL   HG21  125   2.772   2.684   1.860  0.6796  0.9494 -0.5400
    7VAL   HG22  126   2.650   2.678   1.998 -1.3172  1.1913 -1.5885
    7VAL   HG23  127   2.720   2.832   1.942  2.3915  0.7591 -0.8257
    7VAL      C  128   2.912   2.790   2.295  0.7141  0.3682 -0.3185
    7VAL      O  129   2.881   2.714   2.387 -0.1750  0.4434 -0.5967
    8LEU      N  130   3.020   2.862   2.304 -0.2031 -0.0375  0.1945
    8LEU      H  131   3.033   2.915   2.219 -1.2073 -1.7621 -1.1099
    8LEU     CA  132   3.113   2.862   2.415  0.1885  0.2612  0.3858
    8LEU     HA  133   3.144   2.759   2.431  1.4918  1.0110  3.5273
    8LEU     CB  134   3.234   2.953   2.392 -0.5194 -0.1035  0.5122
    8LEU    HB1  135   3.200   3.053   2.365 -0.4486 -0.5121 -1.1842
    8LEU    HB2  136   3.281   2.908   2.304  0.2758 -1.4343  1.5819
    8LEU     CG  137   3.350   2.954   2.494  0.5664  0.2460  1.2738
    8LEU     HG  138   3.368   2.848   2.509 -1.2134 -0.2334  0.3180
    8LEU    CD1  139   3.476   2.999   2.431 -0.4555 -0.2570 -0.1087
    8LEU   HD11  140   3.460   3.091   2.374  0.6975 -0.8152 -1.3627
    8LEU   HD12  141   3.551   3.001   2.510 -1.3538 -0.0169  0.7741
    8LEU   HD13  142   3.522   2.927   2.364  0.3946  0.8919 -0.7813
    8LEU    CD2  143   3.327   3.021   2.631  0.0590  0.7984  0.1749
    8LEU   HD21  144   3.287   3.122   2.621 -0.5526  0.6735  1.2367
    8LEU   HD22  145   3.275   2.948   2.692  2.2935 -0.9425  0.1265
    8LEU   HD23  146   3.425   3.032   2.678 -0.5905 -2.4776  2.6122
    8LEU      C  147   3.042   2.900   2.539 -0.0154  0.1722  0.2998
    8LEU      O  148   3.057   2.835   2.642  0.2991 -0.5857  0.2809
    9ILE      N  149   2.947   3.002   2.535 -0.0639 -0.2062  0.3583
    9ILE      H  150   2.947   3.056   2.449 -0.9251 -2.1328 -0.9344
    9ILE     CA  151   2.867   3.047   2.647  0.3887  0.6865  0.0055
    9ILE     HA  152   2.930   3.065   2.735  0.1213  0.2213  0.2953
    9ILE     CB  153   2.804   3.188   2.610 -0.2556 -0.4905  0.1283
    9ILE     HB  154   2.752   3.183   2.515 -1.3107  0.5350  0.6238
    9ILE    CG2  155   2.711   3.245   2.723  0.3966  0.1490 -0.1177
    9ILE   HG21  156   2.627   3.182   2.751 -0.7867  2.0282  0.7452
    9ILE   HG22  157   2.761   3.273   2.816 -0.4084  1.4045 -0.0478
    9ILE   HG23  158   2.656   3.329   2.680 -1.8482  0.3288  2.8138
    9ILE    CG1  159   2.923   3.295   2.611  0.5211  0.8494 -0.4447
    9ILE   HG11  160   2.997   3.256   2.541 -1.3532 -1.2162 -1.4187
    9ILE   HG12  161   2.973   3.287   2.707 -1.2642 -1.2866  0.3890
    9ILE     CD  162   2.888   3.439   2.566  0.1410 -0.3813  0.0182
    9ILE    HD1  163   2.809   3.489   2.622  0.5372 -0.7053  0.8869
    9ILE    HD2  164   2.978   3.500   2.565 -0.4175  0.5375 -2.3230
    9ILE    HD3  165   2.861   3.433   2.461  1.1578 -1.4128 -0.2115
    9ILE      C  166   2.756   2.947   2.690 -0.8791 -0.2121  0.5030
    9ILE      O  167   2.735   2.932   2.806 -0.3790  0.8051  0.2553
   10VAL      N  168   2.698   2.875   2.595  0.5366 -0.3297  0.4124
   10VAL      H  169   2.725   2.901   2.501  0.5125 -1.1538  0.1675
   10VAL     CA  170   2.602   2.769   2.614  0.5347  0.1853  0.6957
   10VAL     HA  171   2.513   2.805   2.665  0.8808 -1.5464  2.6630
   10VAL     CB  172   2.550   2.711   2.479  0.3693  0.6418 -0.8241
   10VAL     HB  173   2.639   2.687   2.420 -0.0906 -2.5379 -0.4280
   10VAL    CG1  174   2.469   2.576   2.486  0.2768  0.0653 -0.2356
   10VAL   HG11  175   2.400   2.572   2.401  1.3779 -2.4330 -1.0990
   10VAL   HG12  176   2.539   2.493   2.483  1.9084  1.2772  1.8691
   10VAL   HG13  177   2.406   2.583   2.574  0.7465  0.7553  0.0562
   10VAL    CG2  178   2.471   2.813   2.399  0.1843  0.1563 -0.3366
   10VAL   HG21  179   2.488   2.800   2.292 -1.6309  0.5175 -0.7095
   10VAL   HG22  180   2.364   2.795   2.409  0.2685 -0.2217 -0.0932
   10VAL   HG23  181   2.499   2.915   2.426  0.5028  0.2676 -1.0637
   10VAL      C  182   2.663   2.657   2.697 -0.4426 -1.1472  0.0444
   10VAL      O  183   2.602   2.625   2.793  0.3111 -0.5528 -0.7305
   11VAL      N  184   2.781   2.610   2.661 -0.2087  0.0852  0.2303
   11VAL      H  185   2.823   2.646   2.577 -0.1387 -2.5407 -0.9752
   11VAL     CA  186   2.851   2.510   2.742 -0.2995  0.1455  0.0183
   11VAL     HA  187   2.782   2.427   2.752  2.3702 -2.4197 -1.3187
   11VAL     CB  188   2.974   2.454   2.670 -0.4374  0.3280  0.0323
   11VAL     HB  189   3.043   2.535   2.646 -0.3201 -0.5210 -2.8654
   11VAL    CG1  190   3.054   2.342   2.745  0.0833 -0.3096 -0.5210
   11VAL   HG11  191   3.144   2.318   2.689  1.6397  2.0184  0.8278
   11VAL   HG12  192   3.068   2.374   2.848 -2.6955 -0.4473 -0.0108
   11VAL   HG13  193   2.998   2.249   2.754  0.3031 -0.4120 -0.2006
   11VAL    CG2  194   2.946   2.388   2.534  0.0141  0.7034 -0.4928
   11VAL   HG21  195   2.901   2.460   2.465  0.7710  0.5068 -1.2120
   11VAL   HG22  196   3.040   2.375   2.481 -0.5024 -0.4318 -1.2089
   11VAL   HG23  197   2.884   2.298   2.540 -0.1930  0.8997  0.4607
   11VAL      C  198   2.887   2.565   2.884 -0.3126  0.2415  0.0102
   11VAL      O  199   2.863   2.496   2.981 -0.1152  0.4629 -0.5051
   12VAL      N  200   2.927   2.690   2.893 -0.0508 -0.1297 -0.3140
   12VAL      H  201   2.932   2.744   2.808 -1.4204  0.6976  0.0936
   12VAL     CA  202   2.941   2.758   3.028 -0.6687  0.4771 -1.2499
   12VAL     HA  203   3.005   2.698   3.092 -2.1284  0.8196  0.6118
   12VAL     CB  204   2.998   2.898   3.019  0.1424 -1.0749 -0.3752
   12VAL     HB  205   2.941   2.954   2.946 -1.0695 -1.9710 -0.1508
   12VAL    CG1  206   3.012   2.973   3.156  0.2596 -0.6283  0.3754
   12VAL   HG11  207   2.910   2.995   3.188  0.4202 -1.9682  1.9428
   12VAL   HG12  208   3.065   2.915   3.232  0.1667 -0.2853  0.7024
   12VAL   HG13  209   3.070   3.063   3.137 -0.8594 -0.4540 -2.7825
   12VAL    CG2  210   3.137   2.888   2.966  0.3701  1.2253 -0.2541
   12VAL   HG21  211   3.158   2.975   2.904  2.8225  0.6320 -0.3415
   12VAL   HG22  212   3.211   2.880   3.046 -2.0613 -0.4021  2.0373
   12VAL   HG23  213   3.138   2.807   2.894 -0.9968  0.8008  0.1614
   12VAL      C  214   2.811   2.746   3.109 -0.2954 -0.2187 -0.0800
   12VAL      O  215   2.811   2.700   3.224 -0.5281  0.1364  0.6234
   13LEU      N  216   2.702   2.795   3.056  0.0019 -0.1142 -0.2275
   13LEU      H  217   2.701   2.813   2.957 -4.1486  0.2658 -0.2848
   13LEU     CA  218   2.576   2.805   3.119  0.3985  0.2946 -0.2578
   13LEU     HA  219   2.582   2.861   3.212  0.0491 -0.0019 -0.0508
   13LEU     CB  220   2.482   2.880   3.028  0.3241  0.4175  0.3241
   13LEU    HB1  221   2.381   2.851   3.060  0.4754 -0.4138  0.0676
   13LEU    HB2  222   2.486   2.850   2.923  1.1503 -1.1077  0.7784
   13LEU     CG  223   2.489   3.037   3.030  0.4347  0.2723  0.2390
   13LEU     HG  224   2.592   3.069   3.013  0.9550 -1.5967 -0.3217
   13LEU    CD1  225   2.398   3.088   2.919 -0.8352 -1.0265  0.1777
   13LEU   HD11  226   2.387   3.195   2.931 -0.0983 -0.7580 -1.3089
   13LEU   HD12  227   2.442   3.076   2.820 -0.1165 -1.0379  0.4920
   13LEU   HD13  228   2.302   3.035   2.918 -0.2687 -2.1287 -1.5652
   13LEU    CD2  229   2.435   3.080   3.164 -0.2086  0.3318  0.1475
   13LEU   HD21  230   2.336   3.039   3.183  0.0817  0.1536  1.3837
   13LEU   HD22  231   2.506   3.050   3.242 -0.7188 -0.6406  0.2492
   13LEU   HD23  232   2.436   3.188   3.169 -0.0663  0.3406 -0.0528
   13LEU      C  233   2.514   2.664   3.147  0.1743  0.3815 -0.7666
   13LEU      O  234   2.438   2.652   3.251  0.1963 -0.1460  0.1243
   14VAL      N  235   2.544   2.558   3.067  0.8693 -0.2542 -0.2942
   14VAL      H  236   2.608   2.568   2.989 -0.0556  1.2014 -0.9010
   14VAL     CA  237   2.507   2.424   3.099  0.3411 -0.2410  0.2004
   14VAL     HA  238   2.403   2.421   3.133 -0.3685 -0.3363 -1.8389
   14VAL     CB  239   2.515   2.341   2.970 -0.0902 -0.3619  0.5229
   14VAL     HB  240   2.611   2.368   2.927 -0.4941  0.9179  0.3821
   14VAL    CG1  241   2.520   2.189   3.004 -0.8084  0.9833 -0.1260
   14VAL   HG11  242   2.490   2.129   2.918  2.0201  0.2538 -0.7047
   14VAL   HG12  243   2.622   2.180   3.040 -0.6586  0.9049 -0.5622
   14VAL   HG13  244   2.450   2.173   3.086  0.4699 -2.4718  0.4538
   14VAL    CG2  245   2.413   2.370   2.860 -0.0369  0.2045 -0.4016
   14VAL   HG21  246   2.308   2.356   2.886 -0.1296  1.5226  0.0222
   14VAL   HG22  247   2.419   2.477   2.841 -0.4310  0.3486  0.2613
   14VAL   HG23  248   2.432   2.305   2.774  1.7613 -0.7255  0.6508
   14VAL      C  249   2.593   2.369   3.214 -0.2208  0.8132 -0.8248
   14VAL      O  250   2.531   2.325   3.315  0.3283 -0.4949  0.4872
   15LEU      N  251   2.724   2.384   3.219 -0.3507 -0.2224  0.0507
   15LEU      H  252   2.769   2.421   3.136  0.1152  0.4913  0.6068
   15LEU     CA  253   2.821   2.341   3.321  0.1305 -0.0482 -0.8385
   15LEU     HA  254   2.810   2.234   3.344 -0.1121  0.6637  3.0628
   15LEU     CB  255   2.961   2.359   3.266 -0.0814  0.1000 -0.8675
   15LEU    HB1  256   3.026   2.351   3.354 -0.5536  0.5107 -0.4718
   15LEU    HB2  257   2.981   2.460   3.230  2.9181  0.0958  0.4191
   15LEU     CG  258   3.019   2.255   3.171  0.2930 -0.3555  0.0558
   15LEU     HG  259   2.968   2.268   3.076  0.1092  2.9554  0.5010
   15LEU    CD1  260   3.170   2.290   3.143  0.3421 -0.1687 -0.6812
   15LEU   HD11  261   3.209   2.242   3.053  1.4615 -0.5966  0.0103
   15LEU   HD12  262   3.182   2.396   3.120  1.7097  0.1919  1.4516
   15LEU   HD13  263   3.225   2.270   3.235 -1.5875  0.2889  0.6169
   15LEU    CD2  264   3.012   2.117   3.227 -0.5252  0.3116 -0.4175
   15LEU   HD21  265   2.909   2.096   3.254 -1.2527  1.0653 -2.3752
   15LEU   HD22  266   3.043   2.053   3.144  0.6143 -0.3757  0.5158
   15LEU   HD23  267   3.080   2.114   3.312 -0.0718 -0.6289 -0.8091
   15LEU      C  268   2.791   2.406   3.456 -0.5913 -0.5064  0.4001
   15LEU      O  269   2.792   2.335   3.553 -0.2539  0.3672 -0.3441
   16LEU      N  270   2.777   2.536   3.471 -0.0064  0.0805  0.2141
   16LEU      H  271   2.806   2.589   3.391  0.7388  0.6290  0.8298
   16LEU     CA  272   2.729   2.605   3.590 -0.7219 -0.3944  0.3649
   16LEU     HA  273   2.803   2.587   3.668  0.7255 -1.8113 -1.2735
   16LEU     CB  274   2.722   2.757   3.556 -0.0398 -0.1100  0.2469
   16LEU    HB1  275   2.624   2.778   3.513  0.2065 -0.3875 -0.4718
   16LEU    HB2  276   2.799   2.786   3.484 -0.6686  0.0499 -0.3717
   16LEU     CG  277   2.749   2.861   3.665 -0.4329  0.5239 -0.0290
   16LEU     HG  278   2.849   2.840   3.702 -1.3446 -1.5196  1.5161
   16LEU    CD1  279   2.750   3.010   3.614 -0.2782  0.5034  0.2470
   16LEU   HD11  280   2.774   3.087   3.688 -1.3800  0.0310  1.1187
   16LEU   HD12  281   2.814   3.018   3.526 -2.9022  2.7192 -1.6211
   16LEU   HD13  282   2.652   3.033   3.574 -0.1347  1.1440  0.2532
   16LEU    CD2  283   2.657   2.856   3.788 -0.3423  0.2327 -0.1970
   16LEU   HD21  284   2.552   2.850   3.761  0.0941 -1.5504 -1.7205
   16LEU   HD22  285   2.684   2.769   3.848 -0.0170  2.0923  2.5620
   16LEU   HD23  286   2.687   2.949   3.838  1.8074 -0.1222 -0.7069
   16LEU      C  287   2.596   2.544   3.641  0.4527 -0.7779 -0.0267
   16LEU      O  288   2.582   2.527   3.758  0.5938 -0.1224 -0.4225
   17LEU      N  289   2.500   2.517   3.552 -0.0201 -0.4622  0.1977
   17LEU      H  290   2.515   2.552   3.459  1.3324 -0.7692  0.2801
   17LEU     CA  291   2.367   2.463   3.600 -0.1002  0.4248  0.1946
   17LEU     HA  292   2.325   2.513   3.686  0.5758  1.6596 -0.1706
   17LEU     CB  293   2.261   2.471   3.481 -0.5096 -0.5470 -0.7146
   17LEU    HB1  294   2.313   2.445   3.389  1.8376 -0.8872  0.6125
   17LEU    HB2  295   2.241   2.577   3.468  2.7443  0.7280  2.8648
   17LEU     CG  296   2.132   2.395   3.513 -0.9340  0.3391 -1.7195
   17LEU     HG  297   2.100   2.407   3.616 -1.1287  1.0292 -1.8547
   17LEU    CD1  298   2.004   2.443   3.433  0.7126 -0.2503  0.2083
   17LEU   HD11  299   2.018   2.421   3.328 -2.0598  1.3818 -0.6211
   17LEU   HD12  300   1.913   2.393   3.468 -1.2078  3.6930  1.4601
   17LEU   HD13  301   1.994   2.551   3.443 -2.4636 -0.2583 -1.4993
   17LEU    CD2  302   2.141   2.241   3.479 -0.3115 -0.2437  0.7415
   17LEU   HD21  303   2.165   2.227   3.373 -0.1531  1.9536  0.4351
   17LEU   HD22  304   2.221   2.191   3.534  1.2452  0.1699 -1.0111
   17LEU   HD23  305   2.044   2.196   3.497 -0.7900  0.3382 -0.3157
   17LEU      C  306   2.386   2.318   3.646  0.3189  0.6196  0.0328
   17LEU      O  307   2.312   2.280   3.739 -0.2080 -0.4727  0.5587
   18LEU      N  308   2.480   2.234   3.596 -0.5224 -0.0861 -0.0476
   18LEU      H  309   2.542   2.271   3.527  0.3110 -1.4018 -0.0289
   18LEU     CA  310   2.508   2.091   3.633  0.8785  0.3975 -0.0265
   18LEU     HA  311   2.410   2.046   3.651  1.1372 -1.1773 -2.2356
   18LEU     CB  312   2.585   2.016   3.515 -0.7800 -0.0126  0.7268
   18LEU    HB1  313   2.599   1.911   3.543 -0.5193 -0.2425 -0.2278
   18LEU    HB2  314   2.670   2.079   3.489 -2.2667  2.1359  0.8150
   18LEU     CG  315   2.507   2.007   3.388 -0.3709  0.5285  0.5745
   18LEU     HG  316   2.470   2.103   3.353 -0.9330 -0.6577 -2.4096
   18LEU    CD1  317   2.585   1.946   3.275  0.1249  0.5247  0.5584
   18LEU   HD11  318   2.516   1.936   3.191  1.0919 -0.9366 -0.0989
   18LEU   HD12  319   2.668   2.013   3.251  0.9572 -0.3895  0.8302
   18LEU   HD13  320   2.634   1.850   3.290  1.9242  0.6637 -3.2458
   18LEU    CD2  321   2.377   1.929   3.409 -0.1488  0.3312 -0.8138
   18LEU   HD21  322   2.327   1.909   3.314 -0.0287  0.1475 -0.8407
   18LEU   HD22  323   2.404   1.829   3.442  1.0210  1.3691  1.6151
   18LEU   HD23  324   2.307   1.968   3.482 -0.8025 -1.0191 -0.6862
   18LEU      C  325   2.592   2.082   3.759  0.5271  0.2088 -0.1075
   18LEU      O  326   2.593   1.971   3.820 -0.4154  0.5014 -0.2613
   19LEU      N  327   2.645   2.194   3.810  0.4290 -0.4566 -0.0531
   19LEU      H  328   2.636   2.282   3.761  0.1089 -0.0665  0.6978
   19LEU     CA  329   2.727   2.206   3.932  1.0063 -0.5681  0.1071
   19LEU     HA  330   2.778   2.113   3.953  1.6437 -0.4904 -1.0498
   19LEU     CB  331   2.840   2.305   3.909  0.2655  0.0863  0.0221
   19LEU    HB1  332   2.795   2.403   3.894  1.6251  0.3629 -2.8498
   19LEU    HB2  333   2.885   2.303   3.810  0.6486  1.0181  0.1659
   19LEU     CG  334   2.951   2.306   4.016 -0.4356 -0.6843  0.1306
   19LEU     HG  335   2.952   2.202   4.047 -2.3861 -0.8231 -0.1222
   19LEU    CD1  336   3.081   2.353   3.945 -0.8820  0.3181  0.6852
   19LEU   HD11  337   3.155   2.377   4.021  1.1788 -0.1710 -1.0723
   19LEU   HD12  338   3.127   2.278   3.880  1.3424  1.7391  0.5168
   19LEU   HD13  339   3.057   2.442   3.887 -1.6420  0.3637  1.0588
   19LEU    CD2  340   2.928   2.401   4.142  0.3001 -0.2297 -0.0871
   19LEU   HD21  341   2.900   2.501   4.109 -1.0174 -0.0577  1.4880
   19LEU   HD22  342   2.844   2.356   4.193 -0.9005  0.9575 -0.9582
   19LEU   HD23  343   3.012   2.405   4.211  1.3155 -1.5321 -1.1686
   19LEU      C  344   2.635   2.241   4.051 -0.1239 -0.1944  0.4670
   19LEU      O  345   2.646   2.180   4.158 -0.2131 -0.2339  0.0572
   20ILE      N  346   2.539   2.325   4.027  0.2363  0.1744 -0.6437
   20ILE      H  347   2.535   2.373   3.939 -2.0231  0.3421 -0.5103
   20ILE     CA  348   2.431   2.361   4.120  0.3645 -0.2879 -0.2084
   20ILE     HA  349   2.475   2.389   4.216  1.5952 -1.0143 -0.5344
   20ILE     CB  350   2.350   2.481   4.057 -0.0539  0.2026 -0.8284
   20ILE     HB  351   2.327   2.454   3.954 -1.2922 -3.4793  0.2443
   20ILE    CG2  352   2.215   2.496   4.129 -0.3373 -1.5502 -0.2883
   20ILE   HG21  353   2.160   2.576   4.081  2.8054  0.2994 -1.1011
   20ILE   HG22  354   2.153   2.406   4.128  0.5329 -2.3562  3.3859
   20ILE   HG23  355   2.224   2.510   4.237 -0.2980 -2.0573 -0.2212
   20ILE    CG1  356   2.425   2.616   4.059 -0.1027  0.0739 -0.3294
   20ILE   HG11  357   2.526   2.603   4.021 -0.3667 -0.1775 -0.9547
   20ILE   HG12  358   2.443   2.659   4.158  1.6642 -1.2422 -0.0381
   20ILE     CD  359   2.369   2.732   3.980  0.6845  0.2416 -0.2681
   20ILE    HD1  360   2.273   2.755   4.027  1.2701 -0.6464  1.4758
   20ILE    HD2  361   2.434   2.819   3.983 -1.6715  2.0722  0.4502
   20ILE    HD3  362   2.357   2.701   3.876 -1.1394 -1.3328  0.3492
   20ILE      C  363   2.351   2.238   4.146  0.6193  1.0100  0.0865
   20ILE      O  364   2.321   2.215   4.263 -0.3260  0.2477 -0.4400
   21LEU      N  365   2.318   2.158   4.040  1.4993  1.0156 -0.0210
   21LEU      H  366   2.346   2.178   3.945  2.1975 -1.4516 -0.4129
   21LEU     CA  367   2.234   2.033   4.061  0.0329  0.1021 -0.0813
   21LEU     HA  368   2.133   2.061   4.091  0.4075  0.9971  0.3924
   21LEU     CB  369   2.209   1.944   3.937  0.2301 -0.0636  0.7004
   21LEU    HB1  370   2.192   1.841   3.967 -1.1356 -0.3261 -0.8204
   21LEU    HB2  371   2.305   1.938   3.886  1.4573  2.1397  2.5662
   21LEU     CG  372   2.101   1.993   3.837 -0.0427  0.4304  0.2717
   21LEU     HG  373   2.140   2.085   3.794  0.7486  1.2897  2.6544
   21LEU    CD1  374   2.077   1.884   3.732  0.3616  0.3665  0.4704
   21LEU   HD11  375   2.169   1.861   3.678  0.2057  1.8395 -0.4698
   21LEU   HD12  376   2.030   1.793   3.771  1.8082 -0.5438  0.1957
   21LEU   HD13  377   2.023   1.926   3.648  0.5156 -1.5255 -0.6332
   21LEU    CD2  378   1.967   2.011   3.911 -0.0752  0.2700 -0.2439
   21LEU   HD21  379   1.954   1.928   3.980  2.0170  0.5836  0.6284
   21LEU   HD22  380   1.965   2.105   3.967  0.7561 -0.6269  1.3738
   21LEU   HD23  381   1.887   2.009   3.837  0.7621 -0.6504 -1.1593
   21LEU      C  382   2.291   1.944   4.169  0.1453  0.9087  0.0260
   21LEU    OC1  383   2.409   1.906   4.165  0.7069 -0.8676 -0.2523
   21LEU    OC2  384   2.206   1.887   4.248 -0.5800  0.2164 -0.3759
   22SOL     OW  385   0.436   1.289   1.181 -0.2366 -0.1584  0.2945
   22SOL    HW1  386   0.428   1.190   1.189 -0.8167 -0.0379  1.5102
   22SOL    HW2  387   0.365   1.333   1.237  0.8858  0.9438  0.9122
   23SOL     OW  388   5.032   5.363   1.077  0.1458 -0.6176 -0.7330
   23SOL    HW1  389   5.119   5.359   1.029 -0.8378 -0.0306 -2.6524
   23SOL    HW2  390   4.975   5.435   1.037 -0.1600  1.0460  2.3546
   24SOL     OW  391   5.149   1.429   4.877  0.4021  0.1628 -0.2432
   24SOL    HW1  392   5.204   1.437   4.794  0.5786 -0.8199 -0.2394
   24SOL    HW2  393   5.184   1.491   4.947  1.4206 -0.3306 -0.2967
   25SOL     OW  394   5.326   0.351   1.625  0.7032  0.2855 -0.1934
   25SOL    HW1  395   5.359   0.332   1.533 -0.2946 -0.7056 -0.3638
   25SOL    HW2  396   5.334   0.449   1.644  0.9234  0.5012 -1.3270
   26SOL     OW  397   2.451   0.668   0.008 -0.0801  0.0142 -0.6229
   26SOL    HW1  398   2.379   0.732   0.033  0.3818 -0.0472  0.9790
   26SOL    HW2  399   2.537   0.718  -0.004 -0.1935 -0.0216 -1.7292
   27SOL     OW  400   5.103   0.092   1.895  0.3888  0.6324  0.0582
   27SOL    HW1  401   5.028   0.126   1.953  0.4507  2.0717 -0.6663
   27SOL    HW2  402   5.095   0.132   1.804  0.7363 -1.0071 -0.7116
   28SOL     OW  403   0.896   0.586   1.717 -0.5603  0.0057 -0.3967
   28SOL    HW1  404   0.978   0.547   1.757  0.0323  0.8013 -0.8064
   28SOL    HW2  405   0.868   0.532   1.637  0.4116  0.5592 -1.1300
   29SOL     OW  406   0.874   2.074   0.516  0.0235 -0.0108 -0.1399
   29SOL    HW1  407   0.783   2.071   0.474 -0.4258 -0.2728  0.8241
   29SOL    HW2  408   0.866   2.111   0.609  0.6724 -1.4352  0.5108
   30SOL     OW  409   0.458   5.410   3.113 -0.7365 -0.1096  0.3045
   30SOL    HW1  410   0.472   5.352   3.033 -1.0169 -1.3463  1.1349
   30SOL    HW2  411   0.539   5.468   3.127 -0.1108 -0.8770 -0.0694
   31SOL     OW  412   5.263   0.389   5.493 -0.0711  0.6019  0.3935
   31SOL    HW1  413   5.341   0.392   5.554 -0.6913  1.4417  1.1789
   31SOL    HW2  414   5.179   0.379   5.546 -0.6154  1.3063 -0.2966
   32SOL     OW  415   0.565   1.080   1.927 -0.5889 -0.5341 -1.0233
   32SOL    HW1  416   0.578   1.178   1.942  2.4846 -1.0604  0.5042
   32SOL    HW2  417   0.501   1.045   1.995  2.0534 -0.3102  1.8124
   33SOL     OW  418   4.250   4.989   1.752 -0.0632  0.4101  0.2161
   33SOL    HW1  419   4.343   4.987   1.788 -0.6078 -0.1126  1.6792
   33SOL    HW2  420   4.246   5.050   1.673  1.5129  0.4225  0.1127
   34SOL     OW  421   0.596   1.628   0.747  0.5370 -0.9513  0.6136
   34SOL    HW1  422   0.571   1.696   0.816 -0.6561 -0.2347 -0.4751
   34SOL    HW2  423   0.659   1.670   0.680  0.6451 -1.2379  0.5346
   35SOL     OW  424   1.701   0.801   0.177 -0.2991 -0.3885 -1.0787
   35SOL    HW1  425   1.621   0.748   0.207 -0.2301  0.9354  1.6864
   35SOL    HW2  426   1.777   0.739   0.160  0.3257 -1.3252  3.7624
   36SOL     OW  427   0.401   1.328   0.353 -0.2823 -0.7132 -0.7386
   36SOL    HW1  428   0.500   1.320   0.357 -0.1430  0.9255  1.0136
   36SOL    HW2  429   0.362   1.301   0.441 -1.3389 -0.7707 -1.2110
   37SOL     OW  430   0.893   1.158   1.730  0.2805  0.3823 -0.1793
   37SOL    HW1  431   0.958   1.179   1.803 -1.6697  0.4296  1.6523
   37SOL    HW2  432   0.899   1.060   1.708 -1.2424 -0.4058  2.4011
   38SOL     OW  433   0.545   1.296   2.102  0.4621 -0.2579 -0.0059
   38SOL    HW1  434   0.645   1.291   2.111  0.4382  0.1121  0.5120
   38SOL    HW2  435   0.503   1.220   2.153  0.4477  0.1405  0.5938
   39SOL     OW  436   1.071   1.938   5.156 -0.0512  0.5601  0.0484
   39SOL    HW1  437   1.016   1.866   5.197  2.3187 -0.0329  2.4834
   39SOL    HW2  438   1.112   1.905   5.071  0.3008 -0.6949  0.6803
   40SOL     OW  439   5.187   1.468   5.506  0.3600  0.3380  0.0243
   40SOL    HW1  440   5.269   1.481   5.561  1.0053 -1.7221 -0.3504
   40SOL    HW2  441   5.202   1.392   5.442 -2.0515 -0.5096  0.3692
   41SOL     OW  442   4.760   2.471   2.040 -0.0121  0.0173 -0.0174
   41SOL    HW1  443   4.744   2.389   2.094 -1.2842 -0.9502 -1.7563
   41SOL    HW2  444   4.725   2.551   2.089  0.0552 -0.6345  1.1259
   42SOL     OW  445   1.003   0.774   0.104  0.4150 -0.0596  0.3786
   42SOL    HW1  446   1.059   0.843   0.059 -0.0956 -1.0468 -1.9172
   42SOL    HW2  447   0.912   0.772   0.062 -0.8774  0.4190  2.9499
   43SOL     OW  448   0.925   0.849   1.796 -0.1603 -0.1674  0.0738
   43SOL    HW1  449   0.930   0.753   1.771 -2.5319 -0.0325 -1.1398
   43SOL    HW2  450   0.894   0.858   1.891  1.2351 -0.5665  0.5951
   44SOL     OW  451   0.321   0.269   0.168 -0.0639  0.1002  0.0645
   44SOL    HW1  452   0.399   0.211   0.141  0.2151  1.0668 -1.3456
   44SOL    HW2  453   0.354   0.360   0.192 -0.7854  0.7132 -1.1622
   45SOL     OW  454   0.742   2.167   1.245  0.2979 -0.1445  0.7034
   45SOL    HW1  455   0.783   2.130   1.329  1.6843  1.8982  1.0222
   45SOL    HW2  456   0.798   2.244   1.212 -1.6318  0.7702 -0.6513
   46SOL     OW  457   0.883   2.375   1.198 -0.0443 -0.6537  0.1176
   46SOL    HW1  458   0.825   2.457   1.202 -1.4132 -1.4480 -1.8045
   46SOL    HW2  459   0.961   2.387   1.258 -0.5469  1.7941  0.4001
   47SOL     OW  460   0.669   5.554   0.482 -0.1689  0.0855 -0.2329
   47SOL    HW1  461   0.576   5.569   0.516  0.4719  0.4715  1.4391
   47SOL    HW2  462   0.708   5.474   0.528  0.4761  0.1515 -0.6573
   48SOL     OW  463   1.941   1.978   0.330  0.5602 -0.1581  0.0526
   48SOL    HW1  464   1.918   2.063   0.281  2.3581  0.3221 -0.0505
   48SOL    HW2  465   1.910   1.900   0.276  0.9067  0.4067 -1.0127
   49SOL     OW  466   4.964   0.323   1.999 -0.2223  0.0423  0.7906
   49SOL    HW1  467   5.061   0.316   2.024  0.0404  2.1925  0.5598
   49SOL    HW2  468   4.946   0.414   1.961 -2.1311 -0.6675 -0.1256
   50SOL     OW  469   1.382   2.177   5.515  0.5982  0.0199 -0.1224
   50SOL    HW1  470   1.325   2.096   5.527  0.6395 -0.3792 -2.2407
   50SOL    HW2  471   1.328   2.259   5.530  0.4100 -0.3702  1.4734
   51SOL     OW  472   0.772   1.489   1.688 -0.2672  0.7272 -0.4796
   51SOL    HW1  473   0.737   1.419   1.750 -0.2951  0.7925 -0.4215
   51SOL    HW2  474   0.837   1.547   1.736 -0.2246  0.7253 -0.5349
   52SOL     OW  475   2.566   1.373   4.441 -0.2396  0.2593  0.6448
   52SOL    HW1  476   2.659   1.385   4.406 -0.4666  0.7343  0.1956
   52SOL    HW2  477   2.551   1.276   4.462 -0.0041  0.0028 -0.3222
   53SOL     OW  478   0.301   1.347   1.816  0.2855  0.3650 -0.0891
   53SOL    HW1  479   0.374   1.416   1.823 -0.6014  1.5938 -2.1311
   53SOL    HW2  480   0.213   1.392   1.828 -0.2414 -0.7547  0.3035
   54SOL     OW  481   2.021   2.535   0.122  0.2011 -0.0531 -0.1306
   54SOL    HW1  482   2.106   2.550   0.172  0.2853 -1.9627  0.4027
   54SOL    HW2  483   1.952   2.600   0.153  0.8545  0.1355  0.9812
   55SOL     OW  484   1.094   2.697   5.526 -0.1121 -0.0787 -0.8957
   55SOL    HW1  485   1.162   2.769   5.539  1.2603 -1.1968 -1.5745
   55SOL    HW2  486   1.009   2.722   5.573  1.4001  0.4491  1.7627
   56SOL     OW  487   0.389   1.411   0.936  0.5886 -0.3310 -0.2718
   56SOL    HW1  488   0.421   1.366   1.019  0.6133 -1.8505 -1.0675
   56SOL    HW2  489   0.326   1.350   0.888 -0.8155  1.2114 -0.5001
   57SOL     OW  490   1.646   0.801   5.462  0.2905 -0.4061  0.5449
   57SOL    HW1  491   1.664   0.812   5.559  0.5784  0.9836  0.3602
   57SOL    HW2  492   1.706   0.863   5.410 -1.3004  0.3950 -0.3949
   58SOL     OW  493   1.676   2.172   1.253 -0.2837  0.0253 -0.3961
   58SOL    HW1  494   1.730   2.237   1.200  0.0706  0.0991  0.0530
   58SOL    HW2  495   1.589   2.155   1.206 -1.0635  2.0039  0.2477
   59SOL     OW  496   0.219   0.521   1.626 -0.0742  0.3658  0.4083
   59SOL    HW1  497   0.178   0.450   1.569 -0.9743  1.3983 -0.2805
   59SOL    HW2  498   0.315   0.534   1.599 -0.0890 -0.1489  0.1011
   60SOL     OW  499   1.924   0.364   0.729 -0.4937  0.3660 -0.4490
   60SOL    HW1  500   2.015   0.346   0.691 -1.5904  0.1078 -3.1543
   60SOL    HW2  501   1.897   0.458   0.705 -0.6495  0.7370  1.0681
   61SOL     OW  502   1.367   5.433   4.731 -0.6199 -0.3255  0.5436
   61SOL    HW1  503   1.465   5.442   4.750 -0.5196  0.5730 -0.3023
   61SOL    HW2  504   1.324   5.379   4.803  0.6400 -1.4556  0.4925
   62SOL     OW  505   2.437   0.490   0.875  0.3158  0.4354  0.3926
   62SOL    HW1  506   2.440   0.553   0.798  1.8675  1.3085  1.1137
   62SOL    HW2  507   2.409   0.539   0.958  0.2640 -0.1181  0.7080
   63SOL     OW  508   0.825   1.215   2.074  0.0185 -0.0319  0.6848
   63SOL    HW1  509   0.818   1.118   2.054  1.2589 -0.4384  2.0285
   63SOL    HW2  510   0.904   1.254   2.027 -0.4107  0.3118  0.2362
   64SOL     OW  511   3.711   0.072   2.350 -0.4113 -0.1110 -0.7610
   64SOL    HW1  512   3.712   0.040   2.255 -0.1026  0.8787 -1.0981
   64SOL    HW2  513   3.784   0.138   2.365 -1.4341  0.9490 -0.2615
   65SOL     OW  514   1.014   1.108   0.731 -0.2791 -0.2120 -0.7298
   65SOL    HW1  515   1.051   1.016   0.733  0.7105  0.1783  0.9481
   65SOL    HW2  516   1.062   1.163   0.663  0.0781 -0.5572 -0.7531
   66SOL     OW  517   0.476   0.019   1.279 -0.1655 -0.4806  0.3924
   66SOL    HW1  518   0.461   0.034   1.181 -0.2334  1.3075  0.6520
   66SOL    HW2  519   0.563  -0.028   1.292  0.9876  1.2946 -0.4468
   67SOL     OW  520   0.082   4.107   1.392 -0.6516 -0.3136  0.1470
   67SOL    HW1  521   0.086   4.007   1.397 -0.9222 -0.5325 -2.5109
   67SOL    HW2  522   0.169   4.142   1.357 -0.4901  0.4326  1.2433
   68SOL     OW  523   4.440   0.849   0.902 -0.0722  0.1970 -0.3677
   68SOL    HW1  524   4.421   0.920   0.834  0.1592  0.8260  0.2162
   68SOL    HW2  525   4.534   0.816   0.889 -0.7808 -1.3896 -1.8704
   69SOL     OW  526   1.393   0.316   0.326 -0.3011  0.3850 -0.1703
   69SOL    HW1  527   1.302   0.302   0.365 -0.0986 -2.0998 -0.4477
   69SOL    HW2  528   1.431   0.228   0.297  2.8625  1.1211  1.3741
   70SOL     OW  529   1.107   0.692   2.736 -0.5279  0.3044 -0.0966
   70SOL    HW1  530   1.045   0.657   2.805 -0.6721 -0.3406 -0.5415
   70SOL    HW2  531   1.201   0.685   2.768 -0.3460 -2.5083 -0.9511
   71SOL     OW  532   3.355   5.220   4.142 -0.2332 -0.2551 -0.3155
   71SOL    HW1  533   3.404   5.286   4.086  0.4146  0.0275  0.5664
   71SOL    HW2  534   3.396   5.130   4.132 -2.5892 -1.1449 -3.4270
   72SOL     OW  535   1.184   0.018   2.258 -0.3202  0.0176  1.0332
   72SOL    HW1  536   1.243  -0.058   2.230 -1.2529 -0.6149  0.7436
   72SOL    HW2  537   1.161   0.074   2.179 -1.2690 -0.5736  0.8767
   73SOL     OW  538   1.240   0.522   1.778  0.0595  0.1700 -0.1010
   73SOL    HW1  539   1.201   0.582   1.847 -2.3210 -0.4485 -0.8041
   73SOL    HW2  540   1.340   0.521   1.786 -0.0723  1.1712  2.3869
   74SOL     OW  541   5.096   2.458   4.985 -0.2092  0.0322  0.2590
   74SOL    HW1  542   5.110   2.361   4.964 -1.7444 -0.5097  1.5082
   74SOL    HW2  543   5.038   2.466   5.066 -0.3489  2.0111  0.0103
   75SOL     OW  544   1.606   1.898   1.465  0.0654 -0.7988 -0.4763
   75SOL    HW1  545   1.703   1.915   1.445  0.1583 -1.2179 -0.3816
   75SOL    HW2  546   1.597   1.813   1.516 -0.2923 -0.3703  0.1827
   76SOL     OW  547   4.991   1.501   1.414 -0.0182 -0.5244 -0.5854
   76SOL    HW1  548   5.034   1.413   1.435  2.0270 -0.0650 -2.5453
   76SOL    HW2  549   4.964   1.503   1.318 -0.1191  0.9597 -0.5482
   77SOL     OW  550   0.042   0.366   0.366  0.2128  0.0505 -0.7141
   77SOL    HW1  551   0.117   0.319   0.319 -0.5035 -1.3972 -0.4737
   77SOL    HW2  552   0.066   0.462   0.380  0.4489  0.5977 -4.0781
   78SOL     OW  553   1.758   0.992   1.239  0.5132  0.3121 -0.3368
   78SOL    HW1  554   1.771   0.953   1.148 -0.7217  1.6510 -1.1259
   78SOL    HW2  555   1.739   0.919   1.305  1.0075 -0.6291 -1.2130
   79SOL     OW  556   0.539   1.283   2.844 -0.1144  0.1850 -0.6100
   79SOL    HW1  557   0.486   1.219   2.788 -0.8850 -0.9138  1.3066
   79SOL    HW2  558   0.637   1.268   2.828 -0.2981 -0.9283 -0.7702
   80SOL     OW  559   0.352   1.065   1.336  0.3035 -0.0149  0.5726
   80SOL    HW1  560   0.315   1.089   1.425  0.8262 -0.9519  1.0593
   80SOL    HW2  561   0.419   0.991   1.346  1.2160  0.6320 -0.4505
   81SOL     OW  562   5.397   0.615   1.142 -0.1244  0.2140  0.3315
   81SOL    HW1  563   5.312   0.575   1.106 -0.0049  0.2351  0.0221
   81SOL    HW2  564   5.398   0.607   1.241  0.4290 -1.5952  0.2030
   82SOL     OW  565   4.052   0.423   0.242 -0.4585  0.6635 -0.1575
   82SOL    HW1  566   4.147   0.442   0.267 -0.5487 -1.3019  2.0440
   82SOL    HW2  567   3.992   0.492   0.283 -0.2876 -0.5686  2.3650
   83SOL     OW  568   0.472   2.132   4.873  0.0011  0.8957  0.3194
   83SOL    HW1  569   0.449   2.134   4.776 -2.7769 -2.9678  0.7062
   83SOL    HW2  570   0.394   2.162   4.927  0.9104  1.3248  1.4570
   84SOL     OW  571   1.791   1.103   0.537 -0.3268  0.3868 -0.0677
   84SOL    HW1  572   1.856   1.060   0.474  1.2551  0.9314  1.1416
   84SOL    HW2  573   1.716   1.040   0.556 -0.8334  0.1809 -2.4255
   85SOL     OW  574   4.118   0.304   1.410 -0.2544 -0.2887  0.8346
   85SOL    HW1  575   4.040   0.241   1.397 -0.5406 -0.0737  1.4758
   85SOL    HW2  576   4.178   0.299   1.330 -1.5862  0.4784 -0.2536
   86SOL     OW  577   0.509   0.179   1.689 -0.6620  0.4695 -0.0634
   86SOL    HW1  578   0.542   0.236   1.764  0.2548  0.6678 -0.5954
   86SOL    HW2  579   0.516   0.083   1.714  3.2241  0.2855 -1.1536
   87SOL     OW  580   4.926   1.139   0.982 -0.0950 -0.0834  0.7550
   87SOL    HW1  581   4.883   1.049   0.990  1.8054 -1.1686 -0.3303
   87SOL    HW2  582   4.964   1.149   0.890  0.0569  1.7092  0.9778
   88SOL     OW  583   4.920   0.837   2.910 -0.0874  0.0453  0.5149
   88SOL    HW1  584   4.978   0.906   2.865  0.8630 -0.1961  1.3297
   88SOL    HW2  585   4.829   0.875   2.923 -0.0087  0.5976 -0.4093
   89SOL     OW  586   2.701   0.419   5.364  0.4875 -0.1553  0.6510
   89SOL    HW1  587   2.710   0.512   5.329  0.8343  0.0967  1.3878
   89SOL    HW2  588   2.728   0.417   5.460  0.3666 -0.9968  0.6747
   90SOL     OW  589   0.965   5.496   2.405 -0.5983  0.1028  0.2784
   90SOL    HW1  590   1.011   5.482   2.493 -0.0385  0.2720  0.0158
   90SOL    HW2  591   1.033   5.506   2.333 -1.0276  1.1909  0.0105
   91SOL     OW  592   5.550   2.354   2.263  0.5406 -0.4159  0.1417
   91SOL    HW1  593   5.469   2.297   2.256 -0.1502  0.5448  0.1629
   91SOL    HW2  594   5.581   2.380   2.172  0.5469 -0.4034  0.1473
   92SOL     OW  595   1.833   5.097   1.733 -0.2138 -0.4662 -0.0911
   92SOL    HW1  596   1.908   5.146   1.777  0.9699 -0.9245 -1.5180
   92SOL    HW2  597   1.841   5.106   1.634 -2.4391  0.0104 -0.2913
   93SOL     OW  598   1.538   1.048   5.189 -0.4187  0.1155  0.0736
   93SOL    HW1  599   1.619   1.034   5.245  0.8269 -0.0023 -1.6859
   93SOL    HW2  600   1.457   1.013   5.238  0.7676 -1.0744  1.2733
   94SOL     OW  601   2.700   0.807   0.024  0.0755 -1.1600  0.1183
   94SOL    HW1  602   2.779   0.760   0.063 -1.4481 -3.2943  0.8464
   94SOL    HW2  603   2.677   0.887   0.080  0.7913 -1.4202  0.7910
   95SOL     OW  604   0.235   4.556   5.498 -0.7590 -0.4539  0.1295
   95SOL    HW1  605   0.264   4.464   5.469 -0.6034 -0.4227  0.1858
   95SOL    HW2  606   0.241   4.619   5.420 -0.3948 -0.3829  0.2157
   96SOL     OW  607   4.451   0.200   4.898  0.2582  0.0843 -0.3842
   96SOL    HW1  608   4.406   0.145   4.828 -1.8062  2.0150 -0.6953
   96SOL    HW2  609   4.453   0.150   4.985  0.1682 -1.1697 -1.0923
   97SOL     OW  610   1.549   0.422   0.614 -0.1566 -0.4013 -1.0045
   97SOL    HW1  611   1.499   0.413   0.700  2.5408 -3.6492  0.4446
   97SOL    HW2  612   1.491   0.390   0.539 -1.7888  0.3979 -0.1376
   98SOL     OW  613   0.461   4.873   0.510  0.2526  0.1067 -0.0985
   98SOL    HW1  614   0.399   4.946   0.483  0.0714 -0.2685 -0.7381
   98SOL    HW2  615   0.464   4.866   0.609  1.6556  2.1514  0.0634
   99SOL     OW  616   4.781   0.301   2.186  0.4585 -0.1631 -0.2658
   99SOL    HW1  617   4.863   0.343   2.225 -0.1522 -0.3522  1.2922
   99SOL    HW2  618   4.806   0.253   2.101  1.6498  1.0739 -0.6603
  100SOL     OW  619   0.130   1.133   4.409  0.4468  0.1030  0.4658
  100SOL    HW1  620   0.045   1.081   4.399  0.1162  0.4101  1.5306
  100SOL    HW2  621   0.197   1.078   4.459  0.5712  0.1802  0.3829
  101SOL     OW  622   1.560   5.022   4.139 -0.1015  0.0734 -0.0842
  101SOL    HW1  623   1.560   5.113   4.098 -1.7039 -0.1525 -0.6762
  101SOL    HW2  624   1.492   5.019   4.213  0.3722 -0.4691  0.3411
  102SOL     OW  625   2.554   2.942   0.068 -0.3601 -0.3128 -0.0217
  102SOL    HW1  626   2.474   2.916   0.121 -0.9784 -1.1040 -1.2985
  102SOL    HW2  627   2.574   2.870   0.001  0.9844  0.2079 -0.2074
  103SOL     OW  628   1.078   1.324   0.564  0.1359  0.3969  0.1490
  103SOL    HW1  629   1.036   1.387   0.630 -1.0485  0.3372 -0.5188
  103SOL    HW2  630   1.077   1.366   0.473 -0.7850 -0.6065 -0.3329
  104SOL     OW  631   0.646   0.706   0.264 -0.0889  0.3135  0.2806
  104SOL    HW1  632   0.710   0.642   0.306  0.6039  0.7751 -0.0535
  104SOL    HW2  633   0.667   0.799   0.293 -1.4373  0.3564  1.2018
  105SOL     OW  634   1.923   0.357   3.333  0.0321 -0.2127 -0.6090
  105SOL    HW1  635   2.016   0.393   3.346  0.1407 -1.0002  1.0823
  105SOL    HW2  636   1.866   0.385   3.410 -1.1434  0.2496 -1.6344
  106SOL     OW  637   1.255   0.683   0.570 -0.1681 -0.0218  0.6720
  106SOL    HW1  638   1.218   0.727   0.488  0.6232 -1.2027 -0.3499
  106SOL    HW2  639   1.354   0.693   0.572 -0.1683 -0.0675  1.4636
  107SOL     OW  640   0.200   0.199   0.682  0.3377 -0.4796 -0.1963
  107SOL    HW1  641   0.190   0.167   0.776  2.3634  0.5616  0.4397
  107SOL    HW2  642   0.199   0.299   0.680  0.9241 -0.4742 -1.1921
  108SOL     OW  643   0.527   0.889   1.434 -0.0926 -0.0132 -0.0178
  108SOL    HW1  644   0.612   0.861   1.389 -0.1129  0.3781 -0.3019
  108SOL    HW2  645   0.546   0.915   1.528  0.0830 -0.0332 -0.0480
  109SOL     OW  646   2.148   0.103   0.986  0.0816 -0.4882 -0.0484
  109SOL    HW1  647   2.116   0.083   0.893  0.3952 -3.0597  0.3140
  109SOL    HW2  648   2.241   0.067   0.998 -0.2312 -0.8725  1.4488
  110SOL     OW  649   2.646   5.076   0.143 -0.0744  0.1604  0.1024
  110SOL    HW1  650   2.649   5.168   0.184 -0.3533  0.2534 -0.0835
  110SOL    HW2  651   2.565   5.028   0.176 -1.1058  0.7682 -1.4531
  111SOL     OW  652   0.672   0.360   4.710 -0.7277 -0.0058  0.2687
  111SOL    HW1  653   0.767   0.354   4.741 -0.1294  2.0927 -0.9230
  111SOL    HW2  654   0.656   0.292   4.638  0.2809  0.4548 -0.4104
  112SOL     OW  655   2.780   0.218   0.453  0.0282  0.3663 -0.1002
  112SOL    HW1  656   2.701   0.279   0.458 -0.5416 -0.4342  2.0840
  112SOL    HW2  657   2.820   0.208   0.545  0.1967 -2.3641 -0.3913
  113SOL     OW  658   2.348   3.945   0.052 -0.1571  0.1507  0.2185
  113SOL    HW1  659   2.347   3.996  -0.034 -0.9781 -1.7425 -0.9786
  113SOL    HW2  660   2.268   3.969   0.106  1.1071  2.4421  1.2103
  114SOL     OW  661   1.835   5.423   4.702 -0.2124 -0.0381  0.2164
  114SOL    HW1  662   1.812   5.325   4.700 -0.5215 -0.0025  1.3005
  114SOL    HW2  663   1.861   5.453   4.610  1.5526 -1.5260  0.1632
  115SOL     OW  664   1.492   1.820   2.903 -0.2488 -0.0931 -0.4450
  115SOL    HW1  665   1.476   1.875   2.984 -1.0329 -2.1428  0.8639
  115SOL    HW2  666   1.410   1.768   2.881 -0.2258  0.7646 -2.9014
  116SOL     OW  667   0.296   2.655   3.096  0.3089  0.3917 -0.3548
  116SOL    HW1  668   0.228   2.657   3.022  0.0276 -1.2618 -0.1851
  116SOL    HW2  669   0.258   2.607   3.175  0.7925  1.6978  0.7012
  117SOL     OW  670   1.510   0.757   3.614 -0.2428 -0.3337 -0.2915
  117SOL    HW1  671   1.481   0.698   3.689 -2.1907 -0.4084 -1.0451
  117SOL    HW2  672   1.591   0.809   3.642 -0.6833 -0.6294  1.7044
  118SOL     OW  673   1.644   0.811   1.419  0.2142  0.2632 -0.6448
  118SOL    HW1  674   1.696   0.733   1.455  0.6776  0.1698 -1.5004
  118SOL    HW2  675   1.615   0.869   1.495 -1.5814 -1.6097  0.1841
  119SOL     OW  676   0.789   1.836   0.940  0.2950 -0.1364  0.2790
  119SOL    HW1  677   0.716   1.791   0.992 -0.8989  1.3399 -0.0378
  119SOL    HW2  678   0.752   1.918   0.896  2.3171  1.0191  0.6480
  120SOL     OW  679   0.149   4.174   2.730  0.2744 -0.6404 -0.0310
  120SOL    HW1  680   0.247   4.175   2.713  0.1906  1.5380 -0.6553
  120SOL    HW2  681   0.103   4.119   2.661  0.8537  0.2278 -1.1244
  121SOL     OW  682   0.488   0.985   1.694  0.0949 -0.4812 -0.1763
  121SOL    HW1  683   0.519   1.005   1.787  0.8374 -0.0711 -0.5002
  121SOL    HW2  684   0.411   1.044   1.671  0.1727 -0.2954  0.0370
  122SOL     OW  685   1.410   2.391   0.436  0.7237  0.2565 -0.7266
  122SOL    HW1  686   1.403   2.485   0.470 -1.3794 -1.3858  4.2175
  122SOL    HW2  687   1.332   2.337   0.468  2.6149 -3.5952 -1.9497
  123SOL     OW  688   5.347   1.483   0.765 -0.1204  0.3379 -0.3522
  123SOL    HW1  689   5.264   1.473   0.820  1.2355  0.1315  1.7503
  123SOL    HW2  690   5.387   1.573   0.781  0.7191 -0.0225 -0.3982
  124SOL     OW  691   1.517   0.423   1.721 -0.3887  0.0856  0.5160
  124SOL    HW1  692   1.573   0.342   1.737 -1.1163 -0.5674 -0.1283
  124SOL    HW2  693   1.551   0.471   1.639  0.3863  0.7639  1.2129
  125SOL     OW  694   5.224   4.217   1.561  0.6685  0.0845 -0.2281
  125SOL    HW1  695   5.307   4.176   1.599 -1.4287 -1.6176  2.9615
  125SOL    HW2  696   5.145   4.162   1.586 -1.7495  3.0047 -0.8749
  126SOL     OW  697   1.381   0.848   5.488  0.1288  0.8803 -0.1688
  126SOL    HW1  698   1.328   0.765   5.505  1.0702  0.5628  1.3597
  126SOL    HW2  699   1.476   0.824   5.469  0.0659  1.5312 -1.4298
  127SOL     OW  700   0.577   0.321   1.219 -0.3103 -0.0928 -0.6623
  127SOL    HW1  701   0.592   0.408   1.172 -2.1552  0.5734 -0.1240
  127SOL    HW2  702   0.487   0.284   1.194 -1.0192 -0.1130  1.6271
  128SOL     OW  703   2.530   1.043   0.139 -0.3221  0.2452  0.2856
  128SOL    HW1  704   2.509   0.993   0.223  1.5115  0.4687  0.9199
  128SOL    HW2  705   2.542   1.140   0.160  1.8706  0.0591  0.1431
  129SOL     OW  706   1.596   1.887   0.366 -0.0089  0.1395 -0.0447
  129SOL    HW1  707   1.510   1.869   0.316 -0.0867  0.5458 -0.0614
  129SOL    HW2  708   1.598   1.983   0.394  0.3085  0.0555  0.2160
  130SOL     OW  709   1.580   0.637   5.264 -0.4658 -0.2356  0.1382
  130SOL    HW1  710   1.636   0.697   5.321  1.7199 -0.5597 -1.5416
  130SOL    HW2  711   1.551   0.558   5.318 -0.4056  0.5852  1.4120
  131SOL     OW  712   5.139   1.010   2.018 -0.0533  0.4328 -0.3670
  131SOL    HW1  713   5.205   1.054   2.079 -0.4614  2.0347 -1.0250
  131SOL    HW2  714   5.097   1.079   1.959 -0.7438 -0.8661 -1.4530
  132SOL     OW  715   1.271   0.221   1.267  0.1008 -0.1297 -0.3105
  132SOL    HW1  716   1.366   0.253   1.267 -0.2230  1.0804 -2.8007
  132SOL    HW2  717   1.268   0.125   1.294  1.6604  0.5557  2.6208
  133SOL     OW  718   2.991   1.453   1.956 -0.5593  0.3148 -0.1294
  133SOL    HW1  719   2.998   1.366   2.004  0.6780 -0.0275 -0.8724
  133SOL    HW2  720   3.023   1.527   2.014  3.5306 -0.4034 -1.1500
  134SOL     OW  721   1.960   0.991   3.313  0.1005  0.1538 -0.6216
  134SOL    HW1  722   2.030   0.931   3.352 -0.0155  0.5214  0.1700
  134SOL    HW2  723   1.921   0.948   3.232 -0.5072 -1.2030  0.3449
  135SOL     OW  724   4.308   5.322   0.730 -0.1349 -0.2946 -1.0129
  135SOL    HW1  725   4.246   5.335   0.653 -1.9504  0.9295  0.5711
  135SOL    HW2  726   4.346   5.410   0.758  1.7921 -0.9303 -1.4708
  136SOL     OW  727   4.937   1.448   2.039  0.3723  0.0306  0.0471
  136SOL    HW1  728   4.875   1.383   1.996 -1.7578  0.4014  2.3259
  136SOL    HW2  729   4.958   1.522   1.976 -0.2407 -0.8885 -1.2856
  137SOL     OW  730   1.432   2.669   2.172  0.3687 -0.5337  0.6033
  137SOL    HW1  731   1.473   2.711   2.253 -0.1891  1.1731  0.0362
  137SOL    HW2  732   1.472   2.707   2.089 -2.4604  1.5428  0.0051
  138SOL     OW  733   2.560   5.450   4.797  0.1249  0.0926  0.0014
  138SOL    HW1  734   2.558   5.502   4.883  0.9347 -1.0637  0.7535
  138SOL    HW2  735   2.577   5.512   4.721  1.1836  0.9221  0.8808
  139SOL     OW  736   4.494   0.872   2.599 -0.6814 -0.0522 -0.0135
  139SOL    HW1  737   4.408   0.913   2.627 -1.0772 -1.9958  1.8770
  139SOL    HW2  738   4.477   0.779   2.566  0.6801 -0.4793  0.4205
  140SOL     OW  739   5.030   2.063   3.290 -0.2880 -0.0511  0.2797
  140SOL    HW1  740   5.128   2.063   3.268 -0.5447  1.0545 -1.0217
  140SOL    HW2  741   5.002   2.154   3.318 -1.1979 -0.0347 -0.6365
  141SOL     OW  742   2.850   5.333   5.096  0.2465  0.3140 -0.0491
  141SOL    HW1  743   2.813   5.329   5.188  0.3474 -0.7686 -0.0450
  141SOL    HW2  744   2.830   5.248   5.047  0.8631  0.5568 -0.7638
  142SOL     OW  745   2.200   1.149   4.234 -0.2217 -0.7789 -0.0913
  142SOL    HW1  746   2.193   1.133   4.136  1.1212 -2.2215  0.0081
  142SOL    HW2  747   2.256   1.078   4.276  2.1167  1.6198  1.2068
  143SOL     OW  748   0.331   4.857   1.794  0.1870  0.3628  0.5777
  143SOL    HW1  749   0.244   4.883   1.836  0.0010 -1.0017  1.1013
  143SOL    HW2  750   0.325   4.869   1.695 -0.5656  0.3719  0.6165
  144SOL     OW  751   0.861   1.903   4.814  0.2084 -0.1062  0.0088
  144SOL    HW1  752   0.809   1.955   4.881  0.4049  0.2625 -0.1262
  144SOL    HW2  753   0.957   1.900   4.840  0.4473  0.8042 -0.7188
  145SOL     OW  754   5.514   1.229   1.725 -0.2053 -0.4175  0.3386
  145SOL    HW1  755   5.507   1.139   1.769  0.3981 -0.6409 -0.0100
  145SOL    HW2  756   5.520   1.217   1.626  0.9492 -0.0669  0.3492
  146SOL     OW  757   1.203   1.177   1.631  0.0679 -0.3261 -0.1609
  146SOL    HW1  758   1.203   1.202   1.534  0.0322  0.8295  0.1220
  146SOL    HW2  759   1.149   1.094   1.644  0.9845 -1.1513 -1.2795
  147SOL     OW  760   2.643   2.663   1.278 -0.1990 -0.2226 -0.1402
  147SOL    HW1  761   2.554   2.708   1.280 -1.1674 -2.0472  0.5838
  147SOL    HW2  762   2.632   2.566   1.301  2.3424  0.0507  2.9403
  148SOL     OW  763   4.529   1.305   0.869 -0.1084  0.0549  0.6861
  148SOL    HW1  764   4.456   1.359   0.827  0.0175  0.8947  1.4998
  148SOL    HW2  765   4.574   1.249   0.799  0.1490  1.4637 -0.3318
  149SOL     OW  766   1.025   0.507   0.079 -0.4418 -0.1752  0.7589
  149SOL    HW1  767   1.028   0.607   0.090 -1.2717 -0.1901  1.1911
  149SOL    HW2  768   0.990   0.466   0.163  1.1672 -0.9418  1.1063
  150SOL     OW  769   1.402   1.266   0.455  0.5535  0.1319 -0.2488
  150SOL    HW1  770   1.457   1.264   0.539  0.2119  0.6422 -0.0026
  150SOL    HW2  771   1.307   1.285   0.479  0.4979  0.5212 -0.7735
  151SOL     OW  772   0.951   1.990   5.496  0.4948 -0.2931 -0.2895
  151SOL    HW1  773   0.887   1.968   5.569  0.7556 -0.5825 -0.1440
  151SOL    HW2  774   0.974   2.087   5.499  0.0713 -0.1908 -0.3373
  152SOL     OW  775   0.228   0.100   1.686  0.4568 -0.1877 -0.5533
  152SOL    HW1  776   0.154   0.153   1.728  1.6672 -0.1104  1.6169
  152SOL    HW2  777   0.308   0.159   1.674  1.1119 -0.9680 -0.0974
  153SOL     OW  778   0.939   4.246   5.231  0.0204 -0.0694  0.2067
  153SOL    HW1  779   0.932   4.165   5.173  0.2191  0.5820 -0.7412
  153SOL    HW2  780   0.870   4.241   5.304 -0.2641 -0.8631 -0.1029
  154SOL     OW  781   5.174   1.043   3.120  0.3439  0.3840  0.0856
  154SOL    HW1  782   5.200   0.949   3.140  0.0397  0.3864  0.5023
  154SOL    HW2  783   5.089   1.065   3.168  1.0081  1.2291  0.9132
  155SOL     OW  784   5.295   0.465   2.061  0.0143  0.5681  0.2191
  155SOL    HW1  785   5.390   0.497   2.066  0.0174  0.4072  2.5109
  155SOL    HW2  786   5.273   0.413   2.144 -1.6549 -0.6810 -0.9367
  156SOL     OW  787   5.184   5.524   2.651 -0.1955 -0.5131  0.5476
  156SOL    HW1  788   5.248   5.489   2.583 -0.7266  0.0558 -0.2586
  156SOL    HW2  789   5.198   5.476   2.738 -1.0498 -2.8785 -0.5563
  157SOL     OW  790   5.221   1.582   0.497  0.5721  0.7722  0.3485
  157SOL    HW1  791   5.181   1.507   0.443  1.6819  0.5984 -0.2578
  157SOL    HW2  792   5.231   1.552   0.592  1.7856 -0.1964 -0.0496
  158SOL     OW  793   0.181   2.329   0.373 -0.3809 -0.5095  0.2864
  158SOL    HW1  794   0.195   2.250   0.434  0.7112  0.8611  1.8995
  158SOL    HW2  795   0.264   2.344   0.319 -0.1866  0.1387  0.7509
  159SOL     OW  796   1.206   1.222   1.140 -0.0071 -0.0914  0.1163
  159SOL    HW1  797   1.129   1.175   1.097 -0.4058 -0.2756  0.9908
  159SOL    HW2  798   1.172   1.292   1.203  0.5616  0.4088 -0.1232
  160SOL     OW  799   0.102   1.297   1.005 -0.1236 -0.5043  0.2309
  160SOL    HW1  800   0.120   1.232   1.079 -0.5479  0.5296  1.2826
  160SOL    HW2  801   0.108   1.390   1.040  0.6715  0.0580 -1.2898
  161SOL     OW  802   5.403   4.676   1.967  0.5450 -0.6270 -0.1833
  161SOL    HW1  803   5.473   4.645   2.032  1.0136  1.1560  0.2165
  161SOL    HW2  804   5.419   4.633   1.878  2.7498  0.4138 -0.3625
  162SOL     OW  805   2.029   0.581   0.416 -0.1082 -0.0461  0.4023
  162SOL    HW1  806   2.010   0.483   0.413 -0.1713 -0.0129 -0.7938
  162SOL    HW2  807   2.088   0.601   0.494 -0.7271 -0.9161  1.1180
  163SOL     OW  808   2.016   5.097   5.370  0.1609 -0.2446  0.1132
  163SOL    HW1  809   2.109   5.126   5.396  0.2052 -1.3128  1.2780
  163SOL    HW2  810   1.950   5.134   5.436  0.0195 -1.2048  0.5334
  164SOL     OW  811   1.480   5.127   5.000 -0.0817 -0.1998  0.4967
  164SOL    HW1  812   1.438   5.049   5.046 -1.7319  0.2824 -0.1061
  164SOL    HW2  813   1.488   5.203   5.065  1.1617 -0.7132  0.9762
  165SOL     OW  814   0.310   2.257   2.420  0.4404  0.3030 -0.0525
  165SOL    HW1  815   0.351   2.194   2.354 -0.6617  0.1965 -0.6753
  165SOL    HW2  816   0.210   2.257   2.408  0.1747  0.0330  1.8445
  166SOL     OW  817   0.479   0.591   0.808 -0.0520  0.5322 -0.0123
  166SOL    HW1  818   0.434   0.589   0.897  1.4118  2.8058  0.8499
  166SOL    HW2  819   0.566   0.542   0.813  1.5736  3.2740  0.8345
  167SOL     OW  820   0.603   1.229   1.567 -0.0720 -0.3429  0.7425
  167SOL    HW1  821   0.513   1.200   1.598 -0.0432 -0.3311  0.8388
  167SOL    HW2  822   0.674   1.183   1.621 -0.0192 -0.3787  0.6450
  168SOL     OW  823   0.208   5.012   0.442 -1.2125  0.1496  0.2328
  168SOL    HW1  824   0.143   4.945   0.477 -1.3984  0.0152 -0.3620
  168SOL    HW2  825   0.205   5.094   0.500  1.0644 -1.3571  2.7264
  169SOL     OW  826   0.941   0.325   1.534  0.5394  0.1741 -0.9486
  169SOL    HW1  827   0.971   0.360   1.445  1.4701 -0.9298 -1.0836
  169SOL    HW2  828   0.872   0.254   1.521  1.5576 -0.8559 -0.8649
  170SOL     OW  829   0.960   5.319   1.267  0.1184  0.6087 -0.0755
  170SOL    HW1  830   0.994   5.352   1.355  1.4151  0.4958 -0.5136
  170SOL    HW2  831   1.004   5.232   1.244  0.9893  1.3893 -1.5297
  171SOL     OW  832   1.492   0.191   2.000 -0.3470  0.4618 -0.3142
  171SOL    HW1  833   1.580   0.238   2.003  0.8037 -1.6468  0.7934
  171SOL    HW2  834   1.429   0.235   2.064  0.4566  0.9649  0.1453
  172SOL     OW  835   1.374   0.824   2.004  0.4626  0.2591  0.1234
  172SOL    HW1  836   1.441   0.756   1.973  2.7485  1.1507  2.6241
  172SOL    HW2  837   1.346   0.803   2.097 -1.8391  0.6567 -0.4236
  173SOL     OW  838   0.893   1.434   4.588 -0.2671  0.1482  0.2415
  173SOL    HW1  839   0.880   1.453   4.491 -0.9461 -0.3852  0.2242
  173SOL    HW2  840   0.872   1.338   4.607  0.8372 -0.0147  0.7416
  174SOL     OW  841   0.610   0.998   0.967  0.5062  0.0764 -0.1373
  174SOL    HW1  842   0.665   1.025   1.046  0.4798 -1.8929  0.6175
  174SOL    HW2  843   0.634   1.055   0.888  1.3876  1.2991  0.9623
  175SOL     OW  844   0.473   0.550   2.792  0.1171 -0.4631  0.1932
  175SOL    HW1  845   0.500   0.456   2.772  0.0805 -0.6146  0.8515
  175SOL    HW2  846   0.438   0.556   2.885 -0.3039  0.1157  0.0036
  176SOL     OW  847   0.553   1.493   5.535 -0.4771  0.1689  0.8245
  176SOL    HW1  848   0.531   1.465   5.442 -2.9300  1.1508  1.0442
  176SOL    HW2  849   0.489   1.564   5.565 -0.3599 -0.7842  3.5933
  177SOL     OW  850   2.105   2.005   1.034 -0.1866  0.4737 -0.2315
  177SOL    HW1  851   2.098   2.092   0.985 -1.4192 -0.0568 -1.0642
  177SOL    HW2  852   2.094   1.930   0.969 -1.6950 -0.2576  0.8176
  178SOL     OW  853   1.083   2.016   4.270  0.1712 -0.0446 -0.6657
  178SOL    HW1  854   1.175   2.032   4.237 -0.0309 -0.4138 -1.4278
  178SOL    HW2  855   1.087   1.972   4.360  0.7263  0.4227 -0.4565
  179SOL     OW  856   0.799   0.598   0.487  0.0529 -0.0646  0.0983
  179SOL    HW1  857   0.860   0.664   0.531 -1.3479  1.3746  0.0090
  179SOL    HW2  858   0.751   0.545   0.556 -0.2889  0.4353  0.2522
  180SOL     OW  859   0.693   5.090   1.079  0.0807  1.0506  0.1974
  180SOL    HW1  860   0.608   5.066   1.125 -0.5997  0.0613 -1.4950
  180SOL    HW2  861   0.700   5.190   1.072 -0.2833  1.1866  1.4906
  181SOL     OW  862   0.320   1.903   0.096  0.4626 -0.6594 -0.0527
  181SOL    HW1  863   0.244   1.872   0.039 -0.3901 -0.7137  1.0934
  181SOL    HW2  864   0.400   1.844   0.081  0.5880 -0.0721 -1.9216
  182SOL     OW  865   0.630   1.056   4.372  0.2466  0.1678  0.1796
  182SOL    HW1  866   0.640   0.958   4.390  1.3941  0.3277  0.5204
  182SOL    HW2  867   0.630   1.106   4.458  1.8888  0.6207 -0.0343
  183SOL     OW  868   2.356   1.052   1.310 -0.4598 -0.0833  1.2791
  183SOL    HW1  869   2.377   0.962   1.348 -1.5291 -0.5593  0.7639
  183SOL    HW2  870   2.437   1.087   1.262 -0.4765 -1.4136  0.2283
  184SOL     OW  871   0.450   5.043   1.185 -0.1289  0.1502 -0.0808
  184SOL    HW1  872   0.446   5.079   1.278 -0.5265 -0.8789  0.3105
  184SOL    HW2  873   0.404   4.954   1.181 -1.3960  0.8144 -1.5651
  185SOL     OW  874   1.329   1.759   3.386 -0.2735 -0.5431  0.1681
  185SOL    HW1  875   1.425   1.735   3.395 -0.1367 -0.2336 -0.4214
  185SOL    HW2  876   1.321   1.854   3.355 -0.7931  0.1403  2.2607
  186SOL     OW  877   1.177   1.521   5.349  0.1250  0.0702 -0.2562
  186SOL    HW1  878   1.089   1.525   5.398 -0.5289 -1.2385 -1.2536
  186SOL    HW2  879   1.224   1.608   5.358 -0.6163  0.3340  1.5073
  187SOL     OW  880   0.706   1.100   2.434  0.0154  0.1936  0.1409
  187SOL    HW1  881   0.764   1.176   2.405  1.6443  0.2041  3.1118
  187SOL    HW2  882   0.738   1.015   2.391  2.3516  0.1948  1.7056
  188SOL     OW  883   1.540   2.169   0.900 -0.4413 -0.3337 -0.1729
  188SOL    HW1  884   1.626   2.131   0.868 -0.1238 -0.0120  0.2873
  188SOL    HW2  885   1.531   2.263   0.868 -1.2931 -0.8256 -1.4367
  189SOL     OW  886   0.281   2.720   5.406 -0.1079  0.5748  0.1804
  189SOL    HW1  887   0.347   2.645   5.393 -1.1271 -0.6246  1.6053
  189SOL    HW2  888   0.316   2.783   5.475  0.0201  0.5079  0.1774
  190SOL     OW  889   5.362   1.394   1.176  0.3248 -0.2083 -0.0199
  190SOL    HW1  890   5.417   1.457   1.230  0.6635 -0.5401  0.0245
  190SOL    HW2  891   5.418   1.352   1.105  0.2982 -1.0312  0.4290
  191SOL     OW  892   0.303   1.651   1.039  0.2284 -0.2055 -0.8182
  191SOL    HW1  893   0.332   1.576   0.980 -0.2699 -0.4211 -0.7915
  191SOL    HW2  894   0.227   1.621   1.097 -0.2950  0.4646 -1.1480
  192SOL     OW  895   0.293   5.479   2.633 -0.4890 -0.4038 -0.3121
  192SOL    HW1  896   0.320   5.556   2.575  1.3048 -0.0415  0.9308
  192SOL    HW2  897   0.347   5.399   2.610 -0.5351 -0.5630  0.1206
  193SOL     OW  898   0.275   1.299   0.588  0.2760  0.1771 -0.1831
  193SOL    HW1  899   0.216   1.378   0.570  0.9159  0.5600 -0.6581
  193SOL    HW2  900   0.219   1.221   0.614 -0.4409  0.5508 -0.5666
  194SOL     OW  901   0.171   1.562   0.135  0.0277  0.0400 -0.0799
  194SOL    HW1  902   0.185   1.576   0.233 -1.9613  2.0056  0.0190
  194SOL    HW2  903   0.133   1.645   0.095 -0.8970 -1.3053 -2.1779
  195SOL     OW  904   1.233   0.006   1.406  0.0162 -0.1673  0.9081
  195SOL    HW1  905   1.163  -0.044   1.457 -0.2649 -0.6689  0.0567
  195SOL    HW2  906   1.290   0.058   1.469 -0.4011 -0.6671  1.7091
  196SOL     OW  907   5.363   2.155   0.377 -0.0558  0.3970  0.2336
  196SOL    HW1  908   5.399   2.082   0.319  2.4393  2.3684 -0.8895
  196SOL    HW2  909   5.263   2.154   0.375 -0.0853 -2.5608 -0.1825
  197SOL     OW  910   5.327   0.397   2.348  0.1460 -0.1443 -0.0075
  197SOL    HW1  911   5.344   0.474   2.410 -0.6629  0.2097 -0.2166
  197SOL    HW2  912   5.317   0.313   2.401  1.4779 -0.2013  0.1950
  198SOL     OW  913   1.703   0.084   2.189 -0.6360 -0.0126 -0.0839
  198SOL    HW1  914   1.614   0.039   2.194 -0.5003 -0.8685 -3.3203
  198SOL    HW2  915   1.775   0.019   2.213 -0.6607 -0.4797 -1.2544
  199SOL     OW  916   5.488   1.585   5.354 -0.2318 -0.2845 -0.0911
  199SOL    HW1  917   5.547   1.579   5.273  1.1238  3.0446  0.5096
  199SOL    HW2  918   5.394   1.605   5.326 -0.3180 -1.6733 -0.8902
  200SOL     OW  919   5.021   5.406   1.983  0.2777 -0.7821  0.6050
  200SOL    HW1  920   4.997   5.442   2.073 -0.2864  1.3827 -0.3274
  200SOL    HW2  921   5.091   5.465   1.943  0.2578 -1.5056 -0.5178
  201SOL     OW  922   0.052   4.307   1.215 -0.2176  0.0340  0.4030
  201SOL    HW1  923   0.109   4.271   1.142 -0.7114 -2.3344  1.1117
  201SOL    HW2  924   0.063   4.251   1.297 -1.1003  1.4944  1.5837
  202SOL     OW  925   1.517   0.420   5.432  0.4341 -0.6894 -0.9464
  202SOL    HW1  926   1.583   0.392   5.501  0.0061  0.5287  0.0093
  202SOL    HW2  927   1.488   0.341   5.378  0.9533 -1.6298  0.1217
  203SOL     OW  928   0.396   2.683   1.109 -0.4745  0.0257  0.3312
  203SOL    HW1  929   0.351   2.679   1.020  0.1067  0.3832  0.0144
  203SOL    HW2  930   0.440   2.595   1.128 -0.8319 -0.1424  0.3947
  204SOL     OW  931   3.587   1.400   1.497 -0.3763 -0.0949  0.5968
  204SOL    HW1  932   3.665   1.356   1.542  0.0602  0.3112  0.2611
  204SOL    HW2  933   3.510   1.337   1.493  0.4898 -1.1386 -0.5946
  205SOL     OW  934   0.944   3.544   1.761 -0.4215  0.6621  0.3261
  205SOL    HW1  935   1.036   3.510   1.780 -0.6970  0.0088  0.5608
  205SOL    HW2  936   0.930   3.631   1.807  0.3048  1.1067 -0.2735
  206SOL     OW  937   5.497   1.762   0.934 -0.3207  0.1569 -0.0332
  206SOL    HW1  938   5.427   1.790   1.000  0.6903  2.8539  0.0129
  206SOL    HW2  939   5.464   1.777   0.841 -1.1745 -2.2347 -0.1888
  207SOL     OW  940   4.302   1.813   1.078  0.0414  0.2207 -0.4999
  207SOL    HW1  941   4.228   1.768   1.127  1.5640 -1.7019  0.1844
  207SOL    HW2  942   4.293   1.794   0.980 -0.0299 -0.5480 -0.3514
  208SOL     OW  943   1.386   1.157   2.214 -0.4668  0.0287 -0.1630
  208SOL    HW1  944   1.351   1.188   2.125 -0.1194  1.5992  0.2097
  208SOL    HW2  945   1.448   1.080   2.200 -3.6834 -2.6604 -0.8798
  209SOL     OW  946   1.007   5.241   0.834  0.1438 -0.4535 -0.2496
  209SOL    HW1  947   1.058   5.191   0.904  1.4481 -1.0219 -1.5489
  209SOL    HW2  948   1.034   5.338   0.836 -0.6734 -0.2347  0.7593
  210SOL     OW  949   5.079   0.171   1.370  0.4168 -0.3874  0.4355
  210SOL    HW1  950   5.140   0.183   1.292 -0.9240  0.0044 -0.5993
  210SOL    HW2  951   5.052   0.075   1.376  1.4191 -0.6390  1.1400
  211SOL     OW  952   0.605   5.303   1.498 -0.2388  0.1968  0.1401
  211SOL    HW1  953   0.536   5.238   1.467  0.5941 -0.9046  0.5579
  211SOL    HW2  954   0.631   5.362   1.422  0.5046 -1.3268 -0.8420
  212SOL     OW  955   1.895   2.195   0.157 -0.1061 -0.2570 -0.6291
  212SOL    HW1  956   1.835   2.274   0.145  0.9767  0.7770  0.5175
  212SOL    HW2  957   1.960   2.190   0.082 -0.6206 -0.4789 -1.0655
  213SOL     OW  958   4.628   0.052   5.447  0.1712  0.5537  0.0385
  213SOL    HW1  959   4.638  -0.039   5.487  1.4477  0.1230 -1.1892
  213SOL    HW2  960   4.677   0.056   5.360 -1.4455  1.8477 -0.8683
  214SOL     OW  961   1.567   2.380   4.885  0.6757 -0.8017 -0.1290
  214SOL    HW1  962   1.506   2.457   4.905 -0.5569 -0.9181 -2.9233
  214SOL    HW2  963   1.538   2.301   4.938  0.9860  0.1996  1.6105
  215SOL     OW  964   2.414   2.230   2.000 -0.0626 -0.2448  0.4199
  215SOL    HW1  965   2.471   2.149   1.985  0.0524  0.0181 -0.6103
  215SOL    HW2  966   2.322   2.214   1.965 -0.3841 -0.3434  1.2777
  216SOL     OW  967   2.511   0.923   0.384 -0.2166 -0.3790 -0.1344
  216SOL    HW1  968   2.421   0.916   0.428 -0.2310  0.7033  0.0367
  216SOL    HW2  969   2.571   0.981   0.439  0.2183 -0.1559 -0.8287
  217SOL     OW  970   1.346   0.052   5.164 -0.6815  0.5316  0.3935
  217SOL    HW1  971   1.351   0.127   5.098  1.7808 -0.6309 -0.8795
  217SOL    HW2  972   1.396   0.078   5.247  0.6030  0.1676 -0.2425
  218SOL     OW  973   1.347   1.614   2.137 -0.5921 -0.1380 -0.2141
  218SOL    HW1  974   1.341   1.529   2.085 -1.9480  0.4831 -1.1586
  218SOL    HW2  975   1.364   1.690   2.075  1.3753  0.2210  0.7083
  219SOL     OW  976   0.892   5.440   0.189 -0.7344 -0.4592  0.2670
  219SOL    HW1  977   0.869   5.372   0.259  3.2950 -1.3842  0.9220
  219SOL    HW2  978   0.935   5.519   0.232 -2.6174  1.2396 -0.8110
  220SOL     OW  979   4.740   0.997   1.958 -0.2235 -0.2713  0.4648
  220SOL    HW1  980   4.693   0.942   1.888  2.5158 -3.7888  1.1209
  220SOL    HW2  981   4.716   0.963   2.049 -0.2610  1.2627  1.0589
  221SOL     OW  982   2.642   5.340   0.232  0.0620 -0.5990  0.3468
  221SOL    HW1  983   2.659   5.380   0.322 -2.4112  2.1123 -0.2722
  221SOL    HW2  984   2.718   5.363   0.171  0.2082  0.3663  0.8792
  222SOL     OW  985   0.454   0.953   5.563  0.3973  0.2434 -0.4315
  222SOL    HW1  986   0.526   1.017   5.591 -0.0036  0.2410  0.6536
  222SOL    HW2  987   0.406   0.991   5.484  0.5664  0.9984 -0.1832
  223SOL     OW  988   2.686   1.002   5.294 -0.3884  0.2975 -0.2867
  223SOL    HW1  989   2.599   0.990   5.342 -0.5826 -2.4524 -1.1501
  223SOL    HW2  990   2.670   1.014   5.196  0.1730  1.4758 -0.2532
  224SOL     OW  991   1.110   0.936   1.623  0.2538  0.9452  1.3430
  224SOL    HW1  992   1.056   0.901   1.700 -0.0828  2.4060  1.8032
  224SOL    HW2  993   1.208   0.929   1.646  0.1534  1.4672  1.9479
  225SOL     OW  994   0.507   2.606   0.040 -0.3436  0.2160 -0.2279
  225SOL    HW1  995   0.538   2.701   0.036  0.1153  0.0655 -0.2536
  225SOL    HW2  996   0.517   2.564  -0.050  0.2585 -0.1059 -0.0187
  226SOL     OW  997   0.835   2.091   2.361 -0.0969  0.5868 -0.3222
  226SOL    HW1  998   0.839   2.060   2.456  0.5877  0.8620 -0.2522
  226SOL    HW2  999   0.785   2.024   2.305  1.9454 -1.0440 -0.3173
  227SOL     OW 1000   4.296   0.891   1.447 -0.2289  0.2036  0.5149
  227SOL    HW1 1001   4.214   0.885   1.390 -0.1578  0.5852  0.3689
  227SOL    HW2 1002   4.373   0.848   1.400 -0.0975  0.7924  0.1798
  228SOL     OW 1003   0.817   1.057   1.232  0.4096  0.2136  0.0666
  228SOL    HW1 1004   0.768   1.143   1.250  1.6836  1.3734 -1.6549
  228SOL    HW2 1005   0.888   1.073   1.163  0.5508 -2.3047 -0.4635
  229SOL     OW 1006   0.573   3.275   0.957 -0.0351 -0.5085 -0.3423
  229SOL    HW1 1007   0.654   3.301   1.010  0.1780 -1.5515 -0.1303
  229SOL    HW2 1008   0.596   3.197   0.899 -0.4570  0.1983 -1.4749
  230SOL     OW 1009   2.134   5.381   1.444  0.5334 -0.3876  0.3481
  230SOL    HW1 1010   2.143   5.345   1.352  1.8209 -1.8805  1.0237
  230SOL    HW2 1011   2.225   5.395   1.484  0.0195  1.0995  1.0930
  231SOL     OW 1012   2.131   0.656   0.641  0.6824  0.2110  0.6692
  231SOL    HW1 1013   2.170   0.566   0.659 -0.5660 -0.2089  1.4081
  231SOL    HW2 1014   2.062   0.676   0.710  0.1776  1.2719 -0.1247
  232SOL     OW 1015   1.046   4.566   4.377  0.4180  0.6561  0.4848
  232SOL    HW1 1016   0.999   4.523   4.300 -0.4238 -1.1901  1.9610
  232SOL    HW2 1017   1.003   4.654   4.397 -1.1896 -0.1171  0.5944
  233SOL     OW 1018   1.197   0.921   4.640 -0.0044 -0.0166 -0.2174
  233SOL    HW1 1019   1.237   1.004   4.679  0.9032 -0.5203 -0.0305
  233SOL    HW2 1020   1.116   0.944   4.587  0.1626  0.9702 -0.0593
  234SOL     OW 1021   1.751   2.877   1.313  0.3983 -0.2541 -0.4008
  234SOL    HW1 1022   1.653   2.859   1.321 -0.4283  2.2244 -3.3753
  234SOL    HW2 1023   1.791   2.817   1.244  1.2377 -1.7301  1.2679
  235SOL     OW 1024   4.535   0.385   1.282  0.2296 -0.6188  0.5345
  235SOL    HW1 1025   4.555   0.462   1.343 -0.1596 -0.3493  0.3257
  235SOL    HW2 1026   4.604   0.381   1.210 -0.6229  0.5182 -0.3855
  236SOL     OW 1027   5.383   1.215   3.105 -0.3807 -0.2704  0.2527
  236SOL    HW1 1028   5.359   1.288   3.042  0.1338 -0.1557  0.1808
  236SOL    HW2 1029   5.326   1.135   3.088 -1.3735  0.3195  0.7422
  237SOL     OW 1030   0.802   5.349   2.950 -0.1189  0.4642  0.2025
  237SOL    HW1 1031   0.731   5.374   2.884  0.5239  1.7412 -0.0422
  237SOL    HW2 1032   0.878   5.304   2.902 -0.7386 -0.8951  0.4629
  238SOL     OW 1033   1.394   0.783   4.172  0.1733 -0.0058  0.4514
  238SOL    HW1 1034   1.393   0.763   4.074  0.5402 -1.9218  0.7850
  238SOL    HW2 1035   1.319   0.845   4.194  0.4799  0.9735 -1.1228
  239SOL     OW 1036   1.242   2.309   2.448  0.0056  0.0675 -0.0245
  239SOL    HW1 1037   1.311   2.349   2.388  0.5956  0.0277  0.6121
  239SOL    HW2 1038   1.161   2.285   2.395  0.4301  0.2405 -0.7588
  240SOL     OW 1039   0.049   0.653   1.789 -0.2722 -0.3126 -0.5528
  240SOL    HW1 1040   0.103   0.724   1.835 -0.5847 -0.1042 -0.5089
  240SOL    HW2 1041   0.106   0.608   1.721  1.0476 -2.3627  1.7356
  241SOL     OW 1042   1.716   0.283   0.888 -0.2298  0.2287  0.4668
  241SOL    HW1 1043   1.801   0.320   0.851 -1.6501  1.5291 -1.6864
  241SOL    HW2 1044   1.706   0.188   0.858 -0.6562  0.8175 -1.3283
  242SOL     OW 1045   5.060   1.226   1.862 -0.1419 -0.0091  0.2330
  242SOL    HW1 1046   5.142   1.283   1.858  0.1122 -0.2570  1.6485
  242SOL    HW2 1047   5.001   1.257   1.936 -1.5130  0.3746 -0.9697
  243SOL     OW 1048   1.764   1.361   4.836  0.4933  0.2296  0.3712
  243SOL    HW1 1049   1.686   1.372   4.898  1.1072  0.7529  1.0527
  243SOL    HW2 1050   1.809   1.274   4.854 -1.6996 -1.5842 -2.0524
  244SOL     OW 1051   4.986   1.604   3.113 -0.4451  0.4602  0.0541
  244SOL    HW1 1052   4.896   1.566   3.089 -0.0571  0.8131 -2.2061
  244SOL    HW2 1053   4.979   1.704   3.116  0.2577  0.6535 -2.3559
  245SOL     OW 1054   4.991   2.957   0.230 -0.0246 -0.0645  0.6024
  245SOL    HW1 1055   4.901   2.996   0.210  0.5043  1.2456  0.6846
  245SOL    HW2 1056   5.031   2.921   0.146  0.3956  1.6022  0.0418
  246SOL     OW 1057   1.803   2.327   3.712  0.9645 -0.0678  0.2769
  246SOL    HW1 1058   1.783   2.231   3.692 -0.1242 -0.0752  1.3238
  246SOL    HW2 1059   1.736   2.363   3.776  2.1098  1.0377  0.9125
  247SOL     OW 1060   0.759   0.531   2.174 -0.3472 -0.1233  0.0505
  247SOL    HW1 1061   0.668   0.499   2.199 -0.3489  0.3184  0.6116
  247SOL    HW2 1062   0.755   0.575   2.083 -0.5050 -0.9355 -0.3412
  248SOL     OW 1063   1.150   0.353   4.331 -0.1249 -0.0792 -0.3185
  248SOL    HW1 1064   1.163   0.258   4.360 -0.9984  0.2234  1.1906
  248SOL    HW2 1065   1.054   0.378   4.344  0.2519  1.2359  0.0711
  249SOL     OW 1066   3.272   2.326   1.684  0.1996  0.2977  0.1567
  249SOL    HW1 1067   3.235   2.256   1.623 -1.2745  1.0460  0.1590
  249SOL    HW2 1068   3.208   2.343   1.759  2.2927 -1.1443  2.4125
  250SOL     OW 1069   4.629   1.720   1.631 -0.2087  0.2417  0.1524
  250SOL    HW1 1070   4.547   1.724   1.688 -1.4533  0.5083 -1.5577
  250SOL    HW2 1071   4.623   1.791   1.560  0.7111 -0.8160 -1.0227
  251SOL     OW 1072   1.888   0.861   3.947 -0.3740 -0.3350  0.4125
  251SOL    HW1 1073   1.915   0.840   4.042 -1.5540  1.2025  1.1293
  251SOL    HW2 1074   1.863   0.957   3.940  1.7426  0.1270 -1.9995
  252SOL     OW 1075   4.941   2.344   1.603 -0.4060 -0.0940 -0.0250
  252SOL    HW1 1076   4.900   2.417   1.658  0.9881  0.0002  0.9382
  252SOL    HW2 1077   4.877   2.317   1.531 -1.8462  0.5280  0.9725
  253SOL     OW 1078   4.043   5.192   2.187 -0.6901 -0.6544  0.7082
  253SOL    HW1 1079   4.029   5.187   2.088  1.0221  1.3291  0.2983
  253SOL    HW2 1080   4.032   5.101   2.227  0.7163 -1.9368 -1.6283
  254SOL     OW 1081   5.057   0.844   2.500  0.0822  0.4690 -0.4979
  254SOL    HW1 1082   4.965   0.818   2.530  0.1081 -0.6945 -1.3648
  254SOL    HW2 1083   5.068   0.821   2.403  1.4157  0.2404 -0.3137
  255SOL     OW 1084   0.168   0.063   0.283  0.0997 -0.1235 -0.3839
  255SOL    HW1 1085   0.200  -0.027   0.254  1.1539 -0.9074  2.8640
  255SOL    HW2 1086   0.218   0.133   0.231  1.8937 -1.3974 -0.4887
  256SOL     OW 1087   1.221   4.181   4.288 -0.1122  0.4190  0.0025
  256SOL    HW1 1088   1.217   4.205   4.191  0.9518  0.3438 -0.0699
  256SOL    HW2 1089   1.260   4.257   4.339  1.7671 -0.4984 -0.0028
  257SOL     OW 1090   5.286   5.121   1.091  0.6613  0.5465 -0.0018
  257SOL    HW1 1091   5.225   5.069   1.032 -1.5092  2.9189 -0.0432
  257SOL    HW2 1092   5.292   5.216   1.059  1.0685  1.4124  2.3631
  258SOL     OW 1093   1.331   2.502   2.862  0.6963  0.3307 -0.5198
  258SOL    HW1 1094   1.262   2.491   2.790  0.2280 -1.7133  0.1598
  258SOL    HW2 1095   1.288   2.490   2.951  1.8224 -0.4924 -0.0657
  259SOL     OW 1096   0.925   1.808   0.567  0.1269 -0.1850 -0.1148
  259SOL    HW1 1097   0.829   1.779   0.563 -0.3238  1.0948  0.7088
  259SOL    HW2 1098   0.929   1.908   0.571  1.5474 -0.1598 -1.2306
  260SOL     OW 1099   0.601   1.813   3.327  0.4250 -0.3205 -0.5538
  260SOL    HW1 1100   0.524   1.764   3.368  0.5611 -0.4803 -0.4915
  260SOL    HW2 1101   0.586   1.823   3.229 -1.5482  2.9413 -0.0860
  261SOL     OW 1102   2.801   0.117   2.978 -0.1521 -0.3947 -0.3266
  261SOL    HW1 1103   2.731   0.060   3.021  0.1706 -1.7619 -1.5394
  261SOL    HW2 1104   2.851   0.168   3.048 -2.1759  0.4385  0.5770
  262SOL     OW 1105   0.229   0.884   3.267 -0.0437 -0.2550  0.6380
  262SOL    HW1 1106   0.205   0.928   3.180 -0.3267 -1.2927  0.1809
  262SOL    HW2 1107   0.146   0.871   3.322 -0.4204 -2.6946 -0.4064
  263SOL     OW 1108   5.510   0.243   2.708  0.2174  0.0646 -0.1783
  263SOL    HW1 1109   5.601   0.280   2.689  0.7352  0.6058  2.9320
  263SOL    HW2 1110   5.447   0.275   2.637  1.6414  2.9336 -0.3098
  264SOL     OW 1111   0.699   0.614   1.910  0.6574 -0.0058 -0.4127
  264SOL    HW1 1112   0.615   0.643   1.863 -0.6044 -2.5012  0.1383
  264SOL    HW2 1113   0.774   0.609   1.844 -0.1141  0.3427 -1.3432
  265SOL     OW 1114   5.310   3.943   2.795 -0.3217 -0.2817 -0.5519
  265SOL    HW1 1115   5.274   4.006   2.726 -1.8265 -1.1755 -0.6463
  265SOL    HW2 1116   5.409   3.954   2.803 -0.1574  0.1162 -2.5851
  266SOL     OW 1117   0.837   2.818   2.595 -0.0451 -0.3637  0.0823
  266SOL    HW1 1118   0.898   2.766   2.655  0.9916 -0.9721 -1.4357
  266SOL    HW2 1119   0.871   2.814   2.502 -1.0066  1.4934 -0.3943
  267SOL     OW 1120   1.624   0.201   2.646 -0.3027  0.3295 -0.4873
  267SOL    HW1 1121   1.629   0.210   2.546  0.0431  0.3675 -0.4688
  267SOL    HW2 1122   1.644   0.106   2.671 -1.0933  0.1488 -0.4956
  268SOL     OW 1123   0.727   2.152   3.594  0.5024 -0.2620 -0.5054
  268SOL    HW1 1124   0.711   2.203   3.679  0.4707  0.5039 -0.9588
  268SOL    HW2 1125   0.656   2.176   3.527 -1.8710 -3.7485  0.4710
  269SOL     OW 1126   0.130   5.375   3.953 -0.5786 -0.0554  0.0414
  269SOL    HW1 1127   0.090   5.461   3.921 -2.3031 -0.9456 -0.2813
  269SOL    HW2 1128   0.091   5.299   3.902  0.9110 -1.0581  0.3302
  270SOL     OW 1129   1.411   5.429   2.541  0.1502 -0.4688 -0.3788
  270SOL    HW1 1130   1.416   5.335   2.575 -0.4686 -0.1468  0.6332
  270SOL    HW2 1131   1.360   5.486   2.606  2.1657  1.0140  0.0194
  271SOL     OW 1132   0.560   1.805   2.674  0.2094 -0.2986 -0.0455
  271SOL    HW1 1133   0.537   1.719   2.719 -0.3311  0.1057  0.4693
  271SOL    HW2 1134   0.493   1.823   2.602 -0.0569  0.0006  0.2719
  272SOL     OW 1135   1.137   5.451   3.274  0.0950  0.6312 -0.3844
  272SOL    HW1 1136   1.227   5.491   3.293  0.6409 -1.1594  1.2594
  272SOL    HW2 1137   1.145   5.386   3.198  0.5622 -0.5380  0.6254
  273SOL     OW 1138   1.530   5.412   2.294 -0.0981 -0.0533  0.0619
  273SOL    HW1 1139   1.447   5.395   2.240 -0.1664 -0.2610  0.2306
  273SOL    HW2 1140   1.504   5.441   2.386 -0.0163  2.8471 -0.7413
  274SOL     OW 1141   0.791   0.497   0.919 -0.7268  0.0468 -0.1062
  274SOL    HW1 1142   0.753   0.458   0.836 -1.8542 -4.2752  2.1482
  274SOL    HW2 1143   0.718   0.513   0.985  0.5483 -1.8453  1.8991
  275SOL     OW 1144   4.497   0.100   2.038 -0.2750 -0.0619 -0.2190
  275SOL    HW1 1145   4.480   0.019   1.982  3.0067 -1.6827  0.8644
  275SOL    HW2 1146   4.581   0.144   2.007 -1.0973  1.9781  0.3176
  276SOL     OW 1147   0.914   1.983   3.022 -0.9934  0.0433 -0.2302
  276SOL    HW1 1148   0.928   1.966   3.119  0.1989  0.6434 -0.2676
  276SOL    HW2 1149   0.963   1.914   2.968 -0.4831  0.5154 -0.3854
  277SOL     OW 1150   1.419   1.509   2.675 -0.4841 -0.1672 -0.1590
  277SOL    HW1 1151   1.344   1.453   2.640  0.8991 -1.9793 -0.3983
  277SOL    HW2 1152   1.397   1.541   2.767 -1.5274 -0.7148 -0.2047
  278SOL     OW 1153   3.710   2.042   3.298 -0.3374 -0.0216 -0.2280
  278SOL    HW1 1154   3.780   1.981   3.335  1.4541  1.1490 -1.5481
  278SOL    HW2 1155   3.699   2.026   3.200 -0.1489  1.4380 -0.5157
  279SOL     OW 1156   1.482   5.450   0.904 -0.1092  0.1915  0.2032
  279SOL    HW1 1157   1.503   5.480   0.996  1.3742 -1.1998  0.3731
  279SOL    HW2 1158   1.561   5.465   0.845 -1.0757  1.1759 -0.9082
  280SOL     OW 1159   4.562   4.125   1.890  0.3078  0.0505 -0.2089
  280SOL    HW1 1160   4.542   4.126   1.792  0.1855 -0.7442 -0.2041
  280SOL    HW2 1161   4.656   4.096   1.904  0.4433  0.5332 -0.1006
  281SOL     OW 1162   0.868   2.426   2.763  0.6922  0.6116  0.1958
  281SOL    HW1 1163   0.892   2.523   2.759 -1.3335  1.2380  1.7146
  281SOL    HW2 1164   0.931   2.379   2.824  1.1387  1.1625  0.1734
  282SOL     OW 1165   1.656   5.225   2.703 -0.3510  0.4782 -0.3364
  282SOL    HW1 1166   1.562   5.203   2.677 -0.5136  0.1482  0.4899
  282SOL    HW2 1167   1.719   5.196   2.631 -0.7958 -0.2470 -0.4426
  283SOL     OW 1168   2.424   1.334   2.202  0.6607 -0.3684 -0.3888
  283SOL    HW1 1169   2.391   1.404   2.264  2.6257  0.7792 -0.5499
  283SOL    HW2 1170   2.391   1.245   2.232 -0.0928  0.3776  1.1162
  284SOL     OW 1171   2.116   1.646   2.278  0.1828 -0.0502 -0.0835
  284SOL    HW1 1172   2.021   1.621   2.298 -0.2952 -0.2122 -2.2827
  284SOL    HW2 1173   2.131   1.741   2.305 -0.4583 -0.1403  0.6605
  285SOL     OW 1174   5.424   2.468   2.641 -0.2149 -0.8557 -0.1639
  285SOL    HW1 1175   5.475   2.442   2.723 -0.2943 -3.1284 -0.7580
  285SOL    HW2 1176   5.394   2.385   2.593 -2.4846  0.4164 -1.0737
  286SOL     OW 1177   2.020   0.376   1.670  0.5096  0.0276  0.1449
  286SOL    HW1 1178   1.980   0.338   1.586 -0.6341  2.7946 -0.6786
  286SOL    HW2 1179   2.049   0.301   1.730 -0.9693 -2.0677 -1.5868
  287SOL     OW 1180   1.067   0.917   2.449  0.1738  0.1894 -0.6498
  287SOL    HW1 1181   0.976   0.879   2.438 -0.0978  0.5888  0.1707
  287SOL    HW2 1182   1.099   0.901   2.542  1.3553 -0.8292 -1.1910
  288SOL     OW 1183   2.165   1.996   2.783  0.2786  0.4295  0.5125
  288SOL    HW1 1184   2.245   2.039   2.740  0.7501  0.5447  1.4863
  288SOL    HW2 1185   2.186   1.901   2.805 -0.5774 -0.1814 -1.1299
  289SOL     OW 1186   1.447   3.068   2.148  0.2059  0.0172 -0.1070
  289SOL    HW1 1187   1.439   3.010   2.229 -0.5790  0.4416  0.1371
  289SOL    HW2 1188   1.363   3.122   2.138  0.0160 -0.5261 -1.5947
  290SOL     OW 1189   0.504   0.461   2.282  0.2150 -0.2725  0.0865
  290SOL    HW1 1190   0.468   0.523   2.352 -0.6076 -0.3038 -0.2948
  290SOL    HW2 1191   0.434   0.445   2.213  0.3374 -1.7702  0.2663
  291SOL     OW 1192   1.566   3.396   1.531  0.3072  0.1689 -0.2137
  291SOL    HW1 1193   1.610   3.364   1.448  1.4868 -1.4546  0.9715
  291SOL    HW2 1194   1.523   3.318   1.578  2.3655  0.3771  2.2537
  292SOL     OW 1195   0.532   3.098   2.775  0.3656 -0.0791  0.1773
  292SOL    HW1 1196   0.485   3.011   2.790 -0.8718  0.8658  2.3555
  292SOL    HW2 1197   0.613   3.084   2.718  0.1053 -2.5979  0.3309
  293SOL     OW 1198   0.194   1.186   2.033  0.2660 -0.1406  0.6243
  293SOL    HW1 1199   0.126   1.256   2.055 -1.2895 -1.2265 -0.5035
  293SOL    HW2 1200   0.243   1.213   1.950 -2.0233 -1.3998 -1.2624
  294SOL     OW 1201   0.224   0.578   3.779 -0.5023 -0.0445 -0.2899
  294SOL    HW1 1202   0.164   0.512   3.825 -1.1329  1.2563  0.8351
  294SOL    HW2 1203   0.195   0.590   3.684 -1.3510 -0.2446 -0.0649
  295SOL     OW 1204   1.002   1.883   3.270 -0.0759  0.4709  0.0444
  295SOL    HW1 1205   1.039   1.796   3.237  1.4024  1.4673 -1.0391
  295SOL    HW2 1206   0.939   1.865   3.345 -0.9870 -1.6455 -1.1254
  296SOL     OW 1207   0.945   1.790   1.516  0.3772 -0.5258 -0.3279
  296SOL    HW1 1208   0.955   1.736   1.599 -0.0192  0.7813  0.5930
  296SOL    HW2 1209   1.006   1.754   1.445  1.4476 -1.0446  0.8347
  297SOL     OW 1210   0.854   4.277   1.444  0.2817  0.4254 -0.2255
  297SOL    HW1 1211   0.879   4.328   1.361  0.1502  0.9111  0.0285
  297SOL    HW2 1212   0.840   4.181   1.421  1.1768  0.3690 -0.5977
  298SOL     OW 1213   4.222   2.835   1.875  0.1598  0.3463 -0.3376
  298SOL    HW1 1214   4.305   2.806   1.924 -0.4511 -0.1466  0.4294
  298SOL    HW2 1215   4.214   2.783   1.791  0.6449  0.4183 -0.4352
  299SOL     OW 1216   1.281   0.659   1.510 -0.4953  0.3160  0.1388
  299SOL    HW1 1217   1.278   0.754   1.543 -0.2220 -0.1807  1.6646
  299SOL    HW2 1218   1.260   0.597   1.586  1.6088 -0.9617 -0.2381
  300SOL     OW 1219   4.564   1.741   1.103  0.1922  0.0263 -0.2719
  300SOL    HW1 1220   4.570   1.652   1.146  0.1499 -0.5437 -1.4010
  300SOL    HW2 1221   4.472   1.779   1.118  0.7910  0.7815  1.8519
  301SOL     OW 1222   2.022   0.656   5.241 -0.1876  0.1784  0.1758
  301SOL    HW1 1223   1.977   0.578   5.285  2.0562 -0.2997  1.7531
  301SOL    HW2 1224   1.981   0.670   5.151 -2.3072 -1.2512  0.8124
  302SOL     OW 1225   3.224   5.467   0.682 -0.1711 -0.2599 -0.2345
  302SOL    HW1 1226   3.186   5.415   0.759  0.5872  0.8120  0.8974
  302SOL    HW2 1227   3.313   5.503   0.707 -0.1470  0.5597 -1.4443
  303SOL     OW 1228   0.390   0.589   5.121  0.6159 -0.2717  0.4966
  303SOL    HW1 1229   0.427   0.548   5.037 -1.1778  1.2313 -1.1169
  303SOL    HW2 1230   0.314   0.532   5.155  0.0169  0.1721 -0.0826
  304SOL     OW 1231   3.291   4.886   1.878  0.2064 -0.2256 -0.1396
  304SOL    HW1 1232   3.210   4.847   1.922  0.1314  2.6673  2.6859
  304SOL    HW2 1233   3.358   4.814   1.862 -1.6820 -2.1948  0.3327
  305SOL     OW 1234   1.279   5.412   2.856  0.2305 -0.3186 -0.1383
  305SOL    HW1 1235   1.250   5.508   2.858 -2.2067 -0.9377 -1.2525
  305SOL    HW2 1236   1.367   5.403   2.903  0.2316  2.3310  0.5746
  306SOL     OW 1237   1.337   0.949   1.284  0.0232  0.2175 -0.0211
  306SOL    HW1 1238   1.340   0.934   1.185  1.6788  3.0707 -0.5291
  306SOL    HW2 1239   1.246   0.983   1.309  0.1025  1.1380 -0.8976
  307SOL     OW 1240   5.382   0.827   3.802 -0.5205 -0.1627  0.2644
  307SOL    HW1 1241   5.478   0.853   3.790 -1.3087  2.3325 -1.5557
  307SOL    HW2 1242   5.344   0.800   3.713 -1.9466  0.6971  0.5813
  308SOL     OW 1243   0.444   0.655   4.511 -0.8210  0.0796 -0.0436
  308SOL    HW1 1244   0.540   0.683   4.515 -1.0646  0.9177  0.3560
  308SOL    HW2 1245   0.434   0.574   4.454  0.2971 -0.7910  0.9676
  309SOL     OW 1246   1.125   0.393   2.803  0.5232 -0.1297 -0.2947
  309SOL    HW1 1247   1.062   0.374   2.878  1.9184  0.9877  1.2346
  309SOL    HW2 1248   1.099   0.339   2.723 -1.9753 -0.1611  0.4541
  310SOL     OW 1249   0.166   0.404   1.908  0.2004 -0.2636 -0.7134
  310SOL    HW1 1250   0.196   0.472   1.841 -1.9232 -0.2718 -1.7392
  310SOL    HW2 1251   0.098   0.344   1.867 -0.0163 -1.2719  1.0123
  311SOL     OW 1252   0.946   3.868   3.794  0.5987 -0.0022 -0.1211
  311SOL    HW1 1253   0.893   3.797   3.749 -0.4984  1.0242 -0.5222
  311SOL    HW2 1254   1.000   3.918   3.726 -0.4285  1.0182 -0.2327
  312SOL     OW 1255   0.295   1.999   2.681  0.6373 -0.0234  0.0758
  312SOL    HW1 1256   0.252   1.933   2.742  2.6847 -1.4848  0.0316
  312SOL    HW2 1257   0.320   1.953   2.595 -0.4235  1.5228 -1.1195
  313SOL     OW 1258   0.721   2.446   3.028 -0.2087  0.4993 -0.6280
  313SOL    HW1 1259   0.737   2.350   3.007 -0.4993  0.2860  0.0928
  313SOL    HW2 1260   0.627   2.471   3.002 -1.3210 -0.3334  2.2481
  314SOL     OW 1261   0.534   5.287   2.894  0.2065  0.4345  0.0959
  314SOL    HW1 1262   0.555   5.195   2.864  3.1856  0.8721  0.4751
  314SOL    HW2 1263   0.554   5.352   2.821 -1.2639  0.8633  0.0413
  315SOL     OW 1264   1.392   3.675   1.196 -0.2562  0.1224  0.2582
  315SOL    HW1 1265   1.392   3.651   1.293  2.3404 -1.1916  0.0051
  315SOL    HW2 1266   1.440   3.761   1.182  1.3154 -0.7687 -0.0290
  316SOL     OW 1267   1.036   2.241   2.916  0.1468 -0.2058 -0.4724
  316SOL    HW1 1268   1.022   2.154   2.962  0.2999 -0.3101 -0.6250
  316SOL    HW2 1269   1.096   2.229   2.837 -0.3429 -0.0846 -0.8708
  317SOL     OW 1270   1.016   5.281   3.537  0.0776 -0.1789 -0.1145
  317SOL    HW1 1271   0.990   5.187   3.561 -1.0836  0.1224 -0.1495
  317SOL    HW2 1272   0.980   5.304   3.447 -0.4300  0.5958  0.2707
  318SOL     OW 1273   5.268   1.107   2.432  0.6072 -0.0901  0.3159
  318SOL    HW1 1274   5.307   1.194   2.459  1.6569 -0.7339  0.9565
  318SOL    HW2 1275   5.170   1.118   2.415  0.8189  1.2966 -0.0941
  319SOL     OW 1276   4.136   5.447   1.888 -0.3054 -0.1783  0.1846
  319SOL    HW1 1277   4.098   5.360   1.858  0.1020 -0.6251  0.9334
  319SOL    HW2 1278   4.185   5.434   1.974  0.9060  0.5305 -0.3742
  320SOL     OW 1279   2.029   4.591   2.768 -0.2531 -0.2646 -0.1560
  320SOL    HW1 1280   2.082   4.662   2.814  1.7439 -1.5897 -0.2804
  320SOL    HW2 1281   2.081   4.505   2.767 -1.3800 -1.0187 -2.4476
  321SOL     OW 1282  -0.019   0.618   2.069 -0.8978 -0.2046  0.2867
  321SOL    HW1 1283   0.031   0.683   2.126 -1.5340  1.2103 -0.7208
  321SOL    HW2 1284   0.013   0.624   1.975 -0.0110 -2.3742  0.3945
  322SOL     OW 1285   1.711   1.351   2.632  0.4888 -0.1131 -0.5314
  322SOL    HW1 1286   1.739   1.421   2.698  0.0350 -1.2704  0.9362
  322SOL    HW2 1287   1.612   1.338   2.637  0.5509 -0.7739 -0.8653
  323SOL     OW 1288   1.896   5.466   2.500  0.0187 -0.7769  0.1416
  323SOL    HW1 1289   1.892   5.368   2.482  2.2528 -0.9622  0.3332
  323SOL    HW2 1290   1.981   5.487   2.550  0.8400  1.5493 -2.0245
  324SOL     OW 1291   5.423   0.974   1.827  0.1810 -0.2920  0.2342
  324SOL    HW1 1292   5.486   0.897   1.832  0.3167 -0.1806  0.2286
  324SOL    HW2 1293   5.403   1.007   1.919 -0.1648 -0.5677  0.2612
  325SOL     OW 1294   1.248   1.856   1.198  0.3613 -0.1532 -0.8561
  325SOL    HW1 1295   1.231   1.757   1.200  0.5664 -0.1831 -0.0296
  325SOL    HW2 1296   1.346   1.873   1.210  0.3039  0.1540 -0.8301
  326SOL     OW 1297   5.480   1.669   3.150 -0.5703 -0.4720  0.4544
  326SOL    HW1 1298   5.506   1.739   3.218  0.5898 -1.1593  0.7501
  326SOL    HW2 1299   5.389   1.634   3.171 -1.0135  0.6614  0.5290
  327SOL     OW 1300   0.654   5.347   0.981  0.1125  0.3185  0.2254
  327SOL    HW1 1301   0.645   5.444   0.962 -1.6683 -0.0325 -0.8772
  327SOL    HW2 1302   0.620   5.293   0.904 -0.6702 -1.1712  1.5420
  328SOL     OW 1303   2.393   1.273   3.718 -0.1991 -0.3972 -0.0414
  328SOL    HW1 1304   2.333   1.350   3.736  1.0758  0.7057 -0.3625
  328SOL    HW2 1305   2.465   1.300   3.654  0.4363 -1.7753  0.0354
  329SOL     OW 1306   1.460   2.373   2.259 -0.0629 -0.2286 -0.2014
  329SOL    HW1 1307   1.550   2.363   2.302  0.1867 -0.0164 -0.6732
  329SOL    HW2 1308   1.453   2.464   2.219 -0.4981 -0.2396 -0.1500
  330SOL     OW 1309   5.099   1.666   3.792  0.0798  0.1642  0.2861
  330SOL    HW1 1310   5.185   1.619   3.771 -1.0020 -1.7630 -0.0796
  330SOL    HW2 1311   5.103   1.759   3.757  2.3690  0.4580  1.1496
  331SOL     OW 1312   0.851   0.728   2.602 -0.2072 -0.2524  0.0807
  331SOL    HW1 1313   0.945   0.736   2.637  0.0956 -0.1881 -0.7329
  331SOL    HW2 1314   0.787   0.752   2.675  0.4710  3.8434 -0.4061
  332SOL     OW 1315   0.024   2.563   2.433 -0.1014  0.5130 -0.1216
  332SOL    HW1 1316  -0.048   2.548   2.500 -1.2697  0.2607 -1.3937
  332SOL    HW2 1317   0.028   2.485   2.371  2.1636 -0.1034  0.6811
  333SOL     OW 1318   1.799   4.477   2.609  0.4324  0.5800 -0.1344
  333SOL    HW1 1319   1.791   4.563   2.558 -0.0681  1.5149  1.4413
  333SOL    HW2 1320   1.859   4.491   2.688 -1.2213  0.0619  1.2693
  334SOL     OW 1321   2.310   0.203   3.966 -0.1586 -0.2475  0.3068
  334SOL    HW1 1322   2.320   0.290   3.917  0.3030 -1.3468 -1.6731
  334SOL    HW2 1323   2.214   0.175   3.966 -0.8096  1.5521  3.4416
  335SOL     OW 1324   5.072   0.557   1.906 -0.2350 -0.4647 -0.7038
  335SOL    HW1 1325   5.076   0.657   1.905 -0.0838 -0.4715 -1.7303
  335SOL    HW2 1326   5.153   0.522   1.954 -0.2072 -0.1020 -0.4739
  336SOL     OW 1327   2.029   5.397   3.709 -0.2752 -0.4460 -0.0127
  336SOL    HW1 1328   2.117   5.353   3.722  0.9310  1.7328 -0.3044
  336SOL    HW2 1329   2.010   5.405   3.611 -1.3481 -1.8435  0.0444
  337SOL     OW 1330   0.155   4.791   3.681  0.0402  0.2030  0.0004
  337SOL    HW1 1331   0.112   4.804   3.592 -0.4436  0.3922  0.2610
  337SOL    HW2 1332   0.215   4.868   3.701  0.0680  0.2111 -0.1123
  338SOL     OW 1333   0.389   2.777   2.367  0.1263 -0.1208 -0.8185
  338SOL    HW1 1334   0.342   2.856   2.406 -1.4867 -1.8118  0.8805
  338SOL    HW2 1335   0.476   2.806   2.327 -0.2172  2.4211  0.0988
  339SOL     OW 1336   1.361   2.757   2.955  0.8538 -0.0481 -0.2807
  339SOL    HW1 1337   1.364   2.665   2.914  0.1109 -0.5099  0.6709
  339SOL    HW2 1338   1.392   2.824   2.888  1.3783 -0.9871 -1.0071
  340SOL     OW 1339   1.559   4.370   2.849  0.1113  0.6020 -0.2096
  340SOL    HW1 1340   1.643   4.367   2.902  0.5308  0.5199 -0.8749
  340SOL    HW2 1341   1.486   4.411   2.905  0.0563 -1.1409  1.0659
  341SOL     OW 1342   5.456   1.834   1.395 -0.2307  0.2173  0.3310
  341SOL    HW1 1343   5.452   1.734   1.400  2.2713  0.0065 -0.2720
  341SOL    HW2 1344   5.470   1.871   1.487 -1.7901  0.0818  0.6381
  342SOL     OW 1345   5.430   4.895   2.247 -0.1383  0.5356 -0.5813
  342SOL    HW1 1346   5.414   4.804   2.284  2.5060  0.0183 -0.5641
  342SOL    HW2 1347   5.347   4.927   2.201 -1.4398 -1.4269  0.2738
  343SOL     OW 1348   1.348   0.129   2.705  0.2645 -0.2605 -0.2325
  343SOL    HW1 1349   1.306   0.136   2.795  0.5788 -1.6156  0.0348
  343SOL    HW2 1350   1.443   0.160   2.710 -0.4117  2.1221 -0.6865
  344SOL     OW 1351   0.903   2.053   1.441 -0.0317 -0.8986  0.3171
  344SOL    HW1 1352   0.957   2.085   1.363 -2.1662  0.6036 -0.6326
  344SOL    HW2 1353   0.939   1.965   1.472  2.0742 -0.6134 -1.1015
  345SOL     OW 1354   1.049   1.800   3.701  0.3089 -0.1718  0.1224
  345SOL    HW1 1355   1.136   1.823   3.744 -0.1847 -1.2202  1.7757
  345SOL    HW2 1356   1.008   1.721   3.748 -0.5150 -1.0915 -1.9948
  346SOL     OW 1357   1.951   1.605   4.080 -0.2207 -0.2930  0.6317
  346SOL    HW1 1358   1.909   1.540   4.143  1.4065  0.0416  2.1494
  346SOL    HW2 1359   2.043   1.628   4.112  0.0954  1.0579 -1.0774
  347SOL     OW 1360   0.794   3.896   4.958  0.0691 -0.6976 -0.0039
  347SOL    HW1 1361   0.869   3.871   5.019  1.2370  0.5879 -0.8672
  347SOL    HW2 1362   0.826   3.962   4.891 -1.7169 -0.5253 -0.7391
  348SOL     OW 1363   2.071   1.352   4.357 -0.3599 -0.3325  0.2225
  348SOL    HW1 1364   2.139   1.413   4.316 -2.4470  1.8425 -0.2536
  348SOL    HW2 1365   2.097   1.257   4.340  3.3143  0.2907  1.4480
  349SOL     OW 1366   0.551   5.431   1.725 -0.0270  0.1864 -0.0451
  349SOL    HW1 1367   0.464   5.392   1.755  0.8655 -1.6259  0.3619
  349SOL    HW2 1368   0.574   5.397   1.634  0.8275 -0.3771  0.3618
  350SOL     OW 1369   1.966   0.597   4.311  0.3459 -0.6203 -0.1430
  350SOL    HW1 1370   1.949   0.692   4.335 -0.3696 -0.8266  0.1976
  350SOL    HW2 1371   1.986   0.590   4.213  3.4748  0.2571  0.3254
  351SOL     OW 1372   2.091   1.494   2.730  0.2815  0.7457 -0.0419
  351SOL    HW1 1373   2.177   1.448   2.753 -0.7000 -0.4155  1.5003
  351SOL    HW2 1374   2.046   1.445   2.656  0.0775  0.2483  0.4050
  352SOL     OW 1375   0.748   4.308   3.379  0.2386  0.0776  0.2737
  352SOL    HW1 1376   0.692   4.265   3.309 -0.6222  0.8960  0.4384
  352SOL    HW2 1377   0.758   4.405   3.358 -1.3820  0.6907  2.0960
  353SOL     OW 1378   5.434   2.832   4.516  0.3099 -0.2372  0.8175
  353SOL    HW1 1379   5.341   2.825   4.479  1.0151 -0.2941 -1.0154
  353SOL    HW2 1380   5.465   2.741   4.544  0.3039 -0.4401  0.1723
  354SOL     OW 1381   5.518   0.214   1.761 -0.1595 -0.0627  0.1221
  354SOL    HW1 1382   5.443   0.245   1.702  0.0513 -0.8936 -0.5999
  354SOL    HW2 1383   5.482   0.154   1.832 -0.4504  1.1406  1.0186
  355SOL     OW 1384   3.059   0.273   4.364 -0.2523 -0.3141 -0.2756
  355SOL    HW1 1385   3.102   0.197   4.315  1.2519 -0.8724  1.7732
  355SOL    HW2 1386   2.987   0.237   4.424 -3.7186  0.5772 -3.4863
  356SOL     OW 1387   4.526   0.653   3.229 -0.0900 -0.8460  0.7376
  356SOL    HW1 1388   4.461   0.723   3.200  1.2719 -0.3378 -1.3322
  356SOL    HW2 1389   4.550   0.595   3.151  0.6850 -2.0706  1.8345
  357SOL     OW 1390   0.680   0.089   2.012 -0.3809 -0.5879  0.1054
  357SOL    HW1 1391   0.776   0.106   1.989 -0.1845  0.1996  1.3848
  357SOL    HW2 1392   0.625   0.167   1.982 -0.6153 -1.0105 -0.5698
  358SOL     OW 1393   0.609   1.139   3.215  0.1239 -0.1620 -0.1133
  358SOL    HW1 1394   0.515   1.175   3.213  0.8577  1.8890  0.3572
  358SOL    HW2 1395   0.610   1.053   3.265 -1.4967 -0.2079 -0.0963
  359SOL     OW 1396   0.592   0.868   2.211 -0.5255  0.2818  0.3381
  359SOL    HW1 1397   0.553   0.799   2.273  1.7852 -1.9468 -0.5290
  359SOL    HW2 1398   0.524   0.939   2.194 -2.3325 -0.6831  2.8828
  360SOL     OW 1399   1.738   0.866   3.668  0.7772 -0.4636 -0.0949
  360SOL    HW1 1400   1.783   0.952   3.643  0.6406 -0.6863 -1.1573
  360SOL    HW2 1401   1.807   0.798   3.693  0.8448  0.4754  2.7208
  361SOL     OW 1402   0.356   1.713   3.383 -0.0487  0.1709  0.3960
  361SOL    HW1 1403   0.334   1.669   3.470 -3.1409  1.8896  0.6249
  361SOL    HW2 1404   0.300   1.795   3.372  0.7156  0.3859 -2.9403
  362SOL     OW 1405   1.349   0.901   1.734 -0.6249  0.4540  0.6471
  362SOL    HW1 1406   1.442   0.903   1.698 -1.1215  2.3191 -0.7044
  362SOL    HW2 1407   1.352   0.890   1.834  0.9862 -0.2376  0.5530
  363SOL     OW 1408   3.857   0.140   1.452  0.2845  0.0705  0.3654
  363SOL    HW1 1409   3.764   0.145   1.415 -0.0593 -0.9578  1.0391
  363SOL    HW2 1410   3.857   0.170   1.547  0.4944 -0.6110  0.5897
  364SOL     OW 1411   1.266   2.014   3.327 -0.0930  0.0683  0.2366
  364SOL    HW1 1412   1.174   1.976   3.321 -0.8353  1.8696 -0.8577
  364SOL    HW2 1413   1.265   2.092   3.389  1.2574 -1.2559  2.0123
  365SOL     OW 1414   0.279   1.131   2.688 -0.4681  0.3340  0.0712
  365SOL    HW1 1415   0.335   1.050   2.669 -1.4141 -0.7234  1.5532
  365SOL    HW2 1416   0.276   1.189   2.607  2.1842  0.1031 -0.2853
  366SOL     OW 1417   4.898   5.216   3.595  0.2099 -0.0295 -0.0869
  366SOL    HW1 1418   4.978   5.166   3.562  1.3765  0.4943  1.7590
  366SOL    HW2 1419   4.837   5.236   3.519  1.8315 -0.4616 -1.5657
  367SOL     OW 1420   1.521   0.550   3.918 -0.3447 -0.0258  0.4009
  367SOL    HW1 1421   1.472   0.634   3.895  0.4091  0.0960 -0.8534
  367SOL    HW2 1422   1.457   0.474   3.918 -0.8557  0.3965  0.5688
  368SOL     OW 1423   1.588   5.148   2.221  0.1143 -0.3472  0.0974
  368SOL    HW1 1424   1.493   5.122   2.201 -0.5162  0.0049  2.3556
  368SOL    HW2 1425   1.589   5.239   2.262  1.5851  0.1605 -0.9984
  369SOL     OW 1426   0.104   0.655   1.045 -0.6598 -0.6898  0.0479
  369SOL    HW1 1427   0.134   0.749   1.061  0.2494 -1.2426  1.9615
  369SOL    HW2 1428   0.012   0.643   1.081 -0.6924 -0.5849 -0.0006
  370SOL     OW 1429   0.138   3.713   2.656 -0.3787  0.6328  0.4010
  370SOL    HW1 1430   0.122   3.740   2.751 -1.9415 -0.1017  0.3800
  370SOL    HW2 1431   0.198   3.780   2.611 -0.8831  1.8200  1.4630
  371SOL     OW 1432   3.630   0.320   2.116 -0.0302  0.2741 -0.0601
  371SOL    HW1 1433   3.691   0.331   2.194 -1.1269  0.1570  0.8371
  371SOL    HW2 1434   3.545   0.370   2.133  0.4564  1.8940 -2.0394
  372SOL     OW 1435   0.101   0.930   1.584 -0.2732  0.1313 -0.6535
  372SOL    HW1 1436   0.060   0.868   1.518  0.4560  0.5474 -1.5071
  372SOL    HW2 1437   0.193   0.898   1.608 -0.9175 -0.6054  0.9887
  373SOL     OW 1438   4.678   0.630   3.479 -0.0747  0.5507  0.2382
  373SOL    HW1 1439   4.772   0.657   3.498  0.2024 -0.7865  0.8780
  373SOL    HW2 1440   4.656   0.651   3.384  0.9634  0.6384  0.0049
  374SOL     OW 1441   0.378   0.260   3.623 -0.4455 -0.1235 -0.0851
  374SOL    HW1 1442   0.471   0.270   3.585  0.2130 -1.4729  1.0785
  374SOL    HW2 1443   0.311   0.283   3.552  0.7556  1.5638 -0.7462
  375SOL     OW 1444   3.717   2.109   4.240  0.2112 -0.0228  0.2073
  375SOL    HW1 1445   3.808   2.069   4.252 -0.2774 -1.1976  0.1494
  375SOL    HW2 1446   3.722   2.182   4.172  1.2294  0.3996  0.6986
  376SOL     OW 1447   0.461   4.641   1.290 -0.4983  0.0591 -0.0455
  376SOL    HW1 1448   0.405   4.719   1.264 -0.0701  0.6738  0.8573
  376SOL    HW2 1449   0.540   4.635   1.229 -1.3369 -0.6156 -1.1101
  377SOL     OW 1450   4.841   0.148   0.284 -0.1965  0.4735 -0.5174
  377SOL    HW1 1451   4.765   0.163   0.348  1.1600 -0.6845  1.4676
  377SOL    HW2 1452   4.855   0.050   0.271  0.6069  0.6814 -1.3170
  378SOL     OW 1453   3.350   5.075   4.543 -0.2556 -1.1223  0.7788
  378SOL    HW1 1454   3.315   5.092   4.635 -0.4299  1.7839  0.2786
  378SOL    HW2 1455   3.321   5.150   4.483  1.7286 -1.7870 -1.1080
  379SOL     OW 1456   0.509   4.728   1.963  0.4421 -0.6018  0.2462
  379SOL    HW1 1457   0.428   4.732   1.904 -0.4657 -1.1710  1.4282
  379SOL    HW2 1458   0.497   4.789   2.041  0.8486 -1.2115  0.8005
  380SOL     OW 1459   3.763   5.220   1.474  0.4315 -0.4913 -0.1414
  380SOL    HW1 1460   3.838   5.267   1.428 -0.7388  0.1343 -1.5107
  380SOL    HW2 1461   3.683   5.280   1.478 -0.5052 -1.6836 -0.1984
  381SOL     OW 1462   0.426   1.668   1.844  0.3389 -0.0540 -0.0514
  381SOL    HW1 1463   0.335   1.710   1.843  0.3699  0.0650 -1.9808
  381SOL    HW2 1464   0.466   1.674   1.753  1.1511 -2.5877  0.0647
  382SOL     OW 1465   0.471   3.229   3.029  0.1194  0.5547  0.7840
  382SOL    HW1 1466   0.516   3.188   2.949  0.2622 -0.5100  1.3879
  382SOL    HW2 1467   0.375   3.200   3.031  0.2513  0.1292  1.2797
  383SOL     OW 1468   1.844   1.474   5.246 -0.4932  0.2575 -0.2548
  383SOL    HW1 1469   1.906   1.532   5.300  0.1745 -0.1317 -0.5942
  383SOL    HW2 1470   1.897   1.403   5.200 -1.2142 -0.1523 -0.4576
  384SOL     OW 1471   2.738   1.542   2.622  0.0111  0.2119  0.3259
  384SOL    HW1 1472   2.641   1.522   2.619 -0.1139  0.8903 -0.5503
  384SOL    HW2 1473   2.775   1.515   2.711 -0.5011 -2.1053 -0.0968
  385SOL     OW 1474   0.789   3.250   1.174 -0.3004  0.0828  0.1046
  385SOL    HW1 1475   0.820   3.214   1.262 -3.0590  0.2770  1.2736
  385SOL    HW2 1476   0.843   3.330   1.150  0.8642 -0.2819  1.3535
  386SOL     OW 1477   0.681   1.801   2.983 -0.3602  0.9922  0.1997
  386SOL    HW1 1478   0.674   1.844   2.893 -1.7759  3.2287  1.2854
  386SOL    HW2 1479   0.775   1.806   3.015 -0.1418  1.5757 -0.5118
  387SOL     OW 1480   2.295   1.560   3.354  0.4687  0.3354  0.4425
  387SOL    HW1 1481   2.231   1.575   3.430  0.0622  2.0795 -0.1819
  387SOL    HW2 1482   2.254   1.594   3.269  2.1727  1.4549  0.0148
  388SOL     OW 1483   1.008   3.729   5.115 -0.2384  0.2440  0.5691
  388SOL    HW1 1484   0.922   3.683   5.139 -0.9930  1.4583  0.2939
  388SOL    HW2 1485   1.068   3.731   5.194 -0.8882  0.2759  1.0702
  389SOL     OW 1486   1.375   2.957   3.379 -0.2174 -0.0960  0.6211
  389SOL    HW1 1487   1.319   2.943   3.461 -0.5616  0.0203  0.4090
  389SOL    HW2 1488   1.380   2.872   3.327 -1.0157  0.1458  0.1354
  390SOL     OW 1489   5.236   2.052   4.273 -0.3831  0.1573  0.0772
  390SOL    HW1 1490   5.166   2.094   4.331  0.0486  2.3044 -0.8596
  390SOL    HW2 1491   5.217   1.954   4.263 -0.8181 -0.1871  3.2761
  391SOL     OW 1492   1.023   1.634   3.119  0.1958 -0.2713 -0.5298
  391SOL    HW1 1493   0.964   1.558   3.091  0.0643  0.6963 -3.1207
  391SOL    HW2 1494   1.028   1.702   3.046  1.1253  1.7675  1.3067
  392SOL     OW 1495   0.532   0.295   2.724  0.4987 -0.1903 -0.7838
  392SOL    HW1 1496   0.587   0.310   2.641 -2.3230 -0.5471 -2.8818
  392SOL    HW2 1497   0.486   0.206   2.718 -0.8842  0.3939  0.4729
  393SOL     OW 1498   2.571   1.197   4.809  0.3024 -0.0818 -0.4076
  393SOL    HW1 1499   2.502   1.250   4.858  1.6583  0.7784  0.6396
  393SOL    HW2 1500   2.527   1.147   4.735 -1.1446  2.0355 -1.0896
  394SOL     OW 1501   1.314   5.132   1.852  0.3262  0.8068  0.3285
  394SOL    HW1 1502   1.267   5.080   1.923 -0.8086  0.8703 -0.3431
  394SOL    HW2 1503   1.412   5.135   1.872  0.1491  0.0907  1.4121
  395SOL     OW 1504   5.418   5.194   3.301  0.1097  0.4938  0.5877
  395SOL    HW1 1505   5.328   5.158   3.275  0.3626  0.8317 -0.8866
  395SOL    HW2 1506   5.419   5.216   3.398 -0.1741 -3.1125  1.5339
  396SOL     OW 1507   0.191   2.197   0.950  0.5269  0.1436 -0.5102
  396SOL    HW1 1508   0.118   2.144   0.993  0.6131  1.1050  0.9045
  396SOL    HW2 1509   0.152   2.259   0.882  0.4621 -1.8778 -2.4273
  397SOL     OW 1510   0.938   2.522   2.459 -0.6157  0.2483 -0.7326
  397SOL    HW1 1511   0.847   2.484   2.474 -1.4037  2.0125 -0.7146
  397SOL    HW2 1512   0.930   2.620   2.440  1.4571  1.0663  1.9741
  398SOL     OW 1513   0.205   1.995   3.144  0.4150  0.6860 -0.5001
  398SOL    HW1 1514   0.166   1.967   3.232  0.3551 -0.7204 -0.9524
  398SOL    HW2 1515   0.267   2.072   3.158 -0.0706  0.8860  0.6787
  399SOL     OW 1516   2.753   2.362   1.430 -0.3368 -0.0744  0.1888
  399SOL    HW1 1517   2.788   2.271   1.456 -0.3462 -0.2978 -0.5623
  399SOL    HW2 1518   2.666   2.352   1.382  0.4114  0.2008 -1.2875
  400SOL     OW 1519   1.223   1.345   3.220  0.3042 -0.6536  0.4231
  400SOL    HW1 1520   1.285   1.298   3.284 -0.9624 -1.7778  0.8565
  400SOL    HW2 1521   1.142   1.376   3.269  0.1043  0.0005 -0.3116
  401SOL     OW 1522   1.183   4.857   3.208 -0.5604 -0.3245 -0.3055
  401SOL    HW1 1523   1.174   4.882   3.304  0.7893  0.0631 -0.2488
  401SOL    HW2 1524   1.139   4.769   3.191 -0.4383 -0.5995  0.7587
  402SOL     OW 1525   0.528   2.023   0.591 -0.0329 -0.0941 -0.0609
  402SOL    HW1 1526   0.492   2.053   0.680 -1.7803 -0.9795 -0.4171
  402SOL    HW2 1527   0.536   2.102   0.530 -0.4940  0.2784  0.3476
  403SOL     OW 1528   1.167   5.255   3.068  0.2001  0.2115 -0.9822
  403SOL    HW1 1529   1.165   5.161   3.034  0.5246  0.0677 -0.6112
  403SOL    HW2 1530   1.195   5.317   2.994 -1.9275  0.2947 -1.8072
  404SOL     OW 1531   1.912   1.656   2.832 -0.4207 -0.1662 -0.0389
  404SOL    HW1 1532   1.907   1.741   2.780 -1.9675 -1.0466 -1.4283
  404SOL    HW2 1533   1.991   1.602   2.801  0.1967  0.4587  0.4105
  405SOL     OW 1534   0.891   0.784   3.358 -0.1333  0.0761 -0.0774
  405SOL    HW1 1535   0.979   0.770   3.405 -1.4785 -1.6329  2.1282
  405SOL    HW2 1536   0.862   0.698   3.316 -0.4360  0.8281 -1.4625
  406SOL     OW 1537   0.161   2.786   0.689 -0.7808  0.0268  0.5920
  406SOL    HW1 1538   0.179   2.688   0.697  0.1508  0.1574  0.2234
  406SOL    HW2 1539   0.225   2.827   0.624 -2.2037  0.6134 -0.4902
  407SOL     OW 1540   5.270   0.805   2.649 -0.1828 -0.2548 -0.5921
  407SOL    HW1 1541   5.288   0.903   2.644 -2.1388  0.6370  4.2963
  407SOL    HW2 1542   5.178   0.786   2.614 -0.4068 -0.0580 -0.1164
  408SOL     OW 1543   1.778   4.964   2.236 -0.4847  0.0745  0.5733
  408SOL    HW1 1544   1.711   5.034   2.209 -0.3534  0.3328  0.9154
  408SOL    HW2 1545   1.755   4.930   2.327 -0.4845 -0.2522  0.4515
  409SOL     OW 1546   4.562   4.149   1.379 -0.3108  0.1284 -0.2953
  409SOL    HW1 1547   4.646   4.117   1.335  0.9716  2.5846  0.1830
  409SOL    HW2 1548   4.521   4.074   1.432  1.8323 -1.0072 -0.1355
  410SOL     OW 1549   1.213   1.581   1.127 -0.3662  0.2283  0.2706
  410SOL    HW1 1550   1.156   1.557   1.206 -0.6818  1.2371  0.3706
  410SOL    HW2 1551   1.155   1.617   1.054  0.2204  2.4979  0.8525
  411SOL     OW 1552   1.133   4.977   2.018 -0.4667  0.3772  0.1380
  411SOL    HW1 1553   1.070   4.946   1.948  1.2821 -0.8608 -0.9813
  411SOL    HW2 1554   1.098   4.953   2.108 -1.3687 -0.6565 -0.4735
  412SOL     OW 1555   4.352   0.003   2.275 -0.0388 -0.4459 -0.4150
  412SOL    HW1 1556   4.367   0.093   2.236  0.2758 -0.0737  0.5350
  412SOL    HW2 1557   4.404  -0.007   2.360 -1.0204 -1.0615  0.1480
  413SOL     OW 1558   0.311   1.418   3.745  0.1958 -0.5127  0.2283
  413SOL    HW1 1559   0.347   1.364   3.821  1.0349  0.6509  0.6859
  413SOL    HW2 1560   0.301   1.360   3.665  2.3376 -1.0981  0.3148
  414SOL     OW 1561   0.038   3.237   3.636 -0.3011 -0.7644  0.5916
  414SOL    HW1 1562  -0.043   3.209   3.584 -0.1615 -1.5157  0.7665
  414SOL    HW2 1563   0.064   3.330   3.610 -0.5068 -0.9589 -0.3432
  415SOL     OW 1564   1.045   2.279   3.293  0.4242 -0.6171 -0.6111
  415SOL    HW1 1565   1.100   2.257   3.374 -0.0043 -0.8741 -0.3907
  415SOL    HW2 1566   1.090   2.353   3.242  0.6467 -0.3856 -0.0884
  416SOL     OW 1567   0.823   0.866   2.353  0.2453  0.0547  0.2120
  416SOL    HW1 1568   0.820   0.807   2.433  0.3674 -0.2226  0.0132
  416SOL    HW2 1569   0.741   0.850   2.297 -0.4815  1.1484  0.9108
  417SOL     OW 1570   0.727   2.714   3.430 -0.1781 -0.3582  0.1885
  417SOL    HW1 1571   0.766   2.647   3.493 -1.3224  0.0753  1.4004
  417SOL    HW2 1572   0.629   2.726   3.449 -0.7519 -0.7116 -2.1249
  418SOL     OW 1573   2.192   1.696   3.114 -0.1254  0.2147  0.9562
  418SOL    HW1 1574   2.121   1.763   3.094  0.0673  0.2053  0.2073
  418SOL    HW2 1575   2.252   1.686   3.034 -0.2051 -0.9080  1.0190
  419SOL     OW 1576   1.743   0.363   0.047  0.4639 -0.4692  0.0799
  419SOL    HW1 1577   1.734   0.278   0.100 -0.3181 -0.4544 -0.0142
  419SOL    HW2 1578   1.791   0.432   0.103 -0.1892 -0.5123  0.7111
  420SOL     OW 1579   4.910   1.423   5.546 -0.2226 -0.1018 -0.4723
  420SOL    HW1 1580   5.009   1.429   5.560 -0.2056  0.4502 -0.7894
  420SOL    HW2 1581   4.884   1.327   5.531  0.8678  0.0260 -4.4690
  421SOL     OW 1582   2.979   1.219   4.519  0.8015 -0.3868 -0.5315
  421SOL    HW1 1583   3.045   1.143   4.515  0.5956 -0.7484  1.5058
  421SOL    HW2 1584   2.913   1.201   4.591 -1.0632  0.3797 -1.9804
  422SOL     OW 1585   2.713   0.958   3.137  0.4982  0.3976  0.1605
  422SOL    HW1 1586   2.728   0.921   3.228  0.8131 -0.0879 -0.0801
  422SOL    HW2 1587   2.797   0.948   3.083 -0.6849 -2.7640 -1.3600
  423SOL     OW 1588   0.433   1.361   3.092 -0.2130 -0.1885 -0.0507
  423SOL    HW1 1589   0.491   1.442   3.085 -2.2668  1.2997 -1.1350
  423SOL    HW2 1590   0.456   1.298   3.018  0.2648  0.2066 -0.2504
  424SOL     OW 1591   0.240   1.172   3.572 -0.4383 -0.0243  0.3530
  424SOL    HW1 1592   0.141   1.177   3.583 -0.6579 -2.7090  0.2035
  424SOL    HW2 1593   0.275   1.087   3.612  1.4643 -0.2617 -1.5626
  425SOL     OW 1594   3.477   0.650   1.386  0.5819  0.5950 -0.5847
  425SOL    HW1 1595   3.563   0.686   1.351  0.3543  0.5085 -1.2445
  425SOL    HW2 1596   3.434   0.593   1.316 -0.5464  1.5185 -0.6578
  426SOL     OW 1597   4.771   0.547   1.833 -0.2493  0.1388  0.0791
  426SOL    HW1 1598   4.793   0.467   1.776  1.7601  0.8038 -0.1663
  426SOL    HW2 1599   4.855   0.596   1.855 -1.3750  1.8946  0.6902
  427SOL     OW 1600   2.674   1.612   2.205  0.2309  0.4936  0.4232
  427SOL    HW1 1601   2.598   1.619   2.141 -1.5458  0.3956  2.4145
  427SOL    HW2 1602   2.731   1.533   2.180 -2.4790 -1.8321  0.9545
  428SOL     OW 1603   1.033   0.831   2.130  0.5057 -0.0598  0.0225
  428SOL    HW1 1604   0.945   0.862   2.094  0.6044 -1.0541 -1.1366
  428SOL    HW2 1605   1.035   0.842   2.229 -1.2640 -0.8396  0.1748
  429SOL     OW 1606   5.278   1.373   1.857 -0.5717 -0.2378  0.3874
  429SOL    HW1 1607   5.277   1.454   1.915 -1.1034  0.1163 -0.0998
  429SOL    HW2 1608   5.362   1.322   1.872 -0.2700  0.3582  0.7606
  430SOL     OW 1609   0.983   1.409   3.332  0.0467 -0.0813 -0.6574
  430SOL    HW1 1610   0.886   1.417   3.309 -0.6677  2.1115  2.4850
  430SOL    HW2 1611   1.014   1.493   3.376  3.8910 -0.0766 -2.8579
  431SOL     OW 1612   4.803   0.788   2.600 -0.0429 -0.1378 -0.0776
  431SOL    HW1 1613   4.715   0.773   2.554  0.2219 -0.0697 -0.6173
  431SOL    HW2 1614   4.805   0.737   2.686 -1.0452  0.7372  0.4888
  432SOL     OW 1615   4.858   0.725   2.126  0.1290 -0.7887  0.1426
  432SOL    HW1 1616   4.893   0.748   2.035  1.1959 -0.3643  0.6391
  432SOL    HW2 1617   4.780   0.784   2.148  1.0811  0.4828  0.2591
  433SOL     OW 1618   2.058   0.630   1.698  0.1472  0.0351  0.0378
  433SOL    HW1 1619   2.155   0.622   1.673 -0.0396 -0.5635 -0.5192
  433SOL    HW2 1620   2.018   0.538   1.708 -0.6976  0.2697 -1.0667
  434SOL     OW 1621   0.405   0.106   2.481 -0.3583 -0.0494  0.1676
  434SOL    HW1 1622   0.499   0.130   2.504  0.3154 -3.3096  1.3285
  434SOL    HW2 1623   0.395   0.104   2.381  0.3339  1.6931  0.0207
  435SOL     OW 1624   0.335   2.531   1.746 -0.1113 -0.0493  0.2509
  435SOL    HW1 1625   0.367   2.492   1.833  2.3226  1.7411  0.2820
  435SOL    HW2 1626   0.251   2.583   1.762  0.2464  0.1742  1.5611
  436SOL     OW 1627   2.368   1.499   4.559 -0.0051  0.0635  0.0720
  436SOL    HW1 1628   2.423   1.437   4.503 -0.1774 -1.5801  1.6019
  436SOL    HW2 1629   2.422   1.580   4.581  0.1154  0.6907 -2.2633
  437SOL     OW 1630   0.157   3.913   3.775 -0.7286  0.0603 -0.7135
  437SOL    HW1 1631   0.209   3.863   3.705 -0.1423  0.3528 -0.4982
  437SOL    HW2 1632   0.220   3.945   3.846 -1.2193  0.3809 -0.4171
  438SOL     OW 1633   0.772   1.958   2.638  0.0082  0.1440  0.4108
  438SOL    HW1 1634   0.764   2.050   2.676 -0.9528 -0.1670  0.9964
  438SOL    HW2 1635   0.681   1.917   2.630  0.4070 -0.6694 -0.0608
  439SOL     OW 1636   0.506   1.595   3.656 -0.1551 -0.5113 -0.0171
  439SOL    HW1 1637   0.467   1.507   3.683  1.8797 -1.4622  0.0361
  439SOL    HW2 1638   0.604   1.584   3.639  0.2941  1.9053  0.6337
  440SOL     OW 1639   2.732   0.158   3.710  0.1428  0.5335  0.4028
  440SOL    HW1 1640   2.741   0.195   3.617 -0.1012 -0.1086  0.1223
  440SOL    HW2 1641   2.815   0.109   3.735  0.6526  1.6368  0.9517
  441SOL     OW 1642   1.634   4.869   2.003 -0.7544  0.0962 -0.5991
  441SOL    HW1 1643   1.567   4.805   2.040  2.4024 -2.5548  1.0700
  441SOL    HW2 1644   1.697   4.897   2.075  2.0816 -0.4590 -2.6744
  442SOL     OW 1645   3.630   4.429   2.945 -0.1213 -0.2371 -0.0634
  442SOL    HW1 1646   3.702   4.360   2.955 -0.2804 -0.2769  0.8621
  442SOL    HW2 1647   3.628   4.488   3.026 -1.8308 -0.9131  0.4319
  443SOL     OW 1648   5.345   0.720   2.254  0.3536  0.6780 -0.1182
  443SOL    HW1 1649   5.367   0.667   2.172  0.6043 -1.7883  1.4450
  443SOL    HW2 1650   5.251   0.753   2.249  0.4030  0.6510 -1.4160
  444SOL     OW 1651   1.165   0.949   2.723 -0.4645  0.2489  0.4019
  444SOL    HW1 1652   1.194   0.979   2.814  0.1505 -1.2984  0.7518
  444SOL    HW2 1653   1.153   0.850   2.723 -0.9219  0.2817 -1.0851
  445SOL     OW 1654   1.033   5.284   4.029  0.1186  0.3315 -0.1292
  445SOL    HW1 1655   1.017   5.379   4.002 -0.6013  0.1577 -0.3433
  445SOL    HW2 1656   1.123   5.276   4.071  0.5872  0.9208 -0.9991
  446SOL     OW 1657   5.450   5.260   3.563  0.3942  0.7835  0.1490
  446SOL    HW1 1658   5.440   5.357   3.581 -1.1504  0.4631  1.2200
  446SOL    HW2 1659   5.521   5.222   3.623  0.2996  1.0700  0.4439
  447SOL     OW 1660   5.518   1.714   2.866 -0.0023  0.0313 -0.5562
  447SOL    HW1 1661   5.448   1.748   2.804 -1.1134 -2.8966 -1.0568
  447SOL    HW2 1662   5.480   1.708   2.958  0.1753  0.0837 -0.4793
  448SOL     OW 1663   4.336   0.504   2.839  0.0058  0.0050 -0.2675
  448SOL    HW1 1664   4.282   0.570   2.787 -0.0081  0.1965 -0.0135
  448SOL    HW2 1665   4.323   0.521   2.937 -1.7198 -1.7270 -0.1302
  449SOL     OW 1666   1.534   1.129   3.212  0.1474 -0.3055  0.0623
  449SOL    HW1 1667   1.533   1.220   3.169 -0.1613 -0.8299 -1.1033
  449SOL    HW2 1668   1.605   1.125   3.281  1.4518  0.2395 -1.2076
  450SOL     OW 1669   1.634   4.701   3.416  0.1828  0.2902 -0.0698
  450SOL    HW1 1670   1.590   4.790   3.404  0.6651  0.3780 -1.3691
  450SOL    HW2 1671   1.729   4.707   3.385 -0.2120 -1.0548 -1.6427
  451SOL     OW 1672   1.745   1.356   4.007  0.2104  0.4701 -0.4146
  451SOL    HW1 1673   1.785   1.399   4.088  0.8753 -0.4425 -0.2396
  451SOL    HW2 1674   1.673   1.415   3.970  1.4199  1.9556 -0.4790
  452SOL     OW 1675   4.815   0.883   1.074 -0.7491 -0.0267  0.2919
  452SOL    HW1 1676   4.812   0.852   1.169 -1.7969  1.2094  0.6842
  452SOL    HW2 1677   4.743   0.837   1.022 -1.1062  0.3713  0.4354
  453SOL     OW 1678   2.992   2.127   0.094 -0.5381  0.0553 -0.2879
  453SOL    HW1 1679   2.904   2.103   0.133 -0.0178 -3.2475 -0.9147
  453SOL    HW2 1680   2.989   2.121  -0.006 -0.1844  2.3758 -0.5177
  454SOL     OW 1681   1.161   3.967   4.052 -0.1748 -0.3753  0.4677
  454SOL    HW1 1682   1.173   4.062   4.025 -0.9922 -0.3058  0.3278
  454SOL    HW2 1683   1.121   3.915   3.976 -0.2538 -0.7043  0.7293
  455SOL     OW 1684   5.322   2.664   5.072  0.9049 -0.5787 -0.1353
  455SOL    HW1 1685   5.306   2.613   4.987  0.9097  3.4220 -2.7960
  455SOL    HW2 1686   5.269   2.622   5.146 -2.1495 -2.1564 -2.9455
  456SOL     OW 1687   5.400   0.379   3.765  0.3068  0.2936 -0.0564
  456SOL    HW1 1688   5.388   0.299   3.706 -0.4294  2.0037 -2.3310
  456SOL    HW2 1689   5.314   0.430   3.770  0.8752  1.1930  1.0096
  457SOL     OW 1690   2.755   1.824   4.712  0.1677 -0.1265  0.1101
  457SOL    HW1 1691   2.792   1.883   4.640 -0.9247 -0.4250 -0.7289
  457SOL    HW2 1692   2.785   1.730   4.697 -0.6051 -0.3064 -0.3640
  458SOL     OW 1693   0.014   4.924   5.222  0.5974 -0.1848  0.0996
  458SOL    HW1 1694  -0.037   4.956   5.302  2.3494  2.0296  0.4403
  458SOL    HW2 1695   0.112   4.927   5.242  1.0104 -1.3620 -1.5445
  459SOL     OW 1696   1.615   0.790   4.632  0.2367  0.6959 -0.0983
  459SOL    HW1 1697   1.614   0.803   4.533 -0.6808 -2.1871 -0.5805
  459SOL    HW2 1698   1.567   0.866   4.677 -1.4224  0.8973 -2.0685
  460SOL     OW 1699   5.321   1.791   2.688  0.4245 -0.3178  0.0890
  460SOL    HW1 1700   5.223   1.791   2.666  0.3634 -1.1253  0.3226
  460SOL    HW2 1701   5.345   1.878   2.732 -0.5658 -0.7625  1.5929
  461SOL     OW 1702   1.121   0.626   2.371  0.2221 -0.1521 -0.6875
  461SOL    HW1 1703   1.035   0.576   2.374  0.2750 -0.2650  2.1987
  461SOL    HW2 1704   1.156   0.638   2.464  1.4520  3.1407 -1.4133
  462SOL     OW 1705   5.433   3.081   2.763 -0.0237  0.9310  0.1957
  462SOL    HW1 1706   5.462   3.173   2.788 -1.5401  0.8834  2.3805
  462SOL    HW2 1707   5.462   3.016   2.833 -0.4512  0.0049 -0.4565
  463SOL     OW 1708   1.264   5.499   3.880  0.1080 -0.1882 -0.7835
  463SOL    HW1 1709   1.323   5.456   3.812  0.0362  0.5283 -1.3076
  463SOL    HW2 1710   1.289   5.466   3.971  2.0999  0.9621 -0.8654
  464SOL     OW 1711   5.059   3.412   0.347  0.1862  0.4173 -0.1889
  464SOL    HW1 1712   5.119   3.401   0.426 -1.0176  0.9459  0.8396
  464SOL    HW2 1713   5.037   3.509   0.335 -2.0195  0.0765  0.6871
  465SOL     OW 1714   1.208   0.421   3.893 -1.2035 -0.3999  0.1698
  465SOL    HW1 1715   1.289   0.363   3.887 -0.5982  0.5506 -1.4914
  465SOL    HW2 1716   1.200   0.459   3.985  0.0362 -0.7660  0.4429
  466SOL     OW 1717   3.313   4.853   0.024 -0.4289  0.7186 -0.1797
  466SOL    HW1 1718   3.339   4.783  -0.042  2.4730  1.6987 -0.2336
  466SOL    HW2 1719   3.241   4.818   0.084  0.7384 -2.2119 -0.3467
  467SOL     OW 1720   0.519   1.315   3.460 -0.2393  0.1598 -0.3112
  467SOL    HW1 1721   0.583   1.271   3.522  0.4100 -0.8233 -1.6267
  467SOL    HW2 1722   0.449   1.249   3.433  0.9830 -0.2735 -2.6394
  468SOL     OW 1723   1.504   2.150   5.037 -0.0064  0.1326 -0.1340
  468SOL    HW1 1724   1.510   2.167   5.136 -0.9617  0.4665 -0.1217
  468SOL    HW2 1725   1.589   2.108   5.006 -0.1777 -1.2067  1.0750
  469SOL     OW 1726   0.832   1.402   3.970  0.5634  0.0854  0.3254
  469SOL    HW1 1727   0.849   1.407   3.871 -0.0551 -1.5885  0.0981
  469SOL    HW2 1728   0.823   1.306   3.997 -2.2050  0.5764  1.4793
  470SOL     OW 1729   2.547   0.504   4.475  0.3623  0.2128  0.0739
  470SOL    HW1 1730   2.532   0.583   4.415 -0.0850 -0.2147 -0.3865
  470SOL    HW2 1731   2.645   0.490   4.487  0.4914 -0.2967 -1.3804
  471SOL     OW 1732   0.756   1.825   4.563 -0.4969 -0.3138 -0.1785
  471SOL    HW1 1733   0.752   1.876   4.649 -0.1693  0.2589 -0.4995
  471SOL    HW2 1734   0.833   1.760   4.567 -1.2297 -1.1770  0.4312
  472SOL     OW 1735   0.667   5.166   2.543 -0.2891 -0.3298 -0.3315
  472SOL    HW1 1736   0.570   5.141   2.543 -0.2112 -0.6642  0.7464
  472SOL    HW2 1737   0.676   5.263   2.521 -0.9137 -0.1594  0.1518
  473SOL     OW 1738   1.695   1.098   4.012 -0.2319  0.0413  0.0447
  473SOL    HW1 1739   1.607   1.069   3.975 -0.6195  0.8024  0.3422
  473SOL    HW2 1740   1.707   1.196   3.998  0.5892 -0.0557 -0.0175
  474SOL     OW 1741   1.735   0.551   4.081 -0.2757 -0.0142 -0.8737
  474SOL    HW1 1742   1.714   0.523   4.174  0.3858  1.4250 -0.2612
  474SOL    HW2 1743   1.652   0.550   4.026 -0.4809 -1.9402 -0.5882
  475SOL     OW 1744   1.374   0.886   3.198  0.4139 -0.4842 -0.0199
  475SOL    HW1 1745   1.441   0.960   3.194  1.6599 -1.3001  3.0731
  475SOL    HW2 1746   1.411   0.805   3.152  0.0568  0.0606 -1.3047
  476SOL     OW 1747   1.710   0.160   2.935 -0.2775 -0.2384  0.0060
  476SOL    HW1 1748   1.807   0.182   2.932  0.1448 -1.7905  0.9419
  476SOL    HW2 1749   1.686   0.103   2.857 -0.6985  1.0069 -0.7995
  477SOL     OW 1750   2.511   0.812   3.571  0.0888  0.0057  0.3947
  477SOL    HW1 1751   2.569   0.732   3.558 -0.9821 -1.0069  1.6428
  477SOL    HW2 1752   2.504   0.862   3.485  0.2712 -1.5884 -0.5848
  478SOL     OW 1753   1.792   0.600   4.697  0.3617 -0.9101 -0.4943
  478SOL    HW1 1754   1.734   0.681   4.706  0.4968 -0.6369 -1.8842
  478SOL    HW2 1755   1.888   0.627   4.703  0.4495 -0.7606 -2.1135
  479SOL     OW 1756   0.814   0.176   1.086  0.1199  0.6934  0.5607
  479SOL    HW1 1757   0.760   0.224   1.156  1.0291  2.5323  0.0676
  479SOL    HW2 1758   0.880   0.116   1.130  0.0468  1.1058  1.2490
  480SOL     OW 1759   2.288   1.458   3.955 -0.3503 -0.4929  0.3590
  480SOL    HW1 1760   2.387   1.447   3.947 -0.4206 -0.8508 -0.0116
  480SOL    HW2 1761   2.267   1.498   4.044  0.1935  0.4528  0.0794
  481SOL     OW 1762   0.284   1.059   5.391  0.2058  0.5616 -0.4647
  481SOL    HW1 1763   0.268   0.969   5.350  2.0506  0.2069 -0.4790
  481SOL    HW2 1764   0.259   1.130   5.325  0.6421  0.0285 -1.2206
  482SOL     OW 1765   0.710   5.476   3.518  0.3148 -0.0866 -0.6360
  482SOL    HW1 1766   0.768   5.498   3.596 -1.8413  2.0548  0.4945
  482SOL    HW2 1767   0.752   5.512   3.435  0.6395  1.4961  0.1595
  483SOL     OW 1768   2.396   0.045   4.394  0.4876  0.5031  0.4639
  483SOL    HW1 1769   2.326   0.022   4.462  2.9480 -1.2970  2.5742
  483SOL    HW2 1770   2.374  -0.001   4.308 -0.1866 -1.2675  1.5232
  484SOL     OW 1771   2.480   1.758   4.359  0.6269  0.2038 -0.3250
  484SOL    HW1 1772   2.569   1.729   4.325  1.9245  0.3801  2.6100
  484SOL    HW2 1773   2.442   1.828   4.298  2.5312  0.1961 -1.5891
  485SOL     OW 1774   4.284   0.305   1.201  0.8606  0.0116  0.1375
  485SOL    HW1 1775   4.376   0.327   1.234  0.6035 -0.2757  1.0744
  485SOL    HW2 1776   4.290   0.271   1.107  2.0750 -2.7219  1.0786
  486SOL     OW 1777   2.573   4.148   1.125 -0.1370 -0.1339 -0.3643
  486SOL    HW1 1778   2.583   4.049   1.121 -0.3133 -0.1298 -0.9017
  486SOL    HW2 1779   2.638   4.185   1.193  0.8997 -0.4786 -1.1443
  487SOL     OW 1780   3.275   1.385   2.383 -0.3206  0.3765  0.2683
  487SOL    HW1 1781   3.282   1.330   2.299 -0.7770 -0.4162  0.7312
  487SOL    HW2 1782   3.192   1.440   2.380  0.3744  1.4288 -0.4045
  488SOL     OW 1783   1.765   2.461   0.420 -0.0814  0.2106 -0.1746
  488SOL    HW1 1784   1.710   2.493   0.343  0.4999 -1.2063 -1.2297
  488SOL    HW2 1785   1.776   2.535   0.486 -0.1311  1.6575 -1.7104
  489SOL     OW 1786   1.280   1.819   5.329 -0.5619 -0.3007 -0.2073
  489SOL    HW1 1787   1.377   1.820   5.308 -0.2625  0.7080  1.1155
  489SOL    HW2 1788   1.230   1.875   5.263 -0.0652  0.2537 -0.1166
  490SOL     OW 1789   0.439   5.307   3.885  0.5344 -0.2599 -0.5183
  490SOL    HW1 1790   0.453   5.221   3.835 -0.5865 -0.8266  0.0910
  490SOL    HW2 1791   0.426   5.382   3.821 -0.5596 -0.9193 -1.0925
  491SOL     OW 1792   0.862   2.239   5.077 -0.4693 -0.0640  0.0409
  491SOL    HW1 1793   0.953   2.210   5.107 -0.6110  0.7374  1.3265
  491SOL    HW2 1794   0.858   2.339   5.077 -1.6993 -0.0977  1.1117
  492SOL     OW 1795   1.209   0.479   3.405 -0.1073 -0.3095  0.5979
  492SOL    HW1 1796   1.281   0.471   3.336 -0.2851 -2.4272  0.5814
  492SOL    HW2 1797   1.185   0.575   3.418 -0.4693  0.1696 -2.7235
  493SOL     OW 1798   3.894   1.060   4.205  0.5079 -0.0404  0.2164
  493SOL    HW1 1799   3.989   1.081   4.186  0.3154  1.0285  0.3910
  493SOL    HW2 1800   3.835   1.106   4.139  0.1068 -0.8186  0.0106
  494SOL     OW 1801   0.935   0.349   5.422  0.6553 -0.7370  0.1749
  494SOL    HW1 1802   0.968   0.406   5.497 -0.7543 -1.8052  1.6700
  494SOL    HW2 1803   0.987   0.263   5.421  1.8870 -0.0230 -1.2517
  495SOL     OW 1804   4.609   4.195   4.686 -0.1329  0.1295 -0.3546
  495SOL    HW1 1805   4.509   4.187   4.676 -0.0655 -0.4754 -0.5761
  495SOL    HW2 1806   4.653   4.160   4.604  0.2662  0.4950 -0.3008
  496SOL     OW 1807   0.521   1.884   3.718 -0.0514  0.1022 -0.7746
  496SOL    HW1 1808   0.516   1.784   3.712 -0.4235  0.1264 -0.9127
  496SOL    HW2 1809   0.608   1.911   3.759  0.7213 -0.2261 -2.1266
  497SOL     OW 1810   1.839   2.029   4.683 -0.0249 -0.1458  0.3862
  497SOL    HW1 1811   1.828   1.941   4.636 -1.7584  1.2172 -1.9992
  497SOL    HW2 1812   1.933   2.062   4.670  0.3197 -1.1071  0.3332
  498SOL     OW 1813   3.063   1.710   4.402  0.6107 -0.1831 -0.0210
  498SOL    HW1 1814   3.013   1.733   4.319  0.1567  1.1577  0.5907
  498SOL    HW2 1815   2.999   1.676   4.471  0.4283  1.7613  0.8467
  499SOL     OW 1816   1.785   2.681   5.108 -0.1203  0.4074 -0.0216
  499SOL    HW1 1817   1.822   2.767   5.073  0.5376  0.0277 -0.2842
  499SOL    HW2 1818   1.815   2.606   5.049  1.3497 -0.3003  1.5574
  500SOL     OW 1819   4.987   0.357   2.539  0.0224  0.0944  0.7147
  500SOL    HW1 1820   5.027   0.425   2.477 -3.7587  3.3119  1.4340
  500SOL    HW2 1821   4.927   0.297   2.487  1.6322 -1.3610  0.4430
  501SOL     OW 1822   1.475   1.347   0.077 -0.2578 -0.3588 -0.0325
  501SOL    HW1 1823   1.479   1.264   0.132 -0.1682 -0.8479 -0.7527
  501SOL    HW2 1824   1.552   1.349   0.013 -0.9888 -0.4185 -0.9548
  502SOL     OW 1825   0.763   1.929   3.837  0.1772 -0.4556 -0.2232
  502SOL    HW1 1826   0.827   1.968   3.771 -0.0468 -1.7637 -1.2447
  502SOL    HW2 1827   0.814   1.889   3.913  0.6759 -2.1925 -1.4136
  503SOL     OW 1828   0.547   5.136   3.725 -1.1302 -0.0265 -0.5493
  503SOL    HW1 1829   0.573   5.183   3.640 -0.6171 -1.7124 -1.3803
  503SOL    HW2 1830   0.625   5.082   3.758 -2.0785 -1.3383 -0.3858
  504SOL     OW 1831   2.121   1.786   0.863  0.0685 -0.0502 -0.0663
  504SOL    HW1 1832   2.188   1.791   0.789 -1.0610 -0.2456 -1.1249
  504SOL    HW2 1833   2.052   1.717   0.841 -1.2818  1.1285  0.3150
  505SOL     OW 1834   2.828   1.385   2.429 -0.0089 -0.4031  0.8084
  505SOL    HW1 1835   2.773   1.422   2.504 -1.8458 -1.8795  0.2534
  505SOL    HW2 1836   2.771   1.375   2.348  1.4189 -0.8232 -0.1766
  506SOL     OW 1837   5.501   0.939   3.317 -0.2662  0.4224  0.0347
  506SOL    HW1 1838   5.407   0.925   3.286 -0.2649  0.5635 -0.0341
  506SOL    HW2 1839   5.539   1.020   3.272 -0.0177  0.2037 -0.1489
  507SOL     OW 1840   2.108   2.029   5.168  0.3582  0.7334 -0.2027
  507SOL    HW1 1841   2.077   2.119   5.197  1.1623  0.1771  2.6297
  507SOL    HW2 1842   2.167   1.989   5.238 -1.2034 -2.6426 -0.6209
  508SOL     OW 1843   0.403   5.317   5.077 -0.3941 -0.2793 -0.3756
  508SOL    HW1 1844   0.483   5.361   5.118 -0.0515 -1.5923  0.4226
  508SOL    HW2 1845   0.376   5.367   4.995  0.7040  0.6989 -0.1653
  509SOL     OW 1846   1.344   0.753   3.882 -0.1053 -0.3743  0.3911
  509SOL    HW1 1847   1.336   0.850   3.857 -1.6481 -0.6772 -0.3787
  509SOL    HW2 1848   1.257   0.707   3.867  0.2111 -1.6133  2.0369
  510SOL     OW 1849   0.073   0.644   2.971  0.5078 -0.0048 -0.5155
  510SOL    HW1 1850   0.102   0.549   2.981 -1.1122 -0.5766 -0.9185
  510SOL    HW2 1851   0.080   0.691   3.059  0.3975 -0.7712 -0.0941
  511SOL     OW 1852   3.012   4.694   0.506 -0.0706  0.1251  0.0284
  511SOL    HW1 1853   3.046   4.644   0.586  0.0804 -0.2651 -0.2776
  511SOL    HW2 1854   3.086   4.750   0.468  0.0412 -0.1851 -0.2186
  512SOL     OW 1855   0.098   0.693   4.006 -0.4051 -0.4418  0.0420
  512SOL    HW1 1856   0.137   0.609   3.969  0.7689 -0.2473  0.7963
  512SOL    HW2 1857   0.098   0.764   3.936 -0.2817 -0.7210 -0.2434
  513SOL     OW 1858   4.843   0.345   1.665  0.4220 -0.7505  0.6721
  513SOL    HW1 1859   4.931   0.301   1.682  0.4224 -0.2576  2.1372
  513SOL    HW2 1860   4.796   0.300   1.589  2.3034 -0.4660 -0.7125
  514SOL     OW 1861   1.338   0.716   4.458 -0.3544  0.0730  0.4167
  514SOL    HW1 1862   1.317   0.784   4.528  1.6837  1.3163 -0.1164
  514SOL    HW2 1863   1.345   0.760   4.369  1.2222 -0.7634  0.0968
  515SOL     OW 1864   0.724   5.113   5.076  0.3864  0.8718 -0.4103
  515SOL    HW1 1865   0.649   5.096   5.139  0.3780  1.7760 -0.1697
  515SOL    HW2 1866   0.744   5.029   5.025 -0.8856  0.6611 -0.5951
  516SOL     OW 1867   1.241   1.207   4.743  0.4122 -0.0665 -0.0261
  516SOL    HW1 1868   1.224   1.257   4.658  0.3832 -1.6934 -1.0118
  516SOL    HW2 1869   1.188   1.248   4.817 -1.0291  0.2369 -1.1881
  517SOL     OW 1870   0.898   4.838   4.319 -0.2035 -0.4236  0.3638
  517SOL    HW1 1871   0.810   4.875   4.349 -0.3955  2.0191 -2.7161
  517SOL    HW2 1872   0.970   4.867   4.383 -1.2355  0.1128  1.3164
  518SOL     OW 1873   3.266   0.461   3.534  0.1378 -0.1559 -0.2936
  518SOL    HW1 1874   3.268   0.544   3.590  0.0181  1.1647 -2.1245
  518SOL    HW2 1875   3.172   0.441   3.507  0.2343 -0.5372 -0.3504
  519SOL     OW 1876   1.956   1.585   4.599 -0.2348 -0.3341 -0.3614
  519SOL    HW1 1877   2.050   1.599   4.567 -1.3007  0.5381 -3.4354
  519SOL    HW2 1878   1.929   1.490   4.580 -0.1688 -0.4328  0.0267
  520SOL     OW 1879   0.276   4.526   4.550 -0.9252 -0.1860  0.4243
  520SOL    HW1 1880   0.182   4.501   4.529 -1.8165  2.7271  0.5193
  520SOL    HW2 1881   0.317   4.572   4.470 -0.1012 -0.0939  0.8887
  521SOL     OW 1882   0.624   0.185   4.528 -0.6477 -0.0969  0.1987
  521SOL    HW1 1883   0.685   0.159   4.453 -3.9449  0.6119 -3.0723
  521SOL    HW2 1884   0.543   0.127   4.526 -0.3546 -0.8805  4.2032
  522SOL     OW 1885   3.015   0.596   5.364  0.0771  0.4944 -0.5154
  522SOL    HW1 1886   2.918   0.596   5.337 -0.3135 -0.4407  0.7784
  522SOL    HW2 1887   3.048   0.502   5.369  0.7141  0.7536  0.2097
  523SOL     OW 1888   2.073   1.314   4.872  0.2316 -0.5628 -0.2786
  523SOL    HW1 1889   2.089   1.345   4.778 -0.4899 -0.3003 -0.3289
  523SOL    HW2 1890   2.159   1.285   4.914  0.3659 -1.9539 -1.4681
  524SOL     OW 1891   0.275   5.088   2.836  0.5955  0.2551  0.2419
  524SOL    HW1 1892   0.215   5.080   2.916  1.1805  1.7786  0.8771
  524SOL    HW2 1893   0.367   5.060   2.862  0.2152 -2.2004 -0.7644
  525SOL     OW 1894   4.177   0.224   2.875 -0.0917 -0.9200 -0.3395
  525SOL    HW1 1895   4.162   0.313   2.831  1.3727  0.3828  1.6074
  525SOL    HW2 1896   4.115   0.215   2.954  0.1010 -1.4236 -0.2423
  526SOL     OW 1897   1.406   3.754   3.890 -0.1731 -0.0607 -0.2892
  526SOL    HW1 1898   1.308   3.737   3.905 -0.2423  1.1075  0.7546
  526SOL    HW2 1899   1.459   3.684   3.937 -0.5070  0.1171  0.3743
  527SOL     OW 1900   5.119   0.556   4.012 -0.0247 -0.5539  0.0649
  527SOL    HW1 1901   5.206   0.604   4.024  0.4193 -1.1689 -0.5981
  527SOL    HW2 1902   5.130   0.461   4.041 -0.3356 -0.7646 -0.4884
  528SOL     OW 1903   0.937   0.923   5.339 -0.2590 -0.0919  0.0606
  528SOL    HW1 1904   0.990   0.840   5.320  0.5320  0.0824  1.3701
  528SOL    HW2 1905   0.994   0.987   5.390 -1.3112  0.6883  0.2880
  529SOL     OW 1906   2.061   0.957   2.819  0.4730  0.6476  0.1877
  529SOL    HW1 1907   2.085   0.959   2.916 -1.3292 -1.4627  0.7739
  529SOL    HW2 1908   1.975   1.004   2.805  0.1199 -0.0838 -0.1562
  530SOL     OW 1909   0.229   3.786   3.558  0.2866  0.6803  0.0418
  530SOL    HW1 1910   0.301   3.718   3.553 -0.4788 -0.0755 -1.0236
  530SOL    HW2 1911   0.263   3.874   3.525  0.6826  0.3007 -0.5722
  531SOL     OW 1912   1.119   0.195   0.986  0.0875 -0.1704 -0.1571
  531SOL    HW1 1913   1.106   0.294   0.986 -1.6787 -0.3718 -1.3296
  531SOL    HW2 1914   1.081   0.155   1.070  2.8151  0.2900  1.4509
  532SOL     OW 1915   0.005   0.110   4.901  0.1956 -0.2656 -0.3276
  532SOL    HW1 1916   0.104   0.100   4.892  0.3868  0.8949  0.3861
  532SOL    HW2 1917  -0.021   0.204   4.883 -0.9195 -0.7728 -1.5237
  533SOL     OW 1918   2.732   4.425   3.824 -0.3418  0.5166  0.4901
  533SOL    HW1 1919   2.655   4.489   3.830  0.3418  1.4165 -0.1667
  533SOL    HW2 1920   2.818   4.476   3.825  0.2143 -0.3800 -0.2035
  534SOL     OW 1921   0.163   1.676   2.536  0.3253  0.2998  0.5609
  534SOL    HW1 1922   0.249   1.670   2.485 -0.8042  0.3116 -1.4539
  534SOL    HW2 1923   0.167   1.754   2.599  2.0850 -0.2328  1.1633
  535SOL     OW 1924   1.347   0.942   3.497 -0.0934 -0.2384 -0.6224
  535SOL    HW1 1925   1.394   0.868   3.546 -0.7962 -1.0497 -1.1400
  535SOL    HW2 1926   1.378   0.944   3.402 -1.9876 -1.6522 -1.3376
  536SOL     OW 1927   0.053   2.095   2.936  0.2790 -0.4374 -0.3189
  536SOL    HW1 1928   0.134   2.137   2.894  1.1107 -2.0940 -0.4353
  536SOL    HW2 1929   0.082   2.032   3.008 -0.9351 -0.9343 -0.2533
  537SOL     OW 1930   1.303   5.284   4.097  0.6018  0.5232  0.3891
  537SOL    HW1 1931   1.391   5.251   4.062  0.9340  0.2425  1.4410
  537SOL    HW2 1932   1.314   5.377   4.132  0.6686  0.2249  1.1828
  538SOL     OW 1933   2.270   1.948   0.161  0.2100 -0.2656 -0.3511
  538SOL    HW1 1934   2.294   1.855   0.133  0.0170  0.4022 -3.0510
  538SOL    HW2 1935   2.220   1.994   0.086 -1.2937  1.4433  1.5628
  539SOL     OW 1936   0.248   0.831   4.942  0.3699  0.0543  0.0091
  539SOL    HW1 1937   0.337   0.872   4.963  0.5865 -1.1339  1.4880
  539SOL    HW2 1938   0.260   0.755   4.879  0.3179  0.2645 -0.2594
  540SOL     OW 1939   1.564   2.002   4.614 -0.6224  0.3920 -0.1907
  540SOL    HW1 1940   1.569   1.905   4.590  1.2521  0.1108  1.1272
  540SOL    HW2 1941   1.656   2.040   4.622 -1.2200  3.0585 -3.3820
  541SOL     OW 1942   1.697   2.493   4.253  0.0627 -0.7146  0.0170
  541SOL    HW1 1943   1.767   2.440   4.205 -1.0012 -2.9458  0.8214
  541SOL    HW2 1944   1.676   2.450   4.341 -0.6284  1.2536  0.8768
  542SOL     OW 1945   1.710   1.663   5.118  0.2990 -0.2901  0.0862
  542SOL    HW1 1946   1.762   1.592   5.165  0.4632 -0.8196 -0.8782
  542SOL    HW2 1947   1.759   1.692   5.037  0.1436  0.8110  0.3751
  543SOL     OW 1948   2.808   1.568   5.069 -0.3296 -0.0305 -0.4518
  543SOL    HW1 1949   2.894   1.601   5.109  0.7516 -0.1196 -2.5892
  543SOL    HW2 1950   2.786   1.478   5.106  1.5291 -0.8546 -1.2531
  544SOL     OW 1951   0.661   0.954   5.234 -0.1835  0.2136  0.0602
  544SOL    HW1 1952   0.638   1.047   5.263 -0.4900  0.0542  0.3388
  544SOL    HW2 1953   0.759   0.940   5.243 -0.1956  0.3640  0.4552
  545SOL     OW 1954   1.831   2.751   2.785 -0.3684  0.4815  0.0636
  545SOL    HW1 1955   1.819   2.654   2.805  0.2797  0.0378 -1.5824
  545SOL    HW2 1956   1.924   2.767   2.752  0.2009  2.0059  2.1495
  546SOL     OW 1957   0.639   4.334   4.929 -0.1236 -0.5298 -0.4419
  546SOL    HW1 1958   0.739   4.328   4.936 -0.2880 -1.7317  2.3498
  546SOL    HW2 1959   0.604   4.250   4.886 -0.0255 -1.0348  0.4464
  547SOL     OW 1960   0.558   2.171   0.952  0.0530  0.4053 -0.3753
  547SOL    HW1 1961   0.483   2.127   0.902 -2.2208  1.1753  2.1568
  547SOL    HW2 1962   0.581   2.258   0.908  0.1256 -0.2452 -1.6854
  548SOL     OW 1963   1.818   1.104   4.785 -0.0163  0.4321  0.1321
  548SOL    HW1 1964   1.879   1.061   4.718 -1.2356 -0.0641 -0.6877
  548SOL    HW2 1965   1.756   1.035   4.822  0.1956  0.8395  1.2906
  549SOL     OW 1966   5.208   1.867   2.060  0.0938  0.7222  0.5840
  549SOL    HW1 1967   5.109   1.867   2.049  0.2735  1.2424 -1.4539
  549SOL    HW2 1968   5.232   1.895   2.152 -1.6070  4.4623  0.0503
  550SOL     OW 1969   1.926   0.493   2.744 -0.1843  0.1397 -0.1730
  550SOL    HW1 1970   1.979   0.577   2.728  0.7009 -0.4362 -0.3262
  550SOL    HW2 1971   1.903   0.451   2.656 -0.9011  0.3847 -0.1060
  551SOL     OW 1972   2.130   0.371   3.074 -0.3454  0.4050 -0.2397
  551SOL    HW1 1973   2.108   0.426   3.155  0.0010 -1.4447  1.1796
  551SOL    HW2 1974   2.225   0.341   3.079 -0.7155 -0.9097 -0.5872
  552SOL     OW 1975   1.126   3.630   4.870 -0.0388 -0.5635  0.3800
  552SOL    HW1 1976   1.148   3.689   4.792 -1.3604  1.2710  1.3227
  552SOL    HW2 1977   1.092   3.685   4.945 -1.5779 -2.5810  1.2628
  553SOL     OW 1978   1.882   4.987   2.963 -0.1660  0.2340 -0.7542
  553SOL    HW1 1979   1.832   5.071   2.943  0.7266  0.8502 -0.4416
  553SOL    HW2 1980   1.975   5.009   2.991 -0.6769 -0.6958  1.9656
  554SOL     OW 1981   1.453   2.240   3.667 -0.5917 -0.2617  0.0111
  554SOL    HW1 1982   1.528   2.190   3.623 -0.6497 -0.8858  0.5945
  554SOL    HW2 1983   1.489   2.321   3.713 -0.5793  0.5953 -1.4522
  555SOL     OW 1984   0.908   4.755   0.839 -0.0163 -0.7239  0.0045
  555SOL    HW1 1985   0.938   4.773   0.745  0.6893  1.6032  0.6211
  555SOL    HW2 1986   0.825   4.807   0.857 -0.7979 -2.0356  0.3742
  556SOL     OW 1987   2.310   1.549   4.912 -0.0120 -0.2690  0.3725
  556SOL    HW1 1988   2.274   1.628   4.861 -0.0479 -0.9710 -0.7352
  556SOL    HW2 1989   2.408   1.561   4.927 -0.0180 -0.0092  0.2168
  557SOL     OW 1990   1.999   0.016   5.320  0.1328  0.2984 -0.5812
  557SOL    HW1 1991   2.012  -0.053   5.248  1.2454  0.5217 -0.6117
  557SOL    HW2 1992   2.015   0.107   5.283  0.8940  0.4039 -0.0240
  558SOL     OW 1993   2.376   0.517   3.594  0.1463 -0.0113 -0.1608
  558SOL    HW1 1994   2.364   0.456   3.516 -0.3232 -0.2020  0.0596
  558SOL    HW2 1995   2.317   0.597   3.583 -0.0118 -0.0961  0.0558
  559SOL     OW 1996   1.244   0.840   5.049 -0.4006 -0.1165  0.1140
  559SOL    HW1 1997   1.262   0.757   5.103  0.0757  0.3625  0.7115
  559SOL    HW2 1998   1.249   0.920   5.109 -0.1795  0.3994 -0.5836
  560SOL     OW 1999   1.070   0.691   5.284 -0.0256 -0.0312 -0.7438
  560SOL    HW1 2000   1.163   0.660   5.265  0.1675 -1.4913  2.1139
  560SOL    HW2 2001   1.004   0.633   5.236  0.4479 -2.6467  1.5802
  561SOL     OW 2002   1.554   5.305   4.416  0.1725  0.6860  0.1811
  561SOL    HW1 2003   1.456   5.301   4.436  0.3415 -0.2555  0.9116
  561SOL    HW2 2004   1.602   5.240   4.475  1.1318  0.4836 -0.8022
  562SOL     OW 2005   0.671   0.287   5.444 -0.3524 -0.1602 -0.3099
  562SOL    HW1 2006   0.769   0.305   5.450 -0.8500  3.2229 -0.4031
  562SOL    HW2 2007   0.645   0.272   5.348 -0.1490  0.8137 -0.5299
  563SOL     OW 2008   4.563   5.498   4.616  0.0202 -0.2104 -0.2156
  563SOL    HW1 2009   4.479   5.548   4.639 -0.4873 -1.9305  2.0305
  563SOL    HW2 2010   4.639   5.533   4.669  0.8193  1.3757 -2.2842
  564SOL     OW 2011   1.992   5.124   3.891  0.4085  0.0339  0.2548
  564SOL    HW1 2012   1.963   5.179   3.970  0.7077  0.5627  0.0012
  564SOL    HW2 2013   2.002   5.184   3.811  1.3404 -0.2924  0.1242
  565SOL     OW 2014   2.018   0.034   0.461  0.3587 -0.3367 -0.3859
  565SOL    HW1 2015   1.993  -0.033   0.391 -0.3192  0.3969 -0.8685
  565SOL    HW2 2016   2.116   0.031   0.476  0.3975 -1.1185 -0.7311
  566SOL     OW 2017   0.818   1.784   0.274  0.4332  0.0944 -0.4001
  566SOL    HW1 2018   0.831   1.776   0.373 -2.0893 -0.2796 -0.0291
  566SOL    HW2 2019   0.840   1.877   0.245  0.8327  0.3215  0.5803
  567SOL     OW 2020   2.364   1.307   4.975 -0.0467  0.5146  0.8255
  567SOL    HW1 2021   2.323   1.287   5.064 -0.2306  2.1365  1.1405
  567SOL    HW2 2022   2.346   1.403   4.951  0.5837  0.2906 -0.6481
  568SOL     OW 2023   0.352   5.413   0.524 -0.6100  0.1017  0.7695
  568SOL    HW1 2024   0.395   5.397   0.435 -0.8572  0.6618  0.5454
  568SOL    HW2 2025   0.342   5.512   0.539 -1.6011 -0.0130  0.9183
  569SOL     OW 2026   0.826   0.520   3.266  0.4797 -0.0900 -0.2839
  569SOL    HW1 2027   0.882   0.441   3.290  0.2221 -0.0663  0.4170
  569SOL    HW2 2028   0.759   0.493   3.197  0.0012 -0.6340  0.3883
  570SOL     OW 2029   0.982   5.478   0.549 -0.1530  0.0692  0.0060
  570SOL    HW1 2030   0.928   5.423   0.613 -0.4218 -1.3825 -1.4185
  570SOL    HW2 2031   1.075   5.443   0.546 -0.3952 -0.5304 -1.1146
  571SOL     OW 2032   4.858   1.000   4.639  0.1184  0.0442 -0.0443
  571SOL    HW1 2033   4.942   0.986   4.587  0.3885 -0.9969  0.6525
  571SOL    HW2 2034   4.880   1.023   4.734 -0.3751 -0.2508  0.1481
  572SOL     OW 2035   2.301   5.361   4.854  0.3112 -0.2734  0.3952
  572SOL    HW1 2036   2.396   5.385   4.833 -0.4392  1.2110 -1.7347
  572SOL    HW2 2037   2.241   5.434   4.822 -1.4746 -0.2961  3.3919
  573SOL     OW 2038   1.519   0.500   2.310  0.0921 -0.6189 -0.2305
  573SOL    HW1 2039   1.541   0.552   2.227 -1.3870 -0.0342 -0.2855
  573SOL    HW2 2040   1.561   0.545   2.389 -0.8800  0.4902 -0.3229
  574SOL     OW 2041   0.957   4.451   4.139  0.3476  0.0447  0.1038
  574SOL    HW1 2042   1.032   4.387   4.121 -1.6258 -2.1855 -0.7451
  574SOL    HW2 2043   0.879   4.401   4.176 -0.6771  2.3285  1.2406
  575SOL     OW 2044   0.224   0.395   5.198 -0.4646 -0.0511 -0.1349
  575SOL    HW1 2045   0.244   0.299   5.217 -0.4192  0.1833  1.0811
  575SOL    HW2 2046   0.127   0.412   5.213 -0.0969  0.5521  1.8642
  576SOL     OW 2047   0.156   3.604   4.722 -0.7026  0.2028 -0.1463
  576SOL    HW1 2048   0.137   3.631   4.816  1.1207 -0.3673  0.4213
  576SOL    HW2 2049   0.070   3.583   4.675 -1.5616 -0.8914  1.8108
  577SOL     OW 2050   1.147   0.494   4.914  0.7459 -0.0986 -0.5834
  577SOL    HW1 2051   1.096   0.580   4.924  1.0452 -0.1686  2.5965
  577SOL    HW2 2052   1.239   0.514   4.879  0.2954  0.6378 -1.4053
  578SOL     OW 2053   2.937   0.685   4.677  0.1292 -0.3554  0.6209
  578SOL    HW1 2054   2.920   0.591   4.645  1.3964 -0.8357  1.3036
  578SOL    HW2 2055   2.989   0.734   4.607  0.3973 -0.4940  0.7242
  579SOL     OW 2056   0.328   0.649   4.768 -0.0345 -0.1671 -0.1744
  579SOL    HW1 2057   0.375   0.615   4.849  1.0389  2.5606  0.4490
  579SOL    HW2 2058   0.390   0.645   4.689 -0.5411 -1.3133 -0.5394
  580SOL     OW 2059   0.670   0.781   4.854 -0.4506  0.6503  0.0486
  580SOL    HW1 2060   0.581   0.800   4.895  0.0958  0.0886  1.5483
  580SOL    HW2 2061   0.739   0.842   4.893 -0.0761  0.7591 -0.7539
  581SOL     OW 2062   5.456   2.358   5.220 -0.0352  0.4513 -0.2881
  581SOL    HW1 2063   5.366   2.390   5.249  0.4813  1.5451  0.1384
  581SOL    HW2 2064   5.455   2.343   5.121 -0.6704  0.5084 -0.2968
  582SOL     OW 2065   2.245   5.346   5.143  0.0146  0.3736 -0.3243
  582SOL    HW1 2066   2.298   5.366   5.060 -0.2478 -0.9824 -0.8528
  582SOL    HW2 2067   2.285   5.395   5.221  0.1185  1.8583 -1.2810
  583SOL     OW 2068   5.409   5.408   5.306 -0.3633 -0.8921 -0.0108
  583SOL    HW1 2069   5.503   5.379   5.287  0.2993  0.0566  1.5700
  583SOL    HW2 2070   5.373   5.460   5.228  1.1092  0.2894  0.0509
  584SOL     OW 2071   0.186   1.148   4.139  0.1567  0.4283  0.1905
  584SOL    HW1 2072   0.132   1.130   4.222  0.2414 -0.2406  0.1081
  584SOL    HW2 2073   0.125   1.146   4.060  0.3087 -0.4070  0.0893
  585SOL     OW 2074   1.139   0.289   0.444  0.1806 -0.2486  0.1253
  585SOL    HW1 2075   1.060   0.347   0.423 -0.2098 -1.2910 -1.5033
  585SOL    HW2 2076   1.141   0.269   0.542 -2.2663 -1.1365  0.0767
  586SOL     OW 2077   0.067   5.145   3.799 -0.0487 -0.0786 -0.3405
  586SOL    HW1 2078   0.144   5.089   3.767  0.1532  0.0164 -0.0262
  586SOL    HW2 2079   0.000   5.086   3.845  0.0177 -0.1057 -0.2791
  587SOL     OW 2080   0.056   5.198   5.559  0.2979 -0.1640  0.0456
  587SOL    HW1 2081  -0.028   5.238   5.593  0.9601  1.1578  0.1741
  587SOL    HW2 2082   0.070   5.225   5.464  1.6454  1.4849  0.6514
  588SOL     OW 2083   4.917   1.412   0.599 -0.0820 -0.3510 -0.5637
  588SOL    HW1 2084   4.893   1.434   0.504 -0.0932 -0.6612 -0.6347
  588SOL    HW2 2085   4.994   1.468   0.628  0.2760 -0.6444 -0.9398
  589SOL     OW 2086   1.390   0.143   5.406  0.7294  0.5717  0.7029
  589SOL    HW1 2087   1.366   0.191   5.490 -1.4826 -3.2229  2.4933
  589SOL    HW2 2088   1.427   0.052   5.428  2.0255  0.1879 -2.4510
  590SOL     OW 2089   2.906   0.090   5.311 -0.1724 -0.2464 -0.3242
  590SOL    HW1 2090   2.909   0.115   5.214  0.4479 -1.0917 -0.5335
  590SOL    HW2 2091   2.853   0.007   5.322 -1.9012  0.8883  0.3213
  591SOL     OW 2092   3.775   5.026   3.226 -0.3214  0.2977  0.1654
  591SOL    HW1 2093   3.862   5.019   3.275 -0.1241  0.2164 -0.1921
  591SOL    HW2 2094   3.788   4.997   3.131 -1.0080 -0.9072  0.4195
  592SOL     OW 2095   0.712   5.324   3.897  0.1946 -0.4767  0.1933
  592SOL    HW1 2096   0.735   5.227   3.889  1.0310 -0.1552 -2.9672
  592SOL    HW2 2097   0.615   5.334   3.918 -0.0002 -2.0129  0.1323
  593SOL     OW 2098   1.881   0.847   0.617 -0.0550 -0.1782  0.1934
  593SOL    HW1 2099   1.933   0.890   0.690  1.3836 -1.1327 -0.2155
  593SOL    HW2 2100   1.905   0.890   0.529 -0.5344 -0.1221  0.0875
  594SOL     OW 2101   2.722   1.224   3.036  0.0188 -0.5776  1.1490
  594SOL    HW1 2102   2.688   1.140   3.078 -1.2815 -0.2267  0.8373
  594SOL    HW2 2103   2.771   1.201   2.952 -0.7669 -1.0104  0.7933
  595SOL     OW 2104   2.061   1.893   1.279 -0.3426  0.0127  0.2579
  595SOL    HW1 2105   2.069   1.948   1.195 -1.0078 -0.1417  0.0859
  595SOL    HW2 2106   2.036   1.799   1.254  1.3551 -0.5329  0.5094
  596SOL     OW 2107   2.066   1.562   0.209  0.5667 -0.1592  0.0068
  596SOL    HW1 2108   1.974   1.545   0.174  0.2846  0.2243  0.5564
  596SOL    HW2 2109   2.062   1.578   0.307  1.0481  1.1584 -0.1692
  597SOL     OW 2110   0.691   5.308   5.426 -0.3103  0.3965  0.2492
  597SOL    HW1 2111   0.643   5.334   5.510  2.6671 -2.0057  2.9762
  597SOL    HW2 2112   0.782   5.351   5.427 -0.5389  1.0714 -2.3352
  598SOL     OW 2113   1.022   1.683   0.945  0.1272  0.1544  0.0719
  598SOL    HW1 2114   1.083   1.710   0.870  0.1263  1.8887  0.6463
  598SOL    HW2 2115   0.944   1.745   0.947  0.1448  0.1483  1.5223
  599SOL     OW 2116   2.042   0.256   4.268  0.2823  0.5200 -0.3172
  599SOL    HW1 2117   2.015   0.313   4.191 -0.2618  0.9947  0.2120
  599SOL    HW2 2118   2.071   0.315   4.344 -0.3597  0.0917  0.2661
  600SOL     OW 2119   2.946   0.405   4.854 -0.4668 -0.2272  0.2655
  600SOL    HW1 2120   2.939   0.339   4.780  0.0227  0.3095 -0.2710
  600SOL    HW2 2121   2.862   0.404   4.907 -0.8914 -0.5028 -0.3968
  601SOL     OW 2122   0.181   1.640   3.667 -0.7217 -0.2223  0.1990
  601SOL    HW1 2123   0.245   1.570   3.697 -0.2060 -0.5026 -1.4635
  601SOL    HW2 2124   0.159   1.700   3.744  0.1453 -1.1852  1.2287
  602SOL     OW 2125   1.202   1.305   4.509 -0.3804  0.3093  0.1438
  602SOL    HW1 2126   1.262   1.251   4.449 -0.2782 -0.6854  1.0878
  602SOL    HW2 2127   1.125   1.341   4.457 -0.9567 -1.5563 -0.3663
  603SOL     OW 2128   0.601   1.169   0.087 -0.0237  0.5569 -0.2522
  603SOL    HW1 2129   0.617   1.211  -0.002 -1.9361 -0.2342 -1.0149
  603SOL    HW2 2130   0.579   1.240   0.154 -0.2339  1.0125 -0.7992
  604SOL     OW 2131   0.441   0.715   3.577 -0.1531 -0.2530  0.0942
  604SOL    HW1 2132   0.482   0.644   3.521  1.1858  0.3304  0.3127
  604SOL    HW2 2133   0.347   0.732   3.546  0.4247 -0.2298 -1.6942
  605SOL     OW 2134   3.271   0.881   3.512  0.0938  0.1320 -0.5952
  605SOL    HW1 2135   3.251   0.824   3.592  0.9899 -0.5606 -0.8506
  605SOL    HW2 2136   3.187   0.895   3.460 -0.4754  0.4615  0.3719
  606SOL     OW 2137   2.066   0.027   3.955  0.1542  0.4863  0.2538
  606SOL    HW1 2138   1.994   0.091   3.928  0.9423  1.2417 -0.1026
  606SOL    HW2 2139   2.090  -0.031   3.878 -1.3880 -1.1034  0.8947
  607SOL     OW 2140   0.634   4.957   0.062 -1.2326  0.3489  0.2175
  607SOL    HW1 2141   0.722   4.993   0.029 -1.1379  1.1079  1.2538
  607SOL    HW2 2142   0.641   4.858   0.073  0.1358  0.5931  2.0753
  608SOL     OW 2143   0.836   0.121   4.332  0.0522 -0.0875  0.1446
  608SOL    HW1 2144   0.796   0.073   4.254 -0.3139 -0.6169  0.6482
  608SOL    HW2 2145   0.880   0.056   4.393  0.3657  0.3256  0.3654
  609SOL     OW 2146   0.405   1.435   5.287  0.2711 -0.5124  0.0447
  609SOL    HW1 2147   0.338   1.382   5.234  0.5159  0.3048 -1.1160
  609SOL    HW2 2148   0.452   1.499   5.226  0.6409  0.3844  1.2460
  610SOL     OW 2149   1.844   1.792   4.476 -0.2036 -0.0584  0.1790
  610SOL    HW1 2150   1.764   1.780   4.417 -1.4866 -0.6769  1.9261
  610SOL    HW2 2151   1.856   1.710   4.532  0.7327  0.6264  1.0247
  611SOL     OW 2152   1.482   0.677   3.027  0.3898  0.6297 -0.6379
  611SOL    HW1 2153   1.433   0.592   3.008  0.5157 -0.2274  2.2937
  611SOL    HW2 2154   1.579   0.657   3.041  0.3284  1.1092  0.6267
  612SOL     OW 2155   0.586   3.484   0.094 -0.0860  0.2781  0.1154
  612SOL    HW1 2156   0.610   3.542   0.172 -1.3263  0.0965  0.6491
  612SOL    HW2 2157   0.629   3.394   0.105  0.1733  0.4235  0.3090
  613SOL     OW 2158   2.524   2.658   5.059 -0.4737  0.6397 -0.4362
  613SOL    HW1 2159   2.611   2.616   5.085 -1.3327 -0.5588  0.6100
  613SOL    HW2 2160   2.472   2.595   5.003 -1.4258  0.6099  0.4461
  614SOL     OW 2161   0.115   0.945   3.831  1.0855 -0.7187  0.0632
  614SOL    HW1 2162   0.098   1.041   3.852  1.2504 -0.7187  0.1957
  614SOL    HW2 2163   0.197   0.936   3.775  2.2723 -0.9392  1.7601
  615SOL     OW 2164   4.903   4.841   5.052  0.0324  0.1967  0.1795
  615SOL    HW1 2165   4.928   4.864   5.146  1.5405  1.3438 -0.4482
  615SOL    HW2 2166   4.968   4.774   5.016 -0.1518  0.2455 -0.2497
  616SOL     OW 2167   1.705   0.292   4.856 -0.3724  0.2921  0.2685
  616SOL    HW1 2168   1.660   0.335   4.779 -1.0699  0.3964  0.7232
  616SOL    HW2 2169   1.796   0.260   4.829 -1.5410 -1.9404 -1.3315
  617SOL     OW 2170   1.677   5.478   3.500  0.1808  0.0412 -0.2161
  617SOL    HW1 2171   1.722   5.391   3.516  1.4460  0.4499 -1.3387
  617SOL    HW2 2172   1.729   5.530   3.432 -1.8964  0.6335 -1.4270
  618SOL     OW 2173   1.221   2.484   4.243  0.1500 -0.1827 -0.1043
  618SOL    HW1 2174   1.164   2.547   4.297 -0.5904 -0.6269 -0.3442
  618SOL    HW2 2175   1.164   2.438   4.175  0.8217 -0.5912 -0.4023
  619SOL     OW 2176   0.617   2.006   5.464 -0.2878  0.0592  0.4275
  619SOL    HW1 2177   0.636   1.985   5.560  0.7277 -0.7845  0.0514
  619SOL    HW2 2178   0.672   2.085   5.436 -0.3863  0.1397  0.4586
  620SOL     OW 2179   0.772   0.777   5.512 -0.2688  0.0950  0.2530
  620SOL    HW1 2180   0.805   0.856   5.461 -1.6035  0.3235 -0.2893
  620SOL    HW2 2181   0.785   0.694   5.457  0.5329  0.0130  0.5561
  621SOL     OW 2182   5.516   0.592   3.230  0.3121 -0.1105 -0.3121
  621SOL    HW1 2183   5.507   0.537   3.147  1.0372  0.3563 -0.6984
  621SOL    HW2 2184   5.582   0.548   3.292  0.6070  0.1280 -0.4585
  622SOL     OW 2185   3.675   0.388   0.345 -0.2208 -0.5392 -0.4737
  622SOL    HW1 2186   3.728   0.473   0.336 -0.7347 -0.1949 -0.2980
  622SOL    HW2 2187   3.700   0.326   0.271  1.3247 -0.8778  0.2936
  623SOL     OW 2188   1.196   0.128   4.772  0.4369  0.1914 -0.2104
  623SOL    HW1 2189   1.231   0.038   4.747  0.7875  0.4894 -0.7891
  623SOL    HW2 2190   1.235   0.156   4.860 -1.6467 -1.3441  1.3025
  624SOL     OW 2191   0.374   0.877   4.214  0.0338  0.2846 -0.1143
  624SOL    HW1 2192   0.331   0.964   4.188 -0.2391 -0.1240 -1.0683
  624SOL    HW2 2193   0.317   0.831   4.282 -0.0313  0.6528  0.0864
  625SOL     OW 2194   1.565   2.192   5.301  0.3209 -0.1184 -0.5889
  625SOL    HW1 2195   1.497   2.188   5.375  0.3632  0.8442 -0.4769
  625SOL    HW2 2196   1.627   2.115   5.308 -1.1083 -1.3744 -1.0451
  626SOL     OW 2197   3.409   1.024   0.562  0.0237 -0.2183 -0.0461
  626SOL    HW1 2198   3.490   0.970   0.588 -0.5160 -2.5714 -2.7536
  626SOL    HW2 2199   3.418   1.052   0.467 -2.0528  0.0331 -0.1965
  627SOL     OW 2200   2.191   1.045   5.441 -0.2757  0.6500  0.4793
  627SOL    HW1 2201   2.098   1.076   5.464 -0.0994  0.8639  0.9116
  627SOL    HW2 2202   2.187   0.986   5.361 -0.6028  2.0320 -0.5744
  628SOL     OW 2203   1.579   1.530   3.900  0.0362  0.1797  0.3199
  628SOL    HW1 2204   1.619   1.607   3.950  0.8857 -1.3139  2.0398
  628SOL    HW2 2205   1.479   1.539   3.900  0.0704  0.6824  1.4887
  629SOL     OW 2206   0.658   1.801   0.521 -0.4023  0.0599 -0.5940
  629SOL    HW1 2207   0.616   1.878   0.569 -2.5503 -1.6329  0.4416
  629SOL    HW2 2208   0.587   1.749   0.472  0.6299 -2.1843  0.1328
  630SOL     OW 2209   1.055   0.362   1.288  0.0430 -0.8158 -0.0204
  630SOL    HW1 2210   1.145   0.319   1.282  0.4241  0.1618 -3.1460
  630SOL    HW2 2211   1.030   0.400   1.199 -2.8610  0.2295  1.1122
  631SOL     OW 2212   1.317   0.619   5.193  1.3144 -0.5492 -0.0879
  631SOL    HW1 2213   1.402   0.652   5.233  0.8705 -1.4847  1.7887
  631SOL    HW2 2214   1.335   0.539   5.136  1.7723 -0.2706 -0.3380
  632SOL     OW 2215   1.745   1.274   2.373 -0.1087 -0.2562 -0.3868
  632SOL    HW1 2216   1.679   1.349   2.362  0.1701  0.0001 -0.3222
  632SOL    HW2 2217   1.771   1.266   2.469  0.9741  0.5288 -0.5878
  633SOL     OW 2218   1.167   5.216   5.477 -0.1752 -0.2636  0.1851
  633SOL    HW1 2219   1.203   5.123   5.476  1.9496  0.5165  0.0409
  633SOL    HW2 2220   1.068   5.213   5.462 -0.0599 -2.4340 -0.4923
  634SOL     OW 2221   5.214   1.867   4.824 -0.4324  0.9844 -0.0294
  634SOL    HW1 2222   5.272   1.905   4.896 -0.3986  0.0402  0.4608
  634SOL    HW2 2223   5.168   1.941   4.774  0.7998  1.7163 -0.0992
  635SOL     OW 2224   1.081   1.510   2.748 -0.4373 -0.1261  0.1780
  635SOL    HW1 2225   1.113   1.468   2.663 -0.6714  1.0109 -0.4917
  635SOL    HW2 2226   1.075   1.440   2.819  3.0657 -0.5590  0.2516
  636SOL     OW 2227   5.571   4.473   4.906 -0.4962 -0.1002  0.0856
  636SOL    HW1 2228   5.514   4.549   4.936 -0.9996 -1.1176  1.8428
  636SOL    HW2 2229   5.514   4.403   4.862 -0.2501 -0.0971 -0.2441
  637SOL     OW 2230   1.575   1.732   2.645 -0.2783  0.3610  0.5719
  637SOL    HW1 2231   1.530   1.643   2.632 -0.1660  0.1928  1.3025
  637SOL    HW2 2232   1.559   1.764   2.738  1.1968  0.2477  0.8953
  638SOL     OW 2233   1.201   1.879   2.415  0.2179 -0.5262 -0.5714
  638SOL    HW1 2234   1.295   1.903   2.440  0.7504 -1.8395 -1.2097
  638SOL    HW2 2235   1.167   1.942   2.345 -0.2063  1.3154  1.1961
  639SOL     OW 2236   2.005   1.661   5.349 -0.0857  0.1103 -0.0600
  639SOL    HW1 2237   1.988   1.734   5.415 -0.6652  0.2291 -0.3302
  639SOL    HW2 2238   2.070   1.692   5.279  3.6757 -1.2395  2.5152
  640SOL     OW 2239   0.903   5.496   4.535  0.1515 -0.2008  0.3936
  640SOL    HW1 2240   0.836   5.434   4.494  1.6988 -2.0473  0.5283
  640SOL    HW2 2241   0.995   5.457   4.525  1.1136  1.7629  1.1241
  641SOL     OW 2242   1.025   1.656   3.971 -0.0863 -0.4434 -0.3875
  641SOL    HW1 2243   0.957   1.598   4.017  0.8036 -0.0534  1.5307
  641SOL    HW2 2244   0.993   1.751   3.973  0.3325 -0.3094  0.1982
  642SOL     OW 2245   0.923   0.137   4.750  0.1844  0.3698 -0.1386
  642SOL    HW1 2246   1.023   0.145   4.751  0.1171  1.3997 -0.6057
  642SOL    HW2 2247   0.895   0.088   4.668  0.3062  0.1537 -0.0509
  643SOL     OW 2248   3.253   1.258   3.558 -0.2398  0.2721  0.1228
  643SOL    HW1 2249   3.307   1.213   3.629 -1.4958 -0.0274  0.9186
  643SOL    HW2 2250   3.160   1.223   3.559 -0.8391  1.7536 -0.2942
  644SOL     OW 2251   1.849   1.567   2.334 -0.0863  0.2249 -0.6026
  644SOL    HW1 2252   1.773   1.527   2.282 -1.4885 -0.0173  1.5246
  644SOL    HW2 2253   1.814   1.636   2.396  0.6979 -2.4679  3.2070
  645SOL     OW 2254   2.262   1.743   0.646 -0.0691 -0.0837  0.5828
  645SOL    HW1 2255   2.361   1.750   0.655 -0.0430 -0.5515  0.6974
  645SOL    HW2 2256   2.239   1.661   0.594 -0.3618  0.5843 -0.3576
  646SOL     OW 2257   0.347   5.312   5.431  0.5269  0.5060 -0.0605
  646SOL    HW1 2258   0.432   5.334   5.381  2.4010 -1.1333  2.1822
  646SOL    HW2 2259   0.350   5.217   5.461 -0.6647  1.2499  2.7065
  647SOL     OW 2260   4.638   1.079   3.421 -0.3123  0.2092 -0.2941
  647SOL    HW1 2261   4.633   1.174   3.389 -2.0177  0.6664  1.1710
  647SOL    HW2 2262   4.695   1.075   3.503 -0.6536  0.0497 -0.0657
  648SOL     OW 2263   2.286   0.928   4.376  0.0283 -0.1970  0.6437
  648SOL    HW1 2264   2.269   0.870   4.456  1.4955 -1.1349  0.3187
  648SOL    HW2 2265   2.299   0.870   4.295  0.3136  0.6471  0.0756
  649SOL     OW 2266   0.175   0.680   3.492  0.5305 -0.5243 -0.5299
  649SOL    HW1 2267   0.213   0.603   3.440  0.5710 -0.8111 -0.0906
  649SOL    HW2 2268   0.076   0.670   3.498  0.3744  0.2016 -1.6403
  650SOL     OW 2269   1.569   1.375   3.113 -0.5787 -0.1507 -0.3585
  650SOL    HW1 2270   1.652   1.398   3.061  0.8537 -0.4618  1.6687
  650SOL    HW2 2271   1.511   1.456   3.121  0.4013  0.5705 -0.3150
  651SOL     OW 2272   1.969   0.416   3.821  0.0289 -0.6172 -0.2270
  651SOL    HW1 2273   2.021   0.363   3.755  0.6350 -2.2108  1.4455
  651SOL    HW2 2274   1.893   0.361   3.855 -0.4293  0.2731  0.2235
  652SOL     OW 2275   1.605   0.659   4.986  0.0883 -0.0513  0.5580
  652SOL    HW1 2276   1.620   0.752   4.954  3.3444 -0.1305  1.5096
  652SOL    HW2 2277   1.600   0.658   5.086 -0.8468 -0.8282  0.5224
  653SOL     OW 2278   1.552   1.054   2.910  0.3207  0.0018 -0.2392
  653SOL    HW1 2279   1.534   1.099   2.998  1.0716  0.8243 -0.4898
  653SOL    HW2 2280   1.496   1.096   2.839  0.8384  0.3851 -0.4273
  654SOL     OW 2281   0.867   3.676   4.159  0.3002 -0.0441 -0.3288
  654SOL    HW1 2282   0.887   3.766   4.200  1.4518 -0.2923 -0.3192
  654SOL    HW2 2283   0.892   3.604   4.224  0.1838 -0.4012 -0.6794
  655SOL     OW 2284   5.211   1.871   3.017 -0.2847 -0.0368  0.2172
  655SOL    HW1 2285   5.136   1.923   2.975  0.4259 -0.8027 -2.1836
  655SOL    HW2 2286   5.258   1.928   3.084 -1.2846  1.4237 -0.2616
  656SOL     OW 2287   3.933   3.405   0.065 -0.0317  0.2293 -0.7361
  656SOL    HW1 2288   3.906   3.388  -0.030  0.9252  0.1329 -1.0064
  656SOL    HW2 2289   3.893   3.335   0.124 -0.6969  0.3328 -1.0582
  657SOL     OW 2290   5.412   3.409   5.351  0.1370  0.2528 -0.2848
  657SOL    HW1 2291   5.438   3.323   5.396 -1.2106 -0.7847 -1.3908
  657SOL    HW2 2292   5.471   3.483   5.384  0.2035 -0.7345  2.0197
  658SOL     OW 2293   4.766   1.354   1.026  0.4211  0.2372 -0.0199
  658SOL    HW1 2294   4.695   1.343   0.956 -0.0974 -0.7140  0.6461
  658SOL    HW2 2295   4.818   1.269   1.035  1.5371  0.8662 -0.3649
  659SOL     OW 2296   1.088   0.839   0.747 -0.3440  0.6231 -0.2171
  659SOL    HW1 2297   1.131   0.796   0.667 -0.5713  1.5491 -0.8473
  659SOL    HW2 2298   1.131   0.804   0.830  0.0282 -0.2142 -0.7415
  660SOL     OW 2299   0.353   4.286   1.662 -0.0724 -0.7634 -0.8672
  660SOL    HW1 2300   0.349   4.381   1.692 -1.5333 -0.3321 -2.3002
  660SOL    HW2 2301   0.447   4.262   1.637  0.4259  0.0637  0.1412
  661SOL     OW 2302   1.967   3.934   0.076 -0.0542  0.5735  0.0901
  661SOL    HW1 2303   2.017   4.019   0.094 -1.6948  1.3979  1.0786
  661SOL    HW2 2304   1.892   3.952   0.012 -0.8341  0.0639  0.8242
  662SOL     OW 2305   0.777   2.375   0.458 -0.2958 -0.4603  0.1280
  662SOL    HW1 2306   0.806   2.346   0.549 -0.8048 -2.4511 -0.2989
  662SOL    HW2 2307   0.690   2.331   0.435 -0.3944  0.3484 -1.1667
  663SOL     OW 2308   1.377   2.762   5.249 -0.7848 -0.0020 -0.4017
  663SOL    HW1 2309   1.363   2.687   5.185 -0.4417 -1.6506  1.3393
  663SOL    HW2 2310   1.306   2.831   5.236 -3.7699 -2.6233  0.6329
  664SOL     OW 2311   0.523   4.244   2.268 -0.3913 -0.2443 -0.2680
  664SOL    HW1 2312   0.431   4.284   2.264  0.4432  2.1071  1.4356
  664SOL    HW2 2313   0.585   4.309   2.312  1.2359 -3.2744  2.3448
  665SOL     OW 2314   2.069   2.941   0.940  0.3469  0.3853 -0.2062
  665SOL    HW1 2315   2.099   3.030   0.907 -0.3677  1.0096  0.7992
  665SOL    HW2 2316   2.128   2.870   0.901  2.3848  1.4631  0.7600
  666SOL     OW 2317   1.142   3.083   5.494 -0.1761 -0.4431  0.1132
  666SOL    HW1 2318   1.160   3.172   5.536  1.8233 -0.1346 -1.2079
  666SOL    HW2 2319   1.223   3.025   5.504 -0.4826 -1.1546 -1.2830
  667SOL     OW 2320   4.569   2.445   2.347  0.0067  0.4240  0.3468
  667SOL    HW1 2321   4.545   2.466   2.441  0.2511 -0.0528  0.5233
  667SOL    HW2 2322   4.666   2.421   2.342  1.4186  5.2844 -0.8127
  668SOL     OW 2323   0.885   3.327   5.281 -0.5339 -0.2160  0.2946
  668SOL    HW1 2324   0.842   3.408   5.240 -0.5795 -0.3469  0.0836
  668SOL    HW2 2325   0.951   3.357   5.351 -0.4307  0.0124  0.1035
  669SOL     OW 2326   1.453   4.259   1.682  0.0260 -0.0372 -0.2442
  669SOL    HW1 2327   1.521   4.187   1.670  1.9444  1.6816 -0.1189
  669SOL    HW2 2328   1.444   4.311   1.597 -0.5334  0.2832  0.0031
  670SOL     OW 2329   5.333   2.664   5.487  0.0758 -0.1939 -0.3032
  670SOL    HW1 2330   5.365   2.630   5.576  0.8210  0.9470 -0.1176
  670SOL    HW2 2331   5.408   2.663   5.422 -0.2248 -0.1339 -0.6527
  671SOL     OW 2332   0.573   0.342   1.903  0.1202 -0.3294 -0.1313
  671SOL    HW1 2333   0.497   0.358   1.967 -0.1214  0.2926 -0.5647
  671SOL    HW2 2334   0.627   0.426   1.894 -0.0753 -0.2921 -1.0359
  672SOL     OW 2335   0.912   3.436   0.911 -0.5583  0.6318 -0.5108
  672SOL    HW1 2336   0.864   3.523   0.916 -3.0380 -0.6332 -0.8488
  672SOL    HW2 2337   0.882   3.385   0.830  0.6394 -0.6534 -0.1908
  673SOL     OW 2338   0.408   2.440   2.616 -0.4332  1.0813  0.4222
  673SOL    HW1 2339   0.370   2.380   2.545 -0.3400 -1.1061  2.0977
  673SOL    HW2 2340   0.478   2.390   2.667  0.4374  3.0334  1.2293
  674SOL     OW 2341   0.169   4.087   0.335  0.2035 -0.3069  0.4418
  674SOL    HW1 2342   0.244   4.128   0.386  0.7574  0.6047 -1.0464
  674SOL    HW2 2343   0.204   4.011   0.280  0.2776  0.7582 -1.0358
  675SOL     OW 2344   1.485   1.172   1.343 -0.2311  0.0713  0.0156
  675SOL    HW1 2345   1.427   1.091   1.337  0.9120 -0.7245 -0.5591
  675SOL    HW2 2346   1.559   1.166   1.276 -0.4973  1.9111 -0.4890
  676SOL     OW 2347   0.375   4.441   2.107 -0.2161  0.3286 -0.2105
  676SOL    HW1 2348   0.363   4.498   2.188 -1.4616  2.2913 -1.6707
  676SOL    HW2 2349   0.466   4.457   2.069 -1.1125  2.7517 -1.5284
  677SOL     OW 2350   0.496   2.215   5.332 -0.1508 -0.6831 -0.5052
  677SOL    HW1 2351   0.451   2.171   5.254  1.1162 -0.0289 -1.6564
  677SOL    HW2 2352   0.594   2.222   5.314  0.1301 -0.2857  1.0542
  678SOL     OW 2353   1.139   3.503   1.406 -0.5450  0.0963 -0.1223
  678SOL    HW1 2354   1.116   3.428   1.468 -1.5364  1.2939  1.0324
  678SOL    HW2 2355   1.232   3.534   1.425  0.7916 -2.2487 -2.1729
  679SOL     OW 2356   4.597   2.007   4.646  0.1268 -0.0145 -0.2319
  679SOL    HW1 2357   4.626   1.911   4.646 -1.1932 -0.5207  2.7412
  679SOL    HW2 2358   4.604   2.043   4.553  4.1842 -1.8129 -0.8470
  680SOL     OW 2359   2.400   2.259   5.030  0.3971  0.0472  0.1468
  680SOL    HW1 2360   2.352   2.173   5.011 -0.2141  0.5004 -0.3755
  680SOL    HW2 2361   2.497   2.240   5.042  0.6791 -0.4228 -2.3944
  681SOL     OW 2362   0.542   0.496   5.559  0.0065 -0.5170 -0.4711
  681SOL    HW1 2363   0.452   0.477   5.521 -1.0173  0.5914  1.2578
  681SOL    HW2 2364   0.611   0.440   5.512 -1.6221 -1.7324 -1.5188
  682SOL     OW 2365   4.150   1.300   0.853 -0.2614 -0.6055  0.2946
  682SOL    HW1 2366   4.101   1.351   0.924 -0.2404 -0.1899  0.0162
  682SOL    HW2 2367   4.096   1.221   0.824 -0.2858 -0.7588  0.7468
  683SOL     OW 2368   1.613   2.573   1.232 -0.0655 -0.2972  0.6469
  683SOL    HW1 2369   1.642   2.528   1.147  4.6308  1.4559  1.0252
  683SOL    HW2 2370   1.588   2.668   1.212  1.0566  0.1222  1.1390
  684SOL     OW 2371   0.290   2.987   0.508 -0.3893 -0.0407 -0.3008
  684SOL    HW1 2372   0.254   3.080   0.516 -0.8483 -0.2545  0.1219
  684SOL    HW2 2373   0.245   2.940   0.432 -1.2035 -0.3943  0.3882
  685SOL     OW 2374   1.525   3.195   5.522  0.7995  0.0463  0.1404
  685SOL    HW1 2375   1.498   3.292   5.523  1.2966  0.1799  0.6429
  685SOL    HW2 2376   1.503   3.156   5.432 -0.0211  0.4477  0.1534
  686SOL     OW 2377   1.602   2.028   2.003 -0.8164  0.0708 -0.5985
  686SOL    HW1 2378   1.658   1.964   1.950  0.9777 -1.1371  2.4923
  686SOL    HW2 2379   1.652   2.114   2.014  0.2361 -0.7417  1.5237
  687SOL     OW 2380   1.003   2.433   0.221 -0.6092  0.1902  0.2840
  687SOL    HW1 2381   1.069   2.504   0.198 -0.4924  0.2086  0.6669
  687SOL    HW2 2382   0.977   2.442   0.318 -0.4664 -0.3944  0.3756
  688SOL     OW 2383   0.310   4.838   2.111  0.2941 -0.3181 -0.3251
  688SOL    HW1 2384   0.243   4.864   2.041 -0.1117  0.2762  0.2762
  688SOL    HW2 2385   0.264   4.824   2.198  0.6808 -1.9055 -0.3569
  689SOL     OW 2386   1.652   3.558   1.013 -0.2424  0.1711 -0.1410
  689SOL    HW1 2387   1.569   3.503   1.018 -0.5744  0.6680 -0.1640
  689SOL    HW2 2388   1.680   3.585   1.105 -0.2544  0.2265 -0.1535
  690SOL     OW 2389   5.491   4.333   0.635  0.0230  0.1167  0.1756
  690SOL    HW1 2390   5.452   4.255   0.585 -1.5289  0.9754 -0.0209
  690SOL    HW2 2391   5.420   4.402   0.648  1.4197  1.5987  0.1591
  691SOL     OW 2392   1.408   3.769   2.195 -0.0953  0.1082 -0.0083
  691SOL    HW1 2393   1.310   3.766   2.179  0.0129 -0.9045 -0.5281
  691SOL    HW2 2394   1.441   3.862   2.177 -0.5471 -0.1383 -2.4439
  692SOL     OW 2395   1.885   3.151   1.803  0.0213  0.1552 -0.2267
  692SOL    HW1 2396   1.803   3.184   1.851 -0.6102 -0.6597 -0.7213
  692SOL    HW2 2397   1.859   3.083   1.735  1.1725 -0.5585  0.0085
  693SOL     OW 2398   0.783   4.548   1.477 -0.3527 -0.6361  0.1411
  693SOL    HW1 2399   0.861   4.606   1.452  0.1406 -1.2470  0.2343
  693SOL    HW2 2400   0.806   4.452   1.461 -1.1669 -0.8138 -0.0282
  694SOL     OW 2401   1.064   2.264   4.849 -0.1503  0.3361 -0.1467
  694SOL    HW1 2402   0.965   2.245   4.852  0.0799 -0.7698  1.1244
  694SOL    HW2 2403   1.090   2.316   4.930  0.2238  1.2581 -0.8330
  695SOL     OW 2404   2.096   4.450   4.336  0.1123  0.4741 -0.1433
  695SOL    HW1 2405   2.030   4.523   4.322  1.3349  1.2248 -2.5807
  695SOL    HW2 2406   2.180   4.488   4.376  1.0804  0.6560 -2.2334
  696SOL     OW 2407   5.495   3.777   0.214 -0.4037  1.1244 -0.7363
  696SOL    HW1 2408   5.542   3.690   0.224 -0.0545  1.4671  0.9872
  696SOL    HW2 2409   5.520   3.819   0.127  2.0125  0.9897 -0.1809
  697SOL     OW 2410   1.895   2.732   1.076 -0.0923 -0.3633 -0.2199
  697SOL    HW1 2411   1.932   2.794   1.006  0.6748  1.0777  1.3702
  697SOL    HW2 2412   1.837   2.664   1.032  1.3739 -0.3386 -2.3993
  698SOL     OW 2413   2.381   3.642   1.711  0.8061  0.5012  0.0328
  698SOL    HW1 2414   2.367   3.720   1.650 -0.0898  0.9666  0.8028
  698SOL    HW2 2415   2.406   3.562   1.657 -1.5929  0.4621 -1.1713
  699SOL     OW 2416   0.007   1.697   3.476  0.1020  0.1277  0.1980
  699SOL    HW1 2417   0.088   1.692   3.534 -0.2430 -0.2233  0.6592
  699SOL    HW2 2418  -0.044   1.611   3.482 -0.8969  0.7357  0.7892
  700SOL     OW 2419   4.180   2.284   4.453  0.1000  0.9926  0.1753
  700SOL    HW1 2420   4.214   2.189   4.455 -0.0821  0.9411  1.0921
  700SOL    HW2 2421   4.129   2.299   4.368  0.5241  0.4087 -0.1941
  701SOL     OW 2422   0.241   4.124   2.266  0.3313 -0.6458 -0.1577
  701SOL    HW1 2423   0.226   4.085   2.175  1.1534 -1.5703  0.0788
  701SOL    HW2 2424   0.239   4.051   2.334  1.8000 -0.2817  0.3138
  702SOL     OW 2425   4.431   2.612   3.189  0.1082 -0.4259  0.1886
  702SOL    HW1 2426   4.526   2.599   3.160  0.0895  0.5335 -0.3209
  702SOL    HW2 2427   4.427   2.676   3.266 -0.0300 -1.4145  1.0331
  703SOL     OW 2428   1.571   0.947   0.524  0.1401 -0.6897 -0.3639
  703SOL    HW1 2429   1.505   0.984   0.458 -0.0847 -0.1857  0.1275
  703SOL    HW2 2430   1.547   0.853   0.547 -2.0447  0.2867  1.8140
  704SOL     OW 2431   3.068   2.515   1.287 -0.4123 -0.3003 -0.4411
  704SOL    HW1 2432   3.018   2.578   1.227 -2.3830 -0.3911  1.0012
  704SOL    HW2 2433   3.103   2.566   1.366 -1.8415 -0.9432  0.6326
  705SOL     OW 2434   2.756   1.991   0.648 -0.1374  0.2640 -0.5054
  705SOL    HW1 2435   2.831   1.931   0.677 -0.2881  0.7703  0.9826
  705SOL    HW2 2436   2.760   2.003   0.549 -0.0996 -2.1973 -0.8619
  706SOL     OW 2437   4.471   1.686   1.915 -0.3373  0.0411  0.1774
  706SOL    HW1 2438   4.539   1.705   1.986 -0.4948 -0.4368  0.4603
  706SOL    HW2 2439   4.391   1.744   1.928  0.3016  1.1336 -0.5847
  707SOL     OW 2440   0.257   4.217   0.994  0.3118  0.4723 -0.3894
  707SOL    HW1 2441   0.289   4.308   0.969  0.6394  0.2863 -0.6627
  707SOL    HW2 2442   0.336   4.159   1.015  0.1406  0.0946 -0.7787
  708SOL     OW 2443   4.053   4.590   0.091  0.1530 -0.3179  0.2618
  708SOL    HW1 2444   4.054   4.679   0.137  0.1895 -0.0328 -0.2834
  708SOL    HW2 2445   4.083   4.601  -0.003 -0.4977 -0.7916 -0.0112
  709SOL     OW 2446   1.738   3.054   1.562  0.7158  0.2214  0.1673
  709SOL    HW1 2447   1.650   3.100   1.548  1.0173  0.9641  0.6540
  709SOL    HW2 2448   1.756   2.993   1.486 -0.2849 -0.0390  0.1147
  710SOL     OW 2449   1.004   2.649   4.809  0.4708 -0.1108 -0.7224
  710SOL    HW1 2450   0.968   2.713   4.741  0.9764  0.9870  0.0130
  710SOL    HW2 2451   1.103   2.643   4.801  0.4702 -0.4729 -0.4990
  711SOL     OW 2452   4.699   3.976   0.330 -0.4226  0.0684  0.0868
  711SOL    HW1 2453   4.795   3.951   0.320 -0.3554  0.4085 -0.1108
  711SOL    HW2 2454   4.678   3.989   0.427 -0.0057  1.0295  0.0588
  712SOL     OW 2455   2.435   0.612   5.254 -0.0895  0.1268  0.6937
  712SOL    HW1 2456   2.527   0.628   5.219  0.5215 -2.2522  1.0317
  712SOL    HW2 2457   2.416   0.674   5.330  1.3145  0.5267  0.7380
  713SOL     OW 2458   0.320   3.061   2.458  0.1967 -0.4665 -0.3181
  713SOL    HW1 2459   0.403   3.085   2.406  0.2496  0.1304  0.0432
  713SOL    HW2 2460   0.256   3.138   2.456 -0.1002 -0.7075 -0.0932
  714SOL     OW 2461   1.157   3.755   5.323  0.1191  0.3989 -0.4196
  714SOL    HW1 2462   1.198   3.837   5.364  0.1181  2.0140 -3.3672
  714SOL    HW2 2463   1.223   3.681   5.323  1.0202  1.1794  0.0594
  715SOL     OW 2464   5.137   2.960   1.694  0.1487  0.3770 -0.0546
  715SOL    HW1 2465   5.218   2.968   1.752  0.5617 -1.3148 -0.3284
  715SOL    HW2 2466   5.145   2.878   1.638 -2.4588 -0.7334  1.0390
  716SOL     OW 2467   2.787   2.561   0.873 -0.1365  0.2735  0.5491
  716SOL    HW1 2468   2.818   2.473   0.910 -0.2182 -1.1078 -2.3888
  716SOL    HW2 2469   2.691   2.576   0.899 -1.1454 -2.1289 -1.4284
  717SOL     OW 2470   5.059   3.223   1.343 -0.4348 -0.1381  0.6645
  717SOL    HW1 2471   5.155   3.244   1.362 -0.7713  1.5321  0.6955
  717SOL    HW2 2472   5.011   3.204   1.429 -0.8301  2.3576  1.0767
  718SOL     OW 2473   0.296   5.129   0.773 -0.1348  0.0886 -0.4728
  718SOL    HW1 2474   0.220   5.156   0.714 -1.3798 -1.5192  0.3291
  718SOL    HW2 2475   0.268   5.134   0.869  0.2010 -2.0468 -0.2175
  719SOL     OW 2476   0.419   5.290   0.262  0.3876 -0.5693  0.2013
  719SOL    HW1 2477   0.330   5.301   0.218 -0.3811  0.7392  1.9428
  719SOL    HW2 2478   0.442   5.193   0.269 -1.3383 -0.9802  0.5164
  720SOL     OW 2479   4.596   4.688   0.137 -0.1534  0.1301  0.2691
  720SOL    HW1 2480   4.595   4.603   0.083 -0.1430 -0.2382  0.8394
  720SOL    HW2 2481   4.506   4.731   0.133  0.3132  1.0488 -1.4882
  721SOL     OW 2482   5.349   3.810   5.421 -0.4446  0.3874  0.3325
  721SOL    HW1 2483   5.313   3.898   5.389 -1.1778 -0.1057 -0.2345
  721SOL    HW2 2484   5.279   3.761   5.472 -0.1503 -0.0235  0.3504
  722SOL     OW 2485   1.133   3.143   0.728  0.5092 -0.2140 -0.0132
  722SOL    HW1 2486   1.195   3.065   0.718  0.9954  0.2135 -0.4020
  722SOL    HW2 2487   1.176   3.212   0.786  0.4144  0.1023 -0.3172
  723SOL     OW 2488   0.282   0.810   0.521 -0.1637  0.4177  0.1246
  723SOL    HW1 2489   0.257   0.907   0.526 -0.6589  0.3372 -0.5624
  723SOL    HW2 2490   0.380   0.800   0.540 -0.2254  0.9831  0.7741
  724SOL     OW 2491   5.448   3.255   0.442  0.3549  0.0820  0.0133
  724SOL    HW1 2492   5.412   3.171   0.482 -2.4141  1.8445  1.5815
  724SOL    HW2 2493   5.467   3.240   0.345  2.6642 -3.0177  0.8048
  725SOL     OW 2494   0.473   2.478   0.602  0.4435  0.2330 -0.3475
  725SOL    HW1 2495   0.383   2.438   0.623  1.0083 -0.4806  0.8228
  725SOL    HW2 2496   0.460   2.565   0.553 -0.8604 -0.1984 -0.8103
  726SOL     OW 2497   5.377   1.149   2.060  0.2314 -0.2313 -0.4106
  726SOL    HW1 2498   5.423   1.236   2.080  0.5531 -0.7949  1.5464
  726SOL    HW2 2499   5.396   1.084   2.134 -1.4134 -1.4081 -0.9717
  727SOL     OW 2500   2.681   1.100   1.698  0.1316  0.0201  0.6384
  727SOL    HW1 2501   2.741   1.120   1.621 -0.9228 -1.7505 -0.7158
  727SOL    HW2 2502   2.586   1.102   1.668 -0.3218 -0.5053  1.9357
  728SOL     OW 2503   1.801   1.496   0.138 -0.2447  0.2039  0.4380
  728SOL    HW1 2504   1.795   1.430   0.213  0.8548 -0.3418  0.0603
  728SOL    HW2 2505   1.799   1.448   0.050 -0.5170  0.7584  0.1303
  729SOL     OW 2506   1.055   1.380   4.915 -0.1562 -0.1039 -0.3989
  729SOL    HW1 2507   0.985   1.445   4.886 -1.2446 -1.1611 -0.2438
  729SOL    HW2 2508   1.117   1.424   4.980  0.6648  1.4821 -2.1744
  730SOL     OW 2509   1.140   2.418   5.061 -0.4301  0.0308 -0.0695
  730SOL    HW1 2510   1.060   2.472   5.086 -0.2388  0.5825 -0.6275
  730SOL    HW2 2511   1.165   2.358   5.137 -0.2007  1.2405  0.8294
  731SOL     OW 2512   0.301   1.762   4.572 -0.2120  0.2965  0.1080
  731SOL    HW1 2513   0.379   1.817   4.543 -0.0580 -0.3692 -0.7737
  731SOL    HW2 2514   0.222   1.783   4.514 -0.3756  0.1631  0.2808
  732SOL     OW 2515   0.462   1.630   5.109  1.0453 -0.0113  0.4810
  732SOL    HW1 2516   0.376   1.673   5.083  0.7130 -0.5121  0.7452
  732SOL    HW2 2517   0.528   1.700   5.136  1.6421  0.6216 -2.2951
  733SOL     OW 2518   4.360   2.522   2.188  0.3678  0.0995  0.2050
  733SOL    HW1 2519   4.444   2.495   2.235  0.1233  0.9284  1.1583
  733SOL    HW2 2520   4.282   2.502   2.248 -0.0720 -0.0995 -0.4240
  734SOL     OW 2521   0.459   2.695   0.407 -0.1950 -0.3574 -0.3215
  734SOL    HW1 2522   0.388   2.662   0.345 -0.9701 -0.3598  0.5468
  734SOL    HW2 2523   0.477   2.791   0.389 -0.6074 -0.2900 -0.3771
  735SOL     OW 2524   0.210   5.022   0.170  0.1030 -0.0046  0.0459
  735SOL    HW1 2525   0.133   5.075   0.134 -0.5444 -0.5203  0.6404
  735SOL    HW2 2526   0.208   5.024   0.270  1.0512  0.2376  0.0707
  736SOL     OW 2527   1.575   3.836   3.451  0.7063  0.1313  0.1171
  736SOL    HW1 2528   1.503   3.866   3.514  0.9259  0.9363 -0.0027
  736SOL    HW2 2529   1.621   3.756   3.489 -0.5377 -0.6717 -0.0099
  737SOL     OW 2530   1.606   2.076   2.444 -0.2412  0.6099  0.0432
  737SOL    HW1 2531   1.534   2.049   2.380 -1.9059  1.5515  1.4093
  737SOL    HW2 2532   1.672   2.001   2.455 -1.9260 -0.9483 -0.0124
  738SOL     OW 2533   0.220   1.834   1.903 -0.0339  0.2789  0.3711
  738SOL    HW1 2534   0.188   1.786   1.985  0.7329  0.5143  0.8274
  738SOL    HW2 2535   0.302   1.886   1.926 -0.5992  1.4629 -0.2240
  739SOL     OW 2536   5.071   1.710   2.671 -0.5657  0.1373 -0.4717
  739SOL    HW1 2537   4.992   1.758   2.709 -2.0770 -1.9134 -0.8062
  739SOL    HW2 2538   5.100   1.638   2.735 -0.2669 -0.4208 -1.2165
  740SOL     OW 2539   1.187   1.784   0.510 -0.5018 -0.2764  0.1273
  740SOL    HW1 2540   1.093   1.790   0.544 -0.3612 -1.0658  0.6832
  740SOL    HW2 2541   1.205   1.860   0.447 -1.9421 -0.8901 -1.0635
  741SOL     OW 2542   0.002   2.607   5.332 -0.1500 -0.3639 -0.2335
  741SOL    HW1 2543   0.094   2.602   5.372 -0.0992  1.5514  0.0044
  741SOL    HW2 2544  -0.018   2.521   5.284  1.0445 -1.5066  1.1971
  742SOL     OW 2545   1.080   2.170   1.755 -0.2920  0.8073 -0.3559
  742SOL    HW1 2546   1.134   2.229   1.694  0.2129  1.3664  0.6089
  742SOL    HW2 2547   1.093   2.199   1.850 -0.0024 -0.8781  0.1623
  743SOL     OW 2548   0.914   3.249   0.316  0.5265  0.4083 -0.4748
  743SOL    HW1 2549   0.986   3.184   0.341  0.6523  0.8723  0.4403
  743SOL    HW2 2550   0.927   3.333   0.369 -0.8636  0.3881 -0.0734
  744SOL     OW 2551   2.613   3.712   0.864 -0.0977  0.2092  0.1915
  744SOL    HW1 2552   2.625   3.809   0.885 -0.3949  0.7366 -1.8554
  744SOL    HW2 2553   2.675   3.686   0.790 -2.5747 -0.1470 -1.9221
  745SOL     OW 2554   1.736   2.656   0.212  0.2292 -0.0627  0.3468
  745SOL    HW1 2555   1.701   2.749   0.202 -0.4876 -0.4483 -1.1099
  745SOL    HW2 2556   1.736   2.612   0.122  2.5881 -0.7616  0.6237
  746SOL     OW 2557   1.547   3.958   5.140 -0.0748 -0.3872  0.0666
  746SOL    HW1 2558   1.620   3.970   5.207  0.5471 -0.6144 -0.5596
  746SOL    HW2 2559   1.549   3.865   5.105 -0.8630 -0.4834  0.2677
  747SOL     OW 2560   0.841   3.265   0.702 -0.3206  0.2375 -0.1416
  747SOL    HW1 2561   0.860   3.169   0.722  0.7396  0.0182 -1.9963
  747SOL    HW2 2562   0.759   3.271   0.645 -1.0721  0.5490  0.9454
  748SOL     OW 2563   1.419   0.493   4.853 -0.5820 -0.2169 -0.2267
  748SOL    HW1 2564   1.459   0.568   4.906  0.2624 -0.8226  0.0116
  748SOL    HW2 2565   1.475   0.477   4.771 -1.9958  0.8585 -1.4574
  749SOL     OW 2566   0.902   4.430   0.722  0.6663 -0.0732 -0.5509
  749SOL    HW1 2567   0.849   4.502   0.678  0.0550 -0.8236 -1.0608
  749SOL    HW2 2568   0.982   4.471   0.767  0.0552  0.9800 -0.3810
  750SOL     OW 2569   0.238   3.910   2.429 -0.2183 -0.0743 -0.1639
  750SOL    HW1 2570   0.293   3.856   2.365  1.3815  2.3144 -0.9453
  750SOL    HW2 2571   0.293   3.933   2.509 -1.0107  0.0773  0.3534
  751SOL     OW 2572   1.276   4.221   5.418 -0.0727 -0.2848 -0.4566
  751SOL    HW1 2573   1.226   4.276   5.351 -0.6004  1.9604  1.6516
  751SOL    HW2 2574   1.370   4.255   5.425  0.4938 -1.6202 -1.2221
  752SOL     OW 2575   0.364   4.122   0.089 -0.2773 -0.1221 -0.1720
  752SOL    HW1 2576   0.281   4.066   0.088  0.2668 -0.9495  0.3667
  752SOL    HW2 2577   0.443   4.065   0.068  0.1553  0.6860 -0.7944
  753SOL     OW 2578   5.407   3.500   1.267  0.2824 -0.2724 -0.5605
  753SOL    HW1 2579   5.332   3.510   1.202  0.9360  0.9513 -1.1746
  753SOL    HW2 2580   5.443   3.591   1.289  0.6673 -0.7348  0.8227
  754SOL     OW 2581   0.354   0.063   2.215 -0.1215  0.0449 -0.2844
  754SOL    HW1 2582   0.442   0.015   2.213 -0.0900 -0.0071  1.2002
  754SOL    HW2 2583   0.279  -0.003   2.212 -0.0891 -0.0257  0.3808
  755SOL     OW 2584   1.360   1.961   0.894 -0.3003 -0.3095 -0.2931
  755SOL    HW1 2585   1.367   1.948   0.993 -2.6543  0.6646  0.0716
  755SOL    HW2 2586   1.413   2.042   0.867 -0.9302  0.3697  0.4528
  756SOL     OW 2587   5.401   4.031   2.316 -0.0358  0.4498 -0.2689
  756SOL    HW1 2588   5.416   3.940   2.279 -1.1853  1.1964 -2.8191
  756SOL    HW2 2589   5.424   4.100   2.246  0.5515  2.1119  1.4811
  757SOL     OW 2590   1.126   2.198   5.236  0.0316  0.3388  0.4429
  757SOL    HW1 2591   1.128   2.102   5.209 -0.1292  0.0190  1.5209
  757SOL    HW2 2592   1.061   2.210   5.312  0.7302  1.1359  0.9301
  758SOL     OW 2593   1.796   2.993   5.420 -0.1565  0.5711 -0.2047
  758SOL    HW1 2594   1.744   2.928   5.364  0.8426  0.2676 -0.7966
  758SOL    HW2 2595   1.844   3.057   5.360  1.0173  0.1717  0.2928
  759SOL     OW 2596   5.200   4.064   0.321  0.5969  0.6980  0.5957
  759SOL    HW1 2597   5.131   4.027   0.259 -0.4187 -0.5456  2.3652
  759SOL    HW2 2598   5.263   3.991   0.349  0.6825  1.0861  1.4590
  760SOL     OW 2599   1.426   2.831   4.236  0.3359  0.1390 -0.7652
  760SOL    HW1 2600   1.496   2.792   4.296  2.1056  1.3054 -1.9946
  760SOL    HW2 2601   1.425   2.782   4.149 -0.2990  0.2301 -0.8164
  761SOL     OW 2602   0.460   2.000   1.970  0.2387  0.2948  0.0435
  761SOL    HW1 2603   0.432   2.082   1.921 -0.8997 -1.5081 -2.5366
  761SOL    HW2 2604   0.538   1.958   1.923 -0.8714 -1.4914 -0.2899
  762SOL     OW 2605   2.347   2.330   1.582 -0.2145  0.5907  0.4581
  762SOL    HW1 2606   2.270   2.338   1.646 -0.1875  0.5730  0.4926
  762SOL    HW2 2607   2.398   2.247   1.603  0.7338  1.3953  1.4314
  763SOL     OW 2608   0.414   2.270   1.558 -0.4601  0.2205 -0.3074
  763SOL    HW1 2609   0.393   2.353   1.506 -0.0790  0.1375 -0.6026
  763SOL    HW2 2610   0.359   2.194   1.523  1.4309 -0.3901 -2.2054
  764SOL     OW 2611   2.323   2.496   4.945  0.2140 -0.2839 -0.5440
  764SOL    HW1 2612   2.247   2.529   5.000  0.2417  0.4047 -0.8964
  764SOL    HW2 2613   2.360   2.412   4.984 -0.7310 -0.6302 -0.3798
  765SOL     OW 2614   0.437   4.902   0.773  0.1855  0.2707 -0.0413
  765SOL    HW1 2615   0.399   4.993   0.787 -0.3684 -0.0593  0.6901
  765SOL    HW2 2616   0.367   4.833   0.793  0.6090 -0.3206 -0.5364
  766SOL     OW 2617   1.014   2.197   0.985  0.2461 -0.2841 -0.2051
  766SOL    HW1 2618   1.019   2.118   1.045 -2.0587  0.4128  1.0239
  766SOL    HW2 2619   0.957   2.268   1.027  1.6366  1.7774 -1.5658
  767SOL     OW 2620   3.046   3.077   1.190 -0.1072  0.1075  0.0422
  767SOL    HW1 2621   3.040   3.151   1.122 -0.1954 -0.4799 -0.6028
  767SOL    HW2 2622   3.088   2.997   1.148 -2.3124 -1.0902 -0.0588
  768SOL     OW 2623   0.508   2.847   2.002  0.2490  0.0729  0.2847
  768SOL    HW1 2624   0.523   2.940   1.968  2.1287 -0.1017  0.5604
  768SOL    HW2 2625   0.416   2.817   1.976  0.4131  1.1640 -1.7982
  769SOL     OW 2626   4.338   2.555   1.746  0.2133 -0.1156  0.1895
  769SOL    HW1 2627   4.397   2.594   1.675 -1.2133 -0.6241 -1.3174
  769SOL    HW2 2628   4.315   2.461   1.723 -1.6493  0.2410  0.4331
  770SOL     OW 2629   0.306   0.808   2.708 -0.5130 -0.0505  0.2927
  770SOL    HW1 2630   0.222   0.820   2.760 -0.9215  0.6601 -0.4990
  770SOL    HW2 2631   0.365   0.742   2.754 -1.2270 -0.0803  1.1886
  771SOL     OW 2632   0.940   2.634   0.932  0.0329 -0.0748  0.2112
  771SOL    HW1 2633   1.003   2.612   1.007 -0.0212  0.5145  0.4292
  771SOL    HW2 2634   0.846   2.615   0.960  0.1148 -1.2412 -0.2162
  772SOL     OW 2635   5.326   1.915   5.489 -0.0614  0.4006  0.1014
  772SOL    HW1 2636   5.288   1.964   5.411  0.3290 -1.5133 -1.3867
  772SOL    HW2 2637   5.417   1.880   5.466  0.0138 -0.3306  1.3668
  773SOL     OW 2638   0.983   1.447   0.797  0.9868 -0.2064 -0.1472
  773SOL    HW1 2639   0.891   1.410   0.811 -0.3030  2.1978 -1.5474
  773SOL    HW2 2640   0.994   1.531   0.851  2.3768 -0.4471 -0.0100
  774SOL     OW 2641   0.501   2.849   1.561  0.1059 -0.3552 -0.3837
  774SOL    HW1 2642   0.444   2.930   1.573  0.8200  0.4044 -1.8818
  774SOL    HW2 2643   0.559   2.837   1.641  1.5748  1.9438 -1.0148
  775SOL     OW 2644   0.245   2.041   1.497  0.0822 -0.5941  0.1033
  775SOL    HW1 2645   0.204   2.012   1.583 -0.1668 -3.8985 -0.9850
  775SOL    HW2 2646   0.173   2.077   1.437  0.1670  1.1587  0.9769
  776SOL     OW 2647   2.539   3.704   2.458  0.1695  0.1410  0.0562
  776SOL    HW1 2648   2.570   3.796   2.431  0.4738  0.0644  0.1383
  776SOL    HW2 2649   2.444   3.692   2.432  1.3333 -1.2321 -4.3868
  777SOL     OW 2650   0.841   2.772   0.095 -0.0814  0.3562  0.0841
  777SOL    HW1 2651   0.806   2.698   0.152  0.7134  0.5298  0.8154
  777SOL    HW2 2652   0.839   2.858   0.147 -1.3542  0.9470 -0.8734
  778SOL     OW 2653   1.846   1.316   0.701 -0.0424 -0.6783  0.2967
  778SOL    HW1 2654   1.845   1.236   0.641  1.1847 -0.3323 -0.2134
  778SOL    HW2 2655   1.801   1.294   0.787 -0.2796 -1.7165 -0.0785
  779SOL     OW 2656   1.882   0.619   0.926  0.6238 -0.6904 -0.5207
  779SOL    HW1 2657   1.835   0.707   0.917  3.2887  0.8010 -0.8325
  779SOL    HW2 2658   1.891   0.576   0.836  0.2398 -0.7977 -0.5108
  780SOL     OW 2659   5.127   4.112   2.644 -0.1756 -0.0702  0.1339
  780SOL    HW1 2660   5.156   4.179   2.712 -1.3755  0.1833  0.4133
  780SOL    HW2 2661   5.028   4.119   2.630  0.2395  0.9373 -2.7984
  781SOL     OW 2662   2.455   3.194   0.124 -0.0692 -0.4373 -0.0166
  781SOL    HW1 2663   2.519   3.269   0.138 -1.3659  0.8429 -0.6297
  781SOL    HW2 2664   2.498   3.122   0.070  0.9125  0.2882 -0.2202
  782SOL     OW 2665   0.688   3.988   1.634 -0.1586  0.0562  0.0580
  782SOL    HW1 2666   0.661   4.084   1.635  0.9000  0.3688  0.5307
  782SOL    HW2 2667   0.785   3.980   1.656 -0.2663 -1.1382  0.2066
  783SOL     OW 2668   3.108   1.880   1.036  0.4924 -0.3622  0.3159
  783SOL    HW1 2669   3.083   1.789   1.003 -0.9866 -0.5033  1.7359
  783SOL    HW2 2670   3.109   1.882   1.135 -0.2028  1.3367  0.3370
  784SOL     OW 2671   1.776   2.108   4.205  0.3549  0.1918 -0.2451
  784SOL    HW1 2672   1.801   2.198   4.168 -0.2631 -0.6031 -2.7317
  784SOL    HW2 2673   1.857   2.066   4.246  1.1083  1.0980 -0.7454
  785SOL     OW 2674   2.731   3.222   0.952 -0.3981 -0.2855 -0.7087
  785SOL    HW1 2675   2.787   3.285   0.899 -0.0007  0.9222  1.0464
  785SOL    HW2 2676   2.635   3.248   0.945 -0.1863  0.9383  0.4581
  786SOL     OW 2677   0.100   1.938   1.227  0.1028 -0.4901  0.8264
  786SOL    HW1 2678   0.069   1.992   1.149  1.8555 -0.2177  0.2844
  786SOL    HW2 2679   0.020   1.901   1.275 -1.0997 -3.0353 -2.6982
  787SOL     OW 2680   0.525   2.462   5.063  0.7020  0.0136 -0.7924
  787SOL    HW1 2681   0.474   2.380   5.035 -0.3816  0.8659 -1.3868
  787SOL    HW2 2682   0.620   2.437   5.080  0.2427 -1.5178 -0.2145
  788SOL     OW 2683   0.428   1.895   5.317  0.1654 -0.3660 -0.1226
  788SOL    HW1 2684   0.389   1.811   5.354 -0.1507  0.0321  0.4666
  788SOL    HW2 2685   0.492   1.934   5.384  0.1012  0.0054 -0.2743
  789SOL     OW 2686   2.526   3.735   1.929 -0.0316 -0.2283 -0.0738
  789SOL    HW1 2687   2.490   3.689   1.848  0.6834 -0.6957 -0.1307
  789SOL    HW2 2688   2.573   3.669   1.988 -1.4804 -0.1105  1.2872
  790SOL     OW 2689   5.076   2.723   1.335  0.2386  0.6559 -0.4056
  790SOL    HW1 2690   5.158   2.738   1.389  0.5006  0.2531 -0.6865
  790SOL    HW2 2691   5.016   2.802   1.343 -0.0977  0.2667  1.1136
  791SOL     OW 2692   0.624   0.040   4.806 -0.2715 -0.1424  0.1103
  791SOL    HW1 2693   0.670  -0.049   4.801 -0.8874 -0.4378 -0.7079
  791SOL    HW2 2694   0.627   0.084   4.716 -2.4975 -0.6788 -0.3038
  792SOL     OW 2695   5.448   3.157   5.495 -0.1337 -0.7317 -0.4791
  792SOL    HW1 2696   5.547   3.150   5.480 -0.0114 -0.1705  0.0394
  792SOL    HW2 2697   5.400   3.105   5.424  0.5575 -2.0380 -0.0388
  793SOL     OW 2698   5.571   3.500   0.313  0.0218 -0.0932 -0.7004
  793SOL    HW1 2699   5.514   3.509   0.395  0.8869 -0.9164  0.0098
  793SOL    HW2 2700   5.559   3.408   0.275  0.4405 -0.0766 -0.8737
  794SOL     OW 2701   0.721   2.617   0.296  0.0577  0.0116  0.3200
  794SOL    HW1 2702   0.650   2.666   0.346 -0.7178 -0.9345  0.1851
  794SOL    HW2 2703   0.761   2.546   0.354  0.2211 -0.0868  0.0925
  795SOL     OW 2704   5.568   2.363   3.609 -0.0681  0.0494 -0.4983
  795SOL    HW1 2705   5.497   2.364   3.679  0.8047  0.3084  0.4006
  795SOL    HW2 2706   5.531   2.321   3.526 -1.4999  0.8889 -0.3192
  796SOL     OW 2707   0.811   1.548   0.135  0.1458  0.1836  0.1054
  796SOL    HW1 2708   0.806   1.624   0.200  1.2542  0.2728  0.1158
  796SOL    HW2 2709   0.719   1.517   0.112 -0.3318  1.5902  0.0363
  797SOL     OW 2710   0.615   2.896   0.884 -0.5533  0.1005 -0.2597
  797SOL    HW1 2711   0.546   2.948   0.834  0.5703  1.4701 -0.4648
  797SOL    HW2 2712   0.639   2.944   0.968  1.1749  0.4309 -0.9023
  798SOL     OW 2713   5.367   2.292   0.082 -0.2309  0.3395 -0.4521
  798SOL    HW1 2714   5.337   2.379   0.120  0.9521  0.1302  1.0559
  798SOL    HW2 2715   5.297   2.257   0.020 -1.0679  1.9683 -0.4831
  799SOL     OW 2716   2.136   4.324   1.338  0.0079  0.1531 -0.3277
  799SOL    HW1 2717   2.128   4.225   1.327 -0.4577  0.3075 -1.4774
  799SOL    HW2 2718   2.077   4.355   1.412  0.5699 -0.4857  0.4061
  800SOL     OW 2719   5.253   5.115   0.093  0.2754  0.1058  0.5219
  800SOL    HW1 2720   5.207   5.129   0.181  1.9747 -0.5461  1.5585
  800SOL    HW2 2721   5.291   5.202   0.061  2.0746 -0.0987  1.8989
  801SOL     OW 2722   0.757   2.851   0.551  0.0131  0.2313 -0.7194
  801SOL    HW1 2723   0.731   2.933   0.603 -1.4730  0.4742 -1.7531
  801SOL    HW2 2724   0.694   2.776   0.573 -0.5463  0.2929 -1.9753
  802SOL     OW 2725   5.473   1.056   5.075 -0.4809 -0.0627 -0.1708
  802SOL    HW1 2726   5.389   1.102   5.048 -0.9975  0.4436  2.1079
  802SOL    HW2 2727   5.466   1.026   5.170  0.8038 -2.6542 -0.7771
  803SOL     OW 2728   0.916   1.706   1.811  0.3979 -0.1189 -0.3031
  803SOL    HW1 2729   0.983   1.756   1.866 -1.7848  1.0429  1.5088
  803SOL    HW2 2730   0.839   1.679   1.869 -0.6498 -1.5536 -2.2270
  804SOL     OW 2731   2.164   3.037   5.507 -0.0533  0.8403 -0.0441
  804SOL    HW1 2732   2.094   2.967   5.502  1.2831 -0.6012  0.4838
  804SOL    HW2 2733   2.125   3.122   5.543 -1.7299  0.4218 -0.8223
  805SOL     OW 2734   2.408   2.938   1.145  0.2876  0.2924 -0.0548
  805SOL    HW1 2735   2.362   2.905   1.227 -0.1828 -2.0443 -1.1540
  805SOL    HW2 2736   2.410   3.038   1.145 -1.5712  0.3976  1.7678
  806SOL     OW 2737   0.656   1.637   1.305  0.0647  0.1828  0.1250
  806SOL    HW1 2738   0.628   1.605   1.395  1.8359 -0.8062  0.3757
  806SOL    HW2 2739   0.728   1.577   1.269  1.8528  2.4864 -0.4360
  807SOL     OW 2740   0.752   2.036   0.169 -0.1148  0.1999  0.8772
  807SOL    HW1 2741   0.836   2.084   0.194 -0.2786  0.7178  0.4453
  807SOL    HW2 2742   0.673   2.086   0.204 -0.3136  0.5694 -0.0793
  808SOL     OW 2743   1.158   4.332   3.636  0.3197 -0.7398  0.2244
  808SOL    HW1 2744   1.247   4.297   3.667  0.9348  1.0090  0.5527
  808SOL    HW2 2745   1.091   4.322   3.709  0.7564 -0.2529  0.6973
  809SOL     OW 2746   1.323   2.549   1.511  0.2171 -0.1254  0.1634
  809SOL    HW1 2747   1.420   2.537   1.493  0.8170  0.2048  2.8403
  809SOL    HW2 2748   1.292   2.480   1.576 -1.3892 -0.2543 -0.6714
  810SOL     OW 2749   1.361   0.902   0.320 -0.0998 -0.1743  0.8854
  810SOL    HW1 2750   1.372   0.813   0.277 -0.8672 -0.3330  0.9954
  810SOL    HW2 2751   1.292   0.896   0.392  1.5401 -0.0386  2.5462
  811SOL     OW 2752   0.946   3.681   1.378 -0.1532 -0.0800  0.1981
  811SOL    HW1 2753   0.880   3.638   1.317  0.4659 -0.6376 -0.0896
  811SOL    HW2 2754   1.029   3.625   1.383  0.4831  0.8361  0.1866
  812SOL     OW 2755   5.348   3.551   2.339  0.6898 -0.6276  0.1095
  812SOL    HW1 2756   5.403   3.500   2.272 -0.2765 -0.5029 -0.8079
  812SOL    HW2 2757   5.359   3.649   2.323 -1.9146 -0.5723 -1.9575
  813SOL     OW 2758   1.255   2.143   1.318  0.6261  0.2684 -0.6557
  813SOL    HW1 2759   1.187   2.088   1.269  1.0806 -1.0697  0.1623
  813SOL    HW2 2760   1.318   2.183   1.253  0.0795  0.0991 -1.3011
  814SOL     OW 2761   0.528   2.243   0.443 -0.6063 -0.6128  0.2507
  814SOL    HW1 2762   0.486   2.268   0.356  1.6057  0.5686 -0.5608
  814SOL    HW2 2763   0.497   2.306   0.515  1.2984  1.6706 -0.7951
  815SOL     OW 2764   5.188   3.531   1.602  0.3637  0.0399  0.2088
  815SOL    HW1 2765   5.244   3.455   1.568  0.3822  0.4617 -0.7377
  815SOL    HW2 2766   5.232   3.618   1.579  0.2415  0.3514  1.1082
  816SOL     OW 2767   1.383   3.202   0.509 -0.1505 -0.0586 -0.0501
  816SOL    HW1 2768   1.381   3.183   0.410 -0.0781 -0.1437 -0.0353
  816SOL    HW2 2769   1.397   3.300   0.524 -2.6203  0.3839 -0.1706
  817SOL     OW 2770   1.638   1.506   0.663 -0.3837 -0.5714  0.0919
  817SOL    HW1 2771   1.563   1.446   0.691 -0.4509 -0.6307 -0.2119
  817SOL    HW2 2772   1.724   1.456   0.670 -0.4470 -0.7293 -0.2282
  818SOL     OW 2773   5.118   1.260   1.443  0.8016  0.1509  0.0217
  818SOL    HW1 2774   5.138   1.206   1.525 -0.3227  0.4847  0.5394
  818SOL    HW2 2775   5.107   1.199   1.365 -0.1836 -0.3552  0.5402
  819SOL     OW 2776   2.197   2.936   0.601 -0.2299  0.5324 -0.6030
  819SOL    HW1 2777   2.168   2.863   0.664  1.4126  2.1682  2.2984
  819SOL    HW2 2778   2.292   2.960   0.620  0.1567  1.5401 -3.4228
  820SOL     OW 2779   1.715   2.046   4.928 -0.2631  0.9813  0.4145
  820SOL    HW1 2780   1.760   2.042   4.839  1.5518 -0.3790  1.3152
  820SOL    HW2 2781   1.778   2.014   4.999 -2.6886 -1.1697  1.7732
  821SOL     OW 2782   0.163   2.903   0.288  0.2627 -0.1580 -0.3858
  821SOL    HW1 2783   0.156   2.953   0.201 -2.4933 -2.8263 -1.9229
  821SOL    HW2 2784   0.209   2.816   0.273 -1.2166 -1.1395  0.5257
  822SOL     OW 2785   1.958   3.671   4.029  0.4384 -0.1885 -0.1816
  822SOL    HW1 2786   1.884   3.614   3.992 -0.9064  2.1125 -1.2473
  822SOL    HW2 2787   2.035   3.669   3.965  1.1455 -2.1341  0.6506
  823SOL     OW 2788   1.083   2.892   1.665 -0.0343 -0.0155  0.1296
  823SOL    HW1 2789   1.082   2.841   1.579 -0.8067 -1.6142  1.0404
  823SOL    HW2 2790   1.006   2.954   1.668 -1.5521 -1.8209  0.6751
  824SOL     OW 2791   4.927   1.753   2.098  0.4825 -0.1769 -0.4469
  824SOL    HW1 2792   4.935   1.676   2.162  3.3214  0.5145  0.1305
  824SOL    HW2 2793   4.950   1.722   2.006  2.3391  0.0917 -0.0960
  825SOL     OW 2794   1.434   2.265   1.129  0.2159  0.1708 -0.6282
  825SOL    HW1 2795   1.430   2.364   1.117  0.8391  0.2186 -0.4682
  825SOL    HW2 2796   1.465   2.222   1.045  1.2984  0.2299 -0.2672
  826SOL     OW 2797   0.172   1.586   1.557  0.1713 -0.3164  0.7362
  826SOL    HW1 2798   0.170   1.553   1.651  0.7210  0.2924  0.9733
  826SOL    HW2 2799   0.251   1.647   1.545 -0.6073  0.6228  0.2291
  827SOL     OW 2800   5.113   3.979   1.364 -0.1204  0.1202  0.0223
  827SOL    HW1 2801   5.147   3.903   1.309 -1.0294 -0.4580  0.2478
  827SOL    HW2 2802   5.154   4.064   1.332  2.7682 -0.6794  1.2495
  828SOL     OW 2803   0.971   0.144   1.908  0.1414 -0.4787 -0.0012
  828SOL    HW1 2804   1.024   0.182   1.984 -0.8519 -0.4553  0.6965
  828SOL    HW2 2805   1.014   0.169   1.822  1.2410 -0.4277  0.5444
  829SOL     OW 2806   5.111   4.129   5.139  0.1968 -0.0588  0.8997
  829SOL    HW1 2807   5.138   4.096   5.048  1.6928  0.1106  1.2569
  829SOL    HW2 2808   5.181   4.103   5.205 -1.1216 -0.6202  2.1123
  830SOL     OW 2809   5.369   3.608   1.983 -0.3903  0.2703  0.1071
  830SOL    HW1 2810   5.417   3.526   2.015 -0.7525 -0.4934 -1.1863
  830SOL    HW2 2811   5.277   3.582   1.954 -0.7015  1.2548  0.2046
  831SOL     OW 2812   4.490   3.595   2.944 -0.3456  0.2136  0.5647
  831SOL    HW1 2813   4.581   3.586   2.984 -0.2417 -3.8272 -0.1966
  831SOL    HW2 2814   4.422   3.550   3.002 -0.9896 -1.2164 -1.1726
  832SOL     OW 2815   0.151   5.329   0.216 -0.1594 -0.1280  0.3035
  832SOL    HW1 2816   0.111   5.292   0.132 -1.2200  0.9725  0.3017
  832SOL    HW2 2817   0.084   5.324   0.290  0.0019  0.9175  0.5295
  833SOL     OW 2818   1.186   2.964   5.228 -0.0323  0.5631 -0.0965
  833SOL    HW1 2819   1.113   2.956   5.160 -0.7968 -1.8809  0.8933
  833SOL    HW2 2820   1.158   3.027   5.300 -0.5717  0.6771 -0.4015
  834SOL     OW 2821   0.580   1.100   4.669 -0.5831  0.2318  0.2504
  834SOL    HW1 2822   0.679   1.115   4.666 -0.7003  1.0906  0.4481
  834SOL    HW2 2823   0.547   1.113   4.762 -0.8735 -0.1317  0.2018
  835SOL     OW 2824   1.438   2.427   5.278  0.4827  0.0272  0.6840
  835SOL    HW1 2825   1.471   2.334   5.293 -0.7739 -0.5996 -0.2969
  835SOL    HW2 2826   1.380   2.454   5.355  0.3016 -0.2558  0.6477
  836SOL     OW 2827   0.873   2.758   2.318  0.2781 -0.1146 -0.0061
  836SOL    HW1 2828   0.915   2.844   2.290  0.4023 -0.5051 -1.0805
  836SOL    HW2 2829   0.774   2.761   2.299  0.1637  0.0516  0.6130
  837SOL     OW 2830   1.546   3.688   5.117 -0.4183  0.4697 -0.3073
  837SOL    HW1 2831   1.621   3.643   5.069  0.8475  0.0508  1.8803
  837SOL    HW2 2832   1.519   3.632   5.196 -1.0916  1.9531  0.5705
  838SOL     OW 2833   0.707   1.701   2.351  0.4300 -0.2223  0.0458
  838SOL    HW1 2834   0.709   1.689   2.451  3.1462  1.0165  0.2297
  838SOL    HW2 2835   0.697   1.798   2.329 -2.8328 -0.6908 -1.0294
  839SOL     OW 2836   1.536   2.409   0.767  0.4498 -0.1349 -0.3841
  839SOL    HW1 2837   1.507   2.481   0.704  1.2426  0.3254 -0.2441
  839SOL    HW2 2838   1.615   2.361   0.728  0.0035 -0.8549 -0.4203
  840SOL     OW 2839   5.503   2.898   1.323  0.3010  0.1968  0.0888
  840SOL    HW1 2840   5.526   2.916   1.227 -1.0101  0.1758 -0.2504
  840SOL    HW2 2841   5.535   2.974   1.380  1.4831  0.0007 -0.2922
  841SOL     OW 2842   2.616   2.196   1.054  0.6747  0.3684  0.1418
  841SOL    HW1 2843   2.667   2.281   1.065  0.6612  0.3633  0.2440
  841SOL    HW2 2844   2.658   2.124   1.109 -0.3853  0.7657  1.5340
  842SOL     OW 2845   0.030   0.705   5.422  0.4905 -0.0638 -0.5573
  842SOL    HW1 2846   0.112   0.735   5.373  1.4073 -0.5995  0.5889
  842SOL    HW2 2847   0.006   0.612   5.394  1.2236 -0.5055  0.2240
  843SOL     OW 2848   1.337   2.868   5.524  0.3008  0.2859 -0.7057
  843SOL    HW1 2849   1.359   2.808   5.447  0.0296 -0.2386 -0.3802
  843SOL    HW2 2850   1.414   2.871   5.587  0.0291 -0.3375 -0.3357
  844SOL     OW 2851   2.908   2.679   1.171  0.7978 -0.2346  0.6352
  844SOL    HW1 2852   2.911   2.752   1.103  2.3187 -0.2302  0.6734
  844SOL    HW2 2853   2.820   2.682   1.219  0.3854  0.8402 -0.1299
  845SOL     OW 2854   2.978   3.741   5.548 -0.1496  0.1534 -0.6547
  845SOL    HW1 2855   3.010   3.814   5.488  1.2454  1.0508  1.0874
  845SOL    HW2 2856   3.052   3.676   5.565 -0.6634 -0.3507 -0.2970
  846SOL     OW 2857   2.944   3.371   4.150  0.1514 -0.4067  0.4503
  846SOL    HW1 2858   2.934   3.272   4.162 -1.0026 -0.1050  2.3956
  846SOL    HW2 2859   3.018   3.405   4.207  0.5047 -0.1096 -0.1652
  847SOL     OW 2860   0.235   2.394   0.672 -0.2438 -0.2208  0.1732
  847SOL    HW1 2861   0.189   2.351   0.594 -0.7896  0.6291  0.0250
  847SOL    HW2 2862   0.169   2.413   0.744  0.4345 -2.0751  1.3688
  848SOL     OW 2863   5.436   1.657   1.729  0.0995  0.4103  0.6333
  848SOL    HW1 2864   5.373   1.656   1.807 -0.0352  2.4487  0.6049
  848SOL    HW2 2865   5.467   1.751   1.713  1.4699 -0.2389 -0.7106
  849SOL     OW 2866   1.334   2.639   1.876 -0.7515 -0.4963  0.0186
  849SOL    HW1 2867   1.247   2.659   1.920 -0.9176 -2.1575  0.5187
  849SOL    HW2 2868   1.339   2.541   1.854  1.4319 -0.6802  1.0428
  850SOL     OW 2869   2.243   4.777   0.053  0.0277  0.4271 -0.3350
  850SOL    HW1 2870   2.330   4.750   0.011 -0.0299 -0.8475  0.3251
  850SOL    HW2 2871   2.173   4.709   0.030 -0.5005  0.8098  0.1291
  851SOL     OW 2872   4.215   4.104   3.680 -0.1786  0.2255 -0.6257
  851SOL    HW1 2873   4.297   4.048   3.689 -0.4854  0.1320  2.5706
  851SOL    HW2 2874   4.137   4.046   3.657 -0.6300 -1.0077  3.3167
  852SOL     OW 2875   0.614   2.811   1.319  0.0935 -0.0214 -0.1386
  852SOL    HW1 2876   0.616   2.879   1.245  0.3641  0.5010  0.3373
  852SOL    HW2 2877   0.562   2.849   1.396  0.3585 -0.3051  0.1794
  853SOL     OW 2878   5.502   3.233   1.206  0.1849  0.1077  0.5691
  853SOL    HW1 2879   5.468   3.327   1.202 -0.5628 -0.1911 -1.5451
  853SOL    HW2 2880   5.591   3.232   1.252 -0.2085  1.6970  1.4484
  854SOL     OW 2881   0.823   2.690   1.449  0.2809  0.2299 -0.1858
  854SOL    HW1 2882   0.905   2.743   1.427  0.6115 -0.5785 -0.9637
  854SOL    HW2 2883   0.747   2.721   1.393  0.2998  0.3437 -0.1484
  855SOL     OW 2884   1.829   3.365   5.415  0.1544  0.3266  0.2659
  855SOL    HW1 2885   1.789   3.311   5.341  0.0603  1.4513 -0.5314
  855SOL    HW2 2886   1.775   3.449   5.427 -0.1669 -0.0910  1.9968
  856SOL     OW 2887   0.428   5.109   1.452 -0.0228 -0.4854  0.2646
  856SOL    HW1 2888   0.336   5.136   1.479 -0.2472  0.9050 -1.6121
  856SOL    HW2 2889   0.458   5.030   1.506 -1.8443 -0.2669  1.6890
  857SOL     OW 2890   4.843   2.084   4.038  0.6265 -0.6350  0.0278
  857SOL    HW1 2891   4.846   1.984   4.047  0.5516 -0.5572  1.0912
  857SOL    HW2 2892   4.930   2.123   4.069  0.0448 -0.2803  1.3073
  858SOL     OW 2893   1.212   3.045   1.470 -0.2081 -0.1828 -0.1472
  858SOL    HW1 2894   1.220   2.946   1.461 -0.3464 -0.1435 -0.7324
  858SOL    HW2 2895   1.229   3.088   1.382 -2.8435  0.1447 -0.5759
  859SOL     OW 2896   2.032   2.858   1.438 -0.3765  0.1193  0.3030
  859SOL    HW1 2897   2.026   2.850   1.538 -1.4572 -3.3138  0.0853
  859SOL    HW2 2898   1.946   2.893   1.402 -0.2891  0.5409  0.4906
  860SOL     OW 2899   0.368   1.770   1.513  0.2128 -0.1823  0.3869
  860SOL    HW1 2900   0.466   1.784   1.517  0.2117 -0.1394  0.2848
  860SOL    HW2 2901   0.329   1.828   1.441 -0.0764  0.8060  1.3078
  861SOL     OW 2902   0.660   3.624   0.295  0.3744 -0.0118 -0.0426
  861SOL    HW1 2903   0.720   3.604   0.373 -1.7954 -1.1556  1.4498
  861SOL    HW2 2904   0.660   3.722   0.277  1.7353  0.1461  0.6945
  862SOL     OW 2905   1.552   1.820   5.284  0.0503 -0.0468 -0.0395
  862SOL    HW1 2906   1.608   1.753   5.235  1.5757  2.0518 -1.3275
  862SOL    HW2 2907   1.607   1.865   5.354 -0.4135  1.0370 -0.3406
  863SOL     OW 2908   2.717   0.694   4.837 -0.6992  0.4131 -0.3116
  863SOL    HW1 2909   2.800   0.702   4.783  0.4281  2.0824  1.5034
  863SOL    HW2 2910   2.709   0.601   4.873  0.8253  0.4170  0.1060
  864SOL     OW 2911   0.759   1.659   2.050  0.0516  0.6458  0.5962
  864SOL    HW1 2912   0.828   1.647   2.121 -0.8791  0.0601  1.4234
  864SOL    HW2 2913   0.669   1.640   2.087 -0.7243  2.5637 -0.1338
  865SOL     OW 2914   4.469   2.287   2.010  0.3655  0.3866  0.5085
  865SOL    HW1 2915   4.451   2.382   2.037  0.1853  0.4645  0.1260
  865SOL    HW2 2916   4.495   2.234   2.090 -1.1189  0.3874  1.0241
  866SOL     OW 2917   1.439   2.547   0.194  0.2897  0.4284 -0.3155
  866SOL    HW1 2918   1.513   2.566   0.130  1.8099 -0.8953  0.9747
  866SOL    HW2 2919   1.468   2.479   0.261 -1.1911  1.7797  1.8631
  867SOL     OW 2920   4.941   3.905   2.115  0.1666  0.8048  0.1002
  867SOL    HW1 2921   4.885   3.945   2.187  1.3808  1.1416  0.8937
  867SOL    HW2 2922   4.991   3.826   2.152 -0.1396  0.2150 -0.7190
  868SOL     OW 2923   5.035   2.387   2.358 -0.8678  0.2336 -0.0518
  868SOL    HW1 2924   5.106   2.423   2.298  2.5911 -0.3081  3.2942
  868SOL    HW2 2925   4.978   2.462   2.391 -0.3426  1.0667 -0.9934
  869SOL     OW 2926   1.576   2.427   3.839  0.2439 -0.3375  0.3725
  869SOL    HW1 2927   1.536   2.355   3.895  0.5538 -1.5582 -0.8997
  869SOL    HW2 2928   1.565   2.515   3.884 -3.3126 -0.6589  0.4197
  870SOL     OW 2929   0.987   2.081   3.653 -0.1947 -0.2220  0.0343
  870SOL    HW1 2930   0.892   2.110   3.647 -0.8427 -1.9177  1.4663
  870SOL    HW2 2931   0.991   1.982   3.663  1.6907 -0.0848  1.0060
  871SOL     OW 2932   5.397   2.043   2.773  0.4949 -0.3761  0.1283
  871SOL    HW1 2933   5.476   2.061   2.831  1.0525  2.1567 -1.3119
  871SOL    HW2 2934   5.313   2.056   2.826  1.0079  0.9185  0.6557
  872SOL     OW 2935   2.203   2.593   3.138  0.3199  0.2592  0.1163
  872SOL    HW1 2936   2.259   2.599   3.221 -1.2755  1.0080  1.2128
  872SOL    HW2 2937   2.122   2.651   3.150 -1.1245 -1.4400 -1.0229
  873SOL     OW 2938   2.249   2.655   2.866 -0.0492  0.0960 -0.2937
  873SOL    HW1 2939   2.334   2.606   2.849 -0.5451 -0.9702  0.2037
  873SOL    HW2 2940   2.206   2.621   2.949 -0.7423  0.9309 -0.2877
  874SOL     OW 2941   1.862   0.020   1.476  0.1488  0.3038  0.3674
  874SOL    HW1 2942   1.930  -0.005   1.546 -1.4245 -2.2279  1.1220
  874SOL    HW2 2943   1.773   0.035   1.520 -0.0291  2.7713 -0.6959
  875SOL     OW 2944  -0.001   2.285   3.308  0.4289  0.0710 -0.0459
  875SOL    HW1 2945   0.090   2.324   3.293  0.5254 -0.4648 -0.9067
  875SOL    HW2 2946   0.007   2.191   3.340  0.1795 -0.4247 -1.4018
  876SOL     OW 2947   0.369   2.557   2.206 -0.1390  0.4877  0.0137
  876SOL    HW1 2948   0.317   2.490   2.259  1.6874 -0.7595  0.3196
  876SOL    HW2 2949   0.381   2.640   2.260  0.2716 -0.1446  0.9114
  877SOL     OW 2950   4.677   1.597   3.741 -0.6029 -0.2296 -0.2810
  877SOL    HW1 2951   4.763   1.554   3.717  0.2514  0.8941  0.6543
  877SOL    HW2 2952   4.648   1.566   3.831 -1.5001 -1.0447 -0.8294
  878SOL     OW 2953   5.359   1.837   3.667  0.1415 -0.4530 -0.2626
  878SOL    HW1 2954   5.348   1.738   3.675  1.3384 -0.6888 -1.2976
  878SOL    HW2 2955   5.270   1.879   3.646 -0.5697 -1.1677  1.1804
  879SOL     OW 2956   0.381   2.510   3.460 -0.4024 -0.2581 -0.2881
  879SOL    HW1 2957   0.330   2.539   3.541 -1.3644 -0.9180 -0.6356
  879SOL    HW2 2958   0.423   2.590   3.417 -2.1566  0.5117 -0.6547
  880SOL     OW 2959   2.156   5.028   2.943  0.1300  0.0329  0.1976
  880SOL    HW1 2960   2.187   5.070   2.858 -2.2044 -0.0050 -0.7480
  880SOL    HW2 2961   2.140   5.099   3.011  0.1966  0.2510 -0.0102
  881SOL     OW 2962   1.212   1.005   3.747 -0.2167  0.3794 -0.2304
  881SOL    HW1 2963   1.134   1.066   3.738  0.3884  1.6508  2.3374
  881SOL    HW2 2964   1.249   0.984   3.657 -1.6713  2.1720 -1.2989
  882SOL     OW 2965   2.510   3.212   2.485  0.1688  0.1316  0.2715
  882SOL    HW1 2966   2.425   3.174   2.450 -0.2758 -0.1901  1.6344
  882SOL    HW2 2967   2.588   3.166   2.442 -0.3219  0.5308 -1.0905
  883SOL     OW 2968   0.029   3.440   3.037  0.4978 -0.4523  0.5686
  883SOL    HW1 2969   0.077   3.352   3.037  0.5970 -0.4428  2.4180
  883SOL    HW2 2970  -0.022   3.450   3.122 -1.0160  0.5186 -0.4043
  884SOL     OW 2971   1.455   5.344   3.371  0.5846 -0.2315  0.0370
  884SOL    HW1 2972   1.550   5.373   3.380  0.6263 -0.2529 -0.3153
  884SOL    HW2 2973   1.402   5.379   3.448  0.6938  0.5162 -0.2209
  885SOL     OW 2974   2.666   3.913   3.017  0.2331 -0.0362  0.5798
  885SOL    HW1 2975   2.675   4.000   2.970  1.4047 -0.6526 -0.3841
  885SOL    HW2 2976   2.757   3.879   3.042 -0.3288  0.8499  4.4583
  886SOL     OW 2977   1.775   3.002   3.264 -0.5875  0.0301 -0.0034
  886SOL    HW1 2978   1.781   2.961   3.173 -1.0299  0.8581 -0.4172
  886SOL    HW2 2979   1.819   2.942   3.331  2.3142  0.6847 -1.1707
  887SOL     OW 2980   3.921   3.862   5.458  0.1997  0.4288  0.0846
  887SOL    HW1 2981   3.892   3.942   5.511 -0.2238  0.8673 -0.7840
  887SOL    HW2 2982   3.900   3.779   5.509 -2.8486  0.6943 -0.5357
  888SOL     OW 2983   4.913   1.060   3.183  0.9958 -0.1127  0.3046
  888SOL    HW1 2984   4.901   1.057   3.084  0.3123  3.7587  0.0965
  888SOL    HW2 2985   4.852   0.994   3.227 -0.4768 -0.2374 -1.7992
  889SOL     OW 2986   1.499   2.471   3.491  0.2561  0.5505  1.0326
  889SOL    HW1 2987   1.573   2.510   3.545 -0.5961 -0.1565  2.8168
  889SOL    HW2 2988   1.414   2.477   3.543 -1.0414  1.6193 -1.0839
  890SOL     OW 2989   1.686   2.086   3.710  0.5522  0.0735 -0.0488
  890SOL    HW1 2990   1.668   2.026   3.788 -0.6302  0.0119 -0.3556
  890SOL    HW2 2991   1.681   2.032   3.626  0.5289  0.3958 -0.2533
  891SOL     OW 2992   1.501   3.297   2.707  0.2986 -0.4209  0.4605
  891SOL    HW1 2993   1.403   3.303   2.691  0.3040 -1.6591 -0.0933
  891SOL    HW2 2994   1.542   3.387   2.690 -0.6428 -0.0430  0.0887
  892SOL     OW 2995   0.047   4.067   0.868 -0.0663  0.3738  0.0492
  892SOL    HW1 2996   0.002   4.029   0.949  0.8424 -0.2123  0.2974
  892SOL    HW2 2997   0.121   4.127   0.897 -0.7581  1.4329 -0.3532
  893SOL     OW 2998   1.359   2.944   2.416 -0.3109  0.1812 -0.4147
  893SOL    HW1 2999   1.326   3.033   2.449  2.0517 -0.0319  3.1008
  893SOL    HW2 3000   1.288   2.875   2.432 -1.3571  1.0438 -1.1631
  894SOL     OW 3001   1.569   1.677   1.628 -0.3918 -0.4302 -0.1198
  894SOL    HW1 3002   1.623   1.597   1.651 -1.5559 -1.0271  0.5809
  894SOL    HW2 3003   1.475   1.650   1.609 -0.9943  0.8416  0.9020
  895SOL     OW 3004   1.238   0.989   4.226 -0.2183  0.5829 -0.2984
  895SOL    HW1 3005   1.142   1.015   4.216 -0.2077 -0.0882 -2.8176
  895SOL    HW2 3006   1.291   1.070   4.251 -1.2331  1.2796 -0.3185
  896SOL     OW 3007   0.934   4.456   2.080 -0.4453 -0.2848 -0.4098
  896SOL    HW1 3008   0.984   4.424   2.160  0.2261  0.3867 -0.5467
  896SOL    HW2 3009   0.973   4.415   1.998 -0.6313 -0.3659 -0.4591
  897SOL     OW 3010   1.523   4.113   2.382 -0.1672 -0.4379 -0.0558
  897SOL    HW1 3011   1.490   4.031   2.428  0.7644 -0.7196  0.1301
  897SOL    HW2 3012   1.596   4.155   2.436 -2.0561  1.7414  0.9527
  898SOL     OW 3013   1.363   1.570   3.179 -0.0066  0.5237 -0.1665
  898SOL    HW1 3014   1.326   1.640   3.240  0.1859 -0.1016  0.6837
  898SOL    HW2 3015   1.314   1.484   3.192  1.8287 -0.3982  1.1641
  899SOL     OW 3016   2.132   4.482   1.850  0.1558 -0.0599 -0.1490
  899SOL    HW1 3017   2.066   4.536   1.902 -1.5088 -0.2416 -1.9312
  899SOL    HW2 3018   2.165   4.406   1.905  0.1600  0.9863  1.3391
  900SOL     OW 3019   4.949   2.103   2.688 -0.5671 -0.1783 -0.8507
  900SOL    HW1 3020   4.984   2.100   2.595  0.9124  0.8862 -0.3602
  900SOL    HW2 3021   4.901   2.189   2.703  0.9135  0.5491 -0.0778
  901SOL     OW 3022   0.435   4.668   3.761 -0.7533 -0.3882 -0.4742
  901SOL    HW1 3023   0.440   4.648   3.663 -2.0855 -1.3958 -0.3784
  901SOL    HW2 3024   0.343   4.701   3.783 -1.0342 -1.8023  0.6721
  902SOL     OW 3025   0.364   1.780   3.049 -0.2877  0.3218 -0.4582
  902SOL    HW1 3026   0.314   1.847   3.104 -0.6584  0.1964 -0.6436
  902SOL    HW2 3027   0.457   1.814   3.033 -0.2570  0.4739  0.0328
  903SOL     OW 3028   1.883   1.297   3.781 -0.3078  0.2590  0.0470
  903SOL    HW1 3029   1.847   1.356   3.709 -1.0367  0.2114  0.3740
  903SOL    HW2 3030   1.828   1.305   3.864 -1.5836 -2.2438 -0.4586
  904SOL     OW 3031   1.526   3.786   3.181 -0.7456 -0.5011  0.0603
  904SOL    HW1 3032   1.518   3.797   3.280 -0.4008 -0.7772  0.1180
  904SOL    HW2 3033   1.607   3.834   3.148  0.5550 -2.4492  0.2608
  905SOL     OW 3034   0.502   3.780   2.848 -0.2307  0.0655 -0.1082
  905SOL    HW1 3035   0.539   3.703   2.796 -0.9569 -0.9127  0.8003
  905SOL    HW2 3036   0.575   3.821   2.904  0.1880  0.1573 -0.7021
  906SOL     OW 3037   4.595   1.891   3.239  0.3231 -0.2483  0.3549
  906SOL    HW1 3038   4.548   1.804   3.248  1.8781 -1.0371  1.2165
  906SOL    HW2 3039   4.649   1.909   3.321  0.4724  1.2639 -0.0415
  907SOL     OW 3040   0.856   1.673   2.578  0.0356 -0.3988  0.4059
  907SOL    HW1 3041   0.834   1.764   2.612 -0.5178 -1.2601  2.5810
  907SOL    HW2 3042   0.926   1.632   2.637  0.7499 -1.1557 -0.9279
  908SOL     OW 3043   1.545   3.888   2.582 -0.6301  0.1728  0.3892
  908SOL    HW1 3044   1.492   3.803   2.578 -0.1695 -0.1482  0.9241
  908SOL    HW2 3045   1.552   3.918   2.677 -0.0343  0.3224  0.3019
  909SOL     OW 3046   2.016   3.346   2.431 -0.4095 -0.4433  0.2408
  909SOL    HW1 3047   1.918   3.327   2.435 -0.7723  1.4028  1.5201
  909SOL    HW2 3048   2.045   3.347   2.336 -2.2342  1.5315 -0.3876
  910SOL     OW 3049   0.885   3.938   2.514 -0.4831 -0.1950  0.4204
  910SOL    HW1 3050   0.918   3.921   2.607 -0.2215  3.5447  1.1362
  910SOL    HW2 3051   0.953   3.990   2.463 -1.4228 -0.5406 -1.2709
  911SOL     OW 3052   1.259   3.039   1.808  0.5732  0.0609  0.0395
  911SOL    HW1 3053   1.327   2.969   1.830 -1.1100 -1.1124  1.7876
  911SOL    HW2 3054   1.217   3.018   1.720  1.1416 -0.2881 -0.1532
  912SOL     OW 3055   2.258   3.350   0.020  0.2374 -0.7761  0.5277
  912SOL    HW1 3056   2.280   3.447   0.032 -1.2751 -0.3654  0.1510
  912SOL    HW2 3057   2.331   3.294   0.060  1.0418  0.5066  0.9109
  913SOL     OW 3058   4.855   2.472   3.455  0.2009  0.1281 -0.3062
  913SOL    HW1 3059   4.799   2.415   3.395 -1.6308 -1.2886  2.5337
  913SOL    HW2 3060   4.812   2.561   3.466 -0.6160 -0.3546  0.5164
  914SOL     OW 3061   0.249   3.318   4.225 -0.2300  0.2304 -0.1621
  914SOL    HW1 3062   0.301   3.390   4.270  0.0376 -0.0626 -0.0010
  914SOL    HW2 3063   0.182   3.359   4.163 -0.3692  0.6279  0.2434
  915SOL     OW 3064   0.347   2.069   2.224 -0.0394 -0.0214  0.1209
  915SOL    HW1 3065   0.268   2.007   2.227 -0.3067  0.3188  0.1541
  915SOL    HW2 3066   0.390   2.063   2.134  1.0982 -1.6825  0.7186
  916SOL     OW 3067   1.457   2.526   4.100 -0.4252  0.6255  0.2125
  916SOL    HW1 3068   1.377   2.528   4.160 -1.0935  0.5717 -0.6600
  916SOL    HW2 3069   1.539   2.507   4.154 -0.8734  1.5363  1.2507
  917SOL     OW 3070   0.843   2.946   0.306  0.0560  0.1171 -0.3182
  917SOL    HW1 3071   0.837   2.891   0.389  0.8269 -0.6262 -0.7473
  917SOL    HW2 3072   0.893   3.030   0.325  0.6611 -0.2771 -0.1393
  918SOL     OW 3073   1.609   2.948   1.982 -0.5535  0.2485 -0.3604
  918SOL    HW1 3074   1.703   2.976   2.001 -0.5113  0.4404 -0.8371
  918SOL    HW2 3075   1.547   2.997   2.042 -0.2582 -0.8575  0.8896
  919SOL     OW 3076   0.812   4.170   3.598 -0.1627 -0.1095 -0.0605
  919SOL    HW1 3077   0.760   4.209   3.674  0.2454 -0.6294  0.4950
  919SOL    HW2 3078   0.771   4.198   3.512 -0.8617  0.1746  0.3578
  920SOL     OW 3079   4.623   3.705   2.725  0.0692  0.6171  0.2265
  920SOL    HW1 3080   4.562   3.633   2.758  1.7283 -1.6079 -1.2532
  920SOL    HW2 3081   4.713   3.666   2.705  0.9173  3.0386 -1.1136
  921SOL     OW 3082   0.518   2.132   2.806 -0.4991 -0.1215 -0.1964
  921SOL    HW1 3083   0.431   2.086   2.786  0.8866 -2.8118 -0.5412
  921SOL    HW2 3084   0.559   2.164   2.721 -0.9884  0.9072 -0.0609
  922SOL     OW 3085   1.774   3.384   3.103  0.0151  0.3684  0.4631
  922SOL    HW1 3086   1.848   3.449   3.119 -0.5259  1.1075  0.0353
  922SOL    HW2 3087   1.779   3.309   3.170  2.0639 -0.4354 -0.5158
  923SOL     OW 3088   5.190   3.289   2.073  0.0533  0.1143 -0.4170
  923SOL    HW1 3089   5.287   3.289   2.095  0.4415 -3.4487 -1.4931
  923SOL    HW2 3090   5.170   3.361   2.006  1.9785  0.7124 -0.3929
  924SOL     OW 3091   1.688   3.092   2.712 -0.5826 -0.9160 -0.5460
  924SOL    HW1 3092   1.763   3.123   2.771 -1.0013 -1.1213  0.0978
  924SOL    HW2 3093   1.625   3.168   2.696 -0.9585 -1.1068  0.0274
  925SOL     OW 3094   1.249   1.509   5.077 -0.2436 -0.2474 -0.1182
  925SOL    HW1 3095   1.328   1.448   5.072 -0.1320 -0.0473 -1.1282
  925SOL    HW2 3096   1.215   1.513   5.171 -1.5875 -3.5674 -0.3320
  926SOL     OW 3097   1.435   3.752   0.465  0.1964  0.0179  0.3342
  926SOL    HW1 3098   1.469   3.770   0.373 -1.9336 -0.5111 -0.6430
  926SOL    HW2 3099   1.422   3.838   0.514 -0.9465  0.5257 -0.7957
  927SOL     OW 3100   0.986   2.660   2.749 -0.2181 -0.1467  0.2195
  927SOL    HW1 3101   1.066   2.619   2.707 -0.6825 -2.7378  1.6042
  927SOL    HW2 3102   1.005   2.677   2.846 -1.6663 -2.1521  0.9356
  928SOL     OW 3103   0.653   4.629   1.098 -0.2967  0.4815  0.1141
  928SOL    HW1 3104   0.645   4.597   1.004  0.9480 -0.4114  0.2877
  928SOL    HW2 3105   0.738   4.680   1.109 -0.3531  0.4403  0.7916
  929SOL     OW 3106   5.233   3.874   0.715  0.4088 -0.1057 -0.1740
  929SOL    HW1 3107   5.299   3.801   0.701  0.4556  0.1760 -1.5466
  929SOL    HW2 3108   5.176   3.884   0.633  0.2182  1.2089  0.0927
  930SOL     OW 3109   1.501   4.032   0.542  0.0814  0.1934 -0.0448
  930SOL    HW1 3110   1.598   4.031   0.519 -0.3951  1.6841 -2.5209
  930SOL    HW2 3111   1.474   4.123   0.573 -0.6817  0.0340 -0.2133
  931SOL     OW 3112   4.798   3.121   4.318  0.3035 -0.1039  0.3243
  931SOL    HW1 3113   4.835   3.156   4.232  0.2657  0.9960  0.7423
  931SOL    HW2 3114   4.721   3.177   4.346 -0.2886 -1.0390  0.5970
  932SOL     OW 3115   0.222   1.762   2.818 -0.5705  0.1933 -0.4788
  932SOL    HW1 3116   0.132   1.723   2.838 -1.1900  0.5211 -2.4292
  932SOL    HW2 3117   0.280   1.755   2.899 -1.3887 -2.6246 -0.0181
  933SOL     OW 3118   4.452   2.159   2.338  0.1158  0.1518  0.2775
  933SOL    HW1 3119   4.482   2.252   2.359 -2.2616  1.1971 -0.5631
  933SOL    HW2 3120   4.492   2.129   2.252 -0.6362  1.2019 -0.4514
  934SOL     OW 3121   1.986   2.115   2.967 -0.2974  0.0591  0.0316
  934SOL    HW1 3122   2.059   2.082   2.905  0.1183  1.3790 -0.2100
  934SOL    HW2 3123   1.920   2.168   2.914  0.5241  1.9539  0.8070
  935SOL     OW 3124   3.864   1.742   1.624 -0.8063  0.2673  0.3245
  935SOL    HW1 3125   3.878   1.839   1.604 -2.5142  0.2803 -1.1060
  935SOL    HW2 3126   3.854   1.692   1.538 -2.3271 -0.7443  1.0418
  936SOL     OW 3127   5.466   2.011   3.468 -0.1391  0.1662  0.0444
  936SOL    HW1 3128   5.447   1.931   3.524  0.1812  0.3793  0.4668
  936SOL    HW2 3129   5.392   2.078   3.480 -1.6499 -0.9883 -2.1192
  937SOL     OW 3130   2.582   1.146   3.917 -0.1602  0.3931  0.6728
  937SOL    HW1 3131   2.523   1.091   3.977 -0.5167  1.1085  0.9875
  937SOL    HW2 3132   2.529   1.219   3.875 -0.0024 -0.3528 -0.8663
  938SOL     OW 3133   1.361   3.325   3.980 -0.0527  0.3894  0.1923
  938SOL    HW1 3134   1.332   3.333   3.885  0.6553  0.0611 -0.0560
  938SOL    HW2 3135   1.284   3.294   4.036 -0.1013 -0.8066 -0.5061
  939SOL     OW 3136   1.501   3.058   0.937 -0.4094  0.3351  0.0252
  939SOL    HW1 3137   1.599   3.040   0.938 -0.4331  0.0678 -0.9242
  939SOL    HW2 3138   1.467   3.053   0.843 -0.9130  2.7802  0.0177
  940SOL     OW 3139   5.529   1.266   2.389 -0.0217 -0.2996  0.6474
  940SOL    HW1 3140   5.437   1.305   2.391 -0.0971 -0.4450  0.0538
  940SOL    HW2 3141   5.539   1.200   2.463 -1.0869 -1.8209 -0.5225
  941SOL     OW 3142   5.119   2.112   2.897  0.0369  0.9995 -0.5134
  941SOL    HW1 3143   5.116   2.183   2.968  1.0004  1.1218 -0.5764
  941SOL    HW2 3144   5.057   2.136   2.823 -2.2168  0.0891  0.9617
  942SOL     OW 3145   0.957   1.620   2.242 -0.1747 -0.5279  0.0664
  942SOL    HW1 3146   1.035   1.573   2.283 -0.8630  0.7147  3.1033
  942SOL    HW2 3147   0.889   1.639   2.313 -1.6816  1.5483 -1.7816
  943SOL     OW 3148   1.189   3.440   1.741 -0.0489 -0.0180  0.2382
  943SOL    HW1 3149   1.159   3.367   1.680  0.0180  0.1884 -0.0407
  943SOL    HW2 3150   1.272   3.412   1.789 -1.7211 -1.4219  2.5129
  944SOL     OW 3151   2.118   4.356   2.450 -0.0003  0.4419  0.2939
  944SOL    HW1 3152   2.043   4.408   2.408 -0.6647  1.0170  2.0915
  944SOL    HW2 3153   2.201   4.411   2.449 -0.2313  0.7971  0.5198
  945SOL     OW 3154   0.640   1.955   2.212 -0.1988 -0.4040  0.9688
  945SOL    HW1 3155   0.632   1.945   2.113 -0.1343 -1.2112  1.0389
  945SOL    HW2 3156   0.552   1.984   2.249 -0.0078  0.7262  0.5959
  946SOL     OW 3157   2.085   2.954   3.292  0.3324 -0.0737  0.1268
  946SOL    HW1 3158   2.066   2.880   3.228  2.3521 -0.9009  0.4100
  946SOL    HW2 3159   2.074   3.042   3.246 -0.4616 -0.5839 -0.6884
  947SOL     OW 3160   1.930   3.600   3.152 -0.5820 -0.0039 -0.4359
  947SOL    HW1 3161   1.863   3.675   3.159 -1.3770 -0.7765  0.6853
  947SOL    HW2 3162   2.020   3.638   3.133 -0.9286  1.2699  0.3105
  948SOL     OW 3163   1.900   3.512   2.193  0.2185  0.2877  0.1248
  948SOL    HW1 3164   1.886   3.517   2.291  1.1757  1.0594  0.2395
  948SOL    HW2 3165   1.933   3.421   2.168 -2.3360 -0.7124  0.1687
  949SOL     OW 3166   5.054   2.504   1.991  0.1634 -0.3159  0.8982
  949SOL    HW1 3167   5.061   2.598   2.023  0.2300  0.2935 -0.8139
  949SOL    HW2 3168   4.957   2.479   1.985  0.0374  0.4657 -0.8311
  950SOL     OW 3169   1.070   1.803   2.890 -0.3636 -0.2820  0.4246
  950SOL    HW1 3170   1.162   1.820   2.927 -0.0039  1.2375 -1.0339
  950SOL    HW2 3171   1.066   1.837   2.796 -1.5660 -3.0196 -0.5851
  951SOL     OW 3172   1.198   2.539   2.635  0.3218 -0.3919 -0.0986
  951SOL    HW1 3173   1.178   2.453   2.587  1.5084 -0.7392 -0.0259
  951SOL    HW2 3174   1.202   2.614   2.569 -1.3910 -0.2525 -0.0774
  952SOL     OW 3175   2.878   1.146   2.835 -0.1393 -0.0212  0.2960
  952SOL    HW1 3176   2.809   1.075   2.819 -0.8699  0.1068  2.4889
  952SOL    HW2 3177   2.931   1.160   2.752 -0.7588 -2.2715 -0.5604
  953SOL     OW 3178   0.885   1.401   3.039  0.6692 -0.6854 -0.8503
  953SOL    HW1 3179   0.828   1.386   2.958  1.0789  1.3113 -1.5740
  953SOL    HW2 3180   0.892   1.316   3.091 -1.2993 -1.5039 -1.7970
  954SOL     OW 3181   1.915   4.159   1.681  0.0879  0.1038  0.0465
  954SOL    HW1 3182   1.986   4.109   1.631  0.8950  0.8486  0.4449
  954SOL    HW2 3183   1.926   4.143   1.779 -0.4167  0.0751  0.0999
  955SOL     OW 3184   2.033   1.474   3.213 -0.6927 -0.2639  0.4654
  955SOL    HW1 3185   1.992   1.490   3.303  0.4475  0.0597  0.9359
  955SOL    HW2 3186   2.091   1.552   3.189  1.7027 -1.8044  0.9650
  956SOL     OW 3187   1.777   2.647   1.916  0.2669 -0.6705  0.0598
  956SOL    HW1 3188   1.754   2.737   1.953  0.0695 -0.1853 -1.1741
  956SOL    HW2 3189   1.733   2.636   1.827 -2.2788 -3.2140  1.4552
  957SOL     OW 3190   1.221   3.408   2.123 -0.1130 -0.0491  0.3171
  957SOL    HW1 3191   1.222   3.398   2.223  0.9482  0.3903  0.3702
  957SOL    HW2 3192   1.188   3.498   2.098  0.5435  0.2009  0.3257
  958SOL     OW 3193   2.232   3.051   1.758  0.4651  0.2002  0.1727
  958SOL    HW1 3194   2.223   3.086   1.852  2.0020 -1.1563  0.8834
  958SOL    HW2 3195   2.298   2.975   1.757  1.7814  1.2583 -2.2776
  959SOL     OW 3196   1.035   2.005   1.174  0.1474  0.1460 -0.3618
  959SOL    HW1 3197   1.118   1.950   1.186 -0.4849 -0.6482  0.4447
  959SOL    HW2 3198   0.956   1.945   1.167 -0.4454  0.9258 -0.4450
  960SOL     OW 3199   0.007   4.009   2.885  0.0386 -0.7169 -0.0414
  960SOL    HW1 3200   0.041   4.003   2.979 -0.7486 -0.0548  0.2987
  960SOL    HW2 3201   0.067   4.068   2.832 -1.0694  1.3090  0.8291
  961SOL     OW 3202   1.998   3.503   2.882 -0.3962 -0.2727  0.1257
  961SOL    HW1 3203   1.931   3.553   2.828 -0.3994 -0.4569 -0.0434
  961SOL    HW2 3204   1.983   3.521   2.979  0.3860  1.0552  0.0243
  962SOL     OW 3205   1.464   2.842   1.783  0.4354 -0.1159 -0.1035
  962SOL    HW1 3206   1.423   2.758   1.818 -2.1344  1.6859  1.5408
  962SOL    HW2 3207   1.534   2.874   1.848 -0.5798  0.4435  0.7424
  963SOL     OW 3208   1.092   2.740   3.320  0.0801  0.2815  0.5277
  963SOL    HW1 3209   1.076   2.673   3.248  2.9915 -0.6343  0.6187
  963SOL    HW2 3210   1.093   2.832   3.281  1.9352 -0.2267 -0.7107
  964SOL     OW 3211   0.200   3.520   1.237  0.2785  0.1188  0.5528
  964SOL    HW1 3212   0.204   3.616   1.211 -0.0259 -0.1262 -0.4597
  964SOL    HW2 3213   0.147   3.470   1.169 -0.6425 -0.5477  1.7244
  965SOL     OW 3214   3.415   4.246   2.981 -0.2755  0.3853  0.8736
  965SOL    HW1 3215   3.462   4.329   2.953 -0.4812  0.4538  0.7296
  965SOL    HW2 3216   3.325   4.242   2.938 -0.0430 -0.1932  0.4219
  966SOL     OW 3217   0.714   2.172   3.005 -0.2534 -0.1749 -0.0964
  966SOL    HW1 3218   0.659   2.139   2.929 -0.6476  0.4683 -0.1014
  966SOL    HW2 3219   0.792   2.111   3.020 -0.6913 -0.8140 -0.4108
  967SOL     OW 3220   1.511   3.128   3.211  0.5942  0.2474 -0.0977
  967SOL    HW1 3221   1.606   3.103   3.229  0.1954 -1.2310  0.0846
  967SOL    HW2 3222   1.450   3.060   3.252 -0.5797  1.5946  0.4776
  968SOL     OW 3223   0.603   4.212   2.019  0.5608  0.1090 -0.8456
  968SOL    HW1 3224   0.552   4.224   2.105  1.8292 -0.2817 -0.0083
  968SOL    HW2 3225   0.625   4.301   1.980  0.5967  0.3055 -0.3814
  969SOL     OW 3226   0.315   2.700   1.364 -0.0797  0.7438 -0.2768
  969SOL    HW1 3227   0.329   2.715   1.266  1.5978  0.2086 -0.1418
  969SOL    HW2 3228   0.403   2.702   1.411 -0.7164 -0.3807  1.0299
  970SOL     OW 3229   2.125   3.875   1.881 -0.6109 -0.1998  0.2713
  970SOL    HW1 3230   2.083   3.785   1.867 -2.2970  0.5501  0.3022
  970SOL    HW2 3231   2.210   3.864   1.933  0.1707 -1.9295 -1.2481
  971SOL     OW 3232   5.021   3.333   4.286 -0.6987  0.2400  0.0784
  971SOL    HW1 3233   5.048   3.274   4.362  3.8492  1.6018 -0.2006
  971SOL    HW2 3234   5.038   3.428   4.310  2.9011  0.6400 -3.0939
  972SOL     OW 3235   1.424   2.104   1.527  0.6181  0.1409  0.6544
  972SOL    HW1 3236   1.484   2.030   1.495 -0.3864 -0.3884 -0.0521
  972SOL    HW2 3237   1.348   2.114   1.464  0.3010  1.2381  1.2003
  973SOL     OW 3238   0.186   3.108   2.837 -0.0623 -0.6697 -0.6527
  973SOL    HW1 3239   0.185   3.196   2.789  3.4738  1.3242  2.3778
  973SOL    HW2 3240   0.244   3.044   2.787  1.1303  0.3497 -0.6341
  974SOL     OW 3241   1.840   2.307   1.594  0.0269  0.1307  0.5283
  974SOL    HW1 3242   1.772   2.265   1.654  0.9937  0.2074  1.7025
  974SOL    HW2 3243   1.932   2.278   1.622  0.4866 -0.3418 -1.3089
  975SOL     OW 3244   0.682   4.513   3.773  0.1045 -0.2624  0.3250
  975SOL    HW1 3245   0.592   4.557   3.766  1.0748  1.9872  1.0611
  975SOL    HW2 3246   0.739   4.540   3.695  0.0043 -2.1512 -0.4557
  976SOL     OW 3247   4.210   1.602   2.152 -0.2652 -0.1428 -0.1725
  976SOL    HW1 3248   4.284   1.585   2.217 -0.8742  0.9972  0.8469
  976SOL    HW2 3249   4.174   1.515   2.119  0.2390 -0.7328  0.8028
  977SOL     OW 3250   0.856   3.264   3.004  0.2950 -0.6184  0.4011
  977SOL    HW1 3251   0.888   3.212   2.925 -0.0977 -1.5193  0.8234
  977SOL    HW2 3252   0.840   3.359   2.977  1.3179 -0.6351 -0.3071
  978SOL     OW 3253   1.743   5.006   1.388  0.3455 -0.0224 -0.3609
  978SOL    HW1 3254   1.791   4.919   1.398 -0.4788 -0.3799  0.6600
  978SOL    HW2 3255   1.800   5.069   1.336  0.3280 -1.6457 -2.4672
  979SOL     OW 3256   0.338   1.950   3.901 -0.0842 -0.1726 -0.0260
  979SOL    HW1 3257   0.408   1.898   3.851  1.1565 -0.3466  1.8094
  979SOL    HW2 3258   0.248   1.922   3.870  0.5669 -2.6442  0.1067
  980SOL     OW 3259   1.293   1.623   3.974 -0.4047 -0.1214  0.5149
  980SOL    HW1 3260   1.194   1.628   3.961 -0.5177  0.9105  1.5756
  980SOL    HW2 3261   1.323   1.701   4.028  1.0547 -0.2362 -0.1036
  981SOL     OW 3262   5.290   1.831   3.333 -0.1551  0.2448 -0.2473
  981SOL    HW1 3263   5.334   1.920   3.321  0.3245 -0.1087 -1.2709
  981SOL    HW2 3264   5.349   1.773   3.390  0.1377  0.1676 -0.6262
  982SOL     OW 3265   1.161   1.360   3.580  0.1610  0.3621  0.1644
  982SOL    HW1 3266   1.132   1.441   3.528  0.4820  0.2794 -0.1486
  982SOL    HW2 3267   1.242   1.320   3.537  1.3757  1.1803  1.5768
  983SOL     OW 3268   1.750   3.283   2.388 -0.2294 -0.6097 -0.1563
  983SOL    HW1 3269   1.709   3.272   2.298 -1.6803 -3.6636  0.7303
  983SOL    HW2 3270   1.783   3.194   2.421 -0.9353  0.1065  2.8210
  984SOL     OW 3271   2.458   2.504   0.238  0.6449 -0.1229  0.0744
  984SOL    HW1 3272   2.507   2.419   0.219  0.1593 -0.6276  0.9989
  984SOL    HW2 3273   2.524   2.575   0.266  1.2753  0.4095 -2.5313
  985SOL     OW 3274   5.198   2.905   2.757 -0.0689  0.2910  0.3809
  985SOL    HW1 3275   5.168   2.866   2.670 -0.5732 -1.3633  1.2267
  985SOL    HW2 3276   5.281   2.958   2.744  0.2487 -0.4909 -1.0033
  986SOL     OW 3277   0.416   3.958   2.627  0.1610 -0.4745  0.1850
  986SOL    HW1 3278   0.495   4.001   2.583  0.2552  1.7591  2.2970
  986SOL    HW2 3279   0.448   3.892   2.695  0.2984  0.8592  1.4591
  987SOL     OW 3280   1.200   2.222   3.500  0.0285 -0.3778 -0.1029
  987SOL    HW1 3281   1.269   2.251   3.566 -0.7666  0.8043  0.2570
  987SOL    HW2 3282   1.130   2.167   3.546 -0.0009 -0.3994 -0.1727
  988SOL     OW 3283   0.653   1.484   4.779  0.1202 -0.1039  0.4453
  988SOL    HW1 3284   0.723   1.457   4.714  0.1187  1.0182 -0.0493
  988SOL    HW2 3285   0.574   1.521   4.730 -0.8073 -1.3057  0.9973
  989SOL     OW 3286   1.144   2.452   3.060  0.3139  0.5417 -0.5787
  989SOL    HW1 3287   1.073   2.521   3.075 -0.8161 -0.9824  1.6349
  989SOL    HW2 3288   1.101   2.366   3.034  1.2700 -0.5093  1.1291
  990SOL     OW 3289   2.692   2.343   1.861 -0.1345  0.4359 -0.0229
  990SOL    HW1 3290   2.685   2.405   1.783 -0.4016 -0.3962 -0.6719
  990SOL    HW2 3291   2.639   2.260   1.844 -0.0435  0.1521  0.9643
  991SOL     OW 3292   2.087   2.572   2.556  0.2476 -0.4535  0.2447
  991SOL    HW1 3293   1.989   2.562   2.568  0.1952  0.7196  0.9831
  991SOL    HW2 3294   2.113   2.667   2.575  1.5157 -0.7375  0.0147
  992SOL     OW 3295   5.207   3.186   4.119 -0.4994 -0.4776  1.0315
  992SOL    HW1 3296   5.213   3.252   4.044 -1.4393  1.0589  2.2397
  992SOL    HW2 3297   5.145   3.222   4.189 -1.9866 -3.1786  1.2237
  993SOL     OW 3298   0.524   3.147   4.897  0.3311 -0.1497  0.2057
  993SOL    HW1 3299   0.496   3.146   4.801  0.6795 -0.4473  0.1057
  993SOL    HW2 3300   0.620   3.121   4.904  1.0027  2.1434  0.4147
  994SOL     OW 3301   5.201   2.894   0.046 -0.0680 -0.6621  0.1758
  994SOL    HW1 3302   5.259   2.919   0.124  0.9603 -0.3220 -0.6764
  994SOL    HW2 3303   5.208   2.796   0.029 -1.0482 -0.9074  1.0915
  995SOL     OW 3304   2.106   2.327   1.715 -0.5644 -0.4912  0.3184
  995SOL    HW1 3305   2.101   2.324   1.815 -1.8768 -1.9389  0.2347
  995SOL    HW2 3306   2.087   2.236   1.678  1.5712 -0.3925 -1.2181
  996SOL     OW 3307   0.901   0.351   2.992  0.0807  0.3089 -0.0707
  996SOL    HW1 3308   0.955   0.289   3.051  0.4017 -0.3872 -1.0727
  996SOL    HW2 3309   0.807   0.317   2.986 -0.4300  1.3636  1.4439
  997SOL     OW 3310   1.717   3.890   1.795 -0.2705 -0.3649 -0.3059
  997SOL    HW1 3311   1.781   3.920   1.865  2.1028 -0.6819 -2.2005
  997SOL    HW2 3312   1.675   3.969   1.751  0.3574 -0.0623 -0.3668
  998SOL     OW 3313   4.548   4.180   3.623  0.0935  0.1405  0.1620
  998SOL    HW1 3314   4.500   4.168   3.537  1.5307 -0.8557 -0.5395
  998SOL    HW2 3315   4.507   4.120   3.693 -0.5355  0.3242 -0.0399
  999SOL     OW 3316   0.969   3.986   1.678 -0.2907  0.0506  0.3539
  999SOL    HW1 3317   0.980   3.924   1.755 -0.5994  0.3793  0.6663
  999SOL    HW2 3318   1.029   4.066   1.690 -0.1420 -0.0220  0.1196
 1000SOL     OW 3319   1.739   1.989   5.406 -0.0705 -0.6471  0.8481
 1000SOL    HW1 3320   1.777   2.080   5.395 -1.1478 -0.3686 -0.7785
 1000SOL    HW2 3321   1.801   1.934   5.462  2.4571 -0.0357 -1.1656
 1001SOL     OW 3322   1.345   1.254   4.273  0.5005 -0.6753  0.0212
 1001SOL    HW1 3323   1.439   1.279   4.297  0.4064  0.0943 -0.4027
 1001SOL    HW2 3324   1.323   1.289   4.182 -0.3722 -0.3961  0.3288
 1002SOL     OW 3325   4.279   2.841   1.489 -0.0484  0.1345  0.4272
 1002SOL    HW1 3326   4.236   2.794   1.566 -2.5416 -0.0315 -0.9361
 1002SOL    HW2 3327   4.262   2.789   1.405  1.8961  0.7123 -0.3830
 1003SOL     OW 3328   1.093   2.280   4.060 -0.0899 -0.1358 -0.6106
 1003SOL    HW1 3329   1.113   2.197   4.113 -2.6119 -0.4126  0.0067
 1003SOL    HW2 3330   1.119   2.265   3.964 -0.4819 -1.6350 -0.5080
 1004SOL     OW 3331   5.028   3.212   2.281  0.2741  0.4717  0.4671
 1004SOL    HW1 3332   5.003   3.262   2.199 -0.9685  1.0163  1.1520
 1004SOL    HW2 3333   5.102   3.260   2.329 -0.1032  1.0262  0.5017
 1005SOL     OW 3334   2.127   3.267   2.798  0.3945  0.1179  0.2804
 1005SOL    HW1 3335   2.092   3.360   2.814  0.4928  0.5711 -1.8447
 1005SOL    HW2 3336   2.220   3.273   2.762 -0.4689 -0.6165 -2.2733
 1006SOL     OW 3337   4.702   2.297   3.306  0.3532  0.5551 -0.1225
 1006SOL    HW1 3338   4.682   2.226   3.239  2.4068 -1.3547  1.1277
 1006SOL    HW2 3339   4.687   2.261   3.398  1.4881  1.7139  0.5513
 1007SOL     OW 3340   5.378   0.545   2.579 -0.1420 -0.4052  0.5935
 1007SOL    HW1 3341   5.349   0.641   2.585  2.2213  0.5105 -1.1652
 1007SOL    HW2 3342   5.344   0.495   2.659 -0.3188  2.1940  2.2668
 1008SOL     OW 3343   0.040   1.243   3.290  0.7175  0.0324  0.2796
 1008SOL    HW1 3344   0.028   1.271   3.385  1.5162  0.5610  0.2326
 1008SOL    HW2 3345  -0.042   1.267   3.237  0.1063 -0.6171  0.9031
 1009SOL     OW 3346   0.116   1.930   2.217  0.2209 -0.2994 -1.1537
 1009SOL    HW1 3347   0.035   1.970   2.174 -0.3778 -1.3123 -1.0198
 1009SOL    HW2 3348   0.118   1.831   2.198  1.6673 -0.2234 -1.5279
 1010SOL     OW 3349   1.827   2.666   0.592  0.3273 -0.3009 -0.3571
 1010SOL    HW1 3350   1.868   2.606   0.661  0.0137  1.0920  1.0802
 1010SOL    HW2 3351   1.899   2.697   0.530  0.9970  0.0328  0.5599
 1011SOL     OW 3352   0.483   3.354   2.685  0.5548  0.0290 -0.6587
 1011SOL    HW1 3353   0.513   3.266   2.723  0.1828 -0.1028 -0.6676
 1011SOL    HW2 3354   0.383   3.360   2.688  0.6257  1.0436  0.6496
 1012SOL     OW 3355   0.518   2.543   1.550  0.2883  0.1246 -0.0438
 1012SOL    HW1 3356   0.447   2.544   1.620  0.5062 -0.7567  0.2069
 1012SOL    HW2 3357   0.589   2.610   1.573  0.0314  0.3008  0.2330
 1013SOL     OW 3358   1.489   4.469   3.409  0.0309 -0.3960  0.2953
 1013SOL    HW1 3359   1.395   4.493   3.433  0.1115 -0.0604  0.2801
 1013SOL    HW2 3360   1.542   4.552   3.396  0.0089 -0.5589 -0.9683
 1014SOL     OW 3361  -0.006   1.453   2.792  0.3198 -0.9259  0.9976
 1014SOL    HW1 3362   0.059   1.468   2.717  0.1943 -0.5089  0.9696
 1014SOL    HW2 3363  -0.038   1.541   2.827 -2.9059 -0.9845 -1.3131
 1015SOL     OW 3364   0.354   2.262   1.179 -0.1101 -0.0890  0.1757
 1015SOL    HW1 3365   0.303   2.271   1.094 -0.1233  1.2043  0.2994
 1015SOL    HW2 3366   0.327   2.335   1.242 -0.4614 -1.3013  1.4878
 1016SOL     OW 3367   2.227   4.283   2.019  0.4040 -0.1881 -0.0979
 1016SOL    HW1 3368   2.322   4.254   2.011  0.7226  0.7605  0.1247
 1016SOL    HW2 3369   2.171   4.206   2.051  0.9327 -1.0106 -1.0728
 1017SOL     OW 3370   0.699   3.668   1.229 -0.5493 -0.4002  0.2391
 1017SOL    HW1 3371   0.681   3.749   1.285 -2.3221 -0.2232 -0.5417
 1017SOL    HW2 3372   0.629   3.599   1.246  0.9342 -1.8261  0.8944
 1018SOL     OW 3373   0.768   1.618   3.576 -0.3626 -0.4729 -0.9439
 1018SOL    HW1 3374   0.777   1.716   3.558 -0.2386 -0.3044 -0.0143
 1018SOL    HW2 3375   0.741   1.571   3.492 -2.4921  0.6420 -0.9601
 1019SOL     OW 3376   1.835   3.888   2.544 -0.6572 -0.4747 -0.1335
 1019SOL    HW1 3377   1.871   3.974   2.581 -0.6929 -0.5553  0.0918
 1019SOL    HW2 3378   1.736   3.898   2.529 -0.1595  0.7443 -3.5012
 1020SOL     OW 3379   5.498   3.279   3.888 -1.0111 -0.2825 -0.8211
 1020SOL    HW1 3380   5.524   3.275   3.792 -1.4358 -2.6423 -0.8894
 1020SOL    HW2 3381   5.401   3.303   3.896 -1.3515 -1.5235 -1.0795
 1021SOL     OW 3382   0.324   3.595  -0.013 -0.1569  0.1850 -0.4864
 1021SOL    HW1 3383   0.421   3.570  -0.005  0.0932  1.0138 -0.8451
 1021SOL    HW2 3384   0.280   3.586   0.076  0.0196 -1.0925 -0.5044
 1022SOL     OW 3385   0.657   3.378   3.182  0.2514  0.6275 -0.0012
 1022SOL    HW1 3386   0.606   3.323   3.116  0.9859 -1.0292  0.7645
 1022SOL    HW2 3387   0.674   3.469   3.143  3.3644 -1.1528 -3.5135
 1023SOL     OW 3388   1.515   3.296   1.057  0.2900 -0.0002 -0.4356
 1023SOL    HW1 3389   1.520   3.207   1.011  0.5965 -0.8301  1.0954
 1023SOL    HW2 3390   1.423   3.309   1.093 -0.2758  1.1729 -2.2417
 1024SOL     OW 3391   4.261   3.085   3.384  0.1185  0.0312 -0.1324
 1024SOL    HW1 3392   4.345   3.101   3.436 -0.4326 -1.1575  1.2007
 1024SOL    HW2 3393   4.276   3.013   3.316  0.3649  0.3396 -0.4086
 1025SOL     OW 3394   5.408   1.575   2.139 -0.3457 -0.2007 -0.6054
 1025SOL    HW1 3395   5.334   1.558   2.205 -0.8716 -0.9898 -1.3742
 1025SOL    HW2 3396   5.373   1.631   2.064  0.5780  1.7694  0.3655
 1026SOL     OW 3397   1.569   0.440   4.644 -0.2868 -0.8024  0.6204
 1026SOL    HW1 3398   1.544   0.460   4.550  1.0138 -0.5542  0.3134
 1026SOL    HW2 3399   1.649   0.494   4.670 -0.6185 -0.8780  1.8656
 1027SOL     OW 3400   0.661   3.299   2.472  0.2187 -0.5545 -0.2807
 1027SOL    HW1 3401   0.590   3.333   2.534  1.3874  0.6228  0.4616
 1027SOL    HW2 3402   0.722   3.238   2.523  1.2312  0.4802 -0.2243
 1028SOL     OW 3403   0.809   4.676   2.347  0.3769 -0.3141 -0.1547
 1028SOL    HW1 3404   0.881   4.644   2.410  0.7873 -1.2559 -1.0819
 1028SOL    HW2 3405   0.849   4.692   2.257  0.6118  4.4605  0.5231
 1029SOL     OW 3406   2.134   2.836   2.258  0.4966 -0.0530 -0.1688
 1029SOL    HW1 3407   2.187   2.813   2.176  0.0489  1.4002 -0.8888
 1029SOL    HW2 3408   2.049   2.881   2.231 -0.2960 -0.7874  1.0535
 1030SOL     OW 3409   4.314   3.234   3.805 -0.0772  0.6547 -0.3142
 1030SOL    HW1 3410   4.367   3.204   3.726 -1.5813 -0.2187 -1.0462
 1030SOL    HW2 3411   4.374   3.277   3.872  1.5043 -0.2306 -1.1278
 1031SOL     OW 3412   2.078   3.097   1.979  0.5946  0.5818 -0.2476
 1031SOL    HW1 3413   2.015   3.042   2.033  1.6044  0.0063  0.3949
 1031SOL    HW2 3414   2.030   3.140   1.903 -0.9598  1.6598  1.2660
 1032SOL     OW 3415   1.297   2.562   3.647  0.2435 -0.5170  0.0703
 1032SOL    HW1 3416   1.202   2.591   3.633 -0.4253 -2.4962  0.1637
 1032SOL    HW2 3417   1.336   2.612   3.725 -1.1541 -0.5811  0.8462
 1033SOL     OW 3418   2.472   3.877   4.268  0.1454 -0.8808 -0.4894
 1033SOL    HW1 3419   2.479   3.825   4.354  3.6191 -1.3915 -0.9366
 1033SOL    HW2 3420   2.420   3.824   4.201 -0.1858 -1.7593  0.4428
 1034SOL     OW 3421   1.768   4.882   1.060 -0.3196 -0.2770 -0.1824
 1034SOL    HW1 3422   1.865   4.872   1.037 -0.3735  0.5180 -0.8077
 1034SOL    HW2 3423   1.754   4.963   1.117 -0.6352 -0.3070 -0.2112
 1035SOL     OW 3424   4.122   3.797   3.022 -0.9453  0.2374 -0.0025
 1035SOL    HW1 3425   4.200   3.800   2.960  0.2331 -0.6815  1.3589
 1035SOL    HW2 3426   4.096   3.701   3.037 -1.4650  0.4714  0.6007
 1036SOL     OW 3427   2.341   4.199   2.833  0.2954 -0.0102  0.1928
 1036SOL    HW1 3428   2.365   4.233   2.924  1.1032 -3.4494  1.4490
 1036SOL    HW2 3429   2.411   4.135   2.802 -1.4284 -1.1903 -1.5127
 1037SOL     OW 3430   1.168   3.125   2.501 -0.1071 -0.4434 -0.1545
 1037SOL    HW1 3431   1.155   3.216   2.462  0.6148  0.6933  2.1147
 1037SOL    HW2 3432   1.161   3.130   2.600 -0.1730 -2.9139  0.0206
 1038SOL     OW 3433   0.621   0.285   2.455 -0.2911  0.5383 -0.9751
 1038SOL    HW1 3434   0.701   0.255   2.403 -0.0499  1.2486 -1.0343
 1038SOL    HW2 3435   0.571   0.354   2.402 -0.9933  0.0437 -0.9715
 1039SOL     OW 3436   0.410   5.163   2.092  0.2197 -0.0493  0.0674
 1039SOL    HW1 3437   0.440   5.126   2.004  0.7331 -2.1638  1.0828
 1039SOL    HW2 3438   0.323   5.210   2.080  0.6086  0.2948 -1.6767
 1040SOL     OW 3439   1.208   2.952   4.855  0.3940 -0.0374  0.0422
 1040SOL    HW1 3440   1.288   2.903   4.890 -0.2178 -0.1248  1.3967
 1040SOL    HW2 3441   1.137   2.954   4.925 -0.4675  0.8037 -0.8173
 1041SOL     OW 3442   0.647   3.889   3.799  0.3205  0.4902 -0.3713
 1041SOL    HW1 3443   0.642   3.809   3.739 -0.1394  0.8198 -0.7823
 1041SOL    HW2 3444   0.742   3.913   3.815  0.4453  0.6798 -1.3592
 1042SOL     OW 3445   0.459   3.178   4.607 -0.6597 -0.4335  0.2052
 1042SOL    HW1 3446   0.528   3.163   4.536  0.1720  0.3161  0.8312
 1042SOL    HW2 3447   0.409   3.262   4.588  0.8929  0.8523  1.4850
 1043SOL     OW 3448   1.156   3.134   2.048 -0.1542  0.5675  0.0413
 1043SOL    HW1 3449   1.179   3.229   2.068 -2.0040  0.9262  0.6015
 1043SOL    HW2 3450   1.183   3.112   1.954  0.5149  1.5563 -0.0091
 1044SOL     OW 3451   3.682   0.436   1.302 -0.8013  0.9759 -0.2176
 1044SOL    HW1 3452   3.628   0.400   1.378 -1.1807 -0.3433 -1.0719
 1044SOL    HW2 3453   3.776   0.452   1.333 -0.0641 -2.5829 -0.1593
 1045SOL     OW 3454   5.149   2.974   4.773 -0.3386  0.2136  0.0826
 1045SOL    HW1 3455   5.197   3.010   4.853 -1.5884  1.0270  0.4973
 1045SOL    HW2 3456   5.182   2.882   4.753  0.7412  0.4057  0.8855
 1046SOL     OW 3457   4.996   1.667   1.845 -0.4738 -0.4744 -1.1723
 1046SOL    HW1 3458   4.908   1.636   1.809 -2.4858  2.2198  1.0630
 1046SOL    HW2 3459   5.025   1.749   1.796  0.3262 -0.7826 -1.2325
 1047SOL     OW 3460   1.435   3.982   0.854  0.3662 -0.3055 -0.3871
 1047SOL    HW1 3461   1.363   3.971   0.923  0.1225  0.0569 -0.5828
 1047SOL    HW2 3462   1.401   4.037   0.778  0.6770 -0.6006 -0.7408
 1048SOL     OW 3463   5.315   2.227   2.575  0.1012  0.5319 -0.0002
 1048SOL    HW1 3464   5.354   2.157   2.635  0.8790  0.2461 -0.8281
 1048SOL    HW2 3465   5.236   2.190   2.527  1.7068 -0.4940 -1.9872
 1049SOL     OW 3466   1.656   3.279   1.323 -0.0105  0.3714  0.0969
 1049SOL    HW1 3467   1.576   3.291   1.264 -1.5735 -0.2065  1.9824
 1049SOL    HW2 3468   1.718   3.212   1.282 -0.1955  1.2233 -1.6589
 1050SOL     OW 3469   2.142   3.603   1.850  0.1275  0.3108 -0.0152
 1050SOL    HW1 3470   2.114   3.521   1.801  0.1783 -0.4879  1.2562
 1050SOL    HW2 3471   2.227   3.638   1.811 -0.5518  0.5059 -1.3746
 1051SOL     OW 3472   1.665   4.554   2.233 -0.2512  0.0646  0.2996
 1051SOL    HW1 3473   1.596   4.607   2.183 -0.3499  0.1032  0.4786
 1051SOL    HW2 3474   1.699   4.608   2.310  0.3814  0.2646 -0.1106
 1052SOL     OW 3475   0.054   3.808   5.495 -0.2796  0.3209  0.8842
 1052SOL    HW1 3476  -0.029   3.825   5.442 -0.0883  1.8754  1.0293
 1052SOL    HW2 3477   0.091   3.718   5.472 -1.5953 -0.0851  0.2817
 1053SOL     OW 3478   1.478   1.833   3.655  0.2578  0.0080 -0.5922
 1053SOL    HW1 3479   1.516   1.884   3.577 -1.1375  0.8869 -0.7240
 1053SOL    HW2 3480   1.441   1.746   3.622  0.2843  0.0736 -0.8028
 1054SOL     OW 3481   2.167   3.148   1.368  0.7023  0.2532  0.0058
 1054SOL    HW1 3482   2.220   3.200   1.435 -0.1084  0.5862  0.3943
 1054SOL    HW2 3483   2.185   3.050   1.380  2.6021  0.4206 -1.0322
 1055SOL     OW 3484   4.155   4.560   1.661 -0.4361 -0.3703  0.7062
 1055SOL    HW1 3485   4.235   4.537   1.716 -0.4923 -2.1639  0.1009
 1055SOL    HW2 3486   4.114   4.644   1.695  0.8086 -0.2517  1.9897
 1056SOL     OW 3487   3.283   0.999   4.560 -0.0652 -0.6499  0.0272
 1056SOL    HW1 3488   3.290   1.040   4.651  0.4893 -0.7955  0.0539
 1056SOL    HW2 3489   3.375   0.984   4.523 -0.2948  0.3158 -0.9667
 1057SOL     OW 3490   1.243   3.099   2.804 -0.4689  0.5291  0.4768
 1057SOL    HW1 3491   1.255   3.115   2.902  0.0080  0.0681  0.4966
 1057SOL    HW2 3492   1.328   3.063   2.765 -0.9537 -0.2014  0.0835
 1058SOL     OW 3493   0.527   3.131   2.296 -0.2442  0.1355 -0.3564
 1058SOL    HW1 3494   0.491   3.199   2.231 -0.9456  0.0861 -0.0354
 1058SOL    HW2 3495   0.577   3.178   2.369  2.8086  0.0520 -2.2386
 1059SOL     OW 3496   2.058   4.304   3.902  0.5619 -0.3812  0.1870
 1059SOL    HW1 3497   2.044   4.206   3.886  0.8150 -0.3847 -0.0081
 1059SOL    HW2 3498   2.151   4.320   3.933  0.2918 -0.2906  0.9840
 1060SOL     OW 3499   0.669   2.270   1.623  0.1240  0.3290 -0.4719
 1060SOL    HW1 3500   0.713   2.262   1.534 -0.4717 -2.0899 -0.6155
 1060SOL    HW2 3501   0.571   2.283   1.610  0.2234  1.5922 -0.1309
 1061SOL     OW 3502   5.219   3.772   1.207 -0.1919 -0.7318  0.1445
 1061SOL    HW1 3503   5.313   3.778   1.240 -0.3237  1.5687  0.2405
 1061SOL    HW2 3504   5.217   3.781   1.108 -0.4374  2.3201  0.3353
 1062SOL     OW 3505   2.251   3.272   1.583 -0.5044 -0.2179 -0.4019
 1062SOL    HW1 3506   2.170   3.317   1.620 -1.1012 -0.5572 -1.2638
 1062SOL    HW2 3507   2.273   3.192   1.639 -0.0740  0.5052  0.5000
 1063SOL     OW 3508   0.366   3.286   5.341  1.2349 -0.1971 -0.1837
 1063SOL    HW1 3509   0.362   3.357   5.270  0.5337  0.2673  0.3089
 1063SOL    HW2 3510   0.378   3.197   5.298 -1.4381 -0.2089 -1.0877
 1064SOL     OW 3511   5.460   2.686   3.589  0.0369 -0.0663  0.1549
 1064SOL    HW1 3512   5.430   2.616   3.654 -0.2681 -0.3105 -0.2480
 1064SOL    HW2 3513   5.557   2.671   3.566  0.3523  0.4524  1.1051
 1065SOL     OW 3514   1.523   3.705   1.924 -0.2087  0.0095  0.1124
 1065SOL    HW1 3515   1.477   3.746   2.003 -1.3639  1.2673 -1.1695
 1065SOL    HW2 3516   1.569   3.776   1.871  0.7934 -0.8572 -0.2048
 1066SOL     OW 3517   0.388   2.056   3.529 -0.4841 -0.0646  0.1193
 1066SOL    HW1 3518   0.448   2.005   3.591 -0.5678 -0.6448 -0.2736
 1066SOL    HW2 3519   0.441   2.128   3.485  0.4902 -1.8344 -1.7594
 1067SOL     OW 3520   5.312   4.928   2.623 -0.1370 -0.3397  0.1858
 1067SOL    HW1 3521   5.290   5.008   2.680 -0.0154  0.1107 -0.3833
 1067SOL    HW2 3522   5.255   4.931   2.540  1.6106  0.5399 -1.0503
 1068SOL     OW 3523   1.647   2.239   3.368 -0.0818 -0.4006  0.6646
 1068SOL    HW1 3524   1.628   2.322   3.420 -2.2907  0.4805 -1.3606
 1068SOL    HW2 3525   1.587   2.235   3.288  2.6186 -2.0118 -1.4830
 1069SOL     OW 3526   0.177   1.578   3.069  0.4921 -0.3239 -1.0417
 1069SOL    HW1 3527   0.087   1.615   3.090  0.6147 -0.4279 -0.3239
 1069SOL    HW2 3528   0.243   1.653   3.059  0.6742 -0.3125  0.1021
 1070SOL     OW 3529   1.503   4.046   2.817 -0.4492  0.3255  0.5437
 1070SOL    HW1 3530   1.584   4.102   2.833 -0.0226 -0.2271  0.3557
 1070SOL    HW2 3531   1.423   4.089   2.859 -0.0778  0.9295  0.6325
 1071SOL     OW 3532   2.235   1.038   3.774  0.7951  0.0006 -0.2031
 1071SOL    HW1 3533   2.299   1.113   3.761  1.3268 -0.4909 -0.4725
 1071SOL    HW2 3534   2.153   1.072   3.820  1.0247  0.7422 -0.3220
 1072SOL     OW 3535   0.091   0.118   1.206 -0.0013 -0.0773 -0.4737
 1072SOL    HW1 3536   0.119   0.038   1.260 -0.2313 -0.0815 -0.3589
 1072SOL    HW2 3537   0.027   0.173   1.259 -1.9255 -1.2123 -1.5390
 1073SOL     OW 3538   1.763   3.026   1.039  0.1235  0.4623 -0.4895
 1073SOL    HW1 3539   1.830   2.972   0.987  0.6472 -0.9641  1.5369
 1073SOL    HW2 3540   1.746   2.982   1.127 -2.1539  1.7675 -0.1851
 1074SOL     OW 3541   0.394   3.231   3.813 -0.0746  0.4387 -0.1628
 1074SOL    HW1 3542   0.337   3.313   3.817 -0.3174  0.2645 -0.0669
 1074SOL    HW2 3543   0.337   3.149   3.823  0.4046  0.3123  2.3467
 1075SOL     OW 3544   0.089   2.556   1.060 -0.0527  0.7149  0.0986
 1075SOL    HW1 3545   0.043   2.483   1.110  0.5281  0.4484  0.2567
 1075SOL    HW2 3546   0.033   2.638   1.061  0.0129  0.7633  1.3350
 1076SOL     OW 3547   1.765   1.480   1.640  0.7110  0.5024 -0.0357
 1076SOL    HW1 3548   1.861   1.471   1.613  0.7571  0.9758 -0.0433
 1076SOL    HW2 3549   1.756   1.465   1.739  0.9036  1.1938  0.0879
 1077SOL     OW 3550   1.881   1.821   3.337  0.0689  0.5973  0.4696
 1077SOL    HW1 3551   1.886   1.810   3.238 -2.5845  1.6866  0.1345
 1077SOL    HW2 3552   1.951   1.886   3.367  1.1268 -0.0074 -0.5997
 1078SOL     OW 3553   4.518   3.620   3.777  0.0873  0.3016  0.5937
 1078SOL    HW1 3554   4.575   3.695   3.812 -0.0004  1.8400 -2.3242
 1078SOL    HW2 3555   4.429   3.622   3.823  0.5412  1.1335  1.4977
 1079SOL     OW 3556   1.783   5.308   2.080 -0.3217 -0.2528  0.3851
 1079SOL    HW1 3557   1.828   5.366   2.148 -1.0043  0.0476  0.5911
 1079SOL    HW2 3558   1.716   5.250   2.125  0.2376 -1.0928  0.1532
 1080SOL     OW 3559   0.820   1.505   4.295  0.2425 -0.0292  0.3569
 1080SOL    HW1 3560   0.785   1.599   4.291 -1.4820 -0.6678 -0.8328
 1080SOL    HW2 3561   0.743   1.441   4.289  1.5400 -1.5175 -1.8747
 1081SOL     OW 3562   3.562   2.479   5.150  0.2469  0.0480  0.3463
 1081SOL    HW1 3563   3.581   2.411   5.221  2.4216  0.1606 -0.0551
 1081SOL    HW2 3564   3.506   2.552   5.188  1.1155 -0.0497  1.9048
 1082SOL     OW 3565   5.164   1.304   0.402  0.1417 -0.1520  0.5773
 1082SOL    HW1 3566   5.254   1.312   0.358  0.1632  0.0876  0.6602
 1082SOL    HW2 3567   5.103   1.249   0.344  0.3332 -0.2938  0.5083
 1083SOL     OW 3568   4.814   2.026   0.021  0.9703 -0.2709  0.5890
 1083SOL    HW1 3569   4.821   1.952  -0.046 -0.0075 -0.0590  0.2383
 1083SOL    HW2 3570   4.904   2.041   0.063  1.5523 -0.5788 -0.4924
 1084SOL     OW 3571   2.510   3.566   5.214  0.6677  0.2399 -0.0948
 1084SOL    HW1 3572   2.420   3.609   5.228 -0.1040 -1.7402  1.5052
 1084SOL    HW2 3573   2.582   3.634   5.229 -0.5311  1.6889 -0.6666
 1085SOL     OW 3574   1.889   1.554   3.439 -0.0511  0.3096 -0.6203
 1085SOL    HW1 3575   1.833   1.536   3.520  2.9954  1.4774  2.0016
 1085SOL    HW2 3576   1.870   1.646   3.405 -0.5188  0.2695 -0.4706
 1086SOL     OW 3577   2.254   2.378   5.239  0.6756  0.1893 -0.2530
 1086SOL    HW1 3578   2.156   2.389   5.219  1.0613  1.6141 -1.6208
 1086SOL    HW2 3579   2.305   2.377   5.153  1.7758 -2.0923  0.3529
 1087SOL     OW 3580   1.850   2.239   5.398  0.4044  0.4040  0.3922
 1087SOL    HW1 3581   1.936   2.280   5.428  0.0298  0.0860  1.9657
 1087SOL    HW2 3582   1.784   2.312   5.376  1.1874  0.6600 -1.3188
 1088SOL     OW 3583   1.509   1.884   1.226 -0.4148 -0.1647  0.0059
 1088SOL    HW1 3584   1.577   1.890   1.153 -0.4599 -1.7329 -0.1993
 1088SOL    HW2 3585   1.543   1.930   1.308  0.8688 -0.8469 -0.1188
 1089SOL     OW 3586   2.822   1.991   4.522  0.5498 -0.6269 -0.6337
 1089SOL    HW1 3587   2.878   2.022   4.445  1.0768  0.6141  0.2256
 1089SOL    HW2 3588   2.726   2.012   4.504  0.9216  2.1684  0.1408
 1090SOL     OW 3589   2.064   2.054   1.601 -0.0648 -0.8109  0.4366
 1090SOL    HW1 3590   1.994   2.055   1.529  1.4318  1.4643 -1.1514
 1090SOL    HW2 3591   2.135   1.988   1.577  0.8861  0.5797 -0.7442
 1091SOL     OW 3592   0.838   2.498   5.109 -0.4215 -0.3280  0.0317
 1091SOL    HW1 3593   0.871   2.568   5.171 -1.2063 -0.3206  0.4535
 1091SOL    HW2 3594   0.813   2.539   5.021  1.0099 -0.3886 -0.4257
 1092SOL     OW 3595   2.537   4.939   3.845 -0.0352  0.4786 -0.9316
 1092SOL    HW1 3596   2.449   4.946   3.797  0.7936  2.6196 -2.2675
 1092SOL    HW2 3597   2.594   5.018   3.822  1.9591 -0.4572  0.5297
 1093SOL     OW 3598   4.569   3.661   1.158 -0.1515  0.1054  0.4989
 1093SOL    HW1 3599   4.645   3.611   1.116 -0.5782  0.7904 -1.1552
 1093SOL    HW2 3600   4.524   3.602   1.225  0.3453 -1.1675 -0.2516
 1094SOL     OW 3601   0.336   2.899   2.698  0.2206 -0.5286 -0.0732
 1094SOL    HW1 3602   0.280   2.818   2.678  0.1079 -0.2717 -0.8069
 1094SOL    HW2 3603   0.335   2.960   2.619  0.1908  0.2614  0.5379
 1095SOL     OW 3604   5.513   3.727   3.229  0.2493 -0.1319  0.2338
 1095SOL    HW1 3605   5.478   3.755   3.140  0.3844  2.1140  0.8334
 1095SOL    HW2 3606   5.503   3.802   3.294  0.8815 -1.4439  1.9245
 1096SOL     OW 3607   3.257   2.645   5.443  0.0715 -0.4081  0.1845
 1096SOL    HW1 3608   3.351   2.627   5.474  0.2066 -1.8058 -0.9126
 1096SOL    HW2 3609   3.260   2.688   5.353 -0.3460  0.2829  0.4970
 1097SOL     OW 3610   0.071   2.216   0.081  0.2762  0.0056  0.3079
 1097SOL    HW1 3611   0.104   2.175   0.167 -0.1315  0.9373  0.9176
 1097SOL    HW2 3612  -0.025   2.241   0.090  0.5655  1.2739  0.0154
 1098SOL     OW 3613   2.870   0.048   5.016 -0.0046  0.2881  0.2447
 1098SOL    HW1 3614   2.948   0.071   4.959 -0.9417 -0.1801 -1.2849
 1098SOL    HW2 3615   2.858  -0.052   5.016 -0.1896  0.3049  1.0390
 1099SOL     OW 3616   0.033   2.591   4.595 -0.1273 -0.3743  0.4300
 1099SOL    HW1 3617   0.126   2.626   4.594 -0.0060 -0.4202 -3.3114
 1099SOL    HW2 3618   0.030   2.502   4.548 -1.9851 -0.5672  0.8239
 1100SOL     OW 3619   0.828   2.691   3.829  0.0160 -0.2628  0.0861
 1100SOL    HW1 3620   0.848   2.693   3.927  2.8804 -2.0743 -0.3313
 1100SOL    HW2 3621   0.894   2.749   3.781 -1.3847  0.6459 -0.8245
 1101SOL     OW 3622   2.196   2.525   0.538 -0.7045 -0.3215 -0.0368
 1101SOL    HW1 3623   2.260   2.469   0.591  0.3660 -0.4677 -1.4264
 1101SOL    HW2 3624   2.130   2.465   0.491  0.1734 -0.4350 -1.1775
 1102SOL     OW 3625   1.359   2.727   3.213 -0.2493  0.1830  0.1595
 1102SOL    HW1 3626   1.295   2.655   3.239  0.2361  0.1018  1.1641
 1102SOL    HW2 3627   1.363   2.734   3.113 -0.1382 -1.3300  0.0366
 1103SOL     OW 3628   2.512   3.360   3.628  0.1332  0.2780 -0.3194
 1103SOL    HW1 3629   2.503   3.439   3.569 -1.5438 -0.1011 -0.6265
 1103SOL    HW2 3630   2.466   3.281   3.587  0.3765 -0.4346  0.7099
 1104SOL     OW 3631   4.337   4.269   0.005 -0.4116  0.0770  0.0319
 1104SOL    HW1 3632   4.250   4.223  -0.013 -0.8205  0.0976  1.7677
 1104SOL    HW2 3633   4.368   4.247   0.097  0.8185  1.0475 -0.1208
 1105SOL     OW 3634   1.991   3.072   4.587 -0.2417  0.0285 -0.2390
 1105SOL    HW1 3635   2.034   2.981   4.586  0.4828  0.3123  1.3139
 1105SOL    HW2 3636   2.061   3.142   4.577 -0.3708  0.4737  1.5897
 1106SOL     OW 3637   0.112   2.753   3.769  0.1571  0.4833 -0.7659
 1106SOL    HW1 3638   0.039   2.810   3.805  0.4197 -0.2869  1.0974
 1106SOL    HW2 3639   0.200   2.800   3.778  0.2024  0.3549 -0.5091
 1107SOL     OW 3640   1.259   2.266   4.431  0.1231  0.0693 -0.4347
 1107SOL    HW1 3641   1.257   2.359   4.394  1.3972  0.7358  1.0554
 1107SOL    HW2 3642   1.349   2.227   4.417  0.2284 -0.1491  0.7629
 1108SOL     OW 3643   0.670   3.516   4.017  0.0402  0.0129  0.6941
 1108SOL    HW1 3644   0.740   3.554   4.077 -0.1865  0.0271  0.9527
 1108SOL    HW2 3645   0.636   3.430   4.056  0.0001 -0.0555  0.5090
 1109SOL     OW 3646   0.488   4.025   1.047 -0.4740  0.0714 -0.0925
 1109SOL    HW1 3647   0.522   3.951   0.989 -1.7942  0.7800 -1.8558
 1109SOL    HW2 3648   0.563   4.090   1.065 -0.0467 -0.1562 -1.0149
 1110SOL     OW 3649   0.101   0.724   4.279 -0.3126 -0.4216  0.0214
 1110SOL    HW1 3650   0.116   0.715   4.181 -0.5944  0.6256 -0.1337
 1110SOL    HW2 3651   0.097   0.633   4.321  0.8732 -0.8554 -0.7628
 1111SOL     OW 3652   1.885   3.573   5.174 -0.6381 -0.0737  0.1386
 1111SOL    HW1 3653   1.951   3.543   5.243 -1.7019 -0.2656  1.1033
 1111SOL    HW2 3654   1.897   3.518   5.091  0.6951  0.1995  0.1252
 1112SOL     OW 3655   2.285   3.416   3.266  0.1271  0.9054  0.1338
 1112SOL    HW1 3656   2.252   3.495   3.214 -0.4662 -0.0207 -0.9232
 1112SOL    HW2 3657   2.383   3.428   3.285  0.8013  0.5417 -2.6317
 1113SOL     OW 3658   1.405   4.987   4.533  0.0689 -0.1186  0.0826
 1113SOL    HW1 3659   1.380   4.926   4.457  0.4063 -0.9980  0.6622
 1113SOL    HW2 3660   1.365   4.953   4.618 -1.2257  1.4672  0.1491
 1114SOL     OW 3661   0.676   2.930   5.350  0.2366 -0.3410  0.0070
 1114SOL    HW1 3662   0.739   2.996   5.390  0.4327  0.5590 -1.6816
 1114SOL    HW2 3663   0.705   2.838   5.373 -0.2675  0.1141  2.7441
 1115SOL     OW 3664   0.777   4.068   0.412  0.2107  0.6160  0.1372
 1115SOL    HW1 3665   0.787   4.159   0.372  0.0304  0.7717  0.4450
 1115SOL    HW2 3666   0.731   4.075   0.501 -0.7159  0.1253 -0.2910
 1116SOL     OW 3667   1.062   4.066   3.215 -0.2877  0.1386 -0.2244
 1116SOL    HW1 3668   1.095   4.118   3.294  0.2844 -0.0386 -0.3432
 1116SOL    HW2 3669   1.137   4.012   3.177 -0.9442 -0.9996  0.0658
 1117SOL     OW 3670   0.469   2.860   3.015 -0.2420  0.0702  0.5560
 1117SOL    HW1 3671   0.492   2.818   2.927 -0.1468 -1.3985  1.2465
 1117SOL    HW2 3672   0.394   2.809   3.057 -0.2314  0.7102  1.3607
 1118SOL     OW 3673   1.441   2.356   4.664 -0.1886  0.2389 -0.2006
 1118SOL    HW1 3674   1.483   2.395   4.747  0.3980 -0.5904 -0.0927
 1118SOL    HW2 3675   1.394   2.271   4.688  0.8104 -0.5183 -0.8806
 1119SOL     OW 3676   2.688   4.982   3.527 -0.0710 -0.6954  0.5286
 1119SOL    HW1 3677   2.690   4.893   3.482  1.8828  1.0570 -3.3520
 1119SOL    HW2 3678   2.600   5.027   3.508 -0.7294 -1.4009  1.7868
 1120SOL     OW 3679   2.236   1.586   1.519  0.2550  0.0920 -0.3387
 1120SOL    HW1 3680   2.307   1.516   1.527  0.5665 -0.4265 -4.9068
 1120SOL    HW2 3681   2.146   1.543   1.526  0.4515 -0.6545 -1.9406
 1121SOL     OW 3682   1.077   2.977   0.967 -0.1526 -0.0907 -0.1575
 1121SOL    HW1 3683   1.056   3.061   0.916 -0.7064  0.1103  0.3955
 1121SOL    HW2 3684   1.048   2.898   0.914 -1.1492  0.1346  0.0290
 1122SOL     OW 3685   3.350   2.491   0.427 -0.2530  0.0808 -0.0360
 1122SOL    HW1 3686   3.260   2.535   0.427 -0.4035 -0.1469  1.6428
 1122SOL    HW2 3687   3.421   2.561   0.430 -0.4196  0.2466  0.0860
 1123SOL     OW 3688   2.288   2.033   4.474  0.5694  0.0944 -0.3677
 1123SOL    HW1 3689   2.280   2.081   4.386  0.4559 -0.2508 -0.5439
 1123SOL    HW2 3690   2.284   1.935   4.459 -0.2646  0.0503  0.1108
 1124SOL     OW 3691   2.205   3.806   4.995 -0.3780  0.2184  0.0788
 1124SOL    HW1 3692   2.111   3.789   5.024 -0.4138 -1.2188 -0.7547
 1124SOL    HW2 3693   2.267   3.752   5.051 -0.2483 -0.5750 -0.8050
 1125SOL     OW 3694   1.053   2.441   4.574  0.0674 -0.2303  0.5967
 1125SOL    HW1 3695   1.045   2.342   4.558  1.7650 -0.0988 -1.3965
 1125SOL    HW2 3696   1.064   2.457   4.672 -1.8943 -1.8504  1.1631
 1126SOL     OW 3697   1.274   2.994   4.552  0.4836  0.0827 -0.2190
 1126SOL    HW1 3698   1.306   3.089   4.552 -1.4723  0.8587 -2.4530
 1126SOL    HW2 3699   1.230   2.974   4.640 -0.2524  1.7427 -0.1662
 1127SOL     OW 3700   1.218   2.210   3.842 -0.1454 -0.4111 -0.3048
 1127SOL    HW1 3701   1.287   2.249   3.781  0.8325 -0.9159  0.4405
 1127SOL    HW2 3702   1.202   2.114   3.818  2.0229 -1.3481  1.6433
 1128SOL     OW 3703   2.151   1.639   5.111 -0.0361 -0.0872  0.6137
 1128SOL    HW1 3704   2.203   1.593   5.039 -0.5480  1.2032 -0.6430
 1128SOL    HW2 3705   2.064   1.671   5.073  0.2115  1.6912  1.4574
 1129SOL     OW 3706   3.063   1.617   5.163 -0.1047  0.6209  0.3014
 1129SOL    HW1 3707   3.069   1.566   5.248  1.5029  2.6696  1.5239
 1129SOL    HW2 3708   3.152   1.614   5.117 -0.6018  0.5926 -0.6828
 1130SOL     OW 3709   5.496   1.500   3.945  0.2349 -0.2904  0.0235
 1130SOL    HW1 3710   5.511   1.587   3.993  1.1415 -0.6439  0.3928
 1130SOL    HW2 3711   5.578   1.444   3.950  0.4071 -0.3174 -2.0086
 1131SOL     OW 3712   1.622   5.129   4.601 -0.0464 -0.0353 -0.0663
 1131SOL    HW1 3713   1.647   5.106   4.694  2.1278  0.6174 -0.4388
 1131SOL    HW2 3714   1.542   5.076   4.574  0.9924 -2.4017  1.1940
 1132SOL     OW 3715   5.273   4.308   0.398 -0.0034  0.2890 -0.1064
 1132SOL    HW1 3716   5.229   4.318   0.487 -1.2026  1.7800 -0.8198
 1132SOL    HW2 3717   5.262   4.215   0.365  1.4751 -0.6281  1.7891
 1133SOL     OW 3718   1.723   2.478   5.308 -0.5980 -0.3140  0.3557
 1133SOL    HW1 3719   1.627   2.471   5.280 -0.2769 -0.2662 -0.8027
 1133SOL    HW2 3720   1.772   2.536   5.244  0.4114 -1.0866  0.4075
 1134SOL     OW 3721   1.201   2.636   0.292  0.2358 -0.0120 -0.8640
 1134SOL    HW1 3722   1.218   2.733   0.310  1.3579  0.2793 -3.2218
 1134SOL    HW2 3723   1.283   2.594   0.255 -1.0112 -1.2279 -2.3685
 1135SOL     OW 3724   1.485   3.104   3.887  0.3260  0.2660 -0.3312
 1135SOL    HW1 3725   1.529   3.049   3.958  0.9770 -0.9449 -1.6226
 1135SOL    HW2 3726   1.455   3.191   3.925  0.5943 -0.3853  1.4298
 1136SOL     OW 3727   3.326   3.658   3.496 -0.0978  0.4902  0.1617
 1136SOL    HW1 3728   3.237   3.651   3.450  0.1819  0.9121 -0.4661
 1136SOL    HW2 3729   3.339   3.580   3.556 -0.0545 -0.6205 -1.2407
 1137SOL     OW 3730   0.551   3.982   5.453 -0.3224  0.0093 -0.4676
 1137SOL    HW1 3731   0.500   3.901   5.422  0.4963 -0.3944 -0.7915
 1137SOL    HW2 3732   0.530   4.060   5.395  1.2403 -0.7517 -2.1532
 1138SOL     OW 3733   1.586   4.894   2.775  0.6521  0.1056  0.2051
 1138SOL    HW1 3734   1.533   4.957   2.831  1.9020  1.4176 -0.0236
 1138SOL    HW2 3735   1.641   4.835   2.834  0.5858  0.2255  0.3864
 1139SOL     OW 3736   4.393   1.482   5.160 -0.3220  0.3953 -0.0616
 1139SOL    HW1 3737   4.338   1.423   5.101 -1.1318  0.3925  0.6796
 1139SOL    HW2 3738   4.404   1.439   5.250  0.8057  0.4482 -0.1574
 1140SOL     OW 3739   2.168   3.753   3.447 -0.5181 -0.6109 -0.0881
 1140SOL    HW1 3740   2.093   3.696   3.481  1.2190 -2.5326  0.6942
 1140SOL    HW2 3741   2.170   3.839   3.499 -0.7777 -1.5166  1.4972
 1141SOL     OW 3742   0.554   3.275   4.067  0.0941 -0.0139 -0.0960
 1141SOL    HW1 3743   0.464   3.288   4.026  0.0869  1.9713  0.4582
 1141SOL    HW2 3744   0.587   3.182   4.047 -0.8413  0.1389 -2.6993
 1142SOL     OW 3745   2.029   2.654   5.364 -0.0105 -0.5754  0.0370
 1142SOL    HW1 3746   2.051   2.603   5.447  0.6475  0.0804  0.2694
 1142SOL    HW2 3747   1.953   2.717   5.382  1.4814  1.0978  0.7564
 1143SOL     OW 3748   4.541   3.171   0.304  0.5556  0.2864  0.1954
 1143SOL    HW1 3749   4.515   3.247   0.245 -0.0465  1.1984  1.5951
 1143SOL    HW2 3750   4.572   3.206   0.392 -0.8147 -1.1206  1.2823
 1144SOL     OW 3751   1.947   3.127   5.256  0.0470  0.0325  0.0388
 1144SOL    HW1 3752   2.027   3.171   5.296  0.3365  0.6675 -1.1810
 1144SOL    HW2 3753   1.904   3.189   5.191 -1.5669 -0.2218  0.8106
 1145SOL     OW 3754   0.592   3.051   3.200 -0.4895  0.5681 -0.1764
 1145SOL    HW1 3755   0.580   2.969   3.144 -0.4005  0.9694 -0.8002
 1145SOL    HW2 3756   0.551   3.129   3.154 -1.5503  0.6881  0.9317
 1146SOL     OW 3757   2.905   3.931   0.154  0.0067  0.5641  0.3825
 1146SOL    HW1 3758   2.948   3.853   0.108 -1.0242  1.1813 -1.7440
 1146SOL    HW2 3759   2.806   3.923   0.147 -0.1127  2.0007  0.2355
 1147SOL     OW 3760   3.234   0.655   3.714 -0.0774 -0.5048  0.0077
 1147SOL    HW1 3761   3.289   0.658   3.797 -0.0805 -0.9116  0.0289
 1147SOL    HW2 3762   3.139   0.676   3.736  0.4150  2.5397 -0.3809
 1148SOL     OW 3763   2.026   0.909   4.595 -0.3190 -0.0375  0.6332
 1148SOL    HW1 3764   2.045   0.819   4.634  0.9972 -0.7448 -1.4639
 1148SOL    HW2 3765   1.993   0.899   4.501 -1.5683  1.6466  0.8322
 1149SOL     OW 3766   0.368   2.839   3.934  0.3600  0.1152 -0.1867
 1149SOL    HW1 3767   0.302   2.797   3.997 -0.7701  0.9223 -0.7806
 1149SOL    HW2 3768   0.326   2.920   3.892  0.3390 -1.3916 -3.3703
 1150SOL     OW 3769   1.759   2.975   0.264  0.4761  0.1109 -0.3141
 1150SOL    HW1 3770   1.763   3.074   0.256 -2.4056  0.5473  1.8907
 1150SOL    HW2 3771   1.801   2.946   0.350 -1.2328 -0.1825  0.4645
 1151SOL     OW 3772   1.714   4.354   3.107  0.2443  0.0107  0.5133
 1151SOL    HW1 3773   1.805   4.335   3.070  1.4541 -2.8249  4.2999
 1151SOL    HW2 3774   1.704   4.453   3.120  1.4158  0.6910 -2.8273
 1152SOL     OW 3775   2.365   0.320   4.673 -0.0143  0.2840  0.4783
 1152SOL    HW1 3776   2.411   0.394   4.623  1.1958 -0.0528  1.0390
 1152SOL    HW2 3777   2.268   0.318   4.649  0.2246  1.1326 -0.6344
 1153SOL     OW 3778   0.684   0.887   3.911  0.1058  0.3009  0.2347
 1153SOL    HW1 3779   0.597   0.845   3.885 -0.4984  2.2977 -1.2435
 1153SOL    HW2 3780   0.757   0.817   3.908 -1.1437 -1.0373 -0.1994
 1154SOL     OW 3781   2.003   2.363   3.880  0.4882  0.3173 -0.7118
 1154SOL    HW1 3782   2.090   2.332   3.842  0.9385 -0.1900  0.6812
 1154SOL    HW2 3783   1.928   2.336   3.818  1.2810  0.6505 -1.8525
 1155SOL     OW 3784   0.488   2.845   4.314 -0.4551  0.4986 -0.2727
 1155SOL    HW1 3785   0.442   2.756   4.317  0.0879  0.2185 -0.1241
 1155SOL    HW2 3786   0.419   2.918   4.316 -0.8703  0.1407  2.0436
 1156SOL     OW 3787   1.338   2.681   3.917  0.3688  0.5889  0.6518
 1156SOL    HW1 3788   1.378   2.596   3.953  0.6087  0.0951 -0.7130
 1156SOL    HW2 3789   1.258   2.706   3.972 -0.7389 -1.4844  0.1014
 1157SOL     OW 3790   1.379   1.824   0.221 -0.1371  0.1393  0.4797
 1157SOL    HW1 3791   1.318   1.852   0.147 -0.2912 -0.8384  0.2238
 1157SOL    HW2 3792   1.410   1.730   0.205  1.5428  0.6425  0.5337
 1158SOL     OW 3793   5.484   4.069   3.736  0.0516  0.2004  0.2187
 1158SOL    HW1 3794   5.536   3.983   3.741 -2.0693 -1.1172  0.6370
 1158SOL    HW2 3795   5.415   4.061   3.664 -0.5272  1.3488  0.6308
 1159SOL     OW 3796   1.899   3.483   3.406  0.2837 -0.1236  0.5835
 1159SOL    HW1 3797   1.893   3.384   3.416  0.4065 -0.2173 -0.2021
 1159SOL    HW2 3798   1.926   3.506   3.312 -0.0778  0.6638  0.6609
 1160SOL     OW 3799   5.331   3.055   4.960 -0.4192  0.3022 -0.0532
 1160SOL    HW1 3800   5.388   2.983   4.921  0.4735  2.1499 -2.4403
 1160SOL    HW2 3801   5.313   3.036   5.056  1.2059 -2.1655 -0.1593
 1161SOL     OW 3802   1.918   2.651   3.866 -0.1504 -0.5188  0.2616
 1161SOL    HW1 3803   1.955   2.558   3.866  0.6248 -0.2789  2.3679
 1161SOL    HW2 3804   1.986   2.714   3.831  0.1820 -0.4938  0.9344
 1162SOL     OW 3805   5.189   2.704   4.682  0.3722  0.1183  0.2641
 1162SOL    HW1 3806   5.109   2.660   4.721 -0.2487  0.5519 -0.4871
 1162SOL    HW2 3807   5.168   2.736   4.590  1.2931  0.5847  0.2008
 1163SOL     OW 3808   0.063   1.765   5.503 -0.4320  0.6712 -0.2688
 1163SOL    HW1 3809   0.040   1.694   5.436  0.7804  1.0692 -1.1323
 1163SOL    HW2 3810   0.081   1.851   5.455 -2.4369  1.7665  0.7969
 1164SOL     OW 3811   2.186   1.713   4.490 -0.1666  0.5140 -0.0172
 1164SOL    HW1 3812   2.257   1.645   4.471 -0.9829 -0.2969 -0.2504
 1164SOL    HW2 3813   2.184   1.780   4.416 -1.5800 -1.1375 -1.5708
 1165SOL     OW 3814   0.393   1.298   3.982 -0.2586  0.2040 -0.1248
 1165SOL    HW1 3815   0.449   1.234   3.929 -0.0926  0.6215 -0.4581
 1165SOL    HW2 3816   0.335   1.247   4.046  1.2269 -0.1900  0.9470
 1166SOL     OW 3817   1.635   2.856   5.237  0.1476  0.0178  0.6073
 1166SOL    HW1 3818   1.536   2.842   5.234 -0.0336  1.1402  0.6393
 1166SOL    HW2 3819   1.682   2.770   5.218 -0.8324 -0.2247 -0.8937
 1167SOL     OW 3820   1.047   2.871   3.736 -0.5663  0.2157  0.5351
 1167SOL    HW1 3821   1.050   2.802   3.663  0.8934 -0.3630  1.0909
 1167SOL    HW2 3822   1.135   2.918   3.740 -1.3279  1.6880  0.5976
 1168SOL     OW 3823   2.743   2.521   4.736  0.2406 -0.0014 -0.6355
 1168SOL    HW1 3824   2.789   2.466   4.667 -1.6740 -1.3655 -0.9133
 1168SOL    HW2 3825   2.758   2.480   4.827  0.9261  0.5098 -0.5150
 1169SOL     OW 3826   2.299   4.892   4.167 -0.3275 -0.4570  0.2186
 1169SOL    HW1 3827   2.399   4.890   4.156 -0.3190  0.8421 -0.1123
 1169SOL    HW2 3828   2.258   4.829   4.101  0.2501 -0.5223 -0.0904
 1170SOL     OW 3829   2.153   3.723   4.513  0.2367  0.0543  0.4376
 1170SOL    HW1 3830   2.101   3.651   4.467  0.1463  0.1522  0.3877
 1170SOL    HW2 3831   2.195   3.686   4.596  0.8142 -0.2619  0.0196
 1171SOL     OW 3832   2.074   0.464   4.911  0.5490 -0.0709  0.5435
 1171SOL    HW1 3833   2.001   0.493   4.972  1.2852 -1.6303  2.2840
 1171SOL    HW2 3834   2.161   0.500   4.944  0.8397 -0.0945 -0.1868
 1172SOL     OW 3835   1.259   3.035   3.732 -0.0167  0.3713  0.4387
 1172SOL    HW1 3836   1.226   3.129   3.739  2.6391  1.4667 -0.1645
 1172SOL    HW2 3837   1.356   3.032   3.757 -0.1487 -2.3296  0.9161
 1173SOL     OW 3838   2.448   2.839   4.703 -0.0917  0.2961  0.0774
 1173SOL    HW1 3839   2.399   2.753   4.715 -0.7035  0.4640 -1.0175
 1173SOL    HW2 3840   2.424   2.902   4.776  2.1323 -1.1881  2.2622
 1174SOL     OW 3841   0.730   0.816   4.428 -0.0651 -0.7012 -0.0367
 1174SOL    HW1 3842   0.758   0.741   4.488  1.7110 -0.0821 -0.0188
 1174SOL    HW2 3843   0.707   0.781   4.338 -1.2973 -1.4767  0.5589
 1175SOL     OW 3844   1.785   5.219   0.547 -0.1594 -0.1894  0.0802
 1175SOL    HW1 3845   1.847   5.199   0.622  1.3084 -2.3252 -1.5682
 1175SOL    HW2 3846   1.837   5.252   0.468 -0.9753 -2.1961 -1.3984
 1176SOL     OW 3847   5.553   4.054   4.816  0.6811 -0.4052  0.3872
 1176SOL    HW1 3848   5.579   4.041   4.721  0.3106 -1.4159  0.4134
 1176SOL    HW2 3849   5.492   3.980   4.845 -1.8408  1.5607  0.4798
 1177SOL     OW 3850   0.351   4.235   0.507  0.3374  0.4092  0.7480
 1177SOL    HW1 3851   0.390   4.273   0.424 -0.0217 -0.2885  0.2568
 1177SOL    HW2 3852   0.297   4.306   0.553  1.2542  1.0595  0.8694
 1178SOL     OW 3853   1.922   2.320   4.537 -0.3477  0.0410 -0.2741
 1178SOL    HW1 3854   1.986   2.328   4.614 -1.3078 -0.0456  0.5600
 1178SOL    HW2 3855   1.972   2.290   4.455  0.4568 -1.4682  0.7075
 1179SOL     OW 3856   1.280   3.983   1.070 -0.3561 -0.0708  0.0142
 1179SOL    HW1 3857   1.309   4.071   1.108 -0.6341  0.3608 -0.7650
 1179SOL    HW2 3858   1.325   3.909   1.121  0.7504  0.5429 -0.0335
 1180SOL     OW 3859   1.499   3.516   3.117  0.3709  0.2619 -0.0586
 1180SOL    HW1 3860   1.526   3.608   3.145  0.1885  0.2593  0.1203
 1180SOL    HW2 3861   1.579   3.456   3.120  0.0406 -0.1454  2.0815
 1181SOL     OW 3862   0.047   2.302   4.125 -0.3855 -0.1717  0.3566
 1181SOL    HW1 3863   0.003   2.363   4.191  0.7706  0.5950  0.4607
 1181SOL    HW2 3864   0.121   2.253   4.170  0.5675  0.5331 -0.4005
 1182SOL     OW 3865   0.657   1.838   5.166 -0.1596  0.3945 -0.6794
 1182SOL    HW1 3866   0.572   1.871   5.206 -0.3465 -1.2692  0.3967
 1182SOL    HW2 3867   0.676   1.889   5.081 -1.0428  2.2967  0.1997
 1183SOL     OW 3868   3.291   5.262   5.196 -0.0721  0.0431 -0.4409
 1183SOL    HW1 3869   3.269   5.171   5.233 -0.7591  0.5796  0.5235
 1183SOL    HW2 3870   3.207   5.315   5.188  0.6590  1.7563  2.1942
 1184SOL     OW 3871   0.641   2.159   3.974  0.4098  0.2076  0.6377
 1184SOL    HW1 3872   0.543   2.174   3.992 -0.4637 -0.6919 -2.6934
 1184SOL    HW2 3873   0.657   2.062   3.956  1.7498  0.4669  0.3459
 1185SOL     OW 3874   4.111   3.068   3.701  0.2687  0.6884  0.3164
 1185SOL    HW1 3875   4.044   3.082   3.628 -0.5671  0.2172  0.9715
 1185SOL    HW2 3876   4.185   3.135   3.691  0.3715  0.3805 -1.1696
 1186SOL     OW 3877   1.123   2.823   4.039 -0.7817  0.0285 -0.0295
 1186SOL    HW1 3878   1.103   2.901   3.981 -1.3624  1.5909  2.1389
 1186SOL    HW2 3879   1.042   2.800   4.094 -0.0518 -0.9195  0.6894
 1187SOL     OW 3880   1.358   5.243   0.770 -0.2821 -0.4161  0.2408
 1187SOL    HW1 3881   1.390   5.320   0.826 -1.5666  0.5158 -0.2836
 1187SOL    HW2 3882   1.292   5.189   0.823  0.5011 -1.0887  0.5522
 1188SOL     OW 3883   3.334   2.478   4.234 -0.1926 -0.1942  0.3715
 1188SOL    HW1 3884   3.374   2.552   4.180 -1.6732  0.5945  0.2989
 1188SOL    HW2 3885   3.325   2.396   4.177 -0.7749  0.3142 -0.2804
 1189SOL     OW 3886   2.742   2.086   0.208 -0.2797 -0.0865  0.3480
 1189SOL    HW1 3887   2.659   2.114   0.257 -0.2327  0.1531  0.2948
 1189SOL    HW2 3888   2.794   2.021   0.264  0.2834  0.9496  1.0725
 1190SOL     OW 3889   2.887   2.344   4.586  0.3965  0.2484  0.4691
 1190SOL    HW1 3890   2.976   2.385   4.564  0.5280 -0.1835  0.1738
 1190SOL    HW2 3891   2.900   2.250   4.616 -0.0380 -0.2156 -0.7071
 1191SOL     OW 3892   1.724   3.100   4.268 -0.0355  0.2114  0.4768
 1191SOL    HW1 3893   1.817   3.116   4.236  0.5618  2.6890  2.9916
 1191SOL    HW2 3894   1.727   3.047   4.353 -1.0788 -1.0579 -0.2526
 1192SOL     OW 3895   0.131   0.623   0.415 -0.2514  0.0470 -0.3274
 1192SOL    HW1 3896   0.191   0.695   0.451  0.5123 -0.5263 -0.4385
 1192SOL    HW2 3897   0.052   0.665   0.370 -0.6714  0.7916  1.0563
 1193SOL     OW 3898   0.444   0.637   2.471  0.1602  0.2437 -0.2733
 1193SOL    HW1 3899   0.447   0.636   2.571  0.2615 -1.1194 -0.2803
 1193SOL    HW2 3900   0.359   0.681   2.441  0.2801  0.9577  0.3974
 1194SOL     OW 3901   2.310   0.532   5.039  0.6763  0.7614 -0.4705
 1194SOL    HW1 3902   2.347   0.567   5.125  1.5920  0.7629 -0.8494
 1194SOL    HW2 3903   2.363   0.452   5.010  1.4382  1.7307 -1.8442
 1195SOL     OW 3904   0.759   2.580   4.868  0.1141 -0.0926  0.4542
 1195SOL    HW1 3905   0.845   2.612   4.827 -0.4710 -1.8917 -2.4091
 1195SOL    HW2 3906   0.734   2.492   4.828 -2.6880  0.0036  1.8082
 1196SOL     OW 3907   5.399   1.297   4.398  0.5349 -0.2367 -0.1330
 1196SOL    HW1 3908   5.369   1.315   4.304 -1.2511  1.0073  0.6374
 1196SOL    HW2 3909   5.497   1.315   4.405  0.6407 -0.0310 -1.6656
 1197SOL     OW 3910   0.585   0.719   4.188  0.3831 -0.0574 -0.2708
 1197SOL    HW1 3911   0.517   0.792   4.174 -0.2103 -0.9005 -2.0985
 1197SOL    HW2 3912   0.552   0.635   4.146  0.8460 -1.5587  2.1970
 1198SOL     OW 3913   1.571   2.903   0.098 -0.0831 -0.0144  0.2044
 1198SOL    HW1 3914   1.634   2.912   0.175  0.9098 -1.2815 -0.4328
 1198SOL    HW2 3915   1.608   2.952   0.019  0.7062 -1.6785 -0.5028
 1199SOL     OW 3916   0.326   2.235   5.071 -0.2939  0.1874 -0.0423
 1199SOL    HW1 3917   0.282   2.148   5.095 -2.0650  0.8239 -0.8132
 1199SOL    HW2 3918   0.280   2.309   5.119  2.0444  0.6474  1.6450
 1200SOL     OW 3919   0.062   1.873   3.773  0.0941 -0.4442  0.0230
 1200SOL    HW1 3920   0.087   1.960   3.732  0.4559  0.2026  1.5657
 1200SOL    HW2 3921  -0.030   1.847   3.744  0.0491  0.3689 -0.5747
 1201SOL     OW 3922   0.889   2.424   4.091 -0.3264 -0.5606  0.3734
 1201SOL    HW1 3923   0.976   2.384   4.061 -0.8313 -1.6286  0.2609
 1201SOL    HW2 3924   0.888   2.522   4.072  1.2803 -0.3197  1.3810
 1202SOL     OW 3925   1.006   1.169   4.253 -0.2072 -0.3445  0.1034
 1202SOL    HW1 3926   0.918   1.171   4.206 -0.4416  1.3322  0.5756
 1202SOL    HW2 3927   1.037   1.262   4.272  1.1574 -0.9265  0.9168
 1203SOL     OW 3928   1.879   2.350   4.134  0.4262  0.0170  0.3682
 1203SOL    HW1 3929   1.927   2.380   4.052  2.4172 -1.6369  0.8363
 1203SOL    HW2 3930   1.946   2.320   4.202 -1.2504 -1.6806  1.3622
 1204SOL     OW 3931   2.046   2.266   4.322 -0.1672 -0.0062  0.1034
 1204SOL    HW1 3932   2.015   2.172   4.309 -0.7839  0.2426 -0.2353
 1204SOL    HW2 3933   2.145   2.271   4.304 -0.0842 -0.6255  0.3461
 1205SOL     OW 3934   0.935   3.669   5.518 -0.1705 -0.1370 -0.2924
 1205SOL    HW1 3935   0.956   3.680   5.615  0.5684 -0.3260 -0.4187
 1205SOL    HW2 3936   0.985   3.737   5.465  1.0884 -1.3346 -0.7087
 1206SOL     OW 3937   3.045   1.257   1.022  0.2882 -0.4049  0.0501
 1206SOL    HW1 3938   3.121   1.314   1.055  0.5054 -0.5063 -0.2780
 1206SOL    HW2 3939   3.035   1.269   0.923 -1.7191  1.5610  0.4126
 1207SOL     OW 3940   2.170   2.547   2.294  0.3835 -0.0659 -0.1199
 1207SOL    HW1 3941   2.199   2.640   2.272  0.0956  0.3472  1.1789
 1207SOL    HW2 3942   2.169   2.534   2.393 -3.6694 -0.1024 -0.0200
 1208SOL     OW 3943   1.104   3.394   4.708  0.3952 -0.9877  0.1546
 1208SOL    HW1 3944   1.188   3.358   4.667  0.1095 -2.5484  0.8788
 1208SOL    HW2 3945   1.124   3.477   4.761  1.1811 -0.4123 -1.0002
 1209SOL     OW 3946   0.712   1.200   3.632  0.2905 -0.1293 -0.3692
 1209SOL    HW1 3947   0.783   1.269   3.647 -0.8904  1.3730 -1.3031
 1209SOL    HW2 3948   0.752   1.118   3.591  1.1874  1.6939 -3.4709
 1210SOL     OW 3949   0.686   2.315   4.803  0.5019  0.3943  0.2285
 1210SOL    HW1 3950   0.718   2.273   4.718  0.2392  0.6788 -0.0140
 1210SOL    HW2 3951   0.600   2.273   4.830 -0.7516  2.0260 -1.0282
 1211SOL     OW 3952   1.586   0.524   1.460 -0.2201 -0.3679 -0.3352
 1211SOL    HW1 3953   1.538   0.592   1.404 -0.3953 -0.0131  0.2374
 1211SOL    HW2 3954   1.678   0.511   1.424 -0.4121 -0.3200 -0.8498
 1212SOL     OW 3955   3.021   0.405   3.898 -0.2950  0.1885 -0.0598
 1212SOL    HW1 3956   2.934   0.357   3.904 -0.4344 -0.1533 -3.1645
 1212SOL    HW2 3957   3.024   0.479   3.966 -2.1455 -1.0139  1.4081
 1213SOL     OW 3958   5.395   3.258   4.410  0.0865 -0.1771  0.0653
 1213SOL    HW1 3959   5.439   3.222   4.492 -1.5891 -0.1241  1.0204
 1213SOL    HW2 3960   5.414   3.196   4.333  1.0333 -0.6419  0.6437
 1214SOL     OW 3961   2.101   2.603   5.101  0.1286 -0.0904  0.2998
 1214SOL    HW1 3962   2.069   2.628   5.192  1.8145  1.4155  0.5313
 1214SOL    HW2 3963   2.096   2.682   5.041 -0.8046 -1.0263 -0.9009
 1215SOL     OW 3964   2.530   4.298   0.184  0.1016  0.5304 -0.3818
 1215SOL    HW1 3965   2.571   4.369   0.241  1.3384 -0.2048 -0.3150
 1215SOL    HW2 3966   2.550   4.208   0.223 -0.2402  0.0727 -1.2239
 1216SOL     OW 3967   0.149   1.752   4.796 -0.0752  0.2981  0.4367
 1216SOL    HW1 3968   0.201   1.728   4.715 -1.0453  1.1568 -0.4674
 1216SOL    HW2 3969   0.065   1.697   4.800  0.1786 -0.0575  1.1063
 1217SOL     OW 3970   2.049   2.287   4.873  0.2197  0.3722 -0.0085
 1217SOL    HW1 3971   2.103   2.351   4.818  0.8366 -0.0176  0.1346
 1217SOL    HW2 3972   2.066   2.194   4.841  0.2509  0.1823  0.5618
 1218SOL     OW 3973   1.856   1.948   5.137 -0.7485  0.0369  0.8383
 1218SOL    HW1 3974   1.951   1.976   5.148 -1.0639  1.8293 -0.4447
 1218SOL    HW2 3975   1.811   1.943   5.227  0.0099  1.3105  1.3105
 1219SOL     OW 3976   1.843   1.446   4.252 -0.0441 -0.6751  0.3837
 1219SOL    HW1 3977   1.761   1.447   4.309 -1.2235 -2.4768 -1.1575
 1219SOL    HW2 3978   1.908   1.380   4.289  0.3984  0.1689  1.1529
 1220SOL     OW 3979   2.077   2.819   2.727  0.1125  0.2355  0.2549
 1220SOL    HW1 3980   2.133   2.745   2.765 -0.0531  0.2648  0.5557
 1220SOL    HW2 3981   2.136   2.897   2.708  0.1259  0.3973  0.9126
 1221SOL     OW 3982   1.534   2.829   3.774 -0.1176 -0.0159  0.2441
 1221SOL    HW1 3983   1.461   2.767   3.805 -0.4444  0.3178  0.1509
 1221SOL    HW2 3984   1.578   2.870   3.853 -1.2457  1.1759  0.2889
 1222SOL     OW 3985   1.289   3.447   2.969 -0.1521  0.3113  0.0248
 1222SOL    HW1 3986   1.376   3.484   3.001 -0.0760  1.1904 -1.1519
 1222SOL    HW2 3987   1.216   3.513   2.985 -0.5367 -0.2405  0.5990
 1223SOL     OW 3988   1.794   0.999   5.342 -0.5619 -0.4186 -0.0675
 1223SOL    HW1 3989   1.864   1.046   5.396 -2.2978  1.4998  0.6668
 1223SOL    HW2 3990   1.832   0.976   5.252  0.8725  1.0548  0.1019
 1224SOL     OW 3991   0.501   4.652   5.187  0.1026  0.0277  0.0409
 1224SOL    HW1 3992   0.444   4.594   5.129  1.6826 -1.3719 -0.2283
 1224SOL    HW2 3993   0.513   4.741   5.144 -0.6542 -0.1872 -0.6329
 1225SOL     OW 3994   1.989   2.350   0.396 -0.5821  0.6565 -0.4173
 1225SOL    HW1 3995   1.914   2.416   0.390 -0.9263  0.1502 -2.3294
 1225SOL    HW2 3996   1.983   2.285   0.320  3.1368  2.0129 -2.1046
 1226SOL     OW 3997   1.385   2.626   0.648 -0.1328 -0.2711 -0.7972
 1226SOL    HW1 3998   1.296   2.623   0.601 -0.4363 -2.9072 -0.1896
 1226SOL    HW2 3999   1.375   2.676   0.734 -1.3117 -1.3730 -0.2597
 1227SOL     OW 4000   2.033   3.660   0.094 -0.4801  0.8362  0.1763
 1227SOL    HW1 4001   1.988   3.748   0.109 -1.5463 -0.0268  2.6698
 1227SOL    HW2 4002   2.131   3.674   0.083 -0.6887  2.3597  0.0736
 1228SOL     OW 4003   0.316   3.062   4.331 -0.0176 -0.0413 -0.3053
 1228SOL    HW1 4004   0.253   3.051   4.408  1.1084 -0.4644  0.5829
 1228SOL    HW2 4005   0.279   3.129   4.266 -1.3604 -0.2722  0.1949
 1229SOL     OW 4006   2.615   2.711   5.460 -0.3283 -0.4523  0.5723
 1229SOL    HW1 4007   2.688   2.653   5.426 -1.1861 -1.0331 -0.3451
 1229SOL    HW2 4008   2.527   2.676   5.427 -1.0856 -0.1839  2.2290
 1230SOL     OW 4009   2.360   0.762   4.144  0.5125  0.1317 -0.2132
 1230SOL    HW1 4010   2.296   0.759   4.066  1.0505  1.3057 -0.7234
 1230SOL    HW2 4011   2.407   0.674   4.151  0.5562  0.0503 -1.3111
 1231SOL     OW 4012   0.295   2.697   4.594 -0.6724 -0.6226 -0.0193
 1231SOL    HW1 4013   0.269   2.789   4.626 -0.9301 -0.3234 -1.0525
 1231SOL    HW2 4014   0.342   2.649   4.667  2.0330  1.3611 -0.3095
 1232SOL     OW 4015   0.738   4.298   0.194 -0.1165 -0.2582  0.2827
 1232SOL    HW1 4016   0.720   4.271   0.099 -0.8782 -0.5265  0.4975
 1232SOL    HW2 4017   0.654   4.331   0.236  0.2134 -0.1591  0.8788
 1233SOL     OW 4018   4.837   3.317   4.077  0.3609 -0.0682  0.0939
 1233SOL    HW1 4019   4.857   3.327   3.979 -2.3252 -1.3974 -0.6921
 1233SOL    HW2 4020   4.920   3.332   4.130  2.3011 -1.0116 -2.4969
 1234SOL     OW 4021   2.149   3.638   3.842  0.2549  0.4128 -0.8250
 1234SOL    HW1 4022   2.105   3.675   3.760 -1.0534 -0.2250 -0.4344
 1234SOL    HW2 4023   2.160   3.539   3.833  0.5050  0.4023 -0.4188
 1235SOL     OW 4024   4.965   5.483   4.260  0.1779  0.3377 -0.4553
 1235SOL    HW1 4025   4.905   5.531   4.196  0.3646  0.8252 -0.2696
 1235SOL    HW2 4026   4.926   5.393   4.281 -0.6887  0.7997 -0.0389
 1236SOL     OW 4027   0.866   4.204   2.746 -0.0481 -0.0542 -0.5030
 1236SOL    HW1 4028   0.788   4.254   2.708  0.2519  0.9276  0.1290
 1236SOL    HW2 4029   0.836   4.117   2.784 -0.9239  0.5388  0.1900
 1237SOL     OW 4030   1.837   2.716   4.109  0.2716  0.0286  0.5541
 1237SOL    HW1 4031   1.802   2.642   4.166 -0.6907  0.4818  0.5645
 1237SOL    HW2 4032   1.863   2.680   4.019  0.2860 -0.4002  0.7282
 1238SOL     OW 4033   0.864   3.297   2.287  0.0768 -0.4607  0.0294
 1238SOL    HW1 4034   0.787   3.292   2.351 -0.6815 -0.6610 -0.8622
 1238SOL    HW2 4035   0.860   3.383   2.236  0.0149 -0.7873 -0.5299
 1239SOL     OW 4036   3.090   4.017   4.174  0.4765  0.3442  0.0671
 1239SOL    HW1 4037   3.017   4.013   4.243  0.9817  1.1765  0.6782
 1239SOL    HW2 4038   3.067   3.957   4.098 -0.2221 -0.4107  0.8440
 1240SOL     OW 4039   5.044   2.439   4.256 -0.3721  0.6315  0.3370
 1240SOL    HW1 4040   5.033   2.535   4.229  3.7152  0.9868 -0.6670
 1240SOL    HW2 4041   5.115   2.432   4.326 -2.2413 -1.5473  2.1943
 1241SOL     OW 4042   1.137   3.327   3.401 -0.3680  0.8356 -0.2198
 1241SOL    HW1 4043   1.121   3.420   3.434  1.1332  1.0460 -0.0138
 1241SOL    HW2 4044   1.222   3.325   3.346 -0.1299 -0.4927  0.1561
 1242SOL     OW 4045   2.225   3.046   2.608  0.0415  0.3675 -0.1074
 1242SOL    HW1 4046   2.168   3.116   2.651 -0.6974 -0.9466  1.1613
 1242SOL    HW2 4047   2.216   3.052   2.508 -0.2241  1.8670 -0.0167
 1243SOL     OW 4048   1.950   3.820   5.061 -0.2735 -0.0385 -0.0211
 1243SOL    HW1 4049   1.910   3.733   5.087  0.7371  0.2715  2.8979
 1243SOL    HW2 4050   1.881   3.892   5.065 -0.0571  0.0949  2.6245
 1244SOL     OW 4051   1.178   4.276   4.035 -0.7036  0.2990 -0.4774
 1244SOL    HW1 4052   1.257   4.337   4.035 -0.8086  0.5035  1.4122
 1244SOL    HW2 4053   1.122   4.294   3.954  0.1935  1.4611 -0.8666
 1245SOL     OW 4054   2.325   2.891   3.396  0.5625  0.2651  0.2196
 1245SOL    HW1 4055   2.240   2.926   3.356 -0.6004 -2.1346  0.4330
 1245SOL    HW2 4056   2.349   2.804   3.354  1.5535 -0.3288  1.9042
 1246SOL     OW 4057   1.268   2.445   5.520  0.0374 -0.2107  0.4134
 1246SOL    HW1 4058   1.214   2.526   5.498  1.3467  0.9083  1.1649
 1246SOL    HW2 4059   1.340   2.470   5.585 -0.7878 -2.3919  2.3143
 1247SOL     OW 4060   1.923   4.378   0.680  0.0062  0.1588 -0.0435
 1247SOL    HW1 4061   1.847   4.346   0.623 -0.1246 -0.7557  0.6255
 1247SOL    HW2 4062   1.921   4.477   0.685 -1.8859  0.1129  0.9631
 1248SOL     OW 4063   2.165   4.752   4.811  0.6469 -0.2778  0.0673
 1248SOL    HW1 4064   2.229   4.812   4.858  1.9767 -0.0228 -1.9411
 1248SOL    HW2 4065   2.186   4.657   4.833 -0.7494 -0.1273  2.3620
 1249SOL     OW 4066   0.697   2.242   2.622  0.6530 -0.7321  0.0104
 1249SOL    HW1 4067   0.752   2.300   2.682 -0.0126 -0.1412  0.0494
 1249SOL    HW2 4068   0.672   2.293   2.540 -0.0357 -0.9190  0.0988
 1250SOL     OW 4069   0.273   3.857   4.098 -0.2423 -0.2421  0.4183
 1250SOL    HW1 4070   0.235   3.811   4.179  0.2817  0.0030  0.8124
 1250SOL    HW2 4071   0.351   3.805   4.064  0.8589  0.7299  1.3461
 1251SOL     OW 4072   3.768   1.648   5.192 -0.8601  0.1717  0.4613
 1251SOL    HW1 4073   3.830   1.637   5.269  0.7408  1.5803 -0.5616
 1251SOL    HW2 4074   3.746   1.745   5.180  0.7838  0.3238 -2.1688
 1252SOL     OW 4075   1.151   2.042   2.193 -0.1696  0.2177  0.3370
 1252SOL    HW1 4076   1.237   2.092   2.183 -0.7811  0.9543 -1.6209
 1252SOL    HW2 4077   1.075   2.107   2.200 -0.9386 -0.3751 -1.8431
 1253SOL     OW 4078   0.469   2.362   4.448  0.5627 -0.3308 -0.3127
 1253SOL    HW1 4079   0.451   2.290   4.515 -0.2056  0.6123  0.5325
 1253SOL    HW2 4080   0.560   2.401   4.465  0.3372 -0.0381  0.2508
 1254SOL     OW 4081   5.073   0.206   3.701  0.1418  0.3071 -0.0237
 1254SOL    HW1 4082   5.016   0.197   3.619 -0.7277 -2.4395  0.7705
 1254SOL    HW2 4083   5.170   0.197   3.675  0.0288  1.4356 -0.9372
 1255SOL     OW 4084   1.055   3.065   3.198 -0.1290  0.3838  0.9013
 1255SOL    HW1 4085   1.107   3.056   3.282  1.0519  0.0442  0.1590
 1255SOL    HW2 4086   1.117   3.084   3.122 -1.0138 -0.6145 -0.1153
 1256SOL     OW 4087   2.196   2.328   4.638  0.3775  0.1340  0.4192
 1256SOL    HW1 4088   2.213   2.408   4.580  0.3118 -0.7278 -0.8369
 1256SOL    HW2 4089   2.282   2.292   4.673  0.6489 -0.6228 -0.9561
 1257SOL     OW 4090   0.851   3.051   3.651  0.1061  0.3253 -0.4310
 1257SOL    HW1 4091   0.823   3.036   3.556 -0.5663  0.4516 -0.2591
 1257SOL    HW2 4092   0.922   2.986   3.676  0.2988  0.3006 -1.0250
 1258SOL     OW 4093   1.544   3.018   5.004 -0.3577  0.1594 -0.2124
 1258SOL    HW1 4094   1.496   2.957   4.941 -0.2994  0.6932 -0.7841
 1258SOL    HW2 4095   1.593   2.964   5.073  1.1890 -0.5029 -1.7692
 1259SOL     OW 4096   1.739   1.340   0.361 -0.0153  0.1403  0.3186
 1259SOL    HW1 4097   1.809   1.270   0.378  0.8104  1.0843  0.9659
 1259SOL    HW2 4098   1.689   1.359   0.445  0.3962  0.9698  0.3917
 1260SOL     OW 4099   2.273   4.313   3.286 -0.0314  0.2817  0.3154
 1260SOL    HW1 4100   2.253   4.388   3.349 -0.4611  2.2285 -1.9816
 1260SOL    HW2 4101   2.212   4.236   3.305 -0.7859  1.1582  1.6438
 1261SOL     OW 4102   5.436   1.927   0.226  0.2368  0.2397 -0.0530
 1261SOL    HW1 4103   5.410   1.964   0.137  0.2438  2.6848  0.8975
 1261SOL    HW2 4104   5.524   1.966   0.254 -1.2138  2.0708  2.3608
 1262SOL     OW 4105   1.123   2.574   0.545  0.0527  0.0264  0.7493
 1262SOL    HW1 4106   1.093   2.481   0.562  0.4629 -0.0481  1.0674
 1262SOL    HW2 4107   1.127   2.591   0.446  2.4361 -1.1093  0.5784
 1263SOL     OW 4108   0.276   3.217   0.897  0.5632  0.3326 -0.5111
 1263SOL    HW1 4109   0.321   3.167   0.972 -2.4951 -0.8193  0.7237
 1263SOL    HW2 4110   0.295   3.171   0.810 -2.4415 -3.5533  0.6107
 1264SOL     OW 4111   2.997   3.563   4.990  0.2028 -0.3188  0.0789
 1264SOL    HW1 4112   2.986   3.503   5.070  1.2779  0.1845  0.6297
 1264SOL    HW2 4113   3.079   3.619   5.002  1.8445 -1.9792 -2.4867
 1265SOL     OW 4114   0.258   2.153   4.227 -0.9702  0.2649  0.0036
 1265SOL    HW1 4115   0.352   2.127   4.249 -1.4674 -3.0104 -1.1222
 1265SOL    HW2 4116   0.195   2.103   4.286 -2.0482 -0.6470 -1.8431
 1266SOL     OW 4117   1.107   3.065   3.489 -0.9988  0.0826  0.4285
 1266SOL    HW1 4118   1.172   3.042   3.562 -2.0771 -1.0071  1.0939
 1266SOL    HW2 4119   1.117   3.162   3.465  0.5575  0.0405  0.8085
 1267SOL     OW 4120   3.962   3.343   0.838  0.2220  0.4212 -0.2427
 1267SOL    HW1 4121   4.006   3.363   0.750 -0.9949 -0.9775 -1.2185
 1267SOL    HW2 4122   3.918   3.426   0.873  1.2481  1.1445 -0.6338
 1268SOL     OW 4123   1.598   1.295   4.636  0.1472  0.1386 -0.0369
 1268SOL    HW1 4124   1.679   1.306   4.694 -0.7873 -1.8017  1.7984
 1268SOL    HW2 4125   1.535   1.371   4.652  1.0119  0.9744 -0.4982
 1269SOL     OW 4126   1.170   3.599   3.485 -0.1721 -0.0165  0.5749
 1269SOL    HW1 4127   1.120   3.607   3.571 -1.8163  4.1766 -0.5070
 1269SOL    HW2 4128   1.223   3.682   3.469 -0.0450 -0.5549 -2.5119
 1270SOL     OW 4129   0.521   0.309   3.251 -0.2169 -0.0207  0.7232
 1270SOL    HW1 4130   0.421   0.303   3.245 -0.2460  0.9165 -0.0863
 1270SOL    HW2 4131   0.562   0.275   3.166  0.0925  0.5405  0.6437
 1271SOL     OW 4132   1.937   4.226   4.419  0.0192  0.1882 -0.5417
 1271SOL    HW1 4133   2.009   4.292   4.440  0.1715  0.5416 -2.0089
 1271SOL    HW2 4134   1.872   4.268   4.355  0.1325 -1.0841 -1.5231
 1272SOL     OW 4135   1.972   2.968   4.230 -0.1796  0.3133  0.0798
 1272SOL    HW1 4136   2.000   2.986   4.136  0.0088 -0.5839 -0.0532
 1272SOL    HW2 4137   1.916   2.885   4.233 -0.0101  0.2136  0.7787
 1273SOL     OW 4138   0.490   3.360   3.388  0.0096  0.2940 -0.2821
 1273SOL    HW1 4139   0.566   3.368   3.324  0.9352 -0.6753  0.6732
 1273SOL    HW2 4140   0.405   3.350   3.337  0.6207  0.4143 -1.3562
 1274SOL     OW 4141   5.133   3.232   4.523 -0.2242 -0.2119 -0.1535
 1274SOL    HW1 4142   5.218   3.264   4.480 -0.6490 -1.3900 -1.9726
 1274SOL    HW2 4143   5.120   3.281   4.609  1.3308  1.3591 -0.7259
 1275SOL     OW 4144   0.747   1.774   4.259 -1.0066 -0.5020  0.2427
 1275SOL    HW1 4145   0.652   1.746   4.249 -0.5157 -2.6294  0.8676
 1275SOL    HW2 4146   0.761   1.813   4.350 -1.1916 -0.6470  0.3330
 1276SOL     OW 4147   2.335   2.955   5.304  0.3986 -0.1379 -0.6873
 1276SOL    HW1 4148   2.284   2.977   5.386  1.3542  0.3860 -0.2066
 1276SOL    HW2 4149   2.374   2.863   5.311 -1.3770 -0.9993 -1.5440
 1277SOL     OW 4150   1.356   1.530   3.691  0.2902 -0.0517  0.0317
 1277SOL    HW1 4151   1.344   1.573   3.780  0.8608 -0.2248  0.1999
 1277SOL    HW2 4152   1.271   1.485   3.663  0.9629 -2.8014  1.9942
 1278SOL     OW 4153   1.951   1.038   3.617  0.0235 -0.2397  0.6432
 1278SOL    HW1 4154   2.046   1.018   3.596 -0.4974 -2.0473 -0.1850
 1278SOL    HW2 4155   1.945   1.125   3.666  1.9386  0.7354 -0.7303
 1279SOL     OW 4156   5.358   1.587   3.714  0.0289  0.2017  0.0115
 1279SOL    HW1 4157   5.415   1.575   3.795  0.4890  1.0978 -0.1822
 1279SOL    HW2 4158   5.383   1.519   3.645 -0.8681 -1.0652  0.8776
 1280SOL     OW 4159   2.008   1.635   0.464 -0.5611  0.1340 -0.3287
 1280SOL    HW1 4160   1.923   1.669   0.423 -1.5009 -1.5639  0.1146
 1280SOL    HW2 4161   2.018   1.671   0.556 -1.0595 -0.0594 -0.1996
 1281SOL     OW 4162   0.826   2.729   4.609 -0.5525  0.0813  0.1231
 1281SOL    HW1 4163   0.862   2.708   4.518 -0.1664  0.2253  0.2372
 1281SOL    HW2 4164   0.746   2.788   4.600 -0.5604  0.0350 -0.1268
 1282SOL     OW 4165   1.518   1.737   4.557 -0.3134  0.2788  0.4215
 1282SOL    HW1 4166   1.525   1.749   4.656  0.4344  0.6798  0.3346
 1282SOL    HW2 4167   1.453   1.664   4.536 -0.1893 -0.0708  1.2199
 1283SOL     OW 4168   4.864   2.820   5.007 -0.1704 -0.0393  0.2455
 1283SOL    HW1 4169   4.851   2.768   4.922 -1.5434  1.8415 -0.7580
 1283SOL    HW2 4170   4.776   2.846   5.044  0.4696  1.3786  0.8292
 1284SOL     OW 4171   2.139   4.348   2.734 -0.1053  0.0003 -0.1310
 1284SOL    HW1 4172   2.083   4.329   2.653  0.4130 -0.0437 -0.4882
 1284SOL    HW2 4173   2.216   4.284   2.737  0.9477  1.1847 -0.6503
 1285SOL     OW 4174   0.428   3.886   0.651  0.1225 -0.2878  1.1288
 1285SOL    HW1 4175   0.338   3.873   0.694 -0.9755  1.9867 -0.2670
 1285SOL    HW2 4176   0.444   3.814   0.584 -1.0598 -0.2554  0.7963
 1286SOL     OW 4177   1.609   1.650   3.402  0.2037  0.5322 -0.2243
 1286SOL    HW1 4178   1.598   1.557   3.435  2.4400 -0.5125 -2.1113
 1286SOL    HW2 4179   1.648   1.648   3.310  0.2166  3.3512 -0.3682
 1287SOL     OW 4180   1.369   3.559   5.340 -0.4031  0.6672 -0.1022
 1287SOL    HW1 4181   1.411   3.548   5.430  1.7645  0.3533 -1.0969
 1287SOL    HW2 4182   1.336   3.471   5.307  0.9048  0.3526 -0.5864
 1288SOL     OW 4183   2.141   1.361   4.619 -0.0256 -0.5922  0.0405
 1288SOL    HW1 4184   2.225   1.414   4.628 -1.5985  1.8569  1.5483
 1288SOL    HW2 4185   2.106   1.370   4.525 -1.7422  3.7353  0.8862
 1289SOL     OW 4186   1.053   2.640   3.564  0.2476 -0.6472 -0.2556
 1289SOL    HW1 4187   0.984   2.568   3.563 -1.0515  0.5285  0.9109
 1289SOL    HW2 4188   1.068   2.673   3.470 -1.6868 -0.1032 -0.4170
 1290SOL     OW 4189   5.457   3.950   3.416 -0.4675 -0.1270 -0.4302
 1290SOL    HW1 4190   5.542   3.979   3.461 -0.3093 -1.3686  0.1053
 1290SOL    HW2 4191   5.414   4.029   3.373 -0.0186  0.8913  0.9152
 1291SOL     OW 4192   0.098   0.301   1.495  0.1222  0.3686  0.4367
 1291SOL    HW1 4193   0.116   0.206   1.518 -0.2759 -0.0394 -0.8809
 1291SOL    HW2 4194   0.018   0.307   1.436  1.1986  1.3206 -1.0055
 1292SOL     OW 4195   4.549   1.772   2.401  0.6083  0.1881 -0.4456
 1292SOL    HW1 4196   4.526   1.718   2.482  1.2493  0.1024 -0.3188
 1292SOL    HW2 4197   4.465   1.810   2.362  0.1945 -0.5103 -0.2668
 1293SOL     OW 4198   1.022   4.013   5.067 -1.0216 -0.2527  0.0191
 1293SOL    HW1 4199   1.117   4.040   5.055 -1.2535 -0.4160 -2.7300
 1293SOL    HW2 4200   1.017   3.918   5.097 -0.3344  0.0166  1.0304
 1294SOL     OW 4201   1.159   1.318   2.955  0.0803  0.4827 -0.7124
 1294SOL    HW1 4202   1.061   1.328   2.974  0.3969  1.7652  0.4668
 1294SOL    HW2 4203   1.210   1.333   3.040  1.3847  1.7392 -1.6796
 1295SOL     OW 4204   1.604   1.210   1.983  0.0158  0.0462 -0.0832
 1295SOL    HW1 4205   1.649   1.295   1.955 -1.1488  0.9538  0.7297
 1295SOL    HW2 4206   1.554   1.172   1.904  0.5849  0.0697 -0.4629
 1296SOL     OW 4207   0.852   4.667   5.436  0.1961 -0.1039 -0.1662
 1296SOL    HW1 4208   0.910   4.598   5.479  0.4833  0.7043  0.7621
 1296SOL    HW2 4209   0.768   4.678   5.489  0.1513  0.2679 -0.3140
 1297SOL     OW 4210   1.502   3.476   0.010 -0.0519  0.0610 -0.1851
 1297SOL    HW1 4211   1.574   3.515  -0.047 -0.5617 -0.0731 -0.9383
 1297SOL    HW2 4212   1.521   3.496   0.106  0.9439  0.0943 -0.3747
 1298SOL     OW 4213   4.819   4.299   2.051 -0.4651  0.0578 -0.5970
 1298SOL    HW1 4214   4.790   4.276   2.144  2.0941  1.2495  0.6131
 1298SOL    HW2 4215   4.814   4.218   1.993 -2.4979 -0.6137  0.4403
 1299SOL     OW 4216   5.323   5.532   1.419 -0.0610 -0.3418  0.1017
 1299SOL    HW1 4217   5.352   5.484   1.502 -1.4951  0.1683  0.9334
 1299SOL    HW2 4218   5.223   5.534   1.415 -0.0545  2.1752 -0.1148
 1300SOL     OW 4219   0.986   4.722   5.063 -0.3277  0.1864  0.0370
 1300SOL    HW1 4220   1.062   4.657   5.062  0.4638  1.0201  1.7412
 1300SOL    HW2 4221   0.901   4.675   5.085  0.0462 -0.4387  0.1430
 1301SOL     OW 4222   1.053   4.380   2.310  0.0571 -0.8483  0.2528
 1301SOL    HW1 4223   1.135   4.324   2.319  1.5726  1.2681  0.3788
 1301SOL    HW2 4224   1.036   4.428   2.396  0.2629  0.7224 -0.5469
 1302SOL     OW 4225   0.789   5.240   0.343 -0.2791 -0.7173 -0.1235
 1302SOL    HW1 4226   0.708   5.184   0.326 -0.8785  0.1816 -0.2948
 1302SOL    HW2 4227   0.788   5.271   0.438 -0.6735  0.1199 -0.3921
 1303SOL     OW 4228   0.135   1.281   0.205  0.0542 -0.5938  0.4045
 1303SOL    HW1 4229   0.160   1.350   0.137 -0.2475 -0.4060  0.4837
 1303SOL    HW2 4230   0.212   1.266   0.268  0.3252 -0.7512  0.0392
 1304SOL     OW 4231   0.609   3.864   1.386  0.3241 -0.6173  0.0790
 1304SOL    HW1 4232   0.607   3.882   1.484 -0.3840 -0.8923  0.1233
 1304SOL    HW2 4233   0.676   3.924   1.342 -0.7785  0.9265  0.4460
 1305SOL     OW 4234   5.456   4.532   5.266 -0.3254  0.0565  0.0037
 1305SOL    HW1 4235   5.448   4.561   5.171 -0.3820  0.6573  0.1870
 1305SOL    HW2 4236   5.534   4.578   5.309 -1.0184  0.7349  0.5792
 1306SOL     OW 4237   4.730   5.046   0.727 -0.0191 -0.3286 -0.3081
 1306SOL    HW1 4238   4.691   5.112   0.663  0.0270 -0.2600 -0.2650
 1306SOL    HW2 4239   4.693   5.062   0.818  0.0213 -0.3381 -0.2900
 1307SOL     OW 4240   1.288   4.350   2.027 -0.8395 -0.4413  0.3842
 1307SOL    HW1 4241   1.272   4.448   2.024 -0.6718 -0.4351 -0.7379
 1307SOL    HW2 4242   1.382   4.330   2.000 -0.3378 -0.8107  2.2673
 1308SOL     OW 4243   0.514   4.706   0.294 -0.6231 -0.4178 -0.4754
 1308SOL    HW1 4244   0.429   4.691   0.242 -0.4726  0.7560 -1.0713
 1308SOL    HW2 4245   0.496   4.769   0.370 -0.3401 -0.3829 -0.4364
 1309SOL     OW 4246   0.562   2.952   0.329  0.5085  0.0336 -0.2137
 1309SOL    HW1 4247   0.662   2.951   0.318  0.7279  1.3707  1.2084
 1309SOL    HW2 4248   0.529   3.047   0.324 -0.7421 -0.4126 -0.8902
 1310SOL     OW 4249   0.106   4.905   1.942 -0.1618 -0.3704  0.2848
 1310SOL    HW1 4250   0.038   4.833   1.956 -0.4500 -0.1177  0.1854
 1310SOL    HW2 4251   0.060   4.991   1.920  0.2131 -0.3202 -0.3166
 1311SOL     OW 4252   5.469   4.987   5.474 -0.0380  0.1192 -0.1282
 1311SOL    HW1 4253   5.555   5.032   5.498  0.7014 -2.2830  2.2647
 1311SOL    HW2 4254   5.398   5.056   5.459  1.2514  2.1337  2.2747
 1312SOL     OW 4255   0.333   3.072   1.602 -0.2288  0.3175 -0.0268
 1312SOL    HW1 4256   0.309   3.091   1.507 -2.0636  0.9457  0.5189
 1312SOL    HW2 4257   0.252   3.040   1.651  0.7711 -0.3467  1.2478
 1313SOL     OW 4258   3.664   0.587   1.906 -0.5285  0.1968 -0.2393
 1313SOL    HW1 4259   3.613   0.609   1.823  0.2643  0.9627 -0.5488
 1313SOL    HW2 4260   3.713   0.501   1.894 -1.0105 -0.0705 -0.2843
 1314SOL     OW 4261   1.326   0.282   0.063  0.6246  0.4756  0.0151
 1314SOL    HW1 4262   1.363   0.333   0.141  0.5515  0.7156 -0.1053
 1314SOL    HW2 4263   1.268   0.207   0.096 -0.1486  1.1353  0.1872
 1315SOL     OW 4264   5.416   0.216   1.396 -0.1802  0.3009  0.1101
 1315SOL    HW1 4265   5.391   0.124   1.424 -2.2833  1.0026  0.7788
 1315SOL    HW2 4266   5.349   0.250   1.330  1.9954  0.4690 -2.1544
 1316SOL     OW 4267   1.560   4.167   3.960 -0.0370 -0.0795  0.0793
 1316SOL    HW1 4268   1.514   4.253   3.984 -0.1829 -0.2941  0.5787
 1316SOL    HW2 4269   1.659   4.178   3.973 -0.1095 -0.1784  0.7595
 1317SOL     OW 4270   1.336   0.584   0.032  0.5293 -0.2618 -0.0902
 1317SOL    HW1 4271   1.369   0.502  -0.015  1.1141 -0.1098  0.0525
 1317SOL    HW2 4272   1.242   0.569   0.063  0.4091 -0.6437 -0.6243
 1318SOL     OW 4273   4.712   3.885   1.445  0.1730 -0.2877  0.0293
 1318SOL    HW1 4274   4.614   3.875   1.428  0.1640 -1.7720  0.8166
 1318SOL    HW2 4275   4.752   3.943   1.374 -1.0155 -0.8894 -1.1814
 1319SOL     OW 4276   1.072   2.768   0.734  0.4261 -0.1832  0.0840
 1319SOL    HW1 4277   1.092   2.710   0.656  1.0784  0.0596  0.0636
 1319SOL    HW2 4278   1.020   2.716   0.802 -0.2254 -0.3679 -0.5392
 1320SOL     OW 4279   2.270   5.285   1.960 -0.7964  0.2411 -0.0907
 1320SOL    HW1 4280   2.289   5.290   2.058 -0.0979 -1.8875 -0.0599
 1320SOL    HW2 4281   2.302   5.369   1.915  2.2552 -0.1937  1.0296
 1321SOL     OW 4282   0.967   4.047   4.798 -0.1371 -0.1034 -0.0663
 1321SOL    HW1 4283   0.986   4.062   4.895  1.7093  0.9538 -0.5488
 1321SOL    HW2 4284   1.037   3.987   4.759 -0.4349  0.0842 -0.9141
 1322SOL     OW 4285   0.571   3.597   2.455 -0.1166  0.3224 -0.0046
 1322SOL    HW1 4286   0.589   3.619   2.551  1.2888 -1.5345  0.2162
 1322SOL    HW2 4287   0.625   3.657   2.396  1.4252 -0.5295  0.4844
 1323SOL     OW 4288   5.175   4.323   3.609  0.1774  0.2018 -0.1857
 1323SOL    HW1 4289   5.086   4.361   3.583  0.7417  0.1025 -2.4930
 1323SOL    HW2 4290   5.247   4.386   3.580  0.9541 -0.7755 -0.4007
 1324SOL     OW 4291   1.225   1.265   5.395  0.3672  0.1015 -0.5511
 1324SOL    HW1 4292   1.200   1.359   5.374 -0.6067 -0.2759 -1.1358
 1324SOL    HW2 4293   1.211   1.249   5.493  0.0146  0.4115 -0.5472
 1325SOL     OW 4294   4.436   5.264   1.215  0.0694  0.0445 -0.5889
 1325SOL    HW1 4295   4.397   5.332   1.276 -0.0915  0.7634 -1.4699
 1325SOL    HW2 4296   4.362   5.223   1.160  0.1919 -0.6865 -0.2181
 1326SOL     OW 4297   1.138   4.227   0.684  0.7852  0.2978  0.2385
 1326SOL    HW1 4298   1.098   4.316   0.706  3.7968  1.6310  0.8646
 1326SOL    HW2 4299   1.234   4.239   0.661  1.3103 -2.8502  0.3652
 1327SOL     OW 4300   0.799   4.438   1.737  0.4446  0.2166 -0.2482
 1327SOL    HW1 4301   0.876   4.379   1.760 -1.0587 -1.5573  0.4628
 1327SOL    HW2 4302   0.810   4.472   1.643  1.8370 -0.3696 -0.3235
 1328SOL     OW 4303   0.682   2.625   1.005  0.5564  0.1085 -0.0420
 1328SOL    HW1 4304   0.626   2.701   0.974 -0.1348 -0.4840 -0.2876
 1328SOL    HW2 4305   0.646   2.589   1.091  1.3397  0.5406  0.4806
 1329SOL     OW 4306   1.290   4.053   5.047 -0.6972 -0.1814 -0.0818
 1329SOL    HW1 4307   1.321   4.032   4.955 -1.4838 -0.4302 -0.2978
 1329SOL    HW2 4308   1.364   4.034   5.112 -1.0770 -2.9587 -0.3384
 1330SOL     OW 4309   3.346   4.417   3.324 -0.5446 -0.0021 -0.1450
 1330SOL    HW1 4310   3.298   4.412   3.411  0.2449  0.4217  0.3310
 1330SOL    HW2 4311   3.325   4.503   3.279  0.8030  0.8028  0.7076
 1331SOL     OW 4312   2.481   2.921   0.727  0.2973  0.8346  0.7214
 1331SOL    HW1 4313   2.552   2.988   0.704 -0.4097  1.3437 -0.0209
 1331SOL    HW2 4314   2.520   2.829   0.724  0.9578  1.1175  0.4549
 1332SOL     OW 4315   1.835   3.635   2.714 -0.2867  0.0676  0.1633
 1332SOL    HW1 4316   1.859   3.708   2.651  0.3926 -0.2744  0.0093
 1332SOL    HW2 4317   1.766   3.576   2.672 -0.2930  0.1978 -0.0101
 1333SOL     OW 4318   1.600   3.786   0.231  0.2301  0.2828 -0.3154
 1333SOL    HW1 4319   1.670   3.847   0.269  1.1686  0.0690 -1.6413
 1333SOL    HW2 4320   1.551   3.834   0.158 -0.9327  0.3754  0.4948
 1334SOL     OW 4321   2.087   5.069   1.162 -0.3122  0.7897 -0.3121
 1334SOL    HW1 4322   2.080   5.001   1.089  0.0589 -1.0953  1.3178
 1334SOL    HW2 4323   1.999   5.116   1.172 -1.0614 -0.5232 -0.5007
 1335SOL     OW 4324   5.326   0.154   4.186  0.0729 -0.1578 -0.1179
 1335SOL    HW1 4325   5.289   0.101   4.262  1.5646  0.9361  1.4524
 1335SOL    HW2 4326   5.349   0.093   4.110 -2.3529 -1.1592 -0.1547
 1336SOL     OW 4327   0.895   0.493   2.385  0.5413  0.0635 -0.1468
 1336SOL    HW1 4328   0.838   0.506   2.305  0.4679  1.0811  0.0548
 1336SOL    HW2 4329   0.849   0.531   2.466  0.5501 -1.0626  0.4117
 1337SOL     OW 4330   3.340   0.885   2.438 -0.1390 -0.1762  0.4602
 1337SOL    HW1 4331   3.351   0.963   2.377 -0.5117 -0.6416 -0.2154
 1337SOL    HW2 4332   3.399   0.810   2.407 -0.4861 -0.4890  0.5483
 1338SOL     OW 4333   1.681   2.477   5.571  0.3217  0.3893 -0.0559
 1338SOL    HW1 4334   1.654   2.383   5.593  2.3045 -0.2291  0.0013
 1338SOL    HW2 4335   1.703   2.482   5.473  1.7559  0.3363  0.2365
 1339SOL     OW 4336   5.018   4.165   1.054 -0.3498 -0.3096  0.2067
 1339SOL    HW1 4337   5.107   4.128   1.082 -0.1763  0.5452  0.8202
 1339SOL    HW2 4338   5.028   4.261   1.029 -1.1027 -0.2047  0.2900
 1340SOL     OW 4339   0.046   3.470   1.717 -0.0051  0.2387  0.2623
 1340SOL    HW1 4340  -0.017   3.393   1.714  0.0574  0.2030 -0.6002
 1340SOL    HW2 4341   0.101   3.470   1.633  1.0140  0.3677  0.9180
 1341SOL     OW 4342   0.860   4.551   4.641 -0.0283 -0.0255 -0.0515
 1341SOL    HW1 4343   0.844   4.459   4.608 -1.4230  0.4172 -0.6739
 1341SOL    HW2 4344   0.958   4.567   4.649  0.3101 -0.8585 -1.9796
 1342SOL     OW 4345   0.316   4.474   0.913  0.2317  0.0247  0.0373
 1342SOL    HW1 4346   0.407   4.498   0.879  0.9871  1.2371  2.6607
 1342SOL    HW2 4347   0.290   4.536   0.986 -2.4208 -0.7815 -0.1121
 1343SOL     OW 4348   0.472   1.571   2.802 -0.3938  0.8656 -0.0783
 1343SOL    HW1 4349   0.488   1.479   2.837 -0.5211  0.6266 -0.6549
 1343SOL    HW2 4350   0.381   1.602   2.830  0.9807  2.3064  3.3863
 1344SOL     OW 4351   1.490   4.607   0.378 -0.2745  0.2922 -0.3221
 1344SOL    HW1 4352   1.506   4.509   0.390  0.8641  0.6606  1.5930
 1344SOL    HW2 4353   1.428   4.640   0.450  1.1582  1.3533  0.4795
 1345SOL     OW 4354   2.744   0.644   1.142 -0.4237 -0.3990 -0.0563
 1345SOL    HW1 4355   2.674   0.705   1.104 -1.4576 -1.1473  0.6165
 1345SOL    HW2 4356   2.807   0.618   1.069  0.2264  1.6804 -0.3183
 1346SOL     OW 4357   1.336   4.742   0.565  0.2368  0.1257  0.4273
 1346SOL    HW1 4358   1.377   4.833   0.575 -1.8901  1.0788  0.8928
 1346SOL    HW2 4359   1.241   4.751   0.535 -0.4780 -1.8803  1.8747
 1347SOL     OW 4360   1.186   5.351   5.188 -0.2854  0.1944  0.0889
 1347SOL    HW1 4361   1.207   5.304   5.273  0.4560  0.6741  0.1789
 1347SOL    HW2 4362   1.261   5.414   5.165 -1.3820  1.5942  0.1557
 1348SOL     OW 4363   4.996   0.815   1.902  0.0392 -0.0942  0.6560
 1348SOL    HW1 4364   5.051   0.884   1.950  0.7691 -1.0131  1.1877
 1348SOL    HW2 4365   4.931   0.860   1.842  0.4083  1.0592  1.0908
 1349SOL     OW 4366   1.172   1.263   0.105 -0.5117 -0.1985 -0.1051
 1349SOL    HW1 4367   1.098   1.278   0.170  0.2907 -0.1327  0.8195
 1349SOL    HW2 4368   1.251   1.320   0.130 -0.1718 -0.1871 -1.1255
 1350SOL     OW 4369   0.072   2.715   1.493  0.3088 -0.1347  0.4196
 1350SOL    HW1 4370   0.013   2.780   1.445  0.9910  0.5848  0.5387
 1350SOL    HW2 4371   0.161   2.710   1.447  0.0365 -1.4930  0.0159
 1351SOL     OW 4372   1.767   4.877   4.721  0.0320  0.6100 -0.1651
 1351SOL    HW1 4373   1.829   4.807   4.757  0.0849  0.7002 -0.0820
 1351SOL    HW2 4374   1.766   4.955   4.782  1.1141  1.3089 -0.9923
 1352SOL     OW 4375   2.111   4.624   0.934  0.3367 -0.1702 -0.5993
 1352SOL    HW1 4376   2.206   4.616   0.965 -0.2727 -1.0007  1.1110
 1352SOL    HW2 4377   2.049   4.588   1.003 -1.4369  2.7596 -0.4863
 1353SOL     OW 4378   1.398   3.971   4.812  0.2747  0.1843  0.7214
 1353SOL    HW1 4379   1.464   3.899   4.831  0.1543 -0.3198 -0.6094
 1353SOL    HW2 4380   1.443   4.045   4.762 -0.3214 -0.6519 -1.1752
 1354SOL     OW 4381   4.458   4.126   2.670 -0.1495 -0.0228 -0.4349
 1354SOL    HW1 4382   4.372   4.117   2.620 -0.0433 -1.8485 -0.3609
 1354SOL    HW2 4383   4.524   4.058   2.637  1.2905  1.3233 -0.4805
 1355SOL     OW 4384   5.375   0.038   1.921  0.0515 -0.0189 -0.1808
 1355SOL    HW1 4385   5.286   0.081   1.906 -0.2237 -0.6522 -0.3714
 1355SOL    HW2 4386   5.373  -0.015   2.006  0.3928  0.3402  0.0561
 1356SOL     OW 4387   5.386   3.893   0.434  0.0994  0.4219  0.0713
 1356SOL    HW1 4388   5.432   3.868   0.349 -1.2044  1.4882 -1.0015
 1356SOL    HW2 4389   5.429   3.975   0.472 -1.0760  1.6780 -1.1635
 1357SOL     OW 4390   2.360   2.804   1.781  0.7122 -0.3274  0.3971
 1357SOL    HW1 4391   2.411   2.729   1.823  0.8456 -0.4196  0.0809
 1357SOL    HW2 4392   2.350   2.786   1.683 -1.2298 -1.0345  0.6917
 1358SOL     OW 4393   0.527   3.490   4.834 -0.2931  0.4321  0.2052
 1358SOL    HW1 4394   0.602   3.433   4.870  0.3276 -0.5557 -2.3861
 1358SOL    HW2 4395   0.441   3.439   4.840 -0.1122  0.0806 -0.1210
 1359SOL     OW 4396   1.232   4.767   0.990  0.5996  0.1060  0.2803
 1359SOL    HW1 4397   1.166   4.772   1.065  0.3763  0.1963  0.0829
 1359SOL    HW2 4398   1.284   4.681   0.996  0.4594  0.0314  0.4362
 1360SOL     OW 4399   0.759   1.423   2.549  0.2720  0.0324 -0.1231
 1360SOL    HW1 4400   0.815   1.501   2.578  1.7778 -1.4982  1.2325
 1360SOL    HW2 4401   0.813   1.362   2.492 -0.3708 -0.8814  0.2193
 1361SOL     OW 4402   1.563   4.185   4.996  0.0295 -0.5213 -0.1998
 1361SOL    HW1 4403   1.542   4.102   5.047  0.7595 -1.1651 -0.9257
 1361SOL    HW2 4404   1.585   4.259   5.059 -0.8721 -0.8028  0.4590
 1362SOL     OW 4405   1.230   4.953   5.488  0.4621 -0.3612 -0.2703
 1362SOL    HW1 4406   1.217   4.915   5.579 -1.1879  1.8781  0.5209
 1362SOL    HW2 4407   1.225   4.880   5.420 -1.8236 -1.6615  1.1695
 1363SOL     OW 4408   2.904   3.239   4.630 -0.1985  0.3770  0.3641
 1363SOL    HW1 4409   2.941   3.290   4.708  0.0479  1.0251 -0.1736
 1363SOL    HW2 4410   2.826   3.184   4.660  0.7815 -0.5012  1.3817
 1364SOL     OW 4411   0.026   4.027   2.553 -0.2591  0.2045 -0.2513
 1364SOL    HW1 4412   0.089   3.978   2.493  0.6275 -0.6001  1.2852
 1364SOL    HW2 4413  -0.057   4.050   2.502 -0.1498 -1.7123 -1.3848
 1365SOL     OW 4414   1.622   5.539   4.803  0.0855 -0.1746 -0.5574
 1365SOL    HW1 4415   1.688   5.464   4.794 -0.7697 -0.9734 -0.2642
 1365SOL    HW2 4416   1.646   5.595   4.883 -0.4688 -1.3614  0.4616
 1366SOL     OW 4417   5.168   2.267   1.373 -0.1809 -0.1822  0.2314
 1366SOL    HW1 4418   5.238   2.324   1.330  0.6182 -0.0412  1.6828
 1366SOL    HW2 4419   5.105   2.324   1.425 -0.9378 -0.3889 -0.4387
 1367SOL     OW 4420   0.518   3.598   5.060 -0.2528  0.1919 -0.0475
 1367SOL    HW1 4421   0.504   3.571   4.964 -2.3684 -0.4944  0.4017
 1367SOL    HW2 4422   0.437   3.574   5.113  1.1773 -0.1310  2.1019
 1368SOL     OW 4423   1.237   3.310   0.089  0.6170  0.5278  0.2653
 1368SOL    HW1 4424   1.217   3.349   0.179  0.8648  0.7401  0.2291
 1368SOL    HW2 4425   1.320   3.353   0.052  2.1463 -1.4705  1.1332
 1369SOL     OW 4426   0.583   5.067   0.307 -0.2214  0.6255 -0.7545
 1369SOL    HW1 4427   0.574   5.004   0.230 -0.0687 -0.5297  0.1501
 1369SOL    HW2 4428   0.577   5.016   0.393 -1.2308  1.9864  0.0330
 1370SOL     OW 4429   0.950   5.053   0.253  0.5183  0.0984 -0.2814
 1370SOL    HW1 4430   0.906   5.129   0.302  2.5579  0.2429  1.4749
 1370SOL    HW2 4431   0.960   5.076   0.157  0.9952  2.0532  0.1924
 1371SOL     OW 4432   3.466   0.472   3.345 -0.1479 -0.8313  0.0387
 1371SOL    HW1 4433   3.393   0.446   3.409 -0.6067 -0.3347 -0.2800
 1371SOL    HW2 4434   3.450   0.565   3.312  1.0042 -0.4609  0.4915
 1372SOL     OW 4435   0.893   0.150   5.162 -0.0178  0.3070 -0.3633
 1372SOL    HW1 4436   0.914   0.065   5.114  0.9101  0.7885 -0.8425
 1372SOL    HW2 4437   0.905   0.227   5.099  0.5673  0.9041  0.4651
 1373SOL     OW 4438   3.465   2.786   2.885  0.6420 -0.5737  0.2973
 1373SOL    HW1 4439   3.425   2.878   2.890  0.1897 -0.8328  2.9137
 1373SOL    HW2 4440   3.403   2.726   2.834  0.8336  0.4661 -1.2459
 1374SOL     OW 4441   1.381   2.566   5.040 -0.1113 -0.5671 -0.1064
 1374SOL    HW1 4442   1.303   2.532   4.988 -1.0133 -0.8876  1.3981
 1374SOL    HW2 4443   1.407   2.497   5.108  1.8842 -0.7232 -0.9689
 1375SOL     OW 4444   5.506   4.374   0.271  0.0339  0.5058  0.1006
 1375SOL    HW1 4445   5.574   4.317   0.317  1.8599  1.7264 -0.9545
 1375SOL    HW2 4446   5.414   4.339   0.291  0.9492 -1.3582  1.3608
 1376SOL     OW 4447   3.254   3.658   1.073  0.1606  0.3893 -0.1508
 1376SOL    HW1 4448   3.224   3.714   0.995  2.1609 -1.8418 -2.7374
 1376SOL    HW2 4449   3.332   3.703   1.117  0.5163  0.6013 -0.9719
 1377SOL     OW 4450   5.345   5.109   0.528  0.2560  0.0956  0.0051
 1377SOL    HW1 4451   5.400   5.035   0.489  0.4247  1.4685 -2.6321
 1377SOL    HW2 4452   5.270   5.070   0.582  1.4978 -1.8989  0.3937
 1378SOL     OW 4453   1.509   3.996   2.026 -0.0140 -1.1095 -0.0133
 1378SOL    HW1 4454   1.537   4.087   1.994  0.4727 -1.4822 -0.6569
 1378SOL    HW2 4455   1.446   3.955   1.961 -0.5919 -1.0513  0.5048
 1379SOL     OW 4456   2.303   5.026   0.465  0.0854 -0.6832  0.4207
 1379SOL    HW1 4457   2.386   4.983   0.501  0.5870 -0.1440 -0.0747
 1379SOL    HW2 4458   2.318   5.124   0.457 -0.3165 -0.6910 -0.4749
 1380SOL     OW 4459   5.444   3.258   1.728  0.1804  0.2606  0.0910
 1380SOL    HW1 4460   5.453   3.187   1.798  1.9408  0.8608  0.5257
 1380SOL    HW2 4461   5.401   3.219   1.646  0.6873 -1.1952  0.4856
 1381SOL     OW 4462   0.682   5.396   1.251  0.4156 -0.4219 -0.0970
 1381SOL    HW1 4463   0.665   5.372   1.155  3.1540 -0.2205 -0.7196
 1381SOL    HW2 4464   0.778   5.380   1.272  0.2031  0.9733  2.2158
 1382SOL     OW 4465   1.046   4.708   0.553  0.3496  0.1086  0.1584
 1382SOL    HW1 4466   0.967   4.769   0.549 -0.3031 -0.7393 -0.1886
 1382SOL    HW2 4467   1.027   4.626   0.499  2.2027  0.7227 -1.5397
 1383SOL     OW 4468   0.465   0.041   0.997 -0.7360 -0.4322 -0.2293
 1383SOL    HW1 4469   0.384  -0.009   0.967 -0.4855 -1.2522  0.4268
 1383SOL    HW2 4470   0.532   0.045   0.922 -0.5766 -1.4801 -0.1542
 1384SOL     OW 4471   1.151   4.885   0.258 -0.0134  0.0001  0.0425
 1384SOL    HW1 4472   1.070   4.943   0.266  0.9002  1.3685 -0.2625
 1384SOL    HW2 4473   1.230   4.933   0.296  0.9581 -0.6266 -1.1086
 1385SOL     OW 4474   1.820   3.532   0.679  0.7072  0.2106  0.1691
 1385SOL    HW1 4475   1.777   3.469   0.615  1.5135 -2.3709  1.9972
 1385SOL    HW2 4476   1.919   3.519   0.677  0.7261 -0.4998  2.3412
 1386SOL     OW 4477   2.740   0.947   2.131 -0.4677 -0.0834 -0.3497
 1386SOL    HW1 4478   2.730   0.933   2.229 -1.0904 -1.4338 -0.5932
 1386SOL    HW2 4479   2.832   0.918   2.103 -0.8864 -1.3575 -0.4389
 1387SOL     OW 4480   1.003   4.951   1.501 -0.0716 -0.1064 -0.0556
 1387SOL    HW1 4481   1.095   4.973   1.535 -0.0253 -1.5490  0.7982
 1387SOL    HW2 4482   0.938   5.018   1.536  0.2133 -0.7018  1.6815
 1388SOL     OW 4483   1.665   4.987   0.473  0.3854  0.1511  0.0368
 1388SOL    HW1 4484   1.569   4.966   0.492 -0.0610  0.2681 -1.8539
 1388SOL    HW2 4485   1.702   5.043   0.546 -1.4387  1.3706  0.0918
 1389SOL     OW 4486   0.817   3.147   1.424 -0.0984 -0.1088  0.0551
 1389SOL    HW1 4487   0.822   3.078   1.495 -1.2493  1.0345  1.3016
 1389SOL    HW2 4488   0.723   3.183   1.419  0.4726  1.3688 -0.5308
 1390SOL     OW 4489   1.453   4.849   1.711  0.2302  0.0900 -0.4619
 1390SOL    HW1 4490   1.475   4.835   1.615  2.5403 -1.3296  0.1956
 1390SOL    HW2 4491   1.497   4.933   1.744 -0.6819  0.6556 -0.6495
 1391SOL     OW 4492   5.191   1.121   1.666  0.4854 -0.0326 -0.4194
 1391SOL    HW1 4493   5.271   1.071   1.700 -0.2497 -1.1220 -0.2566
 1391SOL    HW2 4494   5.132   1.146   1.743  0.1917 -0.0796 -0.6280
 1392SOL     OW 4495   0.908   3.759   0.725  0.6628  0.8253 -0.1493
 1392SOL    HW1 4496   0.970   3.838   0.728  2.4498 -0.5294  0.3077
 1392SOL    HW2 4497   0.874   3.740   0.817  0.5668  0.8232 -0.1856
 1393SOL     OW 4498   1.148   4.368   1.038 -0.2288 -0.4533  0.0616
 1393SOL    HW1 4499   1.158   4.441   0.971  2.4298  0.1616  1.0238
 1393SOL    HW2 4500   1.119   4.284   0.992  0.3716  0.2443 -1.6715
 1394SOL     OW 4501   5.010   4.401   1.326  0.1842 -0.0033 -0.2778
 1394SOL    HW1 4502   5.052   4.329   1.270 -0.6317 -0.5597 -0.1942
 1394SOL    HW2 4503   5.029   4.490   1.285 -0.1105 -0.3757 -1.2608
 1395SOL     OW 4504   4.851   5.183   0.118 -0.3371  0.4422 -0.2913
 1395SOL    HW1 4505   4.892   5.260   0.167  0.1504  0.1818 -0.2867
 1395SOL    HW2 4506   4.758   5.208   0.090 -0.7064  0.5308  0.9225
 1396SOL     OW 4507   4.973   3.624   0.658  0.1679  0.0983  0.1948
 1396SOL    HW1 4508   4.995   3.715   0.622 -0.3857  0.2181  0.1582
 1396SOL    HW2 4509   4.891   3.629   0.714  0.2773 -0.3363  0.3965
 1397SOL     OW 4510   2.241   0.731   4.871  0.3612 -0.5669 -0.1606
 1397SOL    HW1 4511   2.285   0.667   4.934 -1.5854 -0.4264  1.4448
 1397SOL    HW2 4512   2.290   0.818   4.872 -0.5817  0.0447  2.6333
 1398SOL     OW 4513   4.839   1.803   1.101  0.0313 -0.8126 -0.4625
 1398SOL    HW1 4514   4.740   1.792   1.093 -0.1269 -0.8779  1.2661
 1398SOL    HW2 4515   4.878   1.818   1.010 -1.7956  1.3024 -0.9823
 1399SOL     OW 4516   5.288   4.765   4.068  0.0886 -0.2380 -0.0506
 1399SOL    HW1 4517   5.376   4.718   4.078  0.1880  0.0820  0.6120
 1399SOL    HW2 4518   5.214   4.697   4.062  0.4198 -0.5306 -1.2376
 1400SOL     OW 4519   5.361   5.378   2.114  0.3790  0.2868  0.3251
 1400SOL    HW1 4520   5.329   5.336   2.029 -0.3779  0.0850  0.6970
 1400SOL    HW2 4521   5.413   5.311   2.167  0.0947  0.1446  0.4249
 1401SOL     OW 4522   4.939   4.906   3.162  0.4105  0.4691  0.2317
 1401SOL    HW1 4523   4.870   4.952   3.218  2.1349  0.7573  2.2128
 1401SOL    HW2 4524   4.912   4.811   3.148 -1.3304  1.0438 -0.7552
 1402SOL     OW 4525   0.267   5.387   1.769 -0.0572 -0.0540 -1.2261
 1402SOL    HW1 4526   0.249   5.485   1.766  1.9335  0.3493 -1.2413
 1402SOL    HW2 4527   0.251   5.353   1.861 -0.5461  0.3174 -1.1692
 1403SOL     OW 4528   0.584   4.146   2.842 -0.3049 -0.0601 -0.9289
 1403SOL    HW1 4529   0.565   4.155   2.744 -1.3216  1.5134 -0.6174
 1403SOL    HW2 4530   0.546   4.224   2.891  0.3577 -0.7210  0.7183
 1404SOL     OW 4531   0.428   2.438   1.977 -0.1173 -0.5984  0.4705
 1404SOL    HW1 4532   0.404   2.478   2.065  1.2724  2.4360 -0.3939
 1404SOL    HW2 4533   0.518   2.394   1.983  0.0921 -0.1665  0.5274
 1405SOL     OW 4534   1.085   3.967   0.666  0.5134  0.6266 -0.1729
 1405SOL    HW1 4535   1.068   3.911   0.586  0.5981 -0.0417  0.2685
 1405SOL    HW2 4536   1.082   4.064   0.641  1.1864  0.4152 -1.1063
 1406SOL     OW 4537   0.446   3.220   1.318 -0.0888  0.0371 -0.4204
 1406SOL    HW1 4538   0.491   3.234   1.406  1.0952 -0.2519 -0.9614
 1406SOL    HW2 4539   0.459   3.301   1.261 -1.4714  0.5165 -0.0896
 1407SOL     OW 4540   1.135   4.642   0.182 -0.0755  0.4088 -0.2593
 1407SOL    HW1 4541   1.104   4.579   0.253  1.2416 -0.3553 -0.3458
 1407SOL    HW2 4542   1.122   4.736   0.213 -0.3858  0.0903  0.6035
 1408SOL     OW 4543   0.187   3.222   1.368  0.0984 -0.2176 -0.0078
 1408SOL    HW1 4544   0.276   3.190   1.333  0.5857  0.7041  0.3606
 1408SOL    HW2 4545   0.199   3.311   1.411 -1.4039  0.9025 -1.8044
 1409SOL     OW 4546   4.336   5.545   1.747 -0.1104  0.2230  0.1812
 1409SOL    HW1 4547   4.395   5.482   1.697  0.3401  1.4616 -0.9004
 1409SOL    HW2 4548   4.262   5.494   1.790  0.4662 -1.0860 -0.3267
 1410SOL     OW 4549   0.706   0.207   0.296 -0.1941 -0.0765 -0.3129
 1410SOL    HW1 4550   0.678   0.143   0.368 -0.3270  0.6748  0.3138
 1410SOL    HW2 4551   0.654   0.189   0.213 -0.2868 -0.7300 -0.1182
 1411SOL     OW 4552   0.280   4.820   1.208  0.1938 -0.8313 -0.1950
 1411SOL    HW1 4553   0.207   4.886   1.229 -0.4551 -1.6099  0.0474
 1411SOL    HW2 4554   0.240   4.737   1.169  1.0001 -1.0920 -0.4812
 1412SOL     OW 4555   1.710   3.618   4.924 -0.0394 -0.8466 -0.5779
 1412SOL    HW1 4556   1.670   3.528   4.907  0.1760 -1.2941  1.1400
 1412SOL    HW2 4557   1.800   3.624   4.882 -0.1268 -1.3608 -0.8405
 1413SOL     OW 4558   5.291   4.035   1.855  0.4654  0.2832 -0.1833
 1413SOL    HW1 4559   5.333   3.947   1.834 -1.9350 -0.5932 -1.7379
 1413SOL    HW2 4560   5.336   4.106   1.801  0.4017 -0.5263 -1.3516
 1414SOL     OW 4561   1.352   0.134   1.623  0.2053  0.5766 -0.2558
 1414SOL    HW1 4562   1.293   0.198   1.672  0.3099  1.0456 -0.7291
 1414SOL    HW2 4563   1.362   0.050   1.676 -0.3846  0.7371  0.1141
 1415SOL     OW 4564   2.414   4.869   2.443  0.0307 -0.0327 -0.0895
 1415SOL    HW1 4565   2.489   4.813   2.409  1.4984  1.8133 -0.0346
 1415SOL    HW2 4566   2.421   4.877   2.543 -1.3786 -1.3797  0.1552
 1416SOL     OW 4567   0.515   4.530   2.599 -0.0505  0.1357  0.0999
 1416SOL    HW1 4568   0.601   4.578   2.614  0.8353 -1.3366 -0.0929
 1416SOL    HW2 4569   0.442   4.577   2.648 -0.1115  4.0166 -3.1104
 1417SOL     OW 4570   5.213   4.697   0.583 -0.8189 -0.0964  0.1681
 1417SOL    HW1 4571   5.295   4.655   0.543 -0.5156  0.6861 -0.0432
 1417SOL    HW2 4572   5.133   4.673   0.529 -0.8179 -1.2526  0.6362
 1418SOL     OW 4573   0.618   5.433   0.119  0.4231  1.2505 -0.1174
 1418SOL    HW1 4574   0.556   5.406   0.192  0.7001 -0.2014 -0.3793
 1418SOL    HW2 4575   0.712   5.429   0.153  0.7081 -1.1591 -0.9465
 1419SOL     OW 4576   5.058   4.414   0.940 -0.9354 -0.0611  0.0124
 1419SOL    HW1 4577   4.985   4.478   0.964 -2.3615 -1.6626  0.1461
 1419SOL    HW2 4578   5.141   4.465   0.917 -1.5241  1.7513  1.6800
 1420SOL     OW 4579   4.848   2.000   1.541 -0.2587  0.4566  0.0440
 1420SOL    HW1 4580   4.752   2.009   1.516 -0.3447  0.3157  0.3217
 1420SOL    HW2 4581   4.905   2.024   1.462 -0.5330 -1.1525 -0.6965
 1421SOL     OW 4582   4.564   2.925   1.201  0.8262 -0.5607  0.3425
 1421SOL    HW1 4583   4.473   2.965   1.194  1.3254  0.3044 -2.9923
 1421SOL    HW2 4584   4.614   2.970   1.275 -0.9148  0.0323  1.2219
 1422SOL     OW 4585   0.178   4.736   3.037 -0.2072  0.7674 -0.0085
 1422SOL    HW1 4586   0.085   4.708   3.011 -0.7837  0.3969  2.2483
 1422SOL    HW2 4587   0.194   4.830   3.008 -1.2450  0.7997 -0.5235
 1423SOL     OW 4588   0.734   3.968   2.002 -0.5175  0.3640 -0.3301
 1423SOL    HW1 4589   0.739   3.923   2.091 -0.5189 -0.1187 -0.5707
 1423SOL    HW2 4590   0.683   4.054   2.011  1.2396  1.3615  0.5460
 1424SOL     OW 4591   0.833   4.896   0.477  0.1789 -0.3455 -0.2971
 1424SOL    HW1 4592   0.834   4.959   0.555 -0.9236  0.0560 -0.5838
 1424SOL    HW2 4593   0.884   4.937   0.401  0.3247 -0.2515 -0.1519
 1425SOL     OW 4594   0.102   1.126   1.220 -0.9551  0.6841  0.3347
 1425SOL    HW1 4595   0.040   1.048   1.217  0.2795 -0.3180 -0.6932
 1425SOL    HW2 4596   0.188   1.098   1.264  0.0482  0.9941 -1.3188
 1426SOL     OW 4597   5.489   5.313   0.378 -0.2347  0.3847 -0.0839
 1426SOL    HW1 4598   5.442   5.234   0.419  0.4841  0.4043  0.8229
 1426SOL    HW2 4599   5.428   5.392   0.380 -0.1051  0.4765  1.3173
 1427SOL     OW 4600   1.957   4.152   0.850  0.0217  0.0991  0.3672
 1427SOL    HW1 4601   1.962   4.232   0.790  0.6334 -0.7723 -0.7900
 1427SOL    HW2 4602   1.953   4.181   0.945  0.9657  1.4906  0.0044
 1428SOL     OW 4603   5.152   3.901   4.037 -0.1474  0.2552 -0.1526
 1428SOL    HW1 4604   5.066   3.915   3.988 -0.3935 -0.8509 -0.0462
 1428SOL    HW2 4605   5.221   3.965   4.002 -0.9109  0.9153 -0.4715
 1429SOL     OW 4606   3.547   5.386   1.506  0.1567 -0.5640 -0.1159
 1429SOL    HW1 4607   3.549   5.471   1.558 -2.7767 -0.3452 -0.1926
 1429SOL    HW2 4608   3.527   5.407   1.410  0.6816 -1.2561 -0.3803
 1430SOL     OW 4609   2.286   5.535   0.119 -0.2834  0.4332  0.1957
 1430SOL    HW1 4610   2.270   5.437   0.122  3.3565 -0.3738 -0.7775
 1430SOL    HW2 4611   2.298   5.570   0.212  2.8006 -1.1292  0.5396
 1431SOL     OW 4612   4.749   3.892   0.928  0.1114  0.2862 -0.1672
 1431SOL    HW1 4613   4.659   3.914   0.965 -0.1225  1.3347 -1.2843
 1431SOL    HW2 4614   4.798   3.976   0.906  0.9423 -0.2855 -0.5715
 1432SOL     OW 4615   2.477   4.662   1.447  0.2039 -0.0131 -0.0978
 1432SOL    HW1 4616   2.452   4.568   1.424 -0.3617  0.2465 -0.5690
 1432SOL    HW2 4617   2.395   4.718   1.453  0.6421  0.8102 -1.4661
 1433SOL     OW 4618   4.541   3.225   1.714 -0.1367  0.1225 -0.5802
 1433SOL    HW1 4619   4.589   3.294   1.660 -0.3628 -0.0983 -1.0713
 1433SOL    HW2 4620   4.467   3.185   1.659 -0.8403  0.4038  0.1402
 1434SOL     OW 4621   1.262   3.312   1.201 -0.2487  0.0054 -0.8214
 1434SOL    HW1 4622   1.234   3.337   1.108 -0.6331  1.6608 -0.3032
 1434SOL    HW2 4623   1.204   3.361   1.267  0.8826 -0.1110  0.2818
 1435SOL     OW 4624   4.750   1.285   1.946  0.4026  0.2451  0.1682
 1435SOL    HW1 4625   4.652   1.301   1.949  0.3787 -0.0362  1.8824
 1435SOL    HW2 4626   4.767   1.188   1.924  0.3900  0.6807 -2.0797
 1436SOL     OW 4627   0.118   4.941   4.537  0.1710  0.2805  0.0450
 1436SOL    HW1 4628   0.205   4.899   4.564 -0.0583  0.7984  1.6745
 1436SOL    HW2 4629   0.060   4.953   4.617  0.0511  3.3297 -0.4074
 1437SOL     OW 4630   1.318   1.482   1.756  0.3175  0.0496  0.6213
 1437SOL    HW1 4631   1.293   1.567   1.709 -1.8580 -0.9736 -0.2040
 1437SOL    HW2 4632   1.359   1.419   1.690 -1.7184 -0.9729  0.2555
 1438SOL     OW 4633   1.294   5.336   1.228 -0.1302  0.4973 -0.1433
 1438SOL    HW1 4634   1.377   5.335   1.284 -0.3461 -0.9852  0.1904
 1438SOL    HW2 4635   1.236   5.412   1.255  0.2640  0.4307  0.9305
 1439SOL     OW 4636   1.774   3.358   0.454 -0.6159 -0.3480  0.2826
 1439SOL    HW1 4637   1.871   3.340   0.437 -0.1343  1.4917  0.8633
 1439SOL    HW2 4638   1.734   3.280   0.500  0.0971 -1.9351 -1.6151
 1440SOL     OW 4639   2.034   4.898   0.952 -0.5334  0.0376 -0.3237
 1440SOL    HW1 4640   2.045   4.947   0.866  1.3327 -0.0613 -0.1773
 1440SOL    HW2 4641   2.076   4.808   0.946 -0.0946  0.1444  0.7735
 1441SOL     OW 4642   0.409   4.155   4.810  0.7506  0.3686  0.3693
 1441SOL    HW1 4643   0.421   4.228   4.742  0.8719 -0.5537 -0.6209
 1441SOL    HW2 4644   0.334   4.180   4.872 -0.0849  0.7620 -0.7621
 1442SOL     OW 4645   5.048   5.441   1.366 -0.5408 -0.5950  0.3518
 1442SOL    HW1 4646   5.056   5.399   1.276 -0.1689 -0.3605  0.2720
 1442SOL    HW2 4647   4.980   5.392   1.420 -2.4968  0.6329 -0.8501
 1443SOL     OW 4648   2.971   0.510   0.471  0.1585  0.8804 -0.0559
 1443SOL    HW1 4649   2.989   0.473   0.380 -1.2889  1.0712 -0.4464
 1443SOL    HW2 4650   3.013   0.601   0.479  1.1275  0.4525 -0.1688
 1444SOL     OW 4651   3.902   4.714   1.092 -0.5416 -0.1650  0.1403
 1444SOL    HW1 4652   3.902   4.674   1.000 -0.4096  3.1383 -1.4316
 1444SOL    HW2 4653   3.815   4.694   1.137 -1.2990 -0.4086 -1.3847
 1445SOL     OW 4654   5.348   4.360   1.157  0.1704 -0.4286 -0.3685
 1445SOL    HW1 4655   5.336   4.436   1.093  1.2657 -0.1745 -0.3000
 1445SOL    HW2 4656   5.446   4.344   1.171 -0.0478 -0.7476  0.9347
 1446SOL     OW 4657   1.589   4.162   0.168 -0.5894 -0.8415 -0.2043
 1446SOL    HW1 4658   1.675   4.123   0.202 -1.2169 -1.1996  0.9964
 1446SOL    HW2 4659   1.539   4.092   0.117 -1.7864 -1.7453  2.0774
 1447SOL     OW 4660   5.221   4.525   2.586  0.0267  0.1461 -0.2884
 1447SOL    HW1 4661   5.217   4.454   2.657 -0.2321  1.4787  1.0680
 1447SOL    HW2 4662   5.215   4.481   2.496 -0.2772 -1.5440  0.5007
 1448SOL     OW 4663   1.401   3.597   1.492  0.5878 -0.1677 -0.1135
 1448SOL    HW1 4664   1.441   3.683   1.523 -1.2409  0.6205  0.1833
 1448SOL    HW2 4665   1.467   3.523   1.504  1.8832  1.0448  0.4442
 1449SOL     OW 4666   0.058   5.004   2.647 -0.1693 -0.3262  0.3705
 1449SOL    HW1 4667  -0.038   5.007   2.674  0.1407  1.8439  1.3884
 1449SOL    HW2 4668   0.115   5.041   2.720  0.9572  3.3598 -2.1030
 1450SOL     OW 4669   4.593   0.471   4.264  0.3772  0.1132  0.3955
 1450SOL    HW1 4670   4.589   0.373   4.280  0.7433 -0.5182 -2.6312
 1450SOL    HW2 4671   4.686   0.504   4.281  0.5243 -0.3026  0.3937
 1451SOL     OW 4672   1.663   4.099   1.614  0.1919  0.3732  0.0177
 1451SOL    HW1 4673   1.660   4.084   1.515  0.3080 -3.1744  0.4207
 1451SOL    HW2 4674   1.752   4.137   1.639 -0.6637  3.6865 -1.3462
 1452SOL     OW 4675   1.658   4.387   5.157  0.0997 -0.2368  0.0508
 1452SOL    HW1 4676   1.609   4.349   5.235  1.5336  2.3259  2.3679
 1452SOL    HW2 4677   1.618   4.475   5.132  2.3302  1.1525  0.9715
 1453SOL     OW 4678   5.486   4.893   0.455  0.3927  0.0782 -0.0739
 1453SOL    HW1 4679   5.452   4.805   0.488 -0.5269  0.2837 -0.4336
 1453SOL    HW2 4680   5.484   4.893   0.355 -0.5895  0.8618 -0.0665
 1454SOL     OW 4681   0.934   4.450   0.348  0.1825  0.3055  0.3965
 1454SOL    HW1 4682   0.880   4.392   0.287  0.9607  2.2131 -2.2463
 1454SOL    HW2 4683   0.881   4.532   0.372  1.4960  1.8196 -1.5999
 1455SOL     OW 4684   3.661   5.087   1.905  0.0594 -0.0759 -0.0650
 1455SOL    HW1 4685   3.683   5.012   1.969 -2.6980  0.3361  1.5031
 1455SOL    HW2 4686   3.717   5.167   1.928 -1.0191  0.1307  2.0534
 1456SOL     OW 4687   1.985   3.740   0.810  0.2257  0.6034  0.2443
 1456SOL    HW1 4688   2.033   3.723   0.724 -0.8321 -0.1232 -0.2210
 1456SOL    HW2 4689   2.006   3.833   0.841  0.7798  0.8074 -0.6831
 1457SOL     OW 4690   1.244   5.430   0.529 -0.3410 -0.2801 -0.0606
 1457SOL    HW1 4691   1.303   5.507   0.505 -0.8372 -0.0870 -0.7112
 1457SOL    HW2 4692   1.293   5.368   0.589  0.0778  0.5303  0.4526
 1458SOL     OW 4693   1.214   4.366   0.344 -0.4244 -0.2618 -0.3629
 1458SOL    HW1 4694   1.126   4.359   0.392 -0.7064 -1.9599 -1.0502
 1458SOL    HW2 4695   1.213   4.306   0.264  1.4219 -0.4459 -0.2855
 1459SOL     OW 4696   2.139   0.338   0.137  0.1967 -0.1222  0.2716
 1459SOL    HW1 4697   2.122   0.414   0.074 -3.1280 -0.1165  0.9709
 1459SOL    HW2 4698   2.123   0.252   0.090  0.1153 -0.2222  0.4815
 1460SOL     OW 4699   0.767   5.298   0.609 -0.1668  0.6420 -0.2311
 1460SOL    HW1 4700   0.812   5.210   0.627  0.0303  1.0336  1.3770
 1460SOL    HW2 4701   0.676   5.298   0.649 -1.5052  0.0447 -3.0426
 1461SOL     OW 4702   1.297   4.915   4.788  0.0736  0.0458 -0.3959
 1461SOL    HW1 4703   1.227   4.923   4.858 -0.2655  0.4059 -0.7717
 1461SOL    HW2 4704   1.380   4.875   4.828  0.2098  1.1059  0.4309
 1462SOL     OW 4705   0.853   0.828   0.615 -0.2467 -0.0340 -0.0600
 1462SOL    HW1 4706   0.918   0.816   0.689  2.1925  0.2898 -2.0210
 1462SOL    HW2 4707   0.885   0.901   0.554 -1.0186 -1.6671 -2.5445
 1463SOL     OW 4708   0.093   0.230   5.502 -0.3402 -0.1497 -0.6577
 1463SOL    HW1 4709   0.026   0.192   5.439 -1.9273 -0.6905  1.2743
 1463SOL    HW2 4710   0.158   0.159   5.530  1.2260  0.4035 -2.6263
 1464SOL     OW 4711   4.662   4.867   1.720  0.0224 -0.0459  0.6034
 1464SOL    HW1 4712   4.761   4.853   1.709  0.0319 -1.5375  2.1775
 1464SOL    HW2 4713   4.615   4.779   1.708 -1.2516  0.8158 -1.0890
 1465SOL     OW 4714   0.055   4.705   1.578 -0.6347  0.4082 -0.4109
 1465SOL    HW1 4715   0.024   4.642   1.650  2.2152  0.3747  0.9620
 1465SOL    HW2 4716   0.119   4.657   1.517  1.4230  1.7795  0.5317
 1466SOL     OW 4717   0.289   4.912   5.292  0.2533 -0.2866  0.0980
 1466SOL    HW1 4718   0.360   4.908   5.223  0.4485 -0.5561  0.3139
 1466SOL    HW2 4719   0.321   4.967   5.369 -0.2401  0.6393 -0.3395
 1467SOL     OW 4720   2.129   4.672   1.610 -0.0379  0.5048 -0.8529
 1467SOL    HW1 4721   2.118   4.575   1.593 -0.9058  0.3986  0.2276
 1467SOL    HW2 4722   2.143   4.688   1.708 -0.2306  1.4880 -0.9705
 1468SOL     OW 4723   4.352   0.148   5.461 -0.0881  0.0787 -0.1218
 1468SOL    HW1 4724   4.443   0.141   5.420  0.3217  0.7272  0.6559
 1468SOL    HW2 4725   4.329   0.062   5.507  1.3140  0.7953  2.0516
 1469SOL     OW 4726   1.697   3.591   5.409  0.5400  0.3340  0.0390
 1469SOL    HW1 4727   1.675   3.685   5.437 -0.4788  0.4388 -0.9970
 1469SOL    HW2 4728   1.740   3.593   5.319  2.3004 -0.0881  0.8462
 1470SOL     OW 4729   0.597   3.308   1.533  0.1208  0.4672  0.1947
 1470SOL    HW1 4730   0.550   3.390   1.566  0.3977 -0.3582  2.9674
 1470SOL    HW2 4731   0.663   3.278   1.602  2.1644 -0.4589 -2.0182
 1471SOL     OW 4732   0.582   1.050   2.650 -0.2295 -0.1435 -0.3708
 1471SOL    HW1 4733   0.627   1.079   2.566  0.3388 -1.3421 -0.5088
 1471SOL    HW2 4734   0.645   0.994   2.704 -0.8059  0.0592  0.5345
 1472SOL     OW 4735   1.966   3.923   1.420 -0.1592  0.2111 -0.2460
 1472SOL    HW1 4736   1.951   3.825   1.432 -1.7966  0.5746  1.0476
 1472SOL    HW2 4737   2.024   3.958   1.494  1.6175  0.0206 -1.4816
 1473SOL     OW 4738   5.120   0.486   1.118  0.5808  0.0902  0.4215
 1473SOL    HW1 4739   5.082   0.485   1.211  2.3579  1.2470  1.2168
 1473SOL    HW2 4740   5.096   0.572   1.073 -0.2202 -0.4414 -0.1929
 1474SOL     OW 4741   0.880   5.097   5.526 -0.2639  0.9371  0.1160
 1474SOL    HW1 4742   0.889   5.021   5.461 -1.7207  0.7113  0.1378
 1474SOL    HW2 4743   0.827   5.171   5.484 -0.2277  1.2722  0.6512
 1475SOL     OW 4744   1.695   0.372   3.142  0.2135  0.1625  0.3948
 1475SOL    HW1 4745   1.675   0.290   3.088 -0.8482  0.9677 -0.4957
 1475SOL    HW2 4746   1.764   0.351   3.210  1.1648 -1.0608 -0.8853
 1476SOL     OW 4747   1.557   4.269   5.381 -0.7467  0.2087  0.0269
 1476SOL    HW1 4748   1.600   4.313   5.460  0.4235  3.4398 -2.2012
 1476SOL    HW2 4749   1.610   4.188   5.354 -0.2609 -0.0106  1.5516
 1477SOL     OW 4750   2.421   4.931   0.210  0.1633  0.0319  0.1200
 1477SOL    HW1 4751   2.375   4.965   0.292 -0.8388  0.9437 -0.7883
 1477SOL    HW2 4752   2.359   4.872   0.160  0.8369 -0.6659  0.0984
 1478SOL     OW 4753   2.354   4.877   1.163 -0.3468 -0.0343 -0.2317
 1478SOL    HW1 4754   2.425   4.859   1.231 -1.1764 -0.2893  0.6021
 1478SOL    HW2 4755   2.269   4.900   1.210 -1.3160 -1.5812 -1.1187
 1479SOL     OW 4756   2.004   2.876   1.700  0.3888 -0.3443 -0.1246
 1479SOL    HW1 4757   2.066   2.953   1.712 -0.6243  0.2216  2.0344
 1479SOL    HW2 4758   1.992   2.829   1.787 -1.6567 -0.8460 -0.6224
 1480SOL     OW 4759   0.479   0.480   1.531 -0.0050 -0.0617 -0.6182
 1480SOL    HW1 4760   0.495   0.397   1.584  2.3028  0.8666  0.2931
 1480SOL    HW2 4761   0.507   0.465   1.436 -0.8805 -0.6965 -0.7889
 1481SOL     OW 4762   0.518   1.125   3.836  0.1668 -0.1911 -0.0502
 1481SOL    HW1 4763   0.568   1.058   3.891  1.5508  1.9592  1.4465
 1481SOL    HW2 4764   0.581   1.166   3.769 -0.7268 -0.5154 -1.1155
 1482SOL     OW 4765   2.618   4.599   0.895  0.2795 -0.3538 -0.4198
 1482SOL    HW1 4766   2.648   4.518   0.845  1.7205 -0.3365  0.3293
 1482SOL    HW2 4767   2.678   4.675   0.872 -1.2223  0.6009 -1.3126
 1483SOL     OW 4768   1.475   4.318   0.381  0.0724 -0.1419  0.2719
 1483SOL    HW1 4769   1.517   4.275   0.301  1.4976  0.3383  0.7310
 1483SOL    HW2 4770   1.377   4.329   0.366  0.3812  0.3134 -1.5672
 1484SOL     OW 4771   1.708   4.999   0.775 -0.4892 -0.7935 -0.6399
 1484SOL    HW1 4772   1.701   5.085   0.826 -0.1729 -0.9479 -0.3308
 1484SOL    HW2 4773   1.665   4.926   0.828  2.0208 -1.4704  0.6164
 1485SOL     OW 4774   4.914   4.614   0.543  0.3547 -0.3132 -1.1192
 1485SOL    HW1 4775   4.894   4.528   0.589  0.6962  0.1386 -0.0754
 1485SOL    HW2 4776   4.881   4.611   0.449 -2.0834 -0.6282 -0.3296
 1486SOL     OW 4777   0.222   4.427   3.884  0.3065  0.0961  0.3266
 1486SOL    HW1 4778   0.278   4.418   3.801 -0.2296 -1.5025  0.1138
 1486SOL    HW2 4779   0.132   4.388   3.868  0.5283 -1.2186  1.9799
 1487SOL     OW 4780   3.218   0.289   3.219 -0.2544  0.1928 -0.9346
 1487SOL    HW1 4781   3.289   0.224   3.247 -0.1734 -0.5310 -2.7212
 1487SOL    HW2 4782   3.260   0.379   3.206 -0.2114  0.4382  0.7306
 1488SOL     OW 4783   0.065   4.258   4.368 -0.2028 -0.0666  0.9254
 1488SOL    HW1 4784   0.050   4.309   4.453 -1.4196 -0.3180  0.8868
 1488SOL    HW2 4785  -0.022   4.249   4.319  0.4999  0.1521 -0.3958
 1489SOL     OW 4786   1.208   4.588   1.225 -0.4791 -0.6777 -0.4856
 1489SOL    HW1 4787   1.159   4.622   1.305  0.4763 -1.2512  0.3701
 1489SOL    HW2 4788   1.165   4.504   1.193  0.4910 -1.7515  0.8938
 1490SOL     OW 4789   1.942   5.479   2.227 -0.1241  0.1517 -0.4595
 1490SOL    HW1 4790   2.003   5.546   2.184  0.2798  0.5296  0.6638
 1490SOL    HW2 4791   1.955   5.482   2.326 -2.0738  0.3395 -0.1746
 1491SOL     OW 4792   0.557   4.941   1.615 -0.2973 -0.1084 -0.7532
 1491SOL    HW1 4793   0.533   4.848   1.587 -2.2462 -0.0853  0.5991
 1491SOL    HW2 4794   0.631   4.938   1.681 -0.0312 -0.6635 -1.0725
 1492SOL     OW 4795   0.675   0.986   0.287  0.1409  0.0096  0.0102
 1492SOL    HW1 4796   0.673   1.047   0.207  1.0041  1.8891  1.3506
 1492SOL    HW2 4797   0.582   0.966   0.316 -0.1741 -0.3371 -1.1820
 1493SOL     OW 4798   5.371   2.701   1.833  0.2942  0.3849 -0.1465
 1493SOL    HW1 4799   5.349   2.796   1.856 -0.9890 -0.0172  0.3968
 1493SOL    HW2 4800   5.368   2.645   1.916  1.6850 -0.0343 -0.3538
 1494SOL     OW 4801   1.672   4.039   4.433 -0.1582 -0.1160  0.3701
 1494SOL    HW1 4802   1.723   3.953   4.435 -1.0236 -0.7966 -2.1664
 1494SOL    HW2 4803   1.632   4.051   4.342 -0.5030  2.7443  0.8147
 1495SOL     OW 4804   5.460   1.681   0.429 -0.0729  0.2214 -0.0325
 1495SOL    HW1 4805   5.458   1.755   0.361  0.3616  0.2445 -0.0252
 1495SOL    HW2 4806   5.367   1.653   0.451 -0.2139  0.0849 -0.7781
 1496SOL     OW 4807   4.543   0.469   0.920 -0.5074 -0.3512 -0.1161
 1496SOL    HW1 4808   4.472   0.527   0.962 -1.0255 -0.5128 -0.7583
 1496SOL    HW2 4809   4.525   0.373   0.943  0.9791 -0.2241  1.8935
 1497SOL     OW 4810   1.052   3.532   3.734  0.0934  0.6564  0.1151
 1497SOL    HW1 4811   1.066   3.584   3.818  1.2408 -0.9788  0.9835
 1497SOL    HW2 4812   0.970   3.475   3.743 -0.0318  0.8069 -0.0566
 1498SOL     OW 4813   2.382   3.484   1.491 -0.0728  0.2877 -0.4141
 1498SOL    HW1 4814   2.335   3.401   1.521 -0.3864  0.1283 -1.3052
 1498SOL    HW2 4815   2.411   3.472   1.396  2.4094  0.1060  0.3131
 1499SOL     OW 4816   1.606   4.381   1.035 -0.2381 -0.1196 -0.0272
 1499SOL    HW1 4817   1.644   4.351   0.947 -0.0046  0.6547 -0.1925
 1499SOL    HW2 4818   1.598   4.481   1.036  1.0210 -0.0059  1.3449
 1500SOL     OW 4819   5.103   3.682   5.082 -0.4029  0.0771  0.3504
 1500SOL    HW1 4820   5.037   3.757   5.093 -1.5205 -0.7295 -0.6577
 1500SOL    HW2 4821   5.061   3.608   5.030  1.1340 -0.6940  0.1611
 1501SOL     OW 4822   2.461   2.005   0.381 -0.3089  0.5447  0.0478
 1501SOL    HW1 4823   2.428   2.017   0.474 -2.5848 -1.2501 -0.4396
 1501SOL    HW2 4824   2.384   1.999   0.318  1.0854 -0.3309 -1.6864
 1502SOL     OW 4825   3.337   5.264   3.319  0.1595  0.2417  0.0034
 1502SOL    HW1 4826   3.433   5.240   3.313  0.4264 -0.1813  3.5718
 1502SOL    HW2 4827   3.324   5.358   3.288  1.5978  0.1431 -0.9921
 1503SOL     OW 4828   1.081   0.195   3.161 -0.5387 -0.5284 -0.8425
 1503SOL    HW1 4829   1.091   0.096   3.175 -0.6049 -0.3471  0.6332
 1503SOL    HW2 4830   1.062   0.239   3.248  0.7864  0.9556 -1.2623
 1504SOL     OW 4831   0.371   3.540   2.289 -0.4974  0.3144  0.1671
 1504SOL    HW1 4832   0.446   3.547   2.355  0.9830 -1.0630 -1.2687
 1504SOL    HW2 4833   0.356   3.629   2.246 -0.7126  0.9468  1.5184
 1505SOL     OW 4834   5.156   4.512   4.382 -0.1318 -0.0937 -0.6568
 1505SOL    HW1 4835   5.075   4.508   4.440 -1.4922  2.5394 -2.1916
 1505SOL    HW2 4836   5.129   4.521   4.286  2.0011 -0.3322 -1.3480
 1506SOL     OW 4837   1.465   4.665   2.091 -0.2867 -0.4209 -0.0189
 1506SOL    HW1 4838   1.368   4.668   2.112 -0.3455 -1.4696 -0.0944
 1506SOL    HW2 4839   1.479   4.616   2.004 -0.0609  3.6771 -2.5657
 1507SOL     OW 4840   1.057   4.697   1.430 -0.1140 -0.8227 -0.5233
 1507SOL    HW1 4841   1.104   4.684   1.517  1.2670  0.4881 -1.0435
 1507SOL    HW2 4842   1.022   4.790   1.423 -2.2175 -1.5526 -0.4639
 1508SOL     OW 4843   0.197   4.471   1.902 -0.1274  0.1473 -0.0726
 1508SOL    HW1 4844   0.265   4.463   1.974 -1.2927  1.3296  1.2230
 1508SOL    HW2 4845   0.241   4.502   1.818  1.1130 -0.3436  0.3702
 1509SOL     OW 4846   0.091   2.470   2.024  0.2952 -0.0942 -0.7356
 1509SOL    HW1 4847   0.058   2.410   1.952  0.7067 -0.0066 -1.0002
 1509SOL    HW2 4848   0.190   2.483   2.014  0.6831 -1.4647  0.8436
 1510SOL     OW 4849   2.098   3.913   5.262 -0.1505 -0.3289  0.3407
 1510SOL    HW1 4850   2.035   3.883   5.190  0.7534 -1.4520 -0.0063
 1510SOL    HW2 4851   2.045   3.935   5.344 -1.2411  1.3962 -0.7582
 1511SOL     OW 4852   4.130   3.574   1.404 -0.1160  0.3002  0.1033
 1511SOL    HW1 4853   4.135   3.560   1.503  1.0239 -1.2448 -0.1376
 1511SOL    HW2 4854   4.042   3.543   1.370 -0.6065  1.0572  0.6464
 1512SOL     OW 4855   3.579   0.334   1.545 -0.4513 -0.0697 -0.2990
 1512SOL    HW1 4856   3.555   0.238   1.532 -1.3517  0.1634 -0.4301
 1512SOL    HW2 4857   3.524   0.372   1.619  0.1133  0.2724 -0.0502
 1513SOL     OW 4858   0.113   5.080   3.329 -0.3796  0.3362  0.3359
 1513SOL    HW1 4859   0.031   5.138   3.333 -0.5786 -0.0055  3.4742
 1513SOL    HW2 4860   0.184   5.119   3.388  0.6995 -0.8613 -0.1325
 1514SOL     OW 4861   1.098   4.563   4.751 -0.4589 -0.0979  1.0688
 1514SOL    HW1 4862   1.094   4.606   4.841 -1.8927 -0.7953  1.3649
 1514SOL    HW2 4863   1.124   4.467   4.761  3.7631  0.7432  0.3334
 1515SOL     OW 4864   4.773   3.748   3.233  0.1926  0.0444  0.1614
 1515SOL    HW1 4865   4.745   3.843   3.216  0.4339  0.3166  1.1943
 1515SOL    HW2 4866   4.741   3.719   3.323  2.6927  0.2002  1.1995
 1516SOL     OW 4867   1.942   4.046   1.935  1.5429  0.2844 -0.4811
 1516SOL    HW1 4868   2.016   3.988   1.901  1.9088  0.9256 -0.8045
 1516SOL    HW2 4869   1.913   4.013   2.025  1.3612 -0.7223 -0.8925
 1517SOL     OW 4870   0.867   5.297   3.230  0.2991 -0.4671 -0.1744
 1517SOL    HW1 4871   0.781   5.274   3.184  0.6888 -0.8448 -0.7322
 1517SOL    HW2 4872   0.943   5.251   3.183  0.9955  1.1440 -0.6988
 1518SOL     OW 4873   1.800   3.788   4.308 -0.6540  0.4204 -0.5819
 1518SOL    HW1 4874   1.719   3.768   4.252 -0.4407 -0.6212 -0.5288
 1518SOL    HW2 4875   1.841   3.874   4.277 -2.2805  1.4408 -0.0254
 1519SOL     OW 4876   3.259   4.952   0.816  0.4336  0.3453  0.2046
 1519SOL    HW1 4877   3.353   4.987   0.814  0.6287 -0.1748 -0.6629
 1519SOL    HW2 4878   3.196   5.024   0.789  0.6896  0.4231 -0.1930
 1520SOL     OW 4879   5.011   1.777   3.409 -0.1617 -0.1477 -0.1788
 1520SOL    HW1 4880   4.990   1.679   3.401 -0.9570  0.1728 -3.9551
 1520SOL    HW2 4881   5.092   1.798   3.354 -2.6219  1.8908 -3.3436
 1521SOL     OW 4882   0.752   4.320   4.261  0.3212  0.1168 -0.8041
 1521SOL    HW1 4883   0.761   4.319   4.360  1.1134 -1.5101 -0.8670
 1521SOL    HW2 4884   0.672   4.267   4.234 -0.2313  1.0397 -1.0298
 1522SOL     OW 4885   2.028   4.384   1.597 -0.1637 -0.0703 -0.2471
 1522SOL    HW1 4886   2.061   4.433   1.678  1.3925 -1.0410 -0.2533
 1522SOL    HW2 4887   1.981   4.301   1.625 -1.1295  0.4390 -0.3069
 1523SOL     OW 4888   2.376   3.149   3.486  0.5779  0.5184 -0.2121
 1523SOL    HW1 4889   2.425   3.188   3.408 -0.6320 -0.2476 -1.3953
 1523SOL    HW2 4890   2.358   3.052   3.470 -1.5721  0.8220  0.0016
 1524SOL     OW 4891   5.534   4.320   3.751 -0.1467 -0.4362 -0.0834
 1524SOL    HW1 4892   5.521   4.221   3.754  0.0974 -0.6647 -3.0088
 1524SOL    HW2 4893   5.458   4.363   3.702  0.8315  0.5135 -0.8369
 1525SOL     OW 4894   2.290   0.866   0.540  0.0804  0.5515  0.2201
 1525SOL    HW1 4895   2.219   0.937   0.539 -0.1272  0.3426 -0.3956
 1525SOL    HW2 4896   2.250   0.779   0.569  0.3324  0.6776  0.9610
 1526SOL     OW 4897   3.568   5.474   2.983 -0.0933  0.3235  0.2146
 1526SOL    HW1 4898   3.664   5.474   2.956 -0.7403  2.3499 -2.5590
 1526SOL    HW2 4899   3.513   5.430   2.912 -1.2217 -1.5597  2.1272
 1527SOL     OW 4900   0.536   2.283   3.443  0.4921  0.4339  0.0729
 1527SOL    HW1 4901   0.475   2.361   3.457  0.0100  0.2013 -0.6968
 1527SOL    HW2 4902   0.609   2.308   3.380  1.2097  0.7053  0.9772
 1528SOL     OW 4903   1.369   3.552   0.935  0.2945 -0.2742 -0.0768
 1528SOL    HW1 4904   1.446   3.608   0.906  1.4816 -1.6614  0.2879
 1528SOL    HW2 4905   1.352   3.565   1.032 -0.7995  1.0041 -0.4129
 1529SOL     OW 4906   5.169   5.049   3.144 -0.2375 -0.0405  0.6808
 1529SOL    HW1 4907   5.089   4.998   3.175 -1.6242  0.6933 -1.4619
 1529SOL    HW2 4908   5.147   5.147   3.143  0.6626  0.1675 -0.0084
 1530SOL     OW 4909   5.320   1.073   2.764  0.1709 -0.2611 -0.1604
 1530SOL    HW1 4910   5.392   1.084   2.695 -1.6294 -0.3979 -2.1298
 1530SOL    HW2 4911   5.300   1.162   2.805 -0.0756  0.1724 -1.2079
 1531SOL     OW 4912   1.962   3.670   3.593 -0.4866 -0.1114  0.2504
 1531SOL    HW1 4913   1.933   3.600   3.528  2.0455 -0.1175 -1.0269
 1531SOL    HW2 4914   1.902   3.749   3.585 -0.8509 -0.4968 -1.4070
 1532SOL     OW 4915   0.324   3.782   2.203  0.1667  0.7053 -0.4787
 1532SOL    HW1 4916   0.414   3.816   2.230  0.2430  1.4598 -1.6086
 1532SOL    HW2 4917   0.300   3.820   2.114 -1.4120  0.7531 -0.0533
 1533SOL     OW 4918   0.856   0.015   3.298 -0.6323 -0.1756 -0.0063
 1533SOL    HW1 4919   0.926   0.071   3.343  0.7115 -2.1664  0.4812
 1533SOL    HW2 4920   0.899  -0.065   3.255 -2.5124 -0.9785 -0.5073
 1534SOL     OW 4921   0.706   4.337   2.568 -0.5412  0.1432 -0.6827
 1534SOL    HW1 4922   0.625   4.394   2.588 -0.0113  1.4954 -2.1259
 1534SOL    HW2 4923   0.757   4.379   2.493  1.4614 -0.7505  0.1303
 1535SOL     OW 4924   3.510   5.549   4.657 -0.9305 -0.0350  0.0676
 1535SOL    HW1 4925   3.417   5.560   4.695 -0.1013  0.2455  2.1518
 1535SOL    HW2 4926   3.552   5.467   4.696  0.1632  0.5709  0.1902
 1536SOL     OW 4927   0.835   3.910   3.235  0.2364  0.5154  0.0970
 1536SOL    HW1 4928   0.886   3.826   3.252  0.5423  0.8616  0.9581
 1536SOL    HW2 4929   0.897   3.989   3.243 -0.6068  1.0226  2.2236
 1537SOL     OW 4930   1.848   5.147   2.493  0.4712 -0.0243  0.4355
 1537SOL    HW1 4931   1.874   5.052   2.511 -3.7755 -1.2890  0.8373
 1537SOL    HW2 4932   1.826   5.158   2.396 -2.6345 -0.5844  0.9934
 1538SOL     OW 4933   1.246   5.082   1.587 -0.3598  0.1784  0.5401
 1538SOL    HW1 4934   1.304   5.091   1.506 -1.4013 -0.0538 -0.2568
 1538SOL    HW2 4935   1.303   5.067   1.668  0.7998  2.1796  0.1548
 1539SOL     OW 4936   1.808   4.491   1.468 -0.0815  0.0464 -0.0722
 1539SOL    HW1 4937   1.822   4.589   1.476  0.6409  0.1699 -2.1445
 1539SOL    HW2 4938   1.890   4.442   1.499 -0.6721  0.0351  1.5461
 1540SOL     OW 4939   5.056   4.325   2.233 -0.4164 -0.2626  0.0278
 1540SOL    HW1 4940   5.085   4.252   2.295 -1.4537 -0.1308  0.6985
 1540SOL    HW2 4941   5.060   4.292   2.139 -1.5827 -1.4633  0.3651
 1541SOL     OW 4942   2.020   3.383   1.704 -0.2058  0.1024  0.2823
 1541SOL    HW1 4943   1.951   3.456   1.697 -0.5613 -0.2420  0.1746
 1541SOL    HW2 4944   1.977   3.301   1.741  0.0975 -0.1817  0.0026
 1542SOL     OW 4945   1.528   2.185   3.968 -0.3630  0.5228  0.0107
 1542SOL    HW1 4946   1.594   2.131   4.020 -0.3118 -0.6066 -1.1721
 1542SOL    HW2 4947   1.531   2.158   3.872 -3.7220 -0.8511  0.1393
 1543SOL     OW 4948   1.900   3.225   3.352  0.1206  0.1462 -0.1427
 1543SOL    HW1 4949   1.991   3.194   3.323  0.1976  1.5473 -1.5536
 1543SOL    HW2 4950   1.833   3.153   3.337  1.2011 -1.5406  2.4935
 1544SOL     OW 4951   1.303   3.954   3.207 -0.0768  0.4169  0.0214
 1544SOL    HW1 4952   1.360   3.886   3.160 -0.6273  0.1191 -0.2182
 1544SOL    HW2 4953   1.342   4.045   3.192  0.3933  0.2084 -0.0578
 1545SOL     OW 4954   1.049   3.632   3.028 -0.1721  0.2734  0.0453
 1545SOL    HW1 4955   1.022   3.624   3.124  0.3240  2.8132  0.4875
 1545SOL    HW2 4956   1.058   3.729   3.004  3.1970 -0.2803 -1.5779
 1546SOL     OW 4957   0.732   4.422   2.289  0.2245  0.0525  0.0282
 1546SOL    HW1 4958   0.772   4.511   2.310 -0.1729 -0.1088  1.5561
 1546SOL    HW2 4959   0.716   4.415   2.190 -0.5498  2.0072 -0.0262
 1547SOL     OW 4960   5.214   3.785   3.452  0.1133  0.7563 -0.4998
 1547SOL    HW1 4961   5.300   3.836   3.443  1.0061 -0.6521 -0.2207
 1547SOL    HW2 4962   5.145   3.845   3.493  1.7454  1.1598  1.8909
 1548SOL     OW 4963   1.627   0.217   4.121  0.2542 -0.0933  0.0660
 1548SOL    HW1 4964   1.662   0.298   4.166  2.1289 -0.7299 -0.1809
 1548SOL    HW2 4965   1.615   0.144   4.189 -0.7958  0.1530  0.1724
 1549SOL     OW 4966   2.102   4.104   3.393 -0.5508  0.5024 -0.8082
 1549SOL    HW1 4967   2.132   4.052   3.473  0.0298  0.9213 -0.7544
 1549SOL    HW2 4968   2.046   4.182   3.423 -1.4080 -0.0743 -0.8879
 1550SOL     OW 4969   1.904   4.019   4.221 -0.4646 -0.2433  0.4705
 1550SOL    HW1 4970   1.911   4.079   4.300  1.4707 -0.6266  0.6378
 1550SOL    HW2 4971   1.885   4.073   4.139 -0.4617  0.3877  0.8846
 1551SOL     OW 4972   0.957   4.907   2.533 -0.0964  0.7510 -0.4084
 1551SOL    HW1 4973   1.002   4.821   2.508 -3.1512 -1.2542  0.4530
 1551SOL    HW2 4974   0.935   4.958   2.450  1.8502  0.8441 -0.9333
 1552SOL     OW 4975   5.347   3.213   3.216 -0.1209 -0.0310 -0.2609
 1552SOL    HW1 4976   5.343   3.185   3.312  0.1873 -0.0966 -0.2636
 1552SOL    HW2 4977   5.381   3.307   3.209 -0.9578  0.2781 -0.2635
 1553SOL     OW 4978   4.948   4.446   3.524 -0.5566  0.3287  0.2885
 1553SOL    HW1 4979   4.909   4.500   3.450  0.5893  2.7824  1.3683
 1553SOL    HW2 4980   4.926   4.488   3.612 -0.1834 -1.3862  1.2602
 1554SOL     OW 4981   0.175   1.367   2.544  0.8488 -0.5883  0.1883
 1554SOL    HW1 4982   0.120   1.345   2.463 -0.1331  0.6515  0.4857
 1554SOL    HW2 4983   0.220   1.455   2.530  0.1555 -0.0451  1.2169
 1555SOL     OW 4984   0.655   4.046   2.551  0.0032  0.3102 -0.3306
 1555SOL    HW1 4985   0.727   3.989   2.513 -0.6634  0.3133 -1.6447
 1555SOL    HW2 4986   0.681   4.142   2.546 -0.0876  0.3114 -0.8096
 1556SOL     OW 4987   0.962   0.249   3.885  0.6755 -0.5630 -0.1747
 1556SOL    HW1 4988   0.909   0.263   3.801 -1.8647  1.0082  1.5469
 1556SOL    HW2 4989   1.045   0.305   3.881  0.3374 -0.1003 -1.4177
 1557SOL     OW 4990   0.278   4.878   1.529  0.8243  0.0291 -0.1634
 1557SOL    HW1 4991   0.273   4.909   1.435  1.0462  0.2849 -0.0923
 1557SOL    HW2 4992   0.192   4.835   1.555  0.6026  0.3742 -0.3332
 1558SOL     OW 4993   1.664   3.238   2.139  0.5633 -0.1781 -0.0393
 1558SOL    HW1 4994   1.681   3.296   2.059 -1.6933 -0.8848 -1.0882
 1558SOL    HW2 4995   1.577   3.190   2.128  0.3691 -0.5940  2.6902
 1559SOL     OW 4996   0.909   4.697   3.691 -0.1193  0.0215  0.4079
 1559SOL    HW1 4997   1.008   4.700   3.697 -0.0147 -0.0414 -0.9494
 1559SOL    HW2 4998   0.879   4.742   3.607 -1.1245 -1.4464 -0.0538
 1560SOL     OW 4999   0.464   4.790   2.991  0.0098 -0.4573 -0.3145
 1560SOL    HW1 5000   0.417   4.729   3.055  0.1494 -2.0390 -1.6683
 1560SOL    HW2 5001   0.555   4.755   2.971  0.6130  0.9203 -0.1289
 1561SOL     OW 5002   1.421   4.605   3.804  0.0670  0.1615  0.3077
 1561SOL    HW1 5003   1.455   4.688   3.849 -0.2732 -0.0423  0.9392
 1561SOL    HW2 5004   1.468   4.594   3.716  1.2815  0.1513  0.9321
 1562SOL     OW 5005   0.735   5.285   1.881  0.2405 -0.2767 -0.3261
 1562SOL    HW1 5006   0.827   5.322   1.883  0.3456 -0.4312 -1.6354
 1562SOL    HW2 5007   0.679   5.337   1.816 -0.3038 -0.8373 -0.3211
 1563SOL     OW 5008   4.562   4.840   0.810 -0.1203  0.1492 -0.1593
 1563SOL    HW1 5009   4.528   4.921   0.858  0.0171 -0.5092  1.0892
 1563SOL    HW2 5010   4.662   4.847   0.801 -0.1361  0.2286 -0.2868
 1564SOL     OW 5011   0.113   4.393   2.322 -0.2772  0.2854  0.0255
 1564SOL    HW1 5012   0.151   4.309   2.284  0.1359  1.7922 -3.2371
 1564SOL    HW2 5013   0.169   4.423   2.400  0.8375 -1.3031 -0.1241
 1565SOL     OW 5014   4.640   5.231   1.914 -0.4275 -0.3726 -0.3793
 1565SOL    HW1 5015   4.725   5.192   1.949 -1.6578 -1.8913  1.0892
 1565SOL    HW2 5016   4.570   5.160   1.909 -2.0014  1.0972 -0.2336
 1566SOL     OW 5017   2.488   4.359   1.711 -0.3370 -0.2317  0.0521
 1566SOL    HW1 5018   2.473   4.429   1.641 -0.7539 -1.4311 -1.1006
 1566SOL    HW2 5019   2.538   4.399   1.788 -1.2587  1.5131 -0.2133
 1567SOL     OW 5020   0.950   4.432   1.225 -0.3130 -0.4603  0.6300
 1567SOL    HW1 5021   0.960   4.391   1.134 -1.0028 -1.2914  0.9091
 1567SOL    HW2 5022   0.961   4.531   1.219 -1.4129 -0.3888 -0.5406
 1568SOL     OW 5023   3.367   4.417   4.985  0.0104 -0.5122 -0.4743
 1568SOL    HW1 5024   3.317   4.503   4.996  1.4119  0.6306 -2.4008
 1568SOL    HW2 5025   3.392   4.382   5.075 -0.0969  1.4143  0.3656
 1569SOL     OW 5026   1.068   3.269   1.558  0.7300 -0.0380 -0.1436
 1569SOL    HW1 5027   0.976   3.247   1.523 -0.0861  0.3641  1.6445
 1569SOL    HW2 5028   1.126   3.188   1.553  0.0008 -0.5545 -0.4229
 1570SOL     OW 5029   1.717   4.214   2.614  0.3927  0.0008  0.7698
 1570SOL    HW1 5030   1.764   4.298   2.587  0.4096 -0.2022  0.1462
 1570SOL    HW2 5031   1.783   4.151   2.656  0.8101 -0.4896 -0.5642
 1571SOL     OW 5032   0.691   5.493   2.728  0.2400 -0.1346 -0.5393
 1571SOL    HW1 5033   0.682   5.493   2.628 -0.4490 -0.6216 -0.4848
 1571SOL    HW2 5034   0.712   5.585   2.760 -1.5861  0.4762 -0.9701
 1572SOL     OW 5035   4.085   3.995   2.713 -0.0156 -0.3445  0.0893
 1572SOL    HW1 5036   4.099   3.897   2.728 -1.4963 -0.5898  0.0415
 1572SOL    HW2 5037   4.089   4.043   2.801  1.7639 -0.2637  0.0057
 1573SOL     OW 5038   4.958   5.249   2.458 -0.2682  0.2616  0.1871
 1573SOL    HW1 5039   4.923   5.245   2.551 -0.5537 -1.1388  0.0434
 1573SOL    HW2 5040   5.058   5.240   2.459 -0.4239 -2.4482  0.2765
 1574SOL     OW 5041   4.888   0.506   3.024  0.1068 -0.1167  0.2011
 1574SOL    HW1 5042   4.903   0.583   3.086 -0.5079  0.1605  0.0187
 1574SOL    HW2 5043   4.955   0.434   3.042  0.1149  0.0820  0.9920
 1575SOL     OW 5044   1.197   4.156   1.728 -0.1613  0.2076  0.4608
 1575SOL    HW1 5045   1.270   4.216   1.697 -0.2289 -0.5440 -1.2751
 1575SOL    HW2 5046   1.236   4.073   1.768 -0.0349 -0.3628 -0.8096
 1576SOL     OW 5047   1.405   5.171   2.639  0.4370 -0.3820  0.0344
 1576SOL    HW1 5048   1.402   5.137   2.733  0.5218  1.3187  0.6881
 1576SOL    HW2 5049   1.335   5.125   2.585 -0.5477 -0.4047  1.2835
 1577SOL     OW 5050   5.219   2.799   2.334 -0.5827  0.6764  0.0090
 1577SOL    HW1 5051   5.208   2.756   2.423  1.1972  0.8664  0.3665
 1577SOL    HW2 5052   5.316   2.801   2.310 -1.1235 -2.4767 -3.4936
 1578SOL     OW 5053   1.456   3.151   1.609 -0.5332 -0.3736  0.3711
 1578SOL    HW1 5054   1.366   3.134   1.571 -0.0269 -0.5153 -0.8248
 1578SOL    HW2 5055   1.464   3.107   1.698 -1.2401 -1.4024 -0.0517
 1579SOL     OW 5056   2.276   3.191   1.125  0.4242  0.1393  0.5439
 1579SOL    HW1 5057   2.212   3.225   1.056  0.8798  1.8543  0.9122
 1579SOL    HW2 5058   2.225   3.166   1.208 -0.4682 -4.2915 -1.0533
 1580SOL     OW 5059   0.833   4.967   2.938 -0.2586 -0.3026  0.1122
 1580SOL    HW1 5060   0.928   5.000   2.945 -0.6752  0.9910 -0.1080
 1580SOL    HW2 5061   0.785   5.020   2.869 -1.2453 -0.7109  0.4779
 1581SOL     OW 5062   5.457   4.594   2.951  0.8757  0.1288 -0.4454
 1581SOL    HW1 5063   5.402   4.645   2.885  3.7677  1.9578 -1.6295
 1581SOL    HW2 5064   5.414   4.598   3.041 -2.6486 -1.5441 -1.8447
 1582SOL     OW 5065   1.980   1.215   3.008 -0.6348  0.5284  0.1670
 1582SOL    HW1 5066   2.044   1.140   3.026  0.5867  0.9340 -2.1025
 1582SOL    HW2 5067   1.971   1.271   3.090  1.7708  0.3174  0.6411
 1583SOL     OW 5068   3.949   4.899   0.557  0.2409 -0.4209 -0.2324
 1583SOL    HW1 5069   4.034   4.939   0.522  0.1793  0.0782  0.1734
 1583SOL    HW2 5070   3.939   4.807   0.522  1.0887 -0.5814 -0.0819
 1584SOL     OW 5071   4.188   3.332   1.850  0.3765  0.2381  0.7234
 1584SOL    HW1 5072   4.249   3.253   1.848  1.2346  0.9044 -0.8197
 1584SOL    HW2 5073   4.212   3.390   1.928  1.2479  0.1418  0.5313
 1585SOL     OW 5074   5.485   2.124   3.961 -0.2091 -0.1689 -0.0851
 1585SOL    HW1 5075   5.504   2.185   4.038 -1.8774 -0.3396  0.5135
 1585SOL    HW2 5076   5.570   2.080   3.931  0.6455  0.7375  0.9303
 1586SOL     OW 5077   0.516   3.707   3.279  0.2658  1.0475  0.6645
 1586SOL    HW1 5078   0.518   3.806   3.292 -1.2709  1.1924  0.1023
 1586SOL    HW2 5079   0.459   3.665   3.351 -2.3815  1.0725 -1.2539
 1587SOL     OW 5080   0.255   3.832   2.988 -0.6441  0.4277  0.0535
 1587SOL    HW1 5081   0.335   3.811   2.931  0.0101  1.9617  0.3279
 1587SOL    HW2 5082   0.174   3.788   2.951  0.0515  0.1466 -1.1765
 1588SOL     OW 5083   1.194   3.935   4.425 -0.5737  0.0064  0.0978
 1588SOL    HW1 5084   1.192   4.027   4.385  0.3946 -0.1390 -0.3076
 1588SOL    HW2 5085   1.240   3.872   4.363 -2.6100 -1.1425 -0.3699
 1589SOL     OW 5086   0.937   3.826   4.415  0.4953  0.9105 -0.0817
 1589SOL    HW1 5087   1.027   3.869   4.424 -0.0414  1.9993  0.1862
 1589SOL    HW2 5088   0.934   3.743   4.469  1.6013  0.4288 -0.7200
 1590SOL     OW 5089   0.400   4.443   5.012 -0.0280  0.0330  0.1611
 1590SOL    HW1 5090   0.478   4.388   4.981  0.2545  1.3745 -1.7466
 1590SOL    HW2 5091   0.319   4.421   4.958  0.5498  2.6495 -2.0027
 1591SOL     OW 5092   5.318   3.672   2.639  0.0864 -0.1572 -0.0531
 1591SOL    HW1 5093   5.380   3.603   2.602 -0.4129  0.2851 -1.8151
 1591SOL    HW2 5094   5.370   3.755   2.660  0.4411 -0.5449  0.6467
 1592SOL     OW 5095   4.887   5.324   1.540  0.1293  0.0583 -0.0302
 1592SOL    HW1 5096   4.818   5.253   1.552 -0.3234  0.0271 -2.3575
 1592SOL    HW2 5097   4.860   5.406   1.592 -1.4099 -0.1307 -0.4795
 1593SOL     OW 5098   1.555   3.799   1.565  0.0168  0.1351  0.0787
 1593SOL    HW1 5099   1.510   3.888   1.567  3.0331  1.9578 -2.7208
 1593SOL    HW2 5100   1.634   3.800   1.625  0.5937 -0.3203 -0.6593
 1594SOL     OW 5101   1.974   4.636   0.703  0.1983 -0.1874  0.1644
 1594SOL    HW1 5102   2.030   4.667   0.627  1.8404  1.1075  1.8254
 1594SOL    HW2 5103   2.028   4.633   0.787 -1.5826 -1.4050  1.3671
 1595SOL     OW 5104   1.918   4.693   3.419  0.4935 -0.6592 -0.2956
 1595SOL    HW1 5105   1.994   4.740   3.374  0.9145  0.3064  1.3751
 1595SOL    HW2 5106   1.953   4.632   3.490 -0.2540 -0.6209  0.1237
 1596SOL     OW 5107   5.233   4.071   3.563  0.4192  0.1740  0.4303
 1596SOL    HW1 5108   5.175   4.139   3.607 -2.3195 -1.5785 -0.1728
 1596SOL    HW2 5109   5.236   4.088   3.464 -1.0111 -0.9518  0.1468
 1597SOL     OW 5110   1.510   3.710   4.768  0.1881 -0.1726 -0.5860
 1597SOL    HW1 5111   1.576   3.688   4.840 -2.8674 -4.3198  1.3249
 1597SOL    HW2 5112   1.543   3.673   4.681  0.7738 -1.4694  0.1580
 1598SOL     OW 5113   0.821   4.542   3.125  0.3135 -0.4017  0.3370
 1598SOL    HW1 5114   0.762   4.583   3.056 -1.9404  1.3892  3.0702
 1598SOL    HW2 5115   0.914   4.578   3.115 -0.4598  1.5160 -0.4618
 1599SOL     OW 5116   0.477   4.967   4.166  1.1206  0.3491  0.0336
 1599SOL    HW1 5117   0.459   4.885   4.111  2.9539  1.4197 -2.3462
 1599SOL    HW2 5118   0.546   4.946   4.235 -0.4347 -0.7388  1.3491
 1600SOL     OW 5119   5.487   4.109   5.524  0.8065 -0.2729 -0.1267
 1600SOL    HW1 5120   5.497   4.207   5.545  2.7374 -0.4485  0.0224
 1600SOL    HW2 5121   5.573   4.075   5.486  0.6884 -2.2359  1.2062
 1601SOL     OW 5122   1.286   3.927   1.890  0.5297  0.7087  0.6836
 1601SOL    HW1 5123   1.244   3.918   1.980 -1.8252  2.5693 -0.1187
 1601SOL    HW2 5124   1.279   3.840   1.841 -0.8240  0.4654  1.2645
 1602SOL     OW 5125   2.016   5.303   1.864  0.0623  0.0303 -0.2076
 1602SOL    HW1 5126   2.110   5.275   1.883  0.0195 -1.0591 -1.4684
 1602SOL    HW2 5127   1.957   5.278   1.941  0.7166  0.3735  0.4181
 1603SOL     OW 5128   0.154   5.170   2.446 -0.7599 -0.8407  0.3332
 1603SOL    HW1 5129   0.249   5.147   2.426 -1.1264 -1.3557 -0.9365
 1603SOL    HW2 5130   0.116   5.105   2.511 -0.2393 -0.6132  0.8700
 1604SOL     OW 5131   2.342   4.355   3.898 -0.1928  0.3626 -0.0695
 1604SOL    HW1 5132   2.417   4.290   3.886 -0.7507 -0.5034  0.9912
 1604SOL    HW2 5133   2.350   4.400   3.987 -0.2738  1.1696 -0.4531
 1605SOL     OW 5134   3.370   4.946   3.032  0.4108  0.0816 -0.1511
 1605SOL    HW1 5135   3.425   4.938   3.116 -1.2979  0.9556  1.1030
 1605SOL    HW2 5136   3.364   5.041   3.005 -0.1293 -0.0514 -0.5107
 1606SOL     OW 5137   0.693   5.443   2.432  0.1770 -0.0573 -0.3719
 1606SOL    HW1 5138   0.790   5.457   2.413  0.4553 -0.4481  0.6553
 1606SOL    HW2 5139   0.641   5.447   2.347  1.2029 -0.7502 -1.0494
 1607SOL     OW 5140   4.153   3.116   4.284  0.1055  0.4240 -0.2745
 1607SOL    HW1 5141   4.089   3.110   4.207  0.6298 -0.4420 -0.6522
 1607SOL    HW2 5142   4.132   3.198   4.338  0.3758  1.6359 -1.9161
 1608SOL     OW 5143   0.386   4.585   2.329 -0.1447  0.0304 -0.3076
 1608SOL    HW1 5144   0.406   4.681   2.308  1.2781 -0.1738  0.0427
 1608SOL    HW2 5145   0.429   4.560   2.416  0.2455 -1.1680 -0.8307
 1609SOL     OW 5146   2.403   5.439   3.697 -0.3579 -0.0005 -0.3997
 1609SOL    HW1 5147   2.419   5.525   3.649 -2.1806  1.4561  1.4551
 1609SOL    HW2 5148   2.412   5.453   3.796 -0.4791 -2.0117 -0.0482
 1610SOL     OW 5149   5.105   4.092   2.037  0.0106  0.0607 -0.3745
 1610SOL    HW1 5150   5.172   4.064   1.968 -0.4619 -1.8233 -0.1130
 1610SOL    HW2 5151   5.058   4.011   2.073  0.6171  0.9036  2.5509
 1611SOL     OW 5152   0.636   3.929   4.205 -0.7922  0.4956  0.2132
 1611SOL    HW1 5153   0.705   3.984   4.161 -0.3816 -0.3297 -0.1976
 1611SOL    HW2 5154   0.595   3.866   4.138 -1.7069  0.7405  0.5196
 1612SOL     OW 5155   2.658   4.711   3.475  0.6845 -0.1927  0.1405
 1612SOL    HW1 5156   2.606   4.711   3.389  1.3290 -1.7039 -0.2934
 1612SOL    HW2 5157   2.630   4.632   3.530  0.6022  0.5165  1.1266
 1613SOL     OW 5158   0.440   3.199   0.037  0.1329  0.3534  0.1967
 1613SOL    HW1 5159   0.425   3.273  -0.027  3.0395 -0.1903 -1.2726
 1613SOL    HW2 5160   0.538   3.182   0.047 -0.3614 -2.2585  1.7018
 1614SOL     OW 5161   0.674   2.466   2.454  0.5691 -0.2958 -0.0480
 1614SOL    HW1 5162   0.677   2.440   2.358 -0.1337 -0.4564 -0.0303
 1614SOL    HW2 5163   0.617   2.547   2.466  0.0376 -0.7127  0.3214
 1615SOL     OW 5164   0.230   2.800   1.957  0.3913 -0.1208 -0.3555
 1615SOL    HW1 5165   0.172   2.726   1.924 -0.8270  1.2457 -1.4151
 1615SOL    HW2 5166   0.189   2.841   2.038 -0.1906  0.8760 -1.1316
 1616SOL     OW 5167   0.160   4.064   3.112  0.5540 -0.4180 -0.2218
 1616SOL    HW1 5168   0.231   4.006   3.072  0.7102 -0.5432  0.2273
 1616SOL    HW2 5169   0.166   4.060   3.212 -0.6927 -1.1797 -0.1571
 1617SOL     OW 5170   1.080   2.287   2.031 -0.4754 -0.7893 -0.2791
 1617SOL    HW1 5171   1.045   2.373   1.992 -0.2244  0.0743  1.2915
 1617SOL    HW2 5172   1.040   2.274   2.122  0.0458 -1.9849 -0.2090
 1618SOL     OW 5173   0.816   1.882   3.477 -0.2808 -0.0837  0.0561
 1618SOL    HW1 5174   0.732   1.858   3.428 -1.1824  0.4469  1.2861
 1618SOL    HW2 5175   0.806   1.974   3.516  0.5032 -0.3908  1.0069
 1619SOL     OW 5176   3.322   4.762   4.030 -0.6800  0.2641 -0.0030
 1619SOL    HW1 5177   3.306   4.664   4.035 -3.2672  0.6893  1.9513
 1619SOL    HW2 5178   3.245   4.807   3.984  0.0266  1.4712 -0.0610
 1620SOL     OW 5179   1.587   0.088   1.500  0.4533  0.3297  0.1411
 1620SOL    HW1 5180   1.498   0.085   1.544  0.1519  0.9029 -0.4114
 1620SOL    HW2 5181   1.590   0.165   1.436  1.4067  0.4269  0.2894
 1621SOL     OW 5182   1.660   4.608   3.126  0.2892  0.4761  0.1420
 1621SOL    HW1 5183   1.711   4.666   3.063 -0.6029  1.1997  0.0646
 1621SOL    HW2 5184   1.585   4.660   3.167 -1.3396 -0.9278 -0.8770
 1622SOL     OW 5185   4.631   3.963   2.584 -0.3582 -0.2001  0.2290
 1622SOL    HW1 5186   4.577   3.959   2.500 -1.2969  0.1264  0.8023
 1622SOL    HW2 5187   4.624   3.876   2.632 -2.7205  0.6914  1.6926
 1623SOL     OW 5188   5.188   4.288   3.975  0.0165  0.6084 -0.6220
 1623SOL    HW1 5189   5.118   4.264   3.907 -1.8626  0.7790  1.1499
 1623SOL    HW2 5190   5.261   4.219   3.974 -1.1488 -0.6658 -1.2261
 1624SOL     OW 5191   2.791   5.331   2.845  0.5494 -0.2020 -0.7800
 1624SOL    HW1 5192   2.784   5.428   2.868 -1.0266 -0.5150  0.2199
 1624SOL    HW2 5193   2.710   5.283   2.878  1.6651 -2.0181 -0.5228
 1625SOL     OW 5194   1.979   4.050   2.970 -0.5952 -0.2853 -0.3348
 1625SOL    HW1 5195   2.059   4.029   3.026  0.6169  1.1941 -1.4343
 1625SOL    HW2 5196   1.952   4.145   2.984 -0.3518  0.0863 -2.0834
 1626SOL     OW 5197   0.503   3.734   3.977  0.5588 -0.5308  0.0669
 1626SOL    HW1 5198   0.531   3.807   3.915  0.3460 -0.3740  0.1546
 1626SOL    HW2 5199   0.571   3.661   3.975  0.2757 -0.7845 -0.7725
 1627SOL     OW 5200   1.236   3.589   0.699  0.4519 -0.2340 -0.4934
 1627SOL    HW1 5201   1.240   3.688   0.685 -0.5617 -0.0367  0.4867
 1627SOL    HW2 5202   1.279   3.567   0.787  1.4204 -0.7749 -1.0810
 1628SOL     OW 5203   1.291   3.702   1.752 -0.1549 -0.1320 -0.6892
 1628SOL    HW1 5204   1.257   3.608   1.747 -0.4080  0.0249 -2.5653
 1628SOL    HW2 5205   1.387   3.704   1.725 -0.5475  0.3057 -2.1662
 1629SOL     OW 5206   5.314   1.223   3.779  0.8542 -0.4945  0.0483
 1629SOL    HW1 5207   5.255   1.184   3.708  0.4951  0.4322 -0.1835
 1629SOL    HW2 5208   5.256   1.265   3.849  1.1926  1.7256 -0.9075
 1630SOL     OW 5209   0.568   3.832   1.811  0.1874 -0.0009 -0.2176
 1630SOL    HW1 5210   0.598   3.884   1.732  1.0799 -0.9825 -0.5503
 1630SOL    HW2 5211   0.627   3.852   1.890  1.5153 -1.5905 -0.7506
 1631SOL     OW 5212   5.179   4.291   4.594  0.2944  0.4092 -0.3460
 1631SOL    HW1 5213   5.174   4.335   4.504 -1.1778  1.0251 -0.0104
 1631SOL    HW2 5214   5.088   4.291   4.636  0.9064 -0.0451  1.0684
 1632SOL     OW 5215   5.107   2.860   3.736 -0.2586  0.2091  0.0016
 1632SOL    HW1 5216   5.063   2.943   3.769 -2.1929 -0.0398 -1.7005
 1632SOL    HW2 5217   5.058   2.780   3.770 -0.9704 -0.0883 -1.5993
 1633SOL     OW 5218   1.298   5.343   2.143 -0.0088  0.4224  0.0841
 1633SOL    HW1 5219   1.253   5.349   2.054 -0.4528 -2.7393 -0.0245
 1633SOL    HW2 5220   1.326   5.249   2.160  0.4845  0.9972  3.1139
 1634SOL     OW 5221   1.050   0.439   0.978 -0.7110 -0.1158 -0.1128
 1634SOL    HW1 5222   1.105   0.457   0.897  0.0366 -2.3156 -0.1536
 1634SOL    HW2 5223   0.953   0.442   0.953 -0.4881 -1.0288 -1.1910
 1635SOL     OW 5224   3.432   4.944   2.266  0.3572 -0.1446 -0.2130
 1635SOL    HW1 5225   3.427   4.993   2.353 -0.2090 -0.7696  0.1072
 1635SOL    HW2 5226   3.430   5.011   2.191  2.0479  0.4802  0.2488
 1636SOL     OW 5227   5.101   4.016   2.992 -0.1255  0.0618 -0.3524
 1636SOL    HW1 5228   5.089   3.948   3.064 -1.9501  0.0048 -0.6496
 1636SOL    HW2 5229   5.196   4.015   2.960 -0.3211 -3.1191 -1.1234
 1637SOL     OW 5230   5.455   4.323   2.837  0.2997  0.0454  0.5538
 1637SOL    HW1 5231   5.522   4.293   2.769  1.3574  1.6704  0.8415
 1637SOL    HW2 5232   5.489   4.403   2.886 -1.3906  0.2580  1.4822
 1638SOL     OW 5233   1.394   5.102   3.779 -0.4915 -0.2171 -0.2375
 1638SOL    HW1 5234   1.425   5.197   3.764 -0.3798 -0.4412 -1.5656
 1638SOL    HW2 5235   1.296   5.102   3.799  0.1320  0.4712  3.6353
 1639SOL     OW 5236   0.077   0.102   2.408  0.6543  0.2259  0.3458
 1639SOL    HW1 5237   0.156   0.124   2.465  2.1044 -1.3376 -0.9382
 1639SOL    HW2 5238   0.065   0.174   2.339  1.0034  0.4405  0.5072
 1640SOL     OW 5239   1.981   2.747   3.122 -0.4674 -0.1369  0.2206
 1640SOL    HW1 5240   1.938   2.825   3.077  0.6202 -0.2837 -1.1637
 1640SOL    HW2 5241   1.925   2.665   3.108 -0.8126  0.0798  0.3161
 1641SOL     OW 5242   5.501   2.968   2.502 -0.4282  0.4495  0.3517
 1641SOL    HW1 5243   5.520   3.012   2.590 -0.9894  0.7714  0.3148
 1641SOL    HW2 5244   5.437   3.024   2.449  0.1229  0.3939 -0.3816
 1642SOL     OW 5245   0.469   3.077   1.856 -0.0205  0.0514  0.9735
 1642SOL    HW1 5246   0.431   3.081   1.763  1.1232 -2.1212  0.3479
 1642SOL    HW2 5247   0.528   3.157   1.871 -0.5508  0.6435 -0.0057
 1643SOL     OW 5248   1.155   0.098   2.908  0.2697  0.1028 -0.3109
 1643SOL    HW1 5249   1.155   0.153   2.991 -1.1856 -1.1339  0.5600
 1643SOL    HW2 5250   1.074   0.120   2.853 -0.4107 -1.2236  0.1233
 1644SOL     OW 5251   0.716   3.662   3.099  0.2509  0.3109 -0.0823
 1644SOL    HW1 5252   0.634   3.672   3.156 -0.2805  0.5119 -0.8573
 1644SOL    HW2 5253   0.765   3.749   3.095  0.6582  0.1176  0.6042
 1645SOL     OW 5254   5.211  -0.026   3.327  0.2776  0.3277  0.1155
 1645SOL    HW1 5255   5.281  -0.018   3.256 -0.3512  0.8967 -0.4560
 1645SOL    HW2 5256   5.186   0.066   3.358  0.2485  0.0960  0.7769
 1646SOL     OW 5257   5.062   3.745   2.714 -0.6149 -0.5674 -0.1536
 1646SOL    HW1 5258   5.145   3.707   2.672 -0.4851 -1.1105  0.5773
 1646SOL    HW2 5259   5.067   3.844   2.714  0.5183 -0.5999  0.8172
 1647SOL     OW 5260   5.499   2.938   3.847  0.5437  0.5729 -0.3354
 1647SOL    HW1 5261   5.463   2.898   3.931  2.7293 -0.7683  0.0603
 1647SOL    HW2 5262   5.425   2.981   3.796 -1.5761 -1.9309  0.3944
 1648SOL     OW 5263   2.548   4.686   3.112  0.6276 -0.5093 -0.1425
 1648SOL    HW1 5264   2.600   4.619   3.166 -1.3162 -1.8145  0.2187
 1648SOL    HW2 5265   2.587   4.690   3.020  1.1467 -1.7280 -0.0031
 1649SOL     OW 5266   1.189   3.998   2.391 -0.2149 -0.0088  0.3969
 1649SOL    HW1 5267   1.145   3.919   2.348  0.4646  0.2359 -0.8030
 1649SOL    HW2 5268   1.198   4.072   2.324 -2.2785  1.7230  1.9303
 1650SOL     OW 5269   2.919   0.531   3.305 -0.1558  0.6138  0.5358
 1650SOL    HW1 5270   2.858   0.537   3.226  0.9346 -0.7538 -0.4547
 1650SOL    HW2 5271   2.874   0.570   3.385 -3.1325 -2.0217  0.3381
 1651SOL     OW 5272   1.416   5.008   0.622  0.2799 -0.6549  0.0528
 1651SOL    HW1 5273   1.467   4.968   0.698 -0.0718  0.3552  0.8536
 1651SOL    HW2 5274   1.408   5.107   0.636 -0.2887 -0.5307 -1.0157
 1652SOL     OW 5275   5.087   0.141   2.897 -0.4209 -0.0735  0.1471
 1652SOL    HW1 5276   5.113   0.047   2.915 -0.4038 -0.3723 -1.2780
 1652SOL    HW2 5277   4.998   0.143   2.852 -0.9163  0.6698  1.1161
 1653SOL     OW 5278   1.016   4.913   2.238  0.9149  0.0934 -0.5860
 1653SOL    HW1 5279   0.932   4.963   2.257  1.2916  1.1227 -1.5309
 1653SOL    HW2 5280   0.994   4.827   2.192  0.3273 -0.1010  0.0578
 1654SOL     OW 5281   1.541   4.681   1.478 -0.1192 -0.5209  0.1304
 1654SOL    HW1 5282   1.506   4.588   1.487  0.4987 -0.8378 -0.6279
 1654SOL    HW2 5283   1.556   4.702   1.382  0.5359  0.0663  0.3475
 1655SOL     OW 5284   1.027   5.398   2.699  0.2257  0.8546  0.2129
 1655SOL    HW1 5285   1.109   5.394   2.757  0.5210 -0.0515 -0.2403
 1655SOL    HW2 5286   0.987   5.307   2.693  0.2478  0.9191 -1.0654
 1656SOL     OW 5287   5.525   1.123   3.606 -0.0994  0.5349 -0.1083
 1656SOL    HW1 5288   5.516   1.040   3.552  0.2771  1.6173 -1.9111
 1656SOL    HW2 5289   5.455   1.124   3.677  0.3922 -1.6758  0.5074
 1657SOL     OW 5290   5.476   4.147   1.633 -0.2512  0.2068  0.5662
 1657SOL    HW1 5291   5.507   4.138   1.538 -0.9288  2.8528  0.0247
 1657SOL    HW2 5292   5.549   4.119   1.695  1.1139  0.7925 -0.7299
 1658SOL     OW 5293   5.309   1.368   2.497  0.4820  0.4067 -0.6045
 1658SOL    HW1 5294   5.220   1.365   2.543 -0.3582 -0.8658 -2.1914
 1658SOL    HW2 5295   5.357   1.452   2.523 -0.7458  0.6479  1.0552
 1659SOL     OW 5296   1.144   1.084   3.325  0.4388 -0.2301  0.3202
 1659SOL    HW1 5297   1.054   1.095   3.282 -0.2468 -2.0722  1.1752
 1659SOL    HW2 5298   1.191   1.005   3.286  1.3331  0.2182  0.4659
 1660SOL     OW 5299   2.017   1.072   2.483  0.2874  0.6589 -0.0372
 1660SOL    HW1 5300   2.010   1.162   2.441  1.2358  0.3080 -0.9912
 1660SOL    HW2 5301   2.034   1.082   2.581 -0.2815  1.5033 -0.0191
 1661SOL     OW 5302   2.344   3.911   2.035 -0.2311 -0.0578  0.0088
 1661SOL    HW1 5303   2.400   3.838   1.996 -3.2704 -2.6877  0.1862
 1661SOL    HW2 5304   2.295   3.877   2.115 -2.7753  1.7437 -0.6327
 1662SOL     OW 5305   5.256   4.227   2.440  0.1221 -0.0961 -0.1059
 1662SOL    HW1 5306   5.201   4.207   2.522  0.3808 -0.5507 -0.0420
 1662SOL    HW2 5307   5.286   4.141   2.399  0.1253  0.1357 -0.5935
 1663SOL     OW 5308   0.772   4.302   5.468  0.0381  0.1215 -0.1228
 1663SOL    HW1 5309   0.700   4.371   5.464  0.2480  0.3908  0.5938
 1663SOL    HW2 5310   0.847   4.336   5.525  2.1532  1.1504 -3.2713
 1664SOL     OW 5311   1.530   4.783   2.533  0.4899 -0.0032  0.2736
 1664SOL    HW1 5312   1.452   4.818   2.482 -0.2157 -0.7245  0.8383
 1664SOL    HW2 5313   1.542   4.837   2.616 -0.1440 -0.6176  0.7750
 1665SOL     OW 5314   0.825   5.133   1.565 -0.1295  0.2965 -0.6613
 1665SOL    HW1 5315   0.740   5.180   1.541 -0.3845 -0.4154 -1.1885
 1665SOL    HW2 5316   0.876   5.188   1.631 -1.0436  0.6923 -0.2640
 1666SOL     OW 5317   4.736  -0.013   3.347 -0.3010  0.3988 -0.2798
 1666SOL    HW1 5318   4.721   0.085   3.333 -1.9082  0.3871  0.9916
 1666SOL    HW2 5319   4.817  -0.026   3.404 -2.4102  1.3603  3.2828
 1667SOL     OW 5320   5.198   4.342   2.790 -0.1158  0.2626  0.4303
 1667SOL    HW1 5321   5.295   4.321   2.780  0.2127  1.5434  0.6951
 1667SOL    HW2 5322   5.179   4.365   2.886 -0.7902 -0.4476  0.4772
 1668SOL     OW 5323   2.199   0.791   2.441 -0.4525 -0.2335  0.5903
 1668SOL    HW1 5324   2.278   0.851   2.450 -0.2541 -0.3525 -0.2830
 1668SOL    HW2 5325   2.222   0.714   2.382 -1.2580 -0.1899  0.2010
 1669SOL     OW 5326   2.478   3.844   2.825  0.6916 -1.0337 -0.3605
 1669SOL    HW1 5327   2.531   3.887   2.898 -0.2937 -0.6500  0.1551
 1669SOL    HW2 5328   2.460   3.749   2.850  0.6948 -1.0175 -0.2959
 1670SOL     OW 5329   1.367   3.080   0.260 -0.0801 -0.3164 -0.2450
 1670SOL    HW1 5330   1.315   3.115   0.182  0.1360  0.7568  0.0690
 1670SOL    HW2 5331   1.465   3.079   0.237 -0.0400 -0.2302 -0.0804
 1671SOL     OW 5332   0.713   4.711   2.947  0.5561  0.3947  0.0876
 1671SOL    HW1 5333   0.706   4.671   2.856  1.2247  3.3645 -1.4189
 1671SOL    HW2 5334   0.778   4.788   2.944  1.7352 -0.3361  3.4677
 1672SOL     OW 5335   2.538   5.282   3.513 -0.0571 -0.0171  0.3264
 1672SOL    HW1 5336   2.618   5.321   3.466 -0.0558 -1.4322 -0.9094
 1672SOL    HW2 5337   2.502   5.349   3.577  0.5678  1.6241 -0.9567
 1673SOL     OW 5338   4.878   0.027   1.004  0.2662  0.7953 -0.2056
 1673SOL    HW1 5339   4.874   0.055   1.100 -1.9653  1.0363 -0.3054
 1673SOL    HW2 5340   4.786   0.003   0.973  1.3790 -2.3079 -1.4262
 1674SOL     OW 5341   0.786   3.099   4.468 -0.4579  0.4606  0.4602
 1674SOL    HW1 5342   0.802   3.140   4.558 -0.4254  0.8699  0.2716
 1674SOL    HW2 5343   0.717   3.152   4.419 -1.1036 -0.2570  0.5692
 1675SOL     OW 5344   5.501   4.585   4.039 -0.3990  0.2653  0.0799
 1675SOL    HW1 5345   5.558   4.624   4.112 -0.4320 -1.5022  1.0935
 1675SOL    HW2 5346   5.462   4.499   4.070 -0.2194 -0.6677 -2.1230
 1676SOL     OW 5347   5.212   5.256   2.376 -0.3776 -0.4610  0.2838
 1676SOL    HW1 5348   5.300   5.299   2.395  0.5304 -1.8175 -0.7247
 1676SOL    HW2 5349   5.158   5.317   2.317 -1.0353  1.3243  2.5924
 1677SOL     OW 5350   5.513   0.165   3.384  0.5246 -0.1647 -0.2585
 1677SOL    HW1 5351   5.516   0.131   3.290 -1.9045  1.5093 -1.0058
 1677SOL    HW2 5352   5.569   0.248   3.391 -0.1834  0.3421 -0.5266
 1678SOL     OW 5353   4.480   4.650   1.621 -0.1207  0.0857 -0.0728
 1678SOL    HW1 5354   4.430   4.594   1.687 -1.8084 -0.3046 -1.5798
 1678SOL    HW2 5355   4.563   4.603   1.592 -0.2199 -0.4728  0.5390
 1679SOL     OW 5356   5.483   4.757   1.064 -0.1446 -0.8397 -0.0422
 1679SOL    HW1 5357   5.552   4.804   1.009 -0.1555 -1.2401 -0.4089
 1679SOL    HW2 5358   5.447   4.819   1.133  1.6758 -1.0619  1.1801
 1680SOL     OW 5359   1.262   4.149   2.917 -0.0695  0.3212 -0.0987
 1680SOL    HW1 5360   1.222   4.233   2.880  1.5946  0.4173 -1.8403
 1680SOL    HW2 5361   1.273   4.158   3.016  1.7133  2.9467 -0.4230
 1681SOL     OW 5362   1.136   1.028   1.984  0.6693 -0.1611  0.5075
 1681SOL    HW1 5363   1.227   0.995   1.961  1.8229 -0.6107  4.7733
 1681SOL    HW2 5364   1.084   0.954   2.026 -1.5018  0.2758 -1.2525
 1682SOL     OW 5365   4.905   4.279   4.678 -0.0937 -0.5742 -0.2826
 1682SOL    HW1 5366   4.931   4.183   4.691 -0.4338 -0.4279  1.9480
 1682SOL    HW2 5367   4.872   4.317   4.765 -1.5027  1.1280 -1.4749
 1683SOL     OW 5368   1.337   0.313   2.209  0.2373 -0.1918 -0.1237
 1683SOL    HW1 5369   1.307   0.256   2.286  0.9223 -0.0189  0.2823
 1683SOL    HW2 5370   1.384   0.395   2.244  0.0925  0.1555 -0.7167
 1684SOL     OW 5371   1.390   5.086   3.475 -0.0664 -0.0130  0.0515
 1684SOL    HW1 5372   1.395   5.086   3.575  0.6790  1.7096  0.0591
 1684SOL    HW2 5373   1.375   5.179   3.443 -1.5768 -0.7201 -1.4216
 1685SOL     OW 5374   2.513   5.338   0.845 -0.6115  0.5799 -0.0911
 1685SOL    HW1 5375   2.541   5.377   0.758 -0.8310  0.9780  0.0171
 1685SOL    HW2 5376   2.589   5.286   0.884 -0.6377  0.0698 -0.7036
 1686SOL     OW 5377   1.400   3.125   5.283  0.1733 -0.2028 -0.2570
 1686SOL    HW1 5378   1.338   3.055   5.248  0.8078 -1.7217  1.5181
 1686SOL    HW2 5379   1.354   3.214   5.280 -1.1615 -0.8924 -1.2551
 1687SOL     OW 5380   0.698   0.069   0.847  0.0007 -0.0992 -0.2570
 1687SOL    HW1 5381   0.750   0.087   0.930  1.4463 -0.7878 -0.9739
 1687SOL    HW2 5382   0.747   0.106   0.768 -1.1392  0.1709 -0.8559
 1688SOL     OW 5383   0.164   3.856   0.737 -0.5746 -0.2257 -0.6173
 1688SOL    HW1 5384   0.136   3.949   0.759  0.4320  0.0332 -0.4136
 1688SOL    HW2 5385   0.127   3.794   0.806  1.5648  0.4434  1.2444
 1689SOL     OW 5386   5.173   4.019   4.537 -0.5621 -0.0733 -0.5033
 1689SOL    HW1 5387   5.201   4.112   4.560 -1.0111 -0.0674  0.0383
 1689SOL    HW2 5388   5.252   3.968   4.504 -0.3624  0.5690 -1.0478
 1690SOL     OW 5389   1.353   0.459   2.943 -0.3135  0.1102 -0.5465
 1690SOL    HW1 5390   1.416   0.428   2.872 -0.5657 -1.7606 -0.0110
 1690SOL    HW2 5391   1.260   0.430   2.920 -0.8161  1.7376 -0.6963
 1691SOL     OW 5392   0.279   2.428   1.382 -0.2825 -0.2072  0.6681
 1691SOL    HW1 5393   0.304   2.525   1.382  1.2148 -0.5645  1.7188
 1691SOL    HW2 5394   0.185   2.418   1.416 -0.9151  0.9496 -0.6499
 1692SOL     OW 5395   5.133   4.975   2.420  0.1864  0.1617 -0.3145
 1692SOL    HW1 5396   5.053   4.980   2.361  0.3208  0.9218 -0.4431
 1692SOL    HW2 5397   5.186   5.059   2.411  0.1923  0.3062  0.9252
 1693SOL     OW 5398   2.622   4.996   2.839  0.4333 -0.1206 -0.2744
 1693SOL    HW1 5399   2.627   5.011   2.938 -0.3536  1.5721 -0.4410
 1693SOL    HW2 5400   2.713   5.001   2.799  0.8696 -1.7617  0.4591
 1694SOL     OW 5401   3.102   5.372   3.930 -0.0287 -0.3808 -0.1310
 1694SOL    HW1 5402   3.201   5.368   3.916 -0.0400  0.5975 -0.6447
 1694SOL    HW2 5403   3.081   5.353   4.025  0.8379  1.3507  0.4472
 1695SOL     OW 5404   4.935   3.831   3.561 -0.6488  0.3460 -0.4514
 1695SOL    HW1 5405   4.928   3.775   3.643  0.3885 -0.1170 -0.6596
 1695SOL    HW2 5406   4.863   3.899   3.560 -0.7841  0.2280  0.7473
 1696SOL     OW 5407   0.284   5.473   4.272 -0.2055 -0.2715 -0.0365
 1696SOL    HW1 5408   0.209   5.466   4.337  0.1307  0.0842  0.3948
 1696SOL    HW2 5409   0.323   5.565   4.275  0.9084 -0.7410  0.4924
 1697SOL     OW 5410   1.231   3.854   3.458 -0.1552 -0.6156  0.0455
 1697SOL    HW1 5411   1.252   3.899   3.371 -0.7189  0.6218  0.5295
 1697SOL    HW2 5412   1.177   3.915   3.515  0.1351 -1.4427  1.2489
 1698SOL     OW 5413   0.334   4.555   1.687 -0.4088  0.3390 -0.1716
 1698SOL    HW1 5414   0.398   4.632   1.701 -0.1890  0.1786 -0.2947
 1698SOL    HW2 5415   0.305   4.552   1.592  0.7569 -0.6374 -0.5186
 1699SOL     OW 5416   1.758   0.633   2.123  0.0717  0.8509 -0.5157
 1699SOL    HW1 5417   1.788   0.708   2.183 -0.8621 -0.6118  1.8991
 1699SOL    HW2 5418   1.825   0.559   2.126 -1.0669 -0.1783  0.5991
 1700SOL     OW 5419   1.517   5.331   1.357 -0.5214 -0.2810  0.0335
 1700SOL    HW1 5420   1.515   5.354   1.454  0.7686 -0.1737  0.0611
 1700SOL    HW2 5421   1.609   5.348   1.321 -0.7028 -1.2785 -0.9682
 1701SOL     OW 5422   0.507   4.243   3.252  0.4081  0.0570 -0.8076
 1701SOL    HW1 5423   0.471   4.301   3.325 -0.7212 -2.1841  0.5398
 1701SOL    HW2 5424   0.444   4.244   3.175 -0.1757 -0.2088 -0.3429
 1702SOL     OW 5425   5.526   2.502   4.300  0.1866  0.3683 -0.6021
 1702SOL    HW1 5426   5.602   2.461   4.349  0.3895  0.5906 -0.7305
 1702SOL    HW2 5427   5.442   2.491   4.353  0.0619 -1.0549 -1.0688
 1703SOL     OW 5428   4.674   0.243   3.286  0.0048 -0.2421 -0.1448
 1703SOL    HW1 5429   4.581   0.245   3.324  0.1495  0.2458  0.1988
 1703SOL    HW2 5430   4.674   0.288   3.197 -0.0179  0.1181  0.0328
 1704SOL     OW 5431   0.987   5.320   4.817  0.0460 -0.0415  0.1731
 1704SOL    HW1 5432   1.080   5.286   4.832 -0.9505 -3.3402 -0.3348
 1704SOL    HW2 5433   0.977   5.349   4.722  0.6170  0.7103  0.3282
 1705SOL     OW 5434   1.069   4.140   0.953  0.2467 -0.3059  0.2814
 1705SOL    HW1 5435   1.095   4.143   0.856 -0.2296  2.5313  0.1589
 1705SOL    HW2 5436   1.115   4.063   0.997  0.3950 -1.7525 -2.1873
 1706SOL     OW 5437   0.743   3.553   3.410  0.5519 -0.2808 -0.6606
 1706SOL    HW1 5438   0.768   3.462   3.441 -0.7286  0.2512  2.3004
 1706SOL    HW2 5439   0.663   3.547   3.350  1.1453 -1.1555 -1.3859
 1707SOL     OW 5440   0.683   4.932   0.858  0.2558 -0.3380 -0.3964
 1707SOL    HW1 5441   0.675   4.973   0.949  1.2669 -1.3280  0.1655
 1707SOL    HW2 5442   0.592   4.905   0.826 -0.3635  1.7509 -0.5392
 1708SOL     OW 5443   0.687   0.701   2.846 -0.4442  0.5287 -0.5497
 1708SOL    HW1 5444   0.664   0.769   2.916  2.0268 -0.4378  1.3481
 1708SOL    HW2 5445   0.606   0.646   2.825 -1.0914  0.2156  2.3239
 1709SOL     OW 5446   4.568   5.375   2.189  0.2867 -0.1294  0.1538
 1709SOL    HW1 5447   4.545   5.321   2.108  3.0163  1.0761 -1.5474
 1709SOL    HW2 5448   4.528   5.467   2.180  0.3972 -0.0665  0.3016
 1710SOL     OW 5449   5.499   4.937   4.323 -0.3433 -0.3308 -0.3401
 1710SOL    HW1 5450   5.421   4.997   4.339  0.6442  0.6994  0.8860
 1710SOL    HW2 5451   5.563   4.945   4.400 -0.4326 -3.4404  0.1932
 1711SOL     OW 5452   4.907   0.411   4.202 -0.4795 -0.2227  0.0415
 1711SOL    HW1 5453   4.919   0.356   4.119 -0.0719  0.5543 -0.4386
 1711SOL    HW2 5454   4.881   0.353   4.278 -1.0564 -0.9323 -0.6804
 1712SOL     OW 5455   0.274   3.880   4.519 -0.6657 -0.5883  0.2847
 1712SOL    HW1 5456   0.359   3.931   4.510 -0.5321 -0.9643 -0.6378
 1712SOL    HW2 5457   0.281   3.817   4.596 -0.0465 -0.7454  0.1009
 1713SOL     OW 5458   5.251   0.242   1.168 -0.1570 -0.5039 -0.0887
 1713SOL    HW1 5459   5.317   0.218   1.096  1.4543 -1.2089  1.5391
 1713SOL    HW2 5460   5.203   0.326   1.143  0.6877 -0.4849 -1.7733
 1714SOL     OW 5461   1.430   4.403   4.018  0.2418 -0.4917  0.0484
 1714SOL    HW1 5462   1.425   4.485   3.961 -1.6233 -0.1941  0.5387
 1714SOL    HW2 5463   1.465   4.428   4.109  1.6922 -0.6647 -0.4454
 1715SOL     OW 5464   2.042   4.309   5.436  0.2302  0.3005  0.1954
 1715SOL    HW1 5465   1.969   4.290   5.370 -0.3563  0.0956  0.8956
 1715SOL    HW2 5466   2.128   4.323   5.387 -0.2597  0.4605 -0.6326
 1716SOL     OW 5467   0.374   3.572   4.313 -0.0643 -0.4056 -0.1392
 1716SOL    HW1 5468   0.290   3.627   4.302  0.9492  1.0141 -1.2616
 1716SOL    HW2 5469   0.449   3.632   4.341  1.5633 -0.7361 -3.3302
 1717SOL     OW 5470   5.396   3.700   4.235 -0.0819  0.3924 -0.1367
 1717SOL    HW1 5471   5.437   3.617   4.273  1.5121  0.7123 -1.0725
 1717SOL    HW2 5472   5.314   3.675   4.183 -0.2790 -0.4403  0.5414
 1718SOL     OW 5473   5.315   0.074   0.134 -0.3096  0.0660 -0.1011
 1718SOL    HW1 5474   5.353   0.166   0.123 -0.8748  0.3273  0.1078
 1718SOL    HW2 5475   5.335   0.040   0.225 -1.8036  0.7916  0.5328
 1719SOL     OW 5476   1.451   0.625   0.274  0.3221 -0.1031 -0.5828
 1719SOL    HW1 5477   1.405   0.601   0.188 -2.1763 -0.5420  0.7950
 1719SOL    HW2 5478   1.418   0.566   0.347 -0.1126  2.4014  1.3490
 1720SOL     OW 5479   1.374   1.380   1.461 -0.5779  0.2953  0.1420
 1720SOL    HW1 5480   1.400   1.292   1.423 -0.9618 -0.2420  1.0749
 1720SOL    HW2 5481   1.423   1.453   1.414  0.1960 -0.4581 -0.2473
 1721SOL     OW 5482   5.274   0.016   4.672 -0.0770  0.0309 -0.0337
 1721SOL    HW1 5483   5.268   0.070   4.756  0.1711 -1.0360  0.6809
 1721SOL    HW2 5484   5.350  -0.048   4.678  0.4033  0.4359 -1.3795
 1722SOL     OW 5485   0.733   3.435   4.483  0.3107  0.1504  0.0816
 1722SOL    HW1 5486   0.666   3.365   4.508  1.1257 -1.1396 -1.1937
 1722SOL    HW2 5487   0.686   3.513   4.442 -0.4665 -0.4196 -0.1284
 1723SOL     OW 5488   3.066   0.546   4.428  0.0098  0.1548 -0.3845
 1723SOL    HW1 5489   3.089   0.451   4.406  2.5529  0.2565  1.5042
 1723SOL    HW2 5490   3.131   0.607   4.383 -0.4010  0.8992  0.0186
 1724SOL     OW 5491   0.925   3.181   5.045  0.4486 -0.5725 -0.0915
 1724SOL    HW1 5492   0.896   3.206   5.137  2.1126 -1.1072  0.6127
 1724SOL    HW2 5493   0.987   3.252   5.009  0.2022 -0.6108 -0.6035
 1725SOL     OW 5494   0.040   4.029   4.521  0.5201 -0.1566 -0.3573
 1725SOL    HW1 5495   0.120   3.969   4.516  0.2569 -0.6196  0.6369
 1725SOL    HW2 5496   0.059   4.115   4.474  2.2626  0.4693  1.3708
 1726SOL     OW 5497   2.868   5.573   4.391 -0.6494  0.3956 -0.2856
 1726SOL    HW1 5498   2.784   5.519   4.381  0.7063 -1.6217 -1.7713
 1726SOL    HW2 5499   2.947   5.514   4.375  1.0090  2.5928 -0.7023
 1727SOL     OW 5500   0.423   0.557   0.313  0.5975  0.0622  0.1613
 1727SOL    HW1 5501   0.339   0.592   0.271 -0.5045 -0.4376  1.8407
 1727SOL    HW2 5502   0.496   0.625   0.302 -0.8074  1.8433  1.1238
 1728SOL     OW 5503   0.763   5.491   4.127  0.6817 -0.2840 -0.4636
 1728SOL    HW1 5504   0.853   5.525   4.099  0.8545  1.0567  1.5268
 1728SOL    HW2 5505   0.749   5.399   4.090  2.8426 -0.5078 -0.8591
 1729SOL     OW 5506   2.358   0.173   5.484  0.4460  0.1254  0.0895
 1729SOL    HW1 5507   2.392   0.251   5.536 -0.1788  0.5556 -0.1346
 1729SOL    HW2 5508   2.340   0.097   5.546  0.0693  0.5060  0.4583
 1730SOL     OW 5509   4.167   3.988   4.253  0.5464  0.3676  0.2194
 1730SOL    HW1 5510   4.087   3.929   4.261 -0.3489  1.1549 -1.9857
 1730SOL    HW2 5511   4.146   4.078   4.290  0.2084  0.7115 -0.7651
 1731SOL     OW 5512   2.170   4.176   0.509  0.0791  0.3843  0.2765
 1731SOL    HW1 5513   2.074   4.197   0.488  0.0161  0.6060  0.7915
 1731SOL    HW2 5514   2.190   4.200   0.603  1.3438  2.7838 -0.5306
 1732SOL     OW 5515   0.774   4.602   4.026  0.5097  0.0139  0.6912
 1732SOL    HW1 5516   0.750   4.565   3.936  1.2995  1.0583  0.0186
 1732SOL    HW2 5517   0.855   4.556   4.061  0.5631  0.0197  0.5763
 1733SOL     OW 5518   1.382   0.133   3.298  0.0475  0.3530 -0.4443
 1733SOL    HW1 5519   1.357   0.223   3.263 -0.0536 -0.0044 -1.3079
 1733SOL    HW2 5520   1.408   0.141   3.395 -0.1873  1.2632 -0.4471
 1734SOL     OW 5521   3.759   0.022   5.065  0.4429  0.6043  0.2827
 1734SOL    HW1 5522   3.675  -0.012   5.023  1.6834 -0.7045 -1.2768
 1734SOL    HW2 5523   3.776   0.117   5.035 -0.2683  0.7388  0.2985
 1735SOL     OW 5524   1.778   4.843   4.127  0.0362  0.0719 -0.0260
 1735SOL    HW1 5525   1.708   4.914   4.117 -0.5944 -0.6589 -1.0828
 1735SOL    HW2 5526   1.854   4.862   4.065  3.1217  3.3530  4.1504
 1736SOL     OW 5527   4.542   4.629   5.305 -0.4690 -0.0595  0.0647
 1736SOL    HW1 5528   4.489   4.598   5.384 -0.9892  0.2558 -0.1597
 1736SOL    HW2 5529   4.487   4.619   5.222  0.2017 -0.7400 -0.3178
 1737SOL     OW 5530   1.310   5.386   0.091 -0.0676  0.4077 -0.1864
 1737SOL    HW1 5531   1.255   5.468   0.076 -0.2434 -0.0720 -2.7803
 1737SOL    HW2 5532   1.277   5.313   0.030  1.2598 -1.0069  0.7114
 1738SOL     OW 5533   0.602   4.702   4.480  0.0659 -0.0407  0.4066
 1738SOL    HW1 5534   0.623   4.648   4.561  0.1720 -0.4369  0.1176
 1738SOL    HW2 5535   0.625   4.650   4.398 -1.3851 -0.2270  0.0869
 1739SOL     OW 5536   0.391   1.057   2.169 -0.0813  0.2282  0.1370
 1739SOL    HW1 5537   0.393   1.068   2.268 -0.0779 -0.5085  0.2243
 1739SOL    HW2 5538   0.298   1.072   2.135  0.0596  1.2202  0.1515
 1740SOL     OW 5539   1.875   0.082   3.337 -0.0705 -0.0311 -0.0982
 1740SOL    HW1 5540   1.892   0.037   3.249 -0.5465  0.1677 -0.2995
 1740SOL    HW2 5541   1.910   0.176   3.332 -2.5818  0.9272 -1.0930
 1741SOL     OW 5542   0.899   3.244   4.130  0.1705 -0.4399  0.0385
 1741SOL    HW1 5543   0.937   3.183   4.200 -2.1241  0.7743  2.4823
 1741SOL    HW2 5544   0.861   3.189   4.055  2.6112 -1.7666 -0.3318
 1742SOL     OW 5545   2.324   3.791   1.174 -0.0061  0.4292  0.5158
 1742SOL    HW1 5546   2.275   3.782   1.261 -1.6654 -0.3208 -0.4496
 1742SOL    HW2 5547   2.271   3.746   1.102  0.5987  2.3138 -1.1655
 1743SOL     OW 5548  -0.001   0.421   0.863 -0.0331 -0.4595  0.6189
 1743SOL    HW1 5549  -0.014   0.501   0.921  1.5246 -1.0131  1.7847
 1743SOL    HW2 5550   0.080   0.433   0.806 -0.1184 -0.9768  0.3742
 1744SOL     OW 5551   0.236   3.778   1.165  0.1531 -0.1007 -0.5473
 1744SOL    HW1 5552   0.267   3.811   1.076  0.3941  1.5222  0.1158
 1744SOL    HW2 5553   0.273   3.835   1.237 -0.3564 -1.1597  0.5931
 1745SOL     OW 5554   1.800   0.181   3.857  0.3007  0.0475  0.4868
 1745SOL    HW1 5555   1.767   0.214   3.946 -0.0357 -0.1567  0.4378
 1745SOL    HW2 5556   1.722   0.164   3.797  0.3665 -2.0945  0.9291
 1746SOL     OW 5557   0.580   4.790   4.902  0.0589 -0.5416  0.7426
 1746SOL    HW1 5558   0.678   4.811   4.911  0.9095 -4.2409  2.2434
 1746SOL    HW2 5559   0.570   4.709   4.844 -2.1092 -0.3998  0.8679
 1747SOL     OW 5560   2.878   5.298   4.559  0.7784  0.1040 -0.0892
 1747SOL    HW1 5561   2.786   5.281   4.593  0.2355  1.9138 -0.5558
 1747SOL    HW2 5562   2.908   5.221   4.504  0.2686 -1.2967  1.5217
 1748SOL     OW 5563   3.844   5.448   3.865 -0.1915  0.3767 -0.1576
 1748SOL    HW1 5564   3.779   5.418   3.935  0.3560 -1.9749 -0.5802
 1748SOL    HW2 5565   3.839   5.547   3.856 -3.1203  0.3867  0.4022
 1749SOL     OW 5566   0.747   4.546   5.077  0.0577 -0.3258  0.1312
 1749SOL    HW1 5567   0.695   4.595   5.148 -0.0597 -0.2014 -0.0374
 1749SOL    HW2 5568   0.689   4.477   5.035 -0.3720  0.5995 -0.8696
 1750SOL     OW 5569   1.175   3.149   4.110 -0.1991 -0.6925 -0.1318
 1750SOL    HW1 5570   1.271   3.124   4.127 -0.4491 -1.0241  0.8751
 1750SOL    HW2 5571   1.120   3.124   4.189 -0.6193  2.4435  0.6872
 1751SOL     OW 5572   1.233   3.344   5.258  0.8830 -0.6338  0.5078
 1751SOL    HW1 5573   1.185   3.355   5.171  1.3505  0.5775  0.3734
 1751SOL    HW2 5574   1.173   3.373   5.333  1.1381  0.2138  0.3999
 1752SOL     OW 5575   3.500   0.119   3.916 -0.4808 -0.3256  0.3471
 1752SOL    HW1 5576   3.490   0.204   3.865 -1.8319  0.1183  1.2867
 1752SOL    HW2 5577   3.453   0.044   3.868  1.1561 -0.6941 -0.7476
 1753SOL     OW 5578   0.732   3.656   3.679 -0.5284  0.0763  0.1329
 1753SOL    HW1 5579   0.734   3.570   3.729 -2.4522  0.2952  0.6897
 1753SOL    HW2 5580   0.747   3.640   3.582 -1.6480 -1.0166  0.1190
 1754SOL     OW 5581   1.006   0.038   4.052  0.3393 -0.8374 -0.4388
 1754SOL    HW1 5582   0.979   0.126   4.014  0.6962  0.2823  1.7536
 1754SOL    HW2 5583   1.106   0.031   4.055  0.3921  0.1467  2.3818
 1755SOL     OW 5584   0.168   1.584   0.427  0.3520  0.1933  0.2516
 1755SOL    HW1 5585   0.214   1.598   0.514 -0.1763  1.0780  0.3943
 1755SOL    HW2 5586   0.075   1.620   0.431  0.5915  1.0108 -0.9370
 1756SOL     OW 5587   1.364   4.531   2.967  0.5459  0.5599 -0.0287
 1756SOL    HW1 5588   1.339   4.551   2.872  0.9692  0.1741 -0.2256
 1756SOL    HW2 5589   1.415   4.609   3.004  1.3852  0.2496 -0.4955
 1757SOL     OW 5590   1.423   2.814   4.892  0.0150 -0.0130 -0.4220
 1757SOL    HW1 5591   1.463   2.798   4.802  1.3155  1.4875 -0.1518
 1757SOL    HW2 5592   1.424   2.729   4.945  4.6873  0.2027  0.2515
 1758SOL     OW 5593   4.880   4.484   4.509 -0.5436  0.1408  0.4323
 1758SOL    HW1 5594   4.793   4.471   4.462 -0.1784 -1.0665  0.0620
 1758SOL    HW2 5595   4.892   4.412   4.577  2.0065 -2.3532 -2.3587
 1759SOL     OW 5596   5.422   4.640   4.469  0.0668 -0.0999 -0.6234
 1759SOL    HW1 5597   5.420   4.716   4.405 -1.0963 -0.6246 -1.2284
 1759SOL    HW2 5598   5.333   4.594   4.470  0.2083 -0.4096  1.0023
 1760SOL     OW 5599   4.842   4.181   4.120 -0.3701  0.3226  0.1277
 1760SOL    HW1 5600   4.812   4.261   4.171  1.4639  1.4595 -0.4800
 1760SOL    HW2 5601   4.904   4.126   4.176 -0.9232 -0.2091  0.2316
 1761SOL     OW 5602   0.381   0.563   3.075 -0.4165  0.4425 -0.2496
 1761SOL    HW1 5603   0.351   0.495   3.142  2.5768 -0.4817  0.3103
 1761SOL    HW2 5604   0.442   0.628   3.120  1.5583 -0.1223 -1.9604
 1762SOL     OW 5605   2.270   4.028   4.450 -0.0129  0.4721  0.2743
 1762SOL    HW1 5606   2.268   3.957   4.379 -0.3763  0.5518  0.2038
 1762SOL    HW2 5607   2.294   3.986   4.538 -0.6170  0.1967  0.3096
 1763SOL     OW 5608   5.449   0.041   0.376  0.2649  0.2049  0.2041
 1763SOL    HW1 5609   5.447   0.099   0.457 -0.3838 -1.5685  1.5329
 1763SOL    HW2 5610   5.526   0.067   0.317  0.9846  1.2754  1.5691
 1764SOL     OW 5611   2.223   3.394   3.730 -0.0166 -0.2164  0.3357
 1764SOL    HW1 5612   2.155   3.342   3.679  1.0459 -1.8259  0.5052
 1764SOL    HW2 5613   2.281   3.332   3.783  1.1148  1.1649  0.7980
 1765SOL     OW 5614   2.720   4.164   2.900  0.9434 -0.2918 -0.2183
 1765SOL    HW1 5615   2.797   4.222   2.927 -0.8845  1.8605  0.7369
 1765SOL    HW2 5616   2.695   4.184   2.806 -0.2263  1.2457  0.3681
 1766SOL     OW 5617   0.907   4.351   4.960  0.6603 -0.1387 -0.4508
 1766SOL    HW1 5618   0.981   4.284   4.959  0.9906  0.1713 -2.7713
 1766SOL    HW2 5619   0.917   4.410   5.040  2.2009 -0.8658 -0.0637
 1767SOL     OW 5620   1.795   4.387   4.241 -0.5644 -0.0361 -0.0276
 1767SOL    HW1 5621   1.697   4.404   4.250 -0.2988  0.7150  2.0189
 1767SOL    HW2 5622   1.844   4.474   4.240  0.0815 -0.3894 -1.4064
 1768SOL     OW 5623   5.549   3.708   0.898  0.0825  0.2922  0.6636
 1768SOL    HW1 5624   5.490   3.709   0.818  0.3947 -0.5743  0.4175
 1768SOL    HW2 5625   5.577   3.614   0.918 -0.3271  0.4441  2.0344
 1769SOL     OW 5626   2.353   4.582   3.712 -0.1189  0.0199 -0.2575
 1769SOL    HW1 5627   2.346   4.514   3.785  0.2486 -0.2578 -0.4769
 1769SOL    HW2 5628   2.426   4.647   3.735 -0.7780  0.6212  0.1747
 1770SOL     OW 5629   0.826   0.181   2.300 -0.9858 -0.5438  0.0169
 1770SOL    HW1 5630   0.773   0.119   2.244 -1.2549 -0.1061 -0.2142
 1770SOL    HW2 5631   0.886   0.128   2.361 -0.4114 -1.0207 -0.9365
 1771SOL     OW 5632   0.541   2.698   3.769 -0.3964 -0.3875 -0.8234
 1771SOL    HW1 5633   0.501   2.744   3.848 -1.3084 -0.2700 -1.3390
 1771SOL    HW2 5634   0.640   2.691   3.781 -0.6863 -2.2265  1.3024
 1772SOL     OW 5635   5.558   1.166   3.936  0.4670 -0.2048 -0.5909
 1772SOL    HW1 5636   5.495   1.112   3.991 -1.4243 -2.7974 -4.7856
 1772SOL    HW2 5637   5.507   1.223   3.872  2.4628  1.0670 -1.1568
 1773SOL     OW 5638   5.532   0.080   3.122 -0.8397  0.4083 -0.0530
 1773SOL    HW1 5639   5.467   0.110   3.053 -1.5287 -1.3359 -0.2333
 1773SOL    HW2 5640   5.564  -0.012   3.099  1.1133  0.9263  0.4490
 1774SOL     OW 5641   4.819   3.740   4.627  0.2808 -0.4602 -0.3268
 1774SOL    HW1 5642   4.757   3.802   4.675  0.6004  1.7869 -2.6449
 1774SOL    HW2 5643   4.767   3.664   4.589 -0.4766 -0.4321  0.6148
 1775SOL     OW 5644   0.630   2.896   4.537  0.5487 -0.6080  0.0994
 1775SOL    HW1 5645   0.569   2.870   4.462 -1.0686  1.5219  0.5708
 1775SOL    HW2 5646   0.697   2.963   4.504  1.0132 -1.0508  0.1443
 1776SOL     OW 5647   3.944   2.902   0.445  0.2134  0.1111  0.3954
 1776SOL    HW1 5648   3.858   2.904   0.394  0.4754  1.5828 -0.0335
 1776SOL    HW2 5649   3.941   2.968   0.520  0.9124  0.0839  0.4612
 1777SOL     OW 5650   1.178   4.235   4.667 -0.3881  0.5038 -0.3576
 1777SOL    HW1 5651   1.240   4.156   4.664  1.2166  1.7358 -0.9714
 1777SOL    HW2 5652   1.086   4.206   4.643 -0.1223 -1.4205  0.7407
 1778SOL     OW 5653   0.978   5.133   5.138  0.2295 -0.1396 -0.0622
 1778SOL    HW1 5654   1.012   5.213   5.187  1.3994  1.5082 -3.2186
 1778SOL    HW2 5655   0.881   5.144   5.119 -0.3610 -1.0404  2.1589
 1779SOL     OW 5656   1.088   1.020   1.348 -0.3803  0.4425  0.1023
 1779SOL    HW1 5657   0.997   1.060   1.335 -1.1393 -0.9970  0.6805
 1779SOL    HW2 5658   1.087   0.962   1.429  0.6364 -0.7720 -0.7091
 1780SOL     OW 5659   0.014   5.094   5.000 -0.2438 -0.0910 -0.8226
 1780SOL    HW1 5660  -0.011   5.036   5.077 -0.9698  0.3541 -0.7220
 1780SOL    HW2 5661   0.112   5.114   5.004 -0.1403 -0.6573 -0.4233
 1781SOL     OW 5662   1.083   4.908   4.517  0.5207 -0.1315 -0.4357
 1781SOL    HW1 5663   1.151   4.838   4.496  2.4119  1.7578 -0.9382
 1781SOL    HW2 5664   1.107   4.954   4.603 -0.2913  0.3776 -0.4683
 1782SOL     OW 5665   0.640   2.833   5.113 -0.1548 -0.0275  0.6632
 1782SOL    HW1 5666   0.676   2.904   5.053  2.3275 -0.3783  1.6282
 1782SOL    HW2 5667   0.640   2.866   5.207  0.6612 -1.1275  1.0725
 1783SOL     OW 5668   1.839   5.181   3.420 -0.3353 -0.3398 -0.0282
 1783SOL    HW1 5669   1.868   5.101   3.473 -0.0526 -0.2760 -0.0821
 1783SOL    HW2 5670   1.903   5.256   3.436 -0.6220 -0.1117  0.0526
 1784SOL     OW 5671   0.271   4.099   3.968 -0.5149  0.2214 -0.3713
 1784SOL    HW1 5672   0.254   4.014   4.019  1.1162  0.1274  0.0979
 1784SOL    HW2 5673   0.263   4.177   4.031  5.0083 -0.0889  1.2416
 1785SOL     OW 5674   1.002   2.880   5.016  0.0260 -0.3623 -0.0472
 1785SOL    HW1 5675   1.007   2.789   4.974  0.0808  0.3250 -1.6229
 1785SOL    HW2 5676   0.914   2.922   4.992  0.8086  0.7655 -1.0696
 1786SOL     OW 5677   4.838   2.921   0.735 -0.3842 -0.0259  0.1964
 1786SOL    HW1 5678   4.810   2.894   0.827 -1.1441  2.0130  0.6326
 1786SOL    HW2 5679   4.929   2.961   0.739 -0.8990  1.1818  0.3160
 1787SOL     OW 5680   0.982   4.472   0.030  0.2579  0.3743  0.1754
 1787SOL    HW1 5681   0.995   4.394   0.091 -0.3817 -0.3995 -0.6603
 1787SOL    HW2 5682   1.038   4.549   0.062  1.3239 -0.5893  0.6842
 1788SOL     OW 5683   0.200   2.720   4.129 -0.2289  0.0198 -0.3372
 1788SOL    HW1 5684   0.132   2.781   4.171 -0.3916 -0.7720  0.5763
 1788SOL    HW2 5685   0.237   2.659   4.198  2.4246  1.3002 -0.5043
 1789SOL     OW 5686   0.944   5.462   5.049 -0.5057  0.2324  0.0964
 1789SOL    HW1 5687   1.029   5.448   5.099  0.2850  0.5699 -1.1038
 1789SOL    HW2 5688   0.951   5.419   4.958 -1.5659  0.3814 -0.0719
 1790SOL     OW 5689   0.239   1.827   4.117 -0.1320 -0.4427 -0.5792
 1790SOL    HW1 5690   0.150   1.807   4.076  0.5162 -0.8621 -1.8585
 1790SOL    HW2 5691   0.293   1.883   4.053 -0.3930  2.0456  1.2388
 1791SOL     OW 5692   3.687   1.892   5.115  0.7196 -0.4463  0.3117
 1791SOL    HW1 5693   3.655   1.907   5.021 -1.1325  0.9310  1.0901
 1791SOL    HW2 5694   3.756   1.960   5.138  0.8173 -0.4703  0.0897
 1792SOL     OW 5695   1.175   4.779   3.753 -0.1066  0.0999 -0.7845
 1792SOL    HW1 5696   1.255   4.723   3.774  0.2692  1.0314  0.3317
 1792SOL    HW2 5697   1.155   4.840   3.829 -1.5090  0.3350 -1.3057
 1793SOL     OW 5698   0.843   3.186   4.711 -0.0129 -0.7433  0.6063
 1793SOL    HW1 5699   0.941   3.201   4.700 -0.0857 -0.5401  0.2170
 1793SOL    HW2 5700   0.804   3.259   4.767  0.1894 -1.2428  1.4059
 1794SOL     OW 5701   1.620   5.028   3.344 -0.0766 -0.0466 -0.0917
 1794SOL    HW1 5702   1.700   5.078   3.377  0.3541 -1.4624  1.1252
 1794SOL    HW2 5703   1.541   5.050   3.401 -0.4279  0.8700 -0.9045
 1795SOL     OW 5704   1.277   5.391   3.603  0.3589 -0.2882 -0.0149
 1795SOL    HW1 5705   1.250   5.483   3.635 -0.0939  0.2898 -1.9280
 1795SOL    HW2 5706   1.195   5.334   3.595  0.7508 -1.2708  2.2137
 1796SOL     OW 5707   3.166   4.173   3.331  0.2402 -0.1478  0.5761
 1796SOL    HW1 5708   3.154   4.212   3.422  0.4389  1.2633  0.0251
 1796SOL    HW2 5709   3.095   4.208   3.270  0.3661 -0.7367  0.0762
 1797SOL     OW 5710   2.657   4.113   4.804  0.4441 -0.1868  1.1856
 1797SOL    HW1 5711   2.694   4.021   4.792  0.8964  0.2108 -0.8852
 1797SOL    HW2 5712   2.694   4.173   4.733 -1.4360  1.0951  1.2118
 1798SOL     OW 5713   5.307   0.800   3.171  0.8730  0.1872  0.2430
 1798SOL    HW1 5714   5.374   0.735   3.206  0.9182  0.3642  0.4902
 1798SOL    HW2 5715   5.278   0.772   3.079  0.6766 -0.3352  0.4628
 1799SOL     OW 5716   2.140   4.760   5.136 -0.1307  0.1889  0.3601
 1799SOL    HW1 5717   2.112   4.842   5.086 -0.7519 -0.9619 -1.2644
 1799SOL    HW2 5718   2.074   4.741   5.208 -1.0926  0.0142 -0.5476
 1800SOL     OW 5719   0.146   4.128   1.812 -0.1855  0.0665 -0.1403
 1800SOL    HW1 5720   0.102   4.171   1.890 -0.9729 -0.7125 -0.1306
 1800SOL    HW2 5721   0.207   4.193   1.767  0.1972  0.5515  1.0527
 1801SOL     OW 5722   1.186   5.428   4.520 -0.2662  0.3197  0.1652
 1801SOL    HW1 5723   1.244   5.445   4.600  0.2801  1.8504 -0.5218
 1801SOL    HW2 5724   1.208   5.339   4.481  1.5477  0.8148 -0.0090
 1802SOL     OW 5725   0.582   3.671   4.652 -0.3665  0.3772  0.5364
 1802SOL    HW1 5726   0.540   3.756   4.684 -0.1780  0.2349  1.1682
 1802SOL    HW2 5727   0.581   3.603   4.725 -0.0222  0.0118  0.2090
 1803SOL     OW 5728   5.413   1.491   0.110  0.0534  0.1363 -0.2564
 1803SOL    HW1 5729   5.416   1.436   0.194  0.2758  1.0845  0.3736
 1803SOL    HW2 5730   5.502   1.533   0.095  0.0487 -0.1238 -1.0486
 1804SOL     OW 5731   2.180   5.098   4.879 -0.1337 -0.3161  0.1337
 1804SOL    HW1 5732   2.265   5.047   4.886 -0.1456 -0.3094  0.3380
 1804SOL    HW2 5733   2.200   5.195   4.865 -0.1126 -0.4471 -0.8066
 1805SOL     OW 5734   0.913   5.454   5.455 -0.1536 -0.0224  0.1331
 1805SOL    HW1 5735   0.921   5.427   5.551 -0.9338  1.6621  0.7300
 1805SOL    HW2 5736   0.998   5.497   5.425  0.1018 -0.5767  0.0637
 1806SOL     OW 5737   2.671   4.715   5.180  0.1231 -0.3350  0.1322
 1806SOL    HW1 5738   2.716   4.754   5.261 -2.3027  3.6297 -0.1632
 1806SOL    HW2 5739   2.630   4.627   5.204 -0.2450  0.5569  3.1677
 1807SOL     OW 5740   1.587   3.075   4.697 -0.0466  0.5287 -0.0859
 1807SOL    HW1 5741   1.584   3.169   4.664  0.4226  0.3903 -0.5361
 1807SOL    HW2 5742   1.609   3.075   4.795  0.1638  0.8797 -0.1313
 1808SOL     OW 5743   0.474   4.325   0.280  0.4821  0.5336 -0.3949
 1808SOL    HW1 5744   0.402   4.392   0.298  1.7609  2.1180 -0.8946
 1808SOL    HW2 5745   0.437   4.252   0.222 -0.8378  1.0187 -0.2157
 1809SOL     OW 5746   0.335   4.435   3.421 -0.8442 -0.1239  0.3264
 1809SOL    HW1 5747   0.261   4.482   3.374 -1.6587 -1.7878 -0.1393
 1809SOL    HW2 5748   0.298   4.377   3.494  0.1204  0.0205  0.9518
 1810SOL     OW 5749   1.119   5.080   3.829  0.3552  0.3633  0.7445
 1810SOL    HW1 5750   1.039   5.088   3.771  1.0851 -0.2946 -0.3952
 1810SOL    HW2 5751   1.119   5.153   3.897 -0.6971  0.9463  0.1332
 1811SOL     OW 5752   1.062   3.442   5.446  0.2965 -0.2855  0.2599
 1811SOL    HW1 5753   1.019   3.530   5.464  0.2855 -0.3287  0.4471
 1811SOL    HW2 5754   1.110   3.411   5.528 -1.1762 -1.2916  0.7755
 1812SOL     OW 5755   0.143   1.260   5.241 -0.0803 -0.5875 -0.2974
 1812SOL    HW1 5756   0.085   1.290   5.165  0.8305  1.5934 -0.1992
 1812SOL    HW2 5757   0.104   1.293   5.327  0.7368  0.0232 -0.1494
 1813SOL     OW 5758   1.592   1.376   3.416  0.1383 -0.3643 -0.0135
 1813SOL    HW1 5759   1.639   1.352   3.331  0.6555 -0.4247  0.2847
 1813SOL    HW2 5760   1.501   1.335   3.417  0.2637 -0.6512 -0.3867
 1814SOL     OW 5761   0.768   3.417   3.798 -0.2337  0.0408  0.2637
 1814SOL    HW1 5762   0.729   3.465   3.877 -0.6292 -1.0661  0.7589
 1814SOL    HW2 5763   0.755   3.319   3.809 -1.0655 -0.0888 -1.6178
 1815SOL     OW 5764   2.593   4.693   2.328 -0.1995 -0.0817 -0.5028
 1815SOL    HW1 5765   2.684   4.734   2.329  0.4532 -1.3545 -2.2633
 1815SOL    HW2 5766   2.597   4.602   2.371 -0.8596  0.2336  0.2460
 1816SOL     OW 5767   0.827   4.967   4.628 -0.6480  0.3112 -0.1465
 1816SOL    HW1 5768   0.882   4.898   4.581 -0.6517  0.6342 -0.6321
 1816SOL    HW2 5769   0.833   5.054   4.579 -1.0506  0.5243  0.1749
 1817SOL     OW 5770   3.053   0.879   3.336 -0.0822 -0.0148  0.1817
 1817SOL    HW1 5771   2.954   0.867   3.344 -0.0741 -0.3005 -0.1180
 1817SOL    HW2 5772   3.074   0.924   3.249 -0.0505  1.4265  0.9096
 1818SOL     OW 5773   5.512   4.916   4.775 -0.5268 -0.8773 -0.3701
 1818SOL    HW1 5774   5.576   4.850   4.815  0.9883  1.5308  1.5035
 1818SOL    HW2 5775   5.498   4.991   4.839  0.5432  2.3414 -3.5574
 1819SOL     OW 5776   1.168   4.529   5.073  0.4472  0.3935 -0.3088
 1819SOL    HW1 5777   1.188   4.502   5.167  0.9650  0.0942 -0.4985
 1819SOL    HW2 5778   1.185   4.451   5.012 -0.1900  0.4903 -0.6125
 1820SOL     OW 5779   2.661   4.036   5.294  0.3770 -0.1490  0.0814
 1820SOL    HW1 5780   2.677   4.074   5.203 -0.6772 -2.1696 -1.0192
 1820SOL    HW2 5781   2.586   4.086   5.338 -0.2194 -0.1837 -0.8582
 1821SOL     OW 5782   1.544   3.307   4.951 -0.2875 -0.0402  0.8207
 1821SOL    HW1 5783   1.527   3.210   4.970 -0.0916  0.0742  1.6264
 1821SOL    HW2 5784   1.460   3.359   4.967 -0.0833  0.0764  1.5416
 1822SOL     OW 5785   4.918   3.845   5.234  0.6643 -0.4059  0.3878
 1822SOL    HW1 5786   4.955   3.928   5.277 -1.1967  0.7669 -0.1399
 1822SOL    HW2 5787   4.893   3.779   5.304 -0.1123  0.4983  0.9918
 1823SOL     OW 5788   0.810   3.620   4.880  0.0866  0.3523 -0.2401
 1823SOL    HW1 5789   0.798   3.718   4.897 -2.7942  0.0724 -0.1321
 1823SOL    HW2 5790   0.867   3.608   4.798  1.5981  2.0332  0.4914
 1824SOL     OW 5791   3.489   5.393   5.296  0.0901 -0.0333  0.5625
 1824SOL    HW1 5792   3.411   5.342   5.260  1.4237 -0.8688 -1.2517
 1824SOL    HW2 5793   3.534   5.442   5.222  2.5976 -1.3287  1.1269
 1825SOL     OW 5794   1.285   3.786   4.199  0.6173  0.3717  0.1131
 1825SOL    HW1 5795   1.240   3.833   4.122  0.7229  0.7836  0.2991
 1825SOL    HW2 5796   1.243   3.697   4.213  0.7525  0.1908 -0.5773
 1826SOL     OW 5797   1.417   4.113   4.551  0.7492 -0.2184 -0.1822
 1826SOL    HW1 5798   1.424   4.096   4.453  1.2590  1.7638 -0.5349
 1826SOL    HW2 5799   1.509   4.113   4.591  0.6756  0.4252  0.0028
 1827SOL     OW 5800   4.644   0.305   3.994  0.1668  0.9070 -0.4093
 1827SOL    HW1 5801   4.553   0.275   4.024  0.7628  1.5943  2.4591
 1827SOL    HW2 5802   4.652   0.404   4.009  1.3638  0.8665 -0.7212
 1828SOL     OW 5803   0.060   4.222   5.198 -0.1183 -0.8001  0.5159
 1828SOL    HW1 5804   0.043   4.317   5.223  0.2143 -0.7864  0.6920
 1828SOL    HW2 5805   0.085   4.169   5.280  1.9338 -0.5461  0.1055
 1829SOL     OW 5806   2.637   3.113   4.956 -0.6604  0.1376 -0.3052
 1829SOL    HW1 5807   2.631   3.211   4.973  4.0446  0.4886  0.8993
 1829SOL    HW2 5808   2.621   3.063   5.042  2.2967  0.4296  0.5577
 1830SOL     OW 5809   0.139   4.592   3.354 -0.4600 -0.3695  0.3331
 1830SOL    HW1 5810   0.060   4.571   3.296 -0.3475  1.3605 -0.5098
 1830SOL    HW2 5811   0.123   4.679   3.401  0.5846 -0.4356  0.8347
 1831SOL     OW 5812   1.389   3.360   3.301  0.5119  0.0863  0.3205
 1831SOL    HW1 5813   1.422   3.431   3.239  1.7212 -1.5196 -0.9621
 1831SOL    HW2 5814   1.435   3.274   3.282 -1.2554 -1.2143  1.4852
 1832SOL     OW 5815   0.392   4.742   4.028 -0.3632 -0.4044  0.0590
 1832SOL    HW1 5816   0.448   4.714   3.950 -0.2765 -1.3650  0.4507
 1832SOL    HW2 5817   0.336   4.665   4.058  0.4979 -0.4349  1.6994
 1833SOL     OW 5818   2.088   4.702   3.744 -0.3874 -0.2800 -0.4039
 1833SOL    HW1 5819   2.057   4.782   3.796 -2.4603 -1.0253 -0.4052
 1833SOL    HW2 5820   2.188   4.702   3.739 -0.1820  0.7399  2.1157
 1834SOL     OW 5821   1.978   4.442   4.637  0.2686  0.4045  0.2263
 1834SOL    HW1 5822   2.077   4.442   4.650  0.1039 -0.8942  1.7873
 1834SOL    HW2 5823   1.938   4.366   4.689 -1.5079  0.6759 -0.6925
 1835SOL     OW 5824   5.432   4.683   5.012  0.1065  0.7264 -0.3175
 1835SOL    HW1 5825   5.438   4.766   5.068 -1.8799 -0.2509  1.4899
 1835SOL    HW2 5826   5.352   4.689   4.953 -1.2875 -0.6888  1.3357
 1836SOL     OW 5827   2.264   1.082   4.641  0.1643  0.4918  0.1767
 1836SOL    HW1 5828   2.223   1.173   4.637 -0.9606  0.1258  2.1986
 1836SOL    HW2 5829   2.204   1.016   4.595  0.6248  0.6354 -0.6468
 1837SOL     OW 5830   1.732   5.233   2.977  0.2581  0.3198  0.1115
 1837SOL    HW1 5831   1.736   5.257   2.880  1.0246 -1.0451 -0.2321
 1837SOL    HW2 5832   1.647   5.265   3.017 -0.0550  0.9165 -1.0157
 1838SOL     OW 5833   0.171   2.367   4.483  0.2089  0.3512  0.4349
 1838SOL    HW1 5834   0.268   2.359   4.460  0.4799  1.3234  1.1839
 1838SOL    HW2 5835   0.156   2.332   4.576  0.0400  1.1988  0.7317
 1839SOL     OW 5836   5.399   3.851   4.892 -0.1090  0.4947  0.1210
 1839SOL    HW1 5837   5.367   3.783   4.827 -0.4180  1.0822 -0.3472
 1839SOL    HW2 5838   5.360   3.832   4.982  1.3802 -1.1190  0.4744
 1840SOL     OW 5839   0.739   1.163   0.773 -0.1867  0.1660  0.5243
 1840SOL    HW1 5840   0.833   1.149   0.741 -0.3026  1.1811 -0.3533
 1840SOL    HW2 5841   0.732   1.254   0.814 -0.6208 -0.2031  1.2852
 1841SOL     OW 5842   5.093   4.358   0.199  0.1122 -0.4884 -0.5626
 1841SOL    HW1 5843   5.070   4.455   0.192 -1.1030 -0.7930 -0.8803
 1841SOL    HW2 5844   5.151   4.344   0.279  1.0421  0.6284 -1.0012
 1842SOL     OW 5845   1.516   5.448   5.421 -0.0809  0.0973  0.0506
 1842SOL    HW1 5846   1.518   5.396   5.335 -0.1488  1.5059 -0.8308
 1842SOL    HW2 5847   1.538   5.387   5.497 -0.2761 -1.2406 -0.9320
 1843SOL     OW 5848   5.050   4.740   2.621 -0.6058  0.1604  0.4519
 1843SOL    HW1 5849   5.094   4.811   2.565 -0.3397  0.0352  0.5005
 1843SOL    HW2 5850   5.069   4.650   2.581 -1.0458  0.1260  0.3223
 1844SOL     OW 5851   1.874   0.993   5.093 -0.1601  0.4705 -0.6520
 1844SOL    HW1 5852   1.817   1.008   5.012 -1.4746 -0.7726  0.0003
 1844SOL    HW2 5853   1.950   0.933   5.069 -2.8257 -3.4330 -0.2047
 1845SOL     OW 5854   1.246   0.187   2.446  0.2404 -0.0705  0.4507
 1845SOL    HW1 5855   1.215   0.102   2.403  0.3861 -0.1293  0.4607
 1845SOL    HW2 5856   1.288   0.166   2.534  2.2019 -0.2296 -0.4674
 1846SOL     OW 5857   2.818   0.204   4.577 -0.0374  0.0898  0.2324
 1846SOL    HW1 5858   2.742   0.177   4.636  0.5620 -0.6707  0.6899
 1846SOL    HW2 5859   2.841   0.128   4.517 -1.2700  1.1866 -1.7020
 1847SOL     OW 5860   1.098   4.231   0.126 -0.4686 -0.0446  0.0126
 1847SOL    HW1 5861   1.137   4.246   0.035 -1.2491 -0.6788 -0.4388
 1847SOL    HW2 5862   1.057   4.140   0.131  0.6803 -0.5203  1.4182
 1848SOL     OW 5863   1.263   3.306   3.712 -0.5311 -0.0799 -0.4609
 1848SOL    HW1 5864   1.270   3.383   3.649 -1.5330  0.6453  0.2767
 1848SOL    HW2 5865   1.170   3.301   3.748  0.2884  0.3203  1.9078
 1849SOL     OW 5866   1.907   2.937   5.060 -0.3145 -0.2713 -0.5705
 1849SOL    HW1 5867   2.003   2.930   5.033 -0.2616 -1.3511 -0.1622
 1849SOL    HW2 5868   1.900   2.986   5.147 -0.1907  0.3112 -0.8850
 1850SOL     OW 5869   4.342   0.072   4.700  0.4508  0.2370  0.4100
 1850SOL    HW1 5870   4.281   0.105   4.629  0.5228  0.3322  0.3922
 1850SOL    HW2 5871   4.293   0.009   4.760  0.6515 -0.6494 -0.3266
 1851SOL     OW 5872   1.669   3.966   3.825  0.0546  0.3030 -0.5280
 1851SOL    HW1 5873   1.622   4.048   3.856  0.3274  0.5181 -0.6790
 1851SOL    HW2 5874   1.607   3.888   3.832 -0.2589  0.5474 -0.5363
 1852SOL     OW 5875   0.710   0.628   4.622  0.1385 -0.2012  0.3567
 1852SOL    HW1 5876   0.705   0.684   4.705 -2.0783  1.4309 -0.8008
 1852SOL    HW2 5877   0.672   0.537   4.641 -0.9015  0.3490  1.0033
 1853SOL     OW 5878   1.153   3.900   4.682  0.4168  0.6744  0.1784
 1853SOL    HW1 5879   1.242   3.919   4.724  0.5967  0.8439 -0.2660
 1853SOL    HW2 5880   1.166   3.885   4.584  0.4044 -2.5901  0.5757
 1854SOL     OW 5881   1.710   4.483   1.735 -0.9685 -0.6090 -0.2781
 1854SOL    HW1 5882   1.742   4.473   1.641  0.0026 -1.8036  0.1511
 1854SOL    HW2 5883   1.739   4.404   1.789 -1.1003  0.2695  1.1455
 1855SOL     OW 5884   2.698   0.524   4.084  0.0332  0.2462 -0.2469
 1855SOL    HW1 5885   2.622   0.517   4.148  0.4130  0.7255  0.2720
 1855SOL    HW2 5886   2.705   0.439   4.031 -0.4426 -0.0618  0.1711
 1856SOL     OW 5887   5.165   0.947   0.536  0.0327  0.2229 -0.2257
 1856SOL    HW1 5888   5.253   0.917   0.572  0.1517  0.0041 -0.6929
 1856SOL    HW2 5889   5.156   0.917   0.441 -1.3722 -1.5850  0.3962
 1857SOL     OW 5890   0.620   3.564   2.734  0.6483  0.4828  0.0370
 1857SOL    HW1 5891   0.580   3.479   2.701  0.2836  1.1073 -1.1892
 1857SOL    HW2 5892   0.705   3.544   2.783 -0.1429 -0.6842  1.0033
 1858SOL     OW 5893   1.221   0.540   4.127  0.0289  1.0517 -0.3138
 1858SOL    HW1 5894   1.184   0.496   4.209  1.5034 -1.1767 -0.7481
 1858SOL    HW2 5895   1.306   0.588   4.151  0.9323 -0.3203 -0.5983
 1859SOL     OW 5896   0.833   0.429   4.093 -1.0205  0.1039  0.0912
 1859SOL    HW1 5897   0.868   0.421   4.186 -1.0288  0.4333  0.1233
 1859SOL    HW2 5898   0.878   0.362   4.034 -2.2926 -1.3600  0.6998
 1860SOL     OW 5899   1.628   4.723   4.319  0.5598  0.0412  0.0387
 1860SOL    HW1 5900   1.697   4.760   4.256  1.7895  1.3438  2.0139
 1860SOL    HW2 5901   1.673   4.697   4.405 -0.8049 -3.0878 -0.0627
 1861SOL     OW 5902   0.273   0.950   4.563 -0.5250 -0.1745 -0.0922
 1861SOL    HW1 5903   0.370   0.930   4.574  0.0853  2.1952 -0.7554
 1861SOL    HW2 5904   0.220   0.868   4.585  1.6156 -1.6466 -0.1426
 1862SOL     OW 5905   0.651   4.686   0.068 -0.0557  0.0118  0.1467
 1862SOL    HW1 5906   0.610   4.608   0.021 -1.5481  1.0524 -0.3525
 1862SOL    HW2 5907   0.605   4.700   0.155  0.0898  0.4413  0.1543
 1863SOL     OW 5908   2.820   4.151   5.519  0.2581 -0.0706  0.2263
 1863SOL    HW1 5909   2.829   4.070   5.578 -0.8769 -0.5216 -0.1953
 1863SOL    HW2 5910   2.782   4.124   5.431 -1.7999  1.1352  0.6818
 1864SOL     OW 5911   1.341   3.302   4.553 -0.0716 -0.3156 -0.4970
 1864SOL    HW1 5912   1.425   3.322   4.601 -0.7497  0.6770  0.3157
 1864SOL    HW2 5913   1.347   3.335   4.459  0.6189 -0.7023 -0.5898
 1865SOL     OW 5914   1.239   0.528   4.630  0.2778 -0.0884  0.0920
 1865SOL    HW1 5915   1.302   0.514   4.706 -0.6015  0.1436  0.8728
 1865SOL    HW2 5916   1.279   0.593   4.565  1.4099 -0.9530 -0.1061
 1866SOL     OW 5917   2.175   3.949   3.643 -0.2810  0.1422  0.1920
 1866SOL    HW1 5918   2.264   3.951   3.688  0.1042  0.0422 -0.5577
 1866SOL    HW2 5919   2.106   3.987   3.705  0.1605 -0.3778  1.0207
 1867SOL     OW 5920   1.564   1.105   3.680 -0.5235 -0.1536  0.7373
 1867SOL    HW1 5921   1.601   1.019   3.714 -0.0182  0.5849  2.1627
 1867SOL    HW2 5922   1.493   1.138   3.742 -0.3056  0.7308  0.5348
 1868SOL     OW 5923   1.963   4.350   2.956  0.2570 -0.1006  0.1465
 1868SOL    HW1 5924   2.010   4.331   2.871 -0.9763  1.4894 -0.9655
 1868SOL    HW2 5925   2.027   4.388   3.023  0.9836 -0.1330 -0.5292
 1869SOL     OW 5926   1.082   0.655   3.779 -0.0731  0.1477 -0.6016
 1869SOL    HW1 5927   0.995   0.655   3.830  0.5825 -0.2742  0.5469
 1869SOL    HW2 5928   1.130   0.570   3.795  0.3783  0.2077 -1.5794
 1870SOL     OW 5929   1.745   2.980   4.501  0.3575 -0.3026 -0.0177
 1870SOL    HW1 5930   1.686   3.000   4.579  0.9528  1.8193 -0.0409
 1870SOL    HW2 5931   1.840   3.004   4.524  0.4223  1.1902 -1.6168
 1871SOL     OW 5932   3.942   0.511   1.375  0.4682  0.5419  0.1175
 1871SOL    HW1 5933   4.004   0.438   1.403 -0.9579 -1.5985 -1.8404
 1871SOL    HW2 5934   3.941   0.515   1.275 -1.9962  0.9375  0.1118
 1872SOL     OW 5935   0.393   5.194   2.620 -0.2549  0.2342 -0.7671
 1872SOL    HW1 5936   0.377   5.129   2.545 -1.7193  1.8605 -1.9396
 1872SOL    HW2 5937   0.337   5.168   2.699  0.1563 -0.6365 -0.7489
 1873SOL     OW 5938   1.216   4.552   3.473 -0.0118 -0.4081  0.7731
 1873SOL    HW1 5939   1.211   4.636   3.527  0.2327  0.4117 -0.4438
 1873SOL    HW2 5940   1.186   4.475   3.529 -1.5808  0.6771  1.4938
 1874SOL     OW 5941   2.121   4.680   0.467  0.5407 -0.4737  0.0234
 1874SOL    HW1 5942   2.096   4.609   0.401  0.6428  0.0755 -0.6164
 1874SOL    HW2 5943   2.111   4.770   0.425  2.0727 -0.1694  0.2690
 1875SOL     OW 5944   1.686   0.434   4.310 -0.0968 -0.3695 -0.0253
 1875SOL    HW1 5945   1.587   0.430   4.329 -0.1926  0.0489 -0.4110
 1875SOL    HW2 5946   1.736   0.413   4.394 -0.5174  0.0174  0.3330
 1876SOL     OW 5947   5.136   0.828   1.536 -0.2627  0.0341 -0.1461
 1876SOL    HW1 5948   5.101   0.904   1.591 -1.1201 -0.4453 -0.0181
 1876SOL    HW2 5949   5.118   0.846   1.439  0.5557  0.5182 -0.2145
 1877SOL     OW 5950   1.541   5.266   4.004  0.4770  0.2743  1.1372
 1877SOL    HW1 5951   1.570   5.255   3.908 -0.6902 -0.4452  0.8456
 1877SOL    HW2 5952   1.596   5.336   4.047  0.6431  1.0346 -0.2457
 1878SOL     OW 5953   1.300   5.207   4.399 -0.0239 -0.3077 -0.1409
 1878SOL    HW1 5954   1.321   5.118   4.439 -0.1808 -0.1194  0.3571
 1878SOL    HW2 5955   1.311   5.202   4.299 -1.7326 -1.3653 -0.3044
 1879SOL     OW 5956   1.401   0.094   0.674 -0.4278 -0.2681 -0.1828
 1879SOL    HW1 5957   1.482   0.058   0.626  0.2059  1.5452 -0.5443
 1879SOL    HW2 5958   1.418   0.095   0.772 -0.4733 -0.9392 -0.1579
 1880SOL     OW 5959   4.908   4.135   5.310  0.6386  0.1919 -0.2748
 1880SOL    HW1 5960   4.946   4.198   5.378  0.8184 -0.7758  0.5351
 1880SOL    HW2 5961   4.978   4.114   5.242  0.6855  0.5862 -0.3528
 1881SOL     OW 5962   2.313   3.186   0.397 -0.3511  1.0262  0.3615
 1881SOL    HW1 5963   2.377   3.220   0.466  0.6371  0.4790 -0.2456
 1881SOL    HW2 5964   2.355   3.196   0.306 -0.8366  0.0215  0.0133
 1882SOL     OW 5965   1.408   3.886   3.642 -0.2797 -0.2538 -0.3560
 1882SOL    HW1 5966   1.336   3.857   3.579 -0.5360 -1.1961  0.3603
 1882SOL    HW2 5967   1.406   3.829   3.724  1.4506 -0.4756 -0.4337
 1883SOL     OW 5968   1.207   1.534   0.361  0.0392 -0.1945  0.1846
 1883SOL    HW1 5969   1.300   1.535   0.324  1.2507 -0.7416  2.9635
 1883SOL    HW2 5970   1.200   1.601   0.435 -1.0535 -1.7712  1.5788
 1884SOL     OW 5971   2.902   3.905   3.666  0.2525 -0.2838 -0.5226
 1884SOL    HW1 5972   2.885   3.874   3.573 -1.7046  1.3595 -0.8000
 1884SOL    HW2 5973   2.817   3.898   3.719  0.8167  0.6440  0.5582
 1885SOL     OW 5974   2.934   3.838   3.083 -0.5840 -0.1097 -0.7173
 1885SOL    HW1 5975   2.983   3.886   3.156 -0.9973  1.1647 -1.2532
 1885SOL    HW2 5976   2.983   3.755   3.059  1.5897  1.3315 -1.5507
 1886SOL     OW 5977   0.976   4.246   3.815 -0.0955 -0.2511  0.0790
 1886SOL    HW1 5978   0.928   4.185   3.752 -1.6063 -0.7814  1.6681
 1886SOL    HW2 5979   0.912   4.283   3.881  1.1576  1.5620  0.3686
 1887SOL     OW 5980   4.802   2.613   4.431  0.0043 -0.1121 -0.1515
 1887SOL    HW1 5981   4.726   2.565   4.475  0.5227 -0.0667  0.8284
 1887SOL    HW2 5982   4.880   2.551   4.426 -0.5333 -0.6737 -2.5562
 1888SOL     OW 5983   0.905   5.143   2.658  0.2124  0.2911  0.0792
 1888SOL    HW1 5984   0.936   5.049   2.645  0.0202  0.0603  1.2161
 1888SOL    HW2 5985   0.816   5.156   2.615  0.9300  0.4023 -1.4415
 1889SOL     OW 5986   0.599   1.215   5.301 -0.1359  0.5552 -0.3393
 1889SOL    HW1 5987   0.683   1.265   5.279 -0.1995  0.4133 -0.8945
 1889SOL    HW2 5988   0.522   1.279   5.304 -0.0891  0.6095 -0.2912
 1890SOL     OW 5989   0.811   3.279   3.471  0.0481 -0.6655  0.1759
 1890SOL    HW1 5990   0.898   3.276   3.522  0.1846 -3.2077 -0.0936
 1890SOL    HW2 5991   0.737   3.251   3.531  0.0560 -2.6215 -0.6634
 1891SOL     OW 5992   0.762   2.226   5.376  0.3138  0.0726  0.1992
 1891SOL    HW1 5993   0.777   2.297   5.444 -1.8875  0.4215  0.3910
 1891SOL    HW2 5994   0.812   2.248   5.292 -0.7564  2.1987  0.0430
 1892SOL     OW 5995   1.022   0.070   0.322  0.0556 -0.1302  0.6054
 1892SOL    HW1 5996   0.987   0.026   0.405  1.4426 -1.4729  0.5432
 1892SOL    HW2 5997   1.051   0.163   0.343 -0.4827 -0.1379  1.4103
 1893SOL     OW 5998   0.828   1.212   4.993  0.0941 -0.3661 -0.1085
 1893SOL    HW1 5999   0.909   1.268   4.975 -1.8986  2.3175 -1.5430
 1893SOL    HW2 6000   0.817   1.198   5.091  1.8121 -0.0535  0.1501
 1894SOL     OW 6001   4.206   0.144   0.595 -0.2153  0.3095  0.1892
 1894SOL    HW1 6002   4.187   0.239   0.619 -0.5830 -0.2136  2.1594
 1894SOL    HW2 6003   4.246   0.140   0.504 -2.6394  2.1294 -1.0954
 1895SOL     OW 6004   2.075   0.716   2.684  0.7417  0.3331  0.2296
 1895SOL    HW1 6005   2.052   0.801   2.731  1.3941  0.3811  0.4831
 1895SOL    HW2 6006   2.155   0.732   2.625  0.1808  0.1727 -0.5874
 1896SOL     OW 6007   2.480   3.751   4.504 -0.3624 -1.0706 -0.6548
 1896SOL    HW1 6008   2.547   3.680   4.525 -0.1224 -0.4054  0.9604
 1896SOL    HW2 6009   2.389   3.721   4.534 -0.2972 -0.8055 -0.1781
 1897SOL     OW 6010   1.901   3.203   4.829 -0.6422 -0.2210 -0.5892
 1897SOL    HW1 6011   1.896   3.128   4.895  0.6603 -0.6649 -0.9529
 1897SOL    HW2 6012   1.929   3.167   4.740 -2.4577  0.3580 -1.4405
 1898SOL     OW 6013   1.648   4.337   4.526 -0.2993  0.0231  0.5173
 1898SOL    HW1 6014   1.695   4.265   4.475 -0.0087  2.3881 -2.9236
 1898SOL    HW2 6015   1.688   4.344   4.617  0.3933 -3.3309  0.6036
 1899SOL     OW 6016   0.354   4.726   2.739  0.6085  0.4900 -0.1375
 1899SOL    HW1 6017   0.260   4.745   2.710  0.9760  0.0322 -1.7851
 1899SOL    HW2 6018   0.365   4.747   2.836 -1.1831  0.5655  0.0785
 1900SOL     OW 6019   3.919   3.788   4.872  0.8009 -0.1601 -0.5739
 1900SOL    HW1 6020   3.886   3.881   4.854  0.7275 -0.3147 -1.2518
 1900SOL    HW2 6021   3.862   3.746   4.942  2.0933  1.0337  1.2998
 1901SOL     OW 6022   2.843   4.622   4.793 -0.5910 -0.2073  0.3373
 1901SOL    HW1 6023   2.856   4.698   4.858 -0.3638 -0.1415  0.2162
 1901SOL    HW2 6024   2.859   4.535   4.840  0.0368 -0.1401  0.2584
 1902SOL     OW 6025   5.066   4.375   3.171  0.0884  0.1430 -0.4755
 1902SOL    HW1 6026   4.986   4.399   3.117  0.3062 -0.8599 -1.2898
 1902SOL    HW2 6027   5.065   4.276   3.190 -0.7682  0.6467  2.6711
 1903SOL     OW 6028   2.755   5.432   5.320  0.5351 -0.0166 -0.5928
 1903SOL    HW1 6029   2.674   5.477   5.283  0.5741  0.2311 -0.3714
 1903SOL    HW2 6030   2.727   5.356   5.378  0.4145  1.0475  0.7882
 1904SOL     OW 6031   1.173   4.467   5.341  0.0596 -0.5777 -0.3942
 1904SOL    HW1 6032   1.082   4.457   5.382  0.1975 -3.9688 -0.6327
 1904SOL    HW2 6033   1.242   4.467   5.413  0.0067 -1.0585 -0.3386
 1905SOL     OW 6034   4.887   0.214   4.398  0.1163 -0.4780  0.0811
 1905SOL    HW1 6035   4.882   0.152   4.319 -0.6047 -0.9342  0.4794
 1905SOL    HW2 6036   4.973   0.198   4.447  0.6057 -0.1470 -0.6300
 1906SOL     OW 6037   1.144   1.012   0.027 -0.2611  0.5437 -0.1568
 1906SOL    HW1 6038   1.156   1.106   0.061  1.4187  0.7854 -1.2987
 1906SOL    HW2 6039   1.234   0.970   0.014 -1.0052 -1.5719  1.1888
 1907SOL     OW 6040   3.223   2.048   4.514 -0.0175 -0.1316  0.0751
 1907SOL    HW1 6041   3.144   2.006   4.558 -0.6354 -0.0573 -0.9233
 1907SOL    HW2 6042   3.281   1.976   4.475 -0.8426 -0.1212 -1.2434
 1908SOL     OW 6043   0.842   4.862   4.047 -0.7467  0.2503  0.2866
 1908SOL    HW1 6044   0.816   4.774   4.007  3.4953 -0.2220 -1.9091
 1908SOL    HW2 6045   0.859   4.850   4.145 -0.8687 -1.2173  0.1482
 1909SOL     OW 6046   1.804   5.207   5.201 -0.1555  0.2078 -0.4246
 1909SOL    HW1 6047   1.866   5.164   5.268  0.4279  0.2616 -0.9254
 1909SOL    HW2 6048   1.856   5.270   5.144 -1.0429  1.7874  0.4551
 1910SOL     OW 6049   1.154   4.270   3.379  0.0061  0.2618  0.1624
 1910SOL    HW1 6050   1.162   4.281   3.478 -1.7583  0.4756  0.3059
 1910SOL    HW2 6051   1.076   4.322   3.346  0.4951  0.0831 -1.3423
 1911SOL     OW 6052   4.883   5.244   2.707  0.2840  0.2153  0.1067
 1911SOL    HW1 6053   4.847   5.337   2.706  1.6258  0.7512 -0.1751
 1911SOL    HW2 6054   4.954   5.236   2.777  0.1352 -0.6217  0.1783
 1912SOL     OW 6055   4.762   2.891   0.481  0.1628  0.4738 -0.3198
 1912SOL    HW1 6056   4.795   2.977   0.444 -0.6528  0.6134 -0.7477
 1912SOL    HW2 6057   4.778   2.889   0.580  1.6329  0.4259 -0.5333
 1913SOL     OW 6058   0.184   2.956   5.141  0.3175  0.1443  0.2008
 1913SOL    HW1 6059   0.266   2.993   5.186  0.7627 -1.8454  1.1842
 1913SOL    HW2 6060   0.120   2.925   5.211 -0.1582 -0.6111 -0.5505
 1914SOL     OW 6061   0.729   3.713   5.323  0.2413  0.1531  0.1039
 1914SOL    HW1 6062   0.760   3.687   5.415 -0.2570  0.6160  0.4063
 1914SOL    HW2 6063   0.634   3.741   5.327 -0.5819 -2.2404 -0.9955
 1915SOL     OW 6064   1.215   4.289   4.960  0.4887  0.3570  0.2908
 1915SOL    HW1 6065   1.244   4.205   5.007  3.3421  1.7279  1.1938
 1915SOL    HW2 6066   1.238   4.283   4.863 -1.0537 -0.5976 -0.0473
 1916SOL     OW 6067   0.199   3.357   2.705  0.3373  0.1650  0.6318
 1916SOL    HW1 6068   0.154   3.443   2.729 -0.1541 -0.3530  1.6475
 1916SOL    HW2 6069   0.183   3.336   2.609 -1.2014  0.2439  0.8461
 1917SOL     OW 6070   1.098   0.095   5.366  0.0638 -0.0501  0.2997
 1917SOL    HW1 6071   1.196   0.098   5.342  0.2780 -1.1635  0.9567
 1917SOL    HW2 6072   1.044   0.103   5.283  0.7415 -0.6272 -0.2125
 1918SOL     OW 6073   1.541   2.076   4.337  0.6057 -0.0099  0.6095
 1918SOL    HW1 6074   1.558   2.090   4.434 -1.0759  0.9742  0.8094
 1918SOL    HW2 6075   1.626   2.090   4.286  1.3166  0.3510  1.8489
 1919SOL     OW 6076   0.013   4.960   4.043 -0.1819  0.3802 -0.1769
 1919SOL    HW1 6077  -0.020   4.979   4.136  1.5744  2.3413  0.1224
 1919SOL    HW2 6078   0.033   4.863   4.034 -1.2853 -0.0124  1.1668
 1920SOL     OW 6079   0.520   3.891   5.066  0.4738  0.5912  0.2745
 1920SOL    HW1 6080   0.607   3.940   5.081  0.6432 -0.4059  3.3374
 1920SOL    HW2 6081   0.539   3.794   5.055 -0.1399  0.6650 -1.7445
 1921SOL     OW 6082   2.392   2.062   0.952  0.5699 -0.3384  0.2870
 1921SOL    HW1 6083   2.482   2.096   0.980  0.8714 -2.2700  1.9099
 1921SOL    HW2 6084   2.360   1.994   1.019 -2.2159  0.4483 -0.1104
 1922SOL     OW 6085   0.223   4.564   1.423  0.2190  0.4595  0.4877
 1922SOL    HW1 6086   0.315   4.554   1.385  0.0182  0.6152 -0.0368
 1922SOL    HW2 6087   0.155   4.541   1.354 -0.2028  2.5896  0.1423
 1923SOL     OW 6088   2.791   5.138   0.643  0.3680  0.5364 -0.2672
 1923SOL    HW1 6089   2.761   5.234   0.648 -0.9492  0.3159 -2.5434
 1923SOL    HW2 6090   2.721   5.079   0.683 -1.6943  0.1710 -3.9605
 1924SOL     OW 6091   3.776   1.927   1.973  0.3666 -0.1764 -0.2583
 1924SOL    HW1 6092   3.680   1.900   1.968  0.4447 -0.3895 -0.6320
 1924SOL    HW2 6093   3.830   1.869   1.913  0.8551 -0.5914  0.5770
 1925SOL     OW 6094   2.623   1.787   5.531 -0.4501  0.1498  0.2144
 1925SOL    HW1 6095   2.656   1.879   5.510  2.7831 -1.0157 -0.3315
 1925SOL    HW2 6096   2.595   1.741   5.447  2.1746 -0.7962 -0.2288
 1926SOL     OW 6097   2.937   1.250   1.355 -0.3256 -0.2641  0.7044
 1926SOL    HW1 6098   2.889   1.274   1.270  0.3160 -0.5557  0.2555
 1926SOL    HW2 6099   2.898   1.303   1.430 -0.0743  0.9563  0.0183
 1927SOL     OW 6100   2.677   0.166   0.894 -0.0253  0.1665  0.0637
 1927SOL    HW1 6101   2.596   0.114   0.922  0.3452  0.7884  2.4636
 1927SOL    HW2 6102   2.732   0.189   0.974  1.3433  1.7738 -1.2554
 1928SOL     OW 6103   0.674   1.264   1.296 -0.4697 -0.3382  0.3789
 1928SOL    HW1 6104   0.582   1.262   1.257 -1.0493  0.4083  1.6321
 1928SOL    HW2 6105   0.667   1.259   1.396  0.9275 -1.6217  0.4274
 1929SOL     OW 6106   2.896   1.925   2.747  0.3689  0.0345  0.5174
 1929SOL    HW1 6107   2.854   1.969   2.826 -2.1839 -1.2087 -0.0710
 1929SOL    HW2 6108   2.833   1.926   2.670  2.0649 -0.4950 -0.9564
 1930SOL     OW 6109   3.581   1.753   1.887  0.2427 -0.2414 -1.1308
 1930SOL    HW1 6110   3.566   1.688   1.962  0.8358  0.6681 -0.1882
 1930SOL    HW2 6111   3.588   1.703   1.801  0.1905 -1.3786 -0.5035
 1931SOL     OW 6112   2.362   2.076   2.590 -0.6432  0.0214 -0.3577
 1931SOL    HW1 6113   2.456   2.104   2.571 -0.4481 -0.2304  0.2286
 1931SOL    HW2 6114   2.342   1.991   2.540  0.4112 -1.5741  1.7359
 1932SOL     OW 6115   4.119   1.438   0.099 -0.1309 -0.4189 -0.1469
 1932SOL    HW1 6116   4.029   1.458   0.138 -0.5681  0.6417 -1.6219
 1932SOL    HW2 6117   4.181   1.515   0.116 -0.4422  0.2393 -1.7926
 1933SOL     OW 6118   3.762   5.494   0.836  0.2206  0.5307 -0.1071
 1933SOL    HW1 6119   3.814   5.438   0.900 -1.1457  0.0199  0.5905
 1933SOL    HW2 6120   3.786   5.468   0.742  0.7823 -0.0840  0.1987
 1934SOL     OW 6121   1.966   5.448   1.035 -0.2675 -0.3174 -0.2862
 1934SOL    HW1 6122   2.020   5.381   0.982  2.2835  0.8859  0.6205
 1934SOL    HW2 6123   2.015   5.535   1.037 -1.0622  0.1507  2.7016
 1935SOL     OW 6124   5.129   2.246   5.463  0.2248  0.0706  0.4301
 1935SOL    HW1 6125   5.102   2.257   5.367 -1.7467 -1.1195  0.7969
 1935SOL    HW2 6126   5.087   2.319   5.518  0.6842  0.2673  0.5326
 1936SOL     OW 6127   1.411   1.831   5.025  0.1013 -0.2801  0.0707
 1936SOL    HW1 6128   1.452   1.825   5.116 -0.3017 -1.3836  0.2006
 1936SOL    HW2 6129   1.476   1.793   4.958 -0.3643 -1.2745  0.1687
 1937SOL     OW 6130   4.071   1.809   1.268  0.4528  0.1206  0.2014
 1937SOL    HW1 6131   4.117   1.812   1.357  0.3180 -1.7869  0.3944
 1937SOL    HW2 6132   4.051   1.901   1.237  1.8328  0.8756  1.4578
 1938SOL     OW 6133   3.033   1.948   0.571  0.0161 -0.7073  0.5289
 1938SOL    HW1 6134   3.126   1.983   0.567 -0.4583  0.5108 -0.5908
 1938SOL    HW2 6135   3.026   1.878   0.643  1.9363 -1.3214  0.1595
 1939SOL     OW 6136   0.985   2.690   5.240 -0.5332 -0.4959  0.2820
 1939SOL    HW1 6137   1.076   2.677   5.279 -0.4383 -0.5688  0.0336
 1939SOL    HW2 6138   0.985   2.770   5.181 -0.0783 -1.7050 -1.4219
 1940SOL     OW 6139   1.971   1.625   1.212 -0.5418  0.1219 -0.6183
 1940SOL    HW1 6140   1.915   1.612   1.130 -3.1505  0.6807  0.9424
 1940SOL    HW2 6141   1.964   1.544   1.270  0.2463  0.2293 -0.3624
 1941SOL     OW 6142   2.999   1.573   4.861 -0.3562 -0.0457 -0.1881
 1941SOL    HW1 6143   3.052   1.638   4.915  0.9683 -0.8125 -0.5306
 1941SOL    HW2 6144   2.909   1.559   4.904 -0.2557  1.1883  0.4557
 1942SOL     OW 6145   1.692   5.507   2.690  1.1315 -0.0848  0.0879
 1942SOL    HW1 6146   1.759   5.493   2.616  0.2942 -0.1007 -0.6877
 1942SOL    HW2 6147   1.645   5.421   2.709  0.2694  0.2630 -0.4334
 1943SOL     OW 6148   3.663   0.130   1.008  0.0711 -0.1868  0.3253
 1943SOL    HW1 6149   3.567   0.158   1.004 -0.0739 -0.7468 -0.2205
 1943SOL    HW2 6150   3.688   0.082   0.924  0.6708 -0.5396  0.6934
 1944SOL     OW 6151   3.541   3.309   4.912  0.4968 -0.8530 -0.0092
 1944SOL    HW1 6152   3.577   3.343   4.998 -0.5882 -0.8016  0.4306
 1944SOL    HW2 6153   3.509   3.385   4.856  3.3004 -0.6325 -1.4901
 1945SOL     OW 6154   2.300   2.681   4.450 -0.5871  0.1672  0.4517
 1945SOL    HW1 6155   2.270   2.738   4.374 -1.0430 -1.3542 -0.5701
 1945SOL    HW2 6156   2.388   2.639   4.427 -1.1239 -0.9596  0.3684
 1946SOL     OW 6157   4.291   1.069   0.799 -0.1876 -0.2291  0.3398
 1946SOL    HW1 6158   4.273   1.163   0.828  0.0227 -1.1735  4.1381
 1946SOL    HW2 6159   4.212   1.011   0.821  0.6322 -1.3534  0.4128
 1947SOL     OW 6160   3.369   0.500   1.182 -0.1103 -0.3783  0.1765
 1947SOL    HW1 6161   3.299   0.567   1.158  0.9521  1.1602  1.2254
 1947SOL    HW2 6162   3.447   0.510   1.120  0.9200  0.8260  1.5907
 1948SOL     OW 6163   1.427   1.816   1.925 -0.2940 -0.1136  0.3067
 1948SOL    HW1 6164   1.346   1.790   1.871 -0.1055  0.9151 -0.4928
 1948SOL    HW2 6165   1.450   1.911   1.907  1.8691 -0.7390 -0.4703
 1949SOL     OW 6166   3.561   2.237   1.704  0.4618  0.0369  0.0181
 1949SOL    HW1 6167   3.471   2.280   1.701  0.7670  0.7002  0.0871
 1949SOL    HW2 6168   3.551   2.138   1.714 -0.3010  0.3455  3.7719
 1950SOL     OW 6169   1.975   1.047   0.358 -0.5444 -0.0860 -0.2815
 1950SOL    HW1 6170   2.019   1.136   0.363  0.0890 -0.4170  0.2082
 1950SOL    HW2 6171   1.896   1.052   0.296  0.4686  0.3922 -1.5665
 1951SOL     OW 6172   1.970   1.594   0.744 -0.6316 -0.0468 -0.1758
 1951SOL    HW1 6173   1.917   1.576   0.826 -0.1547 -1.2312 -0.1012
 1951SOL    HW2 6174   1.951   1.522   0.676 -0.8713  0.8036 -1.0307
 1952SOL     OW 6175   4.226   0.795   5.461 -0.1441 -0.8370  0.5377
 1952SOL    HW1 6176   4.239   0.784   5.560 -0.6823  1.3374  0.9047
 1952SOL    HW2 6177   4.221   0.892   5.439 -2.4251 -1.2773 -1.2970
 1953SOL     OW 6178   3.361   1.994   1.527 -0.4448 -0.5878  0.1315
 1953SOL    HW1 6179   3.392   1.997   1.622  1.5621  1.3453 -0.4988
 1953SOL    HW2 6180   3.419   1.931   1.476  0.4035  0.5713 -0.3774
 1954SOL     OW 6181   3.701   2.641   1.598 -0.3650  0.1117 -0.6721
 1954SOL    HW1 6182   3.773   2.703   1.565  0.0191 -0.6015 -1.1900
 1954SOL    HW2 6183   3.730   2.546   1.585  1.1981 -0.4046  4.3348
 1955SOL     OW 6184   0.528   4.549   0.571 -0.1356 -0.6505 -0.2406
 1955SOL    HW1 6185   0.528   4.466   0.516 -1.3052 -0.7790 -0.0677
 1955SOL    HW2 6186   0.503   4.627   0.513  2.1143 -0.1903 -0.6831
 1956SOL     OW 6187   4.026   1.438   5.121 -0.3782 -0.3488  0.1571
 1956SOL    HW1 6188   4.095   1.379   5.079  0.0146 -0.7166  1.2951
 1956SOL    HW2 6189   3.935   1.402   5.103 -0.1949 -0.7023 -0.0591
 1957SOL     OW 6190   2.710   1.656   1.392 -0.2933 -0.1957  0.2460
 1957SOL    HW1 6191   2.808   1.665   1.374 -0.5797  1.9049 -0.6311
 1957SOL    HW2 6192   2.686   1.712   1.472 -0.7147 -1.0984  0.7622
 1958SOL     OW 6193   3.263   4.518   0.625 -0.0151 -0.3567  0.3252
 1958SOL    HW1 6194   3.317   4.582   0.572 -0.7885 -0.5207 -0.6903
 1958SOL    HW2 6195   3.230   4.562   0.709 -1.0200  0.7585 -0.6369
 1959SOL     OW 6196   1.112   1.370   2.224  0.1864  0.4575 -0.0065
 1959SOL    HW1 6197   1.143   1.393   2.132  0.6776 -1.0116 -0.2274
 1959SOL    HW2 6198   1.126   1.272   2.241  1.5416  0.9668  2.1829
 1960SOL     OW 6199   3.364   1.583   0.488  0.0956 -0.2851  0.0273
 1960SOL    HW1 6200   3.299   1.563   0.416  1.4992  1.4065 -1.8229
 1960SOL    HW2 6201   3.439   1.517   0.485 -0.2913 -0.7693  0.5910
 1961SOL     OW 6202   3.818   5.112   1.696  0.3692 -0.0308  0.2796
 1961SOL    HW1 6203   3.742   5.092   1.758 -0.0054 -1.3740 -0.5510
 1961SOL    HW2 6204   3.783   5.158   1.615  0.5979  0.2307  0.3304
 1962SOL     OW 6205   3.122   0.639   1.175  0.0571 -0.2967  0.2598
 1962SOL    HW1 6206   3.044   0.583   1.147 -0.1213 -0.1759  0.5108
 1962SOL    HW2 6207   3.125   0.645   1.275  1.6282 -2.0765  0.3795
 1963SOL     OW 6208   1.704   2.328   2.366 -0.2839  0.2738  0.0660
 1963SOL    HW1 6209   1.677   2.237   2.397  0.3803  0.3152  0.7905
 1963SOL    HW2 6210   1.744   2.321   2.275 -1.6550  0.0647 -0.5585
 1964SOL     OW 6211   3.349   1.022   1.283 -0.2719 -0.4945  0.0118
 1964SOL    HW1 6212   3.252   1.018   1.259 -1.0388 -1.0047  2.7938
 1964SOL    HW2 6213   3.373   0.945   1.342  1.2048  0.8608  1.3100
 1965SOL     OW 6214   2.318   0.807   1.933  0.1260  0.0788  0.3670
 1965SOL    HW1 6215   2.244   0.769   1.989  1.6726 -2.5302  0.8193
 1965SOL    HW2 6216   2.394   0.832   1.993  0.4143  0.7066 -0.2617
 1966SOL     OW 6217   4.228   2.414   0.265  0.3553 -0.2516 -0.1926
 1966SOL    HW1 6218   4.254   2.511   0.270 -0.4943 -0.0653  1.2260
 1966SOL    HW2 6219   4.308   2.359   0.243  1.3193  0.5874  1.1039
 1967SOL     OW 6220   0.693   1.887   1.884  0.2078  0.1208 -0.4235
 1967SOL    HW1 6221   0.750   1.968   1.866  0.1034  0.8425  2.1047
 1967SOL    HW2 6222   0.738   1.828   1.951 -1.4547  0.1288  0.7791
 1968SOL     OW 6223   4.627   5.281   0.037 -0.3075  0.0140  0.1128
 1968SOL    HW1 6224   4.554   5.283   0.105 -0.0203  2.5092  0.4438
 1968SOL    HW2 6225   4.594   5.234  -0.046 -1.8909  0.1180  0.6460
 1969SOL     OW 6226   0.797   1.297   2.811 -0.6350 -0.3396  0.0766
 1969SOL    HW1 6227   0.793   1.327   2.716  1.7310 -1.6664 -0.5127
 1969SOL    HW2 6228   0.840   1.208   2.816  1.0286  0.5046  2.5622
 1970SOL     OW 6229   3.275   1.297   2.114  0.9149 -0.3725 -0.1671
 1970SOL    HW1 6230   3.300   1.387   2.080  1.9918 -1.0140 -1.1403
 1970SOL    HW2 6231   3.182   1.275   2.085  0.6141  0.4391  0.1486
 1971SOL     OW 6232   2.396   1.139   1.586  0.0348 -0.1992 -0.0143
 1971SOL    HW1 6233   2.414   1.102   1.495  2.1880 -1.0369  0.6972
 1971SOL    HW2 6234   2.324   1.084   1.629  0.6666 -1.3115 -0.3360
 1972SOL     OW 6235   2.348   2.343   0.984 -0.3239 -0.5820  0.0394
 1972SOL    HW1 6236   2.353   2.245   1.002 -2.3930 -0.8048 -0.3781
 1972SOL    HW2 6237   2.436   2.386   1.007  0.5635 -2.4869  0.3632
 1973SOL     OW 6238   2.383   1.041   5.136 -0.0163  0.5133 -0.1881
 1973SOL    HW1 6239   2.399   0.989   5.220  0.3288  0.1953 -0.4477
 1973SOL    HW2 6240   2.311   1.108   5.152 -0.3714  0.0483  0.1926
 1974SOL     OW 6241   4.173   0.257   1.733  0.7249 -0.3549  0.2191
 1974SOL    HW1 6242   4.106   0.307   1.677 -1.4813 -1.0388  2.0802
 1974SOL    HW2 6243   4.184   0.165   1.697 -0.3044 -0.6336  0.5779
 1975SOL     OW 6244   3.867   0.741   1.996 -0.0570  0.1871  0.4816
 1975SOL    HW1 6245   3.803   0.668   1.975  2.5003 -1.1354 -4.0952
 1975SOL    HW2 6246   3.824   0.830   1.979 -0.2168 -0.6462 -6.2701
 1976SOL     OW 6247   4.225   1.777   0.555  0.0472 -0.3916 -0.0008
 1976SOL    HW1 6248   4.179   1.831   0.484  1.6590 -0.1702 -0.9284
 1976SOL    HW2 6249   4.311   1.742   0.519  1.9811  1.4838  2.4585
 1977SOL     OW 6250   1.450   1.610   1.325 -0.0042  0.1541  0.1561
 1977SOL    HW1 6251   1.493   1.696   1.297 -0.8915  0.7385  0.5671
 1977SOL    HW2 6252   1.456   1.544   1.249  1.9869  0.0569  0.3432
 1978SOL     OW 6253   1.489   2.931   2.776 -0.5410 -0.1781 -0.1802
 1978SOL    HW1 6254   1.523   2.850   2.730 -0.4520 -0.3715  0.2190
 1978SOL    HW2 6255   1.564   2.996   2.789 -0.2558 -0.7020  0.9059
 1979SOL     OW 6256   2.457   2.458   0.697 -0.1097 -0.7408  0.0886
 1979SOL    HW1 6257   2.494   2.369   0.668  0.7465 -0.1744 -0.5939
 1979SOL    HW2 6258   2.435   2.454   0.794  0.7933 -1.4174  0.2845
 1980SOL     OW 6259   2.213   0.561   2.308 -0.1133  0.1519  0.2961
 1980SOL    HW1 6260   2.302   0.532   2.273  0.0051  0.9906 -0.1132
 1980SOL    HW2 6261   2.154   0.588   2.231 -0.4240  0.4332  0.6303
 1981SOL     OW 6262   2.689   2.038   5.389 -0.2585  0.2911 -0.1751
 1981SOL    HW1 6263   2.786   2.059   5.379  0.3780 -0.3106  3.2781
 1981SOL    HW2 6264   2.634   2.117   5.362  1.2273  0.9843 -1.2644
 1982SOL     OW 6265   3.247   1.327   0.228 -0.0043  0.3712 -0.0291
 1982SOL    HW1 6266   3.344   1.308   0.241 -0.1717  0.2211  1.1637
 1982SOL    HW2 6267   3.228   1.422   0.255 -0.3241  0.1497  0.5384
 1983SOL     OW 6268   2.804   5.581   1.720  0.0824 -0.5912  0.0186
 1983SOL    HW1 6269   2.837   5.531   1.801  0.0768 -0.4099  0.1332
 1983SOL    HW2 6270   2.834   5.534   1.637 -0.3080 -1.0387  0.1268
 1984SOL     OW 6271   0.116   0.818   2.191  0.3675  0.2937 -0.2844
 1984SOL    HW1 6272   0.178   0.795   2.266 -0.4546 -0.4145  0.2026
 1984SOL    HW2 6273   0.053   0.890   2.222  1.2286  1.3555 -0.9332
 1985SOL     OW 6274   3.144   1.581   0.298  0.3660  0.1777  0.3288
 1985SOL    HW1 6275   3.160   1.657   0.235  0.7398 -0.0435  0.1513
 1985SOL    HW2 6276   3.049   1.583   0.331  0.3107  0.5802  0.1426
 1986SOL     OW 6277   4.723   1.839   4.960 -0.6209 -0.4292 -0.1479
 1986SOL    HW1 6278   4.654   1.776   4.927 -0.2281 -0.7715 -0.3312
 1986SOL    HW2 6279   4.811   1.791   4.968 -0.3971  0.0060  0.0374
 1987SOL     OW 6280   2.964   4.205   2.461 -0.2833  0.2535  0.3249
 1987SOL    HW1 6281   2.970   4.129   2.396 -1.0924 -0.3097  0.8857
 1987SOL    HW2 6282   2.905   4.277   2.423  0.2555  0.4836 -0.0863
 1988SOL     OW 6283   2.887   0.249   0.207  0.2424  0.4109  1.2080
 1988SOL    HW1 6284   2.831   0.237   0.289  0.3140  1.5202  1.4248
 1988SOL    HW2 6285   2.983   0.263   0.234  0.2622  0.8037  0.9345
 1989SOL     OW 6286   3.062   1.307   2.946  0.0658 -0.0342  0.3206
 1989SOL    HW1 6287   3.019   1.221   2.916  0.1099  0.3904 -1.0535
 1989SOL    HW2 6288   3.152   1.315   2.904 -0.7852  1.6525 -1.3476
 1990SOL     OW 6289   3.277   1.410   1.072 -0.5882 -0.0309  0.4610
 1990SOL    HW1 6290   3.308   1.347   1.000 -2.1448 -0.9048  0.5176
 1990SOL    HW2 6291   3.240   1.493   1.030  0.4299  0.3794  0.3476
 1991SOL     OW 6292   1.944   5.174   4.158 -0.1597 -0.4840 -0.4263
 1991SOL    HW1 6293   2.040   5.172   4.185  0.0998  2.5726 -0.8200
 1991SOL    HW2 6294   1.887   5.166   4.240  0.4442 -0.8778 -0.0377
 1992SOL     OW 6295   2.568   2.633   4.392  0.1899  0.8843 -0.1446
 1992SOL    HW1 6296   2.599   2.542   4.366 -0.0339  1.5051 -2.8140
 1992SOL    HW2 6297   2.620   2.702   4.343 -0.9538  2.1443  0.3475
 1993SOL     OW 6298   1.478   1.166   1.033  0.0608 -0.0346 -0.2029
 1993SOL    HW1 6299   1.483   1.104   0.954 -1.4037  3.1086 -3.0002
 1993SOL    HW2 6300   1.383   1.176   1.061  0.1111  1.7569 -0.5776
 1994SOL     OW 6301   3.460   4.328   0.940 -0.4603 -0.2203 -0.3143
 1994SOL    HW1 6302   3.542   4.332   0.996 -1.1622 -0.0655  0.7189
 1994SOL    HW2 6303   3.484   4.295   0.848  0.8016  0.1991 -0.1472
 1995SOL     OW 6304   3.712   1.450   4.357 -0.0458 -0.4181 -0.1520
 1995SOL    HW1 6305   3.800   1.473   4.316  0.4945 -1.0571  0.6201
 1995SOL    HW2 6306   3.640   1.503   4.313  0.7580  0.3259 -0.6002
 1996SOL     OW 6307   2.302   1.480   0.886  0.1121  0.3220 -0.0015
 1996SOL    HW1 6308   2.400   1.475   0.869  0.4549  1.5441  1.3984
 1996SOL    HW2 6309   2.268   1.572   0.865 -0.4265  0.3485  0.9122
 1997SOL     OW 6310   2.287   3.729   5.291  0.0322  0.0252 -0.4927
 1997SOL    HW1 6311   2.263   3.826   5.294 -2.0501 -0.4199 -0.8506
 1997SOL    HW2 6312   2.212   3.675   5.330 -0.0441 -1.5939 -2.6818
 1998SOL     OW 6313   2.206   0.996   3.048  0.5130 -0.0462 -0.1062
 1998SOL    HW1 6314   2.286   0.937   3.059  0.6993 -0.2229 -2.0167
 1998SOL    HW2 6315   2.234   1.091   3.056  0.4966 -0.1443  1.3966
 1999SOL     OW 6316   3.076   0.783   5.170 -0.5007 -0.0555 -0.2419
 1999SOL    HW1 6317   2.993   0.798   5.117 -0.3011  0.3685 -0.4461
 1999SOL    HW2 6318   3.066   0.703   5.228 -1.0588  0.0110 -0.2482
 2000SOL     OW 6319   1.749   1.059   0.196  0.5648 -0.3928  0.5505
 2000SOL    HW1 6320   1.739   0.959   0.190  1.5344 -0.4889  0.3892
 2000SOL    HW2 6321   1.658   1.101   0.204  0.0525 -1.1861 -0.8473
 2001SOL     OW 6322   2.952   1.283   0.765 -0.1409 -0.0061 -0.0156
 2001SOL    HW1 6323   3.034   1.243   0.722 -0.6472 -0.9091 -0.1726
 2001SOL    HW2 6324   2.887   1.309   0.694  0.5262  1.9701  0.0239
 2002SOL     OW 6325   4.044   0.154   0.218  0.3194 -0.4575  0.1899
 2002SOL    HW1 6326   4.033   0.142   0.119 -1.2078 -0.7231  0.3774
 2002SOL    HW2 6327   4.043   0.252   0.240  2.0967 -0.3141 -0.1781
 2003SOL     OW 6328   1.695   0.148   0.209 -0.3203  0.5720  0.2394
 2003SOL    HW1 6329   1.601   0.114   0.211 -1.0269  2.3770 -0.0114
 2003SOL    HW2 6330   1.720   0.181   0.300 -0.9349  2.5228 -0.2428
 2004SOL     OW 6331   3.427   5.053   1.715  0.1093 -0.6585 -0.1577
 2004SOL    HW1 6332   3.382   4.987   1.776 -2.5793  0.3262 -0.9472
 2004SOL    HW2 6333   3.519   5.073   1.750 -1.3814  0.0993  3.8054
 2005SOL     OW 6334   3.531   0.174   0.528 -0.0908 -0.6880 -0.0950
 2005SOL    HW1 6335   3.600   0.182   0.599  1.0769 -0.7912 -1.1729
 2005SOL    HW2 6336   3.572   0.132   0.447 -0.8861  0.9932 -1.4378
 2006SOL     OW 6337   2.499   0.516   2.303  0.3565 -0.0068 -0.0315
 2006SOL    HW1 6338   2.555   0.564   2.370  0.1290  0.1634  0.0397
 2006SOL    HW2 6339   2.533   0.535   2.211 -0.4924  1.3323 -0.0933
 2007SOL     OW 6340   3.467   2.113   0.885 -1.2229  0.5306 -0.0927
 2007SOL    HW1 6341   3.478   2.063   0.971  0.1546 -0.3256 -0.7189
 2007SOL    HW2 6342   3.448   2.210   0.904  2.4994  1.1658  1.3296
 2008SOL     OW 6343   4.731   0.852   1.334 -0.2663 -0.4019  0.0864
 2008SOL    HW1 6344   4.750   0.789   1.409 -0.6657  1.4603  1.8183
 2008SOL    HW2 6345   4.643   0.828   1.292 -0.1847 -1.2694  0.3869
 2009SOL     OW 6346   4.571   2.337   1.711  0.3772  0.0784  0.1530
 2009SOL    HW1 6347   4.552   2.334   1.809 -0.1481 -0.4018  0.0444
 2009SOL    HW2 6348   4.644   2.402   1.693  0.3444  0.3150  0.8428
 2010SOL     OW 6349   4.570   3.000   5.463  0.3064  0.1246 -0.0973
 2010SOL    HW1 6350   4.492   2.960   5.416  0.9763  0.7593 -1.8268
 2010SOL    HW2 6351   4.567   3.100   5.454  1.9118  0.1130 -1.2762
 2011SOL     OW 6352   3.498   0.676   2.342  0.3418 -0.3225  0.5073
 2011SOL    HW1 6353   3.528   0.724   2.260  1.9027  0.4095  1.4649
 2011SOL    HW2 6354   3.459   0.587   2.317  3.6259 -1.5139 -0.8469
 2012SOL     OW 6355   3.243   0.844   0.195  0.1769  0.3474 -0.1432
 2012SOL    HW1 6356   3.186   0.804   0.123  0.6365 -1.7591  0.6027
 2012SOL    HW2 6357   3.309   0.777   0.226  1.5546  1.9974  0.6389
 2013SOL     OW 6358   1.736   0.257   0.462  0.3170 -0.1798  0.1214
 2013SOL    HW1 6359   1.833   0.276   0.482  0.2886  0.4363 -0.3063
 2013SOL    HW2 6360   1.679   0.314   0.521  0.2254  0.3738 -0.4891
 2014SOL     OW 6361   3.880   0.150   1.739 -0.6937  0.6562  0.2072
 2014SOL    HW1 6362   3.907   0.168   1.834  0.4795  2.8904 -0.4768
 2014SOL    HW2 6363   3.895   0.054   1.718 -1.5749 -0.0435  2.4403
 2015SOL     OW 6364   0.938   1.325   1.519  0.3208  0.6372 -0.2726
 2015SOL    HW1 6365   0.901   1.414   1.546  2.2849  1.2715  0.5816
 2015SOL    HW2 6366   0.913   1.256   1.587 -2.7324  0.0428 -1.8471
 2016SOL     OW 6367   3.663   5.349   0.176 -0.0350  0.0820  0.1567
 2016SOL    HW1 6368   3.735   5.288   0.207 -1.7361 -0.8598  2.5379
 2016SOL    HW2 6369   3.595   5.360   0.248 -1.3974  2.3426 -1.3421
 2017SOL     OW 6370   1.605   2.662   2.658  0.1154  0.5219 -0.2043
 2017SOL    HW1 6371   1.690   2.695   2.699 -0.3035  0.9965  0.3061
 2017SOL    HW2 6372   1.565   2.591   2.717  0.5166 -0.2116 -0.8056
 2018SOL     OW 6373   4.429   2.713   1.081  0.2360 -0.3320  0.2816
 2018SOL    HW1 6374   4.490   2.780   1.122  0.1374 -1.0315  1.6422
 2018SOL    HW2 6375   4.483   2.639   1.040  0.3299 -0.9782  1.5313
 2019SOL     OW 6376   2.654   5.062   1.119 -0.5834  0.4260  0.2686
 2019SOL    HW1 6377   2.748   5.072   1.151 -0.1401 -1.5571 -0.2825
 2019SOL    HW2 6378   2.618   4.972   1.147 -1.5127  0.2164 -1.4338
 2020SOL     OW 6379   2.703   1.336   2.158 -0.3617  0.3737 -0.3633
 2020SOL    HW1 6380   2.607   1.349   2.185 -0.6952  1.1561 -1.8248
 2020SOL    HW2 6381   2.707   1.287   2.071  0.4405  2.1323 -1.3812
 2021SOL     OW 6382   2.947   2.119   5.368  0.2988 -0.0129  0.2515
 2021SOL    HW1 6383   2.983   2.201   5.324 -1.4367  0.1000 -1.0525
 2021SOL    HW2 6384   2.979   2.038   5.319 -1.8542  0.1208 -1.5419
 2022SOL     OW 6385   1.337   1.375   2.012 -0.2612 -0.2535 -0.0368
 2022SOL    HW1 6386   1.319   1.426   1.929  1.4253 -1.5204 -1.2686
 2022SOL    HW2 6387   1.426   1.330   2.004 -1.4553 -3.0447  1.0956
 2023SOL     OW 6388   1.325   0.649   1.229 -0.0777 -0.2359 -1.0614
 2023SOL    HW1 6389   1.244   0.700   1.201 -1.1744 -1.2832  0.0817
 2023SOL    HW2 6390   1.347   0.670   1.324  2.5913  1.9911 -2.0190
 2024SOL     OW 6391   1.155   0.196   0.685 -0.4011  0.2133 -0.1144
 2024SOL    HW1 6392   1.136   0.193   0.783  0.4428 -1.8157  0.0435
 2024SOL    HW2 6393   1.242   0.149   0.667 -1.2935 -0.8349 -1.9832
 2025SOL     OW 6394   3.813   0.739   0.685  0.1491 -0.1567  0.6091
 2025SOL    HW1 6395   3.862   0.685   0.617 -0.8916  1.0912 -1.2076
 2025SOL    HW2 6396   3.793   0.682   0.765  1.2498 -1.7057 -0.1791
 2026SOL     OW 6397   0.347   4.320   5.445  0.0729  0.2182  0.2428
 2026SOL    HW1 6398   0.353   4.256   5.369 -0.7634  0.5507 -0.1172
 2026SOL    HW2 6399   0.313   4.273   5.526 -2.4627  0.5612 -0.5322
 2027SOL     OW 6400   3.020   0.929   0.776 -0.4732 -0.1856 -0.3825
 2027SOL    HW1 6401   3.083   0.891   0.844  0.3089 -0.3540 -1.1865
 2027SOL    HW2 6402   2.975   0.855   0.727 -0.5006 -0.0635 -0.5416
 2028SOL     OW 6403   1.212   0.483   0.763 -0.5015  0.5258 -0.0315
 2028SOL    HW1 6404   1.217   0.555   0.694 -0.3611 -1.2968 -2.0167
 2028SOL    HW2 6405   1.303   0.467   0.800  0.4041 -1.5308 -2.8153
 2029SOL     OW 6406   2.765   0.108   2.670  0.2019  0.3277 -0.6146
 2029SOL    HW1 6407   2.696   0.133   2.737  0.1386 -0.2287 -0.4690
 2029SOL    HW2 6408   2.856   0.132   2.705  0.3202 -1.4321  0.4000
 2030SOL     OW 6409   2.688   1.826   1.601  0.5930 -0.2523 -0.2935
 2030SOL    HW1 6410   2.640   1.789   1.680 -0.7552  1.4307 -0.2625
 2030SOL    HW2 6411   2.775   1.867   1.630  0.5331 -0.4601  0.1803
 2031SOL     OW 6412   2.313   1.871   2.061 -0.3142 -0.1540  0.5128
 2031SOL    HW1 6413   2.394   1.891   2.117 -0.0387 -0.1742  0.1299
 2031SOL    HW2 6414   2.338   1.877   1.965 -0.7364 -0.3142  0.3927
 2032SOL     OW 6415   4.820   3.697   1.938  0.2143  0.2301  0.6016
 2032SOL    HW1 6416   4.850   3.770   2.000 -1.1763  1.6509 -0.3378
 2032SOL    HW2 6417   4.722   3.681   1.950 -0.3623  1.3933 -2.0258
 2033SOL     OW 6418   1.401   1.995   3.105  0.1059 -0.4643  0.2111
 2033SOL    HW1 6419   1.456   2.079   3.101  0.6662 -0.8686 -0.7873
 2033SOL    HW2 6420   1.340   2.000   3.184 -0.1634  1.0683 -0.0617
 2034SOL     OW 6421   2.752   4.736   0.481 -0.2498 -0.2481  0.0598
 2034SOL    HW1 6422   2.852   4.728   0.482  0.1112  3.0486 -0.4512
 2034SOL    HW2 6423   2.714   4.674   0.412  1.3840 -1.7054  0.4100
 2035SOL     OW 6424   2.132   0.125   2.143 -0.0381 -0.2885 -0.0188
 2035SOL    HW1 6425   2.227   0.102   2.165  0.0044 -1.5563 -1.3322
 2035SOL    HW2 6426   2.107   0.212   2.186  2.3761  1.1651 -1.3529
 2036SOL     OW 6427   3.546   4.947   0.324  0.2017 -0.1243  0.7638
 2036SOL    HW1 6428   3.473   5.015   0.324 -0.1986 -0.5547  1.0151
 2036SOL    HW2 6429   3.582   4.937   0.417 -0.8491 -1.4367  1.0613
 2037SOL     OW 6430   3.255   1.656   1.518  0.4495 -0.1376  0.4575
 2037SOL    HW1 6431   3.241   1.606   1.433 -0.1788  0.4325  0.2202
 2037SOL    HW2 6432   3.347   1.696   1.518 -0.0130  0.9949 -0.5695
 2038SOL     OW 6433   3.832   0.606   0.333  0.3734  0.1374 -0.2672
 2038SOL    HW1 6434   3.849   0.657   0.248 -0.8532 -2.7519 -2.4312
 2038SOL    HW2 6435   3.746   0.636   0.373  0.3212  0.6749 -0.7651
 2039SOL     OW 6436   0.579   2.726   2.805  0.2789 -0.2732 -0.0142
 2039SOL    HW1 6437   0.562   2.780   2.722  0.5074 -0.3608 -0.1193
 2039SOL    HW2 6438   0.677   2.715   2.818  0.2487 -0.0718  0.3940
 2040SOL     OW 6439   2.077   2.604   1.247  0.1340  0.0077  0.2115
 2040SOL    HW1 6440   2.078   2.627   1.344 -2.8920 -1.3539  0.6950
 2040SOL    HW2 6441   2.016   2.667   1.198 -0.1047 -0.6564 -0.3685
 2041SOL     OW 6442   2.884   0.728   0.677 -0.4399 -0.0272 -0.6348
 2041SOL    HW1 6443   2.802   0.680   0.645 -0.4392  0.5564 -1.5467
 2041SOL    HW2 6444   2.958   0.717   0.610 -0.1386  0.4331 -0.3860
 2042SOL     OW 6445   5.575   0.650   2.433  0.5915  0.0088 -0.1715
 2042SOL    HW1 6446   5.543   0.622   2.523  0.2963  0.9052  0.0063
 2042SOL    HW2 6447   5.498   0.655   2.370  0.8387 -0.9305 -0.5748
 2043SOL     OW 6448   2.415   1.388   1.525  0.0659 -0.1126  0.5014
 2043SOL    HW1 6449   2.515   1.386   1.519  0.0471 -2.3573  0.2790
 2043SOL    HW2 6450   2.382   1.306   1.571 -1.7046  0.6794  0.7526
 2044SOL     OW 6451   1.680   1.677   2.050  0.2282  0.2142 -0.0752
 2044SOL    HW1 6452   1.617   1.750   2.023  0.4303 -0.0249 -1.2426
 2044SOL    HW2 6453   1.731   1.705   2.131  0.6779  1.5953 -0.7995
 2045SOL     OW 6454   3.369   1.171   1.753  0.6129 -0.0300 -0.3552
 2045SOL    HW1 6455   3.281   1.219   1.751  0.8193  0.4551  1.2388
 2045SOL    HW2 6456   3.431   1.217   1.817  1.7600 -0.8452 -0.8482
 2046SOL     OW 6457   4.884   1.862   2.814  0.6608 -0.5785 -0.0167
 2046SOL    HW1 6458   4.895   1.868   2.914 -1.7723 -0.8047  0.3278
 2046SOL    HW2 6459   4.880   1.955   2.776 -2.1645 -0.3103  0.6760
 2047SOL     OW 6460   2.671   1.145   1.977  0.5062  0.6754 -0.2665
 2047SOL    HW1 6461   2.698   1.130   1.882 -0.3643 -2.0599 -0.1721
 2047SOL    HW2 6462   2.700   1.067   2.033 -0.9487  1.1652  1.2685
 2048SOL     OW 6463   3.309   4.596   1.037  0.2144 -0.1631  0.2632
 2048SOL    HW1 6464   3.349   4.506   1.054 -2.2948 -0.8977  3.1604
 2048SOL    HW2 6465   3.228   4.586   0.978  2.1781  0.8893 -2.8764
 2049SOL     OW 6466   2.478   4.356   5.437 -0.1505  0.0460  0.2119
 2049SOL    HW1 6467   2.400   4.309   5.394  2.1882 -2.5174 -1.5893
 2049SOL    HW2 6468   2.502   4.308   5.522 -0.0693  0.3537  0.3627
 2050SOL     OW 6469   3.009   1.079   1.548 -0.5522  0.1587  0.6192
 2050SOL    HW1 6470   3.015   1.146   1.622 -1.3778  0.4497  0.4407
 2050SOL    HW2 6471   2.985   1.127   1.463 -0.9370 -0.3395  0.4439
 2051SOL     OW 6472   0.793   0.036   1.640 -0.1403 -0.4395  0.5767
 2051SOL    HW1 6473   0.725   0.017   1.710 -1.8402  0.0809 -0.8272
 2051SOL    HW2 6474   0.746   0.069   1.557  1.8859  0.5393 -0.2492
 2052SOL     OW 6475   0.511   0.712   1.718 -0.1865  0.4596 -0.7857
 2052SOL    HW1 6476   0.481   0.806   1.702  1.5783  0.9665 -1.3894
 2052SOL    HW2 6477   0.511   0.661   1.632 -2.2380 -0.5013 -0.2928
 2053SOL     OW 6478   2.920   5.076   1.730 -0.4672  0.1340  0.1820
 2053SOL    HW1 6479   2.913   4.981   1.698 -1.2703  0.1262  0.3602
 2053SOL    HW2 6480   2.876   5.085   1.819  1.6513  0.1903  1.2633
 2054SOL     OW 6481   1.677   1.912   1.038 -0.4809 -0.6084 -0.0187
 2054SOL    HW1 6482   1.689   1.820   1.000  0.4546 -0.0530 -1.1301
 2054SOL    HW2 6483   1.704   1.980   0.970  0.2529  0.4559  1.2902
 2055SOL     OW 6484   2.695   1.278   0.213 -0.2349  0.4208 -0.1739
 2055SOL    HW1 6485   2.680   1.370   0.176  0.7935  0.3654 -0.7707
 2055SOL    HW2 6486   2.703   1.283   0.312  2.8581  1.4755 -0.3731
 2056SOL     OW 6487   2.796   0.267   2.015 -0.0450 -0.0930  0.6185
 2056SOL    HW1 6488   2.795   0.190   2.078 -1.3302 -0.6734 -0.0789
 2056SOL    HW2 6489   2.887   0.275   1.974 -0.0400 -1.6322  0.2507
 2057SOL     OW 6490   3.588   0.738   0.439 -0.8575 -0.5235  0.7119
 2057SOL    HW1 6491   3.512   0.748   0.375 -1.0008 -1.4895  0.7151
 2057SOL    HW2 6492   3.634   0.826   0.451 -3.6267  0.8027  2.7586
 2058SOL     OW 6493   1.035   5.209   1.717 -0.0022  0.2822 -0.2379
 2058SOL    HW1 6494   1.019   5.215   1.815 -1.4038  0.9296 -0.4790
 2058SOL    HW2 6495   1.128   5.175   1.700 -0.3148 -1.5047  1.2973
 2059SOL     OW 6496   0.901   0.395   0.305  0.1642 -0.2395 -0.1130
 2059SOL    HW1 6497   0.835   0.321   0.292  1.8043 -2.3516  2.3350
 2059SOL    HW2 6498   0.864   0.462   0.369 -0.9497  0.5523 -1.5531
 2060SOL     OW 6499   0.253   4.703   0.167 -0.0796 -0.2108 -0.3660
 2060SOL    HW1 6500   0.251   4.653   0.080 -0.6088 -1.2283  0.2017
 2060SOL    HW2 6501   0.231   4.799   0.151  0.0518 -0.3399 -1.3811
 2061SOL     OW 6502   3.155   1.579   0.916 -0.2403 -0.5033  0.4441
 2061SOL    HW1 6503   3.062   1.592   0.950 -0.8350  0.2261 -1.3453
 2061SOL    HW2 6504   3.152   1.550   0.821  1.3846  0.8926 -0.0769
 2062SOL     OW 6505   4.011   0.949   0.792  0.2511 -0.6446  0.1525
 2062SOL    HW1 6506   3.959   0.874   0.751  1.1116 -1.6441  0.8193
 2062SOL    HW2 6507   4.005   1.030   0.734  0.1864 -1.5490 -1.1504
 2063SOL     OW 6508   4.214   0.183   0.875  0.1225 -0.3006 -0.2765
 2063SOL    HW1 6509   4.241   0.145   0.786  0.3715  1.0479 -0.8032
 2063SOL    HW2 6510   4.118   0.161   0.893  0.4489 -1.7831 -0.2094
 2064SOL     OW 6511   0.313   1.583   0.708  0.3714 -0.1274  0.6017
 2064SOL    HW1 6512   0.408   1.560   0.727  0.0569 -1.0767  1.1204
 2064SOL    HW2 6513   0.253   1.513   0.748 -0.6470  1.4541  1.9900
 2065SOL     OW 6514   3.441   0.088   3.598 -0.2299  0.4107  0.3437
 2065SOL    HW1 6515   3.391   0.002   3.600 -0.8974  0.8036  0.9063
 2065SOL    HW2 6516   3.383   0.162   3.632  0.1103  1.2093 -0.7351
 2066SOL     OW 6517   1.936   0.431   2.114  0.1173 -0.1290 -0.0773
 2066SOL    HW1 6518   1.960   0.372   2.191  2.7376 -0.7706 -1.2655
 2066SOL    HW2 6519   1.885   0.377   2.046  1.6619 -0.8709 -0.7176
 2067SOL     OW 6520   3.754   1.117   0.084 -0.8594 -0.2917  0.5237
 2067SOL    HW1 6521   3.695   1.196   0.097  0.1363  0.4989  0.3694
 2067SOL    HW2 6522   3.772   1.105  -0.014 -0.4973 -0.3146  0.5907
 2068SOL     OW 6523   0.765   4.658   2.657 -0.1399  0.1612 -0.2225
 2068SOL    HW1 6524   0.850   4.607   2.665 -0.1080  0.3709  0.9657
 2068SOL    HW2 6525   0.778   4.736   2.595  0.5589  0.2522  0.0329
 2069SOL     OW 6526   4.190   4.755   3.077  0.5478  0.4092 -0.6305
 2069SOL    HW1 6527   4.167   4.813   3.000  2.9321  1.4279 -0.6347
 2069SOL    HW2 6528   4.213   4.811   3.156  3.2665 -0.4290 -0.7398
 2070SOL     OW 6529   5.096   0.267   4.048  0.4099  0.2096 -0.5069
 2070SOL    HW1 6530   5.077   0.180   4.003 -1.8030 -0.6725  1.8772
 2070SOL    HW2 6531   5.169   0.255   4.116 -0.2833  0.0227  0.2235
 2071SOL     OW 6532   3.856   1.590   0.883  0.2236 -0.1548 -0.3727
 2071SOL    HW1 6533   3.776   1.650   0.878  0.8754  0.7170 -0.6195
 2071SOL    HW2 6534   3.928   1.625   0.823  1.8335  0.6933  1.8915
 2072SOL     OW 6535   4.940   1.877   0.798 -0.0823  0.3703  0.7433
 2072SOL    HW1 6536   5.006   1.915   0.734  0.3215  0.3627  1.1500
 2072SOL    HW2 6537   4.847   1.899   0.768  0.1411  2.9550  1.7026
 2073SOL     OW 6538   1.340   0.840   0.949 -0.2509  0.1360  0.2369
 2073SOL    HW1 6539   1.395   0.758   0.932 -0.8812  0.3470 -3.8643
 2073SOL    HW2 6540   1.250   0.814   0.983  0.4204 -0.6377  1.4837
 2074SOL     OW 6541   1.136   1.384   1.345  0.5437 -0.2065 -0.2147
 2074SOL    HW1 6542   1.216   1.420   1.392  0.9364 -2.4999  0.9731
 2074SOL    HW2 6543   1.071   1.347   1.412 -0.2289 -0.9258 -1.3221
 2075SOL     OW 6544   2.349   0.248   0.772 -0.6043 -0.3157 -0.4489
 2075SOL    HW1 6545   2.392   0.168   0.812 -0.9262  0.7104  2.1281
 2075SOL    HW2 6546   2.395   0.331   0.806 -1.6549  0.6641 -1.3295
 2076SOL     OW 6547   2.840   0.188   1.217  0.0899  0.0739  0.0148
 2076SOL    HW1 6548   2.810   0.275   1.256  0.7627  0.9110 -1.2761
 2076SOL    HW2 6549   2.932   0.198   1.181  0.1846 -1.1928 -0.1344
 2077SOL     OW 6550   3.076   0.802   5.535 -0.3914  0.1378 -0.2336
 2077SOL    HW1 6551   3.030   0.875   5.485 -1.7347  0.1109  0.9042
 2077SOL    HW2 6552   3.046   0.714   5.500 -3.0522  0.0506  1.8948
 2078SOL     OW 6553   2.089   0.807   0.280  0.3234 -0.6543 -0.2611
 2078SOL    HW1 6554   2.032   0.886   0.306  0.2605 -0.4947 -0.8608
 2078SOL    HW2 6555   2.060   0.727   0.331 -0.9115 -0.7404 -1.0287
 2079SOL     OW 6556   2.377   0.399   1.393 -0.1730 -0.6481 -0.2835
 2079SOL    HW1 6557   2.397   0.396   1.295  0.3330  1.4741 -0.2998
 2079SOL    HW2 6558   2.326   0.482   1.414  0.4446 -0.6499  1.3695
 2080SOL     OW 6559   2.754   0.442   0.074 -0.1230  0.3658  0.1264
 2080SOL    HW1 6560   2.786   0.360   0.122 -2.6400  0.2525  1.7989
 2080SOL    HW2 6561   2.796   0.523   0.117 -1.2081  0.1701  1.6551
 2081SOL     OW 6562   2.628   1.075   0.574 -0.3925  0.0619  0.0501
 2081SOL    HW1 6563   2.662   1.045   0.663 -1.2412  1.0806  0.7406
 2081SOL    HW2 6564   2.668   1.164   0.551 -0.1809 -0.1928 -0.5942
 2082SOL     OW 6565   4.833   4.135   2.614 -0.2816  0.2602 -0.8394
 2082SOL    HW1 6566   4.779   4.052   2.604 -1.9945  0.6413  3.1561
 2082SOL    HW2 6567   4.797   4.206   2.553 -0.9831 -0.9668 -1.8794
 2083SOL     OW 6568   4.689   5.134   1.593 -0.7227  0.3123  0.5357
 2083SOL    HW1 6569   4.704   5.059   1.657 -0.8164  1.0139  1.4005
 2083SOL    HW2 6570   4.650   5.098   1.508  2.6657 -1.1346 -0.5683
 2084SOL     OW 6571   1.551   0.300   1.321 -0.5147 -1.1999  0.1479
 2084SOL    HW1 6572   1.541   0.396   1.347 -2.6501 -1.2222 -0.3757
 2084SOL    HW2 6573   1.640   0.286   1.276 -0.7090  0.8312 -0.9796
 2085SOL     OW 6574   5.377   0.198   2.930 -0.2654 -0.7691 -0.2310
 2085SOL    HW1 6575   5.436   0.186   2.850  0.1937 -0.4484  0.0526
 2085SOL    HW2 6576   5.284   0.167   2.909 -0.9139  1.9274 -1.8355
 2086SOL     OW 6577   3.038   1.532   2.422  0.4613 -0.4092  0.9210
 2086SOL    HW1 6578   3.040   1.569   2.515 -1.1498 -0.8851  1.1883
 2086SOL    HW2 6579   2.957   1.473   2.412  0.4782 -0.1767 -0.8508
 2087SOL     OW 6580   3.038   0.580   2.285  0.2502 -0.0268 -0.4164
 2087SOL    HW1 6581   2.988   0.652   2.236 -0.3564 -0.2621 -0.1505
 2087SOL    HW2 6582   3.065   0.509   2.220 -2.3364 -1.3572 -0.1500
 2088SOL     OW 6583   3.691   1.995   0.292  0.0456 -0.1554 -0.0276
 2088SOL    HW1 6584   3.616   1.986   0.227  0.6823 -0.7716 -0.6860
 2088SOL    HW2 6585   3.719   2.091   0.298 -0.2725 -0.0416 -0.3616
 2089SOL     OW 6586   2.960   1.946   1.654  0.3484  0.1089  0.1051
 2089SOL    HW1 6587   3.030   2.014   1.631  1.1253 -0.2372  1.3539
 2089SOL    HW2 6588   3.004   1.861   1.683 -0.6059 -0.4494 -0.0432
 2090SOL     OW 6589   4.180   2.690   0.185 -0.2389  0.6199  0.0044
 2090SOL    HW1 6590   4.243   2.684   0.108  0.0685  0.7966  0.2397
 2090SOL    HW2 6591   4.131   2.777   0.181 -0.1694  0.6613  0.0496
 2091SOL     OW 6592   3.485   0.027   1.973 -0.3172  0.0772  0.2608
 2091SOL    HW1 6593   3.510   0.116   1.935 -2.2163  0.8368  0.7132
 2091SOL    HW2 6594   3.428  -0.023   1.908  1.4367 -1.2396 -0.3622
 2092SOL     OW 6595   2.507   2.107   1.618 -0.0426 -0.3659 -0.4850
 2092SOL    HW1 6596   2.541   2.040   1.684  1.5051 -0.4826 -1.3489
 2092SOL    HW2 6597   2.557   2.097   1.532 -0.3879  1.3247 -0.9184
 2093SOL     OW 6598   2.256   1.584   1.244 -0.2695 -0.0986  0.1460
 2093SOL    HW1 6599   2.162   1.598   1.212  0.1332  0.6948 -0.7508
 2093SOL    HW2 6600   2.260   1.600   1.343 -1.3008 -1.3463  0.4110
 2094SOL     OW 6601   2.252   1.329   1.117 -0.6216  0.5944 -0.3763
 2094SOL    HW1 6602   2.304   1.375   1.189 -0.8016 -0.6885  0.6101
 2094SOL    HW2 6603   2.258   1.382   1.032 -0.5685  2.2531  0.6223
 2095SOL     OW 6604   2.825   0.811   5.048 -0.3166 -0.1117  0.1725
 2095SOL    HW1 6605   2.771   0.757   4.984 -0.5471  1.0203 -0.6119
 2095SOL    HW2 6606   2.871   0.886   4.999 -0.6557  0.8965  1.3381
 2096SOL     OW 6607   1.889   0.360   2.501  1.0229  0.5275 -0.0214
 2096SOL    HW1 6608   1.805   0.328   2.458  0.3241  1.7476  0.3711
 2096SOL    HW2 6609   1.951   0.283   2.516  0.6372 -0.1607 -1.7267
 2097SOL     OW 6610   2.303   0.103   0.466 -0.0681  0.0376 -0.5684
 2097SOL    HW1 6611   2.308   0.188   0.415  0.7010 -0.6285 -1.6531
 2097SOL    HW2 6612   2.388   0.090   0.517 -0.8345  0.7033  0.9250
 2098SOL     OW 6613   1.357   4.942   5.163 -0.2593  0.1328 -0.4516
 2098SOL    HW1 6614   1.280   4.948   5.099 -0.4857  1.8243 -0.0502
 2098SOL    HW2 6615   1.339   4.869   5.229 -0.2214 -1.3566 -2.0026
 2099SOL     OW 6616   2.010   2.340   1.259 -0.3044  0.1400 -0.0012
 2099SOL    HW1 6617   1.932   2.350   1.321 -0.7506  0.8741 -0.6611
 2099SOL    HW2 6618   2.040   2.431   1.229  0.7635 -0.1350  0.1793
 2100SOL     OW 6619   0.600   4.248   1.541  0.0871 -0.2311  0.1253
 2100SOL    HW1 6620   0.693   4.283   1.551  0.1432 -0.1885 -0.4979
 2100SOL    HW2 6621   0.581   4.230   1.444 -0.6791  0.1172  0.1983
 2101SOL     OW 6622   4.386   2.668   0.015  0.8773 -0.0625  0.2216
 2101SOL    HW1 6623   4.345   2.594  -0.037 -1.7548 -0.2664  2.4075
 2101SOL    HW2 6624   4.447   2.630   0.085  1.2703 -0.0015 -0.0805
 2102SOL     OW 6625   1.377   0.187   0.977 -0.1828  0.2151  0.1939
 2102SOL    HW1 6626   1.427   0.132   1.044 -1.0675  1.4851  1.9597
 2102SOL    HW2 6627   1.280   0.193   1.004 -1.0738 -1.0040 -2.3764
 2103SOL     OW 6628   4.092   0.769   0.516 -0.4588  0.0170  0.5447
 2103SOL    HW1 6629   4.177   0.809   0.551 -0.8153 -0.1314  1.6068
 2103SOL    HW2 6630   4.085   0.674   0.548  0.4052 -0.9944 -1.9617
 2104SOL     OW 6631   2.585   1.685   1.809  0.1682 -0.0194 -0.2938
 2104SOL    HW1 6632   2.515   1.653   1.873  0.0805 -0.1910 -0.4742
 2104SOL    HW2 6633   2.665   1.625   1.816 -0.4933 -1.0910 -1.5697
 2105SOL     OW 6634   1.918   1.908   2.693 -0.1105 -0.0179 -0.2334
 2105SOL    HW1 6635   1.845   1.961   2.739  1.4660 -0.0684  2.5765
 2105SOL    HW2 6636   2.006   1.951   2.712  0.8196 -1.2696 -1.5676
 2106SOL     OW 6637   1.267   2.320   1.637 -0.4824  0.0167  0.1632
 2106SOL    HW1 6638   1.320   2.242   1.603  1.0245  2.0513 -2.5648
 2106SOL    HW2 6639   1.296   2.341   1.730  1.1662 -0.9813 -0.0739
 2107SOL     OW 6640   5.459   3.758   1.334  0.8036  0.0885  0.3126
 2107SOL    HW1 6641   5.394   3.764   1.409 -0.0154  0.5095 -0.4121
 2107SOL    HW2 6642   5.551   3.781   1.367  0.1983  1.9147  0.8541
 2108SOL     OW 6643   2.754   5.494   1.152 -0.2273  0.1091 -0.5259
 2108SOL    HW1 6644   2.785   5.577   1.197  0.8595 -1.1458  1.1335
 2108SOL    HW2 6645   2.660   5.475   1.180  0.4313 -0.6544  1.3007
 2109SOL     OW 6646   4.024   0.531   0.718 -0.4752  0.1375  0.1486
 2109SOL    HW1 6647   4.117   0.499   0.701  0.0313  1.7441 -0.3568
 2109SOL    HW2 6648   3.959   0.470   0.675  0.3583 -0.8244  0.2124
 2110SOL     OW 6649   2.553   1.121   1.133  0.3464 -0.1571  0.5545
 2110SOL    HW1 6650   2.524   1.201   1.080  0.9661 -0.1067  0.2902
 2110SOL    HW2 6651   2.646   1.136   1.166  0.6355 -0.9715  0.1170
 2111SOL     OW 6652   0.637   2.405   0.835 -0.3312 -0.2512 -0.2477
 2111SOL    HW1 6653   0.672   2.478   0.893 -0.6648  0.0866 -0.4757
 2111SOL    HW2 6654   0.583   2.443   0.760  0.7606 -0.6190 -1.2590
 2112SOL     OW 6655   3.628   1.402   0.043 -0.0320  0.1552 -0.2795
 2112SOL    HW1 6656   3.605   1.366  -0.047  0.2303 -2.1435  0.4934
 2112SOL    HW2 6657   3.565   1.364   0.111  0.4894  0.9399  0.6673
 2113SOL     OW 6658   2.079   2.334   5.514  0.4194 -0.4126  0.0979
 2113SOL    HW1 6659   2.178   2.349   5.509  0.0772  1.6876 -2.2075
 2113SOL    HW2 6660   2.040   2.396   5.583  0.7028 -1.3498  1.1159
 2114SOL     OW 6661   2.256   2.219   1.328  0.3413 -0.4962  0.0532
 2114SOL    HW1 6662   2.161   2.237   1.300  0.9158  0.1530 -1.6419
 2114SOL    HW2 6663   2.261   2.213   1.427 -1.1553  1.4086  0.2984
 2115SOL     OW 6664   3.644   2.904   1.061 -0.1389  0.5631  0.1453
 2115SOL    HW1 6665   3.688   2.828   1.014 -2.0010 -1.7345  1.9088
 2115SOL    HW2 6666   3.569   2.940   1.005 -0.6530 -0.3850  0.2100
 2116SOL     OW 6667   3.131   0.880   1.759  0.2727 -0.2595 -0.6789
 2116SOL    HW1 6668   3.208   0.870   1.697  0.7364 -1.8628  0.1181
 2116SOL    HW2 6669   3.087   0.792   1.773 -1.6163  0.5782 -0.9591
 2117SOL     OW 6670   0.776   0.786   1.296 -0.2985  0.2101  0.1292
 2117SOL    HW1 6671   0.861   0.737   1.313  1.0232  2.6338  1.0906
 2117SOL    HW2 6672   0.797   0.878   1.262 -2.5150  0.9682  0.6489
 2118SOL     OW 6673   0.965   5.399   1.909 -0.4857  0.0993 -0.5448
 2118SOL    HW1 6674   1.061   5.404   1.880 -0.4345  0.3653 -0.3355
 2118SOL    HW2 6675   0.928   5.492   1.916 -0.5810  0.0234 -0.0413
 2119SOL     OW 6676   0.859   2.453   3.520  0.8593 -0.1590 -0.4055
 2119SOL    HW1 6677   0.806   2.408   3.448  0.5636 -1.0707  0.3599
 2119SOL    HW2 6678   0.820   2.431   3.609  1.6506  0.3664  0.0861
 2120SOL     OW 6679   3.375   4.874   1.053 -0.6259  0.4478  0.0486
 2120SOL    HW1 6680   3.337   4.914   0.970 -1.6241 -1.2955 -0.3946
 2120SOL    HW2 6681   3.346   4.778   1.060  0.1463  0.3071  1.9682
 2121SOL     OW 6682   2.192   1.251   0.824 -0.0271  0.0797  0.2755
 2121SOL    HW1 6683   2.180   1.343   0.863  0.7320 -0.8115  2.8001
 2121SOL    HW2 6684   2.289   1.236   0.805 -0.1550 -0.1745 -0.1688
 2122SOL     OW 6685   5.068   5.262   0.597  0.2478 -0.2720 -0.3000
 2122SOL    HW1 6686   5.102   5.185   0.651  2.2789  0.1390 -0.8898
 2122SOL    HW2 6687   5.125   5.343   0.614 -0.4871  0.4892 -1.3089
 2123SOL     OW 6688   2.518   0.368   0.530  0.7108 -0.1803  0.1303
 2123SOL    HW1 6689   2.461   0.361   0.448  2.3452 -1.2466 -0.9763
 2123SOL    HW2 6690   2.464   0.346   0.611 -0.2849 -1.9997 -0.9578
 2124SOL     OW 6691   3.020   1.210   2.061 -0.2512  0.4094  0.1909
 2124SOL    HW1 6692   3.015   1.184   2.157  2.1707  0.8972  0.4913
 2124SOL    HW2 6693   2.994   1.132   2.004 -1.2076 -0.0371  1.1911
 2125SOL     OW 6694   3.413   0.003   1.310 -0.3542 -0.5731  0.5170
 2125SOL    HW1 6695   3.367  -0.028   1.227  0.4039 -2.3177  0.6904
 2125SOL    HW2 6696   3.498   0.050   1.286 -0.9537  0.4170  0.2798
 2126SOL     OW 6697   2.501   1.398   2.540 -0.4109 -0.0852  0.0381
 2126SOL    HW1 6698   2.483   1.300   2.536 -0.4285 -0.0980  0.3939
 2126SOL    HW2 6699   2.446   1.445   2.471  0.4717 -0.4486 -0.9473
 2127SOL     OW 6700   4.156   2.247   1.137  0.1212 -0.1005  0.0432
 2127SOL    HW1 6701   4.180   2.305   1.215  0.6960  0.0965 -0.2750
 2127SOL    HW2 6702   4.165   2.300   1.052  0.3255 -0.5559 -0.2215
 2128SOL     OW 6703   0.996   5.427   1.524 -0.1351 -0.5681 -0.0625
 2128SOL    HW1 6704   1.026   5.367   1.599  0.0064 -0.2822  0.1092
 2128SOL    HW2 6705   0.929   5.493   1.559 -1.8364 -1.8912 -0.6536
 2129SOL     OW 6706   2.873   1.091   0.123  0.4300  0.4580  0.1059
 2129SOL    HW1 6707   2.822   1.161   0.173  1.1920  2.3106 -1.5394
 2129SOL    HW2 6708   2.953   1.063   0.176  0.7445  1.7305  0.3454
 2130SOL     OW 6709   4.086   2.750   1.659  0.2265  0.3912  0.3163
 2130SOL    HW1 6710   4.005   2.791   1.701  1.0802  1.1346  1.2720
 2130SOL    HW2 6711   4.073   2.651   1.653 -0.4298  0.4099  1.1793
 2131SOL     OW 6712   1.700   3.637   1.265 -0.3858 -0.2537 -0.0241
 2131SOL    HW1 6713   1.623   3.694   1.294 -0.2794 -0.9337  1.7292
 2131SOL    HW2 6714   1.760   3.621   1.343  0.1312 -1.8919 -0.7251
 2132SOL     OW 6715   1.116   4.937   4.993 -0.1786 -0.0161  0.3334
 2132SOL    HW1 6716   1.062   5.013   5.030 -2.4104 -0.1245 -2.3756
 2132SOL    HW2 6717   1.075   4.850   5.022  1.1694 -0.2088  1.7639
 2133SOL     OW 6718   1.854   0.566   5.005  0.0192 -1.1206 -0.0283
 2133SOL    HW1 6719   1.836   0.490   5.066  1.4168 -0.9511  0.6424
 2133SOL    HW2 6720   1.768   0.605   4.973 -0.7147 -2.4200  0.3066
 2134SOL     OW 6721   1.807   0.480   1.233 -0.2561 -0.1293 -0.0663
 2134SOL    HW1 6722   1.859   0.482   1.148  0.3697 -0.3550  0.3061
 2134SOL    HW2 6723   1.728   0.542   1.225 -0.1224 -0.0380 -0.7497
 2135SOL     OW 6724   0.437   1.174   2.434 -0.4558 -0.4014 -0.2145
 2135SOL    HW1 6725   0.431   1.267   2.470  0.7555 -0.2827 -0.2790
 2135SOL    HW2 6726   0.533   1.147   2.427 -0.7718 -1.4346 -0.7835
 2136SOL     OW 6727   2.707   5.399   3.925 -0.0575  0.5462 -0.3197
 2136SOL    HW1 6728   2.775   5.462   3.887 -0.6886  1.8831  0.6750
 2136SOL    HW2 6729   2.621   5.448   3.938 -0.2407 -0.1909  1.5492
 2137SOL     OW 6730   1.766   1.850   2.502 -0.1206 -0.1798 -0.3226
 2137SOL    HW1 6731   1.842   1.885   2.558 -0.4766  2.1993 -1.2240
 2137SOL    HW2 6732   1.710   1.788   2.557  0.9523  0.1299  1.1842
 2138SOL     OW 6733   3.783   0.427   2.345 -0.1178  0.1112 -0.5928
 2138SOL    HW1 6734   3.868   0.479   2.335  0.0580  0.2983  1.3876
 2138SOL    HW2 6735   3.731   0.464   2.422 -1.6754 -0.4587 -1.3416
 2139SOL     OW 6736   1.478   4.442   2.425 -0.3265  0.1473 -0.0042
 2139SOL    HW1 6737   1.567   4.446   2.380 -0.1637  2.0328  0.4141
 2139SOL    HW2 6738   1.408   4.477   2.364 -0.2780  1.6236  0.7360
 2140SOL     OW 6739   2.444   0.840   1.439 -0.4723 -0.2494  0.2147
 2140SOL    HW1 6740   2.377   0.775   1.403  2.1805 -2.3534 -1.3587
 2140SOL    HW2 6741   2.479   0.805   1.527 -0.1847 -0.1343  0.1477
 2141SOL     OW 6742   1.607   1.756   4.826 -0.0413 -0.0489  0.3890
 2141SOL    HW1 6743   1.645   1.665   4.807  0.3650  0.3340 -0.6747
 2141SOL    HW2 6744   1.660   1.800   4.899  0.7520 -0.0368 -0.1839
 2142SOL     OW 6745   1.103   0.765   4.852 -0.0874 -0.3052 -0.0727
 2142SOL    HW1 6746   1.172   0.792   4.920 -2.1262  1.3892  1.4476
 2142SOL    HW2 6747   1.132   0.795   4.762  1.6919 -0.7052  0.3230
 2143SOL     OW 6748   1.142   3.405   2.737  0.0895 -0.0211  0.2144
 2143SOL    HW1 6749   1.087   3.483   2.708 -0.0143 -0.7795 -1.7533
 2143SOL    HW2 6750   1.213   3.436   2.800  0.3701  1.7535 -0.9177
 2144SOL     OW 6751   2.218   3.064   4.344  0.2717  0.1450  0.4068
 2144SOL    HW1 6752   2.131   3.024   4.317  0.0765 -0.7948  2.2907
 2144SOL    HW2 6753   2.203   3.138   4.409  0.9069 -1.9130  3.0357
 2145SOL     OW 6754   3.324   2.116   1.299  0.0807 -0.5792  0.1224
 2145SOL    HW1 6755   3.356   2.103   1.392  1.0510  1.6160  0.1580
 2145SOL    HW2 6756   3.346   2.209   1.268  0.5862 -1.4894 -2.6020
 2146SOL     OW 6757   1.801   2.794   2.268  0.1432  0.0035  0.4669
 2146SOL    HW1 6758   1.707   2.811   2.297  0.6021  0.5419  1.7017
 2146SOL    HW2 6759   1.832   2.707   2.306 -0.4888 -1.2159 -1.6109
 2147SOL     OW 6760   1.809   5.136   4.389  0.1702  0.0897  0.6181
 2147SOL    HW1 6761   1.742   5.133   4.463 -2.0564 -0.4528 -1.3189
 2147SOL    HW2 6762   1.853   5.047   4.380 -0.7987 -0.3633  0.2392
 2148SOL     OW 6763   1.952   1.060   1.572 -0.1504 -0.0161  0.2737
 2148SOL    HW1 6764   2.025   1.111   1.525 -0.4536 -1.8873 -2.4456
 2148SOL    HW2 6765   1.865   1.106   1.556 -0.2655 -0.6856 -1.1765
 2149SOL     OW 6766   2.815   4.030   3.287  0.4144 -0.0555 -0.0780
 2149SOL    HW1 6767   2.729   4.039   3.237  0.0248 -0.4476  0.5075
 2149SOL    HW2 6768   2.831   3.934   3.309  1.9282 -0.2424 -1.7679
 2150SOL     OW 6769   3.118   2.046   2.324 -0.2011  0.1192 -0.1091
 2150SOL    HW1 6770   3.183   2.046   2.248 -2.0374  2.1387 -1.7980
 2150SOL    HW2 6771   3.047   1.978   2.307 -0.4336  0.3410 -0.0341
 2151SOL     OW 6772   4.015   1.758   2.079  0.1606 -0.1971  0.2875
 2151SOL    HW1 6773   3.993   1.708   1.995  0.6881 -0.8724  0.5381
 2151SOL    HW2 6774   4.094   1.716   2.123  1.1225  1.3658  0.0977
 2152SOL     OW 6775   2.158   1.608   2.011 -0.1561  0.0505  0.4148
 2152SOL    HW1 6776   2.094   1.532   2.003 -0.6086  0.6215 -2.2473
 2152SOL    HW2 6777   2.142   1.655   2.098 -0.4963 -2.2566  1.6946
 2153SOL     OW 6778   2.513   5.268   1.237  0.1930 -0.5668  0.3660
 2153SOL    HW1 6779   2.567   5.201   1.186 -0.3150  0.0427 -1.0036
 2153SOL    HW2 6780   2.424   5.228   1.260  0.0971 -0.5577  0.0212
 2154SOL     OW 6781   4.020   0.733   3.710 -0.1220 -0.6694  1.2265
 2154SOL    HW1 6782   4.075   0.682   3.644  0.8355  1.3963  0.3271
 2154SOL    HW2 6783   4.079   0.795   3.762 -1.2224 -0.4469  2.2583
 2155SOL     OW 6784   0.582   0.898   3.018  0.5931 -0.4203  0.0264
 2155SOL    HW1 6785   0.532   0.861   3.097 -0.7496 -1.0672 -1.0748
 2155SOL    HW2 6786   0.615   0.989   3.039 -0.9059 -0.0461  0.9047
 2156SOL     OW 6787   4.447   0.630   2.500 -0.2602 -0.8257 -0.0004
 2156SOL    HW1 6788   4.458   0.630   2.400 -1.2073  2.3704 -0.2358
 2156SOL    HW2 6789   4.367   0.576   2.525  0.4381 -2.3038 -0.8615
 2157SOL     OW 6790   2.171   1.264   1.784 -0.0335  0.7217 -0.0123
 2157SOL    HW1 6791   2.166   1.171   1.747 -0.0702  0.6732  0.1146
 2157SOL    HW2 6792   2.259   1.277   1.829 -0.3038  0.5114  0.5987
 2158SOL     OW 6793   3.437   1.073   3.397 -0.0655  0.4079 -0.1737
 2158SOL    HW1 6794   3.369   1.009   3.431  1.2797 -0.2826  1.3717
 2158SOL    HW2 6795   3.398   1.165   3.391 -0.7726  0.2994  2.0323
 2159SOL     OW 6796   1.726   5.455   1.842  0.3951 -0.7690 -0.2150
 2159SOL    HW1 6797   1.753   5.408   1.926  1.9531 -0.1930 -0.3554
 2159SOL    HW2 6798   1.806   5.501   1.803 -1.0151  1.9615 -0.1122
 2160SOL     OW 6799   2.804   1.113   3.774  0.4488  0.1251  0.3453
 2160SOL    HW1 6800   2.835   1.188   3.716  0.1400 -1.7235 -2.4169
 2160SOL    HW2 6801   2.718   1.139   3.819  2.6382  3.0440  3.2994
 2161SOL     OW 6802   2.464   2.554   1.852  0.3518 -0.0245  0.2418
 2161SOL    HW1 6803   2.515   2.486   1.799 -1.0640 -0.8330 -0.1661
 2161SOL    HW2 6804   2.426   2.510   1.934 -0.4288  0.3057  0.0684
 2162SOL     OW 6805   3.061   1.021   3.107  0.5987 -0.4464  0.4336
 2162SOL    HW1 6806   3.128   1.044   3.036 -0.5572  0.1673 -0.5077
 2162SOL    HW2 6807   2.998   0.952   3.071 -1.5069  1.6185 -0.1227
 2163SOL     OW 6808   1.829   0.901   2.623 -0.4696  0.3475 -0.0453
 2163SOL    HW1 6809   1.785   0.860   2.703 -3.3526 -0.5064 -1.9257
 2163SOL    HW2 6810   1.837   1.000   2.636 -0.4033  0.1726  1.4574
 2164SOL     OW 6811   2.239   1.790   4.734  0.5727  0.0559 -0.0071
 2164SOL    HW1 6812   2.204   1.748   4.650  1.9171 -0.7737 -0.1829
 2164SOL    HW2 6813   2.338   1.785   4.735  0.5838 -0.0097  1.6681
 2165SOL     OW 6814   2.959   5.045   4.522 -0.2028  0.0558  0.6608
 2165SOL    HW1 6815   3.051   5.008   4.529 -0.1367  0.3097  1.2053
 2165SOL    HW2 6816   2.917   5.017   4.435 -0.3777 -1.7970  1.3056
 2166SOL     OW 6817   2.737   1.609   3.302 -0.0892  0.3693  0.2685
 2166SOL    HW1 6818   2.671   1.634   3.373  0.6477  0.6608  0.8665
 2166SOL    HW2 6819   2.787   1.527   3.331  0.2709  0.5371  0.1310
 2167SOL     OW 6820   1.191   4.824   2.765 -0.0074 -0.8104 -0.3594
 2167SOL    HW1 6821   1.255   4.751   2.742 -0.6752 -0.8722 -2.2218
 2167SOL    HW2 6822   1.132   4.842   2.686  0.4170  2.0325 -0.1143
 2168SOL     OW 6823   2.731   0.991   0.801 -0.0472  0.2204 -0.8762
 2168SOL    HW1 6824   2.715   0.947   0.889 -0.1746 -0.6268 -1.3179
 2168SOL    HW2 6825   2.830   0.996   0.784 -0.0388 -0.0201 -0.8925
 2169SOL     OW 6826   4.691   3.061   1.399  0.5894  0.2605 -0.0021
 2169SOL    HW1 6827   4.625   3.130   1.371 -0.4342 -0.3035  0.9609
 2169SOL    HW2 6828   4.691   3.052   1.498  3.4935  1.5758  0.2270
 2170SOL     OW 6829   3.497   0.611   1.695  0.0600  0.4405  0.1900
 2170SOL    HW1 6830   3.512   0.577   1.603  0.7203 -0.6563  0.6887
 2170SOL    HW2 6831   3.509   0.711   1.696  2.0332  0.2420 -0.5239
 2171SOL     OW 6832   2.322   0.748   3.220 -0.1574 -0.0694  0.3949
 2171SOL    HW1 6833   2.319   0.845   3.246  0.5305  0.3580 -1.0163
 2171SOL    HW2 6834   2.402   0.705   3.261  1.0960  0.6752 -1.1369
 2172SOL     OW 6835   2.836   1.438   2.840  0.1813 -0.3406 -0.5352
 2172SOL    HW1 6836   2.758   1.432   2.903 -0.8366 -1.2591 -1.8286
 2172SOL    HW2 6837   2.915   1.393   2.881  0.2037  0.9685  0.9791
 2173SOL     OW 6838   2.019   1.341   2.419 -0.0692 -0.5761  0.0254
 2173SOL    HW1 6839   1.953   1.410   2.388 -0.1439 -0.0378  1.3321
 2173SOL    HW2 6840   2.080   1.317   2.344  0.4988  1.5356 -0.2299
 2174SOL     OW 6841   2.726   0.624   3.524 -0.0729  0.0802  0.7658
 2174SOL    HW1 6842   2.723   0.610   3.622  0.4238 -0.7237  0.6767
 2174SOL    HW2 6843   2.680   0.548   3.478 -0.0762  0.3179  0.3715
 2175SOL     OW 6844   1.903   0.911   1.999 -0.4846 -0.2008 -0.0760
 2175SOL    HW1 6845   1.895   0.903   1.900 -0.4548  2.5860 -0.3763
 2175SOL    HW2 6846   1.832   0.972   2.034  0.4876  0.1499  1.3932
 2176SOL     OW 6847   0.268   1.456   3.355  0.3324  0.3697 -0.2790
 2176SOL    HW1 6848   0.360   1.425   3.379 -0.5124 -0.1446  2.7434
 2176SOL    HW2 6849   0.268   1.556   3.347  0.9448  0.4850  0.9267
 2177SOL     OW 6850   3.632   0.170   1.268  0.1367  0.2101 -0.3326
 2177SOL    HW1 6851   3.663   0.137   1.179 -0.2933 -0.2890 -0.3021
 2177SOL    HW2 6852   3.649   0.268   1.275  2.0082 -0.0736 -0.1898
 2178SOL     OW 6853   0.642   1.539   3.073 -0.4567  0.4675 -0.0574
 2178SOL    HW1 6854   0.721   1.481   3.052 -1.1772 -0.7609  0.4728
 2178SOL    HW2 6855   0.653   1.628   3.029  0.5057 -0.2009 -1.2405
 2179SOL     OW 6856   2.588   1.473   3.949  0.1691  0.0454  0.4081
 2179SOL    HW1 6857   2.619   1.477   3.854  0.9387 -0.1032  0.6488
 2179SOL    HW2 6858   2.586   1.566   3.986  1.0987 -0.0144  0.6295
 2180SOL     OW 6859   2.358   1.089   2.252  0.2110  0.0168 -0.2048
 2180SOL    HW1 6860   2.260   1.078   2.234 -0.0372 -1.7260  1.7529
 2180SOL    HW2 6861   2.410   1.026   2.194  0.2146  1.0532 -1.3579
 2181SOL     OW 6862   4.366   0.068   3.097 -0.2036 -0.3602  0.0515
 2181SOL    HW1 6863   4.415  -0.011   3.133 -0.0434 -0.7886 -1.0850
 2181SOL    HW2 6864   4.269   0.059   3.118 -0.2106 -0.9443 -0.2238
 2182SOL     OW 6865   3.680   2.794   2.173  0.1600  0.1819 -0.5747
 2182SOL    HW1 6866   3.756   2.730   2.167  0.4371  0.3090  1.1587
 2182SOL    HW2 6867   3.598   2.753   2.133  0.3849 -1.1913  0.3267
 2183SOL     OW 6868   2.784   4.366   2.369  0.4741 -0.2693  0.2025
 2183SOL    HW1 6869   2.748   4.429   2.438 -0.3703 -2.0337  1.4720
 2183SOL    HW2 6870   2.708   4.323   2.320  0.9829 -0.8866 -0.0613
 2184SOL     OW 6871   3.456   1.434   4.528 -0.4868 -0.5293  0.3263
 2184SOL    HW1 6872   3.537   1.444   4.470 -0.9103 -1.5017 -0.4607
 2184SOL    HW2 6873   3.379   1.404   4.472 -1.2382 -0.2205  1.1795
 2185SOL     OW 6874   1.584   0.663   1.200 -0.6411  0.7830  0.0419
 2185SOL    HW1 6875   1.485   0.651   1.191 -0.4922 -0.6329 -0.0108
 2185SOL    HW2 6876   1.603   0.738   1.264 -1.7354  1.5129 -0.4682
 2186SOL     OW 6877   3.567   5.442   4.393 -0.5278 -0.1711  0.3301
 2186SOL    HW1 6878   3.558   5.506   4.316 -2.0503 -0.4271  0.2570
 2186SOL    HW2 6879   3.575   5.494   4.478 -1.4782  0.1380  0.2444
 2187SOL     OW 6880   2.492   1.765   3.951 -0.5431 -0.3836 -0.2353
 2187SOL    HW1 6881   2.451   1.812   4.029 -0.2926  0.6468 -0.6976
 2187SOL    HW2 6882   2.551   1.829   3.902  1.3801 -1.7429  0.2276
 2188SOL     OW 6883   0.145   5.411   2.303 -0.1903 -0.3211  0.0126
 2188SOL    HW1 6884   0.114   5.490   2.357 -0.5166 -0.1111 -0.4731
 2188SOL    HW2 6885   0.140   5.329   2.359  0.4997  0.0529  0.6396
 2189SOL     OW 6886   2.020   5.511   4.221 -0.4404 -0.7042  0.0109
 2189SOL    HW1 6887   2.015   5.607   4.249  0.0522 -0.3074 -1.2109
 2189SOL    HW2 6888   2.011   5.505   4.122  1.5827 -1.7268 -0.1518
 2190SOL     OW 6889   2.571   2.444   1.622 -0.3833  0.2242  0.4002
 2190SOL    HW1 6890   2.490   2.391   1.595 -0.5073  1.1450 -1.1383
 2190SOL    HW2 6891   2.649   2.419   1.565 -0.5897  2.0447 -0.7672
 2191SOL     OW 6892   4.545   2.173   4.403  0.0861 -0.2012 -0.1660
 2191SOL    HW1 6893   4.482   2.173   4.325 -1.2452  0.1385  0.8723
 2191SOL    HW2 6894   4.618   2.239   4.387 -0.8265  0.7217 -0.6197
 2192SOL     OW 6895   1.075   0.632   1.969 -0.1182 -0.2072  0.3957
 2192SOL    HW1 6896   1.056   0.712   2.025 -0.2348 -0.5800  0.8928
 2192SOL    HW2 6897   1.118   0.561   2.025  0.9520 -0.1071 -0.2694
 2193SOL     OW 6898   3.100   1.078   2.607 -0.4087 -0.9633  0.1360
 2193SOL    HW1 6899   3.193   1.114   2.608 -1.0507  0.9951 -1.5781
 2193SOL    HW2 6900   3.095   0.995   2.662  1.9721 -0.2449  1.5697
 2194SOL     OW 6901   3.136   2.058   2.588 -0.7110  0.1250  0.4577
 2194SOL    HW1 6902   3.130   2.050   2.488  0.6908  0.1652  0.3519
 2194SOL    HW2 6903   3.044   2.062   2.626 -1.3013 -1.2335 -0.7255
 2195SOL     OW 6904   2.325   0.952   2.678  0.3410 -0.1022  0.1707
 2195SOL    HW1 6905   2.239   0.955   2.730 -0.0925 -0.8766 -0.4716
 2195SOL    HW2 6906   2.378   0.872   2.706  0.0425 -0.5996 -0.6490
 2196SOL     OW 6907   1.894   2.051   2.078  0.4531 -0.5307  0.0320
 2196SOL    HW1 6908   1.908   2.041   1.979  1.2293  0.9948 -0.0404
 2196SOL    HW2 6909   1.849   2.138   2.097 -1.8984 -1.8561  0.8871
 2197SOL     OW 6910   2.747   1.723   2.432  0.5797 -0.3223  0.4231
 2197SOL    HW1 6911   2.697   1.684   2.355 -1.7840 -0.5595  1.9894
 2197SOL    HW2 6912   2.768   1.651   2.498 -0.8031  0.4605  1.7506
 2198SOL     OW 6913   1.743   5.450   3.880 -0.3837  0.3457  0.5698
 2198SOL    HW1 6914   1.826   5.422   3.832 -0.0933  0.8923  0.7447
 2198SOL    HW2 6915   1.763   5.459   3.978 -1.2737 -2.0361  1.0464
 2199SOL     OW 6916   2.366   4.472   4.159  0.6090 -0.6623 -0.8352
 2199SOL    HW1 6917   2.351   4.394   4.219 -0.4165  0.8801  1.0401
 2199SOL    HW2 6918   2.291   4.537   4.170  1.8201  0.9679 -1.7121
 2200SOL     OW 6919   2.668   4.087   1.717 -0.1584  0.0446 -0.4618
 2200SOL    HW1 6920   2.623   4.175   1.732  0.6968  0.3144  0.7106
 2200SOL    HW2 6921   2.636   4.047   1.632 -1.7828  0.7265 -0.2086
 2201SOL     OW 6922   2.503   0.828   2.424  0.3963 -0.1484 -0.1693
 2201SOL    HW1 6923   2.505   0.740   2.472 -0.6793 -0.1961 -0.1781
 2201SOL    HW2 6924   2.569   0.891   2.466 -0.0948 -0.3855  0.9949
 2202SOL     OW 6925   2.533   1.614   3.479 -0.4255 -0.6037  0.0347
 2202SOL    HW1 6926   2.456   1.600   3.416 -1.9696  0.3217  1.6321
 2202SOL    HW2 6927   2.498   1.641   3.568  1.8220  1.3727  0.3992
 2203SOL     OW 6928   1.807   0.931   2.317  0.3290  0.1113 -0.0275
 2203SOL    HW1 6929   1.806   1.004   2.248  0.0335 -0.0741 -0.2228
 2203SOL    HW2 6930   1.752   0.960   2.396  1.6421  0.8228  0.6665
 2204SOL     OW 6931   1.722   2.017   2.824  0.1559 -0.2129 -0.3136
 2204SOL    HW1 6932   1.687   2.100   2.782  0.4730  0.7653  1.2836
 2204SOL    HW2 6933   1.646   1.960   2.856 -0.1711  1.7350  2.8272
 2205SOL     OW 6934   3.688   0.021   3.589 -0.3884 -0.2820 -0.5043
 2205SOL    HW1 6935   3.703   0.060   3.498 -0.0212 -1.1774 -0.8380
 2205SOL    HW2 6936   3.591   0.027   3.612 -0.1783  2.0560  0.0484
 2206SOL     OW 6937   1.525   2.254   3.107  0.4297  0.1271  0.3335
 2206SOL    HW1 6938   1.528   2.261   3.007  2.9698 -0.8227  0.2731
 2206SOL    HW2 6939   1.526   2.346   3.147 -0.0521  0.5075 -0.5022
 2207SOL     OW 6940   3.059   4.720   5.140  0.4570  0.0444  0.3280
 2207SOL    HW1 6941   2.974   4.765   5.111  0.2913  0.3190  1.2150
 2207SOL    HW2 6942   3.083   4.751   5.232  0.8031 -1.0545  0.6137
 2208SOL     OW 6943   2.410  -0.005   1.873  0.1654 -0.0670 -0.5531
 2208SOL    HW1 6944   2.487   0.058   1.856 -0.1615  0.3430 -0.5161
 2208SOL    HW2 6945   2.330   0.047   1.903 -0.0777 -0.5142 -0.4211
 2209SOL     OW 6946   0.886   1.023   2.801  0.8247  0.4362 -1.0014
 2209SOL    HW1 6947   0.974   0.992   2.763  0.8155  1.6221 -2.0563
 2209SOL    HW2 6948   0.862   0.967   2.880  2.0800 -0.5050 -1.2598
 2210SOL     OW 6949   1.865   2.257   2.764 -0.5992 -0.3296 -0.3704
 2210SOL    HW1 6950   1.946   2.269   2.706  0.0374 -1.4460  0.2552
 2210SOL    HW2 6951   1.783   2.278   2.710  0.0975  1.2752 -0.8835
 2211SOL     OW 6952   3.838   2.741   1.811  0.6326  0.0660 -0.2313
 2211SOL    HW1 6953   3.840   2.668   1.879  1.0382 -1.2689 -1.6289
 2211SOL    HW2 6954   3.790   2.709   1.729  0.2873  1.5791 -0.6469
 2212SOL     OW 6955   2.665   1.976   1.262 -0.0759 -0.0373  0.0614
 2212SOL    HW1 6956   2.689   1.881   1.238  0.4322  0.4256 -1.3711
 2212SOL    HW2 6957   2.575   1.977   1.305 -0.8952 -1.0242 -1.5010
 2213SOL     OW 6958   3.365   2.219   2.506 -0.0238 -0.1793 -0.3217
 2213SOL    HW1 6959   3.424   2.190   2.430 -0.3075 -0.2143 -0.5286
 2213SOL    HW2 6960   3.281   2.165   2.505  0.5820 -1.1795  0.8710
 2214SOL     OW 6961   2.219   0.991   1.725 -0.2559 -0.0260  0.2148
 2214SOL    HW1 6962   2.137   0.951   1.684 -0.3503 -0.3116  0.6678
 2214SOL    HW2 6963   2.257   0.927   1.792 -0.3166  0.5814  0.8364
 2215SOL     OW 6964   3.721   4.955   4.391  0.0021  0.2904  0.1810
 2215SOL    HW1 6965   3.699   5.052   4.388 -0.6869  0.1334 -0.0650
 2215SOL    HW2 6966   3.636   4.902   4.393  0.3718 -0.2920  0.8641
 2216SOL     OW 6967   1.574   0.664   2.531 -0.5094  0.0426  0.0314
 2216SOL    HW1 6968   1.573   0.600   2.608  2.5779  1.1833  1.2130
 2216SOL    HW2 6969   1.506   0.735   2.546  0.3947  0.5532  2.0631
 2217SOL     OW 6970   2.627   5.505   3.078  0.2423 -0.2378 -0.5982
 2217SOL    HW1 6971   2.538   5.485   3.036 -0.0466 -0.3502  0.0588
 2217SOL    HW2 6972   2.656   5.428   3.134  0.8505 -0.2777 -0.9575
 2218SOL     OW 6973   2.124   0.211   2.571  0.2540  0.3265 -0.4579
 2218SOL    HW1 6974   2.208   0.254   2.604 -0.2412  0.7099  0.3466
 2218SOL    HW2 6975   2.105   0.129   2.625 -1.0120  1.4190  0.8436
 2219SOL     OW 6976   3.631   1.057   2.293 -0.1191 -0.8027 -0.2826
 2219SOL    HW1 6977   3.535   1.070   2.270  0.4596  1.8954 -1.5690
 2219SOL    HW2 6978   3.645   1.076   2.390 -0.6510  0.3316 -0.4216
 2220SOL     OW 6979   4.249   0.900   3.707 -0.1135 -0.2383 -0.2727
 2220SOL    HW1 6980   4.320   0.958   3.747  0.3025 -0.9097 -0.0160
 2220SOL    HW2 6981   4.274   0.804   3.719 -0.6410 -0.4686 -0.9690
 2221SOL     OW 6982   3.364   1.054   2.209 -0.0993  0.1087 -0.1783
 2221SOL    HW1 6983   3.327   1.145   2.189  0.7687  0.4363 -0.3286
 2221SOL    HW2 6984   3.340   0.992   2.135 -1.9254 -0.1637  0.6005
 2222SOL     OW 6985   2.711   1.354   5.212 -0.7396 -0.3331 -0.2046
 2222SOL    HW1 6986   2.687   1.282   5.147 -1.2537 -0.9070  0.6079
 2222SOL    HW2 6987   2.713   1.317   5.304  0.3304  0.3970  0.0857
 2223SOL     OW 6988   3.486   5.488   0.803 -0.2361  0.1784  0.4972
 2223SOL    HW1 6989   3.583   5.505   0.787 -0.7320  1.2062 -1.9365
 2223SOL    HW2 6990   3.475   5.408   0.862  2.0741 -1.1660 -0.7367
 2224SOL     OW 6991   3.170   0.114   1.567 -0.0660  0.1560 -0.3830
 2224SOL    HW1 6992   3.072   0.098   1.579 -0.4177  1.8776 -0.7429
 2224SOL    HW2 6993   3.184   0.195   1.509  1.5489  1.7694  2.0874
 2225SOL     OW 6994   2.061   0.996   0.848  0.3141  0.1880  0.0586
 2225SOL    HW1 6995   2.098   1.069   0.906 -2.3509  2.6821 -1.1343
 2225SOL    HW2 6996   2.068   1.023   0.752 -4.7452  1.2706 -0.3033
 2226SOL     OW 6997   4.121   5.449   4.126  0.5504  0.1153 -0.0978
 2226SOL    HW1 6998   4.056   5.510   4.173  1.2436  0.8882 -0.1319
 2226SOL    HW2 6999   4.073   5.365   4.099 -0.7150  1.0996 -1.0630
 2227SOL     OW 7000   3.221   1.374   4.398 -0.5361  0.3317  0.0618
 2227SOL    HW1 7001   3.160   1.356   4.476 -1.0275  1.1824 -0.1211
 2227SOL    HW2 7002   3.217   1.297   4.335  0.1580 -0.5484  1.0498
 2228SOL     OW 7003   4.046   0.456   4.576 -0.8394 -0.4633 -0.2206
 2228SOL    HW1 7004   3.987   0.424   4.650 -0.7909  0.4716  0.2341
 2228SOL    HW2 7005   3.994   0.455   4.490 -1.5368  0.3837  0.1774
 2229SOL     OW 7006   0.010   1.057   2.586  0.0406  0.4085 -0.1833
 2229SOL    HW1 7007   0.053   0.984   2.533 -1.2208  0.1482 -0.8726
 2229SOL    HW2 7008   0.064   1.074   2.669  0.9283 -0.5602 -0.5415
 2230SOL     OW 7009   2.831   0.778   2.586  0.3552  0.4591  0.1798
 2230SOL    HW1 7010   2.763   0.708   2.566  0.2142  0.5338  0.3976
 2230SOL    HW2 7011   2.916   0.756   2.538  0.3049  0.1511  0.2286
 2231SOL     OW 7012   2.208   1.727   2.753 -0.2774 -0.7702  0.2088
 2231SOL    HW1 7013   2.158   1.640   2.747 -0.1028 -0.8142 -0.6183
 2231SOL    HW2 7014   2.259   1.743   2.669 -1.0880  0.6081 -0.0651
 2232SOL     OW 7015   2.817   2.257   2.114 -0.0245  0.0147 -0.3981
 2232SOL    HW1 7016   2.902   2.307   2.133  1.3459 -2.1003 -0.5681
 2232SOL    HW2 7017   2.778   2.289   2.028  1.3324  0.1771 -0.9822
 2233SOL     OW 7018   2.218   4.816   1.411  0.6686  0.0117  0.4380
 2233SOL    HW1 7019   2.198   4.912   1.432  0.5041  0.1277 -0.2241
 2233SOL    HW2 7020   2.177   4.757   1.482 -1.4874  0.2809 -0.4862
 2234SOL     OW 7021   3.576   1.353   3.325  0.0680  0.6593 -0.1401
 2234SOL    HW1 7022   3.619   1.273   3.366  0.7021  1.2164  0.2920
 2234SOL    HW2 7023   3.627   1.381   3.244  0.0342  0.8244 -0.1045
 2235SOL     OW 7024   1.963   0.268   2.911 -0.2977 -0.4395  0.0052
 2235SOL    HW1 7025   2.027   0.308   2.977  0.3519  0.3802 -1.0982
 2235SOL    HW2 7026   1.943   0.334   2.840 -1.2445 -1.2082 -0.4583
 2236SOL     OW 7027   1.291   1.887   3.837  0.0434 -0.2480 -0.2659
 2236SOL    HW1 7028   1.366   1.852   3.781 -0.4711 -1.6956 -0.0946
 2236SOL    HW2 7029   1.317   1.884   3.933 -0.1023 -0.4333 -0.2312
 2237SOL     OW 7030   2.219   0.675   1.350 -0.5337  0.2700  0.3411
 2237SOL    HW1 7031   2.190   0.628   1.267 -0.0729  1.3969 -0.4919
 2237SOL    HW2 7032   2.150   0.744   1.374 -0.6861 -0.0822  0.9249
 2238SOL     OW 7033   3.188   0.577   3.207  0.0492  0.3195  0.3228
 2238SOL    HW1 7034   3.177   0.664   3.254 -1.9759  0.8149 -0.9211
 2238SOL    HW2 7035   3.102   0.525   3.213  1.5466 -2.1995  2.0797
 2239SOL     OW 7036   4.114   2.153   1.743  0.4199  0.0940 -0.0707
 2239SOL    HW1 7037   4.199   2.114   1.777  1.0636 -0.2152 -1.9101
 2239SOL    HW2 7038   4.134   2.224   1.676 -0.7531  0.0095 -0.5354
 2240SOL     OW 7039   2.971   0.703   3.786  0.3591 -0.0513  0.2834
 2240SOL    HW1 7040   2.905   0.763   3.740 -0.5056 -0.7725  0.5286
 2240SOL    HW2 7041   2.943   0.690   3.881  1.2451  0.1681  0.5749
 2241SOL     OW 7042   1.471   5.076   1.424 -0.4164 -0.1779 -0.1940
 2241SOL    HW1 7043   1.470   5.173   1.400 -0.7250 -0.4616 -1.3735
 2241SOL    HW2 7044   1.564   5.039   1.414 -0.6135 -0.3859 -1.3930
 2242SOL     OW 7045   1.498   1.017   0.818 -0.9222 -0.0069 -0.5704
 2242SOL    HW1 7046   1.515   0.998   0.722 -1.4929 -0.5399 -0.5705
 2242SOL    HW2 7047   1.440   0.945   0.857 -0.0635 -0.2175  0.3700
 2243SOL     OW 7048   1.783   0.443   3.560 -0.0375  0.2780 -0.6299
 2243SOL    HW1 7049   1.730   0.510   3.508 -0.2794 -0.6394 -1.5871
 2243SOL    HW2 7050   1.728   0.409   3.636 -0.9063 -0.7763 -1.7030
 2244SOL     OW 7051   2.346   0.175   1.556  0.2683  0.4172 -0.1014
 2244SOL    HW1 7052   2.427   0.160   1.613  0.3432 -1.1040 -0.5634
 2244SOL    HW2 7053   2.358   0.259   1.503  1.5811  0.1953 -0.1993
 2245SOL     OW 7054   2.428   0.499   4.108 -0.3483  0.4977 -0.3316
 2245SOL    HW1 7055   2.400   0.482   4.013 -2.7345  1.0820  0.1941
 2245SOL    HW2 7056   2.400   0.422   4.165  0.9189  0.2309 -0.0407
 2246SOL     OW 7057   3.298   4.185   2.701 -0.2344 -0.0425 -0.0631
 2246SOL    HW1 7058   3.303   4.110   2.636 -1.2212 -0.2958  0.1422
 2246SOL    HW2 7059   3.226   4.249   2.673 -0.6888 -0.1690  0.7945
 2247SOL     OW 7060   2.152   2.180   1.983 -0.2475  0.3811 -0.0224
 2247SOL    HW1 7061   2.091   2.101   1.973  2.0972 -1.8095  1.8222
 2247SOL    HW2 7062   2.128   2.231   2.066 -0.2769  0.2283  0.0619
 2248SOL     OW 7063   3.600   1.312   3.749  0.2377 -0.1318 -0.2929
 2248SOL    HW1 7064   3.570   1.408   3.743 -0.1834 -0.3197 -1.3155
 2248SOL    HW2 7065   3.520   1.252   3.744  0.6635 -0.6018 -1.7674
 2249SOL     OW 7066   2.615   5.358   1.889  0.2970 -0.3432 -0.9171
 2249SOL    HW1 7067   2.536   5.420   1.890 -0.2836 -1.0772 -0.8239
 2249SOL    HW2 7068   2.643   5.341   1.795 -1.7547 -2.6919 -1.1777
 2250SOL     OW 7069   1.886   1.150   2.727 -0.5007  0.0177  0.2791
 2250SOL    HW1 7070   1.904   1.187   2.818  0.1720 -1.0443  0.5998
 2250SOL    HW2 7071   1.837   1.218   2.673  1.7866  1.9069  0.4029
 2251SOL     OW 7072   1.646   2.358   4.477  0.4546  0.8559 -0.3169
 2251SOL    HW1 7073   1.727   2.352   4.536  0.1300  1.9995  0.2712
 2251SOL    HW2 7074   1.564   2.366   4.534 -0.3049 -2.0396 -0.8454
 2252SOL     OW 7075   2.928   4.578   0.222  0.3751 -0.3367 -0.1177
 2252SOL    HW1 7076   2.892   4.585   0.314 -1.2114  0.0576 -0.7375
 2252SOL    HW2 7077   2.887   4.500   0.175  0.3360  0.1013 -0.8417
 2253SOL     OW 7078   3.262   1.314   3.293 -0.7013 -0.1772 -0.6109
 2253SOL    HW1 7079   3.185   1.307   3.230 -1.1206 -0.3850 -0.0789
 2253SOL    HW2 7080   3.229   1.339   3.383 -0.1340 -0.1967 -0.3936
 2254SOL     OW 7081   0.554   5.002   2.849  0.2504  0.4829 -0.2738
 2254SOL    HW1 7082   0.559   4.971   2.754  0.7920 -0.2669 -0.0041
 2254SOL    HW2 7083   0.522   4.928   2.908  0.4821  0.7654  0.2185
 2255SOL     OW 7084   3.601   1.158   2.556 -0.2608 -0.1793 -0.4851
 2255SOL    HW1 7085   3.501   1.155   2.561 -0.2380 -1.1092 -0.5200
 2255SOL    HW2 7086   3.631   1.254   2.557 -1.2301  0.1897 -2.1020
 2256SOL     OW 7087   3.602   1.001   2.771  0.2765  0.4392 -0.1082
 2256SOL    HW1 7088   3.606   1.063   2.693 -0.2115  0.7388  0.1023
 2256SOL    HW2 7089   3.547   0.921   2.747  0.7143  0.1973 -0.3040
 2257SOL     OW 7090   2.737   0.281   3.962  0.5863  0.1407  0.2373
 2257SOL    HW1 7091   2.720   0.254   3.867 -0.1490  1.5040 -0.0462
 2257SOL    HW2 7092   2.784   0.207   4.010  1.0959 -0.5203 -1.2244
 2258SOL     OW 7093   1.056   1.833   2.068 -0.0288 -0.7060 -0.3896
 2258SOL    HW1 7094   1.016   1.764   2.128  0.1376 -1.5511 -1.2292
 2258SOL    HW2 7095   1.080   1.914   2.122  0.3511 -1.5323  0.7171
 2259SOL     OW 7096   2.916   0.017   3.853  0.1280  1.4488 -0.6273
 2259SOL    HW1 7097   2.932   0.100   3.907  1.8187  0.6522  0.1383
 2259SOL    HW2 7098   2.986  -0.051   3.873 -2.8424 -1.4284  1.0884
 2260SOL     OW 7099   2.979   5.340   1.747 -0.0099 -0.2411 -0.3096
 2260SOL    HW1 7100   2.975   5.378   1.655  1.1222  0.1339 -0.2268
 2260SOL    HW2 7101   2.966   5.241   1.743 -0.5312 -0.1549 -0.8076
 2261SOL     OW 7102   2.405   1.956   1.325 -0.3001 -0.1385  0.5727
 2261SOL    HW1 7103   2.339   2.020   1.286 -1.9577 -1.1464  1.5976
 2261SOL    HW2 7104   2.365   1.911   1.405  0.5338 -2.9022 -0.4517
 2262SOL     OW 7105   1.776   2.303   2.075 -0.0932  0.1989 -0.3853
 2262SOL    HW1 7106   1.856   2.364   2.074  1.0874 -1.2584 -2.1908
 2262SOL    HW2 7107   1.703   2.343   2.021 -0.8059  1.7169  1.5715
 2263SOL     OW 7108   2.476   0.994   3.334 -0.0641 -0.3110 -0.2314
 2263SOL    HW1 7109   2.445   1.085   3.358 -0.1258 -0.3596 -0.1267
 2263SOL    HW2 7110   2.503   0.992   3.238 -1.3071 -0.5209 -0.5917
 2264SOL     OW 7111   3.579   4.606   3.130  0.3468 -0.1028  0.1871
 2264SOL    HW1 7112   3.541   4.696   3.152  0.0337 -0.6434  2.0112
 2264SOL    HW2 7113   3.598   4.556   3.215  2.4647 -0.9722 -0.7281
 2265SOL     OW 7114   3.951   0.566   2.962 -0.3445 -0.0457  0.4960
 2265SOL    HW1 7115   3.941   0.610   2.873  1.9434  0.4334  0.4116
 2265SOL    HW2 7116   3.948   0.635   3.034  1.5706  0.0838  0.4868
 2266SOL     OW 7117   4.471   4.276   2.298  0.0748  0.3423 -0.2897
 2266SOL    HW1 7118   4.517   4.321   2.374  1.1138 -0.0312 -0.6811
 2266SOL    HW2 7119   4.372   4.294   2.303 -0.0237 -0.5141  1.7071
 2267SOL     OW 7120   0.784   0.923   2.018  0.0556 -1.3101  0.7234
 2267SOL    HW1 7121   0.732   0.969   1.945  2.6928  0.4937 -0.1930
 2267SOL    HW2 7122   0.720   0.883   2.084 -2.5295  1.4394  0.1691
 2268SOL     OW 7123   1.655   2.666   1.685 -0.3707  0.6080 -0.3812
 2268SOL    HW1 7124   1.592   2.737   1.717 -1.5515  0.5414 -2.4097
 2268SOL    HW2 7125   1.627   2.635   1.594  1.8240 -0.4005 -0.7732
 2269SOL     OW 7126   3.104   2.356   1.882 -0.4276 -0.3244  0.3462
 2269SOL    HW1 7127   3.163   2.334   1.959 -2.4234 -0.5360  1.8729
 2269SOL    HW2 7128   3.025   2.296   1.881 -0.7444  0.0470 -1.5570
 2270SOL     OW 7129   1.363   0.701   2.778 -0.0747 -0.4882  0.4595
 2270SOL    HW1 7130   1.400   0.750   2.857 -0.7778 -1.9451  1.7440
 2270SOL    HW2 7131   1.360   0.603   2.798 -1.4840 -0.7520 -0.8770
 2271SOL     OW 7132   1.105   1.623   3.471 -0.2715 -0.3683  0.1896
 2271SOL    HW1 7133   1.071   1.685   3.542  1.7716  1.3344 -0.2237
 2271SOL    HW2 7134   1.185   1.664   3.427 -0.8717 -1.8142 -2.4441
 2272SOL     OW 7135   1.639   1.973   3.464 -0.2304  0.2263 -0.2636
 2272SOL    HW1 7136   1.703   1.915   3.415  1.8797  1.3091  1.0241
 2272SOL    HW2 7137   1.647   2.067   3.432 -0.5556  0.5239  0.4831
 2273SOL     OW 7138   2.679   4.951   3.084  0.4828 -0.2291  0.0522
 2273SOL    HW1 7139   2.599   4.990   3.128 -1.5000 -2.7041 -1.0879
 2273SOL    HW2 7140   2.689   4.855   3.110  2.4947 -0.2801 -0.6592
 2274SOL     OW 7141   0.904   2.598   3.158  0.5772  0.6049 -0.4120
 2274SOL    HW1 7142   0.841   2.552   3.096  0.0467  1.1462 -0.2786
 2274SOL    HW2 7143   0.855   2.631   3.238  1.1788  0.3034  0.0932
 2275SOL     OW 7144   3.324   1.551   1.993 -0.1611  0.4442  0.4868
 2275SOL    HW1 7145   3.298   1.646   2.009 -0.4569  0.2277  1.3956
 2275SOL    HW2 7146   3.413   1.533   2.035  1.2575  1.0089 -2.0569
 2276SOL     OW 7147   2.553   1.644   4.956  0.5864 -0.0292 -0.2185
 2276SOL    HW1 7148   2.649   1.629   4.980  0.4684  0.4399  0.5796
 2276SOL    HW2 7149   2.527   1.738   4.980 -0.0897 -0.1723 -0.3691
 2277SOL     OW 7150   1.776   1.455   1.917 -0.4221 -0.3090  0.6668
 2277SOL    HW1 7151   1.852   1.415   1.967  1.5596  1.2561 -0.8779
 2277SOL    HW2 7152   1.741   1.535   1.966 -1.7033 -1.5314  1.8011
 2278SOL     OW 7153   1.716   5.220   0.907 -0.1943 -0.0539  0.4052
 2278SOL    HW1 7154   1.728   5.307   0.859 -0.9043 -1.3807 -2.3520
 2278SOL    HW2 7155   1.625   5.216   0.947 -0.7738 -0.1213 -0.8698
 2279SOL     OW 7156   2.677   1.495   3.035 -0.4828  0.1965  0.0352
 2279SOL    HW1 7157   2.705   1.541   3.119  0.8736 -0.0404 -0.2596
 2279SOL    HW2 7158   2.677   1.396   3.049 -0.5481  0.1658 -0.1673
 2280SOL     OW 7159   4.350   0.408   5.067  0.4300  0.3493  0.0186
 2280SOL    HW1 7160   4.364   0.345   4.991  0.5217  0.6370 -0.2043
 2280SOL    HW2 7161   4.281   0.475   5.043 -3.3971 -2.4796  1.9572
 2281SOL     OW 7162   1.762   0.264   2.002 -0.0739  0.0833  0.1531
 2281SOL    HW1 7163   1.761   0.226   1.910  0.5409  0.4016  0.0035
 2281SOL    HW2 7164   1.739   0.193   2.068 -0.9961 -0.0332 -0.2751
 2282SOL     OW 7165   5.320   2.069   3.189 -0.4277  0.1367  0.5398
 2282SOL    HW1 7166   5.276   2.141   3.136 -0.4036  0.6530  1.2043
 2282SOL    HW2 7167   5.389   2.109   3.249 -2.1957 -0.0489  2.8540
 2283SOL     OW 7168   3.427   2.473   2.927 -0.2474 -0.0174 -0.3664
 2283SOL    HW1 7169   3.339   2.510   2.897  0.7681  2.5527 -0.4775
 2283SOL    HW2 7170   3.467   2.419   2.853 -0.2523  1.6678 -1.6801
 2284SOL     OW 7171   1.370   1.202   3.420  0.1736 -0.2683  0.3859
 2284SOL    HW1 7172   1.299   1.141   3.387  0.7131 -0.3210 -0.7535
 2284SOL    HW2 7173   1.428   1.154   3.485  1.1522 -1.3344 -1.1811
 2285SOL     OW 7174   3.564   4.874   1.304 -0.0731  0.0805  0.2326
 2285SOL    HW1 7175   3.601   4.964   1.280  0.0983  0.3436  1.4536
 2285SOL    HW2 7176   3.469   4.883   1.331  0.5180  0.2518  2.4246
 2286SOL     OW 7177   3.712   1.060   3.376 -0.0895 -0.0736 -0.1769
 2286SOL    HW1 7178   3.763   0.993   3.430  0.2906 -0.7930 -1.3907
 2286SOL    HW2 7179   3.615   1.054   3.397 -0.0561 -1.0024 -0.2786
 2287SOL     OW 7180   2.544   1.858   2.834 -0.0918 -0.3698 -0.2377
 2287SOL    HW1 7181   2.604   1.895   2.905 -1.5078 -1.6624  1.7449
 2287SOL    HW2 7182   2.578   1.885   2.744  1.6843  1.4794  0.9050
 2288SOL     OW 7183   3.756   4.926   2.986 -0.0696  0.3460 -0.1806
 2288SOL    HW1 7184   3.667   4.890   2.959 -0.2849 -0.6599  1.6822
 2288SOL    HW2 7185   3.806   4.958   2.906 -0.9609 -1.6922 -1.6077
 2289SOL     OW 7186   0.531   1.151   0.606  0.0503 -0.5391  0.1322
 2289SOL    HW1 7187   0.450   1.208   0.622  1.0057  1.1343 -0.7479
 2289SOL    HW2 7188   0.592   1.157   0.684  0.9606  1.1310 -0.6488
 2290SOL     OW 7189   4.684   1.294   5.177  0.4088 -0.1043 -0.3403
 2290SOL    HW1 7190   4.765   1.274   5.121  0.0922  0.6636 -1.0878
 2290SOL    HW2 7191   4.633   1.209   5.193  0.9202 -0.4582 -0.5532
 2291SOL     OW 7192   3.684   1.723   3.029  0.2651 -0.3772  0.3731
 2291SOL    HW1 7193   3.627   1.723   3.111  0.9424 -0.9889  0.8548
 2291SOL    HW2 7194   3.665   1.805   2.976 -0.4534 -0.1568  0.9521
 2292SOL     OW 7195   1.071   1.278   1.926 -0.2558  0.2620  0.2325
 2292SOL    HW1 7196   1.129   1.328   1.861 -0.8209  2.1449  1.0834
 2292SOL    HW2 7197   1.115   1.193   1.952  0.9872  0.5035 -0.9672
 2293SOL     OW 7198   3.496   1.842   2.313 -0.4494 -0.6986  0.2766
 2293SOL    HW1 7199   3.460   1.772   2.374 -1.3145  1.7449  2.7610
 2293SOL    HW2 7200   3.596   1.847   2.323 -0.3713 -1.5854  0.0231
 2294SOL     OW 7201   2.619   2.170   2.522  1.0047 -0.6404 -0.1821
 2294SOL    HW1 7202   2.595   2.196   2.428  2.0040 -1.2699 -0.6291
 2294SOL    HW2 7203   2.633   2.253   2.576  1.0228 -0.2611 -0.7552
 2295SOL     OW 7204   1.801   0.967   0.980  0.0309  0.4154 -0.5122
 2295SOL    HW1 7205   1.888   1.016   0.969  0.2369  0.5584  1.3556
 2295SOL    HW2 7206   1.731   1.011   0.924  0.7513  1.4306 -0.6518
 2296SOL     OW 7207   2.330   1.889   1.788 -0.3897 -0.1266  0.7326
 2296SOL    HW1 7208   2.270   1.811   1.769  1.2465 -1.5342  1.0534
 2296SOL    HW2 7209   2.357   1.933   1.702 -1.4679  0.2137  0.5603
 2297SOL     OW 7210   1.708   0.233   1.722  0.0176 -0.2338 -0.0471
 2297SOL    HW1 7211   1.647   0.183   1.661  1.3912 -1.6372 -0.3484
 2297SOL    HW2 7212   1.763   0.297   1.668  0.6152 -0.8428 -0.1732
 2298SOL     OW 7213   3.762   0.417   3.067  1.0816  0.4425  0.0519
 2298SOL    HW1 7214   3.835   0.477   3.035  1.9342 -0.6347 -0.0604
 2298SOL    HW2 7215   3.706   0.466   3.135  1.1046  1.7011 -0.8034
 2299SOL     OW 7216   1.380   0.883   2.548  0.0319 -0.2287 -0.2900
 2299SOL    HW1 7217   1.365   0.831   2.632 -3.9235  0.3275 -0.4583
 2299SOL    HW2 7218   1.300   0.941   2.530 -0.0515 -1.4567 -5.2694
 2300SOL     OW 7219   2.421   5.519   2.350 -0.2725  0.1802  0.2826
 2300SOL    HW1 7220   2.459   5.474   2.431  3.5605  0.5701 -1.1139
 2300SOL    HW2 7221   2.421   5.618   2.364 -0.2241  0.2108  0.0676
 2301SOL     OW 7222   1.536   0.427   2.765  0.7882  0.5537 -0.9815
 2301SOL    HW1 7223   1.584   0.354   2.716  2.4632  0.9579 -0.0409
 2301SOL    HW2 7224   1.601   0.476   2.823 -0.5725  1.9196 -0.5390
 2302SOL     OW 7225   4.515   5.247   4.654 -0.6215 -0.1819 -0.5594
 2302SOL    HW1 7226   4.532   5.346   4.654  0.2351 -0.3056 -1.8319
 2302SOL    HW2 7227   4.561   5.205   4.575 -0.7053 -1.6466  0.1396
 2303SOL     OW 7228   1.613   2.392   1.881 -0.3744  0.1113 -0.2354
 2303SOL    HW1 7229   1.674   2.467   1.858  1.1942 -0.5544  1.4988
 2303SOL    HW2 7230   1.626   2.317   1.816  0.3317  0.1752 -0.1786
 2304SOL     OW 7231   1.587   1.411   4.399 -0.3028  0.1875  0.1767
 2304SOL    HW1 7232   1.498   1.454   4.414 -1.3902 -2.1017  0.6484
 2304SOL    HW2 7233   1.621   1.372   4.485  0.2992 -0.5183 -0.3635
 2305SOL     OW 7234   2.767   0.619   3.096  0.0250 -0.3723  0.1984
 2305SOL    HW1 7235   2.677   0.635   3.138 -0.4575  0.6016 -1.1289
 2305SOL    HW2 7236   2.755   0.572   3.009  0.9534 -1.7203  0.7783
 2306SOL     OW 7237   2.164   0.543   3.284 -0.1860  0.0597 -0.2906
 2306SOL    HW1 7238   2.129   0.583   3.368 -1.0813 -0.8715 -0.1949
 2306SOL    HW2 7239   2.199   0.615   3.224  0.3812  0.7314  0.8313
 2307SOL     OW 7240   3.652   4.979   0.057 -0.3733 -0.2316 -0.3638
 2307SOL    HW1 7241   3.605   5.057   0.015  1.2587  1.0469  0.1012
 2307SOL    HW2 7242   3.595   4.942   0.131 -1.0695  0.6628 -0.4319
 2308SOL     OW 7243   4.546   1.030   2.382  0.2227  0.4668  0.4350
 2308SOL    HW1 7244   4.557   0.987   2.471 -0.9395  1.9994  1.3759
 2308SOL    HW2 7245   4.625   1.088   2.363  0.4696  0.1413  0.4566
 2309SOL     OW 7246   2.723   5.050   4.236  0.1218  0.4379  0.4314
 2309SOL    HW1 7247   2.818   5.027   4.219  0.0354 -0.1208  0.6875
 2309SOL    HW2 7248   2.664   5.002   4.170  0.1494  2.6072 -1.2999
 2310SOL     OW 7249   1.123   0.758   3.519 -0.0867 -0.3068 -0.4676
 2310SOL    HW1 7250   1.113   0.713   3.608 -0.7668  0.6012 -0.0754
 2310SOL    HW2 7251   1.201   0.820   3.521 -1.0413  0.9209  0.0351
 2311SOL     OW 7252   2.638   0.374   2.957 -0.0949 -0.2734  0.5466
 2311SOL    HW1 7253   2.603   0.280   2.961 -0.4604 -0.1221  0.9303
 2311SOL    HW2 7254   2.733   0.372   2.926 -0.4036 -0.6931 -0.4394
 2312SOL     OW 7255   2.559   5.375   4.428 -0.1991 -0.1786 -0.1950
 2312SOL    HW1 7256   2.622   5.384   4.351  0.0903  0.5223  0.1121
 2312SOL    HW2 7257   2.486   5.443   4.419 -0.4354 -0.4199 -0.1050
 2313SOL     OW 7258   4.204   1.669   3.916 -0.3876  0.2109  0.1240
 2313SOL    HW1 7259   4.178   1.641   3.823  0.1777 -0.4687  0.1619
 2313SOL    HW2 7260   4.159   1.610   3.982  0.6164 -0.4936  0.2124
 2314SOL     OW 7261   0.857   2.990   0.767  0.0734  0.1611 -0.3558
 2314SOL    HW1 7262   0.794   2.944   0.830 -0.4114 -0.4494 -1.2589
 2314SOL    HW2 7263   0.919   2.923   0.727 -0.1129  0.4132 -1.0883
 2315SOL     OW 7264   2.359   1.397   4.236 -0.1674  0.1341 -0.1412
 2315SOL    HW1 7265   2.435   1.375   4.297  0.5961 -0.5364 -1.2999
 2315SOL    HW2 7266   2.325   1.313   4.193 -2.8369  0.1389  1.7479
 2316SOL     OW 7267   2.297   5.178   2.763 -0.1378 -0.0177 -0.2339
 2316SOL    HW1 7268   2.283   5.194   2.666  0.6129 -0.9067 -0.5046
 2316SOL    HW2 7269   2.276   5.262   2.814 -1.2232  0.2483 -1.0758
 2317SOL     OW 7270   2.435   1.569   2.031 -0.1022 -0.2181  0.3467
 2317SOL    HW1 7271   2.352   1.625   2.035 -0.1466 -0.2982  0.5708
 2317SOL    HW2 7272   2.414   1.476   2.062 -0.2671 -0.6547 -0.9980
 2318SOL     OW 7273   3.670   0.703   2.565  0.1506 -0.4805 -0.0765
 2318SOL    HW1 7274   3.603   0.730   2.633 -0.6120  1.0430 -1.3590
 2318SOL    HW2 7275   3.623   0.667   2.484  1.0102 -1.8168 -0.0038
 2319SOL     OW 7276   3.965   1.387   3.121 -0.0321  0.5745  0.7421
 2319SOL    HW1 7277   4.006   1.450   3.187  1.6189  2.1615 -1.6184
 2319SOL    HW2 7278   3.866   1.405   3.116 -0.0153  1.1556  1.9833
 2320SOL     OW 7279   3.198   2.549   2.300  0.5017 -0.3126  0.0149
 2320SOL    HW1 7280   3.205   2.631   2.243 -0.2741 -0.7949 -0.7928
 2320SOL    HW2 7281   3.266   2.553   2.373  0.2781  1.1807  0.1588
 2321SOL     OW 7282   3.518   2.322   2.720  0.7397 -0.1706 -0.2446
 2321SOL    HW1 7283   3.598   2.264   2.738  0.0994 -0.4823  1.8222
 2321SOL    HW2 7284   3.452   2.271   2.663  0.5215 -1.2181  0.9094
 2322SOL     OW 7285   1.750   2.501   2.874  0.2193 -0.6394  0.2317
 2322SOL    HW1 7286   1.751   2.522   2.972 -1.6684 -0.7828  0.3190
 2322SOL    HW2 7287   1.790   2.410   2.860  1.1495 -0.3290  0.7699
 2323SOL     OW 7288   3.428   0.743   3.332 -0.1609  0.1684 -0.1957
 2323SOL    HW1 7289   3.373   0.786   3.404 -1.0601 -0.5005 -0.4535
 2323SOL    HW2 7290   3.525   0.753   3.353 -0.3966  0.5964  0.7416
 2324SOL     OW 7291   3.684   0.978   1.341 -0.5706 -0.1733  0.3659
 2324SOL    HW1 7292   3.654   1.060   1.292  0.0995 -0.2144 -0.1338
 2324SOL    HW2 7293   3.669   0.990   1.439  2.0880  1.7469  0.6385
 2325SOL     OW 7294   2.685   1.933   2.590  0.1839 -0.2250  0.3749
 2325SOL    HW1 7295   2.728   1.861   2.534  0.4246  0.7257 -0.7120
 2325SOL    HW2 7296   2.666   2.012   2.532 -0.1888  0.5453  1.5253
 2326SOL     OW 7297   4.246   2.556   2.588  0.2741 -0.5374 -0.0503
 2326SOL    HW1 7298   4.250   2.466   2.546  0.4832 -0.0649 -1.0768
 2326SOL    HW2 7299   4.247   2.626   2.517  1.1224  0.3037  0.7567
 2327SOL     OW 7300   2.798   0.836   0.333  0.2379 -0.0002 -0.8401
 2327SOL    HW1 7301   2.861   0.893   0.386 -1.2344  1.3489 -0.4659
 2327SOL    HW2 7302   2.705   0.848   0.367 -0.2899 -1.7504 -1.5438
 2328SOL     OW 7303   3.380   1.155   3.773 -0.7008 -0.8302  0.0360
 2328SOL    HW1 7304   3.352   1.218   3.845  1.5759  0.3002  0.0231
 2328SOL    HW2 7305   3.373   1.061   3.807 -1.3349 -0.4195  1.1005
 2329SOL     OW 7306   1.530   2.527   3.231 -0.0809  0.3218  0.1526
 2329SOL    HW1 7307   1.536   2.512   3.330  0.3701 -1.6046 -0.1134
 2329SOL    HW2 7308   1.469   2.604   3.213 -0.4062  0.5374  1.9202
 2330SOL     OW 7309   4.675   1.300   4.439  0.0242 -0.1225 -0.2161
 2330SOL    HW1 7310   4.642   1.286   4.532  1.7791 -1.8306  0.2010
 2330SOL    HW2 7311   4.743   1.230   4.416  1.1623  1.4648 -2.0462
 2331SOL     OW 7312   2.628   0.741   1.678 -0.4468  0.0191  0.1871
 2331SOL    HW1 7313   2.661   0.753   1.772 -0.7588  2.0843  0.0936
 2331SOL    HW2 7314   2.694   0.781   1.615 -0.6797 -0.5164 -0.3997
 2332SOL     OW 7315   1.079   1.916   2.648  0.0304  0.2056 -0.5725
 2332SOL    HW1 7316   1.127   1.923   2.561  0.5386  1.6976 -0.2100
 2332SOL    HW2 7317   0.981   1.929   2.635  0.3195  2.9719 -0.7073
 2333SOL     OW 7318   1.790   1.136   2.158 -0.3580 -0.0487  0.3601
 2333SOL    HW1 7319   1.773   1.186   2.243 -2.0003 -2.1001  1.3496
 2333SOL    HW2 7320   1.725   1.165   2.088  0.1002  0.6831  0.2329
 2334SOL     OW 7321   3.019   0.110   2.807  0.2257 -0.1623  0.3991
 2334SOL    HW1 7322   3.079   0.182   2.843 -1.1309  2.2628 -1.8128
 2334SOL    HW2 7323   2.945   0.094   2.872  0.2951  0.7962  0.7368
 2335SOL     OW 7324   1.271   1.716   1.595 -0.7618  0.0977  0.3453
 2335SOL    HW1 7325   1.258   1.724   1.496  0.4721  0.7652  0.2294
 2335SOL    HW2 7326   1.241   1.800   1.640  2.8286  1.7135  0.0669
 2336SOL     OW 7327   2.060   1.515   3.846  0.1355 -0.5193  0.0756
 2336SOL    HW1 7328   2.002   1.568   3.908  0.4034 -1.2665  0.9884
 2336SOL    HW2 7329   2.147   1.496   3.890 -0.5634 -3.1829  0.5060
 2337SOL     OW 7330   2.273   0.409   1.861 -0.5477 -0.0079  0.8101
 2337SOL    HW1 7331   2.348   0.377   1.918 -1.0613 -1.0606  0.9311
 2337SOL    HW2 7332   2.302   0.487   1.807  0.4920 -0.1242  1.1887
 2338SOL     OW 7333   2.379   0.229   2.970 -0.2003 -0.4274  0.1289
 2338SOL    HW1 7334   2.345   0.137   2.991 -0.6755 -0.4085 -0.5026
 2338SOL    HW2 7335   2.377   0.243   2.871 -0.0110  0.2159  0.2119
 2339SOL     OW 7336   3.046   4.736   3.656 -0.0576  0.3055  0.1507
 2339SOL    HW1 7337   2.994   4.686   3.586 -0.0144  0.8071 -0.2431
 2339SOL    HW2 7338   3.122   4.785   3.614 -0.5652  1.3488  0.4034
 2340SOL     OW 7339   5.357   0.081   2.248 -0.0952 -0.0029 -0.0709
 2340SOL    HW1 7340   5.351  -0.016   2.223  0.3343 -0.1433  0.3473
 2340SOL    HW2 7341   5.439   0.121   2.208 -0.5120  0.3087 -0.6218
 2341SOL     OW 7342   0.601   2.533   1.248  0.5240 -0.0158 -0.1867
 2341SOL    HW1 7343   0.560   2.469   1.314  1.0915  0.5970  0.7956
 2341SOL    HW2 7344   0.596   2.626   1.285 -0.7773  0.6170 -1.8352
 2342SOL     OW 7345   2.688   5.160   3.803 -0.7609  0.1338 -0.3341
 2342SOL    HW1 7346   2.658   5.248   3.839  1.6265  0.4144  1.2366
 2342SOL    HW2 7347   2.755   5.175   3.730 -0.7753 -0.3704 -0.4529
 2343SOL     OW 7348   1.712   1.478   3.648 -0.2938 -0.4020 -0.3199
 2343SOL    HW1 7349   1.650   1.428   3.587 -0.6670 -1.0661  0.5902
 2343SOL    HW2 7350   1.660   1.519   3.722  0.0146  1.3254 -1.0114
 2344SOL     OW 7351   2.774   0.913   3.413 -0.3679  0.0827 -0.0847
 2344SOL    HW1 7352   2.765   1.012   3.416 -1.5205  0.0447 -1.4028
 2344SOL    HW2 7353   2.786   0.878   3.506 -3.4124  1.1838  0.8513
 2345SOL     OW 7354   2.867   1.006   4.039 -0.1618  0.9534  0.2590
 2345SOL    HW1 7355   2.880   1.051   3.951  0.7165  0.4171  0.1052
 2345SOL    HW2 7356   2.838   0.911   4.024  1.8050  0.2760  0.4837
 2346SOL     OW 7357   2.492   0.813   3.849  0.6860  0.1939  0.0272
 2346SOL    HW1 7358   2.395   0.796   3.866  0.4992 -0.1991 -1.3400
 2346SOL    HW2 7359   2.509   0.820   3.751  1.9881  0.6486  0.2538
 2347SOL     OW 7360   3.538   1.002   4.436  0.4068  0.4563 -0.0011
 2347SOL    HW1 7361   3.604   1.074   4.458  0.1190  0.2790  1.5616
 2347SOL    HW2 7362   3.502   1.017   4.344  1.1280  1.7066 -0.1052
 2348SOL     OW 7363   3.347   1.883   2.982  0.2503 -0.3963  0.4555
 2348SOL    HW1 7364   3.344   1.911   3.078 -0.7298  0.7939  0.1132
 2348SOL    HW2 7365   3.266   1.828   2.961  0.6727 -1.0095  0.3961
 2349SOL     OW 7366   1.475   1.436   1.110 -0.2721 -0.3695  0.4418
 2349SOL    HW1 7367   1.491   1.337   1.103  0.1557 -0.3267  0.8152
 2349SOL    HW2 7368   1.381   1.456   1.081  0.1629 -0.6789 -1.3102
 2350SOL     OW 7369   2.231   0.823   0.046 -0.3434 -0.4538 -0.3727
 2350SOL    HW1 7370   2.219   0.919   0.022 -2.5463 -1.2600 -2.8486
 2350SOL    HW2 7371   2.182   0.804   0.131  1.0597  0.7890  0.7731
 2351SOL     OW 7372   1.984   0.896   4.284  0.5427 -0.4418  0.5531
 2351SOL    HW1 7373   2.069   0.935   4.250 -0.2117  0.0727 -0.8621
 2351SOL    HW2 7374   1.910   0.963   4.272 -0.1518 -1.0680  1.2543
 2352SOL     OW 7375   1.293   1.011   5.277  0.3832  0.6975 -0.1469
 2352SOL    HW1 7376   1.318   0.939   5.341  0.4586 -0.0062 -0.9462
 2352SOL    HW2 7377   1.260   1.091   5.327  2.0999  0.8243  0.8564
 2353SOL     OW 7378   1.415   0.457   4.372  0.3049  0.0068 -0.1116
 2353SOL    HW1 7379   1.400   0.551   4.402 -0.3959  0.5983 -2.1279
 2353SOL    HW2 7380   1.327   0.409   4.368  0.5488 -0.4553  0.0498
 2354SOL     OW 7381   0.556   5.370   4.472  0.2227 -0.0324  0.4246
 2354SOL    HW1 7382   0.559   5.318   4.557 -0.7550  0.8046  0.9859
 2354SOL    HW2 7383   0.499   5.451   4.484  1.3619  0.9593 -0.5556
 2355SOL     OW 7384   1.309   0.261   4.994  0.2113  0.1234  0.2975
 2355SOL    HW1 7385   1.218   0.301   5.006  0.2939  0.8795 -1.3006
 2355SOL    HW2 7386   1.371   0.331   4.958  1.2715 -0.5637  0.7402
 2356SOL     OW 7387   2.768   0.906   4.453 -0.6771 -0.2540 -0.3028
 2356SOL    HW1 7388   2.867   0.907   4.471 -0.4690 -1.3089 -1.2763
 2356SOL    HW2 7389   2.719   0.905   4.540  0.0393  3.3890  0.3139
 2357SOL     OW 7390   2.730   1.653   4.282  0.2625 -0.0007 -0.0540
 2357SOL    HW1 7391   2.755   1.580   4.346 -0.1650 -0.8575 -0.8450
 2357SOL    HW2 7392   2.796   1.654   4.207 -1.8896 -2.2382 -2.1308
 2358SOL     OW 7393   4.875   2.069   1.806  0.0729  0.2818 -0.1941
 2358SOL    HW1 7394   4.900   2.165   1.792 -0.0300  0.1788 -1.0870
 2358SOL    HW2 7395   4.864   2.023   1.718 -0.8009 -0.3164  0.2084
 2359SOL     OW 7396   2.646   0.378   3.389 -0.4378  0.4051  0.6740
 2359SOL    HW1 7397   2.731   0.334   3.418 -0.5040 -0.1674  0.0103
 2359SOL    HW2 7398   2.586   0.310   3.347 -0.8514  0.9850  0.3158
 2360SOL     OW 7399   2.212   0.839   5.244 -0.1622 -0.0091  0.0406
 2360SOL    HW1 7400   2.151   0.760   5.234  1.5413 -1.2111 -1.4025
 2360SOL    HW2 7401   2.244   0.867   5.154 -0.1762  1.9234  0.6020
 2361SOL     OW 7402   1.175   1.912   4.893  0.4685  0.1115 -0.1881
 2361SOL    HW1 7403   1.258   1.886   4.942  1.3441 -0.4790 -1.9189
 2361SOL    HW2 7404   1.195   1.990   4.833 -0.1991 -0.1188 -0.7221
 2362SOL     OW 7405   1.949   0.260   4.746  0.3954 -0.3480  0.1841
 2362SOL    HW1 7406   1.989   0.325   4.811 -0.3084 -0.6586  0.9475
 2362SOL    HW2 7407   1.923   0.308   4.663 -0.7275  0.4866  0.9960
 2363SOL     OW 7408   3.651   1.947   4.871 -0.0746  0.2344  0.8043
 2363SOL    HW1 7409   3.565   1.996   4.852  0.0261  0.0093 -0.2845
 2363SOL    HW2 7410   3.727   1.993   4.825  0.3498  0.2556  1.5126
 2364SOL     OW 7411   0.823   4.903   4.914 -0.3082 -0.3989 -0.4374
 2364SOL    HW1 7412   0.890   4.831   4.924  0.9087  0.9198  1.4854
 2364SOL    HW2 7413   0.834   4.947   4.825  0.8153 -0.7501 -0.4789
 2365SOL     OW 7414   3.778   1.338   5.095 -0.1710 -0.0661 -0.2205
 2365SOL    HW1 7415   3.701   1.280   5.068 -0.6627  0.7706 -0.6735
 2365SOL    HW2 7416   3.745   1.431   5.113  1.0155  0.9745 -2.8284
 2366SOL     OW 7417   1.349   0.760   2.262  0.4127  0.1552  0.7173
 2366SOL    HW1 7418   1.286   0.697   2.308  2.3417 -1.1385  1.7107
 2366SOL    HW2 7419   1.392   0.820   2.330 -0.1164  1.4254 -0.0192
 2367SOL     OW 7420   2.775   1.301   4.075 -1.2440 -0.0337  0.0635
 2367SOL    HW1 7421   2.704   1.361   4.038 -1.2489  0.1914  0.4336
 2367SOL    HW2 7422   2.759   1.207   4.044 -0.7021  0.3023 -1.3011
 2368SOL     OW 7423   5.105   0.905   4.545 -0.1359 -0.2991 -0.5808
 2368SOL    HW1 7424   5.197   0.876   4.568 -0.1145 -0.5417 -0.9707
 2368SOL    HW2 7425   5.048   0.825   4.527 -0.3535 -0.1422 -0.5919
 2369SOL     OW 7426   2.185   0.474   4.467  0.2295  0.3146 -0.2507
 2369SOL    HW1 7427   2.258   0.420   4.425 -0.8938  0.1481 -2.1416
 2369SOL    HW2 7428   2.140   0.529   4.396  0.3014  2.5508  1.3466
 2370SOL     OW 7429   1.691   0.063   5.226 -0.2055  0.3233  0.0987
 2370SOL    HW1 7430   1.764   0.056   5.294 -0.2244 -1.2829 -0.0191
 2370SOL    HW2 7431   1.606   0.028   5.266 -0.1537 -0.8991 -0.8252
 2371SOL     OW 7432   3.390   0.618   0.262  0.4852  0.1014  0.3283
 2371SOL    HW1 7433   3.419   0.565   0.342 -0.3634  1.7360  1.7658
 2371SOL    HW2 7434   3.318   0.568   0.214 -2.2573  0.9819  3.1889
 2372SOL     OW 7435   3.360   4.665   5.111 -0.4777 -0.5815  0.4267
 2372SOL    HW1 7436   3.403   4.742   5.157 -0.2785 -1.0213  0.9892
 2372SOL    HW2 7437   3.278   4.637   5.160 -0.4988 -0.7892  0.2772
 2373SOL     OW 7438   4.578   0.467   5.429 -0.7035 -0.6038 -0.1748
 2373SOL    HW1 7439   4.583   0.402   5.505  0.8058 -1.1407 -0.7101
 2373SOL    HW2 7440   4.640   0.439   5.356 -2.3296 -0.2670 -1.7758
 2374SOL     OW 7441   5.192   1.562   4.345 -0.0930  0.1467  0.1701
 2374SOL    HW1 7442   5.171   1.604   4.433 -0.3119 -0.8971  0.6279
 2374SOL    HW2 7443   5.115   1.505   4.316  0.8679 -1.2887  0.3870
 2375SOL     OW 7444   3.348   1.894   0.531  0.3821 -0.2529  0.2464
 2375SOL    HW1 7445   3.299   1.923   0.613 -0.7532  1.4715 -0.9588
 2375SOL    HW2 7446   3.354   1.795   0.528 -0.7882 -0.3968  1.7131
 2376SOL     OW 7447   3.633   0.493   4.239  0.5527 -0.0308 -0.2071
 2376SOL    HW1 7448   3.729   0.472   4.254  0.7228  1.1824  0.5864
 2376SOL    HW2 7449   3.625   0.575   4.182 -0.0216 -0.5049 -0.8220
 2377SOL     OW 7450   0.137   0.479   4.418 -0.2852 -0.0785 -0.2669
 2377SOL    HW1 7451   0.228   0.478   4.376 -0.4983  3.7899 -1.2466
 2377SOL    HW2 7452   0.073   0.432   4.358  0.5463 -0.2298 -1.0744
 2378SOL     OW 7453   4.624   2.302   0.738  0.0504 -0.0571 -0.0472
 2378SOL    HW1 7454   4.683   2.258   0.671 -0.0159 -1.6399  0.8963
 2378SOL    HW2 7455   4.537   2.326   0.696  0.3340 -0.2167 -0.7361
 2379SOL     OW 7456   3.087   1.640   3.575  0.2869 -0.0473 -0.1272
 2379SOL    HW1 7457   3.151   1.664   3.649  0.1816  1.7852 -0.5752
 2379SOL    HW2 7458   2.993   1.649   3.609  0.2470 -0.6102 -0.0853
 2380SOL     OW 7459   4.456   4.344   5.075 -0.1538 -0.0226 -0.0660
 2380SOL    HW1 7460   4.463   4.316   5.170 -0.6938  0.2504  0.0622
 2380SOL    HW2 7461   4.424   4.439   5.071  1.4119  0.5239 -0.4875
 2381SOL     OW 7462   3.011   0.611   4.084 -0.5342  0.2726  0.0586
 2381SOL    HW1 7463   3.081   0.653   4.142  0.6413 -1.6509  0.1077
 2381SOL    HW2 7464   2.922   0.621   4.127  0.1856 -0.3043  1.7873
 2382SOL     OW 7465   4.256   0.877   4.570  0.2959  0.4584  0.0141
 2382SOL    HW1 7466   4.190   0.949   4.592 -1.1840 -0.2437 -1.8181
 2382SOL    HW2 7467   4.248   0.802   4.636 -0.8696  0.3222 -0.2683
 2383SOL     OW 7468   3.978   0.394   5.278  0.6512 -0.2785 -0.1904
 2383SOL    HW1 7469   4.077   0.389   5.293  0.6726 -1.8921 -0.7026
 2383SOL    HW2 7470   3.939   0.302   5.282 -1.1658  0.5084  2.0387
 2384SOL     OW 7471   2.720   4.196   5.072  0.1052 -0.2126 -0.5533
 2384SOL    HW1 7472   2.696   4.149   4.987  0.6767 -2.0371  0.2361
 2384SOL    HW2 7473   2.809   4.241   5.062  0.0401 -0.1835 -1.0047
 2385SOL     OW 7474   2.272   0.385   5.340 -0.2144 -0.5968 -0.0800
 2385SOL    HW1 7475   2.294   0.301   5.389  0.8926 -0.3885 -0.1907
 2385SOL    HW2 7476   2.354   0.440   5.330 -0.5565 -0.3243 -1.5884
 2386SOL     OW 7477   0.998   0.623   1.325 -0.0516  0.0657  0.3458
 2386SOL    HW1 7478   1.008   0.524   1.331 -1.5607 -0.0797  0.9515
 2386SOL    HW2 7479   1.078   0.668   1.366  0.6722 -0.8835  0.0031
 2387SOL     OW 7480   2.226   1.240   5.209  0.3247  0.5633 -0.6179
 2387SOL    HW1 7481   2.222   1.253   5.308  1.1733  0.4642 -0.5677
 2387SOL    HW2 7482   2.133   1.245   5.172  0.1005  1.6004  0.0481
 2388SOL     OW 7483   2.098   0.017   4.779 -0.4758 -0.3079 -0.5875
 2388SOL    HW1 7484   2.054   0.102   4.751  0.8275  0.4790 -0.3312
 2388SOL    HW2 7485   2.034  -0.038   4.833 -0.5658  1.6525  1.3883
 2389SOL     OW 7486   3.680   0.282   4.940  0.7099 -0.4775  0.0547
 2389SOL    HW1 7487   3.583   0.282   4.913  0.9634  1.6979 -0.9980
 2389SOL    HW2 7488   3.687   0.306   5.037  0.1963 -0.9800  0.2255
 2390SOL     OW 7489   2.801   0.867   3.699 -0.4695  0.1976 -0.2051
 2390SOL    HW1 7490   2.744   0.817   3.763 -1.2858  1.4819  0.1124
 2390SOL    HW2 7491   2.801   0.964   3.723  2.4266  0.1859  0.2500
 2391SOL     OW 7492   4.107   0.519   3.529 -0.3364 -0.1096  0.1832
 2391SOL    HW1 7493   4.193   0.528   3.478 -1.5445 -3.4706 -2.8524
 2391SOL    HW2 7494   4.111   0.439   3.588 -1.4555 -0.5462 -0.2985
 2392SOL     OW 7495   2.839   1.183   4.735 -0.3769 -0.3119 -0.7716
 2392SOL    HW1 7496   2.743   1.174   4.761  0.1920  0.4301  1.9289
 2392SOL    HW2 7497   2.894   1.116   4.786  0.8274  1.0827 -0.1637
 2393SOL     OW 7498   3.780   2.598   5.041  0.0920 -0.2805  0.0417
 2393SOL    HW1 7499   3.818   2.543   4.967  3.3389  0.3790  1.0605
 2393SOL    HW2 7500   3.706   2.547   5.086 -0.7429 -1.4263 -2.4155
 2394SOL     OW 7501   2.955   3.860   3.969 -0.0421  1.0631 -0.2053
 2394SOL    HW1 7502   2.866   3.859   4.014  0.1697 -0.4568  0.2287
 2394SOL    HW2 7503   2.945   3.893   3.875 -1.2881 -0.3040 -0.5814
 2395SOL     OW 7504   3.493   1.573   4.236 -0.1659 -0.1996  0.0455
 2395SOL    HW1 7505   3.529   1.664   4.215  0.4979 -0.8772 -2.0564
 2395SOL    HW2 7506   3.394   1.573   4.227 -0.0275 -0.0713 -1.7599
 2396SOL     OW 7507   1.157   5.012   2.965 -0.3114  0.6428  0.3069
 2396SOL    HW1 7508   1.179   4.947   2.892  1.1909 -0.0430  1.3225
 2396SOL    HW2 7509   1.169   4.968   3.054 -1.7807  1.5637  0.9991
 2397SOL     OW 7510   3.512   1.563   4.893 -0.5485 -0.5526 -0.1990
 2397SOL    HW1 7511   3.603   1.605   4.890 -1.1899  0.8888 -0.5450
 2397SOL    HW2 7512   3.521   1.464   4.887  0.9816 -0.4280 -0.5199
 2398SOL     OW 7513   2.721   1.828   5.228 -0.7013  0.4102  0.1724
 2398SOL    HW1 7514   2.763   1.878   5.152  1.7413  1.0561  1.8595
 2398SOL    HW2 7515   2.696   1.891   5.301 -2.5354 -0.2677  0.1942
 2399SOL     OW 7516   2.986   0.449   3.627 -0.1928 -0.3660  0.0146
 2399SOL    HW1 7517   2.967   0.547   3.625 -3.1211 -0.8111  1.1401
 2399SOL    HW2 7518   2.996   0.418   3.722 -0.3032 -1.3198 -0.2710
 2400SOL     OW 7519   2.223   5.148   4.236  0.1904  0.0093 -0.5112
 2400SOL    HW1 7520   2.268   5.063   4.208 -1.3111 -0.8064 -0.5522
 2400SOL    HW2 7521   2.246   5.168   4.331 -1.5240 -1.9510  0.4169
 2401SOL     OW 7522   3.321   1.892   3.511  0.6535  0.4329 -0.0801
 2401SOL    HW1 7523   3.284   1.830   3.442  2.0026 -0.3488 -0.1459
 2401SOL    HW2 7524   3.290   1.864   3.602  1.1303 -0.2682 -0.1228
 2402SOL     OW 7525   2.462   2.256   4.675 -0.0395 -0.7311 -0.0057
 2402SOL    HW1 7526   2.469   2.165   4.718  0.7476 -0.6685  0.0119
 2402SOL    HW2 7527   2.513   2.256   4.589  1.4175  0.1682  0.8179
 2403SOL     OW 7528   3.950   4.194   5.183  0.1692 -0.0610 -0.2273
 2403SOL    HW1 7529   4.019   4.161   5.247 -1.5571  1.8128  2.9113
 2403SOL    HW2 7530   3.994   4.241   5.107  2.3967  0.1581  1.1101
 2404SOL     OW 7531   1.552   3.548   4.018 -0.0940  0.4862 -0.2714
 2404SOL    HW1 7532   1.643   3.526   3.982 -0.1557 -0.2660  0.0078
 2404SOL    HW2 7533   1.497   3.465   4.022 -0.5879  0.8268  0.1422
 2405SOL     OW 7534   1.788   2.545   3.129  0.1911 -0.0569 -0.2215
 2405SOL    HW1 7535   1.825   2.454   3.145  0.9353  0.0423 -1.2698
 2405SOL    HW2 7536   1.699   2.554   3.174  0.9329 -0.6630  1.4530
 2406SOL     OW 7537   2.143   2.060   5.514  0.3205  0.4613  0.5152
 2406SOL    HW1 7538   2.218   2.032   5.454  1.3654  0.2897  1.8646
 2406SOL    HW2 7539   2.142   2.160   5.521  0.8026  0.4394  0.9546
 2407SOL     OW 7540   1.883   0.599   0.177  0.0209  0.1124 -0.8437
 2407SOL    HW1 7541   1.943   0.587   0.097 -1.1858  2.0758 -2.1168
 2407SOL    HW2 7542   1.938   0.600   0.260  1.4158 -1.0462 -1.7055
 2408SOL     OW 7543   3.133   0.966   4.124 -0.1358 -0.1826  0.2102
 2408SOL    HW1 7544   3.034   0.981   4.120 -0.3130 -1.3911 -0.7454
 2408SOL    HW2 7545   3.181   1.054   4.122 -1.1943  0.5030  2.3256
 2409SOL     OW 7546   3.602   0.402   0.793 -0.3639  0.0220 -0.0735
 2409SOL    HW1 7547   3.517   0.350   0.795  0.5343 -1.5782 -1.3048
 2409SOL    HW2 7548   3.608   0.459   0.875 -2.5899  0.1738  0.0482
 2410SOL     OW 7549   2.730   1.455   4.707  0.3506  0.9512  0.4672
 2410SOL    HW1 7550   2.772   1.365   4.702  2.9931  2.0614  0.8347
 2410SOL    HW2 7551   2.635   1.446   4.735 -0.6807 -1.9608 -3.0800
 2411SOL     OW 7552   4.060   0.931   5.133  0.5899 -0.5464  0.2292
 2411SOL    HW1 7553   3.967   0.948   5.100  0.1416 -0.9151  1.2618
 2411SOL    HW2 7554   4.067   0.836   5.165  1.3850 -0.5850 -0.0422
 2412SOL     OW 7555   2.672   1.876   4.146 -0.1947 -0.2773  0.9739
 2412SOL    HW1 7556   2.577   1.901   4.128 -0.1173 -1.3048 -1.1046
 2412SOL    HW2 7557   2.675   1.789   4.194 -0.2958 -0.6320  0.3417
 2413SOL     OW 7558   1.754   4.802   3.790  0.8822  0.6869  0.4230
 2413SOL    HW1 7559   1.730   4.709   3.764 -0.6038  1.1361  0.1002
 2413SOL    HW2 7560   1.672   4.851   3.818  0.2718  3.7310 -5.1527
 2414SOL     OW 7561   4.081   1.033   4.003 -0.4192  0.0097  0.2065
 2414SOL    HW1 7562   4.097   1.109   3.941  3.7094 -0.5684  0.2658
 2414SOL    HW2 7563   4.005   0.978   3.970 -1.6421  2.5177 -1.4196
 2415SOL     OW 7564   3.371   1.271   4.723  0.1523  0.0824  0.4314
 2415SOL    HW1 7565   3.402   1.324   4.644  0.4891 -2.3071 -1.1546
 2415SOL    HW2 7566   3.279   1.300   4.749  1.2405  3.1319  1.3290
 2416SOL     OW 7567   0.267   5.189   4.694  0.0302  0.3556  0.4410
 2416SOL    HW1 7568   0.223   5.200   4.605  0.2749 -0.4881  0.2112
 2416SOL    HW2 7569   0.365   5.174   4.680  0.4559  2.3385  0.9437
 2417SOL     OW 7570   4.237   5.009   2.503  0.0171 -0.3346 -0.5456
 2417SOL    HW1 7571   4.325   4.961   2.507  0.1574 -0.0288  2.4949
 2417SOL    HW2 7572   4.249   5.099   2.461  0.8293 -0.8957 -1.5347
 2418SOL     OW 7573   3.395   0.282   4.940  0.5971  0.1794 -0.2806
 2418SOL    HW1 7574   3.347   0.369   4.923  0.5325 -0.2220 -2.4438
 2418SOL    HW2 7575   3.360   0.213   4.877  1.3501 -1.1700  0.7488
 2419SOL     OW 7576   3.726   2.140   2.747 -0.2554 -0.1888  0.3580
 2419SOL    HW1 7577   3.678   2.075   2.806 -0.7183 -0.0506  0.1445
 2419SOL    HW2 7578   3.818   2.157   2.783 -0.3421 -0.5103  0.7395
 2420SOL     OW 7579   3.423   0.916   3.895  0.1445 -0.4287  1.1025
 2420SOL    HW1 7580   3.516   0.916   3.932  0.1089  1.4843  1.3027
 2420SOL    HW2 7581   3.359   0.888   3.966  0.4498 -0.6691  1.2888
 2421SOL     OW 7582   3.433   1.486   3.905 -0.3222 -0.1160 -0.2796
 2421SOL    HW1 7583   3.375   1.420   3.951  1.2776 -1.5582 -0.2294
 2421SOL    HW2 7584   3.526   1.480   3.941  0.0504  1.6246 -0.8419
 2422SOL     OW 7585   1.928   4.877   2.594  0.5172  0.2678 -0.0685
 2422SOL    HW1 7586   1.920   4.880   2.694 -0.9858  1.2113 -0.1847
 2422SOL    HW2 7587   2.023   4.891   2.568  1.0255 -0.5403  1.2319
 2423SOL     OW 7588   3.730   0.288   0.113  0.3018  0.1571  0.2230
 2423SOL    HW1 7589   3.739   0.201   0.064 -1.3712 -0.3054  0.6584
 2423SOL    HW2 7590   3.798   0.353   0.079 -0.4110 -0.3235 -2.3231
 2424SOL     OW 7591   2.175   0.391   0.614 -0.3053  0.6020 -0.0463
 2424SOL    HW1 7592   2.240   0.334   0.665  0.8698  3.0210  1.3417
 2424SOL    HW2 7593   2.143   0.341   0.533  1.1768 -1.7045  0.6926
 2425SOL     OW 7594   2.327   0.353   0.339  0.0901  0.0137 -0.4389
 2425SOL    HW1 7595   2.282   0.349   0.250 -1.8499 -2.3147  0.5502
 2425SOL    HW2 7596   2.341   0.449   0.364  1.1254  0.7368 -3.3894
 2426SOL     OW 7597   1.895   0.851   1.740  0.5579  0.1979  0.4635
 2426SOL    HW1 7598   1.954   0.773   1.721 -0.7019 -0.5741 -0.3611
 2426SOL    HW2 7599   1.914   0.924   1.675 -0.5202 -0.6830 -0.8871
 2427SOL     OW 7600   3.608   1.910   0.562 -0.6059  0.1217 -0.6103
 2427SOL    HW1 7601   3.638   1.935   0.470 -0.9026 -3.9514 -2.0325
 2427SOL    HW2 7602   3.509   1.900   0.564 -0.4197 -2.5317 -0.7893
 2428SOL     OW 7603   3.370   0.228   4.373  0.2833  0.4301 -0.1464
 2428SOL    HW1 7604   3.467   0.221   4.400  0.1558  2.1783  0.9098
 2428SOL    HW2 7605   3.313   0.229   4.455 -0.7445 -1.3385 -0.7735
 2429SOL     OW 7606   5.263   5.155   5.326 -0.6099  0.1727  0.3473
 2429SOL    HW1 7607   5.326   5.219   5.283 -0.2609 -0.2704  0.1860
 2429SOL    HW2 7608   5.187   5.205   5.367 -0.3549  0.6835  0.2048
 2430SOL     OW 7609   2.348   1.254   3.332 -0.0267  0.8256  0.5811
 2430SOL    HW1 7610   2.260   1.234   3.376 -0.7007  0.5312 -0.8629
 2430SOL    HW2 7611   2.376   1.347   3.355 -1.3130  1.3522  0.1001
 2431SOL     OW 7612   2.853   0.856   1.571 -0.2882  0.3776  0.5658
 2431SOL    HW1 7613   2.934   0.911   1.589  0.1194 -0.7064  2.2644
 2431SOL    HW2 7614   2.835   0.855   1.473  0.3909  2.4923  0.3666
 2432SOL     OW 7615   4.147   0.513   4.182 -0.2867  0.4720  0.5054
 2432SOL    HW1 7616   4.172   0.604   4.214 -1.3492  1.2411 -0.7533
 2432SOL    HW2 7617   4.219   0.448   4.207  0.3802  1.5896  1.6258
 2433SOL     OW 7618   2.675   4.698   2.873 -0.0374  0.0313 -0.4839
 2433SOL    HW1 7619   2.697   4.793   2.848 -0.8887  0.2955 -0.2624
 2433SOL    HW2 7620   2.604   4.663   2.813  0.9463 -0.8186 -1.1943
 2434SOL     OW 7621   0.095   1.428   0.766  0.3137 -0.2824 -0.1367
 2434SOL    HW1 7622   0.116   1.366   0.841  0.3293 -1.1100 -0.8113
 2434SOL    HW2 7623  -0.003   1.429   0.750  0.2603  0.2446  0.1756
 2435SOL     OW 7624   3.402   0.475   0.509 -0.2800  0.1203 -0.2662
 2435SOL    HW1 7625   3.333   0.407   0.481 -1.1462  1.3589 -1.2694
 2435SOL    HW2 7626   3.493   0.434   0.501 -0.7793 -0.9595 -0.7700
 2436SOL     OW 7627   2.784   1.190   3.458 -0.2568 -0.7667 -0.2102
 2436SOL    HW1 7628   2.733   1.258   3.509  1.0838 -0.6134  0.9896
 2436SOL    HW2 7629   2.818   1.230   3.373 -2.1686 -0.9090 -1.0904
 2437SOL     OW 7630   2.338   1.238   0.100 -0.6404 -1.1850  0.0443
 2437SOL    HW1 7631   2.359   1.146   0.069 -0.2938 -0.9045 -0.5647
 2437SOL    HW2 7632   2.347   1.243   0.200  2.3932 -1.0532 -0.1458
 2438SOL     OW 7633   2.449   1.219   0.735 -0.2108 -0.0215 -0.1078
 2438SOL    HW1 7634   2.513   1.294   0.716 -0.6115  0.1412 -0.8918
 2438SOL    HW2 7635   2.484   1.134   0.695  1.1761 -0.7072  2.4015
 2439SOL     OW 7636   2.870   5.371   0.060  0.8594 -0.2033 -0.2873
 2439SOL    HW1 7637   2.914   5.303   0.001  1.2657 -0.3189  0.1427
 2439SOL    HW2 7638   2.900   5.463   0.034 -0.0390 -0.1361 -1.1670
 2440SOL     OW 7639   5.317   1.644   4.958 -0.4510  0.4048  0.4653
 2440SOL    HW1 7640   5.407   1.613   4.926 -0.0848 -0.9078  2.5890
 2440SOL    HW2 7641   5.271   1.693   4.884  1.7236  0.5464 -0.8913
 2441SOL     OW 7642   3.044   5.167   5.526 -0.0719 -0.4888  0.1421
 2441SOL    HW1 7643   3.043   5.122   5.437  0.1670 -0.9115  0.3481
 2441SOL    HW2 7644   3.139   5.182   5.554 -0.0374 -2.8943  1.5740
 2442SOL     OW 7645   3.369   0.620   3.955  0.7324  0.4504 -0.1789
 2442SOL    HW1 7646   3.323   0.562   4.022  1.6283  0.0141  0.0673
 2442SOL    HW2 7647   3.461   0.643   3.988  1.7237 -0.9014 -1.8486
 2443SOL     OW 7648   4.443   3.862   0.333  0.5187  0.3021 -0.4329
 2443SOL    HW1 7649   4.391   3.912   0.402  0.2115 -0.7750  0.1446
 2443SOL    HW2 7650   4.540   3.887   0.339  0.5810 -0.2023  0.7797
 2444SOL     OW 7651   1.756   2.569   3.596 -0.1038  0.2507  0.5338
 2444SOL    HW1 7652   1.772   2.633   3.672  2.1367  1.4488 -0.8168
 2444SOL    HW2 7653   1.802   2.482   3.616 -0.5462  0.1305  1.0533
 2445SOL     OW 7654   3.286   1.664   5.018  0.2043 -0.9672 -0.2635
 2445SOL    HW1 7655   3.362   1.629   4.962  1.6060  0.3799  0.7099
 2445SOL    HW2 7656   3.293   1.763   5.026 -2.2752 -0.6820 -0.9388
 2446SOL     OW 7657   4.337   4.923   5.040  0.9176  0.2084 -0.1592
 2446SOL    HW1 7658   4.411   4.929   5.107  0.0596 -2.3110  1.1680
 2446SOL    HW2 7659   4.360   4.856   4.971  1.5973  2.4761 -2.2722
 2447SOL     OW 7660   2.923   0.831   3.001 -0.0986 -0.2510  1.0659
 2447SOL    HW1 7661   2.958   0.828   2.908  1.8326  0.2861  1.7351
 2447SOL    HW2 7662   2.887   0.741   3.027 -0.1448 -0.5467  0.0027
 2448SOL     OW 7663   4.055   1.005   0.049  0.2162  0.5237  0.1052
 2448SOL    HW1 7664   4.007   0.941  -0.011  1.5221 -1.0482  0.6463
 2448SOL    HW2 7665   4.047   0.974   0.144  1.8691  0.4321  0.2579
 2449SOL     OW 7666   3.082   1.965   4.911 -0.0414  0.2979 -0.1935
 2449SOL    HW1 7667   3.104   1.905   4.834 -0.4658 -0.5743  0.3480
 2449SOL    HW2 7668   3.151   1.955   4.982  0.4788  1.2786 -0.5389
 2450SOL     OW 7669   1.176   0.067   0.103 -0.0420  0.2683  0.3625
 2450SOL    HW1 7670   1.118   0.097   0.027 -0.9149 -0.0229  0.8996
 2450SOL    HW2 7671   1.121   0.059   0.186  0.7486 -0.1374  0.8601
 2451SOL     OW 7672   1.252   1.747   0.771 -0.0420 -0.2640 -0.0906
 2451SOL    HW1 7673   1.296   1.833   0.796 -1.7249  0.6273 -0.0348
 2451SOL    HW2 7674   1.240   1.744   0.672 -1.5495  0.4246  0.0320
 2452SOL     OW 7675   4.341   1.433   0.736 -0.4251  0.2554  0.2691
 2452SOL    HW1 7676   4.344   1.443   0.636  1.1949 -1.2637  0.1229
 2452SOL    HW2 7677   4.253   1.395   0.764 -0.1315 -1.3050 -0.8213
 2453SOL     OW 7678   2.888   0.675   0.154  0.6799 -0.3601 -0.0105
 2453SOL    HW1 7679   2.871   0.730   0.236  1.6039 -0.8465  0.5254
 2453SOL    HW2 7680   2.957   0.720   0.097  0.2161 -0.1448 -0.4108
 2454SOL     OW 7681   3.483   4.677   0.233  0.5453 -0.3689  0.5216
 2454SOL    HW1 7682   3.492   4.776   0.248 -1.2689 -0.0703 -0.1064
 2454SOL    HW2 7683   3.507   4.656   0.138  1.2350 -0.6027  0.7388
 2455SOL     OW 7684   1.596   2.236   0.101 -0.0577  0.2714 -0.3432
 2455SOL    HW1 7685   1.551   2.162   0.052  1.1512 -0.0575 -0.9888
 2455SOL    HW2 7686   1.611   2.209   0.196 -1.4111  0.4859 -0.0464
 2456SOL     OW 7687   4.044   0.268   4.989  0.3723  0.0761  0.3795
 2456SOL    HW1 7688   4.101   0.194   5.023  1.3568  0.6819  0.0704
 2456SOL    HW2 7689   4.042   0.343   5.056  1.9800  1.0983 -0.6572
 2457SOL     OW 7690   3.806   5.458   0.561  0.4425  0.3972 -0.1969
 2457SOL    HW1 7691   3.783   5.528   0.493  0.7271 -0.3509 -1.0894
 2457SOL    HW2 7692   3.752   5.375   0.543  0.0346  0.4083  0.9035
 2458SOL     OW 7693   2.469   0.323   4.940  0.6955 -0.5499  0.0771
 2458SOL    HW1 7694   2.472   0.236   4.990 -2.0570 -0.4592  0.5577
 2458SOL    HW2 7695   2.446   0.306   4.844  0.3928 -0.3667  0.1167
 2459SOL     OW 7696   1.219   1.906   5.576  0.1310  0.2637  0.0578
 2459SOL    HW1 7697   1.119   1.914   5.573 -0.1657 -1.1335  2.8087
 2459SOL    HW2 7698   1.251   1.855   5.496 -1.4509  0.0258 -0.4524
 2460SOL     OW 7699   3.278   0.672   0.875  0.2039  0.0527 -0.0225
 2460SOL    HW1 7700   3.306   0.700   0.783  1.4573 -0.1111  0.2777
 2460SOL    HW2 7701   3.234   0.748   0.921 -1.1140 -0.0843 -0.9991
 2461SOL     OW 7702   4.250   0.341   5.316 -0.0860  0.0705 -0.2002
 2461SOL    HW1 7703   4.313   0.362   5.242 -0.8212 -0.8358 -1.1065
 2461SOL    HW2 7704   4.297   0.288   5.386  0.0789 -1.0018 -1.0913
 2462SOL     OW 7705   3.444   0.718   4.347  0.5807  0.1350 -0.8032
 2462SOL    HW1 7706   3.496   0.803   4.356 -1.6798  1.4227  1.2313
 2462SOL    HW2 7707   3.492   0.645   4.395  1.8188  0.5924 -1.2961
 2463SOL     OW 7708   4.906   1.607   4.789 -0.6689 -0.3886  0.5000
 2463SOL    HW1 7709   4.854   1.676   4.740 -0.6167 -0.5336  0.2412
 2463SOL    HW2 7710   4.902   1.520   4.740  1.0507 -0.0474 -0.3351
 2464SOL     OW 7711   2.453   5.080   5.142 -0.8703  0.4577  0.1339
 2464SOL    HW1 7712   2.416   5.173   5.151 -1.9370  0.1737 -1.0642
 2464SOL    HW2 7713   2.421   5.023   5.217  1.1870  1.4432  1.8791
 2465SOL     OW 7714   3.649   3.026   0.599 -0.4623  0.3518 -0.0193
 2465SOL    HW1 7715   3.726   3.083   0.571 -1.3332  1.9252  0.6478
 2465SOL    HW2 7716   3.683   2.944   0.645  0.9073 -0.9444 -3.0605
 2466SOL     OW 7717   4.103   3.893   0.256 -0.4134  0.7419 -0.4617
 2466SOL    HW1 7718   4.124   3.969   0.194 -1.3439 -0.3955 -2.2568
 2466SOL    HW2 7719   4.035   3.833   0.213  0.3498 -1.1599  0.8557
 2467SOL     OW 7720   2.625   5.229   5.451  0.5602  0.1938  0.3274
 2467SOL    HW1 7721   2.639   5.158   5.382 -0.0059  0.5531 -0.1699
 2467SOL    HW2 7722   2.647   5.193   5.541 -1.6858 -1.3187  0.3712
 2468SOL     OW 7723   1.604   0.038   4.335 -0.2105  0.5728  0.5472
 2468SOL    HW1 7724   1.567   0.094   4.409 -1.5963 -1.3296  1.3715
 2468SOL    HW2 7725   1.582  -0.058   4.351  0.6709 -0.0656 -1.6355
 2469SOL     OW 7726   4.259   0.790   3.228 -0.2456  0.0289  0.2085
 2469SOL    HW1 7727   4.199   0.863   3.194 -1.4773 -0.6009  0.9447
 2469SOL    HW2 7728   4.300   0.818   3.315 -0.9936 -0.2699  0.6683
 2470SOL     OW 7729   2.819   1.362   4.346  0.3697 -0.1155  0.0909
 2470SOL    HW1 7730   2.819   1.316   4.257  1.6267  0.6249 -0.3190
 2470SOL    HW2 7731   2.878   1.312   4.409 -0.4649 -0.5999  0.5052
 2471SOL     OW 7732   2.425   5.390   5.349 -0.5806  0.2808 -0.2109
 2471SOL    HW1 7733   2.461   5.483   5.354 -1.6439  0.6955 -0.1580
 2471SOL    HW2 7734   2.494   5.326   5.384  1.2600  0.7209 -2.7489
 2472SOL     OW 7735   1.513   0.152   4.588 -0.2212  0.0924 -0.0452
 2472SOL    HW1 7736   1.507   0.241   4.633  1.9063  0.6772 -0.7826
 2472SOL    HW2 7737   1.561   0.088   4.647  1.9122  0.6543 -1.0429
 2473SOL     OW 7738   4.267   4.324   1.540  0.1447  0.2752 -0.2288
 2473SOL    HW1 7739   4.219   4.395   1.590  3.8666  1.9079  1.4050
 2473SOL    HW2 7740   4.279   4.351   1.445  2.3142  2.5059  0.5654
 2474SOL     OW 7741   3.561   0.777   2.066 -0.1683  0.4651  0.2728
 2474SOL    HW1 7742   3.616   0.861   2.072 -0.5667  0.7161  0.4517
 2474SOL    HW2 7743   3.603   0.714   2.000 -1.3497  1.9208 -1.9822
 2475SOL     OW 7744   0.479   1.730   4.238 -0.1449  0.4880 -0.4317
 2475SOL    HW1 7745   0.498   1.650   4.182 -0.3636 -0.0459  0.2470
 2475SOL    HW2 7746   0.381   1.746   4.242 -0.1423  0.4181 -0.0604
 2476SOL     OW 7747   0.865   2.726   4.132 -0.1489  0.5337  0.0957
 2476SOL    HW1 7748   0.804   2.803   4.149  0.1077  0.5168  1.2062
 2476SOL    HW2 7749   0.896   2.688   4.220 -0.3468 -0.8954 -0.4201
 2477SOL     OW 7750   1.938   1.277   5.095  0.2719  0.1657 -0.5663
 2477SOL    HW1 7751   1.896   1.186   5.091  1.2473 -0.4129  1.1914
 2477SOL    HW2 7752   1.978   1.299   5.006  0.2149 -1.2298 -0.9587
 2478SOL     OW 7753   3.233   0.439   4.800  0.0539 -0.1138 -0.4446
 2478SOL    HW1 7754   3.268   0.512   4.741 -1.5799  1.7008  0.6913
 2478SOL    HW2 7755   3.133   0.445   4.803  0.0840  0.4746  3.1332
 2479SOL     OW 7756   1.624   0.932   4.941  0.2675 -0.1525  0.4309
 2479SOL    HW1 7757   1.601   0.977   5.027 -1.3368 -2.5124  1.3430
 2479SOL    HW2 7758   1.569   0.971   4.867  0.5960  0.9027  0.7229
 2480SOL     OW 7759   2.961   0.074   0.032 -0.8019  0.3355  0.0026
 2480SOL    HW1 7760   2.947   0.106  -0.062 -2.6110 -1.2996 -0.3514
 2480SOL    HW2 7761   2.912   0.135   0.094  1.9648  2.5799  0.1966
 2481SOL     OW 7762   2.332   2.362   0.043 -0.1020  0.3480  0.3618
 2481SOL    HW1 7763   2.424   2.348   0.007  0.6057 -1.7633  2.7235
 2481SOL    HW2 7764   2.336   2.415   0.127 -1.0928  0.5401  0.3047
 2482SOL     OW 7765   0.388   0.961   0.278  0.1739  0.0973 -0.7309
 2482SOL    HW1 7766   0.357   0.868   0.297  0.1692  0.0545 -0.9443
 2482SOL    HW2 7767   0.385   0.978   0.179  1.5398 -0.1605 -0.8363
 2483SOL     OW 7768   1.971   4.100   4.978 -0.3461 -0.4822  0.2710
 2483SOL    HW1 7769   1.935   4.157   5.053 -1.0152 -0.7603  0.1670
 2483SOL    HW2 7770   2.069   4.088   4.991 -0.2956  0.2027  0.6237
 2484SOL     OW 7771   0.778   1.529   5.014  0.3257 -0.2402  0.1230
 2484SOL    HW1 7772   0.740   1.501   4.925  0.7133  0.1065 -0.1547
 2484SOL    HW2 7773   0.751   1.623   5.034 -1.4890 -0.9715  1.3429
 2485SOL     OW 7774   3.042   0.879   4.487 -0.2504 -0.3253 -0.1763
 2485SOL    HW1 7775   3.055   0.834   4.399 -0.5774 -1.9307  0.5595
 2485SOL    HW2 7776   3.130   0.915   4.520  0.2682 -1.5269 -0.2169
 2486SOL     OW 7777   4.455   1.060   3.750 -0.1702  0.8838 -0.3927
 2486SOL    HW1 7778   4.513   1.130   3.706 -0.0252  0.8705 -0.2241
 2486SOL    HW2 7779   4.509   1.011   3.819 -0.9920  2.4348  1.4414
 2487SOL     OW 7780   2.430   1.708   2.599  0.3116  0.1501 -0.1531
 2487SOL    HW1 7781   2.426   1.782   2.532  2.4798  0.3410 -0.1529
 2487SOL    HW2 7782   2.459   1.745   2.688 -4.7908  0.3492  1.7758
 2488SOL     OW 7783   1.455   2.782   4.621  0.4368 -0.1315  0.8042
 2488SOL    HW1 7784   1.508   2.727   4.555  0.4211  1.5559 -0.6985
 2488SOL    HW2 7785   1.434   2.871   4.580 -0.8065  0.4498  2.6063
 2489SOL     OW 7786   3.512   1.089   4.160 -0.1372 -0.1482  0.2740
 2489SOL    HW1 7787   3.446   1.160   4.136  1.0718  0.7965 -0.3730
 2489SOL    HW2 7788   3.604   1.121   4.138  0.4767 -1.7290  0.4509
 2490SOL     OW 7789   1.482   1.047   4.687  0.3637 -0.3963  0.0397
 2490SOL    HW1 7790   1.397   1.086   4.723 -0.5995 -0.3786 -2.1260
 2490SOL    HW2 7791   1.537   1.119   4.645  0.5082 -0.7210 -0.3355
 2491SOL     OW 7792   3.367   1.148   5.243  0.0836  0.1225  0.5843
 2491SOL    HW1 7793   3.294   1.165   5.309 -1.2317  0.1625 -0.8286
 2491SOL    HW2 7794   3.346   1.066   5.191  2.0771 -1.0424  1.4713
 2492SOL     OW 7795   4.043   1.756   4.399 -0.4817 -0.2397  0.3537
 2492SOL    HW1 7796   4.036   1.671   4.346 -0.9632 -0.5066  0.8413
 2492SOL    HW2 7797   4.015   1.833   4.342  0.0770 -0.3850 -0.1335
 2493SOL     OW 7798   1.291   2.577   4.726  0.1102  0.2159 -0.4211
 2493SOL    HW1 7799   1.320   2.668   4.696  0.3657  0.2795  0.0109
 2493SOL    HW2 7800   1.348   2.508   4.681  1.3563  0.3664  0.8708
 2494SOL     OW 7801   3.727   1.643   0.552  0.1172 -0.8459  0.2044
 2494SOL    HW1 7802   3.820   1.655   0.585  0.7559  0.9383 -1.9515
 2494SOL    HW2 7803   3.676   1.728   0.565 -0.3206 -0.8838 -1.0975
 2495SOL     OW 7804   2.620   4.117   4.338 -0.0088  0.1289  0.7165
 2495SOL    HW1 7805   2.562   4.046   4.299  1.3200 -1.1654  1.0247
 2495SOL    HW2 7806   2.564   4.199   4.356 -1.0596  0.1277 -2.0342
 2496SOL     OW 7807   0.151   2.063   1.765 -0.4554 -0.2887 -0.2337
 2496SOL    HW1 7808   0.226   2.124   1.789 -0.2420 -0.0118 -1.5395
 2496SOL    HW2 7809   0.161   1.977   1.817  0.6193 -0.1645 -0.2040
 2497SOL     OW 7810   3.373   4.235   1.380 -0.4283  0.0570 -0.0176
 2497SOL    HW1 7811   3.361   4.137   1.362  1.9477 -0.3329  0.2054
 2497SOL    HW2 7812   3.469   4.254   1.400 -1.0978  2.2037  1.5688
 2498SOL     OW 7813   2.560   0.641   3.282 -0.0063  0.0045  0.1174
 2498SOL    HW1 7814   2.577   0.543   3.283 -0.0344 -0.1797 -3.4531
 2498SOL    HW2 7815   2.630   0.687   3.336  0.3010 -1.9123  1.4496
 2499SOL     OW 7816   3.349   1.651   4.672 -0.2003  0.2409 -0.6395
 2499SOL    HW1 7817   3.386   1.614   4.758 -3.7508 -1.1563  0.4554
 2499SOL    HW2 7818   3.354   1.580   4.601 -0.8105  0.0054 -0.4547
 2500SOL     OW 7819   2.794   1.981   2.989 -0.2717  0.1165  0.6712
 2500SOL    HW1 7820   2.833   1.903   3.038 -0.5476 -0.0383  0.6408
 2500SOL    HW2 7821   2.760   2.048   3.055  0.5064  0.4880  0.7073
 2501SOL     OW 7822   4.371   2.518   4.395 -0.1542  0.4721  0.4428
 2501SOL    HW1 7823   4.298   2.460   4.432 -0.2833  0.3394 -0.0091
 2501SOL    HW2 7824   4.456   2.501   4.444 -0.1015 -0.3669  0.0793
 2502SOL     OW 7825   4.336   4.590   5.103  0.7287  0.0185 -0.9304
 2502SOL    HW1 7826   4.238   4.571   5.097  0.8240 -0.7019 -0.2919
 2502SOL    HW2 7827   4.357   4.673   5.051 -0.4576  1.0501  0.1797
 2503SOL     OW 7828   3.717   5.085   3.551  0.6047 -0.0153 -0.2572
 2503SOL    HW1 7829   3.752   5.034   3.472  0.9925 -0.4886  0.2104
 2503SOL    HW2 7830   3.767   5.171   3.559  0.2080  0.2703 -0.8297
 2504SOL     OW 7831   1.798   1.830   2.237  0.2974 -0.5371  0.2422
 2504SOL    HW1 7832   1.835   1.914   2.197  0.2735  0.7075  2.6797
 2504SOL    HW2 7833   1.804   1.834   2.337 -2.9636 -1.9090  0.6219
 2505SOL     OW 7834   1.328   2.780   0.890  0.1588  0.2603  0.2649
 2505SOL    HW1 7835   1.293   2.834   0.813 -0.3027  1.2398  1.1344
 2505SOL    HW2 7836   1.311   2.829   0.975 -3.4499 -2.6573  1.5286
 2506SOL     OW 7837   5.240   0.473   3.276 -0.3001  0.4870 -0.0066
 2506SOL    HW1 7838   5.340   0.477   3.280 -0.2878  1.0155 -0.6517
 2506SOL    HW2 7839   5.210   0.483   3.181 -0.9385 -0.5534  0.0689
 2507SOL     OW 7840   2.801   1.477   3.742 -0.7129 -0.3341 -0.6587
 2507SOL    HW1 7841   2.874   1.426   3.787 -0.1405 -0.4656 -1.7074
 2507SOL    HW2 7842   2.832   1.569   3.721 -1.3054  0.0421  0.0644
 2508SOL     OW 7843   2.859   1.589   0.358  0.6049  0.1559 -0.0167
 2508SOL    HW1 7844   2.812   1.580   0.270  0.0993 -1.2038  0.3685
 2508SOL    HW2 7845   2.830   1.515   0.418  1.2051  0.8765  1.1829
 2509SOL     OW 7846   3.329   0.644   4.606  0.9875  0.0286 -0.7439
 2509SOL    HW1 7847   3.319   0.719   4.541  2.0795  0.2754 -0.6501
 2509SOL    HW2 7848   3.376   0.677   4.688 -0.2892 -0.2952  0.1564
 2510SOL     OW 7849   1.782   1.789   0.197  0.6563 -0.2887  0.6569
 2510SOL    HW1 7850   1.697   1.819   0.242 -0.5497 -0.6808 -1.2440
 2510SOL    HW2 7851   1.774   1.693   0.172  2.3751 -0.8113  1.9153
 2511SOL     OW 7852   4.587   5.479   4.081  0.4225 -0.4435 -0.3645
 2511SOL    HW1 7853   4.565   5.451   4.175  2.1783  1.5330  0.7276
 2511SOL    HW2 7854   4.504   5.514   4.037 -0.4606 -1.5272  0.3738
 2512SOL     OW 7855   2.568   0.753   4.354  0.3716 -0.1131  0.2294
 2512SOL    HW1 7856   2.657   0.788   4.383  0.5955 -0.5620  0.1056
 2512SOL    HW2 7857   2.532   0.809   4.279  0.4803  0.1626  0.3854
 2513SOL     OW 7858   1.523   0.711   0.612 -0.0263  0.3408 -0.2306
 2513SOL    HW1 7859   1.585   0.746   0.682 -1.0793  2.2736 -0.1972
 2513SOL    HW2 7860   1.533   0.611   0.606  1.0566  0.2704  1.7049
 2514SOL     OW 7861   2.023   0.795   5.008  0.1382 -0.1865  0.5192
 2514SOL    HW1 7862   1.957   0.729   4.973 -0.7106  0.5834  0.6355
 2514SOL    HW2 7863   2.112   0.778   4.965 -0.7741  0.5020 -1.7977
 2515SOL     OW 7864   1.204   2.012   0.348 -0.2844  0.1867 -0.5325
 2515SOL    HW1 7865   1.258   1.969   0.275 -1.9479 -1.2977 -0.9524
 2515SOL    HW2 7866   1.119   2.049   0.310 -1.0223 -0.3043  0.5706
 2516SOL     OW 7867   2.692   5.081   5.024 -0.4679  0.6899 -0.7522
 2516SOL    HW1 7868   2.698   5.109   4.928  0.4575  0.9734 -0.6184
 2516SOL    HW2 7869   2.598   5.093   5.056 -0.7943  0.5510 -1.6325
 2517SOL     OW 7870   1.119   4.551   0.826  0.6109 -0.1379 -0.3674
 2517SOL    HW1 7871   1.082   4.639   0.855 -1.1772 -0.6105 -1.0624
 2517SOL    HW2 7872   1.218   4.558   0.812  0.7300  1.3571  0.9753
 2518SOL     OW 7873   2.511   5.454   0.564  0.4808 -0.3685  0.1804
 2518SOL    HW1 7874   2.445   5.435   0.491  0.4577 -4.0204  0.9485
 2518SOL    HW2 7875   2.602   5.467   0.524 -0.0833  1.3986 -0.6557
 2519SOL     OW 7876   1.614   4.942   3.087 -0.2619 -0.6485  0.2503
 2519SOL    HW1 7877   1.607   4.995   3.171  0.3138 -0.9344  0.4804
 2519SOL    HW2 7878   1.704   4.955   3.047 -0.5758 -0.4134 -0.3978
 2520SOL     OW 7879   1.795   1.504   3.009  0.3756  0.4548 -0.5684
 2520SOL    HW1 7880   1.838   1.565   2.942  0.9527 -0.9406 -1.5451
 2520SOL    HW2 7881   1.864   1.472   3.074  0.4524 -0.4018 -1.0557
 2521SOL     OW 7882   5.424   0.712   0.315 -0.3043 -0.1788  0.6319
 2521SOL    HW1 7883   5.326   0.718   0.299 -0.0914  2.4897 -0.2081
 2521SOL    HW2 7884   5.472   0.709   0.228  0.3930 -1.5950  1.0366
 2522SOL     OW 7885   5.524   1.539   4.747 -0.2926  0.2197  0.7069
 2522SOL    HW1 7886   5.434   1.513   4.711  0.4761 -0.6168 -0.6859
 2522SOL    HW2 7887   5.569   1.458   4.784  0.5369  0.3110 -0.0799
 2523SOL     OW 7888   2.548   1.996   4.785  0.5926 -0.2112 -0.0223
 2523SOL    HW1 7889   2.624   1.958   4.733 -0.0684 -1.2122 -0.2802
 2523SOL    HW2 7890   2.552   1.965   4.880  0.2648 -0.6346 -0.1428
 2524SOL     OW 7891   4.594   2.297   0.319 -0.4235  0.7743 -0.1469
 2524SOL    HW1 7892   4.653   2.369   0.282  1.1061  0.5278  1.6431
 2524SOL    HW2 7893   4.641   2.252   0.395 -2.0470 -0.9801 -0.1165
 2525SOL     OW 7894   1.553   5.301   1.651 -0.2447 -0.4896 -0.1875
 2525SOL    HW1 7895   1.554   5.211   1.696 -0.4335 -0.6133 -0.4338
 2525SOL    HW2 7896   1.612   5.363   1.702 -0.4274 -0.6407  0.2161
 2526SOL     OW 7897   3.188   0.748   4.262 -0.3425  0.3842  0.1248
 2526SOL    HW1 7898   3.166   0.824   4.201  0.1027 -0.0182 -0.5405
 2526SOL    HW2 7899   3.287   0.743   4.275 -0.1655 -1.3763 -1.5537
 2527SOL     OW 7900   1.744   5.438   4.152 -0.0182 -0.5809 -0.2789
 2527SOL    HW1 7901   1.828   5.396   4.186  0.6823 -0.3710 -1.6676
 2527SOL    HW2 7902   1.704   5.495   4.224  1.5942  0.1317  0.1116
 2528SOL     OW 7903   4.243   3.584   0.223  0.2068 -0.1611  0.4061
 2528SOL    HW1 7904   4.157   3.625   0.193  0.3336  0.1594  0.4779
 2528SOL    HW2 7905   4.261   3.611   0.318  0.5823  0.0900  0.2656
 2529SOL     OW 7906   2.308   0.753   0.944 -0.5465  0.2988 -0.3946
 2529SOL    HW1 7907   2.310   0.730   0.847 -1.8063  0.9020 -0.5732
 2529SOL    HW2 7908   2.255   0.836   0.958  1.2726  1.3514  0.6010
 2530SOL     OW 7909   3.473   1.464   3.537 -0.2307 -0.1608 -0.9942
 2530SOL    HW1 7910   3.508   1.416   3.456 -0.7998  1.7495 -2.4419
 2530SOL    HW2 7911   3.382   1.429   3.560 -0.4940 -0.0153 -1.8070
 2531SOL     OW 7912   2.510   1.723   0.285  0.1437  0.2425 -0.2193
 2531SOL    HW1 7913   2.492   1.820   0.304 -0.7326 -0.0549  0.5787
 2531SOL    HW2 7914   2.467   1.698   0.198  2.4272  1.1183 -1.6941
 2532SOL     OW 7915   2.006   0.577   4.047  0.3424 -0.0484 -0.4388
 2532SOL    HW1 7916   1.907   0.567   4.054  0.6462 -3.2753  1.6108
 2532SOL    HW2 7917   2.041   0.517   3.976  1.0123 -1.5974  1.1146
 2533SOL     OW 7918   2.976   1.625   4.077  0.3688  0.0859 -0.1379
 2533SOL    HW1 7919   2.963   1.577   3.990 -0.5809  2.0118 -1.1330
 2533SOL    HW2 7920   3.064   1.599   4.117  1.0609 -0.5005 -1.9313
 2534SOL     OW 7921   3.872   2.833   4.908 -0.2901  0.0627  0.2761
 2534SOL    HW1 7922   3.847   2.748   4.954 -0.5051  1.2151  2.4178
 2534SOL    HW2 7923   3.790   2.884   4.884 -0.2410 -0.8997 -2.3525
 2535SOL     OW 7924   2.281   1.723   5.571  0.1000  0.5341  0.1843
 2535SOL    HW1 7925   2.304   1.733   5.474  0.3326 -3.4270 -0.3551
 2535SOL    HW2 7926   2.214   1.649   5.581 -0.7219  1.5557  2.9898
 2536SOL     OW 7927   1.355   1.548   4.442 -0.0566 -0.3911  0.4144
 2536SOL    HW1 7928   1.311   1.473   4.491 -0.9883  0.4824  0.9403
 2536SOL    HW2 7929   1.297   1.578   4.367  0.3862 -0.2929  0.1076
 2537SOL     OW 7930   3.494   0.885   0.916  0.6894  0.1448  0.4098
 2537SOL    HW1 7931   3.407   0.903   0.962 -0.4166 -1.1174 -1.1007
 2537SOL    HW2 7932   3.566   0.872   0.985 -0.7756 -1.0730  1.7908
 2538SOL     OW 7933   3.255   0.450   0.087  0.6062  0.5137  0.5524
 2538SOL    HW1 7934   3.339   0.419   0.042 -0.1121  0.4408 -0.7623
 2538SOL    HW2 7935   3.187   0.475   0.019 -0.4015  0.7437  1.6025
 2539SOL     OW 7936   0.395   4.823   4.608  0.1876  0.1326  0.0088
 2539SOL    HW1 7937   0.361   4.781   4.692  0.4076 -0.8590 -0.3884
 2539SOL    HW2 7938   0.480   4.779   4.580 -0.4319 -0.2971 -1.3060
 2540SOL     OW 7939   4.934   1.446   3.742  0.6820  0.8301  0.1483
 2540SOL    HW1 7940   4.942   1.382   3.818 -0.2152  0.0536 -0.3978
 2540SOL    HW2 7941   5.013   1.508   3.742  1.4655 -0.1480  0.7854
 2541SOL     OW 7942   2.922   1.615   4.605  0.5930 -0.7429  0.1929
 2541SOL    HW1 7943   2.968   1.613   4.693 -1.0837 -1.5201  1.0999
 2541SOL    HW2 7944   2.837   1.562   4.610  0.7398 -1.3052 -2.0636
 2542SOL     OW 7945   4.825   0.470   3.664  0.1415  0.1288 -0.0273
 2542SOL    HW1 7946   4.730   0.488   3.640  0.2257 -0.0079 -0.4895
 2542SOL    HW2 7947   4.854   0.532   3.736  0.1412  1.2001 -0.9150
 2543SOL     OW 7948   2.055   0.096   5.573  0.7300  0.0383 -0.6093
 2543SOL    HW1 7949   2.025   0.071   5.481 -0.0777 -1.1002 -0.0599
 2543SOL    HW2 7950   2.143   0.052   5.592  0.8391  0.1775 -0.7921
 2544SOL     OW 7951   2.456   4.613   4.892  0.0939  0.6205  0.1114
 2544SOL    HW1 7952   2.509   4.692   4.865  0.9592  0.6005  1.6623
 2544SOL    HW2 7953   2.499   4.530   4.857 -0.4431  0.7630 -0.9353
 2545SOL     OW 7954   4.203   1.685   4.894 -0.0245  0.2344  0.2503
 2545SOL    HW1 7955   4.173   1.626   4.818  0.3118 -1.2154  1.2046
 2545SOL    HW2 7956   4.302   1.674   4.907 -0.3393 -1.0095  2.0556
 2546SOL     OW 7957   3.649   0.540   1.054  0.2971  0.2279  0.2148
 2546SOL    HW1 7958   3.648   0.637   1.076 -0.8695 -0.3697  3.2755
 2546SOL    HW2 7959   3.656   0.487   1.138  0.2377 -2.3729 -1.3173
 2547SOL     OW 7960   3.327   3.942   3.094 -0.1655  0.2409 -0.2039
 2547SOL    HW1 7961   3.393   3.869   3.108  1.1159  1.3744 -0.0990
 2547SOL    HW2 7962   3.294   3.940   2.999  1.0775  0.4958 -0.6522
 2548SOL     OW 7963   3.989   0.889   0.295  0.2434 -0.1046 -0.8868
 2548SOL    HW1 7964   3.965   0.980   0.329 -1.4017 -0.6045 -0.6132
 2548SOL    HW2 7965   4.032   0.836   0.368 -0.4747 -0.1484 -0.4847
 2549SOL     OW 7966   4.251   0.418   3.939  0.4267 -0.4259  0.2266
 2549SOL    HW1 7967   4.313   0.360   3.991 -0.6617  0.0874  2.2345
 2549SOL    HW2 7968   4.185   0.461   4.002 -0.0413  1.4317 -1.4121
 2550SOL     OW 7969   1.858   2.289   3.135  0.0999  0.6857 -0.1500
 2550SOL    HW1 7970   1.920   2.236   3.079 -0.4314  0.7631 -0.8264
 2550SOL    HW2 7971   1.820   2.231   3.208  2.5481  1.1584  1.6092
 2551SOL     OW 7972   2.342   1.717   5.274  0.0521  0.2204 -0.6541
 2551SOL    HW1 7973   2.268   1.672   5.224 -0.4233  0.7933 -0.4922
 2551SOL    HW2 7974   2.418   1.654   5.287 -0.8691 -0.7405  0.1698
 2552SOL     OW 7975   2.140   2.924   4.892  0.1261 -0.6958 -0.5549
 2552SOL    HW1 7976   2.210   2.995   4.884  0.1994 -0.9351 -2.2986
 2552SOL    HW2 7977   2.113   2.892   4.801 -1.3757 -1.4785  0.1193
 2553SOL     OW 7978   3.450   1.966   1.777  0.0901 -0.2094 -0.1138
 2553SOL    HW1 7979   3.372   1.997   1.832  0.2354 -1.8548  1.1092
 2553SOL    HW2 7980   3.493   1.888   1.822  1.5602 -0.2651 -1.5238
 2554SOL     OW 7981   3.498   1.268   0.249  0.7972  0.7132 -0.0896
 2554SOL    HW1 7982   3.498   1.309   0.340 -1.9632  0.4273  0.1357
 2554SOL    HW2 7983   3.503   1.169   0.256  0.1541  0.6649 -0.1852
 2555SOL     OW 7984   2.528   2.534   0.997 -0.4501 -0.0666  0.4706
 2555SOL    HW1 7985   2.543   2.533   1.095  1.4104  2.0603  0.2773
 2555SOL    HW2 7986   2.478   2.617   0.971 -0.1792 -0.1793 -0.4654
 2556SOL     OW 7987   3.669   4.561   5.484  0.2942  0.5496  0.0417
 2556SOL    HW1 7988   3.713   4.577   5.572  1.3632  0.6308 -0.4961
 2556SOL    HW2 7989   3.671   4.464   5.462 -0.0394  0.5192  0.1265
 2557SOL     OW 7990   3.934   2.308   0.685  0.0406  0.0901 -0.1747
 2557SOL    HW1 7991   3.946   2.364   0.766  0.3061  0.0680 -0.1980
 2557SOL    HW2 7992   3.837   2.291   0.670 -0.2588  2.5068 -1.4939
 2558SOL     OW 7993   5.016   3.074   5.491  0.0601 -0.3064 -0.2494
 2558SOL    HW1 7994   5.009   3.162   5.538  1.1289  0.1007 -0.8201
 2558SOL    HW2 7995   5.080   3.015   5.541 -0.9448 -0.9202  0.3467
 2559SOL     OW 7996   4.960   1.699   2.412 -0.7713  0.1512  0.2194
 2559SOL    HW1 7997   4.888   1.766   2.399  0.6591  1.6784 -0.1996
 2559SOL    HW2 7998   5.011   1.721   2.496 -0.8824 -1.0093  0.6085
 2560SOL     OW 7999   1.757   2.289   0.659  0.7027  0.1423 -0.2084
 2560SOL    HW1 8000   1.822   2.334   0.597  0.1844  0.2510 -0.6781
 2560SOL    HW2 8001   1.757   2.191   0.643 -0.7450  0.3417 -1.6678
 2561SOL     OW 8002   2.674   1.488   0.975 -0.2489 -0.2809  0.1098
 2561SOL    HW1 8003   2.633   1.491   0.885 -0.6695  0.7952  0.3259
 2561SOL    HW2 8004   2.615   1.535   1.041  0.5640 -0.1009  0.7292
 2562SOL     OW 8005   1.464   1.560   0.215 -0.1864  0.1964  0.4904
 2562SOL    HW1 8006   1.530   1.538   0.286  2.1440  1.3386 -1.1686
 2562SOL    HW2 8007   1.468   1.491   0.143  0.1956  0.9687 -0.2472
 2563SOL     OW 8008   0.060   1.469   1.801 -0.2468  0.0573 -0.0731
 2563SOL    HW1 8009   0.018   1.385   1.765  0.8685  0.0939 -1.5491
 2563SOL    HW2 8010   0.008   1.548   1.769 -0.0340  0.0249 -0.5078
 2564SOL     OW 8011   1.304   2.979   1.110  0.4367  0.2005  0.0224
 2564SOL    HW1 8012   1.371   3.029   1.055  1.4308 -0.5159  0.5482
 2564SOL    HW2 8013   1.213   2.994   1.072  0.8337  1.5176 -0.4740
 2565SOL     OW 8014   2.084   3.687   0.571 -0.0227 -0.0787 -0.2237
 2565SOL    HW1 8015   2.158   3.749   0.542 -0.5879 -0.2006 -2.0307
 2565SOL    HW2 8016   2.066   3.620   0.499 -0.7615 -1.1278  0.8989
 2566SOL     OW 8017   5.242   4.981   4.958 -0.0569 -0.0217 -0.3457
 2566SOL    HW1 8018   5.233   4.948   5.052 -0.4683 -0.8073 -0.6544
 2566SOL    HW2 8019   5.178   5.057   4.944 -0.5731 -0.4292 -0.2204
 2567SOL     OW 8020   1.858   3.001   2.105 -0.3080  0.4136  0.3271
 2567SOL    HW1 8021   1.809   3.087   2.121  0.7239  1.0790  0.0265
 2567SOL    HW2 8022   1.842   2.938   2.181 -1.9032  0.4685  0.0626
 2568SOL     OW 8023   0.975   1.080   0.999 -0.2967 -0.5914  0.2498
 2568SOL    HW1 8024   1.013   1.119   0.915  0.0884  0.0431  0.7095
 2568SOL    HW2 8025   0.912   1.006   0.976 -0.8419  0.1274 -0.6331
 2569SOL     OW 8026   5.259   1.929   2.323 -0.8435 -0.2493 -0.2284
 2569SOL    HW1 8027   5.299   2.020   2.308 -0.9890 -0.3097 -1.0141
 2569SOL    HW2 8028   5.331   1.867   2.354 -0.9885  0.4276  1.6193
 2570SOL     OW 8029   0.606   2.869   2.244 -0.1907  0.1164  0.1296
 2570SOL    HW1 8030   0.612   2.968   2.254  2.1725  0.0921 -0.4406
 2570SOL    HW2 8031   0.592   2.846   2.148  0.6292 -0.0999  0.0512
 2571SOL     OW 8032   2.821   2.788   4.508  0.1239 -0.3356  0.1569
 2571SOL    HW1 8033   2.913   2.794   4.548 -0.0690 -1.4919  0.8384
 2571SOL    HW2 8034   2.827   2.787   4.409  0.8608 -0.4625  0.1995
 2572SOL     OW 8035   0.761   4.301   4.536 -0.5243 -0.9189  0.0408
 2572SOL    HW1 8036   0.796   4.207   4.541 -2.2324 -1.5506  0.9957
 2572SOL    HW2 8037   0.677   4.308   4.589  0.4226  1.5871  1.3854
 2573SOL     OW 8038   3.035   2.719   0.057  0.4919 -0.3089  0.6641
 2573SOL    HW1 8039   3.003   2.804   0.016  0.6360 -0.2287  0.7177
 2573SOL    HW2 8040   3.109   2.680   0.001  0.4986 -0.3439  0.6969
 2574SOL     OW 8041   3.912   2.523   1.281  0.2096  0.1469  0.7273
 2574SOL    HW1 8042   4.004   2.492   1.304 -0.5177 -0.8877  2.3614
 2574SOL    HW2 8043   3.849   2.445   1.279 -0.6642  0.8472 -0.2814
 2575SOL     OW 8044   3.271   0.947   5.093 -0.0619  0.5197  0.1814
 2575SOL    HW1 8045   3.217   0.897   5.161  0.1328  0.4434  0.2808
 2575SOL    HW2 8046   3.244   0.918   5.001  0.3317 -0.0705  0.2436
 2576SOL     OW 8047   1.708   5.542   0.802 -0.0835  0.2934  0.0908
 2576SOL    HW1 8048   1.701   5.555   0.704 -1.3917 -0.4284  0.0659
 2576SOL    HW2 8049   1.805   5.537   0.829  0.2781 -0.5674 -1.2997
 2577SOL     OW 8050   3.186   3.081   1.445 -0.1056  0.4174 -0.4977
 2577SOL    HW1 8051   3.134   3.028   1.378 -1.1056  1.0293 -0.2238
 2577SOL    HW2 8052   3.248   3.020   1.495 -0.5596 -0.3297 -0.8360
 2578SOL     OW 8053   2.572   3.866   1.176 -0.0678 -0.0069 -0.4861
 2578SOL    HW1 8054   2.477   3.837   1.168  0.4860 -2.7859  1.4227
 2578SOL    HW2 8055   2.631   3.785   1.174  2.0469  1.3951  1.0215
 2579SOL     OW 8056   2.172   1.960   0.481  0.6068 -0.6561  0.0981
 2579SOL    HW1 8057   2.186   1.866   0.511  0.8385 -0.8016 -0.4672
 2579SOL    HW2 8058   2.111   1.961   0.402  1.8179 -0.4580 -0.8528
 2580SOL     OW 8059   3.983   2.007   0.700  0.1851 -0.3266 -0.3866
 2580SOL    HW1 8060   4.079   2.013   0.730 -0.2569 -0.0060  1.0322
 2580SOL    HW2 8061   3.953   2.096   0.667  0.0593 -0.1528  0.1905
 2581SOL     OW 8062   3.109   1.741   1.727  0.2293  0.0036  0.0430
 2581SOL    HW1 8063   3.158   1.719   1.643  2.2329  1.8086  0.6459
 2581SOL    HW2 8064   3.120   1.667   1.793  0.8100 -0.2859 -0.3741
 2582SOL     OW 8065   2.646   3.982   0.901 -0.2470 -0.0882  0.5971
 2582SOL    HW1 8066   2.559   3.995   0.946 -0.5587 -1.8460  0.6006
 2582SOL    HW2 8067   2.721   4.000   0.965 -0.5311  2.5057  0.2829
 2583SOL     OW 8068   1.928   5.389   4.430  0.2751 -0.2014 -0.0110
 2583SOL    HW1 8069   1.968   5.426   4.346 -0.5301 -0.1379 -0.3748
 2583SOL    HW2 8070   1.877   5.305   4.409 -1.7437  0.9417  0.0033
 2584SOL     OW 8071   1.163   1.901   1.821  0.4117  0.1714 -0.0502
 2584SOL    HW1 8072   1.122   1.982   1.779 -0.9980 -0.8911 -0.7910
 2584SOL    HW2 8073   1.126   1.890   1.914 -3.6961 -2.4972 -1.7218
 2585SOL     OW 8074   3.562   2.456   1.895  0.2289 -0.1832 -0.3208
 2585SOL    HW1 8075   3.580   2.362   1.867  2.1602  0.3104 -0.8470
 2585SOL    HW2 8076   3.646   2.497   1.930 -1.1209  0.5977  2.2468
 2586SOL     OW 8077   5.407   0.241   0.587  0.1194  0.6758  0.1919
 2586SOL    HW1 8078   5.450   0.304   0.523  2.2168 -0.0659  0.7833
 2586SOL    HW2 8079   5.445   0.255   0.678  0.8198 -1.5546  0.2914
 2587SOL     OW 8080   3.007   2.710   1.683  0.0395 -0.0010 -0.0595
 2587SOL    HW1 8081   2.993   2.614   1.661  1.3681 -0.3478  0.5318
 2587SOL    HW2 8082   2.927   2.745   1.732 -0.5722 -0.7154 -0.5277
 2588SOL     OW 8083   4.145   2.987   0.276  0.3072 -0.2951 -0.6458
 2588SOL    HW1 8084   4.063   2.978   0.333 -0.4266 -2.6873 -1.9309
 2588SOL    HW2 8085   4.214   2.921   0.305  1.7973  1.5976  0.3245
 2589SOL     OW 8086   1.711   2.538   0.943  0.1168  0.1991 -0.6147
 2589SOL    HW1 8087   1.792   2.515   0.889 -0.1343 -1.4191 -0.3515
 2589SOL    HW2 8088   1.630   2.502   0.897 -0.3471  0.8846 -0.3435
 2590SOL     OW 8089   3.385   1.225   1.470  0.1607  0.0575  0.4381
 2590SOL    HW1 8090   3.363   1.173   1.388 -0.2167  0.5771  0.2038
 2590SOL    HW2 8091   3.362   1.171   1.551  0.6628 -0.5110  0.2110
 2591SOL     OW 8092   3.228   2.046   1.904 -0.3110  0.0786  0.0651
 2591SOL    HW1 8093   3.130   2.064   1.900 -0.6185 -1.1394  1.3361
 2591SOL    HW2 8094   3.265   2.081   1.990  0.1068 -0.6259  0.1810
 2592SOL     OW 8095   0.838   2.102   1.821 -0.4342 -0.7467  0.5272
 2592SOL    HW1 8096   0.936   2.116   1.808 -0.0689 -2.0929  1.5627
 2592SOL    HW2 8097   0.789   2.128   1.738  0.8493 -0.5391 -0.1909
 2593SOL     OW 8098   1.413   2.997   0.680 -0.7366 -0.3289 -0.1477
 2593SOL    HW1 8099   1.489   2.933   0.666 -0.0471  0.3382  0.3981
 2593SOL    HW2 8100   1.428   3.079   0.624 -0.2408  0.4566  1.0865
 2594SOL     OW 8101   3.579   1.414   0.463 -0.3260 -0.1917 -0.6065
 2594SOL    HW1 8102   3.634   1.495   0.480  0.4783 -0.9249  0.4358
 2594SOL    HW2 8103   3.588   1.350   0.540 -2.2526 -0.5578 -0.6182
 2595SOL     OW 8104   3.851   2.526   1.997 -0.5791  0.8393  0.4324
 2595SOL    HW1 8105   3.892   2.437   1.977 -0.9758  0.2602  2.0322
 2595SOL    HW2 8106   3.904   2.572   2.068 -0.8376  1.5339  0.1830
 2596SOL     OW 8107   1.939   2.501   0.821 -0.1582  0.0834 -0.1515
 2596SOL    HW1 8108   1.937   2.401   0.811  1.4504 -0.0213  0.3267
 2596SOL    HW2 8109   2.029   2.529   0.853 -0.8643  1.6261  0.5788
 2597SOL     OW 8110   0.650   1.864   1.594 -0.2082  0.2027 -0.5283
 2597SOL    HW1 8111   0.742   1.866   1.555 -0.6407  3.1904 -1.6263
 2597SOL    HW2 8112   0.656   1.855   1.693  1.4119  2.3606 -0.3754
 2598SOL     OW 8113   1.767   3.538   1.659  0.0651 -0.2677 -0.2384
 2598SOL    HW1 8114   1.692   3.488   1.615  1.6162 -1.7096 -1.3847
 2598SOL    HW2 8115   1.755   3.534   1.758 -1.5268 -0.1662 -0.3949
 2599SOL     OW 8116   2.646   2.888   5.113  0.0737  0.0071  0.3286
 2599SOL    HW1 8117   2.578   2.815   5.122 -0.2831  0.3449  0.3568
 2599SOL    HW2 8118   2.706   2.868   5.035  1.0668 -1.2008  1.3583
 2600SOL     OW 8119   4.827   2.353   2.703 -0.3068  0.1255  0.5103
 2600SOL    HW1 8120   4.792   2.360   2.796  1.4573  1.3453  1.1527
 2600SOL    HW2 8121   4.924   2.379   2.702  0.5494 -2.6259 -1.1898
 2601SOL     OW 8122   2.959   3.309   1.359 -0.2193 -0.3338 -0.0365
 2601SOL    HW1 8123   2.888   3.350   1.302 -1.4180  0.1779  1.7527
 2601SOL    HW2 8124   2.989   3.223   1.317 -0.9599  0.0648 -1.4785
 2602SOL     OW 8125   4.270   2.267   2.587  0.0628 -0.0986  1.1768
 2602SOL    HW1 8126   4.181   2.235   2.555 -0.3043  0.5348  1.5289
 2602SOL    HW2 8127   4.342   2.231   2.528 -0.4698 -0.2112  0.5847
 2603SOL     OW 8128   3.048   2.256   1.278  0.8796 -0.5332  0.3235
 2603SOL    HW1 8129   3.084   2.227   1.189 -0.0001 -1.6226  0.2902
 2603SOL    HW2 8130   3.066   2.353   1.292  1.3639 -0.4331 -0.8804
 2604SOL     OW 8131   3.236   4.041   4.807 -0.0411  0.0965  0.1452
 2604SOL    HW1 8132   3.246   4.135   4.774 -1.1996  1.0174  2.1959
 2604SOL    HW2 8133   3.235   4.041   4.907 -2.8908 -1.6988  0.2429
 2605SOL     OW 8134   0.304   1.663   5.405  0.2106  0.0304  1.3004
 2605SOL    HW1 8135   0.208   1.681   5.424  0.3359  1.0902  0.9769
 2605SOL    HW2 8136   0.313   1.571   5.366 -0.6277 -0.1916  1.6061
 2606SOL     OW 8137   3.596   2.257   5.328 -0.3932  0.5643  0.0180
 2606SOL    HW1 8138   3.638   2.304   5.406 -0.1031 -0.9594  0.8180
 2606SOL    HW2 8139   3.551   2.174   5.359  1.2367 -1.0412 -1.6173
 2607SOL     OW 8140   1.225   3.970   5.477  0.4097 -0.4673 -0.5054
 2607SOL    HW1 8141   1.240   4.068   5.459  0.0223 -0.5777 -1.4877
 2607SOL    HW2 8142   1.140   3.958   5.528  0.0603 -0.3397 -1.0491
 2608SOL     OW 8143   3.545   2.637   3.610  0.2175 -0.4173  0.0484
 2608SOL    HW1 8144   3.585   2.723   3.577 -1.0795 -0.4850 -1.8344
 2608SOL    HW2 8145   3.490   2.596   3.538 -0.4008 -2.1045  1.4154
 2609SOL     OW 8146   1.790   3.996   0.327 -0.9368  0.0439 -0.2897
 2609SOL    HW1 8147   1.840   3.971   0.244 -1.1659 -0.2477 -0.3430
 2609SOL    HW2 8148   1.831   3.950   0.406 -1.3581 -0.5038 -0.3878
 2610SOL     OW 8149   2.558   4.090   0.375  0.2400 -0.1553  0.8738
 2610SOL    HW1 8150   2.658   4.087   0.371  0.1916 -2.1951 -1.0008
 2610SOL    HW2 8151   2.529   4.102   0.470  2.2874 -1.9758  1.8185
 2611SOL     OW 8152   1.557   2.781   2.376 -0.3952 -0.3997  0.1989
 2611SOL    HW1 8153   1.568   2.716   2.451  0.9145 -0.0417  0.3412
 2611SOL    HW2 8154   1.503   2.860   2.407  0.6231  0.0183  0.9479
 2612SOL     OW 8155   3.330   2.838   1.282 -0.5678  0.9530  0.3607
 2612SOL    HW1 8156   3.290   2.787   1.358  0.5058  0.1120  0.3886
 2612SOL    HW2 8157   3.430   2.837   1.290 -0.4118  0.4811 -1.2851
 2613SOL     OW 8158   3.588   0.706   5.425 -0.0183 -0.6797 -0.3239
 2613SOL    HW1 8159   3.513   0.640   5.439  0.0675 -0.5979  0.5779
 2613SOL    HW2 8160   3.647   0.706   5.506 -0.1507  0.6772 -0.2131
 2614SOL     OW 8161   2.158   2.536   0.988  0.2881  0.1833  0.2663
 2614SOL    HW1 8162   2.112   2.561   1.073 -2.4887 -1.4632 -0.6307
 2614SOL    HW2 8163   2.226   2.465   1.007 -0.1405 -0.0109  1.1585
 2615SOL     OW 8164   2.531   3.383   5.021  0.1851  0.8326 -0.1765
 2615SOL    HW1 8165   2.482   3.306   5.061  1.2690  0.4615  0.4768
 2615SOL    HW2 8166   2.534   3.458   5.087  1.9436  0.2350  0.4555
 2616SOL     OW 8167   4.340   0.991   1.936  0.3294  0.4442 -0.1766
 2616SOL    HW1 8168   4.315   1.084   1.961 -0.5747  0.1316  0.1100
 2616SOL    HW2 8169   4.379   0.990   1.844  0.5402  1.1254 -0.0974
 2617SOL     OW 8170   2.814   3.656   1.138  0.3292  0.0769  0.0219
 2617SOL    HW1 8171   2.779   3.564   1.124  0.9923 -0.2316  0.3782
 2617SOL    HW2 8172   2.880   3.679   1.067 -2.0996  1.4714 -1.9611
 2618SOL     OW 8173   2.501   1.475   0.430 -0.0686  0.1966  0.0009
 2618SOL    HW1 8174   2.587   1.426   0.442 -1.3102 -1.8570  1.1075
 2618SOL    HW2 8175   2.517   1.560   0.379  2.5538 -0.1734  0.1037
 2619SOL     OW 8176   1.704   1.899   1.784 -0.0420  0.2479  0.0147
 2619SOL    HW1 8177   1.798   1.871   1.766 -0.3928 -0.6021 -0.5519
 2619SOL    HW2 8178   1.641   1.844   1.728 -0.8802  0.7478  0.4425
 2620SOL     OW 8179   4.789   2.496   1.761  0.2564  0.5298 -0.0541
 2620SOL    HW1 8180   4.751   2.580   1.722 -0.1313  0.4879  0.2326
 2620SOL    HW2 8181   4.796   2.506   1.860 -0.9847 -0.2469  0.1234
 2621SOL     OW 8182   1.966   2.257   5.144  0.0555  0.3936  0.4957
 2621SOL    HW1 8183   1.873   2.253   5.180  0.4574 -0.8703  1.4691
 2621SOL    HW2 8184   1.963   2.259   5.044 -1.0241 -1.0687  0.4579
 2622SOL     OW 8185   3.453   1.609   2.442  0.1874 -0.0144 -0.5323
 2622SOL    HW1 8186   3.388   1.540   2.411 -0.7717 -0.0721  1.4306
 2622SOL    HW2 8187   3.415   1.657   2.522  2.7189 -0.3390  0.9678
 2623SOL     OW 8188   3.850   1.999   0.936 -0.0091 -0.1562 -0.2141
 2623SOL    HW1 8189   3.903   2.017   0.853  2.5846 -0.9967  1.1202
 2623SOL    HW2 8190   3.796   1.916   0.924  1.3000 -0.9819 -0.7150
 2624SOL     OW 8191   2.698   1.536   0.137 -0.0030  0.2641 -0.3001
 2624SOL    HW1 8192   2.634   1.605   0.170 -1.2646 -0.9622 -0.1074
 2624SOL    HW2 8193   2.716   1.551   0.040 -0.9388  0.3398 -0.4655
 2625SOL     OW 8194   2.722   3.377   1.182  0.0838  0.3806 -0.3288
 2625SOL    HW1 8195   2.627   3.401   1.204  0.0587  0.3084 -0.3584
 2625SOL    HW2 8196   2.725   3.328   1.095  0.3802  2.2784 -1.4417
 2626SOL     OW 8197   2.357   3.544   0.612  0.5802 -0.0975 -0.1286
 2626SOL    HW1 8198   2.396   3.455   0.589  1.7480  0.4096 -0.1439
 2626SOL    HW2 8199   2.380   3.568   0.705  0.1610  0.1492 -0.0843
 2627SOL     OW 8200   4.124   3.807   0.867 -0.0210 -0.5611  0.0382
 2627SOL    HW1 8201   4.178   3.766   0.940 -0.9515 -1.2818  0.3370
 2627SOL    HW2 8202   4.027   3.790   0.883 -0.3955  1.1305 -0.2271
 2628SOL     OW 8203   0.867   2.296   0.718  0.3200  0.4992  0.4176
 2628SOL    HW1 8204   0.784   2.319   0.769  0.4016  1.1672  0.2515
 2628SOL    HW2 8205   0.934   2.255   0.780  0.8838  2.4044  1.1325
 2629SOL     OW 8206   1.572   0.672   0.919  0.4287 -0.4924 -0.8563
 2629SOL    HW1 8207   1.609   0.681   1.012 -1.6778 -0.0170  0.0142
 2629SOL    HW2 8208   1.562   0.575   0.896 -0.6661 -0.6593  0.1782
 2630SOL     OW 8209   1.604   2.499   1.483 -0.2382 -0.4320 -0.1227
 2630SOL    HW1 8210   1.681   2.436   1.494  0.7963  0.7215 -0.5923
 2630SOL    HW2 8211   1.606   2.538   1.391 -0.1054  1.2549  0.5693
 2631SOL     OW 8212   0.683   2.815   1.781  0.1030 -0.5370 -0.3867
 2631SOL    HW1 8213   0.753   2.744   1.777  1.2177  0.3953  1.1501
 2631SOL    HW2 8214   0.617   2.793   1.853  0.4464 -0.0604  0.0877
 2632SOL     OW 8215   3.110   3.003   0.014 -0.4537  0.1953  0.8221
 2632SOL    HW1 8216   3.010   2.997   0.014 -0.4264 -0.3849  1.3645
 2632SOL    HW2 8217   3.139   3.064   0.088 -0.4221  0.8439  0.2863
 2633SOL     OW 8218   0.178   3.109   0.067  0.0966 -0.6514 -0.3190
 2633SOL    HW1 8219   0.155   3.134  -0.027  0.2242  0.4260 -0.0737
 2633SOL    HW2 8220   0.270   3.139   0.089  0.0912 -0.9442  0.1381
 2634SOL     OW 8221   2.632   4.617   0.006  0.1350 -0.1410 -0.2692
 2634SOL    HW1 8222   2.616   4.630   0.104  0.5238  2.7267 -0.5018
 2634SOL    HW2 8223   2.707   4.552  -0.007 -0.0602 -0.7286  1.2988
 2635SOL     OW 8224   2.564   3.311   5.343  0.4942  0.0291 -0.7246
 2635SOL    HW1 8225   2.488   3.262   5.301 -0.6331 -0.4553  1.7104
 2635SOL    HW2 8226   2.555   3.409   5.324 -1.0013  0.0273 -0.1595
 2636SOL     OW 8227   3.213   4.441   5.264 -0.3297  0.0521 -0.5358
 2636SOL    HW1 8228   3.239   4.345   5.259  1.3029  0.4238  0.1139
 2636SOL    HW2 8229   3.115   4.448   5.286 -0.2806 -1.4511  0.3122
 2637SOL     OW 8230   3.480   2.643   2.087  0.3232  0.1430  0.1681
 2637SOL    HW1 8231   3.386   2.677   2.088  0.0458 -0.4331 -1.6828
 2637SOL    HW2 8232   3.492   2.582   2.009  1.8969 -0.8271  1.1228
 2638SOL     OW 8233   3.686   5.218   0.482  0.0213 -0.4993 -0.0204
 2638SOL    HW1 8234   3.671   5.121   0.498  1.8349 -0.4912  2.3308
 2638SOL    HW2 8235   3.760   5.229   0.415  0.7918 -0.7963  0.7617
 2639SOL     OW 8236   2.091   3.284   0.956 -0.0725  0.5395  0.0706
 2639SOL    HW1 8237   2.105   3.356   0.888  0.9949  0.8725  0.6144
 2639SOL    HW2 8238   1.993   3.275   0.975 -0.4333  0.1350 -1.8016
 2640SOL     OW 8239   3.267   2.017   0.259 -0.5985 -0.2608 -0.3609
 2640SOL    HW1 8240   3.281   2.011   0.358 -2.3098 -1.7564 -0.1652
 2640SOL    HW2 8241   3.222   2.103   0.237  1.7685  1.1216 -0.1578
 2641SOL     OW 8242   2.515   1.591   1.172 -0.4406 -0.6598  0.2368
 2641SOL    HW1 8243   2.581   1.609   1.245 -1.0683  0.0934  0.6449
 2641SOL    HW2 8244   2.422   1.607   1.206 -0.6822  1.3477 -1.1434
 2642SOL     OW 8245   2.703   1.255   5.457  0.0073 -0.1520 -0.5602
 2642SOL    HW1 8246   2.705   1.163   5.418  0.0221  0.5386 -2.2493
 2642SOL    HW2 8247   2.718   1.249   5.556  1.8823 -1.8307 -0.8771
 2643SOL     OW 8248   2.815   2.971   1.054  0.0984  0.2979  0.5533
 2643SOL    HW1 8249   2.872   3.011   1.125  0.1753  0.5140  0.3694
 2643SOL    HW2 8250   2.766   3.043   1.005 -0.2594  0.1232  0.6439
 2644SOL     OW 8251   3.616   2.810   1.323 -0.0944 -0.5039 -0.2620
 2644SOL    HW1 8252   3.712   2.814   1.352  0.0272  0.5544 -0.7608
 2644SOL    HW2 8253   3.611   2.821   1.224 -0.9062  3.7722  0.0602
 2645SOL     OW 8254   2.227   3.699   1.423  0.2148  0.1420  0.8043
 2645SOL    HW1 8255   2.280   3.614   1.416  1.5678  1.0875 -1.7171
 2645SOL    HW2 8256   2.130   3.678   1.415  0.5487 -1.1730 -0.3704
 2646SOL     OW 8257   2.763   4.098   0.686  0.0409  0.0294  0.0554
 2646SOL    HW1 8258   2.763   4.051   0.774  2.2995  0.1302  0.1530
 2646SOL    HW2 8259   2.766   4.031   0.612 -2.8828 -0.1047 -0.0820
 2647SOL     OW 8260   1.111   2.572   1.138 -0.0469  0.1091  0.2367
 2647SOL    HW1 8261   1.120   2.528   1.227 -0.1879  0.1177  0.2542
 2647SOL    HW2 8262   1.195   2.556   1.085  0.6099  1.2742  0.8873
 2648SOL     OW 8263   2.828   4.169   0.298  0.5778  0.0662  0.0626
 2648SOL    HW1 8264   2.922   4.169   0.334  0.6373 -0.7693 -0.0710
 2648SOL    HW2 8265   2.823   4.109   0.219  0.5094  2.0821 -1.5622
 2649SOL     OW 8266   2.166   3.833   4.242  0.1445 -0.4733  0.1766
 2649SOL    HW1 8267   2.079   3.880   4.222  0.2522 -0.3560 -0.0228
 2649SOL    HW2 8268   2.150   3.735   4.247 -0.0608 -0.4279  0.4662
 2650SOL     OW 8269   1.082   0.812   0.380 -0.0880  0.7721  0.2375
 2650SOL    HW1 8270   1.024   0.885   0.416 -0.0487  0.3496  1.1918
 2650SOL    HW2 8271   1.067   0.803   0.282  0.7926  2.8813 -0.1538
 2651SOL     OW 8272   1.796   1.548   0.958  0.5485 -0.1160 -0.4025
 2651SOL    HW1 8273   1.714   1.604   0.947  0.0115  0.0120  3.0555
 2651SOL    HW2 8274   1.769   1.452   0.971  1.1009 -0.3668 -1.0625
 2652SOL     OW 8275   4.496   1.697   0.503 -0.0262 -0.4565 -0.1959
 2652SOL    HW1 8276   4.581   1.670   0.547 -0.3517 -0.0615  0.7075
 2652SOL    HW2 8277   4.511   1.778   0.446  0.0225  0.1702  0.6935
 2653SOL     OW 8278   3.647   2.884   3.571  0.6347  0.2553  0.5028
 2653SOL    HW1 8279   3.702   2.880   3.488  1.4839  2.4194  0.8967
 2653SOL    HW2 8280   3.698   2.934   3.642 -1.2123  0.9515  1.3939
 2654SOL     OW 8281   1.529   0.033   1.131 -0.0513 -0.2884  0.3896
 2654SOL    HW1 8282   1.508  -0.037   1.200  2.2023 -1.9800 -0.5258
 2654SOL    HW2 8283   1.607   0.088   1.162 -1.4690  1.5766  0.8611
 2655SOL     OW 8284   2.968   2.098   1.883 -0.1874  0.2306  0.3103
 2655SOL    HW1 8285   2.882   2.109   1.933 -1.3762 -0.4818 -1.4988
 2655SOL    HW2 8286   2.956   2.032   1.810  1.8114  0.4126 -0.2366
 2656SOL     OW 8287   0.975   3.201   2.779 -0.3507  0.3594 -0.2519
 2656SOL    HW1 8288   1.024   3.288   2.779  0.5557 -0.1414 -0.3365
 2656SOL    HW2 8289   1.035   3.128   2.812 -1.4142 -0.0756  0.8276
 2657SOL     OW 8290   0.882   3.096   5.429  0.2426  0.3321  0.1238
 2657SOL    HW1 8291   0.978   3.092   5.456  0.5758 -0.4625 -1.1022
 2657SOL    HW2 8292   0.867   3.176   5.370  0.6038 -0.6292 -1.2994
 2658SOL     OW 8293   3.070   2.570   0.693  0.5122 -0.1202 -0.4533
 2658SOL    HW1 8294   3.090   2.511   0.615  0.2417  1.3472 -1.6834
 2658SOL    HW2 8295   2.985   2.541   0.736 -0.6488  0.4681 -2.2320
 2659SOL     OW 8296   3.150   0.354   5.336 -0.0530  0.1451 -0.3559
 2659SOL    HW1 8297   3.141   0.365   5.237 -0.7407  0.8630 -0.2171
 2659SOL    HW2 8298   3.176   0.259   5.356  1.3418  0.2928 -1.2875
 2660SOL     OW 8299   2.358   2.761   0.922  0.0554 -0.1719 -0.1665
 2660SOL    HW1 8300   2.354   2.808   1.011  0.8992 -0.2007 -0.1058
 2660SOL    HW2 8301   2.400   2.822   0.854 -0.9947  0.0130 -0.6625
 2661SOL     OW 8302   1.819   0.584   0.628  0.0254 -0.1151  0.3487
 2661SOL    HW1 8303   1.855   0.572   0.535 -1.8707 -0.7994 -0.3427
 2661SOL    HW2 8304   1.816   0.681   0.650  1.4232  0.0085  0.1174
 2662SOL     OW 8305   3.287   3.393   1.117 -0.0907 -0.3300  0.0763
 2662SOL    HW1 8306   3.277   3.492   1.114  1.4603 -0.1192  0.7998
 2662SOL    HW2 8307   3.221   3.351   1.054  0.4766  1.2423 -1.6655
 2663SOL     OW 8308   4.755   2.307   1.422  0.1227 -0.0805 -0.2662
 2663SOL    HW1 8309   4.756   2.232   1.356  0.1569 -0.6531  0.3807
 2663SOL    HW2 8310   4.662   2.341   1.433  0.0721 -0.1826 -0.3809
 2664SOL     OW 8311   2.599   1.610   5.282  0.2037 -0.3925  0.2811
 2664SOL    HW1 8312   2.617   1.516   5.253 -1.1856 -0.0960 -1.8309
 2664SOL    HW2 8313   2.645   1.673   5.219 -1.9176  0.2977 -0.6746
 2665SOL     OW 8314   3.797   3.027   1.964 -1.0441 -0.0023 -0.3511
 2665SOL    HW1 8315   3.863   3.037   1.891  1.5469  2.2757  2.0807
 2665SOL    HW2 8316   3.760   2.933   1.963  1.5175 -1.1080 -2.3632
 2666SOL     OW 8317   3.997   2.314   3.442  0.3555 -0.3908 -0.1001
 2666SOL    HW1 8318   4.068   2.360   3.496 -0.8742 -1.1051  2.3001
 2666SOL    HW2 8319   3.907   2.348   3.470 -0.3672 -0.9908 -1.5773
 2667SOL     OW 8320   2.137   2.720   0.751 -0.5618 -0.1811  0.0196
 2667SOL    HW1 8321   2.131   2.662   0.669  2.3756  0.2731 -0.6583
 2667SOL    HW2 8322   2.187   2.670   0.822 -1.3608  0.1602  0.8312
 2668SOL     OW 8323   5.115   3.050   0.683  0.3724 -0.3660 -0.0750
 2668SOL    HW1 8324   5.112   3.005   0.594  0.5665  0.6574 -0.6134
 2668SOL    HW2 8325   5.197   3.107   0.689  1.3862 -1.8592  1.4879
 2669SOL     OW 8326   1.629   3.224   0.217 -0.2825 -0.3212 -0.2275
 2669SOL    HW1 8327   1.617   3.224   0.118  0.3165  0.7178 -0.3174
 2669SOL    HW2 8328   1.599   3.312   0.254 -3.3143 -1.6739  0.9241
 2670SOL     OW 8329   0.001   2.294   1.825 -0.0157 -0.1970  0.4915
 2670SOL    HW1 8330  -0.065   2.320   1.754  1.0364  0.0072 -0.4278
 2670SOL    HW2 8331   0.070   2.233   1.786  0.7027  0.0971  1.2824
 2671SOL     OW 8332   1.900   2.567   1.610  0.1158 -0.0118  0.3329
 2671SOL    HW1 8333   1.835   2.629   1.653 -1.5957 -0.4919 -1.4592
 2671SOL    HW2 8334   1.870   2.473   1.622  0.6955 -0.2723 -0.1972
 2672SOL     OW 8335   2.032   1.405   1.566  0.2311  0.1146  0.4545
 2672SOL    HW1 8336   2.035   1.329   1.501  2.6266  0.2642  0.3083
 2672SOL    HW2 8337   2.063   1.373   1.656 -1.6401  0.2665  1.2111
 2673SOL     OW 8338   4.350   2.065   1.847 -0.0655  0.0317 -0.5574
 2673SOL    HW1 8339   4.418   2.100   1.912 -0.2882 -2.0867  0.9131
 2673SOL    HW2 8340   4.392   2.056   1.757  0.5979  1.9196 -0.4665
 2674SOL     OW 8341   2.454   3.560   0.334  0.1525  0.4331  0.0972
 2674SOL    HW1 8342   2.475   3.657   0.347  1.1014  0.3060 -0.4051
 2674SOL    HW2 8343   2.400   3.526   0.411 -0.5645  1.4616  0.0738
 2675SOL     OW 8344   2.899   3.996   2.283 -0.4109  0.0796 -0.3464
 2675SOL    HW1 8345   2.983   3.954   2.248 -0.3420 -0.2383  0.1893
 2675SOL    HW2 8346   2.849   4.038   2.207  0.2296  0.2751 -0.6730
 2676SOL     OW 8347   2.644   3.955   0.141 -0.0398  0.0633 -0.2240
 2676SOL    HW1 8348   2.600   3.995   0.221  0.1069  0.6006 -0.4085
 2676SOL    HW2 8349   2.575   3.928   0.075 -0.1212  0.3158 -0.2405
 2677SOL     OW 8350   1.847   2.016   1.417  0.3202 -0.0983  0.0225
 2677SOL    HW1 8351   1.922   1.987   1.357  0.2098  1.9625 -1.2090
 2677SOL    HW2 8352   1.798   2.092   1.374 -0.0205  1.2107  2.5545
 2678SOL     OW 8353   0.236   3.633   3.232  0.0103 -0.2686  0.1546
 2678SOL    HW1 8354   0.146   3.676   3.242 -0.2149 -0.1217 -2.0111
 2678SOL    HW2 8355   0.291   3.685   3.166  0.2432 -2.4251 -1.4709
 2679SOL     OW 8356   2.111   3.426   0.734 -0.2584 -0.3397  0.0064
 2679SOL    HW1 8357   2.101   3.336   0.691 -2.0592  0.4638 -1.3972
 2679SOL    HW2 8358   2.182   3.478   0.686  0.2181 -0.7153  0.2988
 2680SOL     OW 8359   3.133   2.139   1.544 -0.2180 -0.4308 -0.3887
 2680SOL    HW1 8360   3.211   2.079   1.526 -0.9566 -1.1492 -1.2975
 2680SOL    HW2 8361   3.103   2.182   1.458 -0.4418  0.3279  0.0548
 2681SOL     OW 8362   5.056   2.727   2.127  0.0476 -0.0064  0.2365
 2681SOL    HW1 8363   5.123   2.744   2.200  0.0872  1.7094 -0.1383
 2681SOL    HW2 8364   5.062   2.801   2.060  0.9394 -2.2048 -2.2611
 2682SOL     OW 8365   1.987   3.343   1.330  0.7307 -0.0174  0.3413
 2682SOL    HW1 8366   1.926   3.276   1.371  0.0080 -1.5470 -2.9024
 2682SOL    HW2 8367   2.074   3.300   1.306  0.6336  0.4400 -0.8927
 2683SOL     OW 8368   0.943   3.862   0.441 -0.1763  0.7455  0.0628
 2683SOL    HW1 8369   0.882   3.813   0.503 -0.6636 -0.1715 -1.0871
 2683SOL    HW2 8370   0.898   3.946   0.410 -0.2133  0.8588  0.4282
 2684SOL     OW 8371   3.073   0.706   1.462 -0.3191  0.0852  0.0773
 2684SOL    HW1 8372   3.021   0.760   1.529 -1.3465 -0.9161  0.1252
 2684SOL    HW2 8373   3.094   0.617   1.501  0.1993 -0.0406 -0.4833
 2685SOL     OW 8374   4.309   0.882   2.305 -0.8988  0.1186  0.0774
 2685SOL    HW1 8375   4.386   0.924   2.352  0.9561 -1.3805 -1.4573
 2685SOL    HW2 8376   4.247   0.840   2.371 -1.1392  2.4386  1.4153
 2686SOL     OW 8377   2.716   3.449   0.514  0.1993 -0.8952  0.5780
 2686SOL    HW1 8378   2.640   3.445   0.449  0.1052  0.1888  0.6044
 2686SOL    HW2 8379   2.802   3.427   0.468  0.0638 -0.6446  0.2033
 2687SOL     OW 8380   3.482   2.300   3.677 -0.6699  0.3273 -0.1415
 2687SOL    HW1 8381   3.483   2.215   3.624  2.6732 -0.0187  0.2861
 2687SOL    HW2 8382   3.463   2.377   3.615 -1.2239 -0.4699 -0.9946
 2688SOL     OW 8383   1.288   5.245   0.343  0.2898  0.5088  0.4450
 2688SOL    HW1 8384   1.269   5.319   0.408  1.8271  1.3379  0.0208
 2688SOL    HW2 8385   1.284   5.282   0.250 -0.3372 -0.2898  0.1537
 2689SOL     OW 8386   3.232   4.701   1.299  0.3270  0.0692  0.4100
 2689SOL    HW1 8387   3.266   4.742   1.215 -0.0345 -1.1445 -0.3566
 2689SOL    HW2 8388   3.224   4.602   1.287 -3.3959  0.2152  0.4817
 2690SOL     OW 8389   1.067   3.398   5.044  0.3030 -0.0907  0.2666
 2690SOL    HW1 8390   0.979   3.444   5.056 -1.0609 -2.0335 -1.6048
 2690SOL    HW2 8391   1.122   3.448   4.977  0.3680  0.7546  0.9306
 2691SOL     OW 8392   3.864   1.165   5.326  0.1862 -0.1503  0.1615
 2691SOL    HW1 8393   3.944   1.203   5.372 -0.3808 -0.2223  1.2400
 2691SOL    HW2 8394   3.865   1.192   5.229  1.0531  0.5674  0.3552
 2692SOL     OW 8395   4.782   0.641   0.558  0.2891 -0.0367  0.4606
 2692SOL    HW1 8396   4.785   0.718   0.495 -0.2972  1.0303  1.6839
 2692SOL    HW2 8397   4.688   0.609   0.567  0.3107  0.0657  1.0743
 2693SOL     OW 8398   2.957   1.001   4.904  0.1991 -0.4550 -0.1444
 2693SOL    HW1 8399   3.042   0.959   4.872  0.6917  1.8818 -2.2625
 2693SOL    HW2 8400   2.979   1.069   4.974  0.0476 -0.1664 -0.3728
 2694SOL     OW 8401   1.854   3.937   0.599 -0.1170 -0.7087  0.3269
 2694SOL    HW1 8402   1.859   4.008   0.670  2.2708 -0.1798 -0.2876
 2694SOL    HW2 8403   1.898   3.854   0.632  0.9146 -0.4917 -0.4532
 2695SOL     OW 8404   2.222   4.341   0.847 -0.5511 -0.1329 -0.3403
 2695SOL    HW1 8405   2.245   4.429   0.806  0.0271 -0.2331 -0.2492
 2695SOL    HW2 8406   2.151   4.353   0.916  0.3178  0.4476  0.4742
 2696SOL     OW 8407   1.486   2.822   1.276 -0.6127 -0.1806  0.4155
 2696SOL    HW1 8408   1.420   2.879   1.227 -1.7341 -2.7189 -1.2644
 2696SOL    HW2 8409   1.442   2.779   1.355  0.0107  0.6442  1.2336
 2697SOL     OW 8410   2.719   1.400   1.529  0.0597 -0.6977 -0.0420
 2697SOL    HW1 8411   2.752   1.412   1.623  0.9381  0.4031 -0.4708
 2697SOL    HW2 8412   2.691   1.488   1.492  2.9318 -0.4536 -1.9529
 2698SOL     OW 8413   2.896   1.816   0.054  0.0778 -0.6836 -0.2702
 2698SOL    HW1 8414   2.888   1.733   0.001 -0.0082 -1.5728  1.0827
 2698SOL    HW2 8415   2.805   1.851   0.076  0.1033 -0.6973 -0.1411
 2699SOL     OW 8416   4.081   1.863   0.318 -0.0425  0.0188  0.2183
 2699SOL    HW1 8417   3.992   1.833   0.284 -0.4032  1.7613 -0.5122
 2699SOL    HW2 8418   4.095   1.959   0.294  1.1444  0.3826  2.1306
 2700SOL     OW 8419   1.552   1.685   0.959  0.0188  0.3792 -0.1495
 2700SOL    HW1 8420   1.509   1.602   0.993  1.0931  0.5469  1.7796
 2700SOL    HW2 8421   1.484   1.759   0.955 -0.5125 -0.1006 -0.0471
 2701SOL     OW 8422   3.337   2.633   4.720  0.1022 -0.1458  0.5515
 2701SOL    HW1 8423   3.403   2.708   4.711 -1.4697  1.1610 -0.4882
 2701SOL    HW2 8424   3.312   2.599   4.630 -0.1282 -1.1392  0.9691
 2702SOL     OW 8425   1.015   2.808   1.246  0.6975 -0.5317  0.1085
 2702SOL    HW1 8426   1.024   2.885   1.184  0.2880 -0.4446  0.1496
 2702SOL    HW2 8427   1.033   2.723   1.197  1.5225 -0.3917  0.1519
 2703SOL     OW 8428   2.827   2.371   1.126  0.4716 -0.3372  0.2439
 2703SOL    HW1 8429   2.885   2.300   1.167  0.2732 -0.6016  0.0745
 2703SOL    HW2 8430   2.858   2.461   1.155  0.7676 -0.4924  0.4117
 2704SOL     OW 8431   4.398   3.128   0.640  0.5922  0.3311 -0.2666
 2704SOL    HW1 8432   4.446   3.113   0.726  1.6299  0.8954 -0.7197
 2704SOL    HW2 8433   4.419   3.053   0.577  0.0506  0.0559 -0.1237
 2705SOL     OW 8434   2.536   1.903   2.228  0.4189  0.5387  0.0972
 2705SOL    HW1 8435   2.592   1.975   2.188  0.7210  0.7677  0.9206
 2705SOL    HW2 8436   2.591   1.820   2.239 -0.0470  0.0159 -1.2714
 2706SOL     OW 8437   0.774   4.660   0.390 -0.8763  0.4248  0.1157
 2706SOL    HW1 8438   0.775   4.755   0.422 -1.0670  0.4865 -0.0548
 2706SOL    HW2 8439   0.682   4.638   0.356 -1.0612 -0.0846  0.9399
 2707SOL     OW 8440   3.763   2.354   1.605  0.1263  0.3123  0.0376
 2707SOL    HW1 8441   3.704   2.300   1.664 -1.8821  3.6225  1.3547
 2707SOL    HW2 8442   3.740   2.336   1.509 -0.2449 -1.2752  0.3946
 2708SOL     OW 8443   1.948   2.879   0.061  0.3603  0.0954  0.1640
 2708SOL    HW1 8444   1.926   2.926   0.146 -0.2075  0.1159  0.0092
 2708SOL    HW2 8445   1.897   2.921  -0.015 -1.0545 -1.4766  0.1923
 2709SOL     OW 8446   1.019   3.692   0.235 -0.7105 -0.2205  0.4895
 2709SOL    HW1 8447   1.072   3.612   0.263  1.8459  1.2639  0.2282
 2709SOL    HW2 8448   0.993   3.745   0.316  1.0687  0.6829  0.5378
 2710SOL     OW 8449   4.014   2.167   3.233 -0.4078 -0.3938 -0.3512
 2710SOL    HW1 8450   3.959   2.084   3.234  0.1516 -0.7769  0.5399
 2710SOL    HW2 8451   4.005   2.214   3.321  0.3088 -0.2175 -0.3640
 2711SOL     OW 8452   3.528   2.829   4.666 -0.1800  0.1751 -0.1046
 2711SOL    HW1 8453   3.495   2.860   4.577  1.9132  1.8797 -0.3899
 2711SOL    HW2 8454   3.597   2.757   4.653 -0.2120  0.0987  0.1506
 2712SOL     OW 8455   4.770   1.646   0.614  0.3941  0.2030 -0.0370
 2712SOL    HW1 8456   4.772   1.547   0.626  0.6441  0.0517 -1.2192
 2712SOL    HW2 8457   4.849   1.675   0.560  0.8571  1.1818  1.1033
 2713SOL     OW 8458   2.023   1.379   2.024 -0.1474  0.2733 -0.4915
 2713SOL    HW1 8459   2.016   1.306   2.092 -0.3975 -0.5826 -1.4174
 2713SOL    HW2 8460   2.066   1.344   1.941 -3.0512  0.2795 -2.1405
 2714SOL     OW 8461   3.570   1.575   5.339  0.1414  0.3466  0.3158
 2714SOL    HW1 8462   3.552   1.477   5.341 -0.9993  0.4996 -1.0658
 2714SOL    HW2 8463   3.647   1.594   5.279  0.2011  0.3154  0.3825
 2715SOL     OW 8464   2.862   1.904   0.376 -0.7240 -0.2524  0.0712
 2715SOL    HW1 8465   2.918   1.909   0.459 -3.0334 -0.5977  1.7608
 2715SOL    HW2 8466   2.868   1.812   0.337  0.0913 -0.1918  0.0214
 2716SOL     OW 8467   3.053   3.603   1.278  0.4793 -0.1800  0.0310
 2716SOL    HW1 8468   2.960   3.625   1.248  0.6880 -0.0335 -0.5218
 2716SOL    HW2 8469   3.119   3.640   1.212  0.8910 -1.1850 -0.1489
 2717SOL     OW 8470   4.350   1.474   0.466 -0.5463 -0.4525 -0.4673
 2717SOL    HW1 8471   4.427   1.538   0.467 -0.6871 -0.2738 -0.8021
 2717SOL    HW2 8472   4.364   1.405   0.396 -0.3979 -0.7901 -0.1088
 2718SOL     OW 8473   1.955   4.766   5.324 -0.0535  0.3344  0.2438
 2718SOL    HW1 8474   1.985   4.861   5.319 -0.0422  0.3236  0.0772
 2718SOL    HW2 8475   1.882   4.751   5.257  1.6596 -0.3945 -1.5585
 2719SOL     OW 8476   2.777   2.099   1.475  0.1015 -0.5050 -0.4278
 2719SOL    HW1 8477   2.759   2.051   1.389  2.2808  0.9680 -1.8396
 2719SOL    HW2 8478   2.838   2.044   1.531 -0.8108 -1.1971 -0.1057
 2720SOL     OW 8479   4.317   2.302   1.600  0.2907 -0.0244  0.1840
 2720SOL    HW1 8480   4.325   2.271   1.505  0.1878 -0.8944  0.4520
 2720SOL    HW2 8481   4.408   2.315   1.639  0.3606 -1.1406  0.4271
 2721SOL     OW 8482   2.493   1.124   4.501  0.1838  0.4197  0.8078
 2721SOL    HW1 8483   2.409   1.086   4.538  1.4608 -0.5259  2.9266
 2721SOL    HW2 8484   2.559   1.050   4.484  0.7950  1.1849 -0.3116
 2722SOL     OW 8485   4.463   2.669   0.401 -0.4498  0.2832 -0.1259
 2722SOL    HW1 8486   4.478   2.766   0.415 -1.5967  0.3925  0.4534
 2722SOL    HW2 8487   4.546   2.627   0.364  0.5571  1.1896  1.0414
 2723SOL     OW 8488   3.846   3.300   1.185 -0.1122  0.2438 -0.3030
 2723SOL    HW1 8489   3.820   3.331   1.094  0.1815  1.8196  0.1159
 2723SOL    HW2 8490   3.840   3.201   1.190 -2.7658  0.2876 -1.2271
 2724SOL     OW 8491   2.300   2.909   1.375 -0.3716 -0.2898 -0.0247
 2724SOL    HW1 8492   2.204   2.886   1.384 -0.5693  0.1520 -0.8525
 2724SOL    HW2 8493   2.354   2.856   1.440 -1.0271 -1.5015 -0.4422
 2725SOL     OW 8494   2.263   3.685   2.419 -0.0320 -0.2277 -0.1143
 2725SOL    HW1 8495   2.215   3.636   2.492 -0.1256 -1.6751 -1.1083
 2725SOL    HW2 8496   2.201   3.699   2.342 -0.2506  2.2136  0.4191
 2726SOL     OW 8497   2.035   3.242   0.375  0.0523 -0.2661  0.1697
 2726SOL    HW1 8498   2.135   3.244   0.375  0.0989 -1.5678 -0.3568
 2726SOL    HW2 8499   2.003   3.189   0.296 -1.0399 -0.4047  0.6921
 2727SOL     OW 8500   2.384   0.328   4.309  0.0238  0.4539  0.3316
 2727SOL    HW1 8501   2.455   0.377   4.360  2.7355 -0.8631 -1.9013
 2727SOL    HW2 8502   2.388   0.230   4.331  1.1423 -0.1264 -2.0809
 2728SOL     OW 8503   2.114   1.696   1.757  0.1126 -0.0835  0.5011
 2728SOL    HW1 8504   2.149   1.644   1.679 -0.8495 -0.4503  0.2954
 2728SOL    HW2 8505   2.146   1.656   1.842  1.5801  0.6135  0.2999
 2729SOL     OW 8506   2.070   3.165   0.638 -0.2997 -0.1882  0.3262
 2729SOL    HW1 8507   2.045   3.215   0.556  1.4162  0.8155  0.3555
 2729SOL    HW2 8508   2.119   3.082   0.613 -1.5684 -0.9563  0.3185
 2730SOL     OW 8509   1.265   1.464   0.829 -0.1002  0.1663  0.1220
 2730SOL    HW1 8510   1.169   1.438   0.845  0.3626 -1.3113  0.6453
 2730SOL    HW2 8511   1.270   1.562   0.809 -1.8088  0.1216 -0.7307
 2731SOL     OW 8512   1.735   3.535   1.943 -0.1414  0.1023  0.1117
 2731SOL    HW1 8513   1.676   3.616   1.940  0.7573  0.7723 -0.2539
 2731SOL    HW2 8514   1.799   3.544   2.020  0.6512  0.2494 -0.5503
 2732SOL     OW 8515   3.361   2.408   1.210  0.3445 -0.3540  0.8815
 2732SOL    HW1 8516   3.413   2.474   1.264  0.7083  1.3130 -1.3830
 2732SOL    HW2 8517   3.265   2.410   1.239  0.5672  0.3242  1.6173
 2733SOL     OW 8518   1.133   0.268   1.721  0.0437 -0.2680 -0.5097
 2733SOL    HW1 8519   1.058   0.286   1.657  0.7309  0.7435 -1.0637
 2733SOL    HW2 8520   1.162   0.354   1.763 -0.1816 -0.8840  0.9384
 2734SOL     OW 8521   3.633   2.686   4.421 -0.0562  0.5336  0.7373
 2734SOL    HW1 8522   3.660   2.637   4.338  0.5726 -0.9776  1.7875
 2734SOL    HW2 8523   3.680   2.774   4.424  0.3900  0.3427 -0.2063
 2735SOL     OW 8524   2.051   2.250   0.863 -0.3363  0.0587  0.2072
 2735SOL    HW1 8525   2.134   2.274   0.913  0.1851 -0.7795 -0.2267
 2735SOL    HW2 8526   2.073   2.243   0.766 -0.6516 -1.2993  0.2270
 2736SOL     OW 8527   3.221   2.787   3.825  0.0379 -0.5958  0.3398
 2736SOL    HW1 8528   3.239   2.690   3.807  0.2853 -0.4671 -0.1215
 2736SOL    HW2 8529   3.220   2.802   3.924  1.5368 -0.7983  0.4203
 2737SOL     OW 8530   2.766   2.427   0.407  0.3351 -0.0111  0.4698
 2737SOL    HW1 8531   2.703   2.501   0.388 -0.6991 -1.2535 -1.2744
 2737SOL    HW2 8532   2.716   2.350   0.448  0.4088 -1.3853 -1.8384
 2738SOL     OW 8533   3.380   3.147   0.227 -0.0755  0.1997 -0.2638
 2738SOL    HW1 8534   3.286   3.179   0.211  0.3836  0.6606 -2.3673
 2738SOL    HW2 8535   3.393   3.058   0.183  1.0094  1.0743 -1.8094
 2739SOL     OW 8536   1.178   2.767   1.450  0.0819 -0.4749  0.0065
 2739SOL    HW1 8537   1.228   2.685   1.477  3.0240  0.6865 -1.4868
 2739SOL    HW2 8538   1.136   2.751   1.360 -0.8075 -0.8690  0.4793
 2740SOL     OW 8539   1.691   4.703   0.629 -0.0557 -0.2087  0.6344
 2740SOL    HW1 8540   1.686   4.796   0.593  0.8031  0.1352  1.3627
 2740SOL    HW2 8541   1.786   4.681   0.650  0.0901 -2.1036 -1.6861
 2741SOL     OW 8542   4.586   0.940   5.038 -0.7965 -0.6966  0.2153
 2741SOL    HW1 8543   4.673   0.985   5.018 -0.6976 -0.4275  1.1899
 2741SOL    HW2 8544   4.550   0.974   5.126 -2.1572 -0.3958 -0.4227
 2742SOL     OW 8545   4.151   2.458   1.358  0.0982 -0.0759 -0.2308
 2742SOL    HW1 8546   4.140   2.445   1.457  0.5838 -0.8356 -0.2716
 2742SOL    HW2 8547   4.200   2.544   1.341 -1.0934  0.7023  0.1311
 2743SOL     OW 8548   2.176   2.559   1.544  0.4398  0.3628 -0.1207
 2743SOL    HW1 8549   2.087   2.595   1.574 -0.0568  0.5663 -1.7527
 2743SOL    HW2 8550   2.182   2.462   1.568  0.3915  0.6893  1.2843
 2744SOL     OW 8551   1.618   4.453   0.700  0.8609 -0.6643 -0.0318
 2744SOL    HW1 8552   1.651   4.374   0.647  3.3724  0.2972  0.0012
 2744SOL    HW2 8553   1.629   4.536   0.646 -2.3288 -0.2747 -0.3069
 2745SOL     OW 8554   3.874   1.538   0.150  0.3825 -0.3634  0.0195
 2745SOL    HW1 8555   3.795   1.497   0.104  1.5008 -2.0625 -0.4904
 2745SOL    HW2 8556   3.855   1.634   0.169 -1.0811 -0.2362 -1.7790
 2746SOL     OW 8557   2.425   1.265   1.894 -0.3010  0.4556 -0.1401
 2746SOL    HW1 8558   2.486   1.195   1.857 -0.6229  0.6783 -1.1220
 2746SOL    HW2 8559   2.432   1.266   1.994  1.1619  0.3528 -0.2150
 2747SOL     OW 8560   1.814   2.550   2.519 -0.0297 -0.6225  0.2933
 2747SOL    HW1 8561   1.751   2.558   2.596 -0.8067 -2.1097 -0.1560
 2747SOL    HW2 8562   1.783   2.479   2.457  0.4480  0.7011 -1.5590
 2748SOL     OW 8563   2.004   4.039   3.830 -0.2028 -0.4132  0.2407
 2748SOL    HW1 8564   1.916   4.026   3.784  0.0109 -1.1786  0.0379
 2748SOL    HW2 8565   2.019   3.965   3.896  0.4743 -0.5160 -0.0208
 2749SOL     OW 8566   3.732   3.034   3.768 -0.2697  0.3754  0.3938
 2749SOL    HW1 8567   3.817   3.013   3.816 -0.3747 -1.2635 -0.0631
 2749SOL    HW2 8568   3.682   3.105   3.817  0.1922 -0.3998  2.0495
 2750SOL     OW 8569   4.952   2.481   1.284 -0.5140  0.0211  0.6847
 2750SOL    HW1 8570   4.991   2.564   1.325  0.1042 -0.2708  0.7025
 2750SOL    HW2 8571   4.867   2.457   1.332 -2.3881  2.3370 -1.2534
 2751SOL     OW 8572   1.404   3.801   2.888 -0.0494 -0.2536  0.6200
 2751SOL    HW1 8573   1.480   3.768   2.944  0.3793  0.8960  0.7405
 2751SOL    HW2 8574   1.427   3.891   2.850  0.0529 -1.3480 -2.1382
 2752SOL     OW 8575   3.453   4.874   4.387  0.0291  0.4919  0.3918
 2752SOL    HW1 8576   3.406   4.931   4.455 -4.6928 -1.4718 -0.8219
 2752SOL    HW2 8577   3.445   4.917   4.297  0.9884  0.2509  0.1801
 2753SOL     OW 8578   3.275   1.819   2.077 -0.2863  0.2784 -0.2534
 2753SOL    HW1 8579   3.326   1.862   2.150  0.2227 -1.2877  0.3646
 2753SOL    HW2 8580   3.234   1.889   2.018  1.0371  1.5593  0.2969
 2754SOL     OW 8581   2.544   3.203   4.056  0.8441  0.1164 -0.1392
 2754SOL    HW1 8582   2.589   3.146   4.124  0.6493  0.1578  0.0248
 2754SOL    HW2 8583   2.445   3.187   4.059  0.7277  0.8858  0.3022
 2755SOL     OW 8584   3.316   5.316   4.387  0.2020  0.2953  0.0965
 2755SOL    HW1 8585   3.404   5.360   4.400  1.7680 -2.6722  0.3143
 2755SOL    HW2 8586   3.316   5.265   4.301 -0.8176 -0.7821  0.7018
 2756SOL     OW 8587   2.050   4.833   1.955 -0.4742 -0.3960 -0.4098
 2756SOL    HW1 8588   1.989   4.774   1.904  1.4370 -1.1634 -1.9301
 2756SOL    HW2 8589   2.089   4.902   1.895  1.4227 -0.9816  0.0731
 2757SOL     OW 8590   1.338   2.079   4.170  0.3248 -0.2955  0.0304
 2757SOL    HW1 8591   1.404   2.098   4.242  2.2183 -0.5141 -1.5910
 2757SOL    HW2 8592   1.346   2.147   4.097 -1.2061 -0.3699 -0.2579
 2758SOL     OW 8593   2.672   4.198   2.638  0.2637  0.8902 -0.0466
 2758SOL    HW1 8594   2.602   4.213   2.568  0.8897  0.9439 -0.6787
 2758SOL    HW2 8595   2.756   4.166   2.594  0.2459 -0.4330  0.8303
 2759SOL     OW 8596   1.529   4.254   1.935 -0.4010  0.2906  0.1146
 2759SOL    HW1 8597   1.502   4.252   1.839 -1.6720 -0.1202  0.4636
 2759SOL    HW2 8598   1.628   4.270   1.941  0.5106 -3.6336 -1.3985
 2760SOL     OW 8599   3.278   0.909   2.005  0.0024 -0.3297  0.3837
 2760SOL    HW1 8600   3.238   0.910   1.914 -0.8154 -0.2074  0.7387
 2760SOL    HW2 8601   3.302   0.815   2.030 -0.2402 -0.4262  0.2486
 2761SOL     OW 8602  -0.000   3.098   1.518  0.5377  0.1525  0.1169
 2761SOL    HW1 8603   0.063   3.166   1.480 -0.6221  0.8962 -0.5494
 2761SOL    HW2 8604   0.032   3.069   1.607  2.4470 -0.3688 -0.6953
 2762SOL     OW 8605   2.430   3.536   0.979 -0.1032 -0.2365  0.0507
 2762SOL    HW1 8606   2.348   3.592   0.990  0.0958  0.2227 -0.7932
 2762SOL    HW2 8607   2.502   3.590   0.935  1.4482  0.1073  2.7920
 2763SOL     OW 8608   3.081   1.963   1.297  0.3229 -0.7783 -0.5653
 2763SOL    HW1 8609   3.181   1.970   1.297  0.3753  0.6676  3.0516
 2763SOL    HW2 8610   3.041   2.054   1.310 -1.4471 -1.4731 -0.8343
 2764SOL     OW 8611   2.231   1.859   1.506  0.3921  0.1831 -0.6215
 2764SOL    HW1 8612   2.244   1.761   1.520 -1.2515 -0.1569 -1.2216
 2764SOL    HW2 8613   2.188   1.875   1.417  0.0254  1.3871 -0.2570
 2765SOL     OW 8614   3.999   1.437   2.841  0.4393  0.4399  0.1675
 2765SOL    HW1 8615   3.988   1.392   2.929 -0.0042  0.2285  0.0082
 2765SOL    HW2 8616   3.971   1.533   2.848  0.9190  0.5704  0.3846
 2766SOL     OW 8617   1.371   2.194   2.094 -0.1221  0.6468  0.5853
 2766SOL    HW1 8618   1.433   2.115   2.097 -1.4463 -0.3975  1.9564
 2766SOL    HW2 8619   1.401   2.262   2.161  0.1403  0.6391  0.4797
 2767SOL     OW 8620   3.534   3.359   4.151 -0.0327  0.8517 -0.5214
 2767SOL    HW1 8621   3.445   3.373   4.109 -1.0850 -0.6531  1.0596
 2767SOL    HW2 8622   3.605   3.402   4.095 -1.6050  1.1316 -2.3992
 2768SOL     OW 8623   3.556   4.322   1.860 -0.4946  0.6151  0.0260
 2768SOL    HW1 8624   3.482   4.328   1.793 -0.6508 -0.6416  0.0549
 2768SOL    HW2 8625   3.639   4.362   1.821 -0.7769  0.5824 -0.6295
 2769SOL     OW 8626   1.278   4.211   2.246  0.3127  0.1089 -0.4430
 2769SOL    HW1 8627   1.268   4.260   2.159  0.3008  1.7669  0.4425
 2769SOL    HW2 8628   1.355   4.148   2.240  0.0255 -0.1509 -1.7905
 2770SOL     OW 8629   3.374   2.338   2.156  1.3376  0.1863  0.3106
 2770SOL    HW1 8630   3.302   2.402   2.184  1.7480 -0.3544  2.8659
 2770SOL    HW2 8631   3.459   2.362   2.202  1.8983 -1.2522  0.0654
 2771SOL     OW 8632   4.671   1.331   2.361 -0.3209  0.0905 -0.3026
 2771SOL    HW1 8633   4.662   1.306   2.458 -1.1581 -1.7116 -0.7977
 2771SOL    HW2 8634   4.765   1.361   2.343  1.0128 -3.2464  0.3387
 2772SOL     OW 8635   3.217   3.972   2.852  0.1041 -0.1097  0.4117
 2772SOL    HW1 8636   3.125   3.945   2.824  0.0839 -1.0337  1.2762
 2772SOL    HW2 8637   3.238   4.063   2.817 -1.4004  0.4020  0.7763
 2773SOL     OW 8638   0.906   3.782   1.892  0.0874 -0.7217  0.5376
 2773SOL    HW1 8639   0.857   3.862   1.926  1.7000  1.6515 -2.2237
 2773SOL    HW2 8640   0.974   3.753   1.959 -0.9243 -0.1873  1.8362
 2774SOL     OW 8641   2.130   5.066   1.491 -0.0631  0.4420 -0.0668
 2774SOL    HW1 8642   2.216   5.117   1.496  0.0345  0.6789 -2.5958
 2774SOL    HW2 8643   2.054   5.130   1.475 -0.2540  0.0063 -0.9753
 2775SOL     OW 8644   3.902   1.358   2.293  0.7642  0.0930 -0.3663
 2775SOL    HW1 8645   3.835   1.284   2.303  1.3439 -0.3693  0.1240
 2775SOL    HW2 8646   3.878   1.433   2.354  0.4625  0.1006 -0.4913
 2776SOL     OW 8647   4.128   1.565   3.678 -0.4415  0.0175 -0.2792
 2776SOL    HW1 8648   4.028   1.570   3.677 -0.5639 -0.9816  1.5476
 2776SOL    HW2 8649   4.157   1.474   3.649 -0.1987 -0.3450  1.0180
 2777SOL     OW 8650   1.153   2.190   2.688 -0.1923 -0.0883 -0.5717
 2777SOL    HW1 8651   1.129   2.094   2.676 -3.1885  0.4642  0.3388
 2777SOL    HW2 8652   1.225   2.215   2.622  0.9487 -2.9858 -0.5451
 2778SOL     OW 8653   3.635   3.159   2.884  0.3742  0.1304  0.0037
 2778SOL    HW1 8654   3.716   3.188   2.935 -0.0983 -0.2832  1.0170
 2778SOL    HW2 8655   3.608   3.232   2.821  1.1349  0.5445  0.1447
 2779SOL     OW 8656   3.508   3.745   3.125  0.1984  0.1859  0.2923
 2779SOL    HW1 8657   3.585   3.770   3.066  0.4982 -0.8418  0.2227
 2779SOL    HW2 8658   3.542   3.725   3.217 -0.0246  0.0721  0.3499
 2780SOL     OW 8659   4.161   1.581   4.580  0.3503 -0.2827 -0.5730
 2780SOL    HW1 8660   4.099   1.505   4.594  0.1128 -0.5906 -2.9412
 2780SOL    HW2 8661   4.110   1.662   4.551  0.4867  1.1502  2.6696
 2781SOL     OW 8662   1.216   3.395   2.398  0.1068  0.4397 -0.2002
 2781SOL    HW1 8663   1.307   3.436   2.404  1.0323 -1.4069 -0.6646
 2781SOL    HW2 8664   1.146   3.463   2.421  1.5902  1.9228  0.0753
 2782SOL     OW 8665   4.503   2.516   2.618 -0.0322  0.3725 -0.2578
 2782SOL    HW1 8666   4.404   2.531   2.620 -0.1261 -0.2252 -0.3769
 2782SOL    HW2 8667   4.528   2.444   2.683  0.1732 -0.3369 -1.1110
 2783SOL     OW 8668   1.408   2.239   2.814 -0.1104  0.3355  0.2151
 2783SOL    HW1 8669   1.317   2.201   2.824 -0.5339  0.5305 -2.3553
 2783SOL    HW2 8670   1.406   2.337   2.833 -0.3177  0.2512  0.6359
 2784SOL     OW 8671   2.968   4.325   1.977 -0.3876 -0.2192  0.1828
 2784SOL    HW1 8672   3.010   4.357   2.063 -0.8249  2.6885 -0.5537
 2784SOL    HW2 8673   3.033   4.339   1.902 -0.1397 -2.4063 -0.0501
 2785SOL     OW 8674   2.123   1.587   3.574 -0.2952 -0.1446  0.5101
 2785SOL    HW1 8675   2.048   1.585   3.508 -0.2495  1.4741  0.3704
 2785SOL    HW2 8676   2.090   1.556   3.663 -0.7747 -0.7285  0.1395
 2786SOL     OW 8677   1.992   3.895   2.300  0.5612  0.1524  0.0538
 2786SOL    HW1 8678   1.963   3.983   2.263  1.5393  0.7223  0.5935
 2786SOL    HW2 8679   1.935   3.873   2.380  1.4355  1.1684  0.9900
 2787SOL     OW 8680   2.794   2.008   2.064 -0.7859 -0.7765  0.0669
 2787SOL    HW1 8681   2.823   2.099   2.093 -0.3329 -0.8796 -0.0651
 2787SOL    HW2 8682   2.818   1.941   2.135 -1.0968 -0.7970  0.1539
 2788SOL     OW 8683   2.357   3.361   2.681  0.6895 -0.4736  0.3782
 2788SOL    HW1 8684   2.295   3.394   2.611  1.9447  0.0476 -0.5242
 2788SOL    HW2 8685   2.433   3.311   2.638  1.4443 -0.2094  1.3606
 2789SOL     OW 8686   1.515   3.955   1.247 -0.1093  0.3389  0.4255
 2789SOL    HW1 8687   1.482   4.014   1.319 -0.6438 -0.3945  0.7923
 2789SOL    HW2 8688   1.613   3.937   1.261 -0.3449 -0.3010  1.3298
 2790SOL     OW 8689   4.325   1.144   4.210 -0.2246  0.7254 -0.1565
 2790SOL    HW1 8690   4.313   1.073   4.141 -0.6396  0.4379  0.2035
 2790SOL    HW2 8691   4.288   1.230   4.177  1.3861  1.0989 -1.0969
 2791SOL     OW 8692   0.351   2.037   0.819 -0.1247  0.1551 -0.2686
 2791SOL    HW1 8693   0.299   2.102   0.874  0.1467  0.2206 -0.0880
 2791SOL    HW2 8694   0.298   1.953   0.808  0.5923 -0.6371  1.7679
 2792SOL     OW 8695   2.449   3.398   1.222 -0.0297  0.1419 -0.4888
 2792SOL    HW1 8696   2.445   3.299   1.210  1.6589  0.2896 -2.7872
 2792SOL    HW2 8697   2.433   3.444   1.135 -1.3045  1.9581  0.6233
 2793SOL     OW 8698   2.275   2.750   2.044 -0.2217  0.1547 -0.0561
 2793SOL    HW1 8699   2.322   2.663   2.054 -1.7369 -0.8432 -1.1976
 2793SOL    HW2 8700   2.322   2.806   1.975  0.2928 -0.0652  0.1093
 2794SOL     OW 8701   1.840   0.308   1.452 -0.3224 -0.0085  0.2854
 2794SOL    HW1 8702   1.839   0.377   1.380 -1.7800  0.4731  0.7134
 2794SOL    HW2 8703   1.838   0.217   1.411 -0.4287  0.2458 -0.2819
 2795SOL     OW 8704   3.353   2.056   2.183  0.0662 -0.6277  0.0985
 2795SOL    HW1 8705   3.429   2.026   2.241 -0.6035  0.8516  1.8648
 2795SOL    HW2 8706   3.366   2.152   2.158 -0.9296 -0.5096 -0.0200
 2796SOL     OW 8707   2.758   5.058   2.275  0.4205 -0.0187  0.0445
 2796SOL    HW1 8708   2.814   4.991   2.325 -0.5562 -0.5762  0.4279
 2796SOL    HW2 8709   2.818   5.119   2.223  1.5477  1.0516  2.4192
 2797SOL     OW 8710   2.816   3.560   1.992  0.0756  0.2119  0.0671
 2797SOL    HW1 8711   2.869   3.644   1.989 -1.4808  1.2164 -2.6943
 2797SOL    HW2 8712   2.868   3.486   1.948 -0.0935  0.7420 -1.0392
 2798SOL     OW 8713   4.952   2.470   5.255  0.3466 -0.6546  0.1245
 2798SOL    HW1 8714   4.877   2.535   5.250  0.5308 -0.5250 -1.1671
 2798SOL    HW2 8715   4.919   2.378   5.235  0.9655 -0.2244 -3.4653
 2799SOL     OW 8716   2.754   1.485   1.837  0.3644  0.3258 -0.2243
 2799SOL    HW1 8717   2.705   1.397   1.838 -0.0506  0.5337 -1.3555
 2799SOL    HW2 8718   2.840   1.475   1.887 -0.3098 -0.3407  0.8586
 2800SOL     OW 8719   3.195   2.891   4.090 -0.6228  0.3515 -0.1911
 2800SOL    HW1 8720   3.149   2.817   4.139 -1.2416  0.0133 -1.2558
 2800SOL    HW2 8721   3.248   2.946   4.155 -1.2675 -0.1952  0.8206
 2801SOL     OW 8722   4.614   0.447   2.032 -0.0078  0.3314 -0.6365
 2801SOL    HW1 8723   4.673   0.468   1.954 -1.6150 -0.2017 -2.0423
 2801SOL    HW2 8724   4.666   0.395   2.100  1.0008 -0.6138 -2.0750
 2802SOL     OW 8725   4.729   4.378   4.293  0.2553 -0.2964 -0.6212
 2802SOL    HW1 8726   4.760   4.472   4.279 -1.3398  0.2997 -0.3688
 2802SOL    HW2 8727   4.629   4.375   4.292  0.2665 -1.9320 -0.2065
 2803SOL     OW 8728   2.608   2.692   0.673  0.3846  0.1187 -0.3939
 2803SOL    HW1 8729   2.542   2.617   0.683 -0.9170  1.4412  1.4222
 2803SOL    HW2 8730   2.700   2.654   0.668 -0.3298 -1.6620 -0.8863
 2804SOL     OW 8731   1.066   2.800   2.959 -0.4873 -0.0677  0.1753
 2804SOL    HW1 8732   1.010   2.872   3.000  1.2086  1.0261  0.6762
 2804SOL    HW2 8733   1.160   2.832   2.951  0.5332 -2.5482  1.2625
 2805SOL     OW 8734   3.738   2.573   4.206  0.5497  0.4835 -0.3140
 2805SOL    HW1 8735   3.742   2.491   4.149 -1.8758  0.5404 -0.6598
 2805SOL    HW2 8736   3.822   2.580   4.260  1.8947 -0.8495 -2.0951
 2806SOL     OW 8737   2.219   3.230   4.563  0.0180 -0.2276  0.2866
 2806SOL    HW1 8738   2.160   3.309   4.546  0.6701  0.2285  0.1341
 2806SOL    HW2 8739   2.315   3.257   4.557  0.2667 -1.2735 -0.9134
 2807SOL     OW 8740   1.999   3.574   4.329 -0.1055  0.1365 -0.0361
 2807SOL    HW1 8741   1.947   3.655   4.304  0.1208 -0.0298 -1.0945
 2807SOL    HW2 8742   1.939   3.494   4.328  0.2068 -0.1136 -1.6145
 2808SOL     OW 8743   4.491   1.509   3.548  0.5293  0.0499 -0.1947
 2808SOL    HW1 8744   4.565   1.525   3.613  1.0582  2.4011 -1.2869
 2808SOL    HW2 8745   4.432   1.589   3.543  0.7526  0.1431 -2.8673
 2809SOL     OW 8746   1.833   2.942   2.985  0.1243  0.5226  0.2849
 2809SOL    HW1 8747   1.803   2.880   2.913 -3.0830 -0.6802  2.4183
 2809SOL    HW2 8748   1.836   3.036   2.951 -0.9178 -0.0489 -1.5017
 2810SOL     OW 8749   3.210   3.709   3.956 -0.1862  0.5755 -0.8519
 2810SOL    HW1 8750   3.132   3.771   3.957 -0.1548  0.6106 -0.1101
 2810SOL    HW2 8751   3.183   3.622   3.914 -0.4159  0.8453 -1.2689
 2811SOL     OW 8752   2.403   3.574   2.857  0.0283 -0.1147  0.6796
 2811SOL    HW1 8753   2.397   3.505   2.784  0.2717  0.1687  0.3874
 2811SOL    HW2 8754   2.348   3.545   2.934  0.1097 -0.6313  0.5514
 2812SOL     OW 8755   3.005   5.474   3.183  0.3678  0.0097 -0.0074
 2812SOL    HW1 8756   2.950   5.556   3.168 -0.8854 -0.9003 -0.5242
 2812SOL    HW2 8757   3.102   5.499   3.189 -0.1049  1.7003  1.3451
 2813SOL     OW 8758   2.937   1.835   2.279 -0.0850 -0.5702  0.9448
 2813SOL    HW1 8759   2.963   1.760   2.217 -1.3878 -0.6934  0.5066
 2813SOL    HW2 8760   2.887   1.798   2.357 -1.1496 -0.1264  0.4876
 2814SOL     OW 8761   2.771   3.548   3.712  0.2985  0.2484 -0.0214
 2814SOL    HW1 8762   2.727   3.505   3.791  3.0205 -0.9473  0.9678
 2814SOL    HW2 8763   2.851   3.599   3.742  1.6643 -0.5849 -1.9932
 2815SOL     OW 8764   3.748   3.545   2.949  0.2359 -0.3223 -0.8366
 2815SOL    HW1 8765   3.708   3.636   2.941 -3.1059 -1.4613  1.1342
 2815SOL    HW2 8766   3.748   3.501   2.859 -2.2761  0.0570 -1.0788
 2816SOL     OW 8767   2.849   1.750   3.696 -0.4613  0.0882  0.0470
 2816SOL    HW1 8768   2.888   1.830   3.740 -0.4878  0.2909 -0.2992
 2816SOL    HW2 8769   2.749   1.759   3.691 -0.3955  0.4518 -0.8059
 2817SOL     OW 8770   3.226   2.725   2.096 -0.2936  0.0011  0.2935
 2817SOL    HW1 8771   3.227   2.696   2.000  0.4889  0.6456  0.0946
 2817SOL    HW2 8772   3.203   2.823   2.101  0.8519  0.2600  0.6661
 2818SOL     OW 8773   3.330   1.362   2.845 -0.2567  0.2336 -0.2624
 2818SOL    HW1 8774   3.368   1.325   2.930 -1.0329 -0.3929 -0.1732
 2818SOL    HW2 8775   3.360   1.456   2.833  0.0628  0.2487  0.5807
 2819SOL     OW 8776   1.825   2.820   3.476 -0.0887 -0.5101  0.3205
 2819SOL    HW1 8777   1.745   2.869   3.510 -0.5222 -0.4540 -0.7456
 2819SOL    HW2 8778   1.805   2.723   3.468  1.4375 -1.3459  4.4886
 2820SOL     OW 8779   4.370   2.978   4.903  0.2381 -0.2626 -0.2865
 2820SOL    HW1 8780   4.272   2.965   4.919  0.2137 -0.6269 -0.7178
 2820SOL    HW2 8781   4.387   3.072   4.876  0.2947  0.4410  1.9697
 2821SOL     OW 8782   2.338   1.531   2.386  0.1589  0.0842 -0.1686
 2821SOL    HW1 8783   2.356   1.600   2.456 -2.4317 -0.6628  1.3578
 2821SOL    HW2 8784   2.250   1.549   2.343  0.3072 -1.2218 -1.0922
 2822SOL     OW 8785   5.248   2.655   2.916 -0.0668  0.1889  0.4651
 2822SOL    HW1 8786   5.331   2.614   2.878 -0.5755 -0.5268  0.1055
 2822SOL    HW2 8787   5.191   2.690   2.842 -1.0662 -1.2129  0.5091
 2823SOL     OW 8788   3.083   4.266   4.123  0.1907  0.2240  0.2942
 2823SOL    HW1 8789   3.101   4.181   4.173 -0.2386  1.5562  2.8997
 2823SOL    HW2 8790   3.145   4.337   4.155  0.6453  0.9289 -1.9481
 2824SOL     OW 8791   4.408   4.335   4.355 -0.5990  0.3129  0.0527
 2824SOL    HW1 8792   4.409   4.236   4.340 -2.1241  0.2995 -0.0911
 2824SOL    HW2 8793   4.340   4.377   4.295  1.7221  1.7914 -1.7487
 2825SOL     OW 8794   1.375   3.530   4.927  0.1092  0.3363 -0.0756
 2825SOL    HW1 8795   1.280   3.562   4.922  0.2647  0.8646  0.3103
 2825SOL    HW2 8796   1.436   3.603   4.897  0.4572  0.3627  0.6776
 2826SOL     OW 8797   3.908   2.445   3.184 -0.0533  0.3446  0.1955
 2826SOL    HW1 8798   3.884   2.355   3.221  2.1132  0.0556  1.0422
 2826SOL    HW2 8799   3.934   2.506   3.259  1.0942  0.8289 -0.5604
 2827SOL     OW 8800   2.932   2.447   1.620 -0.2589  0.3298  0.2221
 2827SOL    HW1 8801   2.859   2.416   1.558 -1.3792  1.4670  0.9178
 2827SOL    HW2 8802   2.988   2.369   1.647 -0.9329 -0.5010 -0.7023
 2828SOL     OW 8803   2.412   3.963   4.710  0.4264 -0.0148 -0.0903
 2828SOL    HW1 8804   2.490   3.982   4.769  1.6268  0.4186 -1.7488
 2828SOL    HW2 8805   2.435   3.890   4.645 -1.9009 -2.7354  1.8603
 2829SOL     OW 8806   1.817   3.029   2.454 -0.2895 -0.1037  0.0038
 2829SOL    HW1 8807   1.735   3.048   2.509 -0.3341  0.1883 -0.1631
 2829SOL    HW2 8808   1.883   2.978   2.510 -0.3442  0.1726  0.3217
 2830SOL     OW 8809   1.781   4.937   0.209 -0.5861  0.0708  0.3024
 2830SOL    HW1 8810   1.724   4.948   0.290 -1.0718 -1.6831  0.2549
 2830SOL    HW2 8811   1.723   4.913   0.131 -0.0996  1.5181 -0.5299
 2831SOL     OW 8812   1.624   2.166   1.719 -0.2874 -0.1942  0.0948
 2831SOL    HW1 8813   1.564   2.142   1.643 -0.9031  0.5570  0.3352
 2831SOL    HW2 8814   1.656   2.083   1.764 -0.1731 -0.6323 -0.7881
 2832SOL     OW 8815   1.760   3.879   2.088 -0.1056  0.1408  0.4975
 2832SOL    HW1 8816   1.759   3.878   2.188 -0.8172  1.9233  0.5366
 2832SOL    HW2 8817   1.671   3.908   2.054  0.3587  0.2680 -0.6503
 2833SOL     OW 8818   0.766   2.331   3.278 -0.1152  0.0004 -0.1416
 2833SOL    HW1 8819   0.751   2.377   3.190  1.5264  4.0781  1.5049
 2833SOL    HW2 8820   0.859   2.293   3.280  0.3208  1.0688  0.2679
 2834SOL     OW 8821   4.416   4.015   3.044  0.2826 -0.0225 -0.7842
 2834SOL    HW1 8822   4.402   3.933   2.989  0.3474 -0.2408 -0.4765
 2834SOL    HW2 8823   4.451   4.088   2.985  0.3208 -0.2439 -1.0407
 2835SOL     OW 8824   1.024   3.607   2.385  0.8267  0.7732  0.1533
 2835SOL    HW1 8825   1.065   3.656   2.308  2.8924  0.1649  0.7987
 2835SOL    HW2 8826   0.962   3.537   2.350  2.1515  0.1381 -1.0180
 2836SOL     OW 8827   3.567   1.582   2.111  0.2269 -0.0980  0.0161
 2836SOL    HW1 8828   3.586   1.649   2.183 -0.6188  1.3251 -1.0514
 2836SOL    HW2 8829   3.650   1.529   2.093  0.1000 -1.5318  3.0235
 2837SOL     OW 8830   1.706   4.307   3.365  0.3096  0.3355  0.3668
 2837SOL    HW1 8831   1.618   4.341   3.398  0.8147  2.1425 -0.0152
 2837SOL    HW2 8832   1.703   4.299   3.265 -0.0108 -1.4745  0.4949
 2838SOL     OW 8833   2.916   4.654   2.592 -0.7900 -0.0653 -0.2214
 2838SOL    HW1 8834   2.889   4.602   2.673  1.5876  0.3236  0.9259
 2838SOL    HW2 8835   2.989   4.605   2.544  0.6508  1.5628  0.2018
 2839SOL     OW 8836   2.123   3.288   2.180 -0.4795  0.0660  0.2486
 2839SOL    HW1 8837   2.103   3.219   2.110  0.4211 -0.3611  0.4041
 2839SOL    HW2 8838   2.191   3.353   2.145 -0.6094  0.3104  0.4471
 2840SOL     OW 8839   2.878   3.342   3.529 -0.1901 -0.0157  0.0724
 2840SOL    HW1 8840   2.913   3.277   3.596  0.8522  0.8242  0.3774
 2840SOL    HW2 8841   2.825   3.413   3.577 -1.4146 -0.6705 -0.2680
 2841SOL     OW 8842   4.815   5.308   3.068  0.1499 -0.9316  0.0045
 2841SOL    HW1 8843   4.735   5.253   3.093  0.6639 -0.6044  2.6000
 2841SOL    HW2 8844   4.788   5.404   3.057  0.0168 -0.9862 -0.1474
 2842SOL     OW 8845   4.150   3.563   4.358  0.3715  0.0473 -0.0497
 2842SOL    HW1 8846   4.101   3.480   4.383 -0.9342  0.9385  0.4367
 2842SOL    HW2 8847   4.133   3.584   4.261 -0.6594  0.6363  0.2486
 2843SOL     OW 8848   0.778   3.111   2.609  0.0985 -0.5451 -0.5978
 2843SOL    HW1 8849   0.843   3.155   2.670  0.2622  0.5865 -1.5539
 2843SOL    HW2 8850   0.816   3.025   2.574 -0.0771 -1.3113  0.9994
 2844SOL     OW 8851   2.573   2.034   4.431 -0.8408  0.6718  0.1364
 2844SOL    HW1 8852   2.562   2.012   4.334  0.0260  0.8333 -0.0066
 2844SOL    HW2 8853   2.487   2.019   4.478 -0.8819 -0.8544 -0.3721
 2845SOL     OW 8854   3.069   2.317   2.213  0.0531  0.7531 -0.6949
 2845SOL    HW1 8855   3.108   2.401   2.251  1.1374 -0.3418  0.7383
 2845SOL    HW2 8856   3.085   2.241   2.277 -3.5827  0.0026 -0.4347
 2846SOL     OW 8857   1.189   3.539   4.236 -0.1765 -0.0030  0.0640
 2846SOL    HW1 8858   1.260   3.473   4.261 -0.0499  0.0227 -0.2227
 2846SOL    HW2 8859   1.100   3.507   4.269 -0.2595 -0.7636 -0.8484
 2847SOL     OW 8860   3.080   2.438   4.983  0.4662 -0.2851  0.3664
 2847SOL    HW1 8861   3.059   2.445   5.080  1.1875  0.9932  0.4470
 2847SOL    HW2 8862   3.177   2.458   4.968  0.2758 -0.0533 -0.6613
 2848SOL     OW 8863   3.544   4.856   3.242  0.3299 -0.1024  0.2494
 2848SOL    HW1 8864   3.505   4.854   3.334  1.2726 -0.3613  0.6559
 2848SOL    HW2 8865   3.622   4.919   3.240  0.9613 -0.8707 -0.0933
 2849SOL     OW 8866   2.919   1.901   4.072 -0.1265 -0.3000  0.0963
 2849SOL    HW1 8867   2.821   1.912   4.087 -0.4656 -2.1083 -0.4682
 2849SOL    HW2 8868   2.940   1.803   4.068  1.7695  0.0611  0.5992
 2850SOL     OW 8869   0.882   1.292   2.333 -0.6184 -0.1719 -0.2489
 2850SOL    HW1 8870   0.838   1.282   2.244  0.9142  0.2748 -1.0798
 2850SOL    HW2 8871   0.978   1.317   2.321 -0.1247 -1.0200  1.5138
 2851SOL     OW 8872   2.018   3.238   3.607  0.5096  0.3257  0.1584
 2851SOL    HW1 8873   1.934   3.268   3.652  0.3062  0.6587 -0.4265
 2851SOL    HW2 8874   1.995   3.196   3.519  0.6050 -3.2497  1.6784
 2852SOL     OW 8875   4.376   2.617   4.938  0.0031 -0.1412 -0.3577
 2852SOL    HW1 8876   4.415   2.636   5.028 -1.8132  3.1230 -0.1110
 2852SOL    HW2 8877   4.423   2.671   4.869 -1.7512  1.2216 -0.5571
 2853SOL     OW 8878   1.585   1.492   2.305  0.0352  0.1874  0.3682
 2853SOL    HW1 8879   1.553   1.537   2.388 -0.8554 -0.9785  0.6860
 2853SOL    HW2 8880   1.542   1.536   2.225  1.6666  1.9654  0.4052
 2854SOL     OW 8881   3.579   0.061   1.652  0.3297 -0.1844  0.1211
 2854SOL    HW1 8882   3.636   0.096   1.726  1.0747 -1.5576  0.2456
 2854SOL    HW2 8883   3.485   0.052   1.684  0.6652 -0.8797  0.9725
 2855SOL     OW 8884   1.757   3.832   4.654  0.0218  0.2393  0.2654
 2855SOL    HW1 8885   1.816   3.895   4.604 -0.9703 -1.2336 -3.0289
 2855SOL    HW2 8886   1.665   3.872   4.662 -0.3406 -0.3066 -0.9335
 2856SOL     OW 8887   1.863   3.196   2.878 -0.0945  0.3336  0.6722
 2856SOL    HW1 8888   1.842   3.274   2.937  1.2202  1.1073  0.1706
 2856SOL    HW2 8889   1.952   3.210   2.836  0.5600 -1.8620  1.2217
 2857SOL     OW 8890   0.840   3.027   1.668 -0.0587 -0.3318  0.1557
 2857SOL    HW1 8891   0.818   3.121   1.694 -0.2823  0.5233 -2.7325
 2857SOL    HW2 8892   0.766   2.967   1.696 -0.1780  0.4196  1.5506
 2858SOL     OW 8893   2.655   3.423   3.083  0.0412 -0.2075 -0.5700
 2858SOL    HW1 8894   2.677   3.455   2.991 -0.3192 -1.8738 -1.2771
 2858SOL    HW2 8895   2.671   3.496   3.149  1.3804  0.6748 -1.8187
 2859SOL     OW 8896   0.802   2.556   1.682  0.6358 -0.4180  0.4212
 2859SOL    HW1 8897   0.726   2.492   1.669  0.4260 -0.4175  1.5071
 2859SOL    HW2 8898   0.832   2.592   1.593 -0.4707 -0.6027 -0.0445
 2860SOL     OW 8899   4.240   4.385   3.699  0.1839  0.3095 -0.0340
 2860SOL    HW1 8900   4.245   4.285   3.690 -1.3261  0.3521 -1.9617
 2860SOL    HW2 8901   4.297   4.414   3.776 -2.5912 -2.4570  3.4434
 2861SOL     OW 8902   3.575   3.063   4.134  0.1706 -0.7203  0.4958
 2861SOL    HW1 8903   3.536   3.015   4.055  1.2700 -0.4562 -0.2324
 2861SOL    HW2 8904   3.546   3.158   4.133  2.6984  0.1599 -1.4880
 2862SOL     OW 8905   1.357   4.606   2.670 -0.2402  0.3324 -0.3271
 2862SOL    HW1 8906   1.444   4.631   2.627 -0.5291  0.4028 -0.8807
 2862SOL    HW2 8907   1.294   4.571   2.601  0.7518 -3.8571  0.5976
 2863SOL     OW 8908   4.349   0.799   4.965  0.4601  0.5317 -0.3075
 2863SOL    HW1 8909   4.442   0.810   5.000  1.2610  0.8175 -2.4130
 2863SOL    HW2 8910   4.307   0.889   4.952 -1.0268  0.4229  2.6899
 2864SOL     OW 8911   3.085   1.063   1.199 -0.1951  0.6647  0.0123
 2864SOL    HW1 8912   3.073   1.138   1.135 -1.7530  0.3428 -0.1092
 2864SOL    HW2 8913   3.029   1.080   1.281  0.7147  0.4154  0.7047
 2865SOL     OW 8914   3.528   2.052   3.555 -0.3602 -0.2731 -0.2889
 2865SOL    HW1 8915   3.462   1.977   3.549  1.8614 -2.4958  0.9310
 2865SOL    HW2 8916   3.594   2.044   3.481 -0.3709  0.8190 -0.4342
 2866SOL     OW 8917   2.556   3.323   3.323 -0.4988  0.0351  0.0074
 2866SOL    HW1 8918   2.574   3.333   3.225 -0.0590 -0.8059 -0.0098
 2866SOL    HW2 8919   2.635   3.357   3.375 -0.4084 -0.2327  0.0459
 2867SOL     OW 8920   2.690   4.535   3.266  0.6345 -0.2821  0.5941
 2867SOL    HW1 8921   2.790   4.544   3.261  0.7856 -1.6351  0.6780
 2867SOL    HW2 8922   2.665   4.489   3.351 -0.1160  0.6099  0.8610
 2868SOL     OW 8923   4.190   2.947   4.569 -0.1719  0.1079  0.4080
 2868SOL    HW1 8924   4.102   2.905   4.594 -0.7530  0.4272 -1.0014
 2868SOL    HW2 8925   4.190   3.043   4.598 -1.2831  0.7923 -1.6234
 2869SOL     OW 8926   2.553   4.899   4.093  0.4411 -0.2487 -0.2714
 2869SOL    HW1 8927   2.565   4.799   4.095 -1.3441 -0.4950 -0.0106
 2869SOL    HW2 8928   2.569   4.933   4.001  2.7301 -0.5035 -0.0276
 2870SOL     OW 8929   2.510   4.159   2.404 -0.6224  0.3469  0.2497
 2870SOL    HW1 8930   2.419   4.132   2.435 -0.2199 -0.6478  0.5983
 2870SOL    HW2 8931   2.501   4.228   2.332 -1.6265  0.7169  0.7052
 2871SOL     OW 8932   3.523   3.311   2.685 -1.1153 -0.4348  0.0663
 2871SOL    HW1 8933   3.519   3.270   2.594 -1.2377 -0.1714 -0.0510
 2871SOL    HW2 8934   3.432   3.343   2.711 -1.2108 -1.1089  0.5664
 2872SOL     OW 8935   2.717   1.007   2.476 -0.4343  0.0423 -0.2740
 2872SOL    HW1 8936   2.781   0.934   2.501  0.6218  0.0077 -2.8325
 2872SOL    HW2 8937   2.717   1.077   2.547  1.3774 -0.6396  0.4628
 2873SOL     OW 8938   1.770   1.243   0.951 -0.3851  0.1979 -0.1342
 2873SOL    HW1 8939   1.821   1.263   1.035  0.5347  0.7705 -0.8114
 2873SOL    HW2 8940   1.672   1.249   0.970 -0.1972  0.3587  0.8832
 2874SOL     OW 8941   3.609   4.849   2.619 -1.0053 -0.2332  0.1482
 2874SOL    HW1 8942   3.592   4.759   2.579 -0.2039 -1.1121  1.6756
 2874SOL    HW2 8943   3.618   4.839   2.718  1.4822  1.1369  0.1316
 2875SOL     OW 8944   2.210   0.770   3.881 -0.2248  0.0110  0.4934
 2875SOL    HW1 8945   2.214   0.865   3.850 -0.7658  0.3318  1.3511
 2875SOL    HW2 8946   2.116   0.738   3.879 -0.0483 -0.5058  0.2301
 2876SOL     OW 8947   4.835   1.078   3.636 -0.4416 -0.4010 -0.1404
 2876SOL    HW1 8948   4.909   1.052   3.573  1.6230  0.1100  1.9471
 2876SOL    HW2 8949   4.849   1.033   3.724 -1.7250  0.9971  0.8171
 2877SOL     OW 8950   2.206   0.931   3.512 -0.1799 -0.5532  0.3507
 2877SOL    HW1 8951   2.238   1.011   3.460  2.2694 -1.9892 -0.5212
 2877SOL    HW2 8952   2.225   0.945   3.609 -0.2317  0.0991  0.2765
 2878SOL     OW 8953   2.936   3.373   3.097  0.2423 -0.5891  0.0775
 2878SOL    HW1 8954   2.839   3.397   3.086  0.4818 -0.3799 -1.8577
 2878SOL    HW2 8955   2.953   3.348   3.193 -1.6158 -0.2075  0.5527
 2879SOL     OW 8956   4.312   2.062   3.636  0.5308 -0.2900 -0.3700
 2879SOL    HW1 8957   4.356   2.113   3.563  0.6285 -0.0988 -0.1784
 2879SOL    HW2 8958   4.379   2.040   3.707  0.2375  0.3723  0.1248
 2880SOL     OW 8959   4.988   1.493   3.490 -0.3989  0.1426  0.5760
 2880SOL    HW1 8960   4.993   1.418   3.424 -1.1971  1.0998 -0.6215
 2880SOL    HW2 8961   4.954   1.458   3.577 -2.1884 -0.6557 -0.3860
 2881SOL     OW 8962   2.155   3.969   0.845  0.3221 -0.1682  0.0399
 2881SOL    HW1 8963   2.097   4.049   0.833  0.4769 -0.2458 -1.3087
 2881SOL    HW2 8964   2.240   3.997   0.890 -0.0155  0.2501  0.4295
 2882SOL     OW 8965   2.615   3.463   2.383  0.4327 -0.1123  0.1101
 2882SOL    HW1 8966   2.596   3.548   2.431 -0.1168 -0.5223  0.6404
 2882SOL    HW2 8967   2.593   3.386   2.443 -1.6779 -0.6684 -1.2818
 2883SOL     OW 8968   5.347   3.576   3.588  0.2088  0.3963  0.6767
 2883SOL    HW1 8969   5.441   3.551   3.565  0.1122 -0.4626  1.1904
 2883SOL    HW2 8970   5.312   3.639   3.519  0.8443  0.0032 -0.0191
 2884SOL     OW 8971   1.372   2.524   1.026  0.1500  0.0042  0.0916
 2884SOL    HW1 8972   1.380   2.623   1.009 -0.0942  0.0569  0.2707
 2884SOL    HW2 8973   1.374   2.475   0.939 -0.3301  0.2163 -0.0455
 2885SOL     OW 8974   0.755   3.352   4.905 -0.4948  0.2017 -0.1585
 2885SOL    HW1 8975   0.790   3.445   4.892 -0.5491  0.0716 -1.3335
 2885SOL    HW2 8976   0.788   3.317   4.992 -1.0643  1.5838  0.6565
 2886SOL     OW 8977   3.214   2.294   4.682 -0.1056 -0.7359 -0.1712
 2886SOL    HW1 8978   3.157   2.213   4.689 -1.0178 -0.0097  1.4410
 2886SOL    HW2 8979   3.264   2.307   4.768  0.7632 -0.0995 -0.7472
 2887SOL     OW 8980   3.141   2.453   3.605 -0.3467 -0.0610 -0.0190
 2887SOL    HW1 8981   3.139   2.359   3.638  1.6020 -0.8264 -1.8487
 2887SOL    HW2 8982   3.200   2.508   3.665 -1.9196  0.2110  1.3719
 2888SOL     OW 8983   3.654   2.757   3.079 -0.7545  0.6952 -0.4849
 2888SOL    HW1 8984   3.734   2.770   3.021  0.0682 -0.2941  0.3897
 2888SOL    HW2 8985   3.573   2.793   3.033  0.2349  2.0133 -1.2365
 2889SOL     OW 8986   3.334   2.553   3.783 -0.3679  0.5493  0.2975
 2889SOL    HW1 8987   3.338   2.494   3.863 -1.4799 -1.6337 -1.1656
 2889SOL    HW2 8988   3.426   2.582   3.758  0.1089  0.2298  1.6102
 2890SOL     OW 8989   4.043   2.709   4.087  0.5852 -0.2960  0.2155
 2890SOL    HW1 8990   4.084   2.760   4.162 -0.2256 -0.7082  0.9757
 2890SOL    HW2 8991   3.962   2.757   4.054  1.4870  0.3699 -1.0723
 2891SOL     OW 8992   4.881   1.828   5.393  0.0201 -0.3674 -0.1311
 2891SOL    HW1 8993   4.962   1.771   5.404  0.8647  0.8056 -0.1607
 2891SOL    HW2 8994   4.799   1.774   5.416  0.8228 -1.4470  0.2685
 2892SOL     OW 8995   2.406   1.659   3.709 -0.3076  0.2028 -0.5351
 2892SOL    HW1 8996   2.309   1.642   3.696 -0.2358 -2.0987  1.2722
 2892SOL    HW2 8997   2.423   1.683   3.805  0.8779  0.9803 -0.9169
 2893SOL     OW 8998   2.806   0.456   4.465 -0.6403 -0.6189  0.3338
 2893SOL    HW1 8999   2.829   0.362   4.491  0.4969 -0.1111  1.2976
 2893SOL    HW2 9000   2.890   0.506   4.443 -0.8133  1.0243  2.9189
 2894SOL     OW 9001   3.907   2.457   0.314 -0.1696  0.1158 -0.2453
 2894SOL    HW1 9002   3.993   2.486   0.357 -0.6388  0.1864  0.6785
 2894SOL    HW2 9003   3.891   2.511   0.232 -0.3356  1.5663  0.6966
 2895SOL     OW 9004   3.945   0.046   4.603 -0.0822  0.5955 -0.3310
 2895SOL    HW1 9005   3.948  -0.041   4.652 -0.0602  0.1435 -1.1132
 2895SOL    HW2 9006   3.864   0.097   4.631 -1.5394 -0.8146 -1.7054
 2896SOL     OW 9007   2.408   0.630   0.372 -0.8448  0.4296 -0.0200
 2896SOL    HW1 9008   2.455   0.597   0.290 -0.0659  0.4392  0.4198
 2896SOL    HW2 9009   2.406   0.730   0.371  1.4649  0.5380  1.2180
 2897SOL     OW 9010   1.755   3.141   0.612 -0.6377 -0.3710 -0.4994
 2897SOL    HW1 9011   1.718   3.049   0.598  1.1361 -1.1306 -0.5424
 2897SOL    HW2 9012   1.849   3.134   0.645  0.2937  1.4082 -2.4807
 2898SOL     OW 9013   1.083   4.031   3.615  0.4532 -0.6611  0.7776
 2898SOL    HW1 9014   1.147   4.082   3.671  0.4176  0.5640 -0.2567
 2898SOL    HW2 9015   1.012   4.092   3.581  1.8455 -0.7355 -2.6537
 2899SOL     OW 9016   1.374   1.288   5.164  0.0993  0.5148 -0.5078
 2899SOL    HW1 9017   1.431   1.207   5.152 -0.4223  0.3449 -2.0629
 2899SOL    HW2 9018   1.297   1.266   5.225  1.5786  0.7240  1.5295
 2900SOL     OW 9019   3.813   3.228   4.499  0.0639  0.0683  0.2295
 2900SOL    HW1 9020   3.783   3.204   4.592 -0.5992 -1.4703 -0.3418
 2900SOL    HW2 9021   3.768   3.312   4.470 -0.4601  0.0480  0.9520
 2901SOL     OW 9022   1.737   3.236   3.674 -0.3257 -0.1012 -0.2812
 2901SOL    HW1 9023   1.655   3.263   3.624 -1.9931  0.6464  2.5978
 2901SOL    HW2 9024   1.738   3.137   3.687 -1.6646  0.0163  0.9559
 2902SOL     OW 9025   3.422   3.145   0.499 -0.0401  0.1617 -0.2660
 2902SOL    HW1 9026   3.478   3.070   0.533  0.4367  1.6334  2.4432
 2902SOL    HW2 9027   3.419   3.142   0.399  1.3131 -2.4314 -0.3036
 2903SOL     OW 9028   2.240   0.315   3.423  0.2792  0.1579  0.0906
 2903SOL    HW1 9029   2.328   0.279   3.393  0.5955  1.3278 -0.4684
 2903SOL    HW2 9030   2.222   0.401   3.376 -1.4684 -0.3761 -0.2633
 2904SOL     OW 9031   0.365   2.605   4.340 -0.4397  0.4124  0.4078
 2904SOL    HW1 9032   0.410   2.515   4.330 -1.0089  0.0175  1.2516
 2904SOL    HW2 9033   0.344   2.620   4.437 -0.2549  1.5131  0.2827
 2905SOL     OW 9034   4.219   0.920   2.625  0.0445 -0.6115  0.4265
 2905SOL    HW1 9035   4.241   0.952   2.718 -1.1047 -1.5383  1.0377
 2905SOL    HW2 9036   4.184   0.996   2.571 -1.1638 -0.4705  1.3749
 2906SOL     OW 9037   3.512   4.623   4.216 -0.1803 -0.4571 -0.2785
 2906SOL    HW1 9038   3.489   4.715   4.248 -0.4898 -0.4137 -0.6226
 2906SOL    HW2 9039   3.457   4.601   4.136  3.1463  0.8499 -3.1406
 2907SOL     OW 9040   5.406   0.917   5.325 -0.2756 -0.1159 -0.5734
 2907SOL    HW1 9041   5.325   0.936   5.381 -0.1888  0.5675 -0.6696
 2907SOL    HW2 9042   5.471   0.864   5.379  0.0868  1.0903  0.2115
 2908SOL     OW 9043   2.853   1.588   5.467  0.1189 -0.2165 -0.2772
 2908SOL    HW1 9044   2.932   1.526   5.464  0.2423 -0.0837  0.1596
 2908SOL    HW2 9045   2.813   1.595   5.376  0.7329 -0.1272 -0.5469
 2909SOL     OW 9046   1.840   5.477   0.065  0.0215 -0.1007  0.0907
 2909SOL    HW1 9047   1.935   5.505   0.054  0.2872  0.6459  3.2712
 2909SOL    HW2 9048   1.784   5.556   0.091 -0.8037 -1.0416  1.3294
 2910SOL     OW 9049   3.490   1.833   4.550  0.3672 -0.0937  0.4161
 2910SOL    HW1 9050   3.584   1.804   4.533 -0.3661 -1.1506 -2.3078
 2910SOL    HW2 9051   3.442   1.762   4.602  0.4466 -0.6558 -0.2669
 2911SOL     OW 9052   2.532   1.811   0.674  0.2159  0.3712  0.3393
 2911SOL    HW1 9053   2.473   1.889   0.694 -0.8957 -0.4790  0.4747
 2911SOL    HW2 9054   2.620   1.844   0.641 -0.2431  1.6802  0.3488
 2912SOL     OW 9055   2.280   2.024   4.968 -0.5389 -0.4550 -0.4356
 2912SOL    HW1 9056   2.246   2.033   4.874  0.8396  0.3160 -0.8956
 2912SOL    HW2 9057   2.203   2.020   5.031 -1.4834 -0.4372 -1.5511
 2913SOL     OW 9058   1.875   4.231   5.219 -0.6939 -0.2660 -0.4646
 2913SOL    HW1 9059   1.834   4.147   5.255 -2.0851  0.7704  0.4476
 2913SOL    HW2 9060   1.805   4.301   5.210  0.8509  1.5953  1.1491
 2914SOL     OW 9061   4.812   3.220   3.390  0.0243 -0.2494 -0.7800
 2914SOL    HW1 9062   4.758   3.241   3.309 -0.2265  0.5400 -0.4138
 2914SOL    HW2 9063   4.752   3.182   3.460  0.0438  0.0781 -0.5841
 2915SOL     OW 9064   3.589   2.452   2.258 -0.6558 -0.1678 -0.0513
 2915SOL    HW1 9065   3.575   2.527   2.193  0.5916 -0.1589 -0.3242
 2915SOL    HW2 9066   3.606   2.490   2.349 -0.4718 -0.1303 -0.1011
 2916SOL     OW 9067   3.731   1.691   4.816  0.3795 -0.4787  0.0098
 2916SOL    HW1 9068   3.822   1.684   4.855 -0.6534 -1.7899  2.3492
 2916SOL    HW2 9069   3.693   1.781   4.837  1.1553  0.1522 -1.1517
 2917SOL     OW 9070   4.276   4.166   4.963  0.1127 -0.1620 -0.4068
 2917SOL    HW1 9071   4.324   4.249   4.992 -0.4848  0.5011 -1.2814
 2917SOL    HW2 9072   4.311   4.088   5.015  1.0846  0.5373  0.0220
 2918SOL     OW 9073   3.905   4.280   0.161 -0.1182 -0.3591 -0.4600
 2918SOL    HW1 9074   3.907   4.378   0.140 -1.0912 -0.3752 -0.6452
 2918SOL    HW2 9075   3.851   4.264   0.243  0.9953 -0.6369  0.2359
 2919SOL     OW 9076   5.166   0.908   5.482 -0.2476 -0.1261 -0.4410
 2919SOL    HW1 9077   5.077   0.945   5.455 -0.5555 -1.0356 -0.7062
 2919SOL    HW2 9078   5.164   0.887   5.580 -0.2885 -0.0540 -0.4256
 2920SOL     OW 9079   3.989   2.408   5.322 -0.0054  0.5602 -0.3028
 2920SOL    HW1 9080   3.943   2.322   5.344  1.3941 -0.0522  0.3777
 2920SOL    HW2 9081   3.925   2.484   5.330 -1.0843 -0.3368 -0.1952
 2921SOL     OW 9082   2.584   2.248   2.261  0.0179 -0.2669  0.3013
 2921SOL    HW1 9083   2.669   2.243   2.209  0.3966 -1.9044  1.0148
 2921SOL    HW2 9084   2.507   2.265   2.199  0.6907 -0.1869 -0.5267
 2922SOL     OW 9085   2.888   2.849   5.253  0.1193 -0.8337 -0.4330
 2922SOL    HW1 9086   2.804   2.835   5.199 -0.0135 -1.1913 -0.1375
 2922SOL    HW2 9087   2.869   2.833   5.349  0.3360 -0.0792 -0.2657
 2923SOL     OW 9088   4.238   0.738   4.303  0.4269 -0.0390  0.8082
 2923SOL    HW1 9089   4.332   0.708   4.320  0.4101  0.3516  1.6104
 2923SOL    HW2 9090   4.206   0.795   4.379 -0.5509 -0.3773  0.6703
 2924SOL     OW 9091   0.712   2.453   4.487 -0.1658  0.3723  0.0166
 2924SOL    HW1 9092   0.752   2.366   4.518  1.1642  1.2598  0.8538
 2924SOL    HW2 9093   0.760   2.529   4.530 -2.9590  1.5174  1.3595
 2925SOL     OW 9094   1.814   2.687   4.714 -0.3824 -0.2121 -0.5356
 2925SOL    HW1 9095   1.834   2.628   4.793 -0.2113  0.5205 -0.0205
 2925SOL    HW2 9096   1.715   2.698   4.705 -0.3894  0.2145 -0.0211
 2926SOL     OW 9097   1.532   3.720   0.772  0.2905 -0.1349  0.2005
 2926SOL    HW1 9098   1.553   3.703   0.676  0.6104 -0.0207  0.2471
 2926SOL    HW2 9099   1.494   3.811   0.783  1.0718  0.1925  0.2884
 2927SOL     OW 9100   0.122   3.552   0.648  0.4014  0.2564  0.2874
 2927SOL    HW1 9101   0.037   3.506   0.676  0.4951  0.3849  0.7837
 2927SOL    HW2 9102   0.102   3.648   0.628  0.9032  1.0450  3.1441
 2928SOL     OW 9103   3.210   0.413   0.916  0.7491  0.2668 -0.0718
 2928SOL    HW1 9104   3.175   0.406   0.823 -3.0719  1.0653  1.1165
 2928SOL    HW2 9105   3.251   0.503   0.929  1.3663  0.1245 -0.9865
 2929SOL     OW 9106   3.017   2.185   3.639  0.0858  0.8372 -0.3053
 2929SOL    HW1 9107   2.992   2.113   3.704 -0.6360  1.6109  0.2910
 2929SOL    HW2 9108   2.935   2.234   3.610  0.5937  1.6117 -0.4697
 2930SOL     OW 9109   0.081   2.555   4.952  0.3357  0.3076  0.4940
 2930SOL    HW1 9110   0.054   2.652   4.949  2.5591  0.9577 -0.1701
 2930SOL    HW2 9111   0.106   2.530   5.046  0.2900  0.5395  0.5685
 2931SOL     OW 9112   4.276   1.321   4.986 -1.0148  0.4491 -0.1582
 2931SOL    HW1 9113   4.263   1.228   4.952 -1.3654  0.1971  0.6507
 2931SOL    HW2 9114   4.324   1.376   4.917 -0.6984 -0.3634 -0.5897
 2932SOL     OW 9115   3.327   3.170   4.835  0.4988  0.0749  0.2025
 2932SOL    HW1 9116   3.415   3.186   4.879  1.1717 -0.2268 -0.9765
 2932SOL    HW2 9117   3.342   3.148   4.738 -0.9211  0.7336 -0.1888
 2933SOL     OW 9118   2.628   2.323   0.127  0.9950  0.1913 -0.1090
 2933SOL    HW1 9119   2.657   2.227   0.136  1.2478 -0.0369 -2.6772
 2933SOL    HW2 9120   2.708   2.381   0.115  0.7603  0.5372 -0.0226
 2934SOL     OW 9121   1.862   3.338   4.319 -0.1493 -0.3789  0.2073
 2934SOL    HW1 9122   1.789   3.270   4.331 -1.3008  0.5520 -1.2099
 2934SOL    HW2 9123   1.893   3.338   4.224  0.1729  0.7282  0.2944
 2935SOL     OW 9124   2.966   2.115   4.708  0.2282 -0.5098 -0.0158
 2935SOL    HW1 9125   3.001   2.064   4.786 -2.5751 -1.1339  0.9398
 2935SOL    HW2 9126   2.904   2.056   4.655 -0.6403  0.9520 -0.6821
 2936SOL     OW 9127   1.955   1.863   5.521  0.0146  0.3211 -0.2200
 2936SOL    HW1 9128   2.032   1.925   5.510 -0.1112  0.9244  1.8581
 2936SOL    HW2 9129   1.934   1.852   5.618 -1.5438 -1.0535 -0.6531
 2937SOL     OW 9130   5.390   5.493   4.016  0.1334  0.2345  0.0663
 2937SOL    HW1 9131   5.403   5.422   4.085 -1.7772 -0.0391  0.2040
 2937SOL    HW2 9132   5.314   5.467   3.956  0.5895  1.3257 -1.0206
 2938SOL     OW 9133   2.829   2.946   5.550  0.3828 -0.3310 -0.3041
 2938SOL    HW1 9134   2.746   2.921   5.600  1.3665 -0.6331  1.2310
 2938SOL    HW2 9135   2.812   3.030   5.498 -1.4299 -1.3680 -1.5195
 2939SOL     OW 9136   3.752   2.342   4.056  0.0873  0.1740 -0.5033
 2939SOL    HW1 9137   3.657   2.353   4.026 -0.0533 -2.1251 -1.0482
 2939SOL    HW2 9138   3.808   2.310   3.980  0.8080 -0.7281  0.3761
 2940SOL     OW 9139   2.506   1.908   5.046  0.3814  0.2048  0.0307
 2940SOL    HW1 9140   2.509   1.878   5.141 -0.1179 -0.4660 -0.1546
 2940SOL    HW2 9141   2.423   1.962   5.031 -0.7298 -1.5592 -0.5261
 2941SOL     OW 9142   1.982   1.991   4.328  0.4278  0.1227 -0.8227
 2941SOL    HW1 9143   2.070   1.956   4.298  1.3361  0.4767  1.2652
 2941SOL    HW2 9144   1.930   1.917   4.371 -0.7376 -0.3108 -2.8362
 2942SOL     OW 9145   2.242   3.095   3.718 -1.2125 -0.2963 -0.0599
 2942SOL    HW1 9146   2.145   3.120   3.719 -1.5810 -1.6311  0.5015
 2942SOL    HW2 9147   2.281   3.117   3.629 -2.2387 -0.4666 -0.5691
 2943SOL     OW 9148   3.271   3.651   4.219  0.3181  0.2399  0.2802
 2943SOL    HW1 9149   3.252   3.652   4.121  2.6920 -0.1494 -0.2558
 2943SOL    HW2 9150   3.277   3.745   4.252 -0.2645  0.3747  0.0187
 2944SOL     OW 9151   3.373   1.996   3.256  0.1530 -0.2018  0.5186
 2944SOL    HW1 9152   3.331   1.994   3.346  0.8837  2.6209  1.0441
 2944SOL    HW2 9153   3.431   2.078   3.248  1.1820 -1.0589 -2.0547
 2945SOL     OW 9154   3.719   2.806   0.297 -0.1020  0.2447 -0.0313
 2945SOL    HW1 9155   3.735   2.710   0.272 -1.1651 -0.1086  0.5777
 2945SOL    HW2 9156   3.692   2.857   0.216  0.1775 -0.0380 -0.3063
 2946SOL     OW 9157   2.915   2.078   4.283 -0.4151  0.2170 -0.1539
 2946SOL    HW1 9158   2.951   2.009   4.221 -1.1376 -0.3377  0.0361
 2946SOL    HW2 9159   2.825   2.107   4.252 -0.4361  0.5232  0.1895
 2947SOL     OW 9160   3.890   1.166   0.353 -0.4295 -0.4891  0.1513
 2947SOL    HW1 9161   3.857   1.151   0.260  0.9449 -0.4582 -0.3713
 2947SOL    HW2 9162   3.951   1.245   0.355  0.5904 -1.2492  0.7981
 2948SOL     OW 9163   1.584   3.352   4.660 -0.3136 -0.1381 -0.0243
 2948SOL    HW1 9164   1.605   3.440   4.618 -0.3194 -0.2275 -0.2181
 2948SOL    HW2 9165   1.616   3.351   4.754  1.4498 -0.6054 -0.5861
 2949SOL     OW 9166   3.505   1.039   4.797 -0.2757 -0.2191 -0.0169
 2949SOL    HW1 9167   3.597   1.048   4.758 -0.2628  1.3697  0.2965
 2949SOL    HW2 9168   3.451   1.120   4.772 -1.1609 -0.5165  0.8926
 2950SOL     OW 9169   3.633   2.949   4.876  0.2386 -0.1668  0.2835
 2950SOL    HW1 9170   3.582   2.959   4.961  0.9072 -1.0527  0.7934
 2950SOL    HW2 9171   3.573   2.911   4.805  0.1600 -1.1606  0.8682
 2951SOL     OW 9172   1.944   1.129  -0.016  0.2347  0.1147  0.6212
 2951SOL    HW1 9173   1.875   1.105   0.053  1.4006 -0.7229  1.5368
 2951SOL    HW2 9174   2.009   1.194   0.024 -0.5608  1.7107 -0.5548
 2952SOL     OW 9175   3.678   0.312   5.206  0.0754  0.4170  0.3357
 2952SOL    HW1 9176   3.711   0.389   5.261 -0.2458 -0.4028  1.6970
 2952SOL    HW2 9177   3.587   0.285   5.237  0.8672 -1.5906  0.9873
 2953SOL     OW 9178   2.721   3.523   4.132  0.2708 -0.3291 -0.0289
 2953SOL    HW1 9179   2.802   3.470   4.157  0.0166 -1.2292 -1.0790
 2953SOL    HW2 9180   2.686   3.492   4.044 -0.4758  0.9209 -0.1968
 2954SOL     OW 9181   2.003   3.389   4.545  0.1009  0.0118  0.0757
 2954SOL    HW1 9182   1.966   3.475   4.580 -1.1596 -0.6357  0.3654
 2954SOL    HW2 9183   1.941   3.352   4.476 -0.5062 -1.7864  1.5422
 2955SOL     OW 9184   0.397   1.434   4.938 -0.3653 -0.0502  0.1556
 2955SOL    HW1 9185   0.418   1.465   4.845 -2.5320 -2.2252 -1.1956
 2955SOL    HW2 9186   0.429   1.502   5.004  3.3606  0.5159 -1.9607
 2956SOL     OW 9187   1.697   4.548   3.687  0.1333 -0.6498 -0.4189
 2956SOL    HW1 9188   1.689   4.571   3.590 -0.4480 -1.1734 -0.5018
 2956SOL    HW2 9189   1.789   4.514   3.705  0.0574 -1.1350 -0.9162
 2957SOL     OW 9190   3.499   1.657   0.106  0.4793 -0.0276  0.9699
 2957SOL    HW1 9191   3.550   1.580   0.068  2.0728  2.3850 -2.3892
 2957SOL    HW2 9192   3.408   1.660   0.066 -0.4090 -1.2566  2.7660
 2958SOL     OW 9193   2.869   3.447   4.441 -0.0286  0.2593  0.3142
 2958SOL    HW1 9194   2.961   3.471   4.411 -0.0478 -0.9434 -0.8121
 2958SOL    HW2 9195   2.874   3.366   4.501 -0.3568  0.0939  0.1226
 2959SOL     OW 9196   5.467   5.337   2.869 -0.1017  0.1382  0.0703
 2959SOL    HW1 9197   5.532   5.306   2.939  0.6033 -0.6252 -0.8968
 2959SOL    HW2 9198   5.516   5.385   2.797 -0.9226  1.5954  0.4363
 2960SOL     OW 9199   3.400   2.697   5.209 -0.0667  0.0831 -0.2129
 2960SOL    HW1 9200   3.473   2.764   5.221 -0.1792 -0.0281  1.2931
 2960SOL    HW2 9201   3.357   2.711   5.119  2.0172 -0.1101 -1.3107
 2961SOL     OW 9202   3.904   3.895   3.203 -0.0219  0.2816 -0.1757
 2961SOL    HW1 9203   3.857   3.943   3.129  3.3876  2.3259 -1.2750
 2961SOL    HW2 9204   3.969   3.829   3.164 -0.3771 -0.8915  1.1441
 2962SOL     OW 9205   1.536   3.656   4.260  0.0071 -0.1315  0.4417
 2962SOL    HW1 9206   1.553   3.610   4.173  0.7872 -2.4346  1.7417
 2962SOL    HW2 9207   1.443   3.692   4.261  0.2126  0.5729 -1.5853
 2963SOL     OW 9208   3.063   2.679   3.469 -0.3565  0.4169  0.2239
 2963SOL    HW1 9209   3.083   2.591   3.512 -1.5201  0.0021 -0.0551
 2963SOL    HW2 9210   2.971   2.678   3.430  0.9817  0.3111 -3.3456
 2964SOL     OW 9211   4.353   1.378   5.426  0.2285  0.0839  0.3334
 2964SOL    HW1 9212   4.264   1.332   5.425 -0.5166  1.4848 -0.1318
 2964SOL    HW2 9213   4.362   1.432   5.510 -0.4265  1.8624 -0.6686
 2965SOL     OW 9214   3.459   2.391   0.942  0.1042 -0.1611  0.0056
 2965SOL    HW1 9215   3.531   2.457   0.919 -1.3513  0.9185 -1.6847
 2965SOL    HW2 9216   3.410   2.423   1.023 -1.3405  1.5798 -1.4493
 2966SOL     OW 9217   0.443   3.773   5.340 -0.6153  0.4455  0.0614
 2966SOL    HW1 9218   0.373   3.815   5.282 -1.3147  0.9665  1.2547
 2966SOL    HW2 9219   0.403   3.699   5.394  0.1651 -0.4382 -0.5324
 2967SOL     OW 9220   3.558   2.317   0.549  0.1460  0.8024 -0.6176
 2967SOL    HW1 9221   3.583   2.245   0.614  1.4352 -1.4629 -3.3753
 2967SOL    HW2 9222   3.458   2.323   0.544  0.0072 -0.4559  0.0534
 2968SOL     OW 9223   5.463   2.972   0.372  0.4339 -0.5396 -0.0401
 2968SOL    HW1 9224   5.440   2.923   0.457 -0.8435 -2.6103 -1.4764
 2968SOL    HW2 9225   5.560   2.959   0.353  1.2441  1.6556  2.0564
 2969SOL     OW 9226   4.929   2.363   4.574  0.4486  0.0824 -0.1983
 2969SOL    HW1 9227   4.844   2.310   4.577 -0.8671  1.8569 -2.4866
 2969SOL    HW2 9228   4.930   2.429   4.649  0.6442 -1.0108  0.8044
 2970SOL     OW 9229   2.954   1.982   3.798 -0.3760 -0.0727 -0.1335
 2970SOL    HW1 9230   2.905   1.980   3.885 -0.8200  0.1823 -0.3704
 2970SOL    HW2 9231   3.048   1.950   3.811 -0.0838  1.0508  0.6628
 2971SOL     OW 9232   2.945   1.007   5.414  0.1693  0.6504  0.6043
 2971SOL    HW1 9233   2.877   1.011   5.340 -0.4382 -0.6167  1.0649
 2971SOL    HW2 9234   2.903   1.038   5.499 -0.1124 -0.9214  1.0661
 2972SOL     OW 9235   3.441   0.986   0.295  0.5984  0.0037  0.4695
 2972SOL    HW1 9236   3.355   0.939   0.273 -0.6502  2.4336 -0.1921
 2972SOL    HW2 9237   3.517   0.942   0.247 -0.8617  0.1151 -2.0770
 2973SOL     OW 9238   2.998   3.189   5.232  0.2418  0.1920  0.0740
 2973SOL    HW1 9239   3.095   3.188   5.208 -0.0312  0.7113 -1.1379
 2973SOL    HW2 9240   2.945   3.147   5.159 -0.5813  1.2732  0.0240
 2974SOL     OW 9241   2.893   3.109   4.185  0.1244  0.1006 -0.0931
 2974SOL    HW1 9242   2.922   3.069   4.272  1.8525  0.8238 -0.2890
 2974SOL    HW2 9243   2.794   3.119   4.184  0.0253 -0.3943  1.5755
 2975SOL     OW 9244   2.665   2.176   5.084  0.0515 -0.0063  0.3976
 2975SOL    HW1 9245   2.696   2.082   5.070 -1.7395 -0.4090 -1.4683
 2975SOL    HW2 9246   2.739   2.239   5.061  1.2148 -0.9203  1.4868
 2976SOL     OW 9247   3.324   3.296   3.993  0.1571  0.0032 -0.0767
 2976SOL    HW1 9248   3.366   3.283   3.904  0.8393  1.0219  0.0898
 2976SOL    HW2 9249   3.233   3.254   3.993 -0.0673  0.4473 -1.4214
 2977SOL     OW 9250   4.527   3.443   5.239  0.5385  0.7295 -0.6149
 2977SOL    HW1 9251   4.534   3.542   5.251  0.0813  1.1748 -3.3976
 2977SOL    HW2 9252   4.515   3.422   5.142  1.9568 -2.1603 -0.2537
 2978SOL     OW 9253   4.797   1.773   4.577 -0.3919  0.2993  0.1319
 2978SOL    HW1 9254   4.804   1.700   4.509 -2.1707 -0.3303  0.5549
 2978SOL    HW2 9255   4.801   1.862   4.532  0.4952 -0.0694 -0.5422
 2979SOL     OW 9256   4.191   3.289   1.253  0.9271  0.0150 -0.5478
 2979SOL    HW1 9257   4.142   3.246   1.330 -1.4484  2.2448 -0.6757
 2979SOL    HW2 9258   4.238   3.371   1.285  0.9028  0.3162 -1.2742
 2980SOL     OW 9259   3.478   2.561   3.184  0.1481  0.6375 -0.2967
 2980SOL    HW1 9260   3.432   2.547   3.096 -1.4160  3.2282  0.0105
 2980SOL    HW2 9261   3.556   2.623   3.171  1.2534 -0.6696 -0.1548
 2981SOL     OW 9262   2.645   2.669   0.329  0.0776  0.1600  0.2334
 2981SOL    HW1 9263   2.591   2.753   0.325 -0.0542  0.0533 -0.3756
 2981SOL    HW2 9264   2.740   2.690   0.307 -0.1234  0.0155 -0.8128
 2982SOL     OW 9265   3.485   1.931   0.136  0.3531  0.0783 -0.4799
 2982SOL    HW1 9266   3.499   1.833   0.126 -1.1932 -0.0556 -1.7339
 2982SOL    HW2 9267   3.394   1.948   0.174  1.1473  1.0191  1.1044
 2983SOL     OW 9268   2.924   2.921   0.556  0.3427  0.5753  0.1522
 2983SOL    HW1 9269   3.010   2.967   0.579 -0.4631  0.9124  2.7238
 2983SOL    HW2 9270   2.889   2.873   0.636 -3.3415  2.8386  0.1262
 2984SOL     OW 9271   1.454   3.108   4.227 -0.2395  0.8587 -0.2010
 2984SOL    HW1 9272   1.546   3.137   4.251 -0.4937  0.9008  0.7382
 2984SOL    HW2 9273   1.450   3.008   4.223 -0.6732  0.7490  1.9867
 2985SOL     OW 9274   3.892   0.888   4.772 -0.0833 -0.3058  0.0689
 2985SOL    HW1 9275   3.873   0.911   4.868 -0.4416 -0.4315  0.0308
 2985SOL    HW2 9276   3.842   0.806   4.747  1.3359 -1.2587  0.2511
 2986SOL     OW 9277   2.001   4.989   5.075  0.4423  0.0206 -0.2343
 2986SOL    HW1 9278   2.070   5.027   5.014  1.4268 -1.2220  0.0703
 2986SOL    HW2 9279   2.000   5.040   5.161 -0.2539  1.1386 -0.8786
 2987SOL     OW 9280   0.924   1.559   5.449  0.1283 -0.3217  0.2404
 2987SOL    HW1 9281   0.897   1.547   5.545  0.5705 -1.2584  0.2564
 2987SOL    HW2 9282   0.915   1.655   5.424 -0.6039 -0.1701  1.0355
 2988SOL     OW 9283   5.491   2.083   5.223  0.4464  0.6361  0.5436
 2988SOL    HW1 9284   5.402   2.037   5.228  0.0700  1.3538  0.6234
 2988SOL    HW2 9285   5.477   2.182   5.220  1.1996  0.7298 -0.7152
 2989SOL     OW 9286   4.434   2.713   5.204  0.0764 -0.1491  0.1202
 2989SOL    HW1 9287   4.336   2.702   5.223 -0.0631 -0.6462 -0.8642
 2989SOL    HW2 9288   4.487   2.674   5.279 -0.4757  0.9461  1.1086
 2990SOL     OW 9289   3.659   0.207   4.415 -0.2596  0.4720 -0.1169
 2990SOL    HW1 9290   3.743   0.216   4.361 -0.3344 -0.0948 -0.3363
 2990SOL    HW2 9291   3.680   0.222   4.511  0.0147  0.7577 -0.2184
 2991SOL     OW 9292   1.943   3.621   1.455  0.6251  0.2036 -0.3702
 2991SOL    HW1 9293   1.884   3.614   1.535  1.0157 -0.5556 -0.1301
 2991SOL    HW2 9294   1.944   3.533   1.407  1.4942  0.2242 -0.4070
 2992SOL     OW 9295   5.166   3.431   0.708  0.3912  0.4952  0.0599
 2992SOL    HW1 9296   5.095   3.490   0.671  0.4788  0.0077 -0.9077
 2992SOL    HW2 9297   5.127   3.377   0.783 -0.4455 -0.2010 -0.8437
 2993SOL     OW 9298   2.552   2.290   5.320  0.6321  0.2566 -0.4810
 2993SOL    HW1 9299   2.457   2.316   5.332  1.1334  2.0769 -0.1873
 2993SOL    HW2 9300   2.571   2.276   5.223 -0.1844 -1.2393 -0.4451
 2994SOL     OW 9301   4.137   3.951   3.346  0.0623 -0.0460 -0.1554
 2994SOL    HW1 9302   4.038   3.937   3.334 -0.3217  1.3265  1.0965
 2994SOL    HW2 9303   4.156   4.048   3.357  1.0737 -0.4685  2.9953
 2995SOL     OW 9304   3.474   2.049   5.435  0.2540 -0.1105 -0.5036
 2995SOL    HW1 9305   3.494   1.955   5.407 -0.2034 -0.8985  1.6026
 2995SOL    HW2 9306   3.449   2.050   5.532  0.2414  2.2012 -0.4760
 2996SOL     OW 9307   3.065   1.927   5.208 -0.0206  0.3850 -0.5998
 2996SOL    HW1 9308   3.064   1.837   5.251 -1.0808  0.5734 -0.2053
 2996SOL    HW2 9309   3.156   1.945   5.171  1.0540  0.3385  1.8427
 2997SOL     OW 9310   1.616   4.437   0.052  0.3670 -0.4270  0.2315
 2997SOL    HW1 9311   1.642   4.360   0.111  1.4117 -0.1691  0.1245
 2997SOL    HW2 9312   1.657   4.521   0.086  0.2091 -0.1161 -0.3350
 2998SOL     OW 9313   3.854   1.167   1.080 -0.9841 -0.1946 -0.2291
 2998SOL    HW1 9314   3.912   1.110   1.138 -0.3064  0.9525  0.2739
 2998SOL    HW2 9315   3.761   1.170   1.118 -0.7878 -0.2153  0.2689
 2999SOL     OW 9316   4.469   2.516   4.124 -0.1701  0.3812 -0.1635
 2999SOL    HW1 9317   4.434   2.527   4.217 -0.9673  3.7779 -0.7606
 2999SOL    HW2 9318   4.568   2.533   4.124 -0.0624 -0.2252  0.1395
 3000SOL     OW 9319   4.911   0.713   4.551 -0.1943  0.5320  0.6897
 3000SOL    HW1 9320   4.832   0.772   4.567 -1.4037 -0.3036 -1.5860
 3000SOL    HW2 9321   4.887   0.618   4.574  0.5641  0.4376  1.1135
 3001SOL     OW 9322   2.633   3.641   3.511 -0.1290 -0.5756  0.2644
 3001SOL    HW1 9323   2.686   3.606   3.588 -1.4327  3.2989  3.2918
 3001SOL    HW2 9324   2.536   3.645   3.535 -0.4806  1.6075 -1.1429
 3002SOL     OW 9325   1.632   2.747   4.395  0.3058 -0.4086  0.8210
 3002SOL    HW1 9326   1.684   2.827   4.426  1.1244 -0.4693 -0.3409
 3002SOL    HW2 9327   1.693   2.685   4.347 -0.7834 -0.6509 -0.2873
 3003SOL     OW 9328   2.313   4.550   2.455  0.1389  0.5136  0.2639
 3003SOL    HW1 9329   2.243   4.583   2.519  1.1387  1.8775  0.6924
 3003SOL    HW2 9330   2.290   4.582   2.363 -0.2801  0.1786  0.2476
 3004SOL     OW 9331   2.740   2.473   5.391  0.7879 -0.7682 -0.1995
 3004SOL    HW1 9332   2.662   2.420   5.357  0.9640 -0.1926 -1.5691
 3004SOL    HW2 9333   2.759   2.446   5.485 -1.5631 -0.3440  0.4739
 3005SOL     OW 9334   2.050   3.547   0.338 -0.1325  0.0246  0.3992
 3005SOL    HW1 9335   2.039   3.580   0.245 -3.3429  0.6520  0.8873
 3005SOL    HW2 9336   2.058   3.447   0.338  0.1201  0.0376 -0.5225
 3006SOL     OW 9337   2.602   0.898   4.698 -0.1968 -0.1889  0.2219
 3006SOL    HW1 9338   2.523   0.936   4.745 -0.0700 -0.4198  0.6368
 3006SOL    HW2 9339   2.648   0.833   4.759 -0.0451 -0.5199 -0.2389
 3007SOL     OW 9340   3.180   3.941   3.630  0.2449  0.2794  0.2962
 3007SOL    HW1 9341   3.081   3.949   3.640  0.3648  1.9179  0.3206
 3007SOL    HW2 9342   3.201   3.855   3.583 -1.2938  0.7390 -1.3420
 3008SOL     OW 9343   3.145   2.600   0.966  0.4791  0.0810 -0.3546
 3008SOL    HW1 9344   3.076   2.548   1.017 -0.5145  0.2518 -1.4690
 3008SOL    HW2 9345   3.136   2.580   0.869  0.1682  2.1884 -0.8142
 3009SOL     OW 9346   3.084   1.336   4.763  0.3653 -0.3386 -0.2398
 3009SOL    HW1 9347   3.063   1.419   4.815  0.8350 -0.2685 -0.1575
 3009SOL    HW2 9348   3.005   1.311   4.707 -1.2982 -2.0545  2.6499
 3010SOL     OW 9349   1.629   0.770   4.311  0.1884  0.2384  0.4317
 3010SOL    HW1 9350   1.542   0.767   4.262 -0.6844 -2.5747  1.9548
 3010SOL    HW2 9351   1.686   0.694   4.282  0.8135  0.1933  1.7260
 3011SOL     OW 9352   1.865   2.015   0.567  0.4362 -0.1120  0.1688
 3011SOL    HW1 9353   1.901   2.007   0.474  1.3126  3.1170  0.1021
 3011SOL    HW2 9354   1.799   1.942   0.583 -1.5589  0.4965 -3.8784
 3012SOL     OW 9355   1.781   3.405   3.904  0.1919 -0.0135 -0.0638
 3012SOL    HW1 9356   1.832   3.350   3.970 -1.2844 -0.8974  0.3771
 3012SOL    HW2 9357   1.763   3.351   3.822 -1.2190 -0.2033  0.3479
 3013SOL     OW 9358   2.751   2.527   5.130  0.0507 -0.1440  0.7765
 3013SOL    HW1 9359   2.776   2.510   5.226  1.8814  2.1301  0.7948
 3013SOL    HW2 9360   2.780   2.449   5.074 -2.5619 -2.3011  2.1804
 3014SOL     OW 9361   4.075   1.518   3.318  0.4281 -0.5808  0.5694
 3014SOL    HW1 9362   4.042   1.548   3.407  0.7510 -1.8651  1.1358
 3014SOL    HW2 9363   4.117   1.428   3.326  1.1707 -0.3765 -0.7376
 3015SOL     OW 9364   4.205   2.478   5.464 -0.7676 -0.0056  0.3238
 3015SOL    HW1 9365   4.268   2.408   5.430  0.0778  0.6960  0.4003
 3015SOL    HW2 9366   4.115   2.465   5.423 -0.4063 -0.6392 -0.2918
 3016SOL     OW 9367   2.517   2.400   1.277  0.6387  0.1569 -0.1285
 3016SOL    HW1 9368   2.525   2.336   1.201  0.8203 -0.2598  0.2324
 3016SOL    HW2 9369   2.425   2.394   1.316  0.6126  0.2108 -0.1835
 3017SOL     OW 9370   2.466   2.973   4.474 -0.0697 -0.2289 -0.4382
 3017SOL    HW1 9371   2.462   2.949   4.571 -1.2501 -0.5518 -0.5452
 3017SOL    HW2 9372   2.375   3.003   4.444  0.8932  2.7543 -0.7408
 3018SOL     OW 9373   2.252   4.047   4.912  0.0788 -0.2015  0.4978
 3018SOL    HW1 9374   2.283   4.039   4.817  1.1069 -2.1129  0.9254
 3018SOL    HW2 9375   2.219   3.958   4.943 -1.0156  0.5969  1.7047
 3019SOL     OW 9376   2.863   2.809   0.301 -0.3624  0.2090  0.0118
 3019SOL    HW1 9377   2.899   2.834   0.391  0.4094  0.3221 -0.3189
 3019SOL    HW2 9378   2.938   2.777   0.243 -1.1160 -1.5836 -0.0252
 3020SOL     OW 9379   3.726   1.446   3.092  0.3808  0.4948  0.0245
 3020SOL    HW1 9380   3.678   1.533   3.077 -0.1506  0.2620  0.3313
 3020SOL    HW2 9381   3.694   1.379   3.025  0.7559  0.5218 -0.1816
 3021SOL     OW 9382   1.221   3.434   0.346 -0.0077 -0.7387 -0.1116
 3021SOL    HW1 9383   1.311   3.469   0.373 -0.8241  2.9404 -1.5388
 3021SOL    HW2 9384   1.162   3.429   0.426 -0.1610  2.6317  0.1356
 3022SOL     OW 9385   2.813   1.950   4.995  0.3442 -0.1930 -0.7089
 3022SOL    HW1 9386   2.785   1.905   4.910 -1.1598  0.4473 -0.5744
 3022SOL    HW2 9387   2.913   1.951   5.000  0.4445 -1.3687 -1.8480
 3023SOL     OW 9388   4.093   3.008   0.833 -0.2373 -0.3245  0.2408
 3023SOL    HW1 9389   4.115   3.089   0.888  0.7302 -0.3035 -0.1554
 3023SOL    HW2 9390   4.169   2.942   0.840  0.1366 -0.1123 -1.4583
 3024SOL     OW 9391   1.704   1.719   4.078 -0.3157  0.2336 -0.0004
 3024SOL    HW1 9392   1.678   1.743   4.172 -1.0746  1.8720 -0.5871
 3024SOL    HW2 9393   1.802   1.700   4.074 -0.7295 -2.8794  1.6720
 3025SOL     OW 9394   3.092   3.333   4.835  0.3291 -0.1084  0.0788
 3025SOL    HW1 9395   3.097   3.411   4.897 -0.6760  0.3057 -0.3338
 3025SOL    HW2 9396   3.170   3.273   4.850  1.5155  1.3394 -0.0868
 3026SOL     OW 9397   3.785   0.604   3.800  0.5716 -0.4057  0.0590
 3026SOL    HW1 9398   3.824   0.623   3.710 -1.7113  0.0942 -0.8868
 3026SOL    HW2 9399   3.735   0.517   3.796 -1.8183  0.8887 -0.0076
 3027SOL     OW 9400   3.628   1.810   4.258 -0.5728  0.6005  0.2132
 3027SOL    HW1 9401   3.639   1.899   4.214  0.9599  0.3112 -0.0630
 3027SOL    HW2 9402   3.690   1.803   4.336  1.0916 -1.0275 -1.1540
 3028SOL     OW 9403   4.166   3.476   2.354 -0.2973 -0.0492 -0.1442
 3028SOL    HW1 9404   4.107   3.395   2.354  0.1927 -0.4217 -0.9607
 3028SOL    HW2 9405   4.167   3.516   2.446  1.5699 -2.5469  1.0552
 3029SOL     OW 9406   2.116   0.562   5.526 -0.1725  0.2974  0.1319
 3029SOL    HW1 9407   2.141   0.535   5.433 -0.4207 -0.0592  0.1635
 3029SOL    HW2 9408   2.167   0.643   5.553  2.4518 -1.4910  0.9266
 3030SOL     OW 9409   4.666   2.409   3.869 -0.6030  0.3950 -0.5183
 3030SOL    HW1 9410   4.678   2.446   3.961  3.4761  0.7130 -0.9696
 3030SOL    HW2 9411   4.647   2.311   3.875 -1.7648  0.6668  0.6318
 3031SOL     OW 9412   3.448   2.971   5.054  0.2380  0.2395 -0.1621
 3031SOL    HW1 9413   3.461   2.938   5.147  0.8931 -1.6034 -0.8652
 3031SOL    HW2 9414   3.367   2.927   5.014  0.3558  0.4869 -0.6854
 3032SOL     OW 9415   0.891   4.032   4.168  0.1270 -0.8649 -0.3970
 3032SOL    HW1 9416   0.885   4.132   4.170 -0.5035 -0.9098  1.2395
 3032SOL    HW2 9417   0.987   4.004   4.162  0.2891 -0.1782 -1.2002
 3033SOL     OW 9418   3.747   2.314   0.011 -0.7576  0.2159  0.1636
 3033SOL    HW1 9419   3.837   2.274  -0.004 -1.0449 -0.1542 -0.6730
 3033SOL    HW2 9420   3.712   2.286   0.101  0.5843  1.6039  1.1436
 3034SOL     OW 9421   2.290   4.992   3.495  0.6448  0.0490  0.1615
 3034SOL    HW1 9422   2.229   5.042   3.433 -0.8030 -2.2672 -0.3812
 3034SOL    HW2 9423   2.351   4.933   3.443 -0.0003 -1.2799  0.8546
 3035SOL     OW 9424   3.137   0.775   4.876 -0.1930  0.2362  0.5159
 3035SOL    HW1 9425   3.072   0.744   4.808  1.1029  1.1833 -1.2274
 3035SOL    HW2 9426   3.124   0.723   4.961  0.3135 -3.4020 -1.4514
 3036SOL     OW 9427   0.955   3.667   3.287 -0.0385  0.1950  0.5691
 3036SOL    HW1 9428   1.036   3.656   3.344  0.1496 -0.1419  0.2394
 3036SOL    HW2 9429   0.878   3.619   3.328 -0.5122  1.8824  1.7506
 3037SOL     OW 9430   3.424   3.053   2.993 -1.1058  0.1468 -0.6363
 3037SOL    HW1 9431   3.403   3.123   3.061 -0.1274 -0.4795  0.3344
 3037SOL    HW2 9432   3.506   3.079   2.942 -0.7399 -0.3020 -0.2723
 3038SOL     OW 9433   0.804   3.533   5.140 -0.2191 -0.1522 -0.1847
 3038SOL    HW1 9434   0.752   3.595   5.198  0.5837 -0.0716  0.4759
 3038SOL    HW2 9435   0.777   3.545   5.045 -1.9326 -0.6536  0.2043
 3039SOL     OW 9436   5.217   2.116   4.678  0.2222  0.1037 -0.2443
 3039SOL    HW1 9437   5.141   2.142   4.619  0.2772 -0.9012 -0.7814
 3039SOL    HW2 9438   5.303   2.133   4.631  0.2759 -0.3661 -0.3222
 3040SOL     OW 9439   3.848   0.708   0.047 -0.3009  0.2894  0.1529
 3040SOL    HW1 9440   3.880   0.783  -0.011  0.4578 -0.3017 -0.2217
 3040SOL    HW2 9441   3.876   0.621   0.006 -1.2628 -0.2069  0.5187
 3041SOL     OW 9442   1.973   3.444   4.941 -0.3093  0.0174  0.2860
 3041SOL    HW1 9443   1.942   3.357   4.904  0.8832 -0.1597 -0.3491
 3041SOL    HW2 9444   2.006   3.503   4.867  2.4628 -0.4773  0.9854
 3042SOL     OW 9445   4.730   2.550   4.108 -0.6957  0.1405  0.4990
 3042SOL    HW1 9446   4.695   2.635   4.067 -0.4402  1.0211  2.0344
 3042SOL    HW2 9447   4.824   2.564   4.138 -0.3526 -0.9820 -0.0028
 3043SOL     OW 9448   3.793   2.941   4.434  0.5542  0.7141  0.1386
 3043SOL    HW1 9449   3.779   3.040   4.447  1.1761  0.6270  1.6850
 3043SOL    HW2 9450   3.857   2.908   4.502  0.9147 -0.6475 -0.8390
 3044SOL     OW 9451   2.922   2.168   0.805 -0.3980  0.2758 -0.0300
 3044SOL    HW1 9452   2.839   2.121   0.775 -0.1420 -0.6467  0.6584
 3044SOL    HW2 9453   2.991   2.166   0.733 -1.2973  1.9716 -1.0236
 3045SOL     OW 9454   2.700   3.036   0.295 -0.3347 -0.2317  0.2543
 3045SOL    HW1 9455   2.633   3.009   0.225 -0.1521 -2.4247  0.8469
 3045SOL    HW2 9456   2.781   2.978   0.287  0.3615  0.5656  1.2818
 3046SOL     OW 9457   3.142   1.828   4.675 -0.1126  0.2730  0.2494
 3046SOL    HW1 9458   3.210   1.766   4.714  1.1004  2.2361  1.4436
 3046SOL    HW2 9459   3.094   1.782   4.600  1.7196 -1.5865  0.1250
 3047SOL     OW 9460   3.984   3.649   0.154  0.1278 -0.0051 -0.7321
 3047SOL    HW1 9461   3.976   3.560   0.108 -0.4426  0.1249 -0.8816
 3047SOL    HW2 9462   3.903   3.666   0.209  1.5854 -1.0364  1.9503
 3048SOL     OW 9463   1.011   3.945   0.110  0.1482 -0.3612 -0.3906
 3048SOL    HW1 9464   1.009   3.851   0.146  0.1673 -0.5512 -0.8789
 3048SOL    HW2 9465   0.921   3.969   0.074  0.4958 -0.7037 -1.5427
 3049SOL     OW 9466   4.459   1.411   4.776 -0.3572 -0.4228 -0.0647
 3049SOL    HW1 9467   4.546   1.362   4.778  1.2469  2.0265 -2.2046
 3049SOL    HW2 9468   4.398   1.369   4.708 -0.5984 -1.7306  0.9379
 3050SOL     OW 9469   3.692   0.787   5.185  0.3774 -0.2192 -0.1630
 3050SOL    HW1 9470   3.677   0.732   5.102  1.2321  0.1326 -0.5688
 3050SOL    HW2 9471   3.661   0.736   5.265 -0.8126 -0.4185 -0.7245
 3051SOL     OW 9472   5.365   4.431   1.434 -0.2441  0.2435  0.3630
 3051SOL    HW1 9473   5.368   4.407   1.337  0.5056 -1.3037  0.7385
 3051SOL    HW2 9474   5.321   4.357   1.485  0.7613  0.3337  1.3930
 3052SOL     OW 9475   3.952   2.439   0.928 -0.4277  0.2397 -0.0837
 3052SOL    HW1 9476   3.891   2.370   0.968  0.1207  0.3526  0.9774
 3052SOL    HW2 9477   3.914   2.530   0.943  0.1010  0.3258  0.7840
 3053SOL     OW 9478   2.953   4.259   3.224 -0.1705 -0.3259  0.0989
 3053SOL    HW1 9479   2.888   4.189   3.253  0.1210 -0.5958  0.1122
 3053SOL    HW2 9480   2.967   4.253   3.125 -0.2064 -0.2312  0.0877
 3054SOL     OW 9481   4.457   1.656   3.256 -0.7149  0.2323  0.3274
 3054SOL    HW1 9482   4.394   1.671   3.333  0.1896 -0.7888  1.2990
 3054SOL    HW2 9483   4.410   1.603   3.185 -1.2478  0.3277  0.5991
 3055SOL     OW 9484   3.811   0.961   5.022  0.1539 -0.3997 -0.2576
 3055SOL    HW1 9485   3.761   1.048   5.015  3.0826  1.6366  1.8052
 3055SOL    HW2 9486   3.751   0.892   5.063 -1.9032  0.9257 -0.8580
 3056SOL     OW 9487   3.661   4.008   0.901 -0.1349 -0.0112  0.5629
 3056SOL    HW1 9488   3.673   3.909   0.897  3.3241  0.2817  0.6077
 3056SOL    HW2 9489   3.696   4.049   0.816  0.2169  1.2716  1.3087
 3057SOL     OW 9490   2.084   3.550   5.380  0.0987  0.2613 -0.1637
 3057SOL    HW1 9491   2.045   3.559   5.472  0.0083  1.6709 -0.3205
 3057SOL    HW2 9492   2.148   3.472   5.378 -1.2896 -0.9454  0.5788
 3058SOL     OW 9493   2.450   2.542   4.711  0.0051 -0.5544 -0.3774
 3058SOL    HW1 9494   2.477   2.448   4.690 -0.7416 -1.1506  1.1433
 3058SOL    HW2 9495   2.406   2.544   4.801  0.2577  1.3063 -0.2600
 3059SOL     OW 9496   0.693   4.277   0.809 -0.3472 -0.3583 -0.2145
 3059SOL    HW1 9497   0.768   4.327   0.766  0.5541  0.1120  1.7921
 3059SOL    HW2 9498   0.655   4.211   0.744  0.8611  0.3887 -1.7244
 3060SOL     OW 9499   3.353   2.204   5.093 -0.5038 -0.1213  0.4018
 3060SOL    HW1 9500   3.375   2.250   5.179  0.5334 -1.8325  1.0962
 3060SOL    HW2 9501   3.358   2.270   5.018 -0.0164  1.0917  1.4638
 3061SOL     OW 9502   3.492   4.921   5.202  0.1379  0.1579 -0.3136
 3061SOL    HW1 9503   3.512   5.000   5.260  0.0302 -0.9805  1.3447
 3061SOL    HW2 9504   3.578   4.888   5.162  0.4599  0.0864  0.4009
 3062SOL     OW 9505   0.147   2.327   4.791 -0.3770  0.1062 -0.2392
 3062SOL    HW1 9506   0.091   2.409   4.802 -2.1494 -1.0576 -0.1731
 3062SOL    HW2 9507   0.107   2.252   4.845  1.4764 -0.6845  0.0999
 3063SOL     OW 9508   3.677   2.271   4.693 -0.0433  0.1553 -0.2757
 3063SOL    HW1 9509   3.699   2.289   4.597 -1.3100  2.5156 -0.1997
 3063SOL    HW2 9510   3.601   2.207   4.699 -1.5454  1.8166 -0.9765
 3064SOL     OW 9511   4.622   1.313   3.959  0.2335  0.2137 -0.1429
 3064SOL    HW1 9512   4.601   1.368   4.039 -1.0147 -1.4710  0.7536
 3064SOL    HW2 9513   4.660   1.225   3.988 -0.8699 -0.7039 -1.3369
 3065SOL     OW 9514   4.910   1.224   4.862 -0.6945  0.4432 -0.4710
 3065SOL    HW1 9515   4.903   1.271   4.774  1.0865  0.6670 -0.5270
 3065SOL    HW2 9516   4.964   1.279   4.926 -3.2805  1.0536  1.3691
 3066SOL     OW 9517   3.306   1.836   4.325 -0.2847  0.1694 -0.0051
 3066SOL    HW1 9518   3.384   1.827   4.388  0.9675 -0.7545 -1.6125
 3066SOL    HW2 9519   3.238   1.767   4.347  0.4667 -0.6171 -0.1078
 3067SOL     OW 9520   1.997   3.233   0.054 -0.0242 -0.1275 -0.0211
 3067SOL    HW1 9521   1.918   3.264   0.000 -0.5237 -0.1344  0.6933
 3067SOL    HW2 9522   2.071   3.300   0.045  0.2450 -0.5708 -1.4352
 3068SOL     OW 9523   3.489   2.068   4.689 -0.3102  0.2993 -0.6951
 3068SOL    HW1 9524   3.486   1.990   4.627 -2.4457  1.7273 -2.5518
 3068SOL    HW2 9525   3.404   2.120   4.681  0.6832  2.3673  1.0990
 3069SOL     OW 9526   2.214   1.622   4.176 -0.2897 -0.0692 -0.2941
 3069SOL    HW1 9527   2.302   1.577   4.188 -0.9697 -1.4253 -0.2118
 3069SOL    HW2 9528   2.216   1.712   4.220  1.1030 -0.0009 -0.4668
 3070SOL     OW 9529   2.395   2.046   0.677  0.1071 -1.0353 -0.2491
 3070SOL    HW1 9530   2.309   2.036   0.627 -0.1783 -1.4912  0.3234
 3070SOL    HW2 9531   2.376   2.077   0.770  0.6291 -0.2973 -0.3761
 3071SOL     OW 9532   2.509   3.289   4.597 -0.1883 -0.3107  0.0326
 3071SOL    HW1 9533   2.566   3.211   4.624 -0.1257 -0.9904 -1.8877
 3071SOL    HW2 9534   2.551   3.335   4.519  0.1018  2.0951  1.5026
 3072SOL     OW 9535   2.546   4.389   4.445 -0.2319 -0.0315 -0.0757
 3072SOL    HW1 9536   2.574   4.472   4.494  1.2905  0.9265 -2.4278
 3072SOL    HW2 9537   2.450   4.396   4.420 -0.4686  0.3949  0.8932
 3073SOL     OW 9538   1.436   4.742   0.152  0.5254 -0.8042 -0.3351
 3073SOL    HW1 9539   1.370   4.813   0.177  1.6029  0.0787  0.0738
 3073SOL    HW2 9540   1.443   4.675   0.226 -0.6196 -1.4645 -0.7929
 3074SOL     OW 9541   0.788   3.664   0.957  0.2383  0.6637  0.4093
 3074SOL    HW1 9542   0.782   3.661   1.057 -1.5615 -1.9613  0.3061
 3074SOL    HW2 9543   0.696   3.666   0.918  0.8402 -0.8999 -1.2161
 3075SOL     OW 9544   3.394   4.310   4.718  0.1840 -0.2000 -0.2726
 3075SOL    HW1 9545   3.377   4.334   4.814 -1.1153 -1.4117 -0.1797
 3075SOL    HW2 9546   3.366   4.386   4.659  0.3419  0.2708  0.2503
 3076SOL     OW 9547   2.089   1.105   0.599 -0.2331  0.2032  0.1309
 3076SOL    HW1 9548   2.147   1.158   0.661  0.5275 -0.5760  0.0978
 3076SOL    HW2 9549   2.037   1.168   0.541  0.3917  0.9219  0.3271
 3077SOL     OW 9550   4.005   0.139   5.515 -0.2327 -0.3701  0.0687
 3077SOL    HW1 9551   3.937   0.121   5.444  0.0608  1.1827 -0.6407
 3077SOL    HW2 9552   4.092   0.164   5.473  0.1071  0.0286  0.9822
 3078SOL     OW 9553   3.205   3.865   0.905 -0.0281 -0.2889 -0.4380
 3078SOL    HW1 9554   3.206   3.937   0.973  1.7991 -1.3102  0.6980
 3078SOL    HW2 9555   3.272   3.885   0.834 -0.7702 -0.0284 -1.0764
 3079SOL     OW 9556   3.749   5.065   4.858  0.1314 -0.1216 -0.1930
 3079SOL    HW1 9557   3.680   4.992   4.858  1.7035 -1.6901 -1.5920
 3079SOL    HW2 9558   3.815   5.047   4.932 -0.4616  0.9293  0.6212
 3080SOL     OW 9559   1.887   5.355   0.303  1.2721 -0.2771 -0.1955
 3080SOL    HW1 9560   1.851   5.416   0.233  0.7948 -0.2604  0.0629
 3080SOL    HW2 9561   1.884   5.261   0.271 -1.9280 -0.6868  0.9438
 3081SOL     OW 9562   2.452   0.682   0.683  0.2069  0.2999  0.7593
 3081SOL    HW1 9563   2.410   0.746   0.619  0.5455 -0.2983 -0.0745
 3081SOL    HW2 9564   2.542   0.654   0.648  0.1549 -0.4625  1.2123
 3082SOL     OW 9565   3.181   3.060   0.603  0.2979  0.1995 -0.3434
 3082SOL    HW1 9566   3.202   3.031   0.696 -0.9711  1.0262  0.2201
 3082SOL    HW2 9567   3.266   3.072   0.552  1.0129 -0.1443  0.7272
 3083SOL     OW 9568   1.283   4.916   1.287  0.0204 -0.0324 -0.2137
 3083SOL    HW1 9569   1.330   4.998   1.319 -0.4147 -0.3321  1.2783
 3083SOL    HW2 9570   1.347   4.839   1.288  0.3847  0.2367 -1.4572
 3084SOL     OW 9571   3.138   0.325   0.290  0.2799  0.1076 -0.0253
 3084SOL    HW1 9572   3.197   0.251   0.324  1.0490  0.4139 -0.6653
 3084SOL    HW2 9573   3.186   0.376   0.219 -0.8166  0.3002 -0.6397
 3085SOL     OW 9574   2.049   0.250   1.193 -0.2892 -0.4371 -0.4620
 3085SOL    HW1 9575   2.089   0.210   1.110 -1.0458 -2.3599  0.0587
 3085SOL    HW2 9576   2.087   0.205   1.274  0.3018  1.2978  0.2922
 3086SOL     OW 9577   2.720   5.248   3.136  0.8194 -0.3036 -0.1853
 3086SOL    HW1 9578   2.653   5.226   3.064  1.4168 -2.1381 -0.2271
 3086SOL    HW2 9579   2.761   5.163   3.170  0.9306  0.5612  1.9763
 3087SOL     OW 9580   4.038   2.734   0.793 -0.0430  0.0628  0.0932
 3087SOL    HW1 9581   4.070   2.826   0.818  1.7241 -0.5113  0.1176
 3087SOL    HW2 9582   4.115   2.681   0.756 -1.5958 -0.5617 -2.4656
 3088SOL     OW 9583   3.130   4.056   5.089 -0.0553  0.2313  0.1204
 3088SOL    HW1 9584   3.203   4.107   5.135  0.6340 -0.3638 -0.2947
 3088SOL    HW2 9585   3.060   4.119   5.057  0.3020  0.8187  0.4815
 3089SOL     OW 9586   1.924   4.780   1.345  0.8454 -0.6556  0.3539
 3089SOL    HW1 9587   2.022   4.801   1.342  0.6668  0.5879  2.0690
 3089SOL    HW2 9588   1.895   4.769   1.440 -1.3519  2.4837  0.1954
 3090SOL     OW 9589   1.420   3.576   2.445 -0.2274 -0.1866  0.3479
 3090SOL    HW1 9590   1.445   3.643   2.375  1.5421 -0.4906  0.6410
 3090SOL    HW2 9591   1.376   3.623   2.521  0.6287  0.6153  0.3742
 3091SOL     OW 9592   1.376   4.065   1.461  0.2674  0.0095  0.0853
 3091SOL    HW1 9593   1.333   4.154   1.476 -1.5966 -0.6660 -0.8671
 3091SOL    HW2 9594   1.305   3.994   1.457  1.5854 -1.3291 -0.5946
 3092SOL     OW 9595   1.984   5.534   1.752 -0.3541  0.0871 -0.5912
 3092SOL    HW1 9596   2.005   5.442   1.786  1.5323  0.2518 -1.2075
 3092SOL    HW2 9597   2.046   5.599   1.795 -2.2836  1.2698  0.5667
 3093SOL     OW 9598   2.845   4.825   5.032 -0.1608 -0.1870 -0.2541
 3093SOL    HW1 9599   2.762   4.785   5.072  0.4446 -0.5651  0.6450
 3093SOL    HW2 9600   2.822   4.912   4.988 -1.0064 -0.2182  0.1103
 3094SOL     OW 9601   3.252   3.639   0.044 -0.5789 -0.6520  0.2429
 3094SOL    HW1 9602   3.313   3.718   0.036 -0.7507 -0.6894 -2.5333
 3094SOL    HW2 9603   3.238   3.617   0.140  1.4377  1.1552  1.0304
 3095SOL     OW 9604   3.461   3.911   0.690 -0.1237 -0.1007 -0.2891
 3095SOL    HW1 9605   3.525   3.834   0.699  0.0874  0.0326 -0.6244
 3095SOL    HW2 9606   3.399   3.893   0.614 -0.8095 -0.4529  0.3347
 3096SOL     OW 9607   2.902   3.343   0.776  0.0938 -0.2521 -0.5124
 3096SOL    HW1 9608   2.938   3.299   0.694 -0.2183 -0.6673 -0.4269
 3096SOL    HW2 9609   2.866   3.433   0.752 -0.5756 -0.6312 -0.9481
 3097SOL     OW 9610   2.588   4.028   1.435 -0.9661 -0.2358 -0.5119
 3097SOL    HW1 9611   2.530   3.972   1.375 -1.5119  0.4732 -0.6653
 3097SOL    HW2 9612   2.665   4.065   1.382 -0.8021 -0.5534 -0.4948
 3098SOL     OW 9613   3.692   4.757   0.870 -0.2863  0.0131  0.4853
 3098SOL    HW1 9614   3.779   4.708   0.876  0.0395  0.2981 -1.2244
 3098SOL    HW2 9615   3.650   4.739   0.781 -1.8689  0.0825  1.1905
 3099SOL     OW 9616   2.365   4.712   1.894 -0.5319  0.0958 -0.6802
 3099SOL    HW1 9617   2.312   4.796   1.885  0.0565  1.0272  2.9326
 3099SOL    HW2 9618   2.304   4.633   1.883 -2.4035  1.1025  1.4762
 3100SOL     OW 9619   2.832   2.345   4.934  0.2523 -0.3418 -0.2032
 3100SOL    HW1 9620   2.931   2.346   4.943  0.2585 -1.4286  0.0452
 3100SOL    HW2 9621   2.807   2.295   4.851 -0.0414  2.3823 -1.8871
 3101SOL     OW 9622   3.449   4.659   1.903  0.2048  0.6246 -0.3848
 3101SOL    HW1 9623   3.512   4.619   1.970 -1.6863 -0.6423  0.7673
 3101SOL    HW2 9624   3.491   4.660   1.813  1.9226  0.0163  0.3736
 3102SOL     OW 9625   2.504   5.137   4.515  0.5863  0.3167  0.4582
 3102SOL    HW1 9626   2.543   5.218   4.471 -0.7123  1.1187  0.7227
 3102SOL    HW2 9627   2.410   5.125   4.486  0.8082 -1.2289  0.2905
 3103SOL     OW 9628   2.936   3.467   5.236  0.4465  0.6086 -0.3919
 3103SOL    HW1 9629   2.975   3.384   5.276  0.0007  0.2539 -0.6828
 3103SOL    HW2 9630   2.877   3.512   5.302 -0.1232  0.1371 -0.5691
 3104SOL     OW 9631   2.596   0.057   5.032 -0.9379 -0.1858 -0.4427
 3104SOL    HW1 9632   2.590   0.081   5.129  0.9232 -0.4984 -0.2019
 3104SOL    HW2 9633   2.692   0.048   5.006 -1.3602  0.5918 -2.5111
 3105SOL     OW 9634   1.672   0.280   2.377 -0.4829  0.4491  0.0185
 3105SOL    HW1 9635   1.692   0.214   2.305  2.1069  1.5345 -0.3838
 3105SOL    HW2 9636   1.638   0.364   2.335 -0.7290  0.4519  0.2269
 3106SOL     OW 9637   0.709   3.231   0.106 -0.1722 -0.3613 -0.3621
 3106SOL    HW1 9638   0.782   3.235   0.174  0.0725 -0.4838 -0.6159
 3106SOL    HW2 9639   0.738   3.176   0.028  0.3142  1.3675 -1.4652
 3107SOL     OW 9640   0.728   1.334   0.412 -0.1859 -0.3079 -0.2117
 3107SOL    HW1 9641   0.704   1.288   0.497 -1.7237  2.7564  1.1630
 3107SOL    HW2 9642   0.825   1.360   0.414 -0.4795  0.7456  1.1498
 3108SOL     OW 9643   3.084   1.274   1.728 -0.0281 -0.1703 -0.3939
 3108SOL    HW1 9644   3.141   1.356   1.723  0.2961 -0.4518 -1.5116
 3108SOL    HW2 9645   3.014   1.286   1.799  1.8097 -0.0784  1.5086
 3109SOL     OW 9646   3.334   2.889   0.169  0.0549 -0.5600  0.6165
 3109SOL    HW1 9647   3.284   2.903   0.084  1.8552  1.5398 -0.1638
 3109SOL    HW2 9648   3.392   2.807   0.161 -0.3876 -0.8309  0.1401
 3110SOL     OW 9649   2.842   3.276   0.316 -0.0030 -0.2267  0.5630
 3110SOL    HW1 9650   2.828   3.326   0.231 -1.6198  2.3070  2.2110
 3110SOL    HW2 9651   2.808   3.182   0.305  2.0512 -0.7825 -2.2408
 3111SOL     OW 9652   4.903   0.335   0.039  0.2599  0.1192  0.2659
 3111SOL    HW1 9653   4.932   0.416   0.091  1.9381  0.1708 -0.6671
 3111SOL    HW2 9654   4.872   0.264   0.103 -0.2508  1.1169  1.1601
 3112SOL     OW 9655   2.369   4.125   0.926  0.0970  0.2130  0.0210
 3112SOL    HW1 9656   2.327   4.216   0.919  2.2119  1.2462  0.0396
 3112SOL    HW2 9657   2.421   4.120   1.011 -1.4312 -1.7000  0.9050
 3113SOL     OW 9658   3.789   3.275   2.197 -0.4087  0.0495 -0.3525
 3113SOL    HW1 9659   3.720   3.326   2.248 -0.7919  1.0613 -1.8236
 3113SOL    HW2 9660   3.747   3.235   2.115  0.6829  0.4416 -1.1206
 3114SOL     OW 9661   1.870   4.590   1.101 -0.2554  0.0889  0.2520
 3114SOL    HW1 9662   1.778   4.608   1.067  0.4733  2.0744 -0.7625
 3114SOL    HW2 9663   1.879   4.629   1.193  0.1516  1.6757 -0.4363
 3115SOL     OW 9664   1.808   3.871   3.109 -0.1328  0.1394  0.0835
 3115SOL    HW1 9665   1.784   3.931   3.186 -0.4714 -0.7999  0.7335
 3115SOL    HW2 9666   1.847   3.925   3.035 -0.0312  1.1023  0.8245
 3116SOL     OW 9667   1.621   4.135   4.740  0.2818 -0.1438  0.1062
 3116SOL    HW1 9668   1.617   4.172   4.833  0.8716 -0.2372  0.1728
 3116SOL    HW2 9669   1.716   4.138   4.707  0.6321 -2.8021  0.6258
 3117SOL     OW 9670   1.921   5.238   1.470  0.2991  0.0417 -0.3365
 3117SOL    HW1 9671   1.828   5.272   1.452  0.1698 -0.3150 -0.3355
 3117SOL    HW2 9672   1.984   5.316   1.473  0.2815  0.1607 -2.0493
 3118SOL     OW 9673   3.348   5.108   0.345  1.1487 -0.2793 -0.2807
 3118SOL    HW1 9674   3.351   5.196   0.392  0.0405 -0.4747  0.1823
 3118SOL    HW2 9675   3.310   5.120   0.254  0.8004 -0.3119 -0.1394
 3119SOL     OW 9676   2.249   5.187   4.501  1.0547  0.1837 -0.2548
 3119SOL    HW1 9677   2.233   5.282   4.528  0.3083  0.1407 -0.5244
 3119SOL    HW2 9678   2.190   5.126   4.554  1.5306 -0.1344 -0.0816
 3120SOL     OW 9679   3.426   3.719   1.914  0.3638  0.0839  0.3091
 3120SOL    HW1 9680   3.497   3.677   1.858 -0.9104 -0.2638 -1.1059
 3120SOL    HW2 9681   3.417   3.668   2.000  1.7285  0.0706  0.4607
 3121SOL     OW 9682   3.622   1.564   1.289  0.3813 -0.6425 -0.0410
 3121SOL    HW1 9683   3.609   1.493   1.358 -0.5281 -0.4298  0.0171
 3121SOL    HW2 9684   3.713   1.555   1.249  0.1413 -2.0797 -0.3082
 3122SOL     OW 9685   2.242   3.904   0.579 -0.4498  0.2100  0.1135
 3122SOL    HW1 9686   2.237   3.923   0.677  0.4042  0.5799  0.0936
 3122SOL    HW2 9687   2.206   3.982   0.528  0.6304  0.7122  0.0990
 3123SOL     OW 9688   1.475   5.172   1.034 -0.3269 -0.0476 -0.3196
 3123SOL    HW1 9689   1.479   5.242   1.106 -0.6826 -1.0301  0.6828
 3123SOL    HW2 9690   1.384   5.130   1.034 -0.3389 -0.0322 -1.3811
 3124SOL     OW 9691   2.624   5.190   4.741  0.0432  0.2500  0.0176
 3124SOL    HW1 9692   2.569   5.156   4.666 -0.5250  0.4090  0.3597
 3124SOL    HW2 9693   2.607   5.288   4.754 -0.7645 -0.0185  1.1147
 3125SOL     OW 9694   2.850   4.807   1.709 -0.4471 -0.4272 -0.3777
 3125SOL    HW1 9695   2.872   4.786   1.614 -0.3412  2.6815 -1.1171
 3125SOL    HW2 9696   2.750   4.809   1.720 -0.4597 -0.9587 -0.3515
 3126SOL     OW 9697   2.389   5.149   1.486  0.3986 -0.3779  0.0556
 3126SOL    HW1 9698   2.448   5.099   1.549 -1.2564 -0.1358  1.9237
 3126SOL    HW2 9699   2.372   5.241   1.522 -0.9716 -0.3902 -0.4784
 3127SOL     OW 9700   2.346   4.586   5.165 -0.6328  0.0580  0.1208
 3127SOL    HW1 9701   2.273   4.653   5.150  0.2486  1.1303  0.4846
 3127SOL    HW2 9702   2.419   4.602   5.100 -0.5297 -0.7313  0.0431
 3128SOL     OW 9703   3.191   0.097   5.291  0.3183  0.3115 -0.6605
 3128SOL    HW1 9704   3.098   0.085   5.327  0.7328 -2.4770 -0.2386
 3128SOL    HW2 9705   3.201   0.041   5.208  1.0853  2.1303 -1.8422
 3129SOL     OW 9706   2.148   0.164   1.874 -0.0713 -0.2672 -0.2898
 3129SOL    HW1 9707   2.128   0.158   1.972 -1.4938 -1.7572 -0.6290
 3129SOL    HW2 9708   2.196   0.250   1.855 -0.9825  0.7007  1.5168
 3130SOL     OW 9709   2.821   4.994   4.759 -0.2686  0.4100  0.2417
 3130SOL    HW1 9710   2.747   5.061   4.755  1.5862  2.6588  1.0381
 3130SOL    HW2 9711   2.878   5.001   4.677  0.1133  0.0224  0.4658
 3131SOL     OW 9712   1.016   0.035   1.190 -0.2963 -0.1156 -0.0980
 3131SOL    HW1 9713   1.006  -0.064   1.200  0.5321 -0.0968  1.1169
 3131SOL    HW2 9714   1.046   0.074   1.276 -1.3826  1.3174 -0.3328
 3132SOL     OW 9715   4.906   0.552   5.024 -0.8218  0.3166 -0.1096
 3132SOL    HW1 9716   4.815   0.595   5.024 -0.4393  1.1740 -0.9359
 3132SOL    HW2 9717   4.976   0.624   5.023 -0.1403 -0.3389 -0.0529
 3133SOL     OW 9718   2.732   0.666   5.276  0.0279  0.0944  0.1645
 3133SOL    HW1 9719   2.706   0.725   5.352 -1.3952 -1.5141  0.9824
 3133SOL    HW2 9720   2.777   0.721   5.205 -0.0475  1.8963  1.4499
 3134SOL     OW 9721   4.559   3.667   0.549 -0.5160 -0.8070  0.0082
 3134SOL    HW1 9722   4.640   3.625   0.507 -0.8878 -1.1869 -0.3305
 3134SOL    HW2 9723   4.527   3.610   0.624  0.3576  0.0458  1.0713
 3135SOL     OW 9724   2.578   0.132   5.287 -0.0819  0.3861  0.2468
 3135SOL    HW1 9725   2.632   0.215   5.301 -0.2325  0.6136 -0.4445
 3135SOL    HW2 9726   2.487   0.144   5.328  1.1444 -0.9419  3.6517
 3136SOL     OW 9727   2.947   0.224   3.171 -0.1217  0.4449  0.1334
 3136SOL    HW1 9728   2.896   0.264   3.247 -1.0426 -0.4879  0.0282
 3136SOL    HW2 9729   3.041   0.259   3.172 -0.3796  1.1647  1.1256
 3137SOL     OW 9730   1.841   5.203   0.013 -0.4408 -0.4164  0.1350
 3137SOL    HW1 9731   1.791   5.133   0.064  1.2305 -1.3974  0.4880
 3137SOL    HW2 9732   1.804   5.293   0.035 -1.3526 -1.0302  1.1903
 3138SOL     OW 9733   5.314   3.294   1.446 -0.2929  0.4250 -0.2621
 3138SOL    HW1 9734   5.344   3.363   1.380  1.1312  1.7100  1.5975
 3138SOL    HW2 9735   5.384   3.223   1.454 -0.7088 -0.0182 -0.5149
 3139SOL     OW 9736   1.225   4.756   1.808 -0.0744  0.1367 -0.2854
 3139SOL    HW1 9737   1.154   4.827   1.810 -0.1194  0.0909 -0.2546
 3139SOL    HW2 9738   1.309   4.794   1.769 -0.3734 -0.0346 -1.1204
 3140SOL     OW 9739   2.456   3.831   0.406 -0.3439  0.4726  0.8054
 3140SOL    HW1 9740   2.500   3.914   0.371 -1.4052  0.3204 -1.0030
 3140SOL    HW2 9741   2.395   3.855   0.481 -1.8936  1.6499 -0.7506
 3141SOL     OW 9742   2.908   5.027   0.397 -0.3448 -0.4083 -0.8589
 3141SOL    HW1 9743   2.837   4.959   0.378  1.6823 -2.7033 -0.7027
 3141SOL    HW2 9744   2.895   5.064   0.489 -0.5226 -1.9036 -0.2540
 3142SOL     OW 9745   2.509   4.888   0.565 -0.4109 -0.4926 -0.6649
 3142SOL    HW1 9746   2.529   4.933   0.652 -2.6923 -0.2703 -0.1754
 3142SOL    HW2 9747   2.585   4.830   0.539  1.1719  0.9881  0.4511
 3143SOL     OW 9748   2.842   4.826   2.386 -0.0312 -0.3236  0.1117
 3143SOL    HW1 9749   2.859   4.776   2.472 -1.2019 -2.9239 -1.0546
 3143SOL    HW2 9750   2.913   4.802   2.319  0.4566  1.1181  0.0805
 3144SOL     OW 9751   3.097   2.827   4.570 -1.0892 -0.0811  0.3817
 3144SOL    HW1 9752   3.129   2.787   4.656  0.7107 -0.1714 -0.2752
 3144SOL    HW2 9753   3.149   2.788   4.494 -1.1506  1.5268 -0.5398
 3145SOL     OW 9754   3.249   3.189   5.091  0.1807  0.4961  0.3149
 3145SOL    HW1 9755   3.262   3.129   5.170  0.6466  0.5519  0.2829
 3145SOL    HW2 9756   3.291   3.148   5.010 -1.0408  0.0313 -0.1054
 3146SOL     OW 9757   2.904   4.418   1.028  0.3080  0.5037  0.6424
 3146SOL    HW1 9758   2.995   4.411   0.988  0.7132 -1.5672  1.7709
 3146SOL    HW2 9759   2.835   4.418   0.956  1.1126 -0.2302 -0.1478
 3147SOL     OW 9760   1.116   2.403   1.364  0.7699  0.4096 -0.3072
 3147SOL    HW1 9761   1.149   2.308   1.362 -1.7328 -0.5354 -1.1667
 3147SOL    HW2 9762   1.157   2.450   1.442  1.2247 -1.7212  0.8461
 3148SOL     OW 9763   4.339   3.938   0.081 -0.6256 -0.6302  0.2804
 3148SOL    HW1 9764   4.267   4.006   0.066 -1.3008 -1.4948 -0.4335
 3148SOL    HW2 9765   4.343   3.914   0.178  0.9319  1.8469  0.9303
 3149SOL     OW 9766   2.523   4.359   2.224  0.5952  0.4286 -0.2572
 3149SOL    HW1 9767   2.507   4.284   2.160 -0.3028  0.3285  0.0668
 3149SOL    HW2 9768   2.469   4.439   2.197 -0.3519  0.1573  0.7357
 3150SOL     OW 9769   3.206   0.472   1.499  0.0274 -0.0538 -0.3054
 3150SOL    HW1 9770   3.239   0.404   1.433 -0.4485 -0.8459  0.2483
 3150SOL    HW2 9771   3.263   0.469   1.581  0.1750  0.4190 -0.3896
 3151SOL     OW 9772   0.836   4.911   1.264 -0.0009 -0.0178  0.7691
 3151SOL    HW1 9773   0.855   4.909   1.362  0.6198  1.4222  0.7093
 3151SOL    HW2 9774   0.767   4.980   1.244 -0.2213 -0.3924  0.2014
 3152SOL     OW 9775   2.095   1.200   3.409  0.2492  0.1411  0.1196
 3152SOL    HW1 9776   2.059   1.293   3.395  2.6834  1.2434  0.6398
 3152SOL    HW2 9777   2.035   1.134   3.365 -0.1221  2.1870 -2.6996
 3153SOL     OW 9778   4.055   5.258   4.499  0.1535  0.5274  0.0987
 3153SOL    HW1 9779   3.963   5.257   4.539  0.2400  0.8491  0.3080
 3153SOL    HW2 9780   4.071   5.172   4.450  0.5004 -0.4013  1.7598
 3154SOL     OW 9781   0.791   4.158   1.033 -0.5402 -0.3805 -0.5053
 3154SOL    HW1 9782   0.745   4.202   0.956 -1.2139 -1.1673 -0.5735
 3154SOL    HW2 9783   0.890   4.164   1.021 -0.5879  1.4984 -0.2792
 3155SOL     OW 9784   1.723   4.232   0.495  0.3327 -0.5716  0.1809
 3155SOL    HW1 9785   1.807   4.222   0.442  0.1568  0.9707 -0.4395
 3155SOL    HW2 9786   1.644   4.216   0.435  0.1595 -0.3306  0.3447
 3156SOL     OW 9787   3.041   2.432   0.445  0.2705  0.1481  0.0599
 3156SOL    HW1 9788   2.944   2.413   0.459  0.8098 -1.6901  1.7457
 3156SOL    HW2 9789   3.064   2.420   0.348 -1.1107  0.3020 -0.3057
 3157SOL     OW 9790   0.103   3.569   5.347 -0.3825 -0.2515  0.2795
 3157SOL    HW1 9791   0.113   3.612   5.257  1.4722  0.2647  0.6810
 3157SOL    HW2 9792   0.186   3.517   5.368  0.5499  2.0049  2.8694
 3158SOL     OW 9793   3.161   1.177   5.478 -0.3983  0.2341 -0.0087
 3158SOL    HW1 9794   3.145   1.233   5.560 -0.7638 -1.2467  0.9728
 3158SOL    HW2 9795   3.078   1.127   5.456  0.1207 -0.4242 -0.4686
 3159SOL     OW 9796   2.477   3.312   0.593  0.4134 -0.0830 -0.2822
 3159SOL    HW1 9797   2.479   3.289   0.690 -0.3933 -1.4173 -0.5573
 3159SOL    HW2 9798   2.558   3.274   0.548 -0.2677 -1.3219 -0.4981
 3160SOL     OW 9799   1.911   4.195   4.731 -0.0100  0.0789 -0.4215
 3160SOL    HW1 9800   1.941   4.151   4.816 -0.7973 -0.1597 -0.2598
 3160SOL    HW2 9801   1.945   4.142   4.653  0.7661  0.3300 -0.2657
 3161SOL     OW 9802   3.822   0.041   5.321 -0.2109 -0.3465  0.0575
 3161SOL    HW1 9803   3.731   0.042   5.363  0.5757 -2.2362  1.9989
 3161SOL    HW2 9804   3.814   0.057   5.223 -2.2195  3.8880  0.6622
 3162SOL     OW 9805   3.167   4.897   0.408 -0.0577  0.5994  0.4472
 3162SOL    HW1 9806   3.070   4.915   0.390  0.0963  0.1573 -0.9637
 3162SOL    HW2 9807   3.223   4.948   0.343  0.6571  0.7513  1.1749
 3163SOL     OW 9808   2.713   0.826   1.342 -0.1499  0.2860 -0.1727
 3163SOL    HW1 9809   2.620   0.838   1.377 -0.1730  1.6055 -0.6370
 3163SOL    HW2 9810   2.710   0.782   1.253 -0.2990 -0.1003  0.0220
 3164SOL     OW 9811   1.630   3.591   4.545 -0.3229 -0.0822 -0.3064
 3164SOL    HW1 9812   1.599   3.609   4.452 -2.5554  1.6035  0.6657
 3164SOL    HW2 9813   1.707   3.652   4.567  0.9374 -1.2542 -1.3571
 3165SOL     OW 9814   4.781   4.054   1.208  0.1517 -0.7728 -0.3055
 3165SOL    HW1 9815   4.741   3.981   1.152 -0.7776  0.6039 -1.5204
 3165SOL    HW2 9816   4.867   4.084   1.167  0.0136 -0.5007 -0.4005
 3166SOL     OW 9817   2.475   0.290   1.989 -0.4592  0.6164 -0.2319
 3166SOL    HW1 9818   2.541   0.267   1.917 -0.1610  1.8374 -0.3674
 3166SOL    HW2 9819   2.487   0.228   2.066  1.2448  1.1469 -0.0296
 3167SOL     OW 9820   4.817   4.641   2.734 -0.2244 -0.1923  0.1331
 3167SOL    HW1 9821   4.903   4.674   2.697  0.2483 -0.7646  0.6974
 3167SOL    HW2 9822   4.763   4.599   2.661  0.6562 -1.2280  0.0607
 3168SOL     OW 9823   2.759   5.314   0.961  0.2393  0.4051 -0.2303
 3168SOL    HW1 9824   2.737   5.225   1.001  3.0794 -0.2688  0.0563
 3168SOL    HW2 9825   2.754   5.385   1.032 -1.6865  0.4716 -0.3844
 3169SOL     OW 9826   4.128   5.447   0.541 -0.2513  0.0768 -0.1396
 3169SOL    HW1 9827   4.160   5.540   0.560  1.5805 -0.4162 -0.5635
 3169SOL    HW2 9828   4.030   5.442   0.556 -0.1179  1.6132  1.6757
 3170SOL     OW 9829   1.391   4.567   0.762 -0.4806 -0.5884 -0.4067
 3170SOL    HW1 9830   1.368   4.625   0.684 -1.3984 -2.0822 -1.3001
 3170SOL    HW2 9831   1.486   4.535   0.752 -0.0906  0.4158 -0.0950
 3171SOL     OW 9832   2.235   4.438   4.757 -0.2759  0.0227  0.1127
 3171SOL    HW1 9833   2.332   4.422   4.777 -0.6392 -1.9851  0.4574
 3171SOL    HW2 9834   2.182   4.430   4.841 -0.9224 -0.6400 -0.3412
 3172SOL     OW 9835   2.389   0.271   2.650  0.0309  0.1438 -0.4898
 3172SOL    HW1 9836   2.391   0.265   2.551 -2.6962  0.1755 -0.6245
 3172SOL    HW2 9837   2.422   0.185   2.690  0.8286  0.0137 -1.4026
 3173SOL     OW 9838   4.412   2.180   1.333 -0.1899  0.3414 -0.1637
 3173SOL    HW1 9839   4.355   2.149   1.256 -0.6774 -0.0196  0.3321
 3173SOL    HW2 9840   4.481   2.111   1.353 -1.7880 -0.8914  1.4674
 3174SOL     OW 9841   2.029   4.325   1.081 -0.9345 -0.4927 -0.4945
 3174SOL    HW1 9842   1.968   4.400   1.056 -0.5319 -0.2176 -0.6475
 3174SOL    HW2 9843   2.066   4.341   1.172  0.8209  0.5839 -1.3528
 3175SOL     OW 9844   3.157   2.859   1.048  0.5550  0.3547 -0.6860
 3175SOL    HW1 9845   3.122   2.775   1.008  0.7883 -0.2180  0.2829
 3175SOL    HW2 9846   3.204   2.838   1.134  0.5204  1.4796 -0.3758
 3176SOL     OW 9847   3.826   3.028   1.211 -0.4805  0.3368 -0.4359
 3176SOL    HW1 9848   3.786   3.056   1.298 -1.6958  1.2276 -1.2572
 3176SOL    HW2 9849   3.762   2.969   1.162  0.4827 -0.7418 -0.4373
 3177SOL     OW 9850   4.795   2.035   0.311 -0.0850  0.0082 -0.6292
 3177SOL    HW1 9851   4.830   1.941   0.314 -1.5164 -0.6666 -2.7321
 3177SOL    HW2 9852   4.743   2.048   0.227 -1.9535  1.9848  0.7439
 3178SOL     OW 9853   2.532   4.675   0.285 -0.0998  0.0210  0.6254
 3178SOL    HW1 9854   2.505   4.764   0.250  0.9357 -0.0919 -0.5279
 3178SOL    HW2 9855   2.500   4.665   0.379 -1.3213  1.0914  0.3535
 3179SOL     OW 9856   4.851   0.393   5.327 -0.0031 -0.1580 -0.0222
 3179SOL    HW1 9857   4.861   0.349   5.416 -0.6825  1.2654  0.8009
 3179SOL    HW2 9858   4.921   0.464   5.316  0.2471 -0.5063 -0.7435
 3180SOL     OW 9859   2.338   1.879   2.402 -0.1849  0.3376  0.1837
 3180SOL    HW1 9860   2.254   1.918   2.363 -0.6933 -0.7328  0.1710
 3180SOL    HW2 9861   2.414   1.894   2.339 -1.0168 -1.4987 -1.3635
 3181SOL     OW 9862   1.787   4.741   2.926 -0.7860 -0.1021  0.3734
 3181SOL    HW1 9863   1.819   4.832   2.950 -0.3032 -0.0428 -0.4366
 3181SOL    HW2 9864   1.866   4.682   2.908 -1.1001 -0.5521  0.4401
 3182SOL     OW 9865   3.881   4.661   2.149 -0.1922  0.2610  0.2426
 3182SOL    HW1 9866   3.890   4.593   2.221 -0.2775  0.1591  0.1578
 3182SOL    HW2 9867   3.969   4.706   2.133 -0.3926  0.9763  1.0804
 3183SOL     OW 9868   2.089   3.542   2.606 -0.2663  0.2073  0.4203
 3183SOL    HW1 9869   2.065   3.470   2.541  2.3904  0.6022 -1.1422
 3183SOL    HW2 9870   2.046   3.523   2.694  0.6513 -3.5666  0.2430
 3184SOL     OW 9871   1.204   5.079   0.978  0.0815 -0.2982  0.7324
 3184SOL    HW1 9872   1.195   4.980   0.969  0.1447 -0.2088 -0.4786
 3184SOL    HW2 9873   1.173   5.107   1.069 -0.3900 -1.3727  0.9204
 3185SOL     OW 9874   2.257   4.357   5.261  0.1524 -0.1578 -0.0453
 3185SOL    HW1 9875   2.299   4.447   5.249 -0.2752  0.1486  0.6616
 3185SOL    HW2 9876   2.279   4.299   5.183 -0.2471  0.8267 -0.9118
 3186SOL     OW 9877   2.376   2.891   0.250  0.0888 -0.2288 -0.1480
 3186SOL    HW1 9878   2.310   2.818   0.266  0.1457 -0.3827 -0.5937
 3186SOL    HW2 9879   2.375   2.955   0.327 -1.0721  0.1496 -0.4634
 3187SOL     OW 9880   2.819   4.794   0.816  0.0843  0.7526 -0.2340
 3187SOL    HW1 9881   2.863   4.779   0.728  0.2126  2.0860 -0.4199
 3187SOL    HW2 9882   2.889   4.797   0.888 -0.0811 -1.0846  0.0519
 3188SOL     OW 9883   2.494   4.172   0.644  0.0357  0.5233 -0.5591
 3188SOL    HW1 9884   2.588   4.144   0.664  0.1490  0.2725 -1.3898
 3188SOL    HW2 9885   2.438   4.162   0.726  0.7218  0.6332 -0.0663
 3189SOL     OW 9886   2.789   3.155   5.399 -0.1540 -0.5166 -0.0286
 3189SOL    HW1 9887   2.705   3.197   5.364 -0.0237 -0.4698 -0.2862
 3189SOL    HW2 9888   2.861   3.162   5.331  0.4112  0.5184  0.6508
 3190SOL     OW 9889   2.876   4.970   0.051 -0.1745 -0.4162 -0.2034
 3190SOL    HW1 9890   2.796   5.016   0.088 -0.2381  0.6849 -1.6191
 3190SOL    HW2 9891   2.948   5.038   0.034  0.4087 -1.1212 -0.5941
 3191SOL     OW 9892   2.031   4.964   0.452  0.7738  0.7050 -0.2132
 3191SOL    HW1 9893   2.129   4.977   0.468  0.7408  1.1524 -0.3435
 3191SOL    HW2 9894   2.014   4.963   0.353  0.9671 -1.9079 -0.2911
 3192SOL     OW 9895   3.396   2.292   0.228 -0.2326 -0.1694 -0.3425
 3192SOL    HW1 9896   3.402   2.359   0.302 -2.1742 -0.6929  0.3493
 3192SOL    HW2 9897   3.482   2.241   0.222 -0.1382 -0.3453  1.7773
 3193SOL     OW 9898   3.732   1.094   4.679  0.1889 -0.3992  0.3578
 3193SOL    HW1 9899   3.766   1.152   4.605 -1.0721  0.2455  0.2501
 3193SOL    HW2 9900   3.798   1.022   4.698  0.7530 -0.2840 -1.0635
 3194SOL     OW 9901   2.353   4.939   0.881 -0.1329  0.6575 -0.2600
 3194SOL    HW1 9902   2.359   4.926   0.980  0.5082  1.5469 -0.1706
 3194SOL    HW2 9903   2.333   4.851   0.837 -0.3619  0.2455  0.6467
 3195SOL     OW 9904   4.098   4.084   1.857  0.2532  0.5155  0.3291
 3195SOL    HW1 9905   4.115   4.088   1.759  0.4536 -3.2614  0.0514
 3195SOL    HW2 9906   4.184   4.068   1.906 -0.0939  0.1890  0.8577
 3196SOL     OW 9907   1.133   5.487   0.856  0.2042 -0.0069 -0.2351
 3196SOL    HW1 9908   1.195   5.514   0.782 -1.4116  0.8896 -1.3288
 3196SOL    HW2 9909   1.123   5.563   0.920 -0.3088  0.1330 -0.4716
 3197SOL     OW 9910   4.843   5.247   4.340 -0.4669  0.3690  0.0335
 3197SOL    HW1 9911   4.744   5.254   4.333 -0.4296  0.7051 -0.1900
 3197SOL    HW2 9912   4.869   5.243   4.437 -0.7495 -0.6016  0.0824
 3198SOL     OW 9913   3.291   1.953   5.089 -0.5417 -0.5202 -0.1301
 3198SOL    HW1 9914   3.349   1.906   5.155  0.2184 -1.6085 -1.5119
 3198SOL    HW2 9915   3.322   2.048   5.080  1.1642 -1.1232 -0.9471
 3199SOL     OW 9916   3.067   5.416   4.294 -0.2118 -0.1493  0.1274
 3199SOL    HW1 9917   3.131   5.363   4.350  0.0010 -1.3205 -1.1495
 3199SOL    HW2 9918   3.114   5.494   4.254  0.0819 -0.2658  0.2460
 3200SOL     OW 9919   3.081   3.256   0.979 -0.2722  0.8060 -0.0053
 3200SOL    HW1 9920   3.135   3.186   0.934  0.7921  1.7546 -0.2639
 3200SOL    HW2 9921   3.009   3.288   0.917 -0.7463 -0.0210  0.1071
 3201SOL     OW 9922   0.858   3.160   2.078 -0.5042 -0.2535  0.1028
 3201SOL    HW1 9923   0.952   3.145   2.048 -0.9046 -1.0689 -0.7937
 3201SOL    HW2 9924   0.858   3.196   2.171  0.6780 -0.8883  0.3662
 3202SOL     OW 9925   2.769   4.367   0.798 -0.3715  0.3535 -0.3205
 3202SOL    HW1 9926   2.864   4.336   0.791 -0.6775 -0.4321 -1.2720
 3202SOL    HW2 9927   2.710   4.303   0.749 -1.2975  1.2836 -0.4468
 3203SOL     OW 9928   3.146   3.294   0.177  0.3027 -0.0710 -0.2921
 3203SOL    HW1 9929   3.060   3.311   0.129  0.4585 -0.8546 -0.8549
 3203SOL    HW2 9930   3.175   3.379   0.222 -0.5168  0.3267 -0.4797
 3204SOL     OW 9931   1.984   5.366   5.091 -0.4753  0.1924 -0.2881
 3204SOL    HW1 9932   1.979   5.460   5.055 -1.2727 -0.2545 -1.4045
 3204SOL    HW2 9933   2.079   5.342   5.108 -0.1367  0.7334 -1.3071
 3205SOL     OW 9934   3.578   3.671   0.754 -0.5191 -0.2923 -0.3821
 3205SOL    HW1 9935   3.530   3.590   0.722  1.8589 -1.3981 -1.4196
 3205SOL    HW2 9936   3.646   3.645   0.822  0.7181  0.7116 -1.1754
 3206SOL     OW 9937   1.495   1.129   0.234 -0.1540 -0.2828 -0.1650
 3206SOL    HW1 9938   1.464   1.034   0.238  0.5871 -0.4918  1.3729
 3206SOL    HW2 9939   1.458   1.180   0.311  0.5718  0.3081 -0.1905
 3207SOL     OW 9940   3.018   5.512   1.973 -0.1539 -0.1646  0.1987
 3207SOL    HW1 9941   3.050   5.469   1.888 -0.9040  0.1939 -0.2735
 3207SOL    HW2 9942   3.098   5.536   2.029  0.3047 -1.4866  0.1526
 3208SOL     OW 9943   1.457   4.417   1.411 -0.1261 -0.2751 -0.2204
 3208SOL    HW1 9944   1.377   4.412   1.352 -0.6562 -0.7746  0.5126
 3208SOL    HW2 9945   1.530   4.359   1.375 -1.0519 -1.9532  0.4903
 3209SOL     OW 9946   2.651   5.301   1.618 -0.5441 -0.0335 -0.2542
 3209SOL    HW1 9947   2.706   5.304   1.535  2.5594  2.0323  1.6311
 3209SOL    HW2 9948   2.640   5.206   1.648  3.7008 -0.5701  0.1413
 3210SOL     OW 9949   3.089   4.416   2.218 -0.3667  0.8333 -0.8664
 3210SOL    HW1 9950   3.096   4.468   2.303  1.7704  0.8733 -1.0197
 3210SOL    HW2 9951   3.142   4.462   2.146  3.6067 -2.5371 -0.4286
 3211SOL     OW 9952   3.260   4.224   4.475  0.8780  0.4529  0.0033
 3211SOL    HW1 9953   3.326   4.187   4.409 -1.9783  0.1874 -2.9706
 3211SOL    HW2 9954   3.254   4.323   4.463  0.6259  0.4575  0.1673
 3212SOL     OW 9955   3.183   3.755   1.763  0.4796 -0.6177  0.3151
 3212SOL    HW1 9956   3.272   3.758   1.808  0.1990  1.4328  0.8463
 3212SOL    HW2 9957   3.112   3.744   1.832  0.2634 -1.4264 -0.0303
 3213SOL     OW 9958   2.394   5.438   1.560 -0.7127 -0.2772  0.1847
 3213SOL    HW1 9959   2.378   5.536   1.567  1.0177  0.0618  0.0322
 3213SOL    HW2 9960   2.493   5.420   1.567 -0.6920 -1.7412 -2.4407
 3214SOL     OW 9961   3.518   0.422   2.903 -0.3672 -1.0386  0.4646
 3214SOL    HW1 9962   3.465   0.490   2.954  0.7918 -0.5879  1.1290
 3214SOL    HW2 9963   3.612   0.421   2.939  0.6440 -0.3581 -1.9861
 3215SOL     OW 9964   2.632   4.996   0.788  0.0602 -0.2441 -0.1570
 3215SOL    HW1 9965   2.689   4.914   0.796 -1.1898 -1.2452 -0.9543
 3215SOL    HW2 9966   2.568   5.000   0.865 -0.3052 -0.3757 -0.4501
 3216SOL     OW 9967   2.513   4.354   4.771 -0.3390 -0.1784  0.0299
 3216SOL    HW1 9968   2.550   4.273   4.817  0.0893 -0.4058 -0.7001
 3216SOL    HW2 9969   2.560   4.367   4.684  0.2104  1.3597  0.5227
 3217SOL     OW 9970   2.459   3.258   0.898 -0.4518  0.4066  0.1874
 3217SOL    HW1 9971   2.407   3.195   0.955  0.6302  1.2091  2.1346
 3217SOL    HW2 9972   2.436   3.352   0.923 -0.6902  0.8116 -1.4207
 3218SOL     OW 9973   3.294   5.113   0.070 -0.4382  0.1508  0.2952
 3218SOL    HW1 9974   3.375   5.164   0.040 -1.3370  1.4377 -0.0289
 3218SOL    HW2 9975   3.309   5.015   0.055  0.7092  0.4315 -0.5735
 3219SOL     OW 9976   3.908   0.803   3.951 -0.1029 -0.2672 -0.6410
 3219SOL    HW1 9977   3.917   0.741   3.873  0.2451 -0.3241 -0.5569
 3219SOL    HW2 9978   3.937   0.756   4.034 -0.9523 -0.3749 -0.3953
 3220SOL     OW 9979   2.920   0.454   2.839  0.3105 -0.2366  0.0941
 3220SOL    HW1 9980   2.988   0.397   2.884  0.7376 -1.3468 -1.8177
 3220SOL    HW2 9981   2.955   0.482   2.749 -1.1237  0.4945 -0.2651
 3221SOL     OW 9982   3.377   0.395   2.276  0.1240  0.2332  0.2500
 3221SOL    HW1 9983   3.414   0.341   2.352  0.7177 -0.9570 -0.8456
 3221SOL    HW2 9984   3.293   0.353   2.242 -0.4105  1.0385  0.5565
 3222SOL     OW 9985   1.775   4.023   1.240  0.0591 -0.1589  0.2031
 3222SOL    HW1 9986   1.846   3.984   1.298  0.4798  1.5749  0.9314
 3222SOL    HW2 9987   1.771   4.122   1.254 -0.2866  0.2511 -2.2431
 3223SOL     OW 9988   2.742   4.546   1.230  0.0136 -0.0863 -0.2416
 3223SOL    HW1 9989   2.807   4.494   1.175  0.8948 -1.0634  1.6122
 3223SOL    HW2 9990   2.649   4.514   1.211 -0.1642  1.9852 -3.6387
 3224SOL     OW 9991   1.424   3.459   0.548  0.2936 -0.5282  0.1932
 3224SOL    HW1 9992   1.459   3.540   0.501  0.7973 -1.0519 -0.3574
 3224SOL    HW2 9993   1.354   3.486   0.613  2.7681  0.7848  2.5317
 3225SOL     OW 9994   3.591   3.276   5.374 -0.5210  0.0932 -0.1178
 3225SOL    HW1 9995   3.602   3.176   5.373 -1.2969 -0.0378  1.1852
 3225SOL    HW2 9996   3.534   3.304   5.297 -1.0860 -0.5998  0.0340
 3226SOL     OW 9997   2.868   0.326   1.729 -0.6818  0.3598  0.3880
 3226SOL    HW1 9998   2.822   0.239   1.745 -0.7968  0.6985  2.1079
 3226SOL    HW2 9999   2.810   0.385   1.674 -0.0797 -1.0603 -1.9277
 3227SOL     OW10000   3.923   5.451   4.863  0.1242 -0.4627  0.7653
 3227SOL    HW110001   4.013   5.487   4.888  0.8996 -0.3256 -1.9299
 3227SOL    HW210002   3.854   5.490   4.925  1.5644  1.6733  1.1615
 3228SOL     OW10003   1.211   4.696   4.191  0.2837  0.2856  0.2805
 3228SOL    HW110004   1.220   4.620   4.255  1.1033 -1.0882 -1.3641
 3228SOL    HW210005   1.114   4.707   4.166 -0.0702  0.9780  1.8633
 3229SOL     OW10006   1.413   5.009   0.275  0.0414  0.7384 -0.2787
 3229SOL    HW110007   1.384   5.080   0.338 -4.1910 -0.4383 -0.6117
 3229SOL    HW210008   1.471   5.049   0.203 -0.2154  3.2987  0.8458
 3230SOL     OW10009   1.733   1.750   0.552 -0.4412 -0.2062 -0.0533
 3230SOL    HW110010   1.692   1.676   0.605 -0.0710 -1.0953 -0.9829
 3230SOL    HW210011   1.677   1.767   0.470 -0.4307  0.4232  0.0690
 3231SOL     OW10012   1.577   5.345   0.284 -0.2588  0.1594 -0.0518
 3231SOL    HW110013   1.533   5.335   0.373 -2.5661  0.5438 -1.0698
 3231SOL    HW210014   1.598   5.255   0.246  2.0373  0.0013  1.4124
 3232SOL     OW10015   3.357   4.299   1.659 -0.1518  0.4169 -0.1514
 3232SOL    HW110016   3.285   4.363   1.686 -1.8038 -1.0555 -0.8722
 3232SOL    HW210017   3.346   4.276   1.562  1.3462  0.1876 -0.2892
 3233SOL     OW10018   2.358   4.666   0.567  0.1222 -0.1405 -0.2307
 3233SOL    HW110019   2.384   4.759   0.595 -1.2514 -0.2749  1.7113
 3233SOL    HW210020   2.266   4.667   0.528 -0.8795 -0.9202  1.9278
 3234SOL     OW10021   2.444   0.990   5.418 -0.5457  0.0921  0.2586
 3234SOL    HW110022   2.352   1.027   5.425 -0.4164  0.4035  0.3274
 3234SOL    HW210023   2.468   0.942   5.503 -1.3330 -1.6159 -0.4285
 3235SOL     OW10024   3.032   4.368   3.880  0.1959 -0.3705 -0.1669
 3235SOL    HW110025   3.049   4.321   3.966  0.2889  0.2329  0.1462
 3235SOL    HW210026   2.967   4.315   3.825  1.4558 -1.6637 -0.4957
 3236SOL     OW10027   4.025   4.565   5.084  0.0164  0.0431  0.9352
 3236SOL    HW110028   3.990   4.645   5.035 -0.6449  0.5450  2.1731
 3236SOL    HW210029   4.021   4.485   5.024  0.6741  0.9121 -0.3187
 3237SOL     OW10030   3.005   3.896   4.727 -0.0907 -0.2407 -0.5425
 3237SOL    HW110031   3.031   3.840   4.649  2.1138 -1.4286  0.9299
 3237SOL    HW210032   3.087   3.931   4.772 -1.3309  1.3543  0.5956
 3238SOL     OW10033   1.629   0.025   0.540 -0.5188  0.6504 -0.2057
 3238SOL    HW110034   1.637  -0.049   0.473 -1.6774  1.4294 -1.2515
 3238SOL    HW210035   1.681   0.105   0.508 -0.1739  0.6582  0.3717
 3239SOL     OW10036   2.694   0.445   4.984  0.1455  0.0044 -0.2793
 3239SOL    HW110037   2.599   0.414   4.988  0.4786 -1.0895 -0.8011
 3239SOL    HW210038   2.734   0.441   5.076 -0.5904  1.4390  0.1432
 3240SOL     OW10039   1.465   4.858   0.869  0.0558 -0.1270 -0.1789
 3240SOL    HW110040   1.459   4.944   0.919  0.3914  0.5909 -1.3421
 3240SOL    HW210041   1.375   4.814   0.868 -0.2259  0.4381  0.0166
 3241SOL     OW10042   3.609   3.964   0.247  0.1435  0.3809  0.4505
 3241SOL    HW110043   3.563   4.015   0.319 -0.3507  0.0961  0.3446
 3241SOL    HW210044   3.685   3.912   0.285 -0.5950 -0.3878  0.9137
 3242SOL     OW10045   5.551   0.827   0.106  0.3473  0.2299 -0.1666
 3242SOL    HW110046   5.543   0.924   0.083 -1.6564  0.4330  1.1323
 3242SOL    HW210047   5.556   0.773   0.022  0.7020  1.4097 -0.9200
 3243SOL     OW10048   4.607   4.619   4.793 -0.5140  0.3383  0.3185
 3243SOL    HW110049   4.678   4.559   4.830 -0.3654 -0.3686 -1.0586
 3243SOL    HW210050   4.564   4.576   4.715 -0.3120  2.0712 -0.8004
 3244SOL     OW10051   0.244   3.619   0.268  0.2598 -0.0379  0.6797
 3244SOL    HW110052   0.152   3.580   0.278  0.2640  0.0944  1.2948
 3244SOL    HW210053   0.290   3.619   0.357 -0.3875  2.9774  1.1423
 3245SOL     OW10054   0.812   4.059   1.301  0.0655 -0.3084  0.3426
 3245SOL    HW110055   0.833   4.102   1.214 -1.5599 -0.0833  0.0241
 3245SOL    HW210056   0.897   4.031   1.346  0.9804  0.4823 -0.8310
 3246SOL     OW10057   5.292   3.793   1.537 -1.0954  0.3510  0.7376
 3246SOL    HW110058   5.350   3.814   1.615  0.8492  0.3875 -0.6451
 3246SOL    HW210059   5.229   3.869   1.520 -0.4339  1.0288  1.3052
 3247SOL     OW10060   2.758   3.863   4.827 -0.3069  0.3517 -0.4742
 3247SOL    HW110061   2.857   3.867   4.826 -0.0563 -2.5783  1.4351
 3247SOL    HW210062   2.727   3.789   4.766 -0.7988 -2.5591  2.9704
 3248SOL     OW10063   3.437   3.804   1.204 -0.1133 -0.4523  0.1920
 3248SOL    HW110064   3.447   3.901   1.183 -0.5483 -0.0110  1.8367
 3248SOL    HW210065   3.527   3.760   1.207  0.0796 -0.1215 -0.6112
 3249SOL     OW10066   3.445   3.792   3.856  0.3129  0.2885  0.2929
 3249SOL    HW110067   3.360   3.759   3.897 -0.2635 -0.3834 -1.3509
 3249SOL    HW210068   3.430   3.882   3.816  0.1798 -0.1252 -0.5978
 3250SOL     OW10069   3.738   4.452   1.294 -0.1470  0.1557 -0.1138
 3250SOL    HW110070   3.699   4.522   1.235  2.7980  0.2234 -2.1766
 3250SOL    HW210071   3.821   4.487   1.338 -0.1952 -1.1545  1.1072
 3251SOL     OW10072   2.460   5.054   3.193 -0.2231 -0.3130  0.0002
 3251SOL    HW110073   2.417   5.135   3.233  0.3257 -0.4348  0.8400
 3251SOL    HW210074   2.429   4.972   3.241 -1.5198 -0.7407 -1.4430
 3252SOL     OW10075   4.263   0.434   0.625  0.2983 -0.3118  0.0646
 3252SOL    HW110076   4.287   0.458   0.530  0.3458  1.5684  0.5060
 3252SOL    HW210077   4.347   0.431   0.680  0.1891 -0.5376  0.2172
 3253SOL     OW10078   0.035   4.227   2.046 -0.1382  0.0279  0.7028
 3253SOL    HW110079   0.059   4.313   2.091  0.2228 -0.4527  1.4412
 3253SOL    HW210080  -0.062   4.209   2.058 -0.2918  0.5104  0.2318
 3254SOL     OW10081   2.606   0.856   1.012 -0.1130 -0.1399  0.2977
 3254SOL    HW110082   2.583   0.944   1.053 -1.0369 -0.6063  0.8077
 3254SOL    HW210083   2.531   0.825   0.955  0.6465 -0.1045 -0.7442
 3255SOL     OW10084   3.743   0.007   2.089  0.1656  0.2503 -0.4932
 3255SOL    HW110085   3.664   0.048   2.044 -0.5314  0.0248  0.4878
 3255SOL    HW210086   3.826   0.057   2.064 -0.6853  2.5226  0.9038
 3256SOL     OW10087   2.508   4.427   1.170 -0.2765  0.1010  0.8548
 3256SOL    HW110088   2.444   4.477   1.111  0.9354 -0.1469 -0.7425
 3256SOL    HW210089   2.514   4.332   1.139  3.9382  0.9806 -1.9252
 3257SOL     OW10090   1.254   4.683   4.561 -0.1563  0.2323  0.1277
 3257SOL    HW110091   1.180   4.640   4.613 -0.5264  0.4270 -0.2356
 3257SOL    HW210092   1.316   4.612   4.527 -1.4968 -0.1850 -1.6138
 3258SOL     OW10093   2.079   4.509   0.262 -0.3401  0.4065 -0.6197
 3258SOL    HW110094   2.162   4.455   0.272 -1.4175 -1.6073 -1.7285
 3258SOL    HW210095   2.072   4.544   0.168 -0.2437  1.4929 -0.2400
 3259SOL     OW10096   4.450   3.493   2.675 -0.1078 -0.5085 -0.0199
 3259SOL    HW110097   4.492   3.438   2.746 -1.4432 -1.5082  0.0416
 3259SOL    HW210098   4.498   3.478   2.588  1.5366  0.7333  0.6358
 3260SOL     OW10099   2.379   4.435   1.417 -0.2384  0.1078 -0.0464
 3260SOL    HW110100   2.302   4.371   1.420 -0.6960  0.4281 -2.7859
 3260SOL    HW210101   2.433   4.418   1.335  1.7795  0.8999  1.0469
 3261SOL     OW10102   3.059   4.802   0.140 -0.0915  0.6863 -0.4399
 3261SOL    HW110103   3.013   4.715   0.160  1.6150  0.4513  3.3304
 3261SOL    HW210104   2.990   4.874   0.130 -1.4554 -0.2684  1.3739
 3262SOL     OW10105   3.949   0.776   1.030 -0.0164  0.3370  0.4368
 3262SOL    HW110106   4.007   0.700   1.000  1.0482  0.4069  2.1677
 3262SOL    HW210107   3.952   0.849   0.962  1.8494  0.2828  0.4059
 3263SOL     OW10108   2.416   4.689   5.405 -0.4527 -0.5141 -0.2523
 3263SOL    HW110109   2.479   4.619   5.440 -0.3984 -0.8879 -1.0691
 3263SOL    HW210110   2.377   4.658   5.318 -2.7405 -0.8543  0.8086
 3264SOL     OW10111   2.865   3.997   4.339 -0.2941 -0.2816  0.8274
 3264SOL    HW110112   2.883   3.914   4.392 -0.9659 -0.2602  1.0975
 3264SOL    HW210113   2.772   4.029   4.357 -0.4685 -0.1609 -0.2063
 3265SOL     OW10114   3.618   1.631   1.654  0.8638  0.2625 -0.2124
 3265SOL    HW110115   3.605   1.555   1.591  2.2010  1.1832 -1.6770
 3265SOL    HW210116   3.710   1.668   1.643 -0.1410  2.8686 -0.4384
 3266SOL     OW10117   2.014   0.302   0.382  0.4413  0.2246 -0.0628
 3266SOL    HW110118   2.078   0.298   0.305  0.7945  2.6701  0.0322
 3266SOL    HW210119   2.001   0.210   0.420  2.0981 -0.6631 -1.5241
 3267SOL     OW10120   2.913   3.123   4.945  0.8074  0.4234  0.0849
 3267SOL    HW110121   2.959   3.192   4.889  2.1141  0.6632  1.4146
 3267SOL    HW210122   2.814   3.131   4.932  1.0296  1.1660 -1.3590
 3268SOL     OW10123   1.537   5.307   0.569  0.0071  0.6087 -0.4240
 3268SOL    HW110124   1.628   5.270   0.549 -0.1610  0.5795 -1.1436
 3268SOL    HW210125   1.497   5.257   0.646 -0.0804 -0.4916 -1.1568
 3269SOL     OW10126   2.367   4.147   1.567  0.2095  0.6783 -0.4795
 3269SOL    HW110127   2.413   4.218   1.621  2.2331 -1.6827  1.1269
 3269SOL    HW210128   2.429   4.113   1.497 -0.6156  0.2240 -1.0081
 3270SOL     OW10129   1.713   0.315   5.119  0.5902  0.1984  0.0397
 3270SOL    HW110130   1.711   0.221   5.152  0.6656 -0.0666 -0.6866
 3270SOL    HW210131   1.692   0.316   5.021  1.5983  0.8237 -0.1827
 3271SOL     OW10132   2.869   5.433   0.735  0.1244 -0.1374  0.3556
 3271SOL    HW110133   2.884   5.531   0.747 -0.2461 -0.1954  1.3861
 3271SOL    HW210134   2.843   5.392   0.822  1.5276 -1.4021  0.2207
 3272SOL     OW10135   0.794   4.023   5.525  0.0091 -0.4017  0.1686
 3272SOL    HW110136   0.801   4.122   5.512 -0.2150  0.0360  2.8444
 3272SOL    HW210137   0.709   3.990   5.483  0.2691  0.4416 -1.0797
 3273SOL     OW10138   2.249   5.191   5.460 -0.0048  0.2613 -0.3967
 3273SOL    HW110139   2.293   5.240   5.384 -2.0503 -0.1000 -1.9223
 3273SOL    HW210140   2.287   5.099   5.467  0.5461  0.4621 -0.6535
 3274SOL     OW10141   4.050   2.913   0.036  0.3596 -0.2798 -0.3388
 3274SOL    HW110142   4.084   2.961  -0.045 -0.9393  0.9989 -0.1862
 3274SOL    HW210143   4.078   2.963   0.118  1.8603 -1.6936  0.0539
 3275SOL     OW10144   4.184   4.560   0.766 -0.3753  0.0599 -0.2274
 3275SOL    HW110145   4.254   4.554   0.837 -0.4145  0.2233 -0.1742
 3275SOL    HW210146   4.227   4.581   0.678 -0.5449  2.4188  0.1953
 3276SOL     OW10147   2.762   5.481   0.467  0.4261 -0.3215  1.1328
 3276SOL    HW110148   2.811   5.468   0.553  1.1092 -1.2005  0.6380
 3276SOL    HW210149   2.790   5.567   0.425  2.1983 -1.1699  0.4796
 3277SOL     OW10150   2.795   1.253   1.112 -0.0229  0.5545 -0.8255
 3277SOL    HW110151   2.747   1.335   1.080  0.1614  0.9413 -0.1374
 3277SOL    HW210152   2.883   1.246   1.064  2.7341  4.0239  2.9466
 3278SOL     OW10153   4.575   1.346   1.316  0.6458  0.0976 -0.2504
 3278SOL    HW110154   4.662   1.341   1.266  1.1714 -0.5372  0.7242
 3278SOL    HW210155   4.592   1.354   1.414 -0.4068 -0.8180  0.0265
 3279SOL     OW10156   3.705   3.525   3.981 -0.2117 -0.0877 -0.5035
 3279SOL    HW110157   3.700   3.594   3.910 -1.5952  0.6967  0.3285
 3279SOL    HW210158   3.757   3.561   4.059 -0.6105 -0.1153 -0.2220
 3280SOL     OW10159   5.008   0.490   0.621 -0.5097 -0.0291  0.6328
 3280SOL    HW110160   5.025   0.440   0.537 -0.5734 -1.2577  1.3305
 3280SOL    HW210161   4.927   0.548   0.611 -0.8614 -0.6231  0.0489
 3281SOL     OW10162   3.630   4.282   5.443  0.5626 -0.0341  0.2470
 3281SOL    HW110163   3.658   4.191   5.472 -1.9827 -0.8389  0.3601
 3281SOL    HW210164   3.633   4.288   5.344 -0.5522 -0.7020  0.1668
 3282SOL     OW10165   3.368   4.192   4.020 -0.1851  0.3758 -0.1039
 3282SOL    HW110166   3.311   4.274   4.023  1.2554  1.4128  0.4932
 3282SOL    HW210167   3.403   4.172   4.112 -2.1300 -2.1774  0.2098
 3283SOL     OW10168   0.553   4.672   1.543  0.5535  0.5018 -0.0242
 3283SOL    HW110169   0.491   4.676   1.465  0.7260  2.1322 -0.1117
 3283SOL    HW210170   0.632   4.615   1.520 -0.1005 -0.2258 -0.5035
 3284SOL     OW10171   1.085   4.598   3.189 -0.0512 -0.4495 -0.0185
 3284SOL    HW110172   1.169   4.601   3.134  0.4702  1.0606  0.7782
 3284SOL    HW210173   1.109   4.594   3.286 -0.9387 -1.3235  0.1782
 3285SOL     OW10174   1.349   4.224   1.169  0.1210  0.2008 -0.0330
 3285SOL    HW110175   1.292   4.282   1.111  0.5368  0.7467  0.0967
 3285SOL    HW210176   1.444   4.228   1.138  0.0671 -0.8583 -0.3692
 3286SOL     OW10177   2.161   4.939   2.435  0.1134  0.0352  0.3259
 3286SOL    HW110178   2.249   4.891   2.440  0.2748  0.3506  0.5351
 3286SOL    HW210179   2.112   4.909   2.353  2.0038  2.4812 -1.8870
 3287SOL     OW10180   4.332   5.565   3.975  0.6878  0.0208 -0.0608
 3287SOL    HW110181   4.249   5.538   4.024 -0.8824  2.7897 -1.0172
 3287SOL    HW210182   4.334   5.520   3.886  0.2240 -0.0514 -0.0371
 3288SOL     OW10183   1.612   4.655   1.023  0.4069 -0.8312  0.3097
 3288SOL    HW110184   1.670   4.727   1.059  2.6567 -2.9568  1.2518
 3288SOL    HW210185   1.581   4.679   0.931 -1.5156  2.6114  1.6940
 3289SOL     OW10186   3.283   2.761   0.678  0.8085 -0.3889  0.1228
 3289SOL    HW110187   3.296   2.816   0.596  2.6089 -1.4967 -0.3932
 3289SOL    HW210188   3.198   2.709   0.672  1.0206 -0.6036 -1.1497
 3290SOL     OW10189   4.078   1.056   4.689  0.1538 -1.0029  0.2123
 3290SOL    HW110190   4.061   1.149   4.658  1.2767  0.1047  2.6152
 3290SOL    HW210191   3.992   1.013   4.715 -0.1674  0.3054  1.4258
 3291SOL     OW10192   1.770   5.448   1.250  0.0954 -0.1778 -0.1598
 3291SOL    HW110193   1.789   5.501   1.332  0.2454 -1.3666  0.6019
 3291SOL    HW210194   1.838   5.469   1.180  0.8983 -0.2888  0.5755
 3292SOL     OW10195   1.649   3.490   2.569 -0.0294 -0.0308  0.7246
 3292SOL    HW110196   1.667   3.411   2.510  0.7833 -0.5857  1.7088
 3292SOL    HW210197   1.563   3.533   2.540 -0.6362 -1.4289  0.3458
 3293SOL     OW10198   3.706   4.919   4.005 -0.3049  0.2371  0.0051
 3293SOL    HW110199   3.744   4.940   3.915 -0.6755  1.0444  0.0242
 3293SOL    HW210200   3.699   4.820   4.016 -1.5568  0.1321 -1.4010
 3294SOL     OW10201   1.937   2.519   2.104 -0.3039 -0.2078  0.6172
 3294SOL    HW110202   1.883   2.571   2.038  1.8359 -1.6401 -2.5436
 3294SOL    HW210203   2.001   2.580   2.151 -1.1603  0.6981  0.6396
 3295SOL     OW10204   3.980   5.269   2.875  0.2439 -0.0815  0.0875
 3295SOL    HW110205   3.958   5.248   2.780  0.6561 -1.0120  0.1857
 3295SOL    HW210206   3.991   5.184   2.926  1.1356  0.3942  0.7130
 3296SOL     OW10207   1.338   3.682   2.663  0.3460 -0.0858  0.2227
 3296SOL    HW110208   1.358   3.730   2.748 -0.2428  0.7111 -0.0760
 3296SOL    HW210209   1.240   3.665   2.657  0.1236  1.4217 -1.0787
 3297SOL     OW10210   2.625   4.941   2.073  0.0374 -0.0166 -0.3397
 3297SOL    HW110211   2.680   4.862   2.048 -1.9163 -1.1266 -1.3584
 3297SOL    HW210212   2.640   4.963   2.169  0.6224 -1.6387 -0.0276
 3298SOL     OW10213   1.731   4.011   3.326 -0.2148  0.3699 -0.0772
 3298SOL    HW110214   1.695   4.103   3.342 -1.2743 -0.1559  0.6269
 3298SOL    HW210215   1.686   3.946   3.387  0.0324 -0.7375 -1.0360
 3299SOL     OW10216   3.072   5.028   2.571  0.7496 -0.1754 -0.6384
 3299SOL    HW110217   3.082   4.987   2.480 -0.8488 -1.3850 -0.3110
 3299SOL    HW210218   3.160   5.066   2.600  1.7425 -1.3752 -1.9320
 3300SOL     OW10219   1.683   4.296   1.297  0.9719  0.2338 -0.0074
 3300SOL    HW110220   1.753   4.359   1.332  0.1632  1.3171 -0.2695
 3300SOL    HW210221   1.652   4.327   1.207 -0.1210  0.0117  0.2718
 3301SOL     OW10222   1.531   4.892   3.885 -0.4073  0.1799  0.1384
 3301SOL    HW110223   1.489   4.963   3.829  1.0157  0.0353 -1.2065
 3301SOL    HW210224   1.535   4.922   3.980 -1.0844  1.3027 -0.1666
 3302SOL     OW10225   4.102   3.734   4.546  0.1144  0.1487 -0.3175
 3302SOL    HW110226   4.011   3.693   4.555 -0.3092  0.9475 -0.8472
 3302SOL    HW210227   4.157   3.680   4.483 -0.2075  0.0061 -0.4802
 3303SOL     OW10228   1.362   4.224   3.182  0.4097  0.2410  0.1557
 3303SOL    HW110229   1.418   4.304   3.159 -0.0568  0.8096  0.9686
 3303SOL    HW210230   1.308   4.242   3.264 -1.1187 -0.2303 -0.6984
 3304SOL     OW10231   2.170   3.444   4.138 -0.5241  0.0633  0.2973
 3304SOL    HW110232   2.266   3.472   4.141 -0.1293 -1.1703 -0.1616
 3304SOL    HW210233   2.119   3.493   4.208  0.6111  0.1561  1.0856
 3305SOL     OW10234   1.649   4.843   5.526 -0.6051 -0.3815  0.0269
 3305SOL    HW110235   1.696   4.796   5.452 -0.6369 -1.3996  0.6471
 3305SOL    HW210236   1.579   4.783   5.565 -0.3586  0.0196  1.1121
 3306SOL     OW10237   4.009   4.772   3.770 -0.3922 -0.1761 -0.0927
 3306SOL    HW110238   3.978   4.686   3.729  0.6133 -0.6249  0.0650
 3306SOL    HW210239   4.063   4.823   3.704 -0.9717  0.3368 -0.1791
 3307SOL     OW10240   3.114   1.080   0.237  0.6921 -0.1208  0.5814
 3307SOL    HW110241   3.179   1.015   0.197  1.8024 -0.8227  3.3407
 3307SOL    HW210242   3.154   1.171   0.238  1.5295 -0.4853  1.9455
 3308SOL     OW10243   2.428   5.539   1.237 -0.1368 -0.0163 -0.0987
 3308SOL    HW110244   2.335   5.560   1.267  0.8224  1.5392  2.0136
 3308SOL    HW210245   2.447   5.441   1.252 -1.9247 -0.7751 -2.2167
 3309SOL     OW10246   4.572   4.207   2.917 -0.4200 -0.2040 -0.0066
 3309SOL    HW110247   4.665   4.200   2.881 -0.2528 -0.5203  0.4739
 3309SOL    HW210248   4.507   4.194   2.843 -0.0821 -0.9072 -0.1886
 3310SOL     OW10249   1.314   4.133   3.757 -0.2709 -0.1734  0.3069
 3310SOL    HW110250   1.374   4.129   3.837  0.2639 -0.1868 -0.0919
 3310SOL    HW210251   1.350   4.074   3.685 -0.5382  0.1401 -0.0874
 3311SOL     OW10252   2.939   5.369   2.328  0.4036 -0.5749 -0.2605
 3311SOL    HW110253   3.032   5.349   2.297  1.6177  1.6805  1.5990
 3311SOL    HW210254   2.918   5.312   2.407  1.0974  0.3640  0.6377
 3312SOL     OW10255   4.230   4.681   4.495 -0.1769 -0.3535 -0.0093
 3312SOL    HW110256   4.255   4.774   4.524  0.0701 -0.2991 -0.3987
 3312SOL    HW210257   4.247   4.670   4.398 -2.5003 -0.0286 -0.5198
 3313SOL     OW10258   1.105   4.367   2.758 -0.6214 -0.0062 -0.2160
 3313SOL    HW110259   1.074   4.448   2.709 -1.7769 -0.1163  0.2923
 3313SOL    HW210260   1.027   4.306   2.776  0.4648 -2.1324 -2.1819
 3314SOL     OW10261   4.184   0.315   3.708 -0.1841  0.4134 -0.2767
 3314SOL    HW110262   4.221   0.357   3.791 -0.0381  1.2345 -0.7406
 3314SOL    HW210263   4.094   0.276   3.728  0.9842 -1.8820  0.9408
 3315SOL     OW10264   2.021   5.558   0.744 -0.0767 -0.4464 -0.4000
 3315SOL    HW110265   2.033   5.458   0.741 -0.2127 -0.4606 -0.4628
 3315SOL    HW210266   2.036   5.596   0.653  0.0761 -0.3971 -0.3551
 3316SOL     OW10267   2.712   3.607   3.265 -0.1399  0.0469 -0.0115
 3316SOL    HW110268   2.688   3.684   3.207 -2.1867 -1.1349 -0.8466
 3316SOL    HW210269   2.681   3.624   3.358 -2.0829 -0.3905 -0.5388
 3317SOL     OW10270   2.129   4.627   4.039 -0.4713  0.0908 -0.5132
 3317SOL    HW110271   2.059   4.685   3.997 -2.3460 -0.9603  0.9887
 3317SOL    HW210272   2.088   4.539   4.064  1.9943 -1.4814 -1.6526
 3318SOL     OW10273   4.223   4.269   3.105  0.1699 -0.3916 -0.6917
 3318SOL    HW110274   4.320   4.271   3.132  0.1745  0.9437 -0.7555
 3318SOL    HW210275   4.182   4.359   3.121 -1.5245 -1.3669  0.9901
 3319SOL     OW10276   2.139   1.099   1.111  0.5953  0.6005 -0.6888
 3319SOL    HW110277   2.187   1.185   1.094  3.2135 -0.6061  0.1248
 3319SOL    HW210278   2.201   1.034   1.157 -2.2228 -0.6539  1.6663
 3320SOL     OW10279   0.835   0.164   0.628  0.2330 -0.1003  0.3536
 3320SOL    HW110280   0.799   0.095   0.566  0.4920 -0.3449  0.4737
 3320SOL    HW210281   0.933   0.151   0.639  0.0163 -0.7986  1.7285
 3321SOL     OW10282   4.389   4.812   3.309 -0.1608 -0.2673  0.6481
 3321SOL    HW110283   4.387   4.792   3.407 -1.9519 -1.5551  0.4016
 3321SOL    HW210284   4.445   4.743   3.263  0.0497 -0.1216  0.6885
 3322SOL     OW10285   2.889   1.785   3.165  0.7991 -0.1150  0.0671
 3322SOL    HW110286   2.980   1.770   3.204  1.3913 -0.1823 -1.2705
 3322SOL    HW210287   2.820   1.738   3.220  1.6524 -0.6420  0.7027
 3323SOL     OW10288   2.670   4.418   3.497  0.4635 -0.4230  0.0409
 3323SOL    HW110289   2.760   4.386   3.528  0.6884 -1.1623 -1.3020
 3323SOL    HW210290   2.608   4.339   3.487 -0.0233 -0.0351 -0.0403
 3324SOL     OW10291   3.243   4.161   2.182 -0.5615  0.3993  0.4971
 3324SOL    HW110292   3.196   4.246   2.204  1.0148  1.6872 -0.8404
 3324SOL    HW210293   3.331   4.181   2.139 -0.7620 -1.8761 -1.2104
 3325SOL     OW10294   2.071   0.256   3.632 -0.0841  0.2129  0.2732
 3325SOL    HW110295   2.002   0.184   3.629  0.5729 -0.4741  1.0988
 3325SOL    HW210296   2.137   0.244   3.558 -0.4881  0.5199 -0.1478
 3326SOL     OW10297   2.294   4.846   4.461 -0.1072  0.4959 -0.2973
 3326SOL    HW110298   2.225   4.878   4.525 -0.1893 -0.7155  0.2435
 3326SOL    HW210299   2.260   4.857   4.367 -0.1667  1.8476 -0.1431
 3327SOL     OW10300   1.459   0.038   0.241  0.2731 -0.4792 -0.4687
 3327SOL    HW110301   1.376   0.020   0.188 -1.5482  0.2551  1.9194
 3327SOL    HW210302   1.492  -0.048   0.280  0.0122 -0.6368 -0.5910
 3328SOL     OW10303   2.951   3.945   2.821  0.1750 -0.2487  0.2389
 3328SOL    HW110304   2.861   3.930   2.780 -0.2992  1.1314  0.7391
 3328SOL    HW210305   2.950   3.913   2.916 -0.0173  0.4254  0.4685
 3329SOL     OW10306   3.634   4.652   1.142 -0.0328  0.5613  0.4927
 3329SOL    HW110307   3.584   4.729   1.181 -0.9202  0.9584 -1.3010
 3329SOL    HW210308   3.643   4.666   1.043  1.0682 -0.9494  0.3520
 3330SOL     OW10309   3.518   3.650   4.335 -0.4958 -0.0634  0.3848
 3330SOL    HW110310   3.539   3.706   4.255  0.0107  0.6517  1.0013
 3330SOL    HW210311   3.426   3.612   4.326 -0.2066 -0.5203 -0.8262
 3331SOL     OW10312   2.888   0.243   3.457  0.0634 -0.1624  0.3620
 3331SOL    HW110313   2.939   0.158   3.465 -0.2624 -0.3263  0.7029
 3331SOL    HW210314   2.939   0.318   3.500  0.0452 -0.3130  0.6458
 3332SOL     OW10315   2.231   3.084   2.350 -0.2602 -0.5460 -0.3328
 3332SOL    HW110316   2.247   3.002   2.295  1.0903 -0.2023 -0.4864
 3332SOL    HW210317   2.215   3.162   2.290  2.5623  0.1096 -0.3718
 3333SOL     OW10318   1.844   5.188   1.149  0.5407  0.6535  0.2145
 3333SOL    HW110319   1.803   5.181   1.058 -0.5923  0.3539  0.7243
 3333SOL    HW210320   1.823   5.278   1.188 -0.8390  0.0270  1.0102
 3334SOL     OW10321   2.092   1.307   0.100  0.1024  0.0427 -0.2316
 3334SOL    HW110322   2.188   1.278   0.096 -0.0059 -0.1970 -2.4944
 3334SOL    HW210323   2.088   1.407   0.105  0.4865  0.0840 -0.6807
 3335SOL     OW10324   3.485   4.040   1.082  0.2870  0.4693 -0.1694
 3335SOL    HW110325   3.511   4.130   1.119  1.3690 -0.2393  0.8511
 3335SOL    HW210326   3.546   4.017   1.007 -1.0216  1.2773 -1.5420
 3336SOL     OW10327   3.330   4.906   3.721  0.0972 -0.4423  0.2674
 3336SOL    HW110328   3.410   4.854   3.752 -0.2797 -1.2215 -0.0471
 3336SOL    HW210329   3.253   4.889   3.783  0.2708  0.6069  0.7880
 3337SOL     OW10330   1.990   5.405   3.433  0.7692 -0.0835  0.7626
 3337SOL    HW110331   2.085   5.414   3.402  0.7971 -1.7211  0.2963
 3337SOL    HW210332   1.934   5.476   3.390  0.9397 -1.7852 -2.5549
 3338SOL     OW10333   3.683   1.187   2.978  0.0717  0.2133 -0.3222
 3338SOL    HW110334   3.759   1.150   3.032 -0.7479 -0.5004  0.3710
 3338SOL    HW210335   3.659   1.122   2.906 -1.7104 -0.9180  1.2170
 3339SOL     OW10336   2.690   0.146   2.409  0.7247  0.2319 -0.2228
 3339SOL    HW110337   2.721   0.111   2.497  0.3583  0.4597 -0.0004
 3339SOL    HW210338   2.656   0.071   2.353 -2.4857  0.4407  1.2131
 3340SOL     OW10339   2.449   4.012   3.193  0.3491  0.4947 -0.2602
 3340SOL    HW110340   2.462   3.973   3.283 -2.2282 -0.1899 -0.1124
 3340SOL    HW210341   2.513   3.970   3.129 -0.5892 -2.1967  0.4198
 3341SOL     OW10342   2.410   0.032   0.967  0.2681 -0.5830  0.3812
 3341SOL    HW110343   2.462  -0.045   0.929 -1.0655 -1.4175  0.1846
 3341SOL    HW210344   2.441   0.051   1.060  0.1826 -1.7920  0.6692
 3342SOL     OW10345   2.659   3.938   2.383 -1.1526 -0.1527  0.1532
 3342SOL    HW110346   2.753   3.947   2.350 -0.7464 -0.9554  1.0596
 3342SOL    HW210347   2.604   4.012   2.344  0.4858  2.1047  1.8206
 3343SOL     OW10348   3.394   4.669   2.307  0.2976  0.3393  0.0531
 3343SOL    HW110349   3.400   4.765   2.279  2.2874  0.1105 -0.4439
 3343SOL    HW210350   3.426   4.611   2.233 -0.3019 -0.6743  0.5737
 3344SOL     OW10351   1.727   0.841   2.863  0.1220 -0.5511  0.4013
 3344SOL    HW110352   1.675   0.758   2.882  0.3663 -0.9388 -0.5620
 3344SOL    HW210353   1.672   0.921   2.888 -0.1647 -0.9950  1.2113
 3345SOL     OW10354   0.911   4.699   1.108 -0.1161  0.5230  0.5621
 3345SOL    HW110355   0.885   4.782   1.158  0.5545  1.1899 -0.1711
 3345SOL    HW210356   0.914   4.719   1.010  2.2134  0.2545  0.5287
 3346SOL     OW10357   0.580   4.822   2.319 -0.2834  0.6614  0.6738
 3346SOL    HW110358   0.629   4.904   2.289 -2.4096  0.5475 -3.9466
 3346SOL    HW210359   0.644   4.746   2.329  1.0261  1.5101 -0.8829
 3347SOL     OW10360   3.602   3.771   2.651  0.2992  0.3975  0.1621
 3347SOL    HW110361   3.526   3.722   2.694  0.2625  0.7776  0.5350
 3347SOL    HW210362   3.647   3.711   2.584  0.4753 -0.2674  0.8595
 3348SOL     OW10363   3.162   4.559   2.488 -0.3288  0.0214 -0.6760
 3348SOL    HW110364   3.239   4.499   2.464 -0.7833 -0.1406 -1.8045
 3348SOL    HW210365   3.193   4.654   2.492 -0.2805  0.1112 -2.3402
 3349SOL     OW10366   2.511   5.249   2.942 -0.3355  0.0023  0.0056
 3349SOL    HW110367   2.479   5.181   2.876 -0.9622  1.1555 -0.9369
 3349SOL    HW210368   2.432   5.295   2.984  0.0671  0.5264  0.2073
 3350SOL     OW10369   4.498   4.307   3.187  0.6849  0.0621  0.4049
 3350SOL    HW110370   4.499   4.407   3.196 -1.5472  0.1309  0.3566
 3350SOL    HW210371   4.520   4.283   3.093  1.3790  0.4978  0.4497
 3351SOL     OW10372   4.056   5.113   3.845 -0.2664 -0.0525  0.9920
 3351SOL    HW110373   3.968   5.075   3.817  0.0985  0.1053 -0.4425
 3351SOL    HW210374   4.112   5.041   3.886 -0.8074 -0.3067  1.2929
 3352SOL     OW10375   0.874   1.391   3.695 -0.2972 -0.2923 -0.2894
 3352SOL    HW110376   0.967   1.379   3.661  0.6036  0.2443  1.8388
 3352SOL    HW210377   0.838   1.480   3.665  0.4422  0.1307  0.0507
 3353SOL     OW10378   0.391   4.004   3.524  0.2158  0.0127  0.0012
 3353SOL    HW110379   0.428   4.033   3.612 -1.8517  2.4919  0.1956
 3353SOL    HW210380   0.465   4.001   3.456  1.4284  0.5743  1.2460
 3354SOL     OW10381   2.037   4.874   2.222  0.5192  0.1160  0.5236
 3354SOL    HW110382   2.052   4.854   2.125  0.9913  1.3766  0.3196
 3354SOL    HW210383   1.942   4.902   2.236  0.4451 -0.0873  0.4354
 3355SOL     OW10384   3.147   3.277   2.930 -0.2062 -0.5699 -0.2061
 3355SOL    HW110385   3.207   3.260   3.009  0.2962  2.9690  0.3069
 3355SOL    HW210386   3.057   3.306   2.963 -1.5510 -3.3921 -1.0185
 3356SOL     OW10387   1.156   4.659   2.055 -0.1545 -0.1052  0.7122
 3356SOL    HW110388   1.061   4.684   2.072 -0.3699 -0.5567  0.1873
 3356SOL    HW210389   1.182   4.688   1.962  0.0859 -0.3774  0.6931
 3357SOL     OW10390   3.370   3.677   2.754 -0.0065  0.1521  0.3678
 3357SOL    HW110391   3.367   3.612   2.830 -0.4227  1.4881  1.5361
 3357SOL    HW210392   3.322   3.761   2.779 -2.1610 -0.1567 -2.1837
 3358SOL     OW10393   1.337   5.049   2.162  0.2884  0.0871 -0.4565
 3358SOL    HW110394   1.334   4.982   2.236  1.6353  0.3816 -0.1008
 3358SOL    HW210395   1.264   5.031   2.097  0.5872 -1.6885 -0.3454
 3359SOL     OW10396   4.384   5.179   2.345  0.2586  0.3978 -0.6560
 3359SOL    HW110397   4.428   5.250   2.290  2.1864 -0.5071 -0.3527
 3359SOL    HW210398   4.449   5.105   2.363 -1.2617 -0.7805  0.2495
 3360SOL     OW10399   1.431   4.754   3.150 -0.5213  0.4076  0.3303
 3360SOL    HW110400   1.350   4.801   3.184  0.9390  1.7822  2.1512
 3360SOL    HW210401   1.493   4.820   3.107 -0.9497 -0.8465 -2.4145
 3361SOL     OW10402   2.487   5.114   2.351 -0.2868 -0.3722  0.3808
 3361SOL    HW110403   2.583   5.117   2.323 -0.6771  0.2767 -0.9578
 3361SOL    HW210404   2.455   5.019   2.350  0.1961 -0.5355  0.2957
 3362SOL     OW10405   1.651   3.301   1.866  0.6612  0.6844 -0.5836
 3362SOL    HW110406   1.562   3.303   1.821  0.1309 -0.4456  0.3478
 3362SOL    HW210407   1.682   3.395   1.883 -0.2005  1.0918 -1.1976
 3363SOL     OW10408   1.840   5.387   3.161  0.1197 -0.2172 -0.9690
 3363SOL    HW110409   1.797   5.471   3.128  2.3449  0.5547 -2.1389
 3363SOL    HW210410   1.830   5.315   3.092  1.3463  0.2205 -1.6429
 3364SOL     OW10411   1.593   0.017   3.153 -0.9727 -0.0752 -0.4885
 3364SOL    HW110412   1.518   0.060   3.203 -1.2134  0.9503 -1.6494
 3364SOL    HW210413   1.601   0.061   3.063 -0.4201 -1.6780 -1.2583
 3365SOL     OW10414   3.256   4.512   2.819 -0.3065  0.2415 -0.4286
 3365SOL    HW110415   3.349   4.488   2.791  0.3345  1.4280  0.5905
 3365SOL    HW210416   3.192   4.445   2.781  0.9696 -0.7245 -0.9690
 3366SOL     OW10417   2.705   4.392   1.948 -0.2464 -0.0915  0.2187
 3366SOL    HW110418   2.800   4.370   1.973  0.3745  0.4086 -1.5022
 3366SOL    HW210419   2.648   4.393   2.030  1.1086 -1.0084  1.2214
 3367SOL     OW10420   4.106   4.934   3.547  0.2537 -0.2706 -0.6636
 3367SOL    HW110421   4.063   4.982   3.470  0.3479  0.9929  0.0410
 3367SOL    HW210422   4.197   4.972   3.563 -0.1580  0.1926  0.6922
 3368SOL     OW10423   3.770   4.083   2.198  0.1704  0.5448 -0.3272
 3368SOL    HW110424   3.762   4.001   2.253 -1.3038  0.3066 -0.8604
 3368SOL    HW210425   3.796   4.058   2.104 -2.5810  0.3875 -1.1339
 3369SOL     OW10426   1.971   4.191   2.225 -0.5728 -0.2039  0.8192
 3369SOL    HW110427   2.043   4.226   2.285 -1.7049 -0.5100  2.4044
 3369SOL    HW210428   1.884   4.235   2.248 -1.0754 -0.4421 -0.5169
 3370SOL     OW10429   2.676   0.549   3.779  0.2275 -0.1253  0.6147
 3370SOL    HW110430   2.679   0.455   3.813  0.6752  0.4110  2.1271
 3370SOL    HW210431   2.610   0.602   3.832 -1.8870 -0.1179 -1.7839
 3371SOL     OW10432   5.055   4.594   2.362  0.0730 -0.0618  0.1392
 3371SOL    HW110433   5.030   4.507   2.321  0.5874  0.0617 -0.4556
 3371SOL    HW210434   5.129   4.636   2.308  0.5035  0.2787  0.9787
 3372SOL     OW10435   2.785   4.119   2.050  0.3742 -0.0666  0.0345
 3372SOL    HW110436   2.781   4.045   1.983  1.7833 -1.9268  1.8565
 3372SOL    HW210437   2.851   4.188   2.021  1.2670 -1.0511 -0.3263
 3373SOL     OW10438   1.471   0.395   0.868 -0.2981 -0.3710 -0.4978
 3373SOL    HW110439   1.410   0.322   0.898  1.2613 -0.3104  3.4040
 3373SOL    HW210440   1.566   0.365   0.875  0.5265  2.3637  3.0183
 3374SOL     OW10441   0.804   0.309   3.685 -0.3483 -0.7659  0.4755
 3374SOL    HW110442   0.762   0.388   3.730  0.3980  0.0886 -0.3057
 3374SOL    HW210443   0.734   0.257   3.636 -0.7547 -0.2640  0.5203
 3375SOL     OW10444   2.227   4.462   3.496 -0.1719 -0.3199 -0.3565
 3375SOL    HW110445   2.144   4.420   3.534 -0.3209  0.7299  0.5239
 3375SOL    HW210446   2.280   4.504   3.570  1.1664 -0.9776 -0.9070
 3376SOL     OW10447   4.071   5.328   3.442 -0.3951 -0.2537  0.4554
 3376SOL    HW110448   4.138   5.398   3.418 -0.8919 -0.0413 -0.3750
 3376SOL    HW210449   4.026   5.352   3.528  2.2644 -1.6245  2.3497
 3377SOL     OW10450   4.111   4.805   2.637  0.6470 -0.5504 -0.0022
 3377SOL    HW110451   4.012   4.789   2.632  0.0830  1.6539  2.2307
 3377SOL    HW210452   4.141   4.858   2.558 -1.1245  3.4352  1.7062
 3378SOL     OW10453   3.592   4.578   2.137 -0.2124  0.0629  0.2751
 3378SOL    HW110454   3.588   4.494   2.192  1.0808 -0.3994 -0.3032
 3378SOL    HW210455   3.686   4.610   2.131 -0.6675  1.5269  0.4012
 3379SOL     OW10456   3.088   3.610   3.038  0.1865  0.2143  0.2211
 3379SOL    HW110457   3.184   3.588   3.019 -0.2057 -0.8087 -0.6936
 3379SOL    HW210458   3.033   3.527   3.033 -1.0675  1.0770 -1.3770
 3380SOL     OW10459   2.891   4.529   2.867  0.0716  0.1196 -0.7925
 3380SOL    HW110460   2.969   4.576   2.908 -1.0245  0.2508  1.2781
 3380SOL    HW210461   2.811   4.589   2.869 -0.6917 -0.8716 -0.5897
 3381SOL     OW10462   1.447   4.708   1.213 -0.1861  0.2014 -0.0756
 3381SOL    HW110463   1.506   4.685   1.136  1.5594  0.5958  1.0888
 3381SOL    HW210464   1.357   4.667   1.199  0.8135 -1.7758 -1.1720
 3382SOL     OW10465   3.565   3.757   3.381  0.2278 -0.5940  0.8177
 3382SOL    HW110466   3.468   3.744   3.402  0.3292 -2.7859  0.2008
 3382SOL    HW210467   3.621   3.706   3.446  0.8358 -1.3588 -0.2538
 3383SOL     OW10468   5.235   2.857   3.092  0.2793 -0.1244  0.0973
 3383SOL    HW110469   5.266   2.803   3.014  0.3292  1.1496 -0.7977
 3383SOL    HW210470   5.293   2.836   3.171 -0.3015 -2.0427  0.0513
 3384SOL     OW10471   1.846   4.945   3.564  0.2252  0.0729  0.3106
 3384SOL    HW110472   1.822   4.940   3.661  2.8414  1.3968  1.1380
 3384SOL    HW210473   1.848   4.853   3.525 -1.4561 -0.4288  1.3333
 3385SOL     OW10474   0.222   5.450   3.486 -0.4424  0.3001  0.2595
 3385SOL    HW110475   0.133   5.467   3.528 -0.7521 -2.0316  0.6891
 3385SOL    HW210476   0.218   5.472   3.389 -0.9422  1.8554  0.6076
 3386SOL     OW10477   1.469   4.565   1.852  0.2057 -0.4808 -0.2317
 3386SOL    HW110478   1.384   4.599   1.813  0.3519 -2.0508 -2.0768
 3386SOL    HW210479   1.534   4.546   1.779  1.0743 -2.1056  0.8915
 3387SOL     OW10480   2.429   5.058   1.895  0.2629  0.2846  0.5323
 3387SOL    HW110481   2.499   5.030   1.961  0.9228  0.2513 -0.1699
 3387SOL    HW210482   2.393   5.147   1.921 -0.0874 -0.1029  1.4061
 3388SOL     OW10483   2.174   3.931   2.637  0.5479 -0.0773  0.2741
 3388SOL    HW110484   2.229   3.885   2.567  0.8688 -0.0753  0.5225
 3388SOL    HW210485   2.173   3.876   2.720  0.3071  0.0010  0.3231
 3389SOL     OW10486   3.296   4.899   2.715 -0.0595  0.3791  0.0228
 3389SOL    HW110487   3.379   4.863   2.755  0.5119 -1.0771 -2.2657
 3389SOL    HW210488   3.221   4.895   2.782  0.9056 -1.5069  1.0566
 3390SOL     OW10489   0.184   5.311   2.040 -0.5130 -0.3259 -0.3195
 3390SOL    HW110490   0.181   5.345   2.134 -0.7711 -0.2346 -0.3599
 3390SOL    HW210491   0.092   5.285   2.010 -0.8676  1.9607 -1.3985
 3391SOL     OW10492   3.903   0.438   4.819  0.2957  0.9422  0.1465
 3391SOL    HW110493   3.832   0.452   4.888  0.4052  1.6850  0.1121
 3391SOL    HW210494   3.960   0.360   4.846 -1.2346 -0.4274 -0.4307
 3392SOL     OW10495   3.755   4.667   4.074  0.0094 -0.1230 -0.5108
 3392SOL    HW110496   3.781   4.587   4.021  0.1312 -1.4704  1.4689
 3392SOL    HW210497   3.675   4.646   4.130  1.0386  0.5453  1.3203
 3393SOL     OW10498   2.960   4.634   3.872 -0.0393 -0.4197  0.2160
 3393SOL    HW110499   2.990   4.539   3.874  0.0609 -0.3781  1.0757
 3393SOL    HW210500   2.993   4.678   3.789  0.0617 -1.0901 -0.1007
 3394SOL     OW10501   2.027   2.848   3.689 -0.1004  0.0754  0.2341
 3394SOL    HW110502   2.103   2.895   3.643  1.0556 -0.6825  1.2896
 3394SOL    HW210503   1.953   2.833   3.624  1.2523 -0.5042 -1.2398
 3395SOL     OW10504   0.183   3.504   1.951 -0.0444  0.6500  0.0860
 3395SOL    HW110505   0.128   3.476   2.030  0.1053 -0.1339 -0.0862
 3395SOL    HW210506   0.133   3.486   1.867 -0.1002  1.2599 -0.0189
 3396SOL     OW10507   3.018   3.862   2.548 -0.8788  0.0261 -0.0901
 3396SOL    HW110508   2.970   3.880   2.462 -1.8048 -1.1816  0.1471
 3396SOL    HW210509   2.976   3.915   2.621 -0.9274  0.0544 -0.1381
 3397SOL     OW10510   0.984   4.914   1.815  0.0434  0.3967 -0.1804
 3397SOL    HW110511   0.992   4.975   1.736  0.8999  0.0061 -0.4087
 3397SOL    HW210512   0.889   4.911   1.846 -0.1857  1.0477 -0.7961
 3398SOL     OW10513   2.261   4.302   0.283 -1.2495  0.0005 -0.1662
 3398SOL    HW110514   2.358   4.306   0.261 -1.3079 -0.2625 -0.4752
 3398SOL    HW210515   2.249   4.274   0.378 -1.0314 -0.1732 -0.1904
 3399SOL     OW10516   1.254   5.270   4.934 -0.5206  0.3670  0.0924
 3399SOL    HW110517   1.199   5.297   5.013 -1.6486  0.3419 -0.6605
 3399SOL    HW210518   1.318   5.198   4.960 -1.6884 -0.4665  0.7108
 3400SOL     OW10519   2.718   3.892   2.671  0.2413  0.3753  0.0877
 3400SOL    HW110520   2.633   3.877   2.721 -0.9264  1.7023 -1.3929
 3400SOL    HW210521   2.698   3.903   2.573  2.0293  1.4532 -0.2041
 3401SOL     OW10522   3.239   3.715   2.507  0.1758  0.3239 -0.3992
 3401SOL    HW110523   3.284   3.667   2.582 -0.3645 -2.3722 -1.6586
 3401SOL    HW210524   3.165   3.773   2.542  1.4143  0.9383  1.2707
 3402SOL     OW10525   0.923   3.838   2.761  0.3101 -0.0268 -0.4212
 3402SOL    HW110526   0.990   3.894   2.810  0.7633 -0.5465 -0.4386
 3402SOL    HW210527   0.836   3.841   2.810  0.5025  0.1902 -0.0845
 3403SOL     OW10528   4.248   2.478   3.350  0.3520  0.4890 -0.4619
 3403SOL    HW110529   4.155   2.486   3.314 -0.4772  1.8356  1.7660
 3403SOL    HW210530   4.311   2.528   3.290 -0.6603  1.1354 -1.0140
 3404SOL     OW10531   0.684   3.576   1.891 -0.2379 -0.3249 -0.4408
 3404SOL    HW110532   0.740   3.646   1.847  2.1691 -2.1513 -0.4818
 3404SOL    HW210533   0.612   3.547   1.828 -0.3386  0.9939 -0.9812
 3405SOL     OW10534   4.272   0.788   0.191  0.3693  0.3712  0.0288
 3405SOL    HW110535   4.189   0.809   0.243  0.4380  0.2955  0.1711
 3405SOL    HW210536   4.350   0.836   0.231  0.6336 -0.6052  0.7209
 3406SOL     OW10537   3.340   5.212   3.013  0.2603 -0.2450 -0.2378
 3406SOL    HW110538   3.408   5.248   3.078  0.4030  2.9029 -1.9575
 3406SOL    HW210539   3.249   5.236   3.045  0.1231 -1.2592  0.1938
 3407SOL     OW10540   2.532   4.205   3.421 -0.6983  0.9707 -0.3509
 3407SOL    HW110541   2.474   4.250   3.354 -0.4386  0.6332 -0.8123
 3407SOL    HW210542   2.511   4.107   3.423 -0.8064  0.9994  0.1689
 3408SOL     OW10543   2.790   4.171   1.295 -0.1794  0.0048 -0.4015
 3408SOL    HW110544   2.879   4.192   1.335 -1.2950  0.9542  1.7019
 3408SOL    HW210545   2.801   4.101   1.224  2.3059  0.6018 -0.6785
 3409SOL     OW10546   2.339   5.276   3.321  0.4707  0.5931  0.3938
 3409SOL    HW110547   2.409   5.271   3.392 -0.0459  2.0338  1.0435
 3409SOL    HW210548   2.341   5.367   3.278  1.4017 -0.5263 -2.1341
 3410SOL     OW10549   4.142   4.300   4.590 -0.3598  0.4979  0.0024
 3410SOL    HW110550   4.181   4.391   4.606  3.5231 -0.9620 -0.1569
 3410SOL    HW210551   4.206   4.230   4.622 -1.8584 -2.2684 -2.5258
 3411SOL     OW10552   5.253   4.624   2.191  0.7071 -0.5193 -0.6174
 3411SOL    HW110553   5.306   4.635   2.108 -0.0797 -2.0266 -1.3695
 3411SOL    HW210554   5.274   4.535   2.232 -1.0284 -1.0800 -0.8353
 3412SOL     OW10555   5.472   4.211   3.093  0.4303 -0.0163  0.1350
 3412SOL    HW110556   5.451   4.237   2.999  0.8692  1.7421  0.4835
 3412SOL    HW210557   5.566   4.178   3.099  0.5501  0.3028  0.0295
 3413SOL     OW10558   1.811   4.710   1.851 -0.8370 -0.0878 -0.2636
 3413SOL    HW110559   1.761   4.633   1.810  0.1874 -0.8845 -0.0739
 3413SOL    HW210560   1.747   4.782   1.875 -1.6254 -0.0896 -2.1670
 3414SOL     OW10561   3.257   3.432   2.691 -0.4055  0.4543  0.2807
 3414SOL    HW110562   3.229   3.520   2.729 -0.0586  0.6246  0.1453
 3414SOL    HW210563   3.215   3.358   2.744  0.5238  0.6756  1.3567
 3415SOL     OW10564   1.843   0.618   2.414  0.1469 -0.5443 -0.6443
 3415SOL    HW110565   1.756   0.632   2.461  1.2003  1.9754  0.7468
 3415SOL    HW210566   1.876   0.525   2.430 -1.3930 -0.9564  0.3033
 3416SOL     OW10567   0.554   4.865   2.617 -0.0445  0.5423  0.3072
 3416SOL    HW110568   0.475   4.814   2.651 -0.5285  1.2476  0.2732
 3416SOL    HW210569   0.553   4.864   2.517  0.5962 -0.3521  0.3015
 3417SOL     OW10570   0.994   0.263   2.510 -0.4339 -0.3008  0.3311
 3417SOL    HW110571   1.091   0.247   2.492 -0.6227 -1.3667  0.2189
 3417SOL    HW210572   0.957   0.326   2.441  0.5149  1.3490  1.2689
 3418SOL     OW10573   2.227   4.640   2.234 -0.0642  0.3931  0.4703
 3418SOL    HW110574   2.288   4.608   2.162  0.5814 -0.5807  1.4193
 3418SOL    HW210575   2.188   4.728   2.209  0.4418  0.2409 -0.8881
 3419SOL     OW10576   2.485   4.137   2.035  0.0292  0.1920  0.1623
 3419SOL    HW110577   2.432   4.053   2.027  0.1654  0.0655  0.5617
 3419SOL    HW210578   2.581   4.118   2.014  0.5065 -0.2713  2.4626
 3420SOL     OW10579   1.643   2.911   4.044  0.1790 -0.3335  0.3079
 3420SOL    HW110580   1.688   2.971   4.111 -0.9113  0.2240  0.5657
 3420SOL    HW210581   1.689   2.823   4.043  1.1935  0.1696  0.6516
 3421SOL     OW10582   3.847   4.526   2.413 -0.2361 -0.1848  0.2050
 3421SOL    HW110583   3.891   4.456   2.470 -0.2894  0.4151  0.9966
 3421SOL    HW210584   3.751   4.535   2.440 -0.4190 -0.3273 -0.3981
 3422SOL     OW10585   1.961   5.015   0.700 -0.7137 -0.2059 -0.7532
 3422SOL    HW110586   1.877   4.984   0.744  0.5218 -1.7171  0.7393
 3422SOL    HW210587   1.960   4.991   0.603 -1.4890 -1.3641 -0.4801
 3423SOL     OW10588   3.141   3.689   4.566 -0.4275  0.0369 -0.4422
 3423SOL    HW110589   3.116   3.626   4.639  1.4364  1.1054  1.2089
 3423SOL    HW210590   3.241   3.701   4.565 -0.5991  1.7390 -1.7284
 3424SOL     OW10591   1.818   3.938   3.606 -0.1043 -1.2690  0.3483
 3424SOL    HW110592   1.760   3.955   3.686  0.7058  0.5368  0.6082
 3424SOL    HW210593   1.803   4.010   3.538  1.5489 -0.9355  0.2885
 3425SOL     OW10594   3.636   4.021   3.271  0.3833 -0.2046  0.2665
 3425SOL    HW110595   3.616   3.944   3.332 -1.2527 -1.1164 -1.3064
 3425SOL    HW210596   3.709   4.077   3.310  0.5713 -1.6915  2.1942
 3426SOL     OW10597   2.805   5.389   3.410 -0.0478 -0.0535 -0.0801
 3426SOL    HW110598   2.843   5.324   3.476 -0.8493 -0.2760  0.1858
 3426SOL    HW210599   2.861   5.390   3.328  1.3219  0.6597  0.8194
 3427SOL     OW10600   2.574   4.507   2.533  0.2070 -0.1444  0.5888
 3427SOL    HW110601   2.590   4.515   2.631  1.2965  2.8741  0.2696
 3427SOL    HW210602   2.476   4.511   2.515  0.0592  1.8994  1.4925
 3428SOL     OW10603   2.185   5.470   4.549 -0.2637  0.0194  0.1765
 3428SOL    HW110604   2.153   5.513   4.633 -2.5795  0.5700 -0.9001
 3428SOL    HW210605   2.108   5.458   4.486  1.4446  0.0384 -2.0590
 3429SOL     OW10606   3.082   4.344   2.672 -0.6775 -0.5051 -0.0755
 3429SOL    HW110607   3.040   4.278   2.609 -0.4171  0.8150 -1.6813
 3429SOL    HW210608   3.105   4.428   2.623 -0.0595  0.4218  1.7041
 3430SOL     OW10609   2.468   0.927   3.012  0.2192  0.3619  0.1288
 3430SOL    HW110610   2.472   0.999   2.943 -1.8345 -1.0425 -1.6115
 3430SOL    HW210611   2.559   0.910   3.049  1.1808  2.0066 -1.3527
 3431SOL     OW10612   4.322   5.003   4.236  0.1272 -0.3821 -0.2573
 3431SOL    HW110613   4.401   4.948   4.260  0.6102 -0.3258 -1.6432
 3431SOL    HW210614   4.253   4.995   4.308  1.3961 -0.3813  1.0006
 3432SOL     OW10615   2.461   4.328   3.046  0.0930 -0.1735  0.6730
 3432SOL    HW110616   2.557   4.317   3.073  0.3133  3.7415  2.0685
 3432SOL    HW210617   2.403   4.323   3.127 -0.6368 -0.0364  0.1652
 3433SOL     OW10618   1.217   1.014   2.989  0.0654 -0.4590 -0.0968
 3433SOL    HW110619   1.206   1.108   3.020  0.9875 -0.4114  0.1161
 3433SOL    HW210620   1.281   0.966   3.050  0.6935 -0.8092 -1.0118
 3434SOL     OW10621   3.432   0.138   3.315  0.1043 -0.0408  0.1874
 3434SOL    HW110622   3.452   0.138   3.412  2.0363 -4.1168 -0.0162
 3434SOL    HW210623   3.515   0.156   3.263 -0.4712  0.0798 -0.7278
 3435SOL     OW10624   4.001   3.393   2.816  0.8283  0.2316 -0.5653
 3435SOL    HW110625   4.015   3.294   2.811  1.6517  0.3638 -1.1852
 3435SOL    HW210626   3.916   3.417   2.769 -0.8041 -0.4232  1.8303
 3436SOL     OW10627   1.413   4.269   0.651  0.3120 -0.3141 -0.1347
 3436SOL    HW110628   1.455   4.317   0.729 -0.3418  0.4552 -0.2434
 3436SOL    HW210629   1.446   4.310   0.566 -0.8838  0.5056 -0.2183
 3437SOL     OW10630   1.304   4.871   2.374 -0.1243  0.0077 -0.3879
 3437SOL    HW110631   1.268   4.782   2.347 -0.9513 -0.0876  0.9291
 3437SOL    HW210632   1.230   4.928   2.409  0.8320  0.0946  1.6655
 3438SOL     OW10633   4.658   3.999   3.205 -0.1709  0.3179 -0.0671
 3438SOL    HW110634   4.591   4.028   3.136  0.4164  0.3512 -0.6267
 3438SOL    HW210635   4.690   4.078   3.256 -1.2944  0.1919  0.8984
 3439SOL     OW10636   3.558   5.285   4.794 -0.4647  0.0158 -0.1526
 3439SOL    HW110637   3.633   5.219   4.787  0.0058  0.5915 -0.6209
 3439SOL    HW210638   3.476   5.238   4.827  0.1847 -0.5546  0.7164
 3440SOL     OW10639   3.449   1.600   2.858  0.7824  0.3771  0.3407
 3440SOL    HW110640   3.537   1.647   2.861  0.2685  1.4259 -0.4224
 3440SOL    HW210641   3.399   1.627   2.775 -0.1817 -0.3430  0.6627
 3441SOL     OW10642   1.382   0.406   3.206  0.2094  0.6486 -0.2698
 3441SOL    HW110643   1.469   0.451   3.226  0.2711  0.7021 -0.6493
 3441SOL    HW210644   1.370   0.399   3.107  0.6384 -1.0088 -0.2351
 3442SOL     OW10645   4.733   4.459   1.336  0.4942 -0.0040  0.3067
 3442SOL    HW110646   4.686   4.420   1.416 -0.2386 -1.0159 -0.5750
 3442SOL    HW210647   4.820   4.411   1.323  1.8258  1.8395  1.9128
 3443SOL     OW10648   1.469  -0.015   1.830  0.1121 -0.1348  0.2501
 3443SOL    HW110649   1.563  -0.048   1.825 -0.0547 -0.4370 -1.3266
 3443SOL    HW210650   1.465   0.064   1.891  1.3652 -0.1693  0.4025
 3444SOL     OW10651   2.299   3.510   2.169 -0.1759  0.6042  0.2600
 3444SOL    HW110652   2.253   3.596   2.190  0.8911  0.5784  3.1315
 3444SOL    HW210653   2.390   3.528   2.133  0.9321  0.8301  2.9273
 3445SOL     OW10654   2.230   5.219   3.699 -0.1592 -0.7519  0.0890
 3445SOL    HW110655   2.266   5.136   3.656  0.1126  0.9400 -3.2134
 3445SOL    HW210656   2.294   5.294   3.684 -0.6498  0.2530  2.5641
 3446SOL     OW10657   2.580   4.752   1.721  0.6286 -0.2982  0.1844
 3446SOL    HW110658   2.498   4.737   1.776  0.1394  2.3407  0.3003
 3446SOL    HW210659   2.571   4.704   1.634 -1.4819  0.6627 -0.1812
 3447SOL     OW10660   3.405   3.956   1.696 -0.4358  0.4686 -0.3988
 3447SOL    HW110661   3.321   3.962   1.642  0.0261 -0.2691 -1.2385
 3447SOL    HW210662   3.383   3.953   1.793 -1.2527  2.7894 -0.4453
 3448SOL     OW10663   2.092   4.793   3.217  0.3268 -0.1389  0.0472
 3448SOL    HW110664   2.083   4.893   3.221  3.3756  0.2161  0.9786
 3448SOL    HW210665   2.123   4.766   3.126 -1.2708 -0.3855 -0.4576
 3449SOL     OW10666   2.552   5.034   1.656 -0.5514 -0.5903 -0.1942
 3449SOL    HW110667   2.534   5.027   1.754  0.0759 -1.1996 -0.1140
 3449SOL    HW210668   2.599   4.952   1.624  0.3735  0.1267 -0.7549
 3450SOL     OW10669   2.114   4.153   0.111  0.3410 -0.2947 -0.5547
 3450SOL    HW110670   2.083   4.217   0.041  0.6593  0.1700 -0.2797
 3450SOL    HW210671   2.177   4.200   0.173  1.7260 -1.2630 -1.1987
 3451SOL     OW10672   2.400   4.814   3.313  0.6666 -0.9960 -0.0954
 3451SOL    HW110673   2.309   4.775   3.326  0.6642 -1.1482 -0.5833
 3451SOL    HW210674   2.451   4.761   3.246  1.4467 -1.4449  0.8356
 3452SOL     OW10675   1.306   4.190   2.596 -0.5082 -0.3804  0.4111
 3452SOL    HW110676   1.275   4.130   2.523  0.0343  0.3501 -0.4433
 3452SOL    HW210677   1.229   4.247   2.627 -0.5144  0.0074 -0.2923
 3453SOL     OW10678   4.875   4.801   3.702  0.2260 -0.1597 -0.0877
 3453SOL    HW110679   4.873   4.893   3.740 -0.2383 -0.4677  0.6437
 3453SOL    HW210680   4.786   4.779   3.661  0.2592 -0.3746 -0.0452
 3454SOL     OW10681   0.791   5.026   2.335  0.1422  0.0146 -0.3850
 3454SOL    HW110682   0.760   5.068   2.249 -0.6638  0.3038  0.0395
 3454SOL    HW210683   0.729   5.051   2.409  0.8700 -0.1705  0.3096
 3455SOL     OW10684   3.732   0.181   4.678  0.0494  0.4982  0.1469
 3455SOL    HW110685   3.653   0.127   4.650 -1.0653  1.9419  0.3889
 3455SOL    HW210686   3.728   0.197   4.777 -0.2734  1.9706 -0.0883
 3456SOL     OW10687   2.571   0.054   2.139  0.0799 -0.1289 -0.4518
 3456SOL    HW110688   2.664   0.025   2.119 -0.3960 -0.4216 -2.4215
 3456SOL    HW210689   2.528  -0.011   2.201  0.5982 -0.9891 -0.9872
 3457SOL     OW10690   1.545   5.177   0.074  0.2705 -0.2436 -0.3598
 3457SOL    HW110691   1.530   5.138  -0.017 -0.1817 -4.7953  1.3643
 3457SOL    HW210692   1.474   5.245   0.094 -0.1440  0.1987 -3.0254
 3458SOL     OW10693   2.829   5.529   2.156  0.0893 -0.1759  0.1754
 3458SOL    HW110694   2.896   5.528   2.082 -0.6605  0.1968 -0.5237
 3458SOL    HW210695   2.855   5.462   2.225  1.3619  0.1892  0.0914
 3459SOL     OW10696   1.277   4.596   2.288 -0.3424 -0.5658 -0.2160
 3459SOL    HW110697   1.247   4.605   2.193  0.9446 -0.5117 -0.6382
 3459SOL    HW210698   1.198   4.579   2.347 -1.2020 -0.1972 -1.2387
 3460SOL     OW10699   1.740   4.316   2.284 -0.5644 -0.2167 -0.1966
 3460SOL    HW110700   1.647   4.281   2.273 -1.4507  1.8162  0.3467
 3460SOL    HW210701   1.750   4.401   2.233  0.5289  0.3612  0.9143
 3461SOL     OW10702   3.880   3.620   4.638  0.3043 -0.1098  0.0748
 3461SOL    HW110703   3.797   3.650   4.589  0.1974 -0.0800  0.2746
 3461SOL    HW210704   3.886   3.667   4.726 -0.2696 -1.2408  0.7388
 3462SOL     OW10705   1.374   1.183   2.736  0.7039  0.5465  0.0728
 3462SOL    HW110706   1.334   1.147   2.652  2.3855 -2.5573  0.4842
 3462SOL    HW210707   1.301   1.221   2.794 -0.6937  1.1075 -1.9461
 3463SOL     OW10708   1.829   4.675   4.521  0.5911  0.3705 -0.1151
 3463SOL    HW110709   1.801   4.742   4.590 -0.3697  1.4118 -1.4597
 3463SOL    HW210710   1.852   4.589   4.567 -0.4070  0.8896  1.4820
 3464SOL     OW10711   3.383   4.063   3.778 -0.0319 -0.0740 -0.3858
 3464SOL    HW110712   3.293   4.047   3.737 -0.0561 -0.9870 -0.0008
 3464SOL    HW210713   3.372   4.109   3.866 -0.4242 -3.1264  1.3047
 3465SOL     OW10714   2.297   4.552   4.498 -0.3103 -0.2835 -0.2451
 3465SOL    HW110715   2.318   4.647   4.519 -0.8214  0.2067 -1.8392
 3465SOL    HW210716   2.287   4.500   4.583  1.0993  0.8178  0.6279
 3466SOL     OW10717   3.655   4.252   1.115 -0.2256  0.4696  0.1064
 3466SOL    HW110718   3.710   4.324   1.157  2.2164 -1.0476 -0.3058
 3466SOL    HW210719   3.681   4.163   1.152 -1.7809 -0.4135 -0.7907
 3467SOL     OW10720   2.435   4.554   2.832  0.5685  0.7412  0.4577
 3467SOL    HW110721   2.350   4.542   2.782  0.2753  0.8146  0.9369
 3467SOL    HW210722   2.445   4.480   2.899  0.4126  1.2533  1.0606
 3468SOL     OW10723   1.941   4.083   2.700  0.0050  0.3129  0.5539
 3468SOL    HW110724   1.955   4.087   2.798 -1.0928 -1.3306  0.8336
 3468SOL    HW210725   2.027   4.059   2.654  0.6408  1.6156  1.0439
 3469SOL     OW10726   1.769   0.197   1.132 -0.2242 -0.2468  0.1889
 3469SOL    HW110727   1.864   0.225   1.144  0.8474 -1.7368 -3.4985
 3469SOL    HW210728   1.734   0.233   1.045 -2.2344 -1.6816  0.3285
 3470SOL     OW10729   4.905   5.199   4.073 -0.0816 -0.1725 -0.0157
 3470SOL    HW110730   4.888   5.209   4.171  0.5496 -0.1332  0.0905
 3470SOL    HW210731   4.842   5.258   4.022 -0.3676 -0.1431  0.3658
 3471SOL     OW10732   1.117   3.649   3.963 -0.5737  0.1308 -0.3157
 3471SOL    HW110733   1.031   3.692   3.991 -1.7565 -1.1107 -1.8288
 3471SOL    HW210734   1.141   3.577   4.027 -0.8554  0.2392 -0.0865
 3472SOL     OW10735   2.112   1.958   2.248 -0.0240  0.4204  0.0668
 3472SOL    HW110736   2.023   1.968   2.204  0.2572 -1.5087 -1.0654
 3472SOL    HW210737   2.183   1.944   2.179  0.6250 -1.4239  1.0102
 3473SOL     OW10738   2.221   5.210   2.503  0.1505  0.2965  0.3243
 3473SOL    HW110739   2.252   5.248   2.417 -0.7901  0.1777 -0.0813
 3473SOL    HW210740   2.184   5.118   2.488 -2.0785  1.1137  0.4363
 3474SOL     OW10741   3.487   5.303   2.530  0.2387 -0.4724  0.1431
 3474SOL    HW110742   3.433   5.331   2.610 -2.1645  0.1479 -1.5539
 3474SOL    HW210743   3.479   5.204   2.517  1.4209 -0.7158  1.1755
 3475SOL     OW10744   1.686   0.674   3.431 -0.2997 -0.2143  0.7684
 3475SOL    HW110745   1.728   0.765   3.425  0.5860 -0.7161 -1.5749
 3475SOL    HW210746   1.602   0.680   3.485 -0.3932  2.0446  0.4744
 3476SOL     OW10747   2.695   5.353   4.193 -0.2531 -0.0386  0.5562
 3476SOL    HW110748   2.693   5.358   4.093  0.4570  0.0414  0.5422
 3476SOL    HW210749   2.700   5.258   4.221  1.8459  0.0016  0.4494
 3477SOL     OW10750   1.733   1.120   3.387 -0.5639  0.9245 -0.3710
 3477SOL    HW110751   1.726   1.102   3.485  1.3023  0.8955 -0.2137
 3477SOL    HW210752   1.820   1.085   3.352 -0.4895  2.3199 -1.7151
 3478SOL     OW10753   3.447   5.175   3.726 -0.4575 -0.2535 -0.3688
 3478SOL    HW110754   3.390   5.094   3.723 -0.6588 -0.1195 -3.0575
 3478SOL    HW210755   3.543   5.149   3.715  0.0164 -0.3805  2.9945
 3479SOL     OW10756   2.856   3.968   1.103 -0.1427 -0.1331 -0.2476
 3479SOL    HW110757   2.953   3.972   1.081 -0.4949 -1.3292 -2.2729
 3479SOL    HW210758   2.823   3.874   1.091 -1.7859  0.4788 -0.8011
 3480SOL     OW10759   1.771   4.720   2.433  0.4813  0.5464 -0.3581
 3480SOL    HW110760   1.681   4.749   2.464  0.8793  1.8469 -0.3638
 3480SOL    HW210761   1.842   4.761   2.491  1.1860  1.9272 -2.0969
 3481SOL     OW10762   2.451   0.203   3.274  0.1200  0.1302  0.3726
 3481SOL    HW110763   2.500   0.117   3.288  1.1813  0.3084 -1.7535
 3481SOL    HW210764   2.454   0.227   3.177 -2.8540  1.0022  0.4010
 3482SOL     OW10765   2.123   3.209   3.201  0.0658 -0.0694 -0.2430
 3482SOL    HW110766   2.184   3.281   3.234 -2.1071  1.3270  0.9264
 3482SOL    HW210767   2.106   3.222   3.103  0.5896  0.3106 -0.2847
 3483SOL     OW10768   1.805   4.294   1.943  0.0773  0.3184  0.4812
 3483SOL    HW110769   1.832   4.380   1.986  1.9263  0.1792 -0.3291
 3483SOL    HW210770   1.868   4.221   1.971  0.2669 -0.1425 -1.0632
 3484SOL     OW10771   3.035   3.330   3.342  0.4803  0.6950  0.2009
 3484SOL    HW110772   2.969   3.342   3.417 -2.2982 -1.3787 -1.6766
 3484SOL    HW210773   3.092   3.250   3.361  1.5441  1.6522  1.1806
 3485SOL     OW10774   1.959   4.468   3.717 -0.2666  0.3357  0.1295
 3485SOL    HW110775   1.996   4.413   3.792 -1.3359  0.3586  0.7021
 3485SOL    HW210776   1.993   4.561   3.724 -0.1940  0.2858  0.4699
 3486SOL     OW10777   2.827   4.247   3.661  0.5850 -0.0199  0.6130
 3486SOL    HW110778   2.802   4.154   3.689 -2.1198 -0.1853 -1.8806
 3486SOL    HW210779   2.768   4.312   3.708 -1.4628 -0.0627 -1.7009
 3487SOL     OW10780   1.596   5.080   1.809  0.1889  0.4829 -0.0267
 3487SOL    HW110781   1.594   5.014   1.885 -0.7153  0.3041 -0.1876
 3487SOL    HW210782   1.690   5.092   1.777  0.3638 -0.7877 -0.0439
 3488SOL     OW10783   3.269   3.986   1.325 -0.5801 -0.1674  0.0217
 3488SOL    HW110784   3.220   3.967   1.410 -0.5055  0.0326  0.1112
 3488SOL    HW210785   3.313   3.902   1.293 -0.9495 -0.3367 -0.0400
 3489SOL     OW10786   2.330   0.472   3.844  0.0488  0.3194 -0.1459
 3489SOL    HW110787   2.267   0.548   3.858  0.8958  1.0534 -0.2391
 3489SOL    HW210788   2.353   0.465   3.746 -0.8278 -0.7276 -0.3062
 3490SOL     OW10789   2.272   3.191   4.085 -0.5338  0.2800  0.4397
 3490SOL    HW110790   2.233   3.283   4.094 -0.4281  0.2713  1.0274
 3490SOL    HW210791   2.244   3.135   4.162 -0.6864 -0.2207  0.0289
 3491SOL     OW10792   3.227   0.053   2.131  0.7967 -0.2907 -0.9688
 3491SOL    HW110793   3.298  -0.008   2.166  1.5141 -0.0680 -1.9951
 3491SOL    HW210794   3.270   0.126   2.078 -0.1440  0.3921 -0.8032
 3492SOL     OW10795   3.346   3.556   3.004 -0.2077 -0.4386  0.0260
 3492SOL    HW110796   3.344   3.467   3.049  1.2918 -0.4994  0.0280
 3492SOL    HW210797   3.423   3.609   3.038  0.2408 -0.0028 -1.5480
 3493SOL     OW10798   2.474   0.166   3.640  0.1973  0.1183 -0.2595
 3493SOL    HW110799   2.399   0.213   3.687  0.4818  1.0618 -0.7229
 3493SOL    HW210800   2.556   0.168   3.698 -0.1610 -1.0897  0.3348
 3494SOL     OW10801   2.063   2.806   4.636  0.5174 -0.0456  0.4381
 3494SOL    HW110802   1.987   2.747   4.660  1.3291 -1.8122 -1.0100
 3494SOL    HW210803   2.128   2.754   4.580  0.7298  2.5228 -1.9187
 3495SOL     OW10804   2.084   2.215   0.602 -0.0131  0.2422  0.1016
 3495SOL    HW110805   2.070   2.272   0.521 -1.1643 -1.2479 -0.8032
 3495SOL    HW210806   2.069   2.119   0.578  2.8333 -0.6270  1.3370
 3496SOL     OW10807   1.939   0.090   5.025  0.3194 -0.2502 -0.1108
 3496SOL    HW110808   1.870   0.142   4.974  0.2084  0.1800  0.4680
 3496SOL    HW210809   2.006   0.152   5.065  0.5077 -0.5964  0.1193
 3497SOL     OW10810   4.258   4.375   4.059 -0.2038  0.3919 -0.2190
 3497SOL    HW110811   4.209   4.288   4.049 -0.0921  0.1907  0.8766
 3497SOL    HW210812   4.335   4.377   3.996  0.3533 -0.7069  0.3975
 3498SOL     OW10813   3.320   0.445   4.196  0.0585  0.0875  0.0430
 3498SOL    HW110814   3.382   0.522   4.211  1.4124 -0.8168 -0.6322
 3498SOL    HW210815   3.335   0.375   4.266  0.3037 -0.4211 -0.4983
 3499SOL     OW10816   2.577   4.856   4.475 -0.3711 -0.0962 -0.6003
 3499SOL    HW110817   2.611   4.949   4.461  0.2133 -0.4672 -1.7689
 3499SOL    HW210818   2.479   4.852   4.454 -0.6493  0.4807  0.5364
 3500SOL     OW10819   1.513   4.716   4.798 -0.0270 -0.1395  0.0898
 3500SOL    HW110820   1.580   4.776   4.754 -0.3340  0.4691  0.4477
 3500SOL    HW210821   1.456   4.673   4.728 -1.4593  1.9165 -0.1045
 3501SOL     OW10822   3.462   5.537   0.285  0.8346 -0.4416  0.6427
 3501SOL    HW110823   3.450   5.491   0.372  0.2625 -0.0564  0.7736
 3501SOL    HW210824   3.373   5.555   0.243  1.0251  0.6850  0.6771
 3502SOL     OW10825   1.493   5.072   5.391 -0.0727  0.2223  0.4583
 3502SOL    HW110826   1.571   5.010   5.401  0.0352  0.3287  0.2853
 3502SOL    HW210827   1.419   5.025   5.343  0.4222  0.5762 -0.6718
 3503SOL     OW10828   3.098   3.473   3.867 -0.7185 -0.6702  0.3042
 3503SOL    HW110829   3.059   3.441   3.954 -0.7206 -0.7322  0.2798
 3503SOL    HW210830   3.097   3.399   3.800 -0.6237 -0.6514  0.2820
 3504SOL     OW10831   2.359   0.780   4.606 -0.1742 -0.0514  0.2999
 3504SOL    HW110832   2.347   0.710   4.676 -0.0740 -1.7160 -1.2638
 3504SOL    HW210833   2.456   0.804   4.599 -0.2644  0.6159  1.1481
 3505SOL     OW10834   2.420   4.964   5.382 -0.1252 -0.2034 -0.3255
 3505SOL    HW110835   2.400   4.866   5.380  1.2600 -0.4917 -0.8470
 3505SOL    HW210836   2.516   4.978   5.407 -0.3576  1.0375 -0.0642
 3506SOL     OW10837   3.717   4.779   5.107  0.1528 -0.0774 -0.2445
 3506SOL    HW110838   3.773   4.783   5.024 -1.2155 -0.5184 -1.2157
 3506SOL    HW210839   3.776   4.791   5.187  1.9726 -2.5195 -1.0957
 3507SOL     OW10840   4.280   3.350   0.529  0.5972  0.2639 -0.1768
 3507SOL    HW110841   4.333   3.287   0.586 -0.1684  0.3101  0.6034
 3507SOL    HW210842   4.277   3.315   0.435  1.9584  0.2355 -0.2363
 3508SOL     OW10843   1.541   5.282   5.208 -0.1779  0.2120 -0.2100
 3508SOL    HW110844   1.637   5.298   5.185 -0.1504  2.7381  1.2782
 3508SOL    HW210845   1.534   5.198   5.262  1.0922 -0.2859 -0.7626
 3509SOL     OW10846   3.235   3.019   5.322 -0.4638 -0.6620  0.5553
 3509SOL    HW110847   3.157   3.005   5.383 -0.4699  1.3536  1.0774
 3509SOL    HW210848   3.318   2.983   5.366 -0.9013 -1.8081  0.4755
 3510SOL     OW10849   1.355   0.220   3.555  0.3033 -0.4812 -0.1416
 3510SOL    HW110850   1.266   0.179   3.574  0.4604 -1.0182 -0.5395
 3510SOL    HW210851   1.343   0.318   3.539 -0.1934 -0.5201 -0.0404
 3511SOL     OW10852   0.843   4.846   3.460 -0.0621  0.5243 -0.1842
 3511SOL    HW110853   0.833   4.917   3.390  0.9610  0.6910 -0.1686
 3511SOL    HW210854   0.801   4.761   3.427 -0.4487  0.8710 -0.5925
 3512SOL     OW10855   3.180   0.030   0.186  0.0534 -0.0833 -0.1913
 3512SOL    HW110856   3.101   0.041   0.126 -0.5384 -1.5318  0.2884
 3512SOL    HW210857   3.151  -0.003   0.275  1.2490 -1.4395 -0.2576
 3513SOL     OW10858   2.293   4.271   4.329 -1.3323  0.2669  0.5978
 3513SOL    HW110859   2.202   4.312   4.326 -3.0466 -3.2863 -0.9922
 3513SOL    HW210860   2.287   4.177   4.363  1.7391 -0.1856  0.2150
 3514SOL     OW10861   2.668   3.088   4.664  0.3228  0.2882  0.4881
 3514SOL    HW110862   2.702   3.013   4.608  1.5071  0.8614  0.4024
 3514SOL    HW210863   2.651   3.055   4.757  1.7632  0.1077  0.7076
 3515SOL     OW10864   1.814   4.230   4.028 -0.1804  0.1407  0.1532
 3515SOL    HW110865   1.817   4.302   4.098 -0.0130  0.1706  0.1160
 3515SOL    HW210866   1.897   4.235   3.972  0.6459 -1.1430  1.2048
 3516SOL     OW10867   2.720   0.772   3.972  0.3555  0.5864  0.3648
 3516SOL    HW110868   2.630   0.804   3.943  0.2018  0.3224  0.5541
 3516SOL    HW210869   2.713   0.679   4.007  0.4989  0.9908  1.4889
 3517SOL     OW10870   2.059   0.644   4.658  0.1980  0.0034 -0.4674
 3517SOL    HW110871   2.140   0.679   4.705  0.9662 -0.8520 -1.1147
 3517SOL    HW210872   2.084   0.562   4.606 -0.9523  0.0829 -1.1705
 3518SOL     OW10873   4.032   4.567   2.952  0.3400 -0.2644  0.5985
 3518SOL    HW110874   4.017   4.644   3.014  3.3535  0.8418  0.1284
 3518SOL    HW210875   3.984   4.487   2.987 -2.1828  1.5477  1.5750
 3519SOL     OW10876   0.245   4.269   3.620 -0.0644  0.2415  0.1388
 3519SOL    HW110877   0.305   4.191   3.640  1.0389  0.6088 -1.5474
 3519SOL    HW210878   0.152   4.248   3.652 -0.2047 -2.4830 -1.7277
 3520SOL     OW10879   2.599   3.369   4.342 -0.4007  0.5649 -0.0449
 3520SOL    HW110880   2.546   3.404   4.265 -0.8851  0.7973  0.3807
 3520SOL    HW210881   2.691   3.409   4.341  0.4682 -1.3148 -1.8820
 3521SOL     OW10882   1.783   1.058   4.270  0.0231  0.4150 -0.1171
 3521SOL    HW110883   1.749   1.106   4.189  0.3831  0.9888  0.0662
 3521SOL    HW210884   1.715   0.991   4.300 -0.2340  0.4026 -0.7225
 3522SOL     OW10885   4.365   4.983   3.705 -0.2855  0.0159 -0.7379
 3522SOL    HW110886   4.428   5.060   3.700  1.0309 -0.9471  0.0968
 3522SOL    HW210887   4.311   4.990   3.789 -0.7242  0.4196 -1.0490
 3523SOL     OW10888   2.118   0.656   3.523  0.2061  0.8704 -0.5248
 3523SOL    HW110889   2.039   0.651   3.584  0.2498 -1.5196 -0.5457
 3523SOL    HW210890   2.157   0.748   3.525 -0.3858  1.1331  2.2631
 3524SOL     OW10891   0.873   1.791   5.323 -0.4605 -0.1628 -0.9181
 3524SOL    HW110892   0.896   1.874   5.374  0.4608  1.0192 -3.1153
 3524SOL    HW210893   0.780   1.798   5.288 -1.2856 -1.2055  0.9302
 3525SOL     OW10894   3.848   2.830   2.526 -0.3706  0.3596  0.1905
 3525SOL    HW110895   3.809   2.876   2.606  0.9671 -0.9345  1.6573
 3525SOL    HW210896   3.845   2.892   2.448 -0.3711  2.2479  1.5983
 3526SOL     OW10897   3.253   1.949   0.777 -0.1628  0.6948 -0.1181
 3526SOL    HW110898   3.191   1.919   0.850  0.3935  0.2546  0.1759
 3526SOL    HW210899   3.320   2.012   0.814 -0.8920  1.7958 -0.5934
 3527SOL     OW10900   3.086   2.691   4.270  0.1091 -0.1555  0.4586
 3527SOL    HW110901   3.030   2.647   4.340  0.0549  1.3191  1.3965
 3527SOL    HW210902   3.153   2.626   4.234  1.7431 -0.4182  3.5957
 3528SOL     OW10903   3.118   5.438   5.115  0.1924 -0.1465  0.3849
 3528SOL    HW110904   3.036   5.381   5.104 -0.4307  1.1459 -2.4815
 3528SOL    HW210905   3.145   5.475   5.027  3.0170  0.7295  1.5100
 3529SOL     OW10906   4.981   5.024  -0.027  0.2548 -0.0930 -0.2919
 3529SOL    HW110907   4.921   5.070   0.038  0.1733  0.2785 -0.6278
 3529SOL    HW210908   5.072   5.012   0.015 -0.2334 -1.3102  0.4861
 3530SOL     OW10909   2.186   3.998   3.145  0.3056  0.0234  0.3411
 3530SOL    HW110910   2.286   3.998   3.140  0.3498 -0.2407  1.1524
 3530SOL    HW210911   2.158   4.025   3.237 -0.3970  1.6661 -0.3197
 3531SOL     OW10912   3.671   4.401   0.685  0.4940 -0.1209 -0.0273
 3531SOL    HW110913   3.722   4.381   0.768 -0.4825  2.1215  1.2169
 3531SOL    HW210914   3.597   4.335   0.674 -0.3469  0.4509  1.8043
 3532SOL     OW10915   3.754   0.815   4.220  0.5673 -0.1427 -0.1257
 3532SOL    HW110916   3.777   0.795   4.316  1.0339 -0.6079 -0.3308
 3532SOL    HW210917   3.790   0.904   4.195  0.1774  0.1189  0.2205
 3533SOL     OW10918   2.630   3.096   4.295 -0.5247 -0.2838 -0.0216
 3533SOL    HW110919   2.575   3.048   4.363 -1.5615 -0.4793 -0.9635
 3533SOL    HW210920   2.621   3.194   4.308  0.9748 -0.2989  1.4209
 3534SOL     OW10921   1.828   3.291   1.030 -0.3228  0.1716  1.1472
 3534SOL    HW110922   1.806   3.196   1.008  0.5138  0.6210 -2.0317
 3534SOL    HW210923   1.743   3.345   1.033 -0.5507  0.0444 -1.1767
 3535SOL     OW10924   4.623   0.432   5.093 -0.2866  0.4381  0.5437
 3535SOL    HW110925   4.527   0.404   5.091 -0.8431  2.0426  2.3106
 3535SOL    HW210926   4.632   0.525   5.057  1.1264 -0.7501 -2.5436
 3536SOL     OW10927   3.165   3.105   3.409  1.0345  0.2756 -0.1757
 3536SOL    HW110928   3.132   3.057   3.490  0.0447  0.4709 -0.4459
 3536SOL    HW210929   3.224   3.045   3.355 -1.1489 -1.1146 -1.1538
 3537SOL     OW10930   3.588   4.318   3.235 -0.0467 -0.2338 -0.7397
 3537SOL    HW110931   3.546   4.394   3.285  0.5180 -0.5705  0.2864
 3537SOL    HW210932   3.687   4.326   3.240  0.0175 -1.0571 -0.5705
 3538SOL     OW10933   0.650   3.904   0.200 -0.2361 -0.0313 -0.2034
 3538SOL    HW110934   0.676   3.927   0.106 -1.1420 -1.0593 -0.7450
 3538SOL    HW210935   0.683   3.974   0.263  2.1696 -0.3393 -1.0195
 3539SOL     OW10936   1.841   0.430   5.324 -0.0618 -0.3222  0.3565
 3539SOL    HW110937   1.796   0.425   5.413 -2.3433  0.3344 -0.6770
 3539SOL    HW210938   1.779   0.397   5.253  2.4931 -3.0527 -0.8406
 3540SOL     OW10939   0.575   5.250   3.474 -0.6893 -0.2318 -0.6335
 3540SOL    HW110940   0.610   5.223   3.384  0.9708 -0.4637  0.0500
 3540SOL    HW210941   0.612   5.340   3.498 -1.1628 -0.1463 -0.2088
 3541SOL     OW10942   4.094   4.171   4.002  0.0885 -0.0730 -0.5452
 3541SOL    HW110943   4.105   4.111   3.922 -0.1320 -0.8775  0.0122
 3541SOL    HW210944   4.014   4.142   4.055  0.8783 -0.2815  0.5789
 3542SOL     OW10945   4.843   0.124   2.777  0.0554  0.1630 -0.3257
 3542SOL    HW110946   4.859   0.128   2.678 -0.0574 -1.1842 -0.4288
 3542SOL    HW210947   4.798   0.037   2.799  1.9333 -0.5182  1.1261
 3543SOL     OW10948   2.502   3.804   4.998 -0.2387 -0.4187  0.2803
 3543SOL    HW110949   2.564   3.824   4.922  0.7646 -1.4014  0.8076
 3543SOL    HW210950   2.444   3.884   5.015 -0.5533 -0.2164 -1.5617
 3544SOL     OW10951   2.910   1.226   3.219  0.0676  0.3055 -0.1233
 3544SOL    HW110952   2.976   1.155   3.191  1.4164  1.4961 -0.0932
 3544SOL    HW210953   2.852   1.249   3.141  0.6087  0.1971 -0.5704
 3545SOL     OW10954   2.203   4.972   1.762 -0.4076  0.0491 -0.6588
 3545SOL    HW110955   2.201   4.997   1.666 -1.4754  1.8949 -0.2013
 3545SOL    HW210956   2.271   5.028   1.810  0.1374 -0.8720 -0.3400
 3546SOL     OW10957   3.892   4.274   4.716  0.1584 -0.0904 -0.0962
 3546SOL    HW110958   3.968   4.289   4.653 -0.2353 -0.3686 -0.6537
 3546SOL    HW210959   3.831   4.353   4.715  0.3322  0.0504  0.2024
 3547SOL     OW10960   2.664   4.610   4.563 -0.3579 -0.2188 -1.1203
 3547SOL    HW110961   2.624   4.699   4.539  0.2409  0.9445  1.7813
 3547SOL    HW210962   2.726   4.621   4.640  1.7411 -2.8079 -2.2872
 3548SOL     OW10963   2.190   4.761   2.918  0.1384 -0.3117 -0.3671
 3548SOL    HW110964   2.179   4.860   2.924 -0.6176 -0.4570  1.3450
 3548SOL    HW210965   2.287   4.738   2.913  0.3120  0.5051 -0.8610
 3549SOL     OW10966   3.911   2.619   3.391  0.3506 -0.6233  0.5434
 3549SOL    HW110967   3.868   2.565   3.464 -0.6312  0.2073  0.6054
 3549SOL    HW210968   3.865   2.707   3.384 -0.1598 -1.0272 -1.6894
 3550SOL     OW10969   2.754   4.568   4.322 -1.3567 -0.0590 -0.2920
 3550SOL    HW110970   2.723   4.590   4.414 -1.1406 -0.5403 -0.0997
 3550SOL    HW210971   2.780   4.471   4.318 -2.4143 -0.3189 -1.1527
 3551SOL     OW10972   3.878   0.418   1.885 -0.2996 -0.0094  0.0562
 3551SOL    HW110973   3.947   0.391   1.952 -0.7403  0.4849  0.7237
 3551SOL    HW210974   3.922   0.435   1.797  0.3237 -0.4015  0.2828
 3552SOL     OW10975   2.597   4.684   3.850 -0.2350 -0.2524 -0.2650
 3552SOL    HW110976   2.569   4.654   3.941 -0.2138  0.3794 -0.0431
 3552SOL    HW210977   2.593   4.784   3.845 -3.1610 -0.3200 -1.8741
 3553SOL     OW10978   3.633   4.554   3.398 -0.1536 -0.0779 -0.1416
 3553SOL    HW110979   3.577   4.625   3.440 -1.2524 -0.2357 -1.2997
 3553SOL    HW210980   3.730   4.577   3.412 -0.4805  1.3498 -0.0183
 3554SOL     OW10981   3.003   4.603   4.538 -0.0390  0.2450 -0.1500
 3554SOL    HW110982   2.931   4.608   4.607 -0.6669  1.2293 -0.8534
 3554SOL    HW210983   2.963   4.580   4.449  0.4913  0.8814 -0.5682
 3555SOL     OW10984   3.971   2.806   4.625 -0.3000 -0.1511 -0.0514
 3555SOL    HW110985   3.988   2.712   4.596  0.5898  0.1774 -0.6300
 3555SOL    HW210986   3.955   2.807   4.724 -0.4499 -0.9239 -0.0608
 3556SOL     OW10987   2.458   5.518   3.959  0.5922  1.1769  0.0298
 3556SOL    HW110988   2.438   5.616   3.955  1.3155  1.3311  0.0757
 3556SOL    HW210989   2.401   5.476   4.029 -0.2012  1.4390 -0.4399
 3557SOL     OW10990   2.119   0.533   1.131  0.6223 -0.1986  0.7137
 3557SOL    HW110991   2.055   0.580   1.071  0.1834  0.7910  1.9056
 3557SOL    HW210992   2.089   0.438   1.144 -0.0820 -0.0078  0.5215
 3558SOL     OW10993   2.978   4.948   4.256  0.0332 -0.6087  0.0631
 3558SOL    HW110994   2.945   4.854   4.247  1.5251 -1.3556  1.6342
 3558SOL    HW210995   3.065   4.957   4.208  0.7443 -0.5609  1.3020
 3559SOL     OW10996   3.154   4.661   4.835 -0.1866 -0.0055  0.1192
 3559SOL    HW110997   3.155   4.677   4.934  1.4283 -0.8841  0.2862
 3559SOL    HW210998   3.225   4.716   4.792  0.6331 -1.3045 -0.2313
 3560SOL     OW10999   3.109   3.911   3.281 -0.6620 -0.3115 -0.2400
 3560SOL    HW111000   3.191   3.867   3.243 -1.6161 -2.0700 -0.3788
 3560SOL    HW211001   3.128   4.007   3.298  1.7514 -0.8734  0.6552
 3561SOL     OW11002   1.473   3.931   0.045 -0.5668 -0.1153 -0.0361
 3561SOL    HW111003   1.535   3.953  -0.031  0.4421 -1.5391  0.3289
 3561SOL    HW211004   1.379   3.937   0.013 -0.1681 -2.2220 -1.9270
 3562SOL     OW11005   2.022   5.274   0.795 -0.1286 -0.1915  0.3868
 3562SOL    HW111006   1.993   5.185   0.762  1.0898  0.5071 -3.0150
 3562SOL    HW211007   2.118   5.269   0.825 -0.1847 -0.1097  0.5822
 3563SOL     OW11008   2.391   5.280   0.374  0.0360  0.4310  0.0864
 3563SOL    HW111009   2.470   5.286   0.312 -0.3228 -2.4640 -0.8244
 3563SOL    HW211010   2.307   5.286   0.320 -0.2907 -0.9185  0.4039
 3564SOL     OW11011   2.769   3.469   4.864 -0.3124 -0.4016  0.4549
 3564SOL    HW111012   2.854   3.509   4.898 -0.6608 -0.8303  1.8900
 3564SOL    HW211013   2.710   3.444   4.941 -0.7718 -2.2271 -0.4201
 3565SOL     OW11014   2.866   2.474   0.077  0.0413 -0.5329  0.5624
 3565SOL    HW111015   2.903   2.567   0.071 -1.2286 -0.0090  0.3587
 3565SOL    HW211016   2.936   2.412   0.111  1.0203  0.4371  0.3717
 3566SOL     OW11017   3.432   2.942   3.725 -0.1250  0.1194  0.1992
 3566SOL    HW111018   3.353   2.883   3.746  1.2412 -0.8591  3.2615
 3566SOL    HW211019   3.489   2.898   3.655 -0.5737 -0.8243  0.4093
 3567SOL     OW11020   2.773   4.265   4.604 -0.1011  0.0244  0.3001
 3567SOL    HW111021   2.857   4.214   4.591 -0.4215 -0.4277  0.0015
 3567SOL    HW211022   2.739   4.298   4.516  0.0569  0.6829  0.4775
 3568SOL     OW11023   2.643   2.328   4.439  0.4368  0.2561 -0.1587
 3568SOL    HW111024   2.715   2.317   4.508 -1.4704 -1.1514  1.7148
 3568SOL    HW211025   2.638   2.245   4.382  1.3583  1.0294 -1.4294
 3569SOL     OW11026   1.969   3.265   4.071  0.5167 -0.4389 -0.2251
 3569SOL    HW111027   2.002   3.180   4.030  0.0608 -0.1036 -1.3108
 3569SOL    HW211028   2.041   3.334   4.065  0.3093 -0.2698 -0.8554
 3570SOL     OW11029   3.858   4.165   3.427  0.0829 -0.4364  0.0463
 3570SOL    HW111030   3.955   4.182   3.413 -0.3759  1.5350 -1.1753
 3570SOL    HW211031   3.844   4.118   3.514  2.1353 -1.1506  0.0361
 3571SOL     OW11032   1.616   0.875   1.728 -0.4089 -0.4493 -0.0731
 3571SOL    HW111033   1.712   0.900   1.719 -0.4971 -0.2544 -0.5045
 3571SOL    HW211034   1.605   0.811   1.804 -0.2168  0.9945  1.2188
 3572SOL     OW11035   2.122   5.099   3.308  0.2443 -0.3970  0.2760
 3572SOL    HW111036   2.033   5.138   3.284 -0.6158 -1.6942  1.1847
 3572SOL    HW211037   2.195   5.152   3.265 -0.8827  1.5766  0.6990
 3573SOL     OW11038   4.747   0.035   4.824 -0.0807  0.1678  0.0703
 3573SOL    HW111039   4.807  -0.034   4.784 -1.0154 -1.2811  1.0534
 3573SOL    HW211040   4.771   0.049   4.920  1.6370  3.0410 -0.6565
 3574SOL     OW11041   3.617   4.021   2.484  0.2215 -0.2665 -0.5062
 3574SOL    HW111042   3.600   3.937   2.537 -0.2132  0.7226  0.9716
 3574SOL    HW211043   3.531   4.052   2.444 -0.3294  1.1886  1.6221
 3575SOL     OW11044   2.159   4.478   3.121 -0.0149  0.6065 -0.3276
 3575SOL    HW111045   2.226   4.419   3.166 -1.1020 -1.9751 -1.8533
 3575SOL    HW211046   2.106   4.527   3.190 -0.3318 -1.7107  1.1806
 3576SOL     OW11047   2.532   4.454   0.570 -0.2761  0.3664  0.4691
 3576SOL    HW111048   2.477   4.537   0.568 -0.3517  0.2964 -0.9390
 3576SOL    HW211049   2.473   4.376   0.593 -0.0955  0.7437  2.3992
 3577SOL     OW11050   3.411   5.399   3.851  0.1125 -0.0080  0.2101
 3577SOL    HW111051   3.492   5.422   3.904 -0.2524 -0.4035  0.9501
 3577SOL    HW211052   3.430   5.320   3.793  0.4431  0.2882 -0.0909
 3578SOL     OW11053   2.983   3.048   4.448 -0.5071  0.0348 -0.4438
 3578SOL    HW111054   3.024   2.970   4.494 -1.2198 -1.2027 -1.8113
 3578SOL    HW211055   2.972   3.124   4.512  1.3327 -0.5408  0.6099
 3579SOL     OW11056   0.140   2.042   4.724  0.0791 -0.0556  0.0516
 3579SOL    HW111057   0.162   1.945   4.737  1.4933  0.1870 -0.3427
 3579SOL    HW211058   0.098   2.078   4.807  1.3039 -0.5587  0.9273
 3580SOL     OW11059   3.171   5.111   3.481  0.5205 -0.3481 -0.3178
 3580SOL    HW111060   3.202   5.180   3.415  0.4856 -1.5152 -1.5876
 3580SOL    HW211061   3.238   5.104   3.555  1.2568  0.0175 -0.9339
 3581SOL     OW11062   3.459   3.809   0.036  0.2835 -0.0794 -0.0593
 3581SOL    HW111063   3.533   3.748   0.010  1.8543  0.8862  1.7804
 3581SOL    HW211064   3.493   3.874   0.104 -2.2771  0.4264  0.8515
 3582SOL     OW11065   2.797   3.626   0.683  0.8320 -0.2493  0.4771
 3582SOL    HW111066   2.867   3.664   0.623  2.2276 -1.0542  1.5416
 3582SOL    HW211067   2.741   3.561   0.632  0.2657  1.0132 -0.5977
 3583SOL     OW11068   4.697   3.807   3.891 -0.0619 -0.0156 -0.0841
 3583SOL    HW111069   4.680   3.758   3.976 -0.4952 -0.9970 -0.7071
 3583SOL    HW211070   4.651   3.896   3.893  2.3156  1.2621  1.8305
 3584SOL     OW11071   3.124   4.933   2.930 -0.3206  0.0764  0.3415
 3584SOL    HW111072   3.212   4.948   2.977  0.1931  2.5343 -1.2121
 3584SOL    HW211073   3.056   4.996   2.967  0.5414  3.4069 -3.0330
 3585SOL     OW11074   2.230  -0.008   3.300 -0.3256  0.0604 -0.0818
 3585SOL    HW111075   2.227  -0.031   3.203  2.0031  1.3179 -0.5339
 3585SOL    HW211076   2.255   0.088   3.310  1.5837 -0.5506  1.7330
 3586SOL     OW11077   4.238   5.446   4.874 -0.4797 -0.1106  0.1253
 3586SOL    HW111078   4.229   5.348   4.893  0.4220  0.3755  3.6987
 3586SOL    HW211079   4.250   5.496   4.959 -0.1513  3.0984 -1.6377
 3587SOL     OW11080   3.828   5.246   4.643 -0.0438  0.0744 -0.4122
 3587SOL    HW111081   3.790   5.165   4.688 -1.7217  0.6575 -0.6771
 3587SOL    HW211082   3.850   5.315   4.712 -1.1023  0.3648 -0.3513
 3588SOL     OW11083   3.888   0.254   3.638  0.5454 -0.5323 -0.0967
 3588SOL    HW111084   3.808   0.300   3.600  0.4708 -1.2334 -0.8167
 3588SOL    HW211085   3.860   0.170   3.683  0.8455 -0.6464 -0.1197
 3589SOL     OW11086   3.797   4.017   4.770 -0.4907 -0.2984  0.4814
 3589SOL    HW111087   3.818   4.115   4.775 -0.9757 -0.2455  1.8269
 3589SOL    HW211088   3.703   4.001   4.799 -0.3423 -1.1973  0.5061
 3590SOL     OW11089   4.677   0.910   4.455 -0.4728 -0.5461 -0.2553
 3590SOL    HW111090   4.721   0.954   4.533 -0.3581  1.2549 -1.2815
 3590SOL    HW211091   4.585   0.948   4.443 -0.7461 -1.2994 -0.5943
 3591SOL     OW11092   2.076   4.954   0.184  0.0104  0.2848  0.4738
 3591SOL    HW111093   1.984   4.939   0.148  0.3972 -1.5810  0.1628
 3591SOL    HW211094   2.142   4.906   0.127  1.2248  1.8023  0.5532
 3592SOL     OW11095   2.365   3.621   3.612 -0.2836 -0.0534 -0.2603
 3592SOL    HW111096   2.295   3.665   3.557 -1.1609  0.5550  1.2821
 3592SOL    HW211097   2.329   3.536   3.650  1.4001 -2.3191 -3.2535
 3593SOL     OW11098   3.588   4.860   4.809 -0.1624  0.1877 -0.1106
 3593SOL    HW111099   3.595   4.761   4.794  1.6257  0.2201  0.2269
 3593SOL    HW211100   3.492   4.886   4.817 -0.6514 -1.6094  0.3879
 3594SOL     OW11101   3.304   2.740   3.362 -0.1245  0.2563 -0.1537
 3594SOL    HW111102   3.356   2.657   3.340  1.5687  1.2505 -0.0549
 3594SOL    HW211103   3.211   2.714   3.390  0.7391 -1.6987  1.1628
 3595SOL     OW11104   2.189   3.633   4.789  0.4214  0.1142 -0.7219
 3595SOL    HW111105   2.258   3.560   4.788  3.0591  2.4143 -0.0226
 3595SOL    HW211106   2.208   3.696   4.865 -2.6337  0.7991 -0.3950
 3596SOL     OW11107   3.243   4.248   0.576  0.1659 -0.7066 -0.1721
 3596SOL    HW111108   3.215   4.256   0.480 -0.5784  1.0354  0.1606
 3596SOL    HW211109   3.253   4.339   0.616  0.4811 -1.4051  1.4100
 3597SOL     OW11110   0.813   3.610   0.523  0.2391  0.1711  0.1246
 3597SOL    HW111111   0.839   3.664   0.603 -0.2139  1.9775 -0.8878
 3597SOL    HW211112   0.854   3.519   0.530  0.6321  0.4478  2.1345
 3598SOL     OW11113   2.599   3.407   3.906  0.0478 -0.6611  0.0325
 3598SOL    HW111114   2.595   3.337   3.977 -0.6660 -2.1701 -1.4485
 3598SOL    HW211115   2.576   3.367   3.817 -0.7964  1.5423 -0.8152
 3599SOL     OW11116   3.837   4.982   3.774 -0.7114  0.3400  0.3657
 3599SOL    HW111117   3.789   5.016   3.693 -0.5710  2.9633  1.2827
 3599SOL    HW211118   3.871   4.890   3.757 -0.1680  1.0163 -2.7923
 3600SOL     OW11119   4.659   4.045   5.368  0.5715 -0.2434  0.8192
 3600SOL    HW111120   4.653   4.009   5.462  0.3583 -2.7134 -0.0508
 3600SOL    HW211121   4.753   4.072   5.349  0.9355 -1.1110  1.3036
 3601SOL     OW11122   2.579   3.798   5.414 -0.1478 -0.2278  0.1864
 3601SOL    HW111123   2.485   3.780   5.383 -0.1720  0.3159 -0.0641
 3601SOL    HW211124   2.604   3.892   5.392  0.0134  0.0214  1.3624
 3602SOL     OW11125   3.233   0.233   4.609 -0.5734 -0.4434 -0.3655
 3602SOL    HW111126   3.260   0.309   4.667  0.9737 -0.6725 -0.7258
 3602SOL    HW211127   3.226   0.150   4.664 -1.1597 -0.2614 -0.1626
 3603SOL     OW11128   2.785   2.760   4.930  0.0908 -0.9635 -0.0692
 3603SOL    HW111129   2.875   2.804   4.925 -0.1022 -0.5621 -0.1141
 3603SOL    HW211130   2.783   2.697   5.008  0.4244 -1.0106 -0.0954
 3604SOL     OW11131   3.615   4.653   0.625 -0.1388 -0.4836 -0.5949
 3604SOL    HW111132   3.646   4.566   0.664 -2.1977 -1.5080 -1.1400
 3604SOL    HW211133   3.517   4.650   0.610 -0.2642  1.9780 -0.6256
 3605SOL     OW11134   2.712   4.218   3.973 -0.2862  0.6291 -0.6636
 3605SOL    HW111135   2.718   4.245   4.069  0.1822 -0.9662 -0.2118
 3605SOL    HW211136   2.725   4.298   3.914  3.0142  1.1360  0.5409
 3606SOL     OW11137   4.763   4.038   2.286  0.2015  0.4676 -0.1617
 3606SOL    HW111138   4.672   4.004   2.310  1.3392 -1.8571  1.2409
 3606SOL    HW211139   4.774   4.131   2.321 -1.3262  0.4454  0.4531
 3607SOL     OW11140   2.769   4.792   5.427  0.6090 -0.6179 -0.2909
 3607SOL    HW111141   2.812   4.866   5.479 -1.3994  0.0124  0.5696
 3607SOL    HW211142   2.711   4.738   5.487  0.8138 -1.9359 -1.2421
 3608SOL     OW11143   5.145   5.311   4.697  0.6091  0.1552  0.1901
 3608SOL    HW111144   5.213   5.239   4.684  2.6283  1.5594  2.2367
 3608SOL    HW211145   5.178   5.396   4.655 -0.1721  0.6888  0.6260
 3609SOL     OW11146   4.466   4.531   4.530 -0.1971 -0.2409  0.0793
 3609SOL    HW111147   4.446   4.474   4.451  0.4228  1.4862 -1.3922
 3609SOL    HW211148   4.387   4.590   4.549 -1.0462 -1.8250  1.9183
 3610SOL     OW11149   5.069   2.142   0.412  0.4431 -0.2132  0.2074
 3610SOL    HW111150   5.068   2.241   0.424  1.2295 -0.1152 -0.4969
 3610SOL    HW211151   4.994   2.116   0.351 -0.1881 -0.1449  0.9235
 3611SOL     OW11152   1.961   4.860   3.930  0.2124 -0.3540 -0.6609
 3611SOL    HW111153   1.984   4.957   3.927  0.7997 -0.3264  1.8180
 3611SOL    HW211154   1.886   4.840   3.867  0.7743  1.4713 -1.9705
 3612SOL     OW11155   2.684   3.114   0.551  0.0918  0.7144 -0.4988
 3612SOL    HW111156   2.674   3.089   0.454 -0.4572  1.8622 -0.7658
 3612SOL    HW211157   2.777   3.094   0.581  1.2312  3.0417 -2.1342
 3613SOL     OW11158   5.105   0.517   5.303  0.0063 -0.0382 -0.2082
 3613SOL    HW111159   5.165   0.459   5.359 -0.7002  1.2093  1.9549
 3613SOL    HW211160   5.055   0.580   5.362 -0.1191  2.0170 -2.3745
 3614SOL     OW11161   1.406   4.442   4.524  0.2927 -1.4075  0.4413
 3614SOL    HW111162   1.335   4.383   4.561  0.1425 -1.4084  0.1567
 3614SOL    HW211163   1.494   4.394   4.526  0.2491 -1.4815  0.6049
 3615SOL     OW11164   3.116   3.477   4.345  0.2840  0.2524 -0.9673
 3615SOL    HW111165   3.168   3.454   4.426  0.3519  2.2970 -0.3893
 3615SOL    HW211166   3.170   3.537   4.286 -0.0335 -0.6301 -2.1986
 3616SOL     OW11167   1.722   5.094   4.860 -0.2114  0.1978 -0.0046
 3616SOL    HW111168   1.641   5.104   4.918 -0.4347 -1.3068 -0.0227
 3616SOL    HW211169   1.804   5.093   4.917 -0.2543  0.8489  0.0831
 3617SOL     OW11170   1.730   4.609   0.240  0.1770 -0.0350  0.0788
 3617SOL    HW111171   1.788   4.690   0.232  0.3483 -0.1435  0.2110
 3617SOL    HW211172   1.649   4.631   0.294  0.9546 -0.3291  1.4400
 3618SOL     OW11173   2.726   3.581   4.622 -0.0457  0.0850  0.2357
 3618SOL    HW111174   2.730   3.535   4.711 -0.9524  1.5861  1.0914
 3618SOL    HW211175   2.764   3.520   4.552 -0.3354 -1.5831  1.4454
 3619SOL     OW11176   2.416   3.518   4.086 -0.4398  0.5727 -0.6100
 3619SOL    HW111177   2.471   3.482   4.011 -0.2248 -0.3356 -0.0247
 3619SOL    HW211178   2.407   3.617   4.075  1.0374  0.7029 -0.9052
 3620SOL     OW11179   3.968   4.415   4.121 -0.3044  0.4446 -0.5471
 3620SOL    HW111180   3.909   4.401   4.042 -0.9395  0.6778 -0.1241
 3620SOL    HW211181   4.064   4.406   4.093 -0.5713 -2.2756 -0.7786
 3621SOL     OW11182   2.135   3.731   2.167  0.0653 -0.2422 -0.0897
 3621SOL    HW111183   2.083   3.671   2.106  0.8383 -2.3536  1.1997
 3621SOL    HW211184   2.072   3.793   2.214 -0.8063 -0.2138 -1.2534
 3622SOL     OW11185   5.042   4.653   3.861 -0.5853  0.3106 -0.2745
 3622SOL    HW111186   4.967   4.713   3.834 -0.3423  1.0026  0.5510
 3622SOL    HW211187   5.129   4.696   3.838 -0.4160  0.0869 -0.0512
 3623SOL     OW11188   1.421   3.377   4.303 -0.3606 -0.0839  0.6007
 3623SOL    HW111189   1.514   3.413   4.308 -0.5345  0.4278  0.3189
 3623SOL    HW211190   1.423   3.286   4.262 -0.3023  1.5244 -3.5573
 3624SOL     OW11191   5.447   3.357   2.800  0.3071  0.1973  0.3647
 3624SOL    HW111192   5.465   3.425   2.729 -2.8345  2.3163  1.3893
 3624SOL    HW211193   5.482   3.390   2.887 -0.4609  0.1262  0.7097
 3625SOL     OW11194   4.140   2.818   5.183  0.3273 -0.3436  0.6400
 3625SOL    HW111195   4.057   2.761   5.184  1.3779 -1.9510  1.4029
 3625SOL    HW211196   4.136   2.881   5.105 -1.8701  0.0743  1.0155
 3626SOL     OW11197   0.615   4.560   4.248 -0.2709  0.0882 -0.0259
 3626SOL    HW111198   0.639   4.464   4.262 -0.3118  0.0581 -0.1514
 3626SOL    HW211199   0.661   4.594   4.166  0.1395  0.3206  0.2999
 3627SOL     OW11200   1.602   0.150   3.657  0.0020 -0.0441  0.1607
 3627SOL    HW111201   1.506   0.163   3.631  0.0798 -0.0015 -0.1037
 3627SOL    HW211202   1.633   0.060   3.626 -0.7874 -1.2974  2.7337
 3628SOL     OW11203   3.111   4.897   3.919  0.1658  0.3599 -0.8527
 3628SOL    HW111204   3.047   4.829   3.884  0.3182 -0.3373  0.1607
 3628SOL    HW211205   3.066   4.986   3.925 -0.4785  0.0398 -0.8615
 3629SOL     OW11206   2.845   2.807   0.815  0.3511  0.0869  0.0598
 3629SOL    HW111207   2.817   2.716   0.844  1.1463  0.4636  2.1943
 3629SOL    HW211208   2.819   2.874   0.885 -0.3960  1.5631 -1.5492
 3630SOL     OW11209   2.333   3.791   4.042 -0.0522  0.9157  0.1969
 3630SOL    HW111210   2.283   3.771   3.957  1.5606  2.1626 -1.1051
 3630SOL    HW211211   2.272   3.836   4.107 -1.2439  0.1889 -0.3777
 3631SOL     OW11212   2.016   2.815   0.432 -0.3397 -0.2405 -0.5766
 3631SOL    HW111213   2.063   2.795   0.346  0.0718  0.1478 -0.4499
 3631SOL    HW211214   2.081   2.857   0.496 -0.8214  0.1531 -0.3414
 3632SOL     OW11215   2.542   0.103   4.626  0.5209  0.2555  0.1222
 3632SOL    HW111216   2.477   0.175   4.648  2.2964  1.7469  0.7454
 3632SOL    HW211217   2.521   0.066   4.535 -0.4311  1.5604 -0.2200
 3633SOL     OW11218   2.303   3.633   0.092 -0.0064  0.2791 -0.3647
 3633SOL    HW111219   2.328   3.623   0.189  1.4150 -1.3157 -0.8616
 3633SOL    HW211220   2.343   3.717   0.056  0.6740  0.1395  0.0559
 3634SOL     OW11221   4.324   4.014   1.181  0.2944 -0.6823 -0.5730
 3634SOL    HW111222   4.313   4.101   1.132  0.8049  0.1246  0.6959
 3634SOL    HW211223   4.235   3.982   1.214  0.5047  1.9943  3.2501
 3635SOL     OW11224   2.051   0.271   5.252  0.6729  0.1120  0.5459
 3635SOL    HW111225   1.974   0.329   5.279 -1.1495 -2.1704  0.5748
 3635SOL    HW211226   2.136   0.316   5.279 -0.6828  1.8178  2.4314
 3636SOL     OW11227   3.853   2.701   1.086 -0.5628 -0.5622 -0.0406
 3636SOL    HW111228   3.940   2.747   1.073 -0.1699 -1.4547 -0.6518
 3636SOL    HW211229   3.856   2.646   1.169 -0.8923  0.1687  0.4682
 3637SOL     OW11230   2.487   1.741   4.618 -0.5319  0.3479  0.3669
 3637SOL    HW111231   2.488   1.770   4.522  0.7397  0.2836  0.3529
 3637SOL    HW211232   2.580   1.736   4.653 -0.9209 -0.5591  1.3404
 3638SOL     OW11233   0.383   3.557   3.550 -0.5246  0.3067 -0.0206
 3638SOL    HW111234   0.362   3.542   3.646 -0.7865 -0.5473 -0.1990
 3638SOL    HW211235   0.406   3.469   3.507  3.5312  1.1067  0.1619
 3639SOL     OW11236   3.155   0.416   5.079 -0.1536 -0.3883  0.0434
 3639SOL    HW111237   3.235   0.475   5.073  0.2338 -0.8551  0.5628
 3639SOL    HW211238   3.130   0.384   4.988 -0.4981  0.7424 -0.2736
 3640SOL     OW11239   4.253   1.963   4.223  0.1356 -0.0867 -0.4539
 3640SOL    HW111240   4.289   2.051   4.192 -2.0000  1.0798  0.2186
 3640SOL    HW211241   4.252   1.961   4.323 -1.9312  0.0809 -0.4402
 3641SOL     OW11242   3.174   3.751   5.022 -0.0128  0.2336  0.5597
 3641SOL    HW111243   3.189   3.841   5.061  2.8114  0.0512  0.1126
 3641SOL    HW211244   3.226   3.742   4.937 -2.1085 -1.0532 -0.6695
 3642SOL     OW11245   4.854   2.070   3.743  0.3926  0.2634 -0.2393
 3642SOL    HW111246   4.886   2.099   3.833  1.7509 -1.6572 -0.0501
 3642SOL    HW211247   4.786   1.998   3.754  1.0085 -0.4026 -0.7590
 3643SOL     OW11248   3.523   5.496   4.981 -0.1376 -0.4369 -0.2140
 3643SOL    HW111249   3.439   5.533   4.940  1.0152  0.3831 -1.9153
 3643SOL    HW211250   3.555   5.419   4.926  0.2146 -0.7794  0.4627
 3644SOL     OW11251   4.042   4.832   5.475  0.2458  0.0854 -0.2707
 3644SOL    HW111252   3.955   4.830   5.427 -0.5508  0.0591  1.1416
 3644SOL    HW211253   4.055   4.922   5.517  0.4666 -0.2152  0.3043
 3645SOL     OW11254   1.482   1.278   0.723 -0.6546 -0.3519 -0.3340
 3645SOL    HW111255   1.407   1.321   0.773 -0.1850 -1.2744  1.2145
 3645SOL    HW211256   1.502   1.189   0.763  0.8931 -0.3666 -1.0821
 3646SOL     OW11257   2.796   4.302   4.268 -0.2292 -0.5743 -0.4563
 3646SOL    HW111258   2.875   4.256   4.226  1.2251 -0.1036  1.5969
 3646SOL    HW211259   2.728   4.234   4.295  0.4794 -1.2251 -0.2736
 3647SOL     OW11260   4.118   5.013   4.415  0.2169  0.7209 -0.1018
 3647SOL    HW111261   4.065   4.931   4.391 -1.7415  2.1969 -1.1453
 3647SOL    HW211262   4.170   4.996   4.498 -0.1787 -1.5485 -0.2568
 3648SOL     OW11263   1.124   2.103   0.745 -0.3925 -0.4804 -0.2693
 3648SOL    HW111264   1.075   2.136   0.825 -0.5889 -2.4576  0.4668
 3648SOL    HW211265   1.175   2.020   0.768  1.0891 -0.0431 -1.7243
 3649SOL     OW11266   3.456   5.031   2.525  0.4840  0.5096  0.2555
 3649SOL    HW111267   3.538   4.974   2.532  0.0489 -0.1919 -0.1987
 3649SOL    HW211268   3.389   5.000   2.591 -0.2062 -0.2892 -0.7919
 3650SOL     OW11269   0.201   5.153   4.417 -0.2402  0.4345 -0.6023
 3650SOL    HW111270   0.181   5.066   4.461  0.0444  0.6800  0.0339
 3650SOL    HW211271   0.238   5.137   4.326  1.7279 -0.2219  0.2454
 3651SOL     OW11272   1.502   4.049   4.219 -0.3350  0.7978 -0.3221
 3651SOL    HW111273   1.405   4.027   4.210  0.1732 -1.9856 -0.0732
 3651SOL    HW211274   1.545   4.050   4.129 -0.3054  0.3383 -0.3169
 3652SOL     OW11275   2.703   3.777   4.057 -0.1248  0.0694 -0.2908
 3652SOL    HW111276   2.742   3.695   4.098  1.4052  1.2569  0.6852
 3652SOL    HW211277   2.610   3.791   4.092  0.4317 -0.0181  1.2637
 3653SOL     OW11278   2.723   3.591   2.871  0.4122  0.3441 -0.3745
 3653SOL    HW111279   2.798   3.596   2.805  0.7151  1.8781  0.0259
 3653SOL    HW211280   2.637   3.609   2.825  0.6415  1.5817 -0.3644
 3654SOL     OW11281   3.115   2.355   0.160 -0.3742  0.1727 -0.4109
 3654SOL    HW111282   3.071   2.270   0.130  1.5100 -0.9897 -0.0394
 3654SOL    HW211283   3.214   2.345   0.155 -0.0880  2.1811  0.1904
 3655SOL     OW11284   3.377   0.618   3.024  0.1210  0.6663  0.0489
 3655SOL    HW111285   3.407   0.714   3.019  0.3916  0.5669 -0.3175
 3655SOL    HW211286   3.324   0.604   3.107  1.7040  0.6850  1.1110
 3656SOL     OW11287   4.363   4.738   4.857  0.2160 -0.4099  0.3028
 3656SOL    HW111288   4.452   4.703   4.827  0.5198  0.8263 -0.2752
 3656SOL    HW211289   4.294   4.668   4.839  0.7938 -0.7188 -0.9074
 3657SOL     OW11290   3.441   4.665   4.564 -0.0543 -0.3506 -0.1157
 3657SOL    HW111291   3.491   4.661   4.651 -0.5872 -1.1309  0.1651
 3657SOL    HW211292   3.469   4.747   4.513 -0.2107  0.4714  1.0813
 3658SOL     OW11293   2.263   4.123   2.479  0.3338 -0.0263  0.0139
 3658SOL    HW111294   2.237   4.074   2.562  2.0160 -0.0268  0.5661
 3658SOL    HW211295   2.217   4.212   2.477 -0.4556 -0.4159  0.4592
 3659SOL     OW11296   1.538   5.361   3.729  0.4370 -0.1374 -0.0617
 3659SOL    HW111297   1.615   5.396   3.783 -0.0856  0.1627  0.5048
 3659SOL    HW211298   1.532   5.412   3.643 -0.6209  1.5810  0.9668
 3660SOL     OW11299   2.914   3.787   3.414  0.5011 -0.7996 -0.2549
 3660SOL    HW111300   2.997   3.832   3.381  1.3214 -2.0091  0.1121
 3660SOL    HW211301   2.897   3.704   3.360  0.8038 -1.7715  1.1066
 3661SOL     OW11302   2.267   4.950   3.761  0.8630  0.4928  0.1382
 3661SOL    HW111303   2.216   5.022   3.807 -3.1836 -3.0621  1.9352
 3661SOL    HW211304   2.260   4.962   3.662 -2.8815  0.7790  0.3119
 3662SOL     OW11305   3.998   4.663   4.663 -0.1151 -0.2135 -0.4906
 3662SOL    HW111306   3.928   4.711   4.611 -0.7466 -1.6514 -1.0216
 3662SOL    HW211307   4.078   4.647   4.606 -0.7247 -1.6008 -1.0034
 3663SOL     OW11308   3.191   0.100   4.178  0.2649 -0.0032 -0.1407
 3663SOL    HW111309   3.274   0.123   4.229  0.8471  0.6802 -1.3577
 3663SOL    HW211310   3.198   0.137   4.085 -1.0208 -0.7169 -0.5365
 3664SOL     OW11311   3.731   5.177   4.129  0.3894  0.5573 -0.6210
 3664SOL    HW111312   3.716   5.184   4.227 -0.3279  0.3010 -0.7015
 3664SOL    HW211313   3.711   5.084   4.099  2.9480 -0.0550 -0.6455
 3665SOL     OW11314   3.070   3.996   0.346  0.2469 -0.4285 -0.3346
 3665SOL    HW111315   3.156   4.003   0.296  0.2619  0.0969 -0.2440
 3665SOL    HW211316   2.998   3.966   0.283  0.1947  0.5631 -0.7644
 3666SOL     OW11317   3.110   5.298   4.806  0.4472 -0.5100  0.5523
 3666SOL    HW111318   3.150   5.390   4.812 -1.1247  0.2414  0.2221
 3666SOL    HW211319   3.048   5.294   4.728  1.2807 -2.2100 -0.0714
 3667SOL     OW11320   2.320   4.057   5.358 -0.1024 -0.6008 -0.2931
 3667SOL    HW111321   2.226   4.024   5.360 -0.7783  1.2565  0.0294
 3667SOL    HW211322   2.339   4.099   5.269  0.5739 -1.3133 -0.5024
 3668SOL     OW11323   0.793   3.829   2.261 -0.1645  0.4495 -0.1229
 3668SOL    HW111324   0.888   3.838   2.231 -0.1393 -0.3213 -0.2820
 3668SOL    HW211325   0.789   3.836   2.361  0.1621 -0.3444 -0.0524
 3669SOL     OW11326   2.580   4.626   4.119  0.0345 -0.5621 -1.1410
 3669SOL    HW111327   2.511   4.553   4.117  2.1169 -2.6654 -1.7765
 3669SOL    HW211328   2.634   4.618   4.202 -0.4557  1.0723 -0.6378
 3670SOL     OW11329   4.454   3.175   3.537 -0.7647 -0.7710  0.1211
 3670SOL    HW111330   4.523   3.113   3.575  0.0177 -0.6621 -1.0580
 3670SOL    HW211331   4.492   3.267   3.532 -0.9861 -0.7141 -0.5627
 3671SOL     OW11332   2.560   3.926   3.451 -0.6444  0.1756 -0.0059
 3671SOL    HW111333   2.512   3.938   3.537 -1.4508 -4.2318  0.3775
 3671SOL    HW211334   2.597   3.834   3.446  1.3153  0.9700 -3.5161
 3672SOL     OW11335   4.254   5.184   4.687 -0.3427  0.0280 -0.3588
 3672SOL    HW111336   4.340   5.236   4.681  1.0361 -2.2261 -2.0338
 3672SOL    HW211337   4.182   5.232   4.638  0.3939  1.2149 -0.3069
 3673SOL     OW11338   3.914   0.767   3.181 -0.3899  0.1975  0.5637
 3673SOL    HW111339   3.830   0.792   3.132  0.0011  0.4900  0.0205
 3673SOL    HW211340   3.929   0.830   3.257 -0.5120  0.3259  0.4807
 3674SOL     OW11341   3.903   4.534   4.345 -0.1543 -0.1278  0.0577
 3674SOL    HW111342   3.809   4.501   4.347 -0.8856  1.8427  1.1400
 3674SOL    HW211343   3.945   4.509   4.258 -1.2615 -2.0805  0.0428
 3675SOL     OW11344   3.611   4.527   5.060  0.4992  0.8256  0.1028
 3675SOL    HW111345   3.512   4.542   5.070  0.3123  0.2125 -0.6964
 3675SOL    HW211346   3.658   4.615   5.062 -0.0717  1.1290  0.4107
 3676SOL     OW11347   0.079   5.408   4.425 -0.1626 -0.5074 -0.0898
 3676SOL    HW111348   0.117   5.316   4.417  0.1366 -0.3598 -0.3528
 3676SOL    HW211349   0.034   5.433   4.340  0.4343 -0.1063 -0.2921
 3677SOL     OW11350   3.723   3.739   3.794 -0.3656  0.4349 -0.4560
 3677SOL    HW111351   3.782   3.806   3.837 -2.4492  1.1807  1.4297
 3677SOL    HW211352   3.628   3.769   3.800 -1.0756 -1.1085 -2.5958
 3678SOL     OW11353   3.373   2.989   3.266 -0.5531  0.0087  0.8597
 3678SOL    HW111354   3.358   2.895   3.296 -0.7697  0.0189  0.7823
 3678SOL    HW211355   3.407   2.988   3.172  0.1906 -0.0265  1.1217
 3679SOL     OW11356   2.406   3.460   4.770 -0.0159 -0.3135 -0.9473
 3679SOL    HW111357   2.452   3.391   4.716  1.9367  0.2784 -0.1197
 3679SOL    HW211358   2.433   3.452   4.866 -0.9794  0.5981 -0.5732
 3680SOL     OW11359   3.233   4.452   3.573  0.5878 -0.1856 -0.5313
 3680SOL    HW111360   3.168   4.381   3.600  1.6806 -0.5147  1.3309
 3680SOL    HW211361   3.182   4.533   3.545 -0.6465 -0.9848 -0.7109
 3681SOL     OW11362   2.672   3.948   3.847  0.4066  0.5637  0.0966
 3681SOL    HW111363   2.676   3.880   3.920 -1.5857  0.1245 -0.1493
 3681SOL    HW211364   2.666   4.040   3.887  1.3122  0.4821  0.4416
 3682SOL     OW11365   2.295   5.445   4.172  0.0498  0.3981 -0.3082
 3682SOL    HW111366   2.204   5.480   4.196  0.3786 -0.5538  2.8182
 3682SOL    HW211367   2.288   5.349   4.148  0.0576  0.7455 -1.7786
 3683SOL     OW11368   2.066   5.247   3.098 -0.3574 -0.4976 -0.0705
 3683SOL    HW111369   1.998   5.298   3.151  0.7504 -0.5604  1.4649
 3683SOL    HW211370   2.126   5.310   3.051  0.0981 -0.3866  0.6440
 3684SOL     OW11371   1.906   4.644   4.269  0.3103  0.6833 -0.0925
 3684SOL    HW111372   1.879   4.666   4.363 -0.0318 -0.7066  0.1679
 3684SOL    HW211373   1.879   4.718   4.208 -0.7846  0.9720  0.7120
 3685SOL     OW11374   3.666   3.333   3.775 -0.2063 -0.1125  0.0544
 3685SOL    HW111375   3.671   3.399   3.851 -1.3664 -0.7827  0.7328
 3685SOL    HW211376   3.752   3.337   3.723 -0.2245  1.9161  0.0725
 3686SOL     OW11377   3.300   4.187   5.260  0.1234 -0.2528  0.4772
 3686SOL    HW111378   3.280   4.113   5.325  0.4611 -0.8055 -0.0377
 3686SOL    HW211379   3.386   4.168   5.213  0.1416  0.4015  0.2305
 3687SOL     OW11380   1.599   4.718   5.243 -0.1397 -0.5717  0.3047
 3687SOL    HW111381   1.666   4.769   5.189  1.0344 -1.2756  1.0423
 3687SOL    HW211382   1.520   4.695   5.186  0.0957  0.5473 -0.5009
 3688SOL     OW11383   1.981   3.951   4.547 -0.1255  0.5081  0.2801
 3688SOL    HW111384   2.012   4.039   4.510 -2.0091  0.5783 -1.2963
 3688SOL    HW211385   2.031   3.877   4.503 -0.3050  0.7091 -0.2728
 3689SOL     OW11386   1.737   1.323   5.473  0.4295  0.1868 -0.1500
 3689SOL    HW111387   1.789   1.238   5.480  2.0436  1.1483  0.1361
 3689SOL    HW211388   1.735   1.353   5.378  0.1818  0.0255 -0.1963
 3690SOL     OW11389   2.111   4.946   4.635 -0.1113 -0.6758  0.7393
 3690SOL    HW111390   2.099   4.860   4.685  0.1210  0.1140  2.1967
 3690SOL    HW211391   2.115   5.022   4.699  0.8186  0.3309 -0.4574
 3691SOL     OW11392   2.461   4.600   2.113 -0.5181 -0.0752 -0.2954
 3691SOL    HW111393   2.458   4.647   2.025  2.1724 -1.2633 -1.1014
 3691SOL    HW211394   2.504   4.659   2.182  1.1073 -0.5749 -0.8374
 3692SOL     OW11395   4.831   4.687   0.009 -0.1666  0.1163 -0.7880
 3692SOL    HW111396   4.805   4.600  -0.032  1.4620 -0.7709 -0.0175
 3692SOL    HW211397   4.755   4.724   0.062 -0.4045 -1.5578  0.0735
 3693SOL     OW11398   3.513   2.553   1.399 -0.0238 -0.0247 -0.2137
 3693SOL    HW111399   3.579   2.627   1.385  2.6022 -2.0301  0.7805
 3693SOL    HW211400   3.462   2.570   1.483  1.3968  0.1214  0.6517
 3694SOL     OW11401   1.807   4.797   5.076 -0.3305 -0.0309  0.2491
 3694SOL    HW111402   1.825   4.726   5.007  0.7841 -1.5147  1.9654
 3694SOL    HW211403   1.863   4.877   5.056  1.9746 -1.4088  0.7808
 3695SOL     OW11404   5.268   4.737   4.797  0.5011  0.1976  0.0742
 3695SOL    HW111405   5.261   4.827   4.842  1.1238  1.6521 -2.5372
 3695SOL    HW211406   5.310   4.748   4.707 -0.2386 -2.6299 -0.7105
 3696SOL     OW11407   3.985   1.963   4.254  0.1243  0.3184 -0.3044
 3696SOL    HW111408   4.075   1.984   4.217  0.3293  0.8842  0.4983
 3696SOL    HW211409   3.931   1.913   4.186  1.5157 -1.2584 -0.3094
 3697SOL     OW11410   2.684   1.058   4.250  0.3170  0.6612  0.1720
 3697SOL    HW111411   2.728   1.039   4.162 -0.5802 -0.3766 -0.0796
 3697SOL    HW211412   2.740   1.021   4.324  0.1089 -0.2572 -0.1160
 3698SOL     OW11413   2.576   4.857   4.771  0.3452  0.9466  0.2164
 3698SOL    HW111414   2.672   4.882   4.759  0.6795 -0.7079 -0.8896
 3698SOL    HW211415   2.530   4.859   4.682 -0.1718 -0.0696  0.4451
 3699SOL     OW11416   2.927   4.691   4.153  0.3295 -0.4496  0.2404
 3699SOL    HW111417   2.856   4.637   4.198 -1.2082  1.2170 -0.0542
 3699SOL    HW211418   2.921   4.677   4.054 -0.5301  0.6915  0.1024
 3700SOL     OW11419   1.147   0.087   3.671 -0.4776 -0.6691 -0.3834
 3700SOL    HW111420   1.054   0.052   3.675 -0.4654 -0.7039 -0.3972
 3700SOL    HW211421   1.192   0.073   3.759 -0.3330 -1.0847 -0.5210
 3701SOL     OW11422   3.332   4.917   4.813 -0.1536  0.0648 -0.0249
 3701SOL    HW111423   3.300   4.985   4.878  1.3213  2.2244 -1.4153
 3701SOL    HW211424   3.266   4.910   4.738 -0.3309 -0.0597  0.1428
 3702SOL     OW11425   3.164   4.831   4.571  0.5700  0.1869  0.4180
 3702SOL    HW111426   3.214   4.806   4.488  1.5898 -0.1769  1.1215
 3702SOL    HW211427   3.098   4.759   4.593 -0.4794  0.7960 -0.6663
 3703SOL     OW11428   3.026   4.408   4.819 -0.4322  0.5130 -0.1129
 3703SOL    HW111429   3.083   4.490   4.816  1.1272 -0.5300 -0.0733
 3703SOL    HW211430   3.061   4.341   4.754 -2.5896  0.4059 -1.2573
 3704SOL     OW11431   4.303   1.018   1.087 -0.0874 -0.1427 -0.3039
 3704SOL    HW111432   4.375   1.084   1.108  0.4262 -0.4566 -1.0290
 3704SOL    HW211433   4.340   0.946   1.029 -1.1535  0.0890 -1.3193
 3705SOL     OW11434   2.398   4.178   5.101 -0.7622  0.7611  0.2899
 3705SOL    HW111435   2.353   4.124   5.029  0.4651 -0.1887  0.1912
 3705SOL    HW211436   2.493   4.194   5.075  0.3914 -1.5508  2.6393
 3706SOL     OW11437   4.686   0.743   0.850  0.2541 -0.2411 -0.3625
 3706SOL    HW111438   4.715   0.750   0.754  1.4257 -1.2795 -0.1164
 3706SOL    HW211439   4.663   0.647   0.870 -1.7059  0.2458 -0.0497
 3707SOL     OW11440   1.185   1.393   2.525 -0.3741  0.0491  0.3924
 3707SOL    HW111441   1.212   1.304   2.488  0.5551  0.3745  0.2596
 3707SOL    HW211442   1.213   1.466   2.462  0.1198  0.5272  1.1458
 3708SOL     OW11443   0.278   5.114   4.961 -0.0775  0.4727  0.2763
 3708SOL    HW111444   0.298   5.123   4.863 -1.0309  0.0923  0.0345
 3708SOL    HW211445   0.315   5.192   5.010 -0.9481  1.4783 -0.6138
 3709SOL     OW11446   4.483   1.488   4.438  0.6924 -0.2364  0.0021
 3709SOL    HW111447   4.550   1.417   4.417 -1.6085 -2.3653 -0.5837
 3709SOL    HW211448   4.408   1.449   4.492 -0.7884  1.6746 -0.5517
 3710SOL     OW11449   3.936   0.128   1.055  0.4186  0.1273  0.3717
 3710SOL    HW111450   3.836   0.131   1.057  0.3995 -0.5496  0.4124
 3710SOL    HW211451   3.967   0.034   1.041  1.0613  0.2459  0.9522
 3711SOL     OW11452   4.647   5.435   0.973 -0.4664  0.3453 -0.1242
 3711SOL    HW111453   4.618   5.354   1.024 -2.4558 -0.1742 -1.9140
 3711SOL    HW211454   4.724   5.411   0.913 -0.2485  0.1079  0.2453
 3712SOL     OW11455   4.492   3.975   2.348 -0.1114  0.2690 -0.0312
 3712SOL    HW111456   4.472   4.062   2.302 -1.4110  0.7131  1.2891
 3712SOL    HW211457   4.462   3.900   2.290 -2.4657  0.8398  0.3541
 3713SOL     OW11458   5.008   1.557   5.221  0.3544 -0.0515  0.4179
 3713SOL    HW111459   5.051   1.467   5.212 -0.6059 -0.4025 -0.9022
 3713SOL    HW211460   4.921   1.548   5.268 -0.1966  0.0251 -0.5624
 3714SOL     OW11461   2.655   0.427   1.594 -0.0303  0.0475  0.6447
 3714SOL    HW111462   2.708   0.450   1.513  0.7997 -0.1597  1.1118
 3714SOL    HW211463   2.618   0.511   1.635 -1.9352  0.0229 -0.8946
 3715SOL     OW11464   4.349   2.023   0.148  0.6307  0.0787  0.3272
 3715SOL    HW111465   4.356   2.017   0.248 -1.2668 -1.1476  0.4449
 3715SOL    HW211466   4.415   1.962   0.106  1.0290  0.1440  0.8523
 3716SOL     OW11467   3.108   0.355   2.152 -0.0460  0.2254 -0.0517
 3716SOL    HW111468   3.106   0.328   2.056 -2.6428  1.1127 -0.3135
 3716SOL    HW211469   3.074   0.280   2.209 -0.5909  0.4765 -0.0480
 3717SOL     OW11470   2.210   5.310   1.197 -0.3912  0.0722  0.0495
 3717SOL    HW111471   2.238   5.306   1.101  0.0353 -0.8450  0.2021
 3717SOL    HW211472   2.159   5.227   1.221  1.9958 -1.1275  1.3499
 3718SOL     OW11473   0.018   1.281   1.434 -0.0693 -0.0630  0.0098
 3718SOL    HW111474   0.063   1.236   1.357  0.6558  0.3456  0.1790
 3718SOL    HW211475  -0.059   1.335   1.400 -0.0666 -0.2948 -0.3699
 3719SOL     OW11476   4.618   2.525   4.592 -0.1934 -0.5481 -0.4325
 3719SOL    HW111477   4.573   2.472   4.665 -1.7670  0.0381 -0.9359
 3719SOL    HW211478   4.675   2.596   4.633 -0.6119 -0.5874  0.2428
 3720SOL     OW11479   0.087   2.008   5.441  0.3742  0.4733  0.9333
 3720SOL    HW111480   0.113   2.077   5.508 -1.0046  2.4585 -0.4732
 3720SOL    HW211481   0.033   2.050   5.368 -0.0321 -1.9989 -0.3138
 3721SOL     OW11482   4.218   1.035   5.354  0.4298  0.3063  0.0981
 3721SOL    HW111483   4.168   0.991   5.279  2.4503 -0.4343 -0.9027
 3721SOL    HW211484   4.197   1.132   5.356  1.2432  0.6071 -2.2946
 3722SOL     OW11485   5.410   2.750   1.004  0.1673  0.3971  0.7398
 3722SOL    HW111486   5.359   2.745   0.917  2.1812  0.1179 -0.4869
 3722SOL    HW211487   5.365   2.692   1.072  0.0203 -1.6051 -0.9468
 3723SOL     OW11488   4.473   1.397   1.923 -0.4983  0.0167 -0.1876
 3723SOL    HW111489   4.469   1.409   2.022  1.9360 -0.0767 -0.0005
 3723SOL    HW211490   4.422   1.470   1.879  0.1897  1.3716  1.1433
 3724SOL     OW11491   4.179   0.618   5.007 -0.3422 -0.0523  0.6019
 3724SOL    HW111492   4.131   0.630   5.094  0.5890 -1.1417  1.2839
 3724SOL    HW211493   4.251   0.687   4.999  0.5635 -0.8812  1.4074
 3725SOL     OW11494   1.077   5.077   1.217  0.4521 -0.1980  0.6625
 3725SOL    HW111495   0.990   5.029   1.231 -0.6117  1.5482  0.3492
 3725SOL    HW211496   1.152   5.018   1.246 -0.7727 -2.0067  0.3504
 3726SOL     OW11497   0.483   1.635   0.394 -0.2181  0.0608  0.3873
 3726SOL    HW111498   0.543   1.555   0.386 -0.3588 -0.0847  0.7453
 3726SOL    HW211499   0.388   1.606   0.403 -0.3960  0.3075 -0.6233
 3727SOL     OW11500   0.196   0.841   0.784  0.5469  0.5538 -0.2299
 3727SOL    HW111501   0.256   0.802   0.715  0.6355 -0.0562  0.1865
 3727SOL    HW211502   0.166   0.770   0.847  1.6217  1.3353  1.2359
 3728SOL     OW11503   5.305   2.991   5.335 -0.2195 -0.1863 -0.7598
 3728SOL    HW111504   5.238   2.988   5.262  0.0395  0.4089 -1.0290
 3728SOL    HW211505   5.263   2.959   5.420 -1.0708  0.8995 -0.7505
 3729SOL     OW11506   1.561   3.511   0.278 -0.0015  0.3723  0.0426
 3729SOL    HW111507   1.598   3.601   0.256  0.3912  0.0914 -0.4665
 3729SOL    HW211508   1.611   3.473   0.355  0.1788  0.3745 -0.0716
 3730SOL     OW11509   5.198   0.973   3.968 -0.0064 -0.1532  0.7237
 3730SOL    HW111510   5.273   0.998   4.029 -0.0311 -1.4558  1.3406
 3730SOL    HW211511   5.229   0.900   3.906 -0.3059  0.3969 -0.0806
 3731SOL     OW11512   2.433   1.037   4.089 -0.3005  0.9062 -1.2898
 3731SOL    HW111513   2.491   1.055   4.168 -0.9107  0.5857 -0.7607
 3731SOL    HW211514   2.416   0.938   4.082 -2.5632  1.1585 -0.1334
 3732SOL     OW11515   5.157   1.664   4.629  0.0441 -0.9198 -0.2589
 3732SOL    HW111516   5.209   1.750   4.625 -1.6483  0.2384  1.0090
 3732SOL    HW211517   5.067   1.682   4.669 -1.0883 -2.9715 -1.7094
 3733SOL     OW11518   0.138   0.861   1.923  0.1397 -0.1717  0.2360
 3733SOL    HW111519   0.170   0.956   1.916 -2.1657  0.7234  0.9332
 3733SOL    HW211520   0.132   0.834   2.019  0.3004 -0.8665  0.0588
 3734SOL     OW11521   5.042   0.581   1.614 -0.0340 -0.0107  0.2780
 3734SOL    HW111522   5.058   0.554   1.709  0.0953  2.4960  1.0352
 3734SOL    HW211523   5.093   0.665   1.594 -1.4695  0.5091 -1.4478
 3735SOL     OW11524   2.082   0.677   2.041 -0.3681  0.1435  0.0879
 3735SOL    HW111525   2.068   0.595   1.985 -0.2228  1.0855 -1.3871
 3735SOL    HW211526   2.012   0.745   2.019  0.5747  1.1011 -0.0553
 3736SOL     OW11527   4.663   0.922   5.421 -0.0297 -0.0170 -0.7646
 3736SOL    HW111528   4.648   0.941   5.518  1.5302 -1.3369 -0.2231
 3736SOL    HW211529   4.615   0.838   5.396  1.5317 -1.0351 -0.4778
 3737SOL     OW11530   4.967   3.154   1.716  0.1255 -0.7084  0.1238
 3737SOL    HW111531   5.004   3.226   1.774  0.4077  0.2867 -1.2551
 3737SOL    HW211532   5.034   3.080   1.708  0.1501 -0.7753  0.9251
 3738SOL     OW11533   3.426   5.266   0.955 -0.0419  0.1843  0.0089
 3738SOL    HW111534   3.419   5.221   1.044 -0.0962 -0.3111 -0.2406
 3738SOL    HW211535   3.460   5.200   0.887  0.3725  0.6649 -0.2552
 3739SOL     OW11536   5.415   1.164   4.728 -0.2162  0.2250  0.7126
 3739SOL    HW111537   5.407   1.242   4.665 -0.8470 -0.9326 -0.7177
 3739SOL    HW211538   5.507   1.162   4.767 -0.2358  1.7561  0.8964
 3740SOL     OW11539   4.732   1.327   1.616  0.4703  0.1031  0.4080
 3740SOL    HW111540   4.736   1.406   1.556 -0.2841 -1.2141 -1.4791
 3740SOL    HW211541   4.732   1.357   1.711 -1.5403  2.4436 -0.2408
 3741SOL     OW11542   0.381   1.607   2.328 -0.5173 -0.3826 -0.1769
 3741SOL    HW111543   0.434   1.596   2.245 -0.3440  0.7312 -0.2286
 3741SOL    HW211544   0.427   1.561   2.404  1.9060  2.5712  0.3350
 3742SOL     OW11545   5.111   1.649   0.774 -0.3039  0.1534 -0.7875
 3742SOL    HW111546   5.127   1.614   0.866 -2.0256  0.8028 -0.2062
 3742SOL    HW211547   5.028   1.703   0.773 -1.6775 -1.7870 -3.2208
 3743SOL     OW11548   0.073   2.526   0.104 -0.0912 -0.2644  0.8408
 3743SOL    HW111549   0.000   2.576   0.152 -0.3523 -0.6429  0.8371
 3743SOL    HW211550   0.069   2.429   0.127  2.3358  0.0942  3.3261
 3744SOL     OW11551   4.604   1.962   1.399  0.3340 -0.2329 -0.0837
 3744SOL    HW111552   4.552   1.878   1.383 -0.7112 -0.2058  2.5905
 3744SOL    HW211553   4.648   1.991   1.314 -0.6035 -2.5633 -1.4668
 3745SOL     OW11554   1.274   1.138   2.456 -0.3437  0.7668 -0.5492
 3745SOL    HW111555   1.199   1.076   2.433  0.0342  0.7596 -1.8746
 3745SOL    HW211556   1.333   1.149   2.376  1.5698  0.0883  0.6927
 3746SOL     OW11557   4.406   2.386   1.063  0.2237  0.6274 -0.2242
 3746SOL    HW111558   4.397   2.292   1.095  1.8891 -0.4303 -2.5639
 3746SOL    HW211559   4.340   2.403   0.990  1.5041  0.4411 -1.4624
 3747SOL     OW11560   0.728   1.432   0.889 -0.2210  0.0841 -0.2921
 3747SOL    HW111561   0.688   1.430   0.980 -1.2597 -1.3426 -0.7486
 3747SOL    HW211562   0.686   1.505   0.835  0.2864  0.8259  0.2987
 3748SOL     OW11563   3.991   4.986   0.809 -0.0912  0.0281 -0.7139
 3748SOL    HW111564   3.913   5.016   0.864  0.7255  0.1326  0.4034
 3748SOL    HW211565   3.959   4.964   0.716 -1.1301  1.9212 -0.8539
 3749SOL     OW11566   3.183   1.478   1.311  0.1670 -0.2452  0.0013
 3749SOL    HW111567   3.190   1.396   1.367 -0.4725  0.4884  1.1824
 3749SOL    HW211568   3.223   1.460   1.221  2.6492 -0.9825  1.1571
 3750SOL     OW11569   4.055   2.160   2.410 -0.3410  0.1779  0.7173
 3750SOL    HW111570   3.957   2.157   2.428 -0.4325 -2.3953  0.1952
 3750SOL    HW211571   4.076   2.102   2.331  1.7837 -0.8412  1.9402
 3751SOL     OW11572   3.644   1.002   1.611 -0.0964 -0.2480  0.4354
 3751SOL    HW111573   3.610   0.931   1.672 -1.8918 -1.2110 -1.5663
 3751SOL    HW211574   3.614   1.092   1.644  1.1890 -0.4615  2.3279
 3752SOL     OW11575   0.080   4.977   1.266 -0.2456 -0.5263 -0.4236
 3752SOL    HW111576   0.076   5.073   1.236 -1.6365 -0.0745  1.0817
 3752SOL    HW211577  -0.001   4.956   1.321  0.4365 -2.3559 -0.0542
 3753SOL     OW11578   0.115   1.124   4.874 -0.2266 -0.0627  0.1160
 3753SOL    HW111579   0.198   1.071   4.860 -0.3884 -0.7493  1.5869
 3753SOL    HW211580   0.058   1.081   4.944 -1.3468  0.9461 -0.1233
 3754SOL     OW11581   5.397   1.753   0.680 -0.0424  0.5344  0.2425
 3754SOL    HW111582   5.306   1.745   0.639 -0.2213 -0.7785  0.8601
 3754SOL    HW211583   5.466   1.740   0.609 -0.3514 -0.3778  0.0896
 3755SOL     OW11584   0.491   1.919   4.476  0.2379 -0.2310 -0.1783
 3755SOL    HW111585   0.578   1.901   4.523  0.7648  0.5903 -0.8142
 3755SOL    HW211586   0.502   1.902   4.378 -0.1266  0.5413 -0.3573
 3756SOL     OW11587   4.725   3.020   1.677 -0.4945 -0.0743 -0.6703
 3756SOL    HW111588   4.811   3.067   1.695  0.6723 -0.6414 -4.0133
 3756SOL    HW211589   4.649   3.080   1.700  0.8230  1.2642  0.3942
 3757SOL     OW11590   4.856   0.995   4.998  0.2879 -0.2535  0.7630
 3757SOL    HW111591   4.889   1.064   4.934  0.6723 -1.3101 -0.2323
 3757SOL    HW211592   4.921   0.918   5.000 -0.6004 -1.0138  1.0970
 3758SOL     OW11593   4.601   1.255   2.635  0.3891  0.2058 -0.0545
 3758SOL    HW111594   4.517   1.232   2.684  0.4312  0.2931  0.0586
 3758SOL    HW211595   4.655   1.172   2.620 -0.5466 -0.1661 -1.6963
 3759SOL     OW11596   4.914   0.985   1.689  0.5485 -0.0906  0.1721
 3759SOL    HW111597   4.970   1.067   1.679  1.3319 -0.6164  0.0448
 3759SOL    HW211598   4.818   1.007   1.673  0.7526  0.7850  0.1010
 3760SOL     OW11599   4.703   1.888   0.703  0.1263  0.0569 -0.2811
 3760SOL    HW111600   4.608   1.908   0.676  0.5501  0.1011 -1.8776
 3760SOL    HW211601   4.724   1.793   0.678 -0.0783 -0.6084  1.8984
 3761SOL     OW11602   2.978   1.110   2.344  0.2136  0.2746  0.4726
 3761SOL    HW111603   3.028   1.119   2.430  0.4155  1.6747  0.2366
 3761SOL    HW211604   2.880   1.123   2.360  0.1683 -0.1751  0.5848
 3762SOL     OW11605   3.933   0.451   5.550  0.2920  0.5807  0.3943
 3762SOL    HW111606   3.995   0.421   5.622 -0.4676  0.3077  0.9434
 3762SOL    HW211607   3.967   0.420   5.462  0.6160 -0.0987  0.7535
 3763SOL     OW11608   4.616   5.126   3.137 -0.5710 -0.0681 -0.1448
 3763SOL    HW111609   4.651   5.077   3.057 -0.4646  0.0197 -0.1528
 3763SOL    HW211610   4.658   5.089   3.219  0.8334  1.1357 -0.2761
 3764SOL     OW11611   0.123   1.399   4.941  0.5533  0.4535 -0.2427
 3764SOL    HW111612   0.110   1.300   4.950 -0.4062  0.5812 -0.1016
 3764SOL    HW211613   0.214   1.418   4.906 -0.4108 -0.6745 -3.8311
 3765SOL     OW11614   5.222   2.532   5.280  0.6740 -0.5282 -0.3534
 3765SOL    HW111615   5.260   2.549   5.371 -1.4939  1.4280  0.3173
 3765SOL    HW211616   5.125   2.509   5.289  0.5147 -0.6617 -2.1541
 3766SOL     OW11617   4.711   0.688   0.097 -0.8010 -0.3364  0.3685
 3766SOL    HW111618   4.682   0.783   0.100 -0.2383 -0.1281 -0.5009
 3766SOL    HW211619   4.647   0.635   0.041 -1.2415 -0.5256  1.0383
 3767SOL     OW11620   4.263   2.608   0.677 -0.5498  0.5339  0.5942
 3767SOL    HW111621   4.325   2.539   0.641 -2.6966 -1.5490  0.6640
 3767SOL    HW211622   4.200   2.637   0.604 -1.0539  0.7907  1.1249
 3768SOL     OW11623   5.574   2.953   1.073  0.2613  0.0428  0.5363
 3768SOL    HW111624   5.532   3.043   1.080  0.8569  0.3170  0.6473
 3768SOL    HW211625   5.517   2.894   1.016  0.3992  0.8121 -0.4353
 3769SOL     OW11626   4.670   4.762   0.405 -0.4468  0.2947 -0.1436
 3769SOL    HW111627   4.716   4.850   0.394 -1.2554  0.6440 -0.8677
 3769SOL    HW211628   4.637   4.730   0.316 -1.1630 -0.1842  0.2810
 3770SOL     OW11629   4.202   4.666   1.321 -0.1150 -0.3502  0.3405
 3770SOL    HW111630   4.230   4.722   1.399 -0.1072  0.2386 -0.0792
 3770SOL    HW211631   4.250   4.697   1.239 -1.1395 -0.0729 -0.1709
 3771SOL     OW11632   3.837   0.205   4.203 -0.5985 -0.5062  0.7895
 3771SOL    HW111633   3.860   0.109   4.215 -2.7689 -1.2145 -0.1906
 3771SOL    HW211634   3.808   0.222   4.109  0.7619  1.3803  0.6455
 3772SOL     OW11635   2.933   1.629   1.050 -0.2636  0.4379  0.3935
 3772SOL    HW111636   2.947   1.630   1.149  0.3169 -0.2745  0.3205
 3772SOL    HW211637   2.847   1.581   1.029 -0.3208  0.4773  0.5370
 3773SOL     OW11638   4.575   1.298   3.085 -0.3433  0.0233 -0.2392
 3773SOL    HW111639   4.633   1.357   3.029 -0.9499  1.3899  0.5263
 3773SOL    HW211640   4.584   1.324   3.181 -0.6625 -1.1175  0.1147
 3774SOL     OW11641   4.301   1.196   2.137  0.4328 -0.0172 -0.0830
 3774SOL    HW111642   4.399   1.216   2.133  0.4866 -0.2637 -0.0235
 3774SOL    HW211643   4.285   1.120   2.200  0.1227  0.5161  0.4912
 3775SOL     OW11644   3.157   0.869   1.018  0.6503 -0.1791 -0.3379
 3775SOL    HW111645   3.145   0.796   1.086 -1.6560 -0.2097 -0.7196
 3775SOL    HW211646   3.125   0.956   1.056  1.1968  0.1939 -0.7114
 3776SOL     OW11647   5.366   5.160   4.653 -0.2899 -0.2497 -0.3358
 3776SOL    HW111648   5.426   5.088   4.686  0.3814  0.6874  0.5664
 3776SOL    HW211649   5.418   5.245   4.643 -1.4000  0.5386  0.2768
 3777SOL     OW11650   4.172   4.085   1.603 -0.4934  0.5753  0.1800
 3777SOL    HW111651   4.077   4.072   1.574 -0.3036  0.0703 -0.2249
 3777SOL    HW211652   4.206   4.172   1.567 -0.3713  0.1190 -0.8379
 3778SOL     OW11653   0.841   1.359   5.252  0.6206  0.6463  0.2925
 3778SOL    HW111654   0.813   1.412   5.173  0.2154 -1.4143 -1.0152
 3778SOL    HW211655   0.886   1.419   5.319  0.8311  2.4562 -1.4039
 3779SOL     OW11656   4.819   5.370   0.706  0.8211 -0.0202  0.3706
 3779SOL    HW111657   4.845   5.449   0.650  0.5775 -1.0988 -1.3468
 3779SOL    HW211658   4.870   5.290   0.676  0.8239 -0.5943  1.8665
 3780SOL     OW11659   4.585   2.481   5.487 -0.0511  0.0387 -0.0853
 3780SOL    HW111660   4.507   2.425   5.512 -0.8603  0.7913 -0.8461
 3780SOL    HW211661   4.667   2.424   5.484 -0.7586 -1.0017 -0.3795
 3781SOL     OW11662   0.022  -0.001   0.848 -0.3150 -0.2281 -0.0471
 3781SOL    HW111663  -0.057   0.055   0.874 -0.9647 -1.0275 -0.2591
 3781SOL    HW211664   0.036   0.007   0.749  0.2534  0.3950  0.0808
 3782SOL     OW11665   3.319   0.815   1.533 -0.3664  0.0261 -0.1325
 3782SOL    HW111666   3.391   0.751   1.506 -0.6289 -0.1055 -0.5300
 3782SOL    HW211667   3.231   0.782   1.499 -1.1113 -1.4144  2.8544
 3783SOL     OW11668   3.716   4.703   1.782  0.2160 -0.3570  0.0264
 3783SOL    HW111669   3.738   4.787   1.830  2.9243 -0.8950 -0.1068
 3783SOL    HW211670   3.711   4.721   1.684  0.4193 -0.2620  0.0320
 3784SOL     OW11671   5.068   2.396   1.061  0.3252 -0.2455 -1.1141
 3784SOL    HW111672   5.033   2.399   1.155 -1.2914 -0.4812 -1.6680
 3784SOL    HW211673   4.992   2.378   0.999  1.0728  1.6005 -2.6404
 3785SOL     OW11674   5.142   0.363   0.852 -0.0853 -0.0627  0.4540
 3785SOL    HW111675   5.116   0.409   0.937 -1.3368 -0.7463  0.4671
 3785SOL    HW211676   5.112   0.417   0.774 -1.1967 -0.6490  0.4673
 3786SOL     OW11677   5.048   4.918   0.295 -0.5012 -0.6390 -0.2007
 3786SOL    HW111678   5.138   4.874   0.293 -1.2795 -2.2833 -1.5452
 3786SOL    HW211679   4.977   4.848   0.306 -1.6267  0.6868  1.5364
 3787SOL     OW11680   5.038   1.192   0.720  0.3754 -0.0650  0.0693
 3787SOL    HW111681   5.001   1.268   0.668  0.2973  0.6534  1.1387
 3787SOL    HW211682   5.111   1.147   0.668  0.4713  0.7879 -0.5377
 3788SOL     OW11683   3.918   4.108   1.031 -0.0546 -0.2460 -0.4147
 3788SOL    HW111684   3.881   4.107   1.124  0.1601 -0.1401 -0.3280
 3788SOL    HW211685   3.863   4.048   0.972  0.5646 -1.3038  0.0647
 3789SOL     OW11686   3.927   0.409   1.094  0.0773  0.3889 -0.0153
 3789SOL    HW111687   3.836   0.433   1.058  0.9041  1.1339 -1.7078
 3789SOL    HW211688   3.940   0.310   1.087 -0.3784  0.3439 -0.3254
 3790SOL     OW11689   0.703   2.316   1.945 -0.4115 -0.0487 -0.2256
 3790SOL    HW111690   0.742   2.243   1.889  1.0497  0.6180 -0.1278
 3790SOL    HW211691   0.766   2.394   1.946 -0.7223  0.2105  1.8187
 3791SOL     OW11692   0.582   3.312   1.961  0.4056  0.2547  0.5599
 3791SOL    HW111693   0.504   3.290   2.019 -0.0442  0.4547  0.0373
 3791SOL    HW211694   0.619   3.401   1.986  0.3241  0.2611  0.6573
 3792SOL     OW11695   0.544   1.529   1.557  0.3833  0.7197 -0.4643
 3792SOL    HW111696   0.630   1.532   1.608  0.5120  0.1777 -0.6521
 3792SOL    HW211697   0.525   1.436   1.528 -1.7409  0.2444  2.0799
 3793SOL     OW11698   4.358   4.521   1.844 -0.3209  0.2297 -0.3277
 3793SOL    HW111699   4.435   4.489   1.899 -0.2087 -0.9239 -1.1327
 3793SOL    HW211700   4.277   4.530   1.902  0.4645  1.7349  0.5878
 3794SOL     OW11701   5.271   2.833   0.758 -0.3744  0.3278  0.2592
 3794SOL    HW111702   5.248   2.753   0.703  0.3669 -0.3767  0.9437
 3794SOL    HW211703   5.199   2.902   0.749 -0.4709  0.0540 -1.2324
 3795SOL     OW11704   3.153   3.971   0.599 -0.3685 -0.4241  0.0805
 3795SOL    HW111705   3.174   4.068   0.608  1.6348 -0.7221 -0.9337
 3795SOL    HW211706   3.116   3.953   0.507  0.3280 -0.7716 -0.1403
 3796SOL     OW11707   3.182   4.344   0.322  0.2397  0.2785 -0.2785
 3796SOL    HW111708   3.275   4.381   0.316  0.7997 -1.2625 -3.0364
 3796SOL    HW211709   3.119   4.407   0.276  0.4847 -0.1172 -1.1872
 3797SOL     OW11710   5.459   2.384   1.229  0.0722 -0.6667  0.3400
 3797SOL    HW111711   5.385   2.447   1.207  0.5661 -0.5153 -0.9315
 3797SOL    HW211712   5.505   2.415   1.313 -1.2385 -0.7307  1.1097
 3798SOL     OW11713   5.155   1.504   1.043 -0.1440 -0.1449  0.1989
 3798SOL    HW111714   5.224   1.462   1.103  0.5036  0.0897 -0.3735
 3798SOL    HW211715   5.066   1.505   1.090  0.0726 -1.1312  0.6540
 3799SOL     OW11716   3.902   3.359   3.640  0.2842  0.0594 -0.1739
 3799SOL    HW111717   3.983   3.387   3.691  0.1757 -0.6386  0.4060
 3799SOL    HW211718   3.926   3.283   3.578 -0.1979 -1.1470  1.0564
 3800SOL     OW11719   0.345   0.529   1.031 -0.1429 -0.0642 -0.5549
 3800SOL    HW111720   0.327   0.431   1.040 -1.5748  0.0555 -1.5746
 3800SOL    HW211721   0.271   0.580   1.074 -0.2173  0.5373 -1.3637
 3801SOL     OW11722   3.483   0.888   1.811  0.3664  0.6253 -0.0582
 3801SOL    HW111723   3.468   0.853   1.904  1.0179  2.1060  0.6415
 3801SOL    HW211724   3.431   0.972   1.799 -0.1478  0.1608 -1.2517
 3802SOL     OW11725   4.881   5.043   2.271  0.4272 -0.1725  0.8198
 3802SOL    HW111726   4.892   5.126   2.326  1.3651  0.4860 -0.3071
 3802SOL    HW211727   4.859   5.069   2.177  1.6454 -1.1706  0.2396
 3803SOL     OW11728   4.244   1.496   2.797 -0.3083  0.2358 -0.0281
 3803SOL    HW111729   4.255   1.574   2.859  0.1643  0.1861 -0.0471
 3803SOL    HW211730   4.162   1.444   2.823 -1.9470  1.9841 -1.3687
 3804SOL     OW11731   0.147   2.003   0.290  0.3422 -0.5526  0.6873
 3804SOL    HW111732   0.235   1.981   0.249  1.6483  1.5175  2.1653
 3804SOL    HW211733   0.140   1.959   0.379 -0.5256 -1.3917  0.2226
 3805SOL     OW11734   3.935   5.375   1.005  0.2666 -0.1273  0.8933
 3805SOL    HW111735   3.911   5.387   1.101 -0.6168 -0.6056  0.7401
 3805SOL    HW211736   3.972   5.283   0.991 -1.3795 -0.7428  0.4440
 3806SOL     OW11737   4.182   4.460   0.321  0.0151  0.6323 -0.0365
 3806SOL    HW111738   4.146   4.511   0.243 -0.2061 -0.3367 -0.5861
 3806SOL    HW211739   4.239   4.385   0.288 -1.0407 -0.5234  0.6892
 3807SOL     OW11740   4.296   5.325   2.880  0.0624 -0.6307 -0.1338
 3807SOL    HW111741   4.197   5.330   2.889  0.1600 -0.0516  0.7510
 3807SOL    HW211742   4.320   5.256   2.811 -0.9577 -0.3569 -0.7775
 3808SOL     OW11743   0.310   1.453   1.344  0.0580 -0.4931  0.2733
 3808SOL    HW111744   0.248   1.486   1.415  0.5219  1.6352 -0.2525
 3808SOL    HW211745   0.378   1.523   1.323  0.4345 -1.3708 -1.7122
 3809SOL     OW11746   3.070   0.804   2.449 -0.0225  0.6771  0.4506
 3809SOL    HW111747   3.081   0.719   2.398  0.3333  0.6429  0.5855
 3809SOL    HW211748   3.158   0.849   2.460 -0.1613  0.9021  0.6598
 3810SOL     OW11749   3.764   2.271   1.055  0.0193 -0.2492 -0.3385
 3810SOL    HW111750   3.677   2.306   1.020  1.2696  1.0147 -2.4303
 3810SOL    HW211751   3.775   2.175   1.028 -0.3035 -0.1206 -0.9360
 3811SOL     OW11752   5.321   1.856   1.137  0.1937 -0.3587 -0.1795
 3811SOL    HW111753   5.368   1.866   1.225  1.1435  3.2434 -0.9605
 3811SOL    HW211754   5.225   1.831   1.153  0.6167 -0.8983  1.7642
 3812SOL     OW11755   0.937   0.636   2.945  0.2785 -0.3141  0.0362
 3812SOL    HW111756   0.928   0.538   2.961  1.8678 -0.3946  0.6877
 3812SOL    HW211757   0.857   0.670   2.895  0.4986 -2.2714 -1.7873
 3813SOL     OW11758   4.853   2.006   2.088 -0.0394 -0.4852  0.2362
 3813SOL    HW111759   4.905   1.927   2.122 -1.2150 -0.3009  2.6654
 3813SOL    HW211760   4.871   2.017   1.990  2.9764 -1.5564  0.5366
 3814SOL     OW11761   3.754   0.974   2.051 -0.4537  0.3617 -0.5225
 3814SOL    HW111762   3.738   1.047   1.985  0.0957  1.1249  0.1769
 3814SOL    HW211763   3.735   1.006   2.143 -2.9629 -1.2216 -0.4011
 3815SOL     OW11764   0.438   0.108   0.588  0.1506 -0.6689  0.1113
 3815SOL    HW111765   0.507   0.178   0.574  0.1642 -0.6171  0.4344
 3815SOL    HW211766   0.360   0.147   0.637  0.3327 -0.9749  0.6549
 3816SOL     OW11767   4.739   0.130   1.930  0.2672  0.1335 -0.1440
 3816SOL    HW111768   4.759   0.045   1.881 -1.5667  0.1778 -1.0636
 3816SOL    HW211769   4.795   0.204   1.894  1.2287 -0.4865  0.0482
 3817SOL     OW11770   3.215   0.631   2.794  0.4175  0.1616 -0.1101
 3817SOL    HW111771   3.276   0.613   2.871  1.6221  1.2057 -0.7827
 3817SOL    HW211772   3.202   0.547   2.742  0.4942 -0.2954  0.5986
 3818SOL     OW11773   3.906   4.567   0.855 -0.2599 -0.0757  0.5365
 3818SOL    HW111774   3.989   4.564   0.800 -1.4949 -0.3970 -1.4193
 3818SOL    HW211775   3.872   4.474   0.870 -1.9689  0.1087 -1.5526
 3819SOL     OW11776   4.420   1.738   5.241  0.4294  0.0530 -0.0950
 3819SOL    HW111777   4.333   1.764   5.283  0.7875 -0.6454  1.1123
 3819SOL    HW211778   4.414   1.643   5.210  0.7143  0.0526 -0.1473
 3820SOL     OW11779   5.058   1.241   4.426  0.3003 -0.0754 -0.2533
 3820SOL    HW111780   5.024   1.208   4.338  0.7549  0.0885 -0.4908
 3820SOL    HW211781   5.150   1.203   4.443  1.0252  1.4030 -0.7310
 3821SOL     OW11782   3.095   0.759   0.518 -0.1449  0.0083  0.7913
 3821SOL    HW111783   3.187   0.758   0.558 -0.0583 -0.4323  0.5775
 3821SOL    HW211784   3.070   0.854   0.496  0.6503  0.0340 -0.0589
 3822SOL     OW11785   4.412   3.530   1.348 -0.4555 -0.1025 -0.3519
 3822SOL    HW111786   4.318   3.564   1.351 -0.5419 -0.3509 -0.2621
 3822SOL    HW211787   4.459   3.555   1.432  0.2148  1.8962 -1.2434
 3823SOL     OW11788   4.353   1.512   1.302  0.3740 -0.5354  0.6072
 3823SOL    HW111789   4.291   1.475   1.232  1.5901 -0.5642 -0.4763
 3823SOL    HW211790   4.424   1.445   1.322  0.6469 -0.0994  1.1049
 3824SOL     OW11791   4.665   2.832   2.913 -0.0432 -0.0870  0.9735
 3824SOL    HW111792   4.683   2.765   2.840 -0.6978  1.8378 -1.0687
 3824SOL    HW211793   4.746   2.889   2.925 -1.2398  2.3070 -1.3476
 3825SOL     OW11794   0.292   4.496   0.359  0.4325 -0.3127  0.8206
 3825SOL    HW111795   0.243   4.488   0.446  0.9053 -0.3359  1.0830
 3825SOL    HW211796   0.253   4.571   0.305 -0.9796 -1.3341  0.3277
 3826SOL     OW11797   0.172   1.833   0.768  0.6035 -0.7162 -0.1835
 3826SOL    HW111798   0.221   1.748   0.751  2.1707 -0.2853  1.8015
 3826SOL    HW211799   0.102   1.818   0.838  0.5595 -0.4790 -0.1743
 3827SOL     OW11800   4.974   4.041   1.571  0.5150 -0.1392 -0.8247
 3827SOL    HW111801   4.968   3.964   1.634  1.1068 -0.1742 -0.7997
 3827SOL    HW211802   5.010   4.010   1.483 -0.2004 -0.0695 -1.1460
 3828SOL     OW11803   4.827   0.142   2.417 -0.0099  0.5787  0.1140
 3828SOL    HW111804   4.795   0.047   2.421 -0.3511  0.7066  0.6090
 3828SOL    HW211805   4.824   0.174   2.323 -0.5889  0.3285  0.0434
 3829SOL     OW11806   0.457   5.104   1.837 -0.2621 -0.5671 -0.1752
 3829SOL    HW111807   0.478   5.141   1.747  0.6499 -0.0499  0.2385
 3829SOL    HW211808   0.418   5.013   1.827  2.0569 -1.5583 -1.0466
 3830SOL     OW11809   3.329   5.528   1.730  0.0412 -0.5246  0.1465
 3830SOL    HW111810   3.337   5.432   1.704 -0.0522 -0.5704  0.2828
 3830SOL    HW211811   3.243   5.565   1.693 -0.6262 -0.8826  1.2731
 3831SOL     OW11812   4.601   1.150   4.658 -0.0869 -0.3184 -0.7330
 3831SOL    HW111813   4.677   1.092   4.687  0.7227  0.6712 -0.8494
 3831SOL    HW211814   4.538   1.097   4.601  1.0754 -0.8609 -1.5331
 3832SOL     OW11815   3.379   4.723   0.480  0.0463 -0.1059  0.0774
 3832SOL    HW111816   3.423   4.703   0.392 -1.4141  1.6471 -1.1192
 3832SOL    HW211817   3.303   4.786   0.466 -0.9439 -0.6446  2.4849
 3833SOL     OW11818   0.094   1.589   5.133  0.4027 -0.0230  0.0445
 3833SOL    HW111819   0.140   1.675   5.109  0.3578 -0.5437 -2.1007
 3833SOL    HW211820   0.095   1.528   5.054  0.1824 -1.9093  1.4345
 3834SOL     OW11821   3.089   1.567   0.626  0.3956  0.4828  0.2228
 3834SOL    HW111822   3.028   1.502   0.579  1.7119 -0.0056 -0.8765
 3834SOL    HW211823   3.181   1.558   0.589  0.7220  2.6510  0.4088
 3835SOL     OW11824   5.293   4.571   0.952 -0.1361  0.1459  0.6261
 3835SOL    HW111825   5.230   4.633   0.905 -0.3281 -0.4063  0.1389
 3835SOL    HW211826   5.380   4.618   0.968 -0.3328  0.5955  0.4156
 3836SOL     OW11827   4.085   5.206   1.770  0.4072 -0.2744 -0.0432
 3836SOL    HW111828   3.986   5.204   1.750  0.4288 -1.0830 -0.0626
 3836SOL    HW211829   4.121   5.113   1.774  0.6541 -0.1369  2.6394
 3837SOL     OW11830   4.702   5.027   2.670  0.1088  0.0239 -0.5780
 3837SOL    HW111831   4.738   5.120   2.672 -1.4095  0.6319 -0.0928
 3837SOL    HW211832   4.739   4.975   2.746  1.6476 -0.0691 -1.3472
 3838SOL     OW11833   2.197   3.658   0.991  0.1017 -0.3343  0.4962
 3838SOL    HW111834   2.121   3.617   1.042 -0.0361 -1.0993 -0.2848
 3838SOL    HW211835   2.161   3.703   0.909  0.4544 -0.4726  0.2635
 3839SOL     OW11836   4.443   2.295   0.115  0.3277 -0.3853 -0.4725
 3839SOL    HW111837   4.400   2.208   0.093 -0.5978 -0.1130  0.1903
 3839SOL    HW211838   4.514   2.281   0.184  0.4324 -0.6608 -0.6353
 3840SOL     OW11839   4.963   1.765   0.447 -0.5220  0.0353  0.5251
 3840SOL    HW111840   5.022   1.729   0.375 -1.8668  1.4628 -1.3932
 3840SOL    HW211841   5.018   1.808   0.518  0.8004 -0.2447 -0.3028
 3841SOL     OW11842   5.451   0.665   0.609 -0.1848 -0.4591 -0.6524
 3841SOL    HW111843   5.550   0.651   0.614  0.0486  1.1741 -0.0933
 3841SOL    HW211844   5.422   0.661   0.513  0.3842 -1.1117 -0.8068
 3842SOL     OW11845   0.218   5.447   1.355  0.6808 -0.2466 -0.3018
 3842SOL    HW111846   0.307   5.482   1.324  0.8910 -1.4423 -1.0958
 3842SOL    HW211847   0.231   5.387   1.434  0.4674  0.2798  0.1457
 3843SOL     OW11848   4.113   0.574   0.980 -0.4282  0.1273  0.5720
 3843SOL    HW111849   4.095   0.560   0.882  0.3031 -1.8122  0.6878
 3843SOL    HW211850   4.068   0.503   1.033 -1.2612  1.4716  1.7377
 3844SOL     OW11851   4.862   1.055   5.276  0.4275 -0.2735 -0.3091
 3844SOL    HW111852   4.787   0.999   5.312  1.8604 -2.1745 -0.1232
 3844SOL    HW211853   4.877   1.032   5.180  0.2764  0.6892 -0.5724
 3845SOL     OW11854   5.457   0.206   5.304  0.3424 -0.2417  0.5504
 3845SOL    HW111855   5.422   0.139   5.238  0.1682  0.2634  0.1237
 3845SOL    HW211856   5.381   0.257   5.344  0.5029  0.0257  0.5192
 3846SOL     OW11857   4.465   0.220   0.962  0.1416  0.4656  0.1358
 3846SOL    HW111858   4.373   0.191   0.934  0.3278 -0.8661  0.7967
 3846SOL    HW211859   4.511   0.143   1.006  1.5446  1.1489 -0.1038
 3847SOL     OW11860   4.932   1.432   2.311  0.4924  0.3900 -0.0431
 3847SOL    HW111861   4.946   1.514   2.366 -0.2386  0.0171  0.7170
 3847SOL    HW211862   4.957   1.451   2.216  0.3875  1.4685  0.1360
 3848SOL     OW11863   2.900   5.075   1.201  0.0536  0.1209  0.3470
 3848SOL    HW111864   2.938   4.999   1.254 -0.1210 -1.2032 -1.3447
 3848SOL    HW211865   2.972   5.114   1.142 -0.2491  0.2029  0.0282
 3849SOL     OW11866   3.694   0.794   1.147 -0.3572  0.0488 -0.3743
 3849SOL    HW111867   3.696   0.872   1.210 -0.8434  0.2304 -0.5816
 3849SOL    HW211868   3.781   0.791   1.096 -0.7569  1.1177 -1.1578
 3850SOL     OW11869   4.796   0.286   4.807  0.4172  0.1076  0.4023
 3850SOL    HW111870   4.780   0.188   4.809  1.7736 -0.1187  1.6909
 3850SOL    HW211871   4.711   0.333   4.784 -0.4676 -1.3091  0.6688
 3851SOL     OW11872   4.652   1.721   2.138  0.1395  0.2934  0.0981
 3851SOL    HW111873   4.639   1.726   2.237  0.5223  1.8802  0.0987
 3851SOL    HW211874   4.731   1.775   2.112 -0.3950  0.5149 -1.1571
 3852SOL     OW11875   3.393   5.463   2.324 -0.2099  0.6229  0.3981
 3852SOL    HW111876   3.399   5.560   2.346  0.3730  0.4449  1.0244
 3852SOL    HW211877   3.425   5.408   2.401  1.4564 -0.0133 -0.6901
 3853SOL     OW11878   5.042   0.893   3.571  0.4950  0.0121  0.2936
 3853SOL    HW111879   5.080   0.818   3.517 -0.7653 -0.0231 -0.5660
 3853SOL    HW211880   5.012   0.858   3.660  0.7564 -0.3150  0.2557
 3854SOL     OW11881   0.993   1.392   0.294  0.3439 -0.0948  0.7961
 3854SOL    HW111882   1.080   1.439   0.309  1.8483 -1.9372 -1.3860
 3854SOL    HW211883   0.942   1.438   0.221  1.2459 -0.9981 -0.4668
 3855SOL     OW11884   5.081   1.798   1.231 -0.7303 -0.3810 -0.1691
 3855SOL    HW111885   5.096   1.737   1.309 -2.6424  0.2277  0.7432
 3855SOL    HW211886   4.987   1.791   1.201 -0.5442  0.8884 -1.1311
 3856SOL     OW11887   4.422   1.750   4.503 -0.0105 -0.6327  0.5680
 3856SOL    HW111888   4.464   1.676   4.451 -2.0677 -0.9917 -0.7019
 3856SOL    HW211889   4.349   1.712   4.560 -0.9838  0.3716  0.0226
 3857SOL     OW11890   5.359   2.579   0.185 -0.0441 -0.6622  0.1707
 3857SOL    HW111891   5.264   2.606   0.198 -0.4899 -1.7483 -0.6388
 3857SOL    HW211892   5.393   2.533   0.267 -0.3987 -0.7599  0.2643
 3858SOL     OW11893   5.468   0.315   0.124  0.2011  0.2001  0.2089
 3858SOL    HW111894   5.509   0.331   0.214  1.9247  2.5195 -0.8896
 3858SOL    HW211895   5.538   0.278   0.062 -0.5485  0.1214 -0.5972
 3859SOL     OW11896   0.187   4.648   4.783 -0.4985  0.3278 -0.3061
 3859SOL    HW111897   0.208   4.607   4.693  2.5605 -1.6601  1.1169
 3859SOL    HW211898   0.125   4.589   4.833  0.0588 -0.0843 -0.0860
 3860SOL     OW11899   5.030   1.254   5.204 -0.3596  0.0946 -0.2215
 3860SOL    HW111900   4.961   1.184   5.220  0.5921 -1.0979 -1.1387
 3860SOL    HW211901   5.101   1.249   5.274 -2.1626  2.7019  1.9935
 3861SOL     OW11902   4.253   2.138   2.832 -0.0976  0.3159 -1.0637
 3861SOL    HW111903   4.256   2.220   2.775 -0.8696  0.9855 -0.1778
 3861SOL    HW211904   4.272   2.163   2.927 -1.0240 -0.4212 -0.6698
 3862SOL     OW11905   4.544   0.573   1.465  0.0719 -0.2755 -0.2287
 3862SOL    HW111906   4.473   0.573   1.536 -0.1058 -0.4195 -0.4046
 3862SOL    HW211907   4.632   0.597   1.506 -0.0527 -0.2344  0.0178
 3863SOL     OW11908   3.866   1.600   1.155  0.0879  0.0178 -0.0185
 3863SOL    HW111909   3.868   1.570   1.059 -1.3393  0.2413 -0.1449
 3863SOL    HW211910   3.924   1.681   1.165 -0.3801  0.4896 -0.8937
 3864SOL     OW11911   3.757   2.318   4.435  0.0224 -0.2083  0.1080
 3864SOL    HW111912   3.843   2.344   4.391  0.3523 -0.6379  0.4910
 3864SOL    HW211913   3.696   2.277   4.367 -0.8169  2.1932 -0.6976
 3865SOL     OW11914   1.105   0.721   1.029  0.0843 -1.1311 -0.2206
 3865SOL    HW111915   1.015   0.766   1.028  0.5353 -0.1063 -2.4700
 3865SOL    HW211916   1.095   0.626   1.058 -1.6853 -0.9490 -0.1408
 3866SOL     OW11917   4.877   1.529   0.347  0.6622  0.0704 -0.1379
 3866SOL    HW111918   4.886   1.627   0.364 -1.9396  0.2200  0.7900
 3866SOL    HW211919   4.935   1.504   0.269  3.3753  1.7842  1.1394
 3867SOL     OW11920   5.072   2.080   0.106  0.1008 -0.4927 -0.5063
 3867SOL    HW111921   5.076   2.135   0.022  0.0153 -0.2586 -0.3600
 3867SOL    HW211922   5.165   2.061   0.137  0.1641 -1.8076 -1.4354
 3868SOL     OW11923   1.093   2.169   4.608  0.2240 -0.0483  0.2462
 3868SOL    HW111924   1.152   2.210   4.539  0.5594 -1.6225 -0.4527
 3868SOL    HW211925   1.115   2.207   4.698  0.5257  1.2381 -0.3471
 3869SOL     OW11926   3.900   0.700   2.272  0.6725 -0.3154 -0.5650
 3869SOL    HW111927   3.873   0.769   2.339  1.6379 -0.7996  0.3475
 3869SOL    HW211928   3.882   0.734   2.180 -1.6436 -0.0376 -0.0634
 3870SOL     OW11929   1.590   2.193   0.367  0.0576  0.3055 -0.7776
 3870SOL    HW111930   1.661   2.237   0.420 -0.2106  1.1177 -1.0836
 3870SOL    HW211931   1.503   2.241   0.380 -0.7467 -1.3975  0.5783
 3871SOL     OW11932   0.510   2.035   1.411 -0.0654  0.1511 -0.3400
 3871SOL    HW111933   0.411   2.026   1.415 -0.1450  0.6294 -1.1195
 3871SOL    HW211934   0.549   2.006   1.498 -0.7920 -1.1282 -0.4232
 3872SOL     OW11935   3.732   0.103   3.301  0.6740 -0.2776  0.2663
 3872SOL    HW111936   3.753   0.063   3.212  2.1691  0.5096  0.2359
 3872SOL    HW211937   3.812   0.152   3.335  0.0440 -0.3520  1.9359
 3873SOL     OW11938   0.279   2.679   0.201 -0.0923 -1.1580 -0.1792
 3873SOL    HW111939   0.193   2.634   0.176 -0.1866 -0.5341 -1.0080
 3873SOL    HW211940   0.353   2.643   0.145 -0.1906 -0.2047 -0.9323
 3874SOL     OW11941   4.255   1.121   0.337 -0.4539  0.0787  0.4874
 3874SOL    HW111942   4.333   1.180   0.318  0.8368 -1.5628  0.5380
 3874SOL    HW211943   4.171   1.175   0.329  0.4140  1.2375 -2.6484
 3875SOL     OW11944   4.961   4.556   1.988  0.0395  0.1076  0.5416
 3875SOL    HW111945   5.012   4.592   2.066  1.2541  0.4655 -0.3809
 3875SOL    HW211946   4.939   4.460   2.004  0.5116  0.1026  1.1968
 3876SOL     OW11947   2.977   1.651   1.332 -0.5494  0.1150 -0.0817
 3876SOL    HW111948   3.005   1.745   1.351 -0.5195  0.3486 -1.2127
 3876SOL    HW211949   3.054   1.589   1.346 -0.1882  0.4327 -0.6054
 3877SOL     OW11950   4.765   0.325   1.137 -0.2329  0.9005 -0.4921
 3877SOL    HW111951   4.787   0.351   1.043  0.2118  0.4363 -0.5212
 3877SOL    HW211952   4.826   0.374   1.200  0.5550  0.0002 -0.5429
 3878SOL     OW11953   0.288   1.162   1.621  0.1020 -0.2353  0.1050
 3878SOL    HW111954   0.295   1.227   1.696  3.2501 -0.1396 -0.1578
 3878SOL    HW211955   0.191   1.140   1.605 -0.8653  2.1756  2.0191
 3879SOL     OW11956   3.382   5.095   2.027  0.5011  0.3661 -0.0366
 3879SOL    HW111957   3.473   5.103   1.987 -0.2827  0.8094 -1.8283
 3879SOL    HW211958   3.338   5.012   1.994 -0.0941  0.6403  0.0518
 3880SOL     OW11959   3.694   0.412   3.455  0.4314  0.2544 -0.4264
 3880SOL    HW111960   3.610   0.435   3.406  0.8358  1.4933 -0.5713
 3880SOL    HW211961   3.773   0.437   3.400  0.9049 -0.6992 -0.1974
 3881SOL     OW11962   4.649   5.058   3.893  0.3423  0.2025  0.0240
 3881SOL    HW111963   4.613   5.135   3.840  1.6010 -0.8306 -2.5102
 3881SOL    HW211964   4.744   5.040   3.866  1.3911  0.1289  3.3565
 3882SOL     OW11965   4.459   1.491   0.104  0.2856 -0.1488  0.7834
 3882SOL    HW111966   4.529   1.535   0.047 -2.4117 -0.3017 -3.0637
 3882SOL    HW211967   4.400   1.560   0.145  0.0495 -0.0554  0.2956
 3883SOL     OW11968   3.987   1.713   0.675  0.3107  0.3613  0.5224
 3883SOL    HW111969   3.950   1.805   0.690 -0.3000  0.2754 -0.4174
 3883SOL    HW211970   4.069   1.719   0.619 -0.6772  0.2141 -0.9834
 3884SOL     OW11971   4.489   0.745   1.274 -0.5464  0.3778  0.0125
 3884SOL    HW111972   4.433   0.705   1.202 -3.0604 -0.3959  2.2168
 3884SOL    HW211973   4.502   0.677   1.347  2.2894  0.9699  0.1465
 3885SOL     OW11974   4.195   1.230   1.632 -0.1233 -0.7678  0.3983
 3885SOL    HW111975   4.260   1.160   1.662  2.0086  0.7206 -0.4766
 3885SOL    HW211976   4.204   1.243   1.533 -1.2149  0.0238  0.3922
 3886SOL     OW11977   0.170   1.941   3.394  0.2171  0.3708  0.2567
 3886SOL    HW111978   0.226   2.006   3.447 -0.5717  1.3584 -0.0906
 3886SOL    HW211979   0.076   1.945   3.427  0.0005 -0.0095 -0.3218
 3887SOL     OW11980   3.319   5.290   1.621  0.2008  0.9990 -0.5144
 3887SOL    HW111981   3.329   5.199   1.662 -0.4373  0.3446 -1.7737
 3887SOL    HW211982   3.398   5.309   1.563 -0.6707  0.3183 -1.9678
 3888SOL     OW11983   5.446   2.124   0.655  0.0413  0.0591  0.5006
 3888SOL    HW111984   5.402   2.191   0.716 -0.8280 -0.3461  0.3393
 3888SOL    HW211985   5.417   2.142   0.561  2.3891  1.5056 -0.0336
 3889SOL     OW11986   4.172   3.003   2.355  0.7553  0.0184 -0.4795
 3889SOL    HW111987   4.174   2.978   2.258 -1.0595  0.5633 -0.6956
 3889SOL    HW211988   4.128   3.092   2.366  0.2597 -0.3675  0.8899
 3890SOL     OW11989   4.697   1.605   5.542 -0.0734 -0.1521 -0.7111
 3890SOL    HW111990   4.695   1.581   5.445  2.6143  0.2070 -0.9165
 3890SOL    HW211991   4.751   1.537   5.592  0.2466  0.7544  0.2020
 3891SOL     OW11992   5.031   0.795   0.717  0.7866  0.0349 -0.4435
 3891SOL    HW111993   5.066   0.707   0.684  3.2315  0.6879  0.1753
 3891SOL    HW211994   5.068   0.868   0.659  0.1682  0.7731  0.0831
 3892SOL     OW11995   4.370   2.062   0.423  0.0944 -0.3098  0.4745
 3892SOL    HW111996   4.382   2.033   0.518 -1.0285  1.0045  1.0493
 3892SOL    HW211997   4.312   2.143   0.420 -1.4397 -1.3763 -1.4474
 3893SOL     OW11998   4.327   0.476   1.627  0.0657 -0.3280  0.0326
 3893SOL    HW111999   4.230   0.457   1.645 -0.1842  0.6511 -0.2057
 3893SOL    HW212000   4.384   0.420   1.686 -0.6801  0.5187  1.6054
 3894SOL     OW12001   4.346   1.892   2.289  0.3876 -0.2945 -0.2598
 3894SOL    HW112002   4.355   1.877   2.191  1.8033  1.6012 -0.4720
 3894SOL    HW212003   4.367   1.987   2.311  1.2761 -0.9371  2.0063
 3895SOL     OW12004   4.557   1.899   0.344 -0.2657 -0.7861 -0.2717
 3895SOL    HW112005   4.481   1.963   0.360 -0.0107 -0.9168  1.7666
 3895SOL    HW212006   4.640   1.950   0.325 -0.2728 -0.5252  0.3700
 3896SOL     OW12007   5.473   2.411   0.354  0.3613 -0.5960 -0.0831
 3896SOL    HW112008   5.571   2.393   0.360  0.5354  0.2871 -0.1424
 3896SOL    HW212009   5.422   2.326   0.366  1.2131 -1.8935 -4.0542
 3897SOL     OW12010   4.442   1.936   0.680  0.4919 -0.2185 -0.1821
 3897SOL    HW112011   4.401   1.845   0.688  0.7152 -0.3952 -0.9692
 3897SOL    HW212012   4.421   1.989   0.762  1.5212 -1.4369  0.9034
 3898SOL     OW12013   5.389   2.313   4.976  0.4095  0.6293 -0.5744
 3898SOL    HW112014   5.370   2.405   4.942 -1.0860  1.2204  1.6651
 3898SOL    HW212015   5.307   2.256   4.964  0.7431  0.1020 -0.3765
 3899SOL     OW12016   5.083   0.821   2.232 -0.2143 -0.0123  0.4272
 3899SOL    HW112017   5.092   0.883   2.153  1.6916 -2.7785 -1.7056
 3899SOL    HW212018   5.000   0.766   2.221 -0.7399  0.6163  1.1745
 3900SOL     OW12019   4.494   5.097   0.401  0.0879 -0.0691  0.0494
 3900SOL    HW112020   4.521   5.165   0.469  0.2354 -0.0385 -0.0391
 3900SOL    HW212021   4.459   5.016   0.447  0.8437 -0.3282  0.1811
 3901SOL     OW12022   3.752   5.030   0.952 -0.0610 -0.0344 -0.5116
 3901SOL    HW112023   3.758   5.086   1.035  0.0311 -0.0925 -0.4793
 3901SOL    HW212024   3.758   4.933   0.976  0.1009 -0.0457 -0.6001
 3902SOL     OW12025   2.755   0.731   1.946 -0.0365 -0.2852  0.3506
 3902SOL    HW112026   2.713   0.816   1.978  0.5311 -0.4978  1.7465
 3902SOL    HW212027   2.728   0.656   2.006  2.0184 -0.4885  1.0985
 3903SOL     OW12028   0.358   4.219   1.357  0.1823  0.1950 -0.1405
 3903SOL    HW112029   0.424   4.267   1.299  0.7941  0.8138  1.0421
 3903SOL    HW212030   0.355   4.262   1.447 -2.2232  0.5146 -0.3110
 3904SOL     OW12031   0.553   0.137   0.084  0.9466 -0.2794  0.7503
 3904SOL    HW112032   0.588   0.196   0.011  1.0302  0.6909  1.5482
 3904SOL    HW212033   0.572   0.041   0.061 -1.2571 -0.2302 -1.6827
 3905SOL     OW12034   4.778   1.917   2.455 -0.0062 -0.3682 -0.4460
 3905SOL    HW112035   4.761   1.988   2.524 -0.9660 -0.0928 -0.9509
 3905SOL    HW212036   4.695   1.863   2.442  1.4059 -3.4707  1.9456
 3906SOL     OW12037   4.229   5.387   2.124 -0.6954  0.2597  0.6109
 3906SOL    HW112038   4.185   5.306   2.164 -0.4176  0.1498  0.6953
 3906SOL    HW212039   4.269   5.442   2.197  0.1765 -0.1537  0.4550
 3907SOL     OW12040   4.614   2.113   5.401  0.2908 -0.3888  0.3098
 3907SOL    HW112041   4.688   2.083   5.461  0.6941 -0.4272 -0.1989
 3907SOL    HW212042   4.601   2.046   5.328 -1.3029 -1.1857  1.2702
 3908SOL     OW12043   4.606   4.440   2.519 -0.5838  0.1253 -0.5588
 3908SOL    HW112044   4.523   4.476   2.562 -1.0242  0.6177 -1.7938
 3908SOL    HW212045   4.658   4.515   2.478  1.2270  0.0387  1.3900
 3909SOL     OW12046   4.481   5.281   2.653  0.1876  0.6507  0.1369
 3909SOL    HW112047   4.477   5.201   2.594 -1.4387  0.2472  0.7455
 3909SOL    HW212048   4.444   5.361   2.604 -0.3217  0.5140  0.2922
 3910SOL     OW12049   5.256   1.229   5.394  1.1323  0.3040  0.4050
 3910SOL    HW112050   5.351   1.250   5.369  1.7172 -2.2373  0.1720
 3910SOL    HW212051   5.253   1.199   5.490  1.0300 -1.8048 -0.1932
 3911SOL     OW12052   2.437   2.668   1.549  0.6119  0.4496  0.2829
 3911SOL    HW112053   2.345   2.628   1.547 -0.6706  3.2274 -0.8714
 3911SOL    HW212054   2.498   2.607   1.599 -1.6736 -1.8029  0.5527
 3912SOL     OW12055   4.798   0.872   0.385  0.2228 -0.0729  0.5770
 3912SOL    HW112056   4.851   0.906   0.462  1.7760 -1.9396  0.4118
 3912SOL    HW212057   4.856   0.869   0.303 -0.7203 -0.3209 -0.1025
 3913SOL     OW12058   5.095   4.727   0.816 -0.4521  0.2550  0.0922
 3913SOL    HW112059   5.000   4.753   0.802 -0.6860  0.3564  1.6968
 3913SOL    HW212060   5.142   4.722   0.727 -1.6365  1.3429 -0.6241
 3914SOL     OW12061   1.071   0.253   2.142 -0.1537  0.3180  0.3097
 3914SOL    HW112062   0.985   0.250   2.193  1.5881  0.0841  3.5048
 3914SOL    HW212063   1.132   0.320   2.184  2.2493 -1.5246 -0.0050
 3915SOL     OW12064   4.509   1.100   5.277 -0.2400  0.1249  0.1341
 3915SOL    HW112065   4.573   1.115   5.353  0.7225  0.6219 -0.7478
 3915SOL    HW212066   4.421   1.070   5.313  0.8619 -1.9236  1.3185
 3916SOL     OW12067   3.837   2.400   4.857  0.6409  0.2870 -0.4058
 3916SOL    HW112068   3.785   2.328   4.811  0.3249 -0.6392  1.2925
 3916SOL    HW212069   3.865   2.470   4.791 -1.3318 -0.0350 -1.6397
 3917SOL     OW12070   5.061   1.307   2.700 -0.1605 -0.6309 -0.3748
 3917SOL    HW112071   5.138   1.323   2.762 -0.6899  1.9531 -0.2724
 3917SOL    HW212072   4.976   1.334   2.745 -0.4843  2.0270 -2.3494
 3918SOL     OW12073   4.773   4.615   3.004 -0.2170 -0.5257  0.0663
 3918SOL    HW112074   4.782   4.522   3.039 -1.2205 -0.7349 -0.2052
 3918SOL    HW212075   4.782   4.614   2.904  0.4990 -0.2281  0.1246
 3919SOL     OW12076   4.316   1.876   2.023  0.1676  0.3445 -0.6493
 3919SOL    HW112077   4.216   1.872   2.024  0.1835 -0.5985 -1.4461
 3919SOL    HW212078   4.345   1.945   1.956  0.0513  0.2145 -0.8361
 3920SOL     OW12079   5.177   1.690   1.518 -0.2763 -0.7653  0.8079
 3920SOL    HW112080   5.261   1.647   1.551  0.3900  0.0428  0.2109
 3920SOL    HW212081   5.109   1.619   1.500  1.1763 -1.7702 -1.2609
 3921SOL     OW12082   2.574   0.198   1.715 -0.0454 -0.1238  0.5426
 3921SOL    HW112083   2.593   0.286   1.671 -0.3617 -0.4198 -0.1871
 3921SOL    HW212084   2.652   0.137   1.703 -0.0468 -0.1330  0.5798
 3922SOL     OW12085   4.416   5.271   3.459 -0.0746 -0.5027  0.2446
 3922SOL    HW112086   4.357   5.351   3.450  1.0456  0.2156 -1.1965
 3922SOL    HW212087   4.411   5.216   3.375  0.9677 -0.6499  0.2649
 3923SOL     OW12088   4.946   4.645   3.276 -0.1369  1.1379 -0.2294
 3923SOL    HW112089   4.856   4.645   3.320 -0.2690  0.6986 -0.4935
 3923SOL    HW212090   4.958   4.560   3.226  0.5783  1.0384  0.1069
 3924SOL     OW12091   4.622   1.347   3.356  0.1597 -0.0498 -0.0333
 3924SOL    HW112092   4.715   1.376   3.377  0.5516 -2.3433  1.8601
 3924SOL    HW212093   4.559   1.389   3.421  0.2092 -0.3576  0.2169
 3925SOL     OW12094   1.723   0.546   2.919  0.9487  0.8355 -0.1475
 3925SOL    HW112095   1.812   0.535   2.875  1.6993 -0.2459  1.5189
 3925SOL    HW212096   1.723   0.497   3.006 -0.6563  2.3597  0.7819
 3926SOL     OW12097   2.468   1.139   2.843  0.1024  0.3812  0.2928
 3926SOL    HW112098   2.423   1.179   2.763  0.6604  0.8234  0.1973
 3926SOL    HW212099   2.431   1.181   2.926  0.3424  0.7536  0.2133
 3927SOL     OW12100   0.624   0.217   3.483  0.5078  0.6266  0.2097
 3927SOL    HW112101   0.620   0.118   3.472 -0.5774  0.6696  0.1149
 3927SOL    HW212102   0.610   0.261   3.394 -0.0338  0.8727  0.4107
 3928SOL     OW12103   4.581   2.133   3.121  0.5776 -0.1374  0.1904
 3928SOL    HW112104   4.491   2.175   3.108 -0.1875 -1.7999 -0.2197
 3928SOL    HW212105   4.569   2.035   3.138  2.3033 -0.3041  0.5800
 3929SOL     OW12106   4.630   1.265   3.672 -0.0653 -0.2864 -0.0607
 3929SOL    HW112107   4.710   1.207   3.660  0.4335  0.4580 -0.3655
 3929SOL    HW212108   4.621   1.290   3.769  0.8571  0.7171 -0.2103
 3930SOL     OW12109   4.473   5.518   5.087  0.7344 -0.5619 -0.0069
 3930SOL    HW112110   4.471   5.460   5.006  0.9415 -0.2502 -0.2380
 3930SOL    HW212111   4.567   5.528   5.118  0.6743 -0.5323  0.1654
 3931SOL     OW12112   1.308   1.591   2.909  0.1296  0.1927  0.0944
 3931SOL    HW112113   1.316   1.602   3.008 -2.8081  2.6207  0.2063
 3931SOL    HW212114   1.240   1.521   2.889  0.1816  0.2224 -0.1861
 3932SOL     OW12115   4.005   2.458   1.658 -0.2333 -0.5608  0.5513
 3932SOL    HW112116   3.914   2.422   1.636 -0.9745  1.7056 -0.3219
 3932SOL    HW212117   4.032   2.426   1.749 -1.4136 -2.1214  0.4014
 3933SOL     OW12118   0.778   1.149   4.091  0.0593 -0.1435 -0.1889
 3933SOL    HW112119   0.707   1.119   4.155 -0.6774 -1.0703 -1.4025
 3933SOL    HW212120   0.795   1.077   4.024  1.2484  0.5701 -0.6803
 3934SOL     OW12121   5.341   2.333   0.825  0.3809 -0.5557 -0.3227
 3934SOL    HW112122   5.305   2.276   0.899 -0.7532  0.3807 -0.1340
 3934SOL    HW212123   5.278   2.407   0.806  0.9587 -0.4079 -1.8130
 3935SOL     OW12124   2.045   2.279   2.225 -0.0118 -0.2479  0.3647
 3935SOL    HW112125   2.028   2.377   2.224  1.7758  0.1176 -1.0792
 3935SOL    HW212126   2.034   2.244   2.318 -0.0206  1.4483  1.0374
 3936SOL     OW12127   3.244   2.194   3.506 -0.4981 -0.2930 -0.4579
 3936SOL    HW112128   3.290   2.121   3.556 -0.6424  0.0443  0.1800
 3936SOL    HW212129   3.147   2.196   3.531 -0.6409 -0.3288 -1.0001
 3937SOL     OW12130   3.948   0.156   3.026  0.7740  0.2841 -0.4430
 3937SOL    HW112131   3.903   0.099   2.958  0.9907 -3.1364  2.0005
 3937SOL    HW212132   3.885   0.227   3.057 -0.8154 -0.7150 -1.2355
 3938SOL     OW12133   3.233   5.262   2.189 -0.0156 -0.0359 -0.3052
 3938SOL    HW112134   3.299   5.320   2.237 -1.6918  1.0489  0.8369
 3938SOL    HW212135   3.279   5.212   2.116  2.3565 -0.5712  1.4387
 3939SOL     OW12136   4.676   1.138   4.174  0.9922  0.7055  0.3543
 3939SOL    HW112137   4.678   1.043   4.143  0.5269  1.3272 -1.7488
 3939SOL    HW212138   4.598   1.152   4.234 -0.4755  0.3046 -1.3835
 3940SOL     OW12139   0.797   3.278   1.761 -0.0901 -0.1680  0.0324
 3940SOL    HW112140   0.832   3.368   1.787  0.7999 -0.4518 -0.1241
 3940SOL    HW212141   0.731   3.247   1.829 -0.9449  0.8898 -0.2756
 3941SOL     OW12142   2.347   2.476   2.075 -0.3958 -0.1245  0.2974
 3941SOL    HW112143   2.269   2.484   2.137 -0.9612 -2.4609 -0.0466
 3941SOL    HW212144   2.357   2.381   2.045  0.4041  0.7532 -2.5133
 3942SOL     OW12145   0.624   0.578   1.142 -0.5368 -0.8475  0.1396
 3942SOL    HW112146   0.532   0.616   1.137 -0.6879 -0.6593  2.9399
 3942SOL    HW212147   0.678   0.630   1.209  2.2577  0.2147 -2.6702
 3943SOL     OW12148   3.589   1.117   1.139 -0.0406  0.0014 -0.2762
 3943SOL    HW112149   3.517   1.109   1.207 -0.7236  0.8933 -0.8787
 3943SOL    HW212150   3.549   1.143   1.051  0.8022 -1.2139 -1.0651
 3944SOL     OW12151   4.911   1.864   3.111  0.1158  0.1304 -0.5397
 3944SOL    HW112152   4.964   1.917   3.177 -1.1269  1.3280 -0.4396
 3944SOL    HW212153   4.815   1.863   3.139  0.0466 -1.9603 -0.7198
 3945SOL     OW12154   3.875   5.001   2.770 -0.4360  0.0759 -0.1858
 3945SOL    HW112155   3.972   4.979   2.774 -0.3077  0.6468  0.0085
 3945SOL    HW212156   3.861   5.079   2.709 -0.9629 -0.9639 -1.4374
 3946SOL     OW12157   0.869   1.143   3.123  0.1748  0.3747 -1.0755
 3946SOL    HW112158   0.786   1.156   3.178  0.8508  1.1938 -0.2164
 3946SOL    HW212159   0.873   1.049   3.090  0.0922 -0.3545  0.8685
 3947SOL     OW12160   4.682   4.869   2.307 -0.2197  0.3715 -0.0442
 3947SOL    HW112161   4.756   4.933   2.286  1.1054 -1.1522 -0.2283
 3947SOL    HW212162   4.641   4.836   2.222  0.1537 -0.1930 -0.0096
 3948SOL     OW12163   4.334   0.711   1.803 -0.2999  0.2562 -0.0508
 3948SOL    HW112164   4.356   0.636   1.741 -1.4009 -0.5711  0.5200
 3948SOL    HW212165   4.239   0.738   1.790 -0.6322 -0.1043  1.4164
 3949SOL     OW12166   3.070   1.644   2.155 -0.6231 -0.7735  0.7921
 3949SOL    HW112167   3.158   1.691   2.143 -0.7802 -0.8664 -0.9487
 3949SOL    HW212168   3.065   1.606   2.248  1.0339 -0.5150  1.0195
 3950SOL     OW12169   5.131   2.709   0.560 -0.1909  0.5379 -0.0612
 3950SOL    HW112170   5.097   2.637   0.500  0.8866  1.0135 -1.2842
 3950SOL    HW212171   5.142   2.794   0.508  1.6902  0.7103  0.5491
 3951SOL     OW12172   2.271   1.495   0.564  0.3219 -0.1167  0.4828
 3951SOL    HW112173   2.272   1.456   0.656  0.4143  0.2205  0.6287
 3951SOL    HW212174   2.359   1.479   0.520  0.2016 -0.4719  0.3686
 3952SOL     OW12175   4.952   2.957   1.431 -0.7135 -0.0027 -0.0353
 3952SOL    HW112176   4.943   2.948   1.530  1.4087 -0.6894  0.1330
 3952SOL    HW212177   4.868   2.997   1.394 -1.0535  1.4976  2.1734
 3953SOL     OW12178   0.122   2.923   2.177  0.4732 -1.0666 -0.4012
 3953SOL    HW112179   0.041   2.878   2.214  0.4656 -0.9614 -0.2903
 3953SOL    HW212180   0.201   2.902   2.234  0.1907  0.3083  0.5584
 3954SOL     OW12181   3.549   4.792   2.906  0.9763 -0.0128  0.4652
 3954SOL    HW112182   3.537   4.698   2.938  0.3266 -0.0802  0.0530
 3954SOL    HW212183   3.490   4.853   2.959 -0.9796 -0.2798 -1.2650
 3955SOL     OW12184   2.994   0.868   2.157  0.5593  0.0566  0.2503
 3955SOL    HW112185   3.075   0.898   2.108  0.0336  0.7649 -0.2153
 3955SOL    HW212186   2.997   0.900   2.251  0.6798  0.3376  0.1499
 3956SOL     OW12187   4.978   2.376   0.097 -0.0442 -0.0281  0.1836
 3956SOL    HW112188   4.953   2.473   0.096 -0.5251 -0.1055  1.6313
 3956SOL    HW212189   4.993   2.347   0.192 -1.5108 -1.7405 -0.0452
 3957SOL     OW12190   2.450   5.568   2.715 -0.0717 -0.9238  0.7560
 3957SOL    HW112191   2.394   5.525   2.785  0.7848 -0.3436  1.8143
 3957SOL    HW212192   2.519   5.503   2.683 -1.1561 -1.5752 -0.4137
 3958SOL     OW12193   3.457   0.382   2.636  0.2895  0.2190  0.1013
 3958SOL    HW112194   3.492   0.409   2.726 -0.7440  1.2441  0.2146
 3958SOL    HW212195   3.365   0.420   2.623  0.4512  0.1420 -1.4175
 3959SOL     OW12196   4.377   1.315   2.439 -0.6157 -0.6025 -0.2786
 3959SOL    HW112197   4.418   1.311   2.348  0.9660 -0.3844  0.3939
 3959SOL    HW212198   4.441   1.278   2.506 -1.4030  0.0400  0.8616
 3960SOL     OW12199   4.501   5.296   4.940 -1.1167 -0.0900 -0.4363
 3960SOL    HW112200   4.576   5.244   4.979  0.5581  0.7771 -2.2950
 3960SOL    HW212201   4.496   5.278   4.841 -1.1145  2.4587 -0.9575
 3961SOL     OW12202   2.990   0.660   1.807  0.1830  0.2897  0.9126
 3961SOL    HW112203   3.014   0.576   1.857 -1.7220 -0.7668  0.1631
 3961SOL    HW212204   2.915   0.706   1.855 -0.6840  0.0399 -0.1782
 3962SOL     OW12205   1.478   1.928   2.231  0.1542  0.0911  0.0542
 3962SOL    HW112206   1.535   1.933   2.149 -0.2814 -0.2828 -0.2820
 3962SOL    HW212207   1.452   1.832   2.247 -0.8659  0.3215 -0.1451
 3963SOL     OW12208   3.591   1.268   5.363 -0.6475  0.6458  0.3092
 3963SOL    HW112209   3.519   1.203   5.336 -1.4919  1.2258  1.1093
 3963SOL    HW212210   3.680   1.230   5.338 -1.2173 -0.0775 -0.7328
 3964SOL     OW12211   2.939   5.465   1.509  0.4088 -0.1959 -0.7316
 3964SOL    HW112212   3.032   5.452   1.474  0.8384  1.0526 -0.1268
 3964SOL    HW212213   2.876   5.408   1.458  1.4673 -0.8419 -1.3586
 3965SOL     OW12214   3.039   5.255   3.026 -0.3023 -0.2863  0.2470
 3965SOL    HW112215   2.974   5.255   2.950  1.5873  0.5627 -1.4682
 3965SOL    HW212216   3.001   5.307   3.102 -2.0558 -0.7288 -0.2889
 3966SOL     OW12217   3.783   4.420   1.719 -0.0948  0.2910  0.3191
 3966SOL    HW112218   3.801   4.518   1.732 -0.7621  0.4431  0.1353
 3966SOL    HW212219   3.834   4.367   1.787 -0.7823  0.8504  1.2811
 3967SOL     OW12220   3.584   5.218   3.211 -0.2470  0.1900 -0.3041
 3967SOL    HW112221   3.644   5.138   3.224 -0.4091  0.2783  1.2076
 3967SOL    HW212222   3.630   5.286   3.155  0.2492 -0.5858 -0.8625
 3968SOL     OW12223   3.169   1.120   0.661  0.1228  0.3382  0.5099
 3968SOL    HW112224   3.248   1.084   0.612  0.2043  0.9529  0.1668
 3968SOL    HW212225   3.110   1.045   0.691  0.5691 -0.0947  0.3096
 3969SOL     OW12226   3.950   2.005   1.587 -0.0542  0.0354 -0.0954
 3969SOL    HW112227   3.985   2.064   1.660  1.7721  0.8491 -1.5455
 3969SOL    HW212228   3.903   2.060   1.519  1.7732 -0.1066 -1.5274
 3970SOL     OW12229   0.226   0.299   2.651 -0.3374 -0.2275 -0.1562
 3970SOL    HW112230   0.257   0.305   2.556 -0.4554  0.3274 -0.1593
 3970SOL    HW212231   0.297   0.337   2.711 -0.9015  0.8474 -0.1464
 3971SOL     OW12232   3.346   0.369   1.833  0.7266 -0.0959  0.5721
 3971SOL    HW112233   3.392   0.456   1.853 -0.8556  0.7301  0.8460
 3971SOL    HW212234   3.413   0.295   1.830  1.9750  0.9499  1.4602
 3972SOL     OW12235   3.625   0.250   1.861  0.0730 -0.2015  0.1050
 3972SOL    HW112236   3.635   0.275   1.957  0.3130  1.6094 -0.3568
 3972SOL    HW212237   3.710   0.270   1.813 -0.6724  0.7423 -0.8572
 3973SOL     OW12238   4.412   1.767   1.375  0.5218  0.2991  0.1253
 3973SOL    HW112239   4.389   1.678   1.335  2.1800 -0.5202  0.8847
 3973SOL    HW212240   4.338   1.797   1.435 -0.1061 -0.5130 -0.2317
 3974SOL     OW12241   0.447   3.516   0.940  0.4569  0.1881 -0.1533
 3974SOL    HW112242   0.352   3.501   0.967  0.5454  0.4210  0.2920
 3974SOL    HW212243   0.496   3.429   0.942  0.7724  0.3685  1.6602
 3975SOL     OW12244   1.223   4.844   3.492  0.3380  0.0462  0.3602
 3975SOL    HW112245   1.292   4.912   3.468  0.7634 -0.6425 -0.4138
 3975SOL    HW212246   1.198   4.853   3.588  0.8067  0.9190  0.3992
 3976SOL     OW12247   4.229   0.593   1.333 -0.1908  0.1165 -0.6331
 3976SOL    HW112248   4.229   0.564   1.429 -0.0988  0.9144 -0.3812
 3976SOL    HW212249   4.222   0.513   1.274  0.1549 -0.4162  0.0284
 3977SOL     OW12250   3.977   2.577   2.459 -0.0528 -0.7623  0.0962
 3977SOL    HW112251   3.957   2.674   2.475 -0.1487 -0.7590 -0.0424
 3977SOL    HW212252   3.896   2.523   2.483 -0.3092 -0.7317 -0.6769
 3978SOL     OW12253   1.219   1.605   2.369  0.4513  0.0070 -0.5891
 3978SOL    HW112254   1.270   1.597   2.283  1.2272  2.4721 -0.4421
 3978SOL    HW212255   1.181   1.697   2.376  0.0358 -0.2805  1.5417
 3979SOL     OW12256   5.079   2.315   3.396  0.3089 -0.4317  0.1110
 3979SOL    HW112257   5.149   2.371   3.352 -0.3965 -0.2785 -0.8574
 3979SOL    HW212258   5.009   2.374   3.435 -0.6014 -0.6106 -1.1883
 3980SOL     OW12259   5.036   2.945   1.979 -0.5301  0.4206  0.1221
 3980SOL    HW112260   4.944   2.979   1.997 -1.1656 -0.2440 -1.6487
 3980SOL    HW212261   5.049   2.935   1.880  0.1277 -2.9059  0.4134
 3981SOL     OW12262   3.665   2.209   2.288  0.3741  0.8478  0.3960
 3981SOL    HW112263   3.742   2.187   2.228 -1.1196 -1.5119 -0.8428
 3981SOL    HW212264   3.630   2.300   2.266  2.8310  2.0738  1.1397
 3982SOL     OW12265   4.691   4.631   3.957  0.4653  0.3468  0.0983
 3982SOL    HW112266   4.622   4.700   3.934  0.8447  0.6452 -0.1520
 3982SOL    HW212267   4.690   4.614   4.055 -1.2101 -0.9723 -0.0947
 3983SOL     OW12268   2.387   4.922   2.710  0.4537 -0.1552  0.2807
 3983SOL    HW112269   2.476   4.930   2.755 -0.0909 -1.7722  1.7545
 3983SOL    HW212270   2.321   4.983   2.753  0.8596  1.2465 -0.9879
 3984SOL     OW12271   4.661   0.862   4.151 -0.2580 -0.5344 -0.2334
 3984SOL    HW112272   4.737   0.802   4.172 -0.8894 -1.2935 -0.0773
 3984SOL    HW212273   4.577   0.827   4.193 -0.5600  0.7028  0.2594
 3985SOL     OW12274   5.202   1.605   2.299 -0.0904  0.1515  0.5470
 3985SOL    HW112275   5.269   1.599   2.373 -0.6734 -1.8595  0.9617
 3985SOL    HW212276   5.114   1.636   2.336 -0.6450 -1.7666  0.9369
 3986SOL     OW12277   4.770   1.049   2.573  0.0022  0.1144  0.2020
 3986SOL    HW112278   4.791   0.960   2.612 -1.7193 -0.5505 -0.2934
 3986SOL    HW212279   4.854   1.092   2.539  0.7413 -1.6819 -0.3199
 3987SOL     OW12280   5.057   0.100   0.826 -0.6808  0.2253  0.1466
 3987SOL    HW112281   5.116   0.177   0.849 -1.2139  0.7544 -0.2127
 3987SOL    HW212282   4.986   0.091   0.896 -0.4564 -0.1119  0.3312
 3988SOL     OW12283   3.859   4.802   2.521  0.3963 -0.3922  0.4650
 3988SOL    HW112284   3.772   4.842   2.547 -0.1850 -2.2834  1.6356
 3988SOL    HW212285   3.843   4.715   2.473  1.6222 -0.2222 -0.3035
 3989SOL     OW12286   4.197   5.062   1.423  0.4816 -0.0820  0.9497
 3989SOL    HW112287   4.270   5.001   1.392  0.5351  0.7325 -0.6316
 3989SOL    HW212288   4.112   5.040   1.375  0.8486  1.9759 -0.7849
 3990SOL     OW12289   5.470   1.923   1.696 -0.4446 -0.3607  0.4220
 3990SOL    HW112290   5.389   1.963   1.738 -1.5599 -0.5772 -1.4210
 3990SOL    HW212291   5.542   1.992   1.689 -0.7007  0.0254  1.4458
 3991SOL     OW12292   3.212   0.303   2.901 -0.5002  0.1246  0.5699
 3991SOL    HW112293   3.291   0.323   2.843 -1.0670  0.1844 -0.2005
 3991SOL    HW212294   3.242   0.253   2.982  0.2717 -0.1872  0.1039
 3992SOL     OW12295   4.132   5.305   2.429  0.5165  0.0855  0.8957
 3992SOL    HW112296   4.229   5.279   2.428  1.1607  2.1779  2.6035
 3992SOL    HW212297   4.091   5.282   2.341  2.3345 -1.5634  0.4026
 3993SOL     OW12298   0.546   0.444   4.118 -0.0852  0.3055 -0.0761
 3993SOL    HW112299   0.642   0.462   4.094  0.2135  0.3496  1.0763
 3993SOL    HW212300   0.518   0.355   4.081  1.6993 -1.6871  2.8694
 3994SOL     OW12301   4.806   1.966   4.370  0.2429 -0.2742  0.1988
 3994SOL    HW112302   4.826   1.924   4.281  1.6775 -0.5150  0.6193
 3994SOL    HW212303   4.736   2.036   4.357  1.6035  0.8967 -1.4716
 3995SOL     OW12304   2.331   1.246   3.053 -0.1164 -0.1608 -0.4380
 3995SOL    HW112305   2.310   1.337   3.017 -1.1097 -0.1944  0.0380
 3995SOL    HW212306   2.346   1.252   3.152  0.4934 -0.4150 -0.5057
 3996SOL     OW12307   4.387   2.083   1.078  0.0549 -0.5371  0.0602
 3996SOL    HW112308   4.355   1.988   1.081 -1.1082 -0.1494  0.7828
 3996SOL    HW212309   4.483   2.086   1.050  0.2355 -1.9574  0.4893
 3997SOL     OW12310   4.502   4.979   1.905 -0.1068  0.5555  0.0369
 3997SOL    HW112311   4.565   4.946   1.835 -2.1432 -1.3583 -1.0184
 3997SOL    HW212312   4.498   4.914   1.980 -1.6276  0.0466 -0.4479
 3998SOL     OW12313   3.725   1.008   3.857 -0.0442 -0.9647  0.1849
 3998SOL    HW112314   3.687   0.988   3.767 -2.0481 -1.2197  1.0349
 3998SOL    HW212315   3.772   0.927   3.893 -0.0917 -1.1694 -0.2166
 3999SOL     OW12316   2.177   0.092   1.352  0.0753  0.1262  0.2282
 3999SOL    HW112317   2.122   0.012   1.377 -2.3290  0.9874 -1.8806
 3999SOL    HW212318   2.223   0.127   1.434 -0.6177 -2.0450  1.6400
 4000SOL     OW12319   5.462   0.689   4.767 -0.0052  0.5977  0.0444
 4000SOL    HW112320   5.482   0.745   4.848  1.2247 -0.2301  0.3377
 4000SOL    HW212321   5.532   0.705   4.697 -1.2398  1.5642 -1.0324
 4001SOL     OW12322   0.835   3.512   2.887  0.6568 -0.0347 -0.3231
 4001SOL    HW112323   0.811   3.583   2.952  0.1875 -1.4038  1.0537
 4001SOL    HW212324   0.933   3.518   2.866  0.6974  0.7714  0.0622
 4002SOL     OW12325   4.499   0.302   1.765  0.2112  0.3939  0.2404
 4002SOL    HW112326   4.449   0.218   1.786  0.2306  0.0463 -0.9857
 4002SOL    HW212327   4.596   0.289   1.785  0.1428  0.2892  0.5047
 4003SOL     OW12328   3.274   5.514   1.071 -0.6714 -0.0716 -0.2417
 4003SOL    HW112329   3.319   5.440   1.021 -1.9020  1.5025 -4.0569
 4003SOL    HW212330   3.175   5.499   1.069 -1.0765  2.1928 -2.3503
 4004SOL     OW12331   3.994   0.099   2.015 -0.5177 -0.1851 -0.6359
 4004SOL    HW112332   4.034   0.019   1.970 -1.1341 -1.1589  0.4884
 4004SOL    HW212333   4.062   0.172   2.022  0.3036 -0.9124 -0.9478
 4005SOL     OW12334   4.688   5.428   2.751  0.3199 -0.0612  0.1237
 4005SOL    HW112335   4.621   5.369   2.707 -0.4400  1.0122 -0.2078
 4005SOL    HW212336   4.660   5.445   2.846  0.9430 -0.8346  0.4545
 4006SOL     OW12337   5.251   1.645   1.922  0.4009 -0.0271  0.0173
 4006SOL    HW112338   5.167   1.596   1.900  0.6586 -1.1128  1.2748
 4006SOL    HW212339   5.230   1.730   1.969 -0.0009 -0.4673  0.6479
 4007SOL     OW12340   4.557   1.208   5.530  0.2679 -0.2246  0.4217
 4007SOL    HW112341   4.488   1.141   5.556 -0.9046 -0.0134 -1.8190
 4007SOL    HW212342   4.512   1.287   5.487  1.7612  1.0226  1.0478
 4008SOL     OW12343   2.695   0.504   2.106 -0.0505 -0.2231  0.3390
 4008SOL    HW112344   2.689   0.423   2.048 -0.7787 -0.2223  0.4121
 4008SOL    HW212345   2.743   0.481   2.191 -1.1443 -0.8371  0.8015
 4009SOL     OW12346   0.779   0.574   5.343 -0.6632  0.0126  0.6228
 4009SOL    HW112347   0.839   0.500   5.372 -0.0210 -0.0582 -0.8183
 4009SOL    HW212348   0.795   0.595   5.246 -1.9577  0.9561  0.5801
 4010SOL     OW12349   0.297   5.026   3.695  0.1964  0.9232 -0.4636
 4010SOL    HW112350   0.300   5.091   3.620  1.8076  0.0998 -1.1697
 4010SOL    HW212351   0.385   5.023   3.741  0.5882 -1.5409 -1.1944
 4011SOL     OW12352   0.106   1.672   2.111 -0.1577 -0.2514  0.2490
 4011SOL    HW112353   0.011   1.645   2.122  0.3838 -2.3294  0.3333
 4011SOL    HW212354   0.164   1.615   2.169  1.1078  1.4592  0.7665
 4012SOL     OW12355   4.374   0.963   0.559 -0.1941  0.2684 -0.2530
 4012SOL    HW112356   4.311   1.015   0.501 -2.8650 -0.6294  1.6181
 4012SOL    HW212357   4.344   0.969   0.654  3.6404  1.1574  1.0387
 4013SOL     OW12358   2.438   1.641   2.977  0.3589  0.0680 -0.9573
 4013SOL    HW112359   2.518   1.583   2.964  0.0852 -0.2056 -1.4976
 4013SOL    HW212360   2.459   1.734   2.946  1.4286  0.8089  1.7141
 4014SOL     OW12361   3.835   4.242   2.974  0.3224  0.2560 -0.5382
 4014SOL    HW112362   3.766   4.179   2.937  0.9427 -0.4867 -0.4594
 4014SOL    HW212363   3.926   4.200   2.967  0.5847  0.5434  0.8328
 4015SOL     OW12364   0.701   5.568   3.094 -0.2006  0.2208 -0.2698
 4015SOL    HW112365   0.747   5.499   3.038  1.8881  1.0951  0.2701
 4015SOL    HW212366   0.745   5.572   3.184 -1.0398  1.4713  0.1022
 4016SOL     OW12367   3.912   1.830   2.504 -0.0372 -0.3161 -0.1512
 4016SOL    HW112368   3.893   1.928   2.506 -0.1566 -0.3399 -0.0923
 4016SOL    HW212369   4.011   1.814   2.510 -0.0956 -0.2423  1.7254
 4017SOL     OW12370   3.933   5.021   5.079  0.0442  0.6181 -0.2839
 4017SOL    HW112371   4.024   5.021   5.121  0.0538 -0.4395 -0.2913
 4017SOL    HW212372   3.865   5.048   5.148  0.3861  1.6803 -0.3505
 4018SOL     OW12373   4.884   0.646   3.901  0.1520  0.5678  0.2137
 4018SOL    HW112374   4.944   0.602   3.969 -1.1043  0.3415  1.2024
 4018SOL    HW212375   4.790   0.615   3.914  0.0151 -0.4024 -2.3999
 4019SOL     OW12376   4.641   0.688   4.963 -0.0107  0.3333 -0.4415
 4019SOL    HW112377   4.631   0.781   4.998  0.0145  1.1301 -2.4073
 4019SOL    HW212378   4.583   0.677   4.882 -1.7784 -2.1208  1.0545
 4020SOL     OW12379   2.507   0.490   2.749 -0.5582 -0.2048  0.6184
 4020SOL    HW112380   2.449   0.423   2.702 -1.3611 -0.0927  1.4228
 4020SOL    HW212381   2.544   0.449   2.832  1.3413 -0.6012 -0.3598
 4021SOL     OW12382   3.729   0.845   3.021 -0.0270  0.4034 -0.2868
 4021SOL    HW112383   3.746   0.879   2.928 -0.8941 -0.0175 -0.6107
 4021SOL    HW212384   3.632   0.854   3.042 -0.2259 -1.5057 -0.2453
 4022SOL     OW12385   3.800   3.366   1.568 -0.3151  0.2048 -0.3302
 4022SOL    HW112386   3.813   3.428   1.490 -3.7257  1.7044  0.1086
 4022SOL    HW212387   3.825   3.413   1.652 -0.3663  0.0004 -0.2001
 4023SOL     OW12388   0.386   1.250   4.589 -0.2193 -0.0021 -0.0166
 4023SOL    HW112389   0.460   1.208   4.640 -0.2698  0.3531  0.3524
 4023SOL    HW212390   0.309   1.186   4.581  0.5882 -0.8530 -1.4874
 4024SOL     OW12391   4.184   1.830   1.517  0.3726 -0.1001  0.0735
 4024SOL    HW112392   4.112   1.875   1.570  0.7578  0.0263  0.4936
 4024SOL    HW212393   4.181   1.731   1.534  0.9117  0.0087  0.8528
 4025SOL     OW12394   5.083   2.223   4.080 -0.5598  0.0923  0.1326
 4025SOL    HW112395   5.151   2.160   4.118 -0.5197 -0.0149 -0.1151
 4025SOL    HW212396   5.093   2.313   4.122  0.1781  0.2582 -0.3901
 4026SOL     OW12397   4.841   2.595   2.532  0.1929  0.3960  0.1862
 4026SOL    HW112398   4.816   2.510   2.577  0.1331  1.0299  1.4016
 4026SOL    HW212399   4.788   2.670   2.572  1.5813  1.2730  0.4672
 4027SOL     OW12400   0.640   0.258   2.987 -0.4209  0.5077  0.1656
 4027SOL    HW112401   0.605   0.250   2.894  2.7388  0.5351 -1.1783
 4027SOL    HW212402   0.679   0.170   3.015 -1.0704  0.5860  1.3659
 4028SOL     OW12403   4.379   5.084   3.239  0.3477 -0.1743  0.2573
 4028SOL    HW112404   4.469   5.095   3.198  0.0091 -2.0912 -1.1349
 4028SOL    HW212405   4.366   4.989   3.268 -1.5802 -0.2150 -0.5451
 4029SOL     OW12406   5.400   1.398   3.514 -0.4201  0.4153  0.0395
 4029SOL    HW112407   5.430   1.338   3.589 -0.9490 -0.3330 -0.3290
 4029SOL    HW212408   5.326   1.353   3.464  0.7440  0.3457 -1.7069
 4030SOL     OW12409   3.746   5.167   2.280  0.5357  0.0771 -0.4679
 4030SOL    HW112410   3.836   5.130   2.304 -0.2287 -2.0909 -0.6913
 4030SOL    HW212411   3.729   5.250   2.333  1.2889 -1.3504  2.2170
 4031SOL     OW12412   4.816   1.100   2.224  0.1352  0.8015  0.3631
 4031SOL    HW112413   4.876   1.045   2.282  1.1777  1.3392 -0.1694
 4031SOL    HW212414   4.861   1.117   2.136 -1.0185  0.7998 -0.2437
 4032SOL     OW12415   5.556  -0.035   3.625  0.3490  0.2069 -0.1511
 4032SOL    HW112416   5.548   0.014   3.712  1.2826 -1.9335  1.2074
 4032SOL    HW212417   5.520   0.023   3.552  0.7865  2.6189  1.4227
 4033SOL     OW12418   3.231   0.287   3.988  0.2813  0.1521  0.1219
 4033SOL    HW112419   3.157   0.341   3.948 -0.7155  0.6243  2.4473
 4033SOL    HW212420   3.261   0.330   4.073  1.7192 -1.2396  0.3614
 4034SOL     OW12421   3.799   1.200   4.413  0.0683  0.1143  0.2677
 4034SOL    HW112422   3.839   1.140   4.344  1.0867  0.5583  0.4646
 4034SOL    HW212423   3.791   1.293   4.378  0.7390  0.3778  0.7914
 4035SOL     OW12424   3.867   1.620   3.672  0.3285 -0.0842 -0.3551
 4035SOL    HW112425   3.891   1.715   3.693  0.8539 -0.6760  2.1296
 4035SOL    HW212426   3.804   1.617   3.595 -2.1764  2.5459  1.3823
 4036SOL     OW12427   1.302   3.159   3.054 -0.0243 -0.4097 -0.0452
 4036SOL    HW112428   1.388   3.135   3.099  0.1992 -0.6876 -0.6186
 4036SOL    HW212429   1.299   3.258   3.039 -0.3840 -0.2165  1.1488
 4037SOL     OW12430   2.496   0.835   2.120  0.3784  0.0135 -0.2736
 4037SOL    HW112431   2.487   0.814   2.217 -1.5655  0.6228 -0.2733
 4037SOL    HW212432   2.582   0.883   2.104 -0.3693  2.1764  1.6018
 4038SOL     OW12433   5.120   1.964   0.603 -0.2978  0.5080  0.1751
 4038SOL    HW112434   5.208   1.962   0.649 -0.1729  1.7519  0.0216
 4038SOL    HW212435   5.116   2.043   0.541 -1.0280 -0.2654 -0.7988
 4039SOL     OW12436   4.125   0.336   1.985  0.3397  0.5148 -0.4380
 4039SOL    HW112437   4.156   0.313   1.893 -0.4305  0.0672 -0.5928
 4039SOL    HW212438   4.204   0.341   2.046  0.6330 -2.3811 -0.4254
 4040SOL     OW12439   4.031   1.321   4.559  0.6924  0.2933 -0.3474
 4040SOL    HW112440   4.002   1.271   4.477  2.0641  1.2719 -1.4955
 4040SOL    HW212441   3.956   1.379   4.591  0.2960  0.2998 -1.2479
 4041SOL     OW12442   0.454   2.527   4.043  0.2766 -0.0969 -0.0925
 4041SOL    HW112443   0.522   2.483   4.102  0.4685  1.0966  0.6061
 4041SOL    HW212444   0.392   2.583   4.098 -1.7910 -1.7399 -0.6280
 4042SOL     OW12445   0.568   5.149   3.152 -0.2920 -0.8562 -0.0402
 4042SOL    HW112446   0.587   5.112   3.062  1.7274 -2.3696  0.9501
 4042SOL    HW212447   0.516   5.235   3.142  1.6679  0.1611 -2.7100
 4043SOL     OW12448   0.453   5.464   3.657  0.6078 -0.1645  0.1192
 4043SOL    HW112449   0.544   5.460   3.616  0.4661  1.1999 -0.3732
 4043SOL    HW212450   0.383   5.463   3.585  0.2125 -1.2107  0.4919
 4044SOL     OW12451   2.792   5.138   1.992 -0.5503  0.1206 -0.1191
 4044SOL    HW112452   2.769   5.227   1.954 -1.7076  0.2381  0.7969
 4044SOL    HW212453   2.708   5.083   2.000 -0.1375 -0.3771  0.9966
 4045SOL     OW12454   4.739   1.542   1.462 -0.1486  0.5095 -1.0966
 4045SOL    HW112455   4.707   1.610   1.527 -1.3012  2.5832 -3.6276
 4045SOL    HW212456   4.839   1.545   1.457 -0.1565  1.6255 -0.7475
 4046SOL     OW12457   5.400   0.517   5.029 -0.4377 -0.4835 -0.2337
 4046SOL    HW112458   5.316   0.530   4.978  0.3726 -0.7035 -1.6599
 4046SOL    HW212459   5.433   0.606   5.063 -1.7926 -0.5254  1.2830
 4047SOL     OW12460   4.488   0.141   2.876  0.7469  0.4204 -0.4456
 4047SOL    HW112461   4.434   0.114   2.797  2.0877  1.7995 -1.8812
 4047SOL    HW212462   4.442   0.108   2.959 -1.1596 -0.2900 -1.6948
 4048SOL     OW12463   3.775   5.285   2.029  0.1401 -0.1255 -0.2657
 4048SOL    HW112464   3.739   5.247   2.115 -0.0470 -1.4424 -0.8946
 4048SOL    HW212465   3.766   5.384   2.030  0.6543 -0.0672  1.4629
 4049SOL     OW12466   4.479   4.158   1.634 -0.5180  0.4953  0.3725
 4049SOL    HW112467   4.392   4.202   1.657 -0.5396  0.2158  0.8360
 4049SOL    HW212468   4.510   4.191   1.545  0.0712  2.3707  1.2083
 4050SOL     OW12469   2.603   0.028   3.392  0.0674 -0.5792  0.4233
 4050SOL    HW112470   2.687  -0.025   3.398  1.8145  1.6350 -1.8980
 4050SOL    HW212471   2.576   0.060   3.483  2.3609 -0.4680  1.1177
 4051SOL     OW12472   3.494   2.597   4.049  0.2788  0.1350  0.7854
 4051SOL    HW112473   3.582   2.610   4.095  2.3069  0.7226 -2.9329
 4051SOL    HW212474   3.488   2.503   4.014  1.3433  1.1193 -2.3455
 4052SOL     OW12475   2.049   0.026   2.758 -0.1215  0.0687 -0.1087
 4052SOL    HW112476   2.029   0.108   2.812 -2.0175  0.6026 -1.5358
 4052SOL    HW212477   2.132  -0.018   2.795 -0.1693  1.5047  1.9132
 4053SOL     OW12478   4.121   1.754   3.189  0.6114 -0.8154 -0.0235
 4053SOL    HW112479   4.097   1.665   3.228 -0.3985 -0.7828 -0.5144
 4053SOL    HW212480   4.169   1.809   3.257  0.2143 -1.3111  0.6663
 4054SOL     OW12481   3.015   0.178   2.335  0.4451  0.1556 -0.1139
 4054SOL    HW112482   2.956   0.098   2.336 -1.6285  1.6177  1.0711
 4054SOL    HW212483   3.058   0.190   2.424 -1.9687  2.1547  0.9132
 4055SOL     OW12484   4.764   0.192   3.751 -0.0777 -0.2002  0.6528
 4055SOL    HW112485   4.709   0.207   3.834  0.3988  0.5529  0.8363
 4055SOL    HW212486   4.846   0.249   3.754 -0.6808  0.8070 -0.9332
 4056SOL     OW12487   3.636   0.756   3.503 -0.5290  0.6659 -0.6207
 4056SOL    HW112488   3.617   0.834   3.564  1.2126  1.3459 -0.8820
 4056SOL    HW212489   3.603   0.672   3.545 -0.7613  1.3137  0.5422
 4057SOL     OW12490   4.594   0.437   2.677  0.4635  0.4599  0.5233
 4057SOL    HW112491   4.691   0.461   2.683  0.0145  2.4283  0.7264
 4057SOL    HW212492   4.544   0.512   2.631 -0.7564 -1.1173 -0.8567
 4058SOL     OW12493   0.846   1.171   4.703  0.2575  0.4334  0.5922
 4058SOL    HW112494   0.859   1.188   4.800  1.7890 -0.6178  0.6073
 4058SOL    HW212495   0.919   1.112   4.669 -1.0374 -0.4022 -0.8972
 4059SOL     OW12496   4.252   0.817   4.024  0.0233  0.4154 -0.1270
 4059SOL    HW112497   4.201   0.902   4.013 -0.1598  0.1298 -1.6903
 4059SOL    HW212498   4.264   0.797   4.122  0.4229  2.4275  0.2729
 4060SOL     OW12499   3.817   2.093   2.477  0.0668 -0.4599  0.1631
 4060SOL    HW112500   3.775   2.106   2.567 -1.0635 -0.4687 -0.3412
 4060SOL    HW212501   3.750   2.116   2.406  1.4801  1.2983 -0.6838
 4061SOL     OW12502   3.630   2.013   3.032  1.1000 -0.0335  0.7230
 4061SOL    HW112503   3.597   2.103   3.062  1.6494 -0.3333  2.3572
 4061SOL    HW212504   3.553   1.953   3.015  0.6715  1.0767 -1.6447
 4062SOL     OW12505   5.266   5.392   0.966 -0.1704 -0.3502  0.0114
 4062SOL    HW112506   5.337   5.429   1.025  0.2789  0.2566 -0.8739
 4062SOL    HW212507   5.309   5.351   0.885 -0.7464 -1.5149  0.2896
 4063SOL     OW12508   3.639   0.951   0.686  0.5063  0.3599 -0.1179
 4063SOL    HW112509   3.593   0.923   0.770 -0.0225  0.8032 -0.2535
 4063SOL    HW212510   3.718   0.892   0.669 -0.6646 -1.1406 -0.4767
 4064SOL     OW12511   3.877   2.412   2.926 -0.1291 -0.6089  0.4478
 4064SOL    HW112512   3.894   2.443   3.020  2.3133 -0.3195 -0.0406
 4064SOL    HW212513   3.892   2.314   2.921 -0.1539 -0.6053  0.3195
 4065SOL     OW12514   0.568   1.732   0.137 -0.1516 -0.5532 -0.2206
 4065SOL    HW112515   0.662   1.762   0.153 -1.1881  4.3543 -1.5791
 4065SOL    HW212516   0.526   1.708   0.224  1.6282 -0.3400  0.7592
 4066SOL     OW12517   3.921   5.217   2.607 -0.1863 -0.0030  0.6038
 4066SOL    HW112518   4.008   5.204   2.558 -0.5442 -0.3886  0.0607
 4066SOL    HW212519   3.862   5.276   2.552  0.4085  1.8036  1.8108
 4067SOL     OW12520   3.137   1.764   3.305  0.0332 -0.2686 -0.1178
 4067SOL    HW112521   3.187   1.702   3.244  0.3647 -0.2183  0.1034
 4067SOL    HW212522   3.092   1.711   3.376  1.3456 -0.1740  0.8214
 4068SOL     OW12523   5.228   5.450   2.917 -0.6302  0.1354  0.5138
 4068SOL    HW112524   5.317   5.410   2.897 -0.7902  0.0205  0.0094
 4068SOL    HW212525   5.162   5.376   2.934 -1.3709  0.0550 -2.2722
 4069SOL     OW12526   4.069   2.219   4.026  0.3835  0.5535 -0.0876
 4069SOL    HW112527   4.059   2.185   3.933 -0.0920  0.3220  0.0426
 4069SOL    HW212528   4.124   2.303   4.026 -0.5776  1.2051 -0.7192
 4070SOL     OW12529   5.131   0.732   0.998  0.0444  0.4498 -0.1809
 4070SOL    HW112530   5.078   0.780   1.068 -0.1424  0.6125 -0.4338
 4070SOL    HW212531   5.105   0.765   0.908  2.3308  2.3980 -0.2361
 4071SOL     OW12532   4.609   2.411   5.137 -0.3984 -0.4134 -0.2763
 4071SOL    HW112533   4.611   2.496   5.190 -0.2726 -0.7206  0.2189
 4071SOL    HW212534   4.674   2.346   5.177  0.5397 -0.2440 -1.4966
 4072SOL     OW12535   0.160   3.067   3.388  0.1384  0.6579 -0.4337
 4072SOL    HW112536   0.188   3.155   3.427  2.1498  0.2525 -0.8468
 4072SOL    HW212537   0.232   3.000   3.403 -1.4314 -0.9985  0.0100
 4073SOL     OW12538   1.913   1.219   1.191 -0.5237  0.3381 -0.5112
 4073SOL    HW112539   1.995   1.184   1.146 -0.0918  0.9341 -0.1931
 4073SOL    HW212540   1.851   1.143   1.212 -0.9421  0.0795 -2.4926
 4074SOL     OW12541   5.047   2.123   4.465 -0.0092 -0.6441 -0.0060
 4074SOL    HW112542   5.008   2.216   4.468  1.9604  0.3318 -2.0142
 4074SOL    HW212543   4.983   2.062   4.418 -1.3781 -0.3874  1.4240
 4075SOL     OW12544   0.374   1.901   1.148  0.3774 -0.0294  0.1453
 4075SOL    HW112545   0.284   1.937   1.173  0.3206  0.6752 -0.9827
 4075SOL    HW212546   0.363   1.815   1.097  0.3669 -0.1478  0.3462
 4076SOL     OW12547   2.586   3.537   2.109  0.9857 -0.6133 -0.3040
 4076SOL    HW112548   2.681   3.536   2.079  1.0168 -0.4132 -0.2129
 4076SOL    HW212549   2.582   3.521   2.208  0.8240 -2.3537 -0.5561
 4077SOL     OW12550   1.631   1.924   3.920  0.3189  0.1495  0.1935
 4077SOL    HW112551   1.658   1.865   3.996 -1.0655  1.6015  1.8972
 4077SOL    HW212552   1.578   1.870   3.854 -0.1535 -0.7374  1.2549
 4078SOL     OW12553   4.135   0.976   3.093 -0.0719 -0.4600  0.5644
 4078SOL    HW112554   4.185   1.063   3.093  3.0661 -2.1199  0.1215
 4078SOL    HW212555   4.037   0.995   3.089  0.4272  3.0324  0.8959
 4079SOL     OW12556   4.739   2.640   5.332 -0.6314  0.1699 -0.2610
 4079SOL    HW112557   4.683   2.605   5.408  2.7626  1.3986  3.0969
 4079SOL    HW212558   4.744   2.739   5.338  0.7883  0.1770 -1.3146
 4080SOL     OW12559   3.805   2.882   4.038  0.9753  0.3414 -0.0050
 4080SOL    HW112560   3.768   2.919   4.123  1.2527  2.6207 -0.8273
 4080SOL    HW212561   3.734   2.880   3.968  0.1844 -3.3445  0.6658
 4081SOL     OW12562   3.508   1.825   1.377  0.0944  0.1620  0.7357
 4081SOL    HW112563   3.577   1.895   1.356  0.3191 -0.3313 -0.2543
 4081SOL    HW212564   3.551   1.735   1.375 -0.6431 -0.1900 -0.3251
 4082SOL     OW12565   0.375   0.744   1.232 -0.5959 -0.6052 -0.4066
 4082SOL    HW112566   0.423   0.779   1.313 -1.2573 -0.9007  0.1316
 4082SOL    HW212567   0.375   0.813   1.160  1.4484 -0.9408 -0.7843
 4083SOL     OW12568   3.755   0.162   3.913 -0.3403 -0.5998  0.1765
 4083SOL    HW112569   3.659   0.137   3.920 -0.2971 -0.7317  0.3150
 4083SOL    HW212570   3.764   0.251   3.867 -0.5283 -0.5758  0.1868
 4084SOL     OW12571   5.465   2.076   2.006  0.0086 -0.7273 -0.4056
 4084SOL    HW112572   5.524   2.124   1.942  1.7758 -3.0405 -0.6574
 4084SOL    HW212573   5.392   2.029   1.956 -0.8091  0.4141 -0.3102
 4085SOL     OW12574   3.902   0.885   1.590  0.6650  0.0521 -0.4133
 4085SOL    HW112575   3.806   0.912   1.596  0.5056 -0.5746  0.0268
 4085SOL    HW212576   3.925   0.863   1.495  0.1256 -0.6558 -0.3882
 4086SOL     OW12577   0.174   4.462   3.044  0.1653 -0.1590  0.1770
 4086SOL    HW112578   0.077   4.439   3.053  0.1350 -0.4660 -0.8278
 4086SOL    HW212579   0.187   4.559   3.061 -0.1276 -0.3360  1.5763
 4087SOL     OW12580   3.200   0.172   2.573  0.0280  0.2814  0.6068
 4087SOL    HW112581   3.275   0.158   2.508 -1.4272  0.5009 -1.1969
 4087SOL    HW212582   3.168   0.084   2.607  1.8930  0.2193  2.4374
 4088SOL     OW12583   4.158   0.649   2.214 -0.2471  0.1310 -0.1910
 4088SOL    HW112584   4.062   0.664   2.240 -0.6292 -0.8037 -1.0136
 4088SOL    HW212585   4.191   0.564   2.254  0.7163  1.1515  1.2824
 4089SOL     OW12586   2.793   0.478   1.361  0.0513  0.4779  0.0785
 4089SOL    HW112587   2.885   0.503   1.394  0.0489  0.2640  0.2482
 4089SOL    HW212588   2.767   0.539   1.286  0.0301  1.0181  0.5138
 4090SOL     OW12589   4.065   5.355   3.751  0.0655  0.1607  0.0184
 4090SOL    HW112590   4.059   5.260   3.781 -0.5220  0.4923  0.9730
 4090SOL    HW212591   3.982   5.404   3.778  0.0184  0.7680 -1.1405
 4091SOL     OW12592   3.354   0.289   3.737 -0.0070 -0.1498  0.0820
 4091SOL    HW112593   3.309   0.308   3.825 -1.9411 -0.2409 -0.8378
 4091SOL    HW212594   3.313   0.347   3.666  0.5827 -1.0519 -1.0101
 4092SOL     OW12595   3.356   1.255   0.844  0.0079 -0.2133  0.2457
 4092SOL    HW112596   3.444   1.244   0.798 -0.8463 -2.3653 -1.0173
 4092SOL    HW212597   3.284   1.213   0.789 -1.9476  1.9036  0.9970
 4093SOL     OW12598   5.133   0.227   2.181  0.4018  0.1604 -0.2932
 4093SOL    HW112599   5.123   0.219   2.280  0.5171 -0.1256 -0.3027
 4093SOL    HW212600   5.217   0.180   2.152 -0.0315 -0.4408 -0.6117
 4094SOL     OW12601   3.354   5.115   1.171 -0.6345 -0.3569  0.2392
 4094SOL    HW112602   3.373   5.029   1.123  2.7590 -0.4797  1.5558
 4094SOL    HW212603   3.356   5.100   1.269  1.6020  1.4385  0.5399
 4095SOL     OW12604   4.382   1.218   2.786 -0.1022  0.4152  0.2325
 4095SOL    HW112605   4.352   1.309   2.811  3.2513  1.5875  0.5790
 4095SOL    HW212606   4.328   1.150   2.834 -1.3970  2.2716  1.5171
 4096SOL     OW12607   4.254   0.019   2.749 -0.6485 -0.1536 -0.0419
 4096SOL    HW112608   4.226   0.105   2.791  0.0448 -0.3001  0.7465
 4096SOL    HW212609   4.247  -0.055   2.816 -1.7885 -0.8350 -0.8688
 4097SOL     OW12610   5.027   2.827   3.472  0.2003 -0.3518 -0.3697
 4097SOL    HW112611   5.050   2.867   3.561 -1.9194 -0.2080  0.1508
 4097SOL    HW212612   4.993   2.898   3.411  0.9770 -0.5735 -1.0841
 4098SOL     OW12613   4.898   1.138   2.888  0.3679  0.0321 -0.4352
 4098SOL    HW112614   4.940   1.094   2.809 -0.4466  0.7734 -1.3081
 4098SOL    HW212615   4.860   1.226   2.861 -0.1067  0.2112  0.7453
 4099SOL     OW12616   5.478   2.773   2.317  0.0763 -0.2125 -0.3559
 4099SOL    HW112617   5.532   2.692   2.341  1.7622  0.4988 -1.5190
 4099SOL    HW212618   5.489   2.842   2.389  0.8635 -0.0367 -0.6238
 4100SOL     OW12619   4.622   1.002   3.043 -0.0859  0.5706  0.1767
 4100SOL    HW112620   4.633   0.950   3.128 -1.5409  0.1277  0.1279
 4100SOL    HW212621   4.609   1.099   3.064 -0.7572  0.4187  0.5009
 4101SOL     OW12622   5.260   1.685   5.226  0.0872 -0.4431  0.3888
 4101SOL    HW112623   5.281   1.675   5.129  1.2873  0.0980  0.5818
 4101SOL    HW212624   5.180   1.629   5.249 -0.6823  0.0375 -1.0645
 4102SOL     OW12625   4.377   0.332   2.102  0.0328 -0.4060  0.1339
 4102SOL    HW112626   4.452   0.397   2.110  0.9568 -1.6264  3.0730
 4102SOL    HW212627   4.413   0.242   2.079  0.1096 -1.6566  4.2406
 4103SOL     OW12628   3.444   0.802   2.687  0.3639  0.2752  0.4271
 4103SOL    HW112629   3.373   0.744   2.727  0.5101  0.1818  0.5547
 4103SOL    HW212630   3.413   0.836   2.599  0.4155 -0.2842  0.1869
 4104SOL     OW12631   0.225   2.662   2.634 -0.2993  0.1504  0.0749
 4104SOL    HW112632   0.304   2.601   2.632  0.8334  1.5846 -1.1569
 4104SOL    HW212633   0.160   2.635   2.563 -0.2214 -0.1488  0.1180
 4105SOL     OW12634   0.472   0.781   3.221  0.4984  0.7380  0.3117
 4105SOL    HW112635   0.512   0.733   3.299 -0.3582 -0.3322  0.1187
 4105SOL    HW212636   0.374   0.796   3.238  0.2659  0.3279 -0.6256
 4106SOL     OW12637   4.485  -0.030   2.520  0.0408 -0.5697 -0.1395
 4106SOL    HW112638   4.582  -0.013   2.502 -0.1525 -1.0236 -1.8362
 4106SOL    HW212639   4.443   0.051   2.560  1.2820 -0.6544  1.4297
 4107SOL     OW12640   5.480   1.570   1.377 -0.3448  0.0361  0.4252
 4107SOL    HW112641   5.576   1.565   1.405  0.4347 -2.5683 -2.2665
 4107SOL    HW212642   5.423   1.530   1.449  0.7295  0.2814  1.4452
 4108SOL     OW12643   3.989   0.966   2.408 -0.6434 -0.2295  0.4009
 4108SOL    HW112644   4.026   1.058   2.420  0.3804 -0.7102  1.0445
 4108SOL    HW212645   3.946   0.936   2.494 -0.3891 -0.6004  0.4003
 4109SOL     OW12646   2.390   1.153   2.524  0.0681  0.6225 -0.0671
 4109SOL    HW112647   2.355   1.071   2.570  0.5329 -0.7247 -1.9770
 4109SOL    HW212648   2.405   1.133   2.427  2.9999  2.0828 -0.0389
 4110SOL     OW12649   0.945   2.481   1.883  0.5145  0.1609  0.3419
 4110SOL    HW112650   0.982   2.561   1.931 -0.7015  1.2450 -0.4908
 4110SOL    HW212651   0.887   2.511   1.808  0.4699 -1.5233 -0.3243
 4111SOL     OW12652   4.576   0.271   3.557  0.4236  0.0727 -0.5170
 4111SOL    HW112653   4.486   0.234   3.579 -0.0824  0.7525 -1.3581
 4111SOL    HW212654   4.644   0.238   3.623 -0.6137  0.3247  0.6927
 4112SOL     OW12655   2.017   0.874   1.343 -0.3180  0.2900 -0.8158
 4112SOL    HW112656   2.028   0.942   1.270  0.1714  0.3805 -0.6604
 4112SOL    HW212657   1.953   0.910   1.412  1.1917  1.3246  0.1088
 4113SOL     OW12658   4.034   0.955   2.130 -0.3214  0.0579  0.0267
 4113SOL    HW112659   3.949   0.971   2.080  0.6367 -0.9913 -2.0828
 4113SOL    HW212660   4.013   0.941   2.227 -2.5497 -0.2505 -0.4298
 4114SOL     OW12661   0.147   4.852   2.343 -0.0567 -0.2684  0.2731
 4114SOL    HW112662   0.132   4.796   2.424 -0.3433 -0.2550  0.2281
 4114SOL    HW212663   0.060   4.887   2.309 -0.1275 -1.5829 -0.9718
 4115SOL     OW12664   1.575   0.659   1.918  0.0925  0.3726 -0.1365
 4115SOL    HW112665   1.584   0.585   1.852 -2.3657 -0.4401  0.3380
 4115SOL    HW212666   1.651   0.656   1.983 -0.4567 -2.4157  0.5006
 4116SOL     OW12667   1.500   5.344   3.077 -0.2145 -0.1098 -0.1442
 4116SOL    HW112668   1.433   5.314   3.145 -0.3153 -1.4294 -0.7966
 4116SOL    HW212669   1.557   5.416   3.116 -2.3420  1.4469  0.2566
 4117SOL     OW12670   2.082   2.271   2.597 -0.6818 -0.8455 -0.5072
 4117SOL    HW112671   2.123   2.361   2.582 -1.7610  0.3099  2.6523
 4117SOL    HW212672   2.154   2.205   2.620 -0.1589  0.3928  1.7756
 4118SOL     OW12673   0.239   0.810   2.429 -0.3477 -0.2750  0.5833
 4118SOL    HW112674   0.272   0.832   2.521  1.9990 -0.5857 -0.1274
 4118SOL    HW212675   0.148   0.768   2.436 -1.5576  2.3722  2.5048
 4119SOL     OW12676   4.360   0.512   3.437 -0.0508  0.1567 -0.2857
 4119SOL    HW112677   4.390   0.524   3.343 -0.9739  0.0387 -0.6131
 4119SOL    HW212678   4.439   0.498   3.497  0.6340  1.4759 -0.8426
 4120SOL     OW12679   0.108   4.725   4.207 -0.3931  0.2564  0.0072
 4120SOL    HW112680   0.077   4.788   4.279 -0.9996  0.0710 -0.0919
 4120SOL    HW212681   0.201   4.695   4.228 -0.6635 -0.0068  0.8603
 4121SOL     OW12682   3.091   0.289   1.881  0.5617 -0.4628 -0.1389
 4121SOL    HW112683   3.012   0.303   1.821 -0.7284  1.7828  1.8983
 4121SOL    HW212684   3.175   0.300   1.828 -0.4359 -1.5251 -2.0827
 4122SOL     OW12685   5.224   0.214   2.535 -0.1548 -0.2248 -0.5362
 4122SOL    HW112686   5.217   0.127   2.583 -0.1004  0.1295  0.1239
 4122SOL    HW212687   5.170   0.284   2.583 -1.4389 -0.2318 -1.8929
 4123SOL     OW12688   4.715   0.017   3.064 -0.1606 -0.2928  0.3276
 4123SOL    HW112689   4.717   0.007   3.163 -0.2099  2.4413  0.6776
 4123SOL    HW212690   4.675   0.105   3.040 -0.5774 -1.0782 -2.1651
 4124SOL     OW12691   3.762   1.208   1.923  0.5414  0.0778 -0.0511
 4124SOL    HW112692   3.818   1.212   1.841 -2.7821  1.6156 -2.4650
 4124SOL    HW212693   3.763   1.297   1.969  0.3063  0.0220  0.0645
 4125SOL     OW12694   3.103   5.209   1.051 -0.6934 -0.1331  0.0770
 4125SOL    HW112695   3.188   5.185   1.097 -1.0509  0.5700  1.1457
 4125SOL    HW212696   3.070   5.297   1.085 -1.3992  0.0325 -0.9590
 4126SOL     OW12697   2.786   0.408   2.338  0.3457  0.0405  0.1785
 4126SOL    HW112698   2.749   0.322   2.372  0.5279 -0.1212 -0.0318
 4126SOL    HW212699   2.886   0.407   2.346  0.3847  0.0196 -0.3249
 4127SOL     OW12700   4.412   2.899   2.972 -0.4833 -0.4236  0.0838
 4127SOL    HW112701   4.501   2.863   2.944  0.0476  0.0555  1.1186
 4127SOL    HW212702   4.343   2.872   2.905  0.1260 -2.2194  0.1448
 4128SOL     OW12703   4.409   0.236   2.564 -0.0561  0.7499  0.4625
 4128SOL    HW112704   4.325   0.288   2.555 -0.1239  1.0313  2.3062
 4128SOL    HW212705   4.483   0.296   2.594  0.2983  0.1318  0.8680
 4129SOL     OW12706   3.193   5.398   1.410  0.5452  0.0660  0.0288
 4129SOL    HW112707   3.249   5.480   1.408  0.8133  0.0126  2.4480
 4129SOL    HW212708   3.223   5.338   1.484 -0.2205 -1.8201 -1.1055
 4130SOL     OW12709   3.277   4.029   5.465  0.6442  0.1218 -0.4610
 4130SOL    HW112710   3.279   4.073   5.554 -0.8735  1.7805 -1.1878
 4130SOL    HW212711   3.328   3.943   5.469  1.5147  0.6827  1.6890
 4131SOL     OW12712   4.319   1.183   3.094 -0.6443  0.6335  0.2856
 4131SOL    HW112713   4.413   1.205   3.067 -0.6774  0.7240  0.2463
 4131SOL    HW212714   4.295   1.234   3.176 -1.1471  1.6868 -0.5016
 4132SOL     OW12715   4.170   0.642   2.647  0.2619  0.2054 -0.0611
 4132SOL    HW112716   4.197   0.738   2.634 -0.9599  0.1895 -3.6581
 4132SOL    HW212717   4.073   0.639   2.673  0.2958 -0.0881  0.0296
 4133SOL     OW12718   4.966   1.754   5.013 -0.1786  0.2985  0.2729
 4133SOL    HW112719   4.953   1.704   4.927  2.5944  0.4315 -0.3142
 4133SOL    HW212720   4.990   1.689   5.085  0.2582  0.4560  0.2700
 4134SOL     OW12721   0.643   4.962   4.377 -0.1460  0.2533  0.1657
 4134SOL    HW112722   0.615   4.873   4.412  1.5637 -0.3841  0.0265
 4134SOL    HW212723   0.685   5.015   4.451 -1.3952  1.0717  0.3105
 4135SOL     OW12724   4.428   2.099   4.866 -0.4597 -0.1065  1.1420
 4135SOL    HW112725   4.362   2.034   4.905 -0.2071 -0.1868  1.4355
 4135SOL    HW212726   4.496   2.049   4.812 -0.6825 -0.0163  0.7750
 4136SOL     OW12727   5.184   4.326   0.664 -0.7387 -0.1953  0.0391
 4136SOL    HW112728   5.114   4.374   0.717 -1.4138  0.1332 -1.1072
 4136SOL    HW212729   5.223   4.252   0.719 -0.4107  0.9913  1.4816
 4137SOL     OW12730   5.494   0.932   4.359  0.3970  0.0946  0.0226
 4137SOL    HW112731   5.456   0.904   4.447 -0.5632 -1.5123 -0.8579
 4137SOL    HW212732   5.539   0.854   4.315  0.9726  0.8970 -0.8652
 4138SOL     OW12733   3.237   1.928   3.802 -0.3989 -0.0922 -0.5441
 4138SOL    HW112734   3.292   1.936   3.885  0.9462 -0.7133 -1.3234
 4138SOL    HW212735   3.215   1.831   3.786 -0.2274 -0.0362 -1.1534
 4139SOL     OW12736   3.152   1.809   0.132 -0.6495  0.4221 -0.1816
 4139SOL    HW112737   3.188   1.892   0.174 -0.0215  0.5760 -0.9849
 4139SOL    HW212738   3.052   1.816   0.124 -0.5142  1.5678 -1.1835
 4140SOL     OW12739   4.937   1.616   4.002 -0.1286  0.0956 -0.3983
 4140SOL    HW112740   4.989   1.646   3.921  0.9737  1.5325  0.7930
 4140SOL    HW212741   4.839   1.629   3.985  0.0311 -0.3584 -1.7791
 4141SOL     OW12742   3.406   0.205   1.027 -0.1500  0.1013  0.1551
 4141SOL    HW112743   3.354   0.121   1.018  1.5161 -0.7224 -4.6092
 4141SOL    HW212744   3.345   0.284   1.016 -0.9479 -0.6992 -1.3367
 4142SOL     OW12745   0.969   1.058   3.550 -0.4295  0.2789 -0.1498
 4142SOL    HW112746   1.024   1.133   3.513 -1.0075  0.7336 -0.1037
 4142SOL    HW212747   0.966   0.982   3.484  1.2718 -0.2674  0.3647
 4143SOL     OW12748   2.627   1.131   5.074 -0.4024  0.1158 -0.6317
 4143SOL    HW112749   2.636   1.120   4.975 -1.4471  0.2317 -0.7590
 4143SOL    HW212750   2.530   1.121   5.099 -0.0560 -0.5895  0.4646
 4144SOL     OW12751   4.093   1.353   0.439  0.0546  0.4370  0.3698
 4144SOL    HW112752   4.051   1.305   0.515 -3.1182  2.4794  0.0757
 4144SOL    HW212753   4.183   1.388   0.467  0.2093 -1.2524  2.1745
 4145SOL     OW12754   4.487   1.654   4.928 -0.2298  0.2269  0.1532
 4145SOL    HW112755   4.471   1.610   5.016  0.4525  1.4813  0.9338
 4145SOL    HW212756   4.477   1.587   4.854 -2.2442 -0.5319  1.0573
 4146SOL     OW12757   3.340   2.171   4.089 -0.3826 -0.2775 -0.4632
 4146SOL    HW112758   3.283   2.194   4.168 -1.2214 -1.1583 -0.7932
 4146SOL    HW212759   3.350   2.072   4.083  1.9321 -0.1176  0.0795
 4147SOL     OW12760   4.043   1.954   4.937 -0.1150  0.2255 -0.2111
 4147SOL    HW112761   4.006   1.867   4.967  0.5619 -0.2957 -0.8646
 4147SOL    HW212762   4.141   1.958   4.957  0.2275  0.1144 -1.7309
 4148SOL     OW12763   3.740   3.246   0.182  0.1241 -0.0978 -0.0754
 4148SOL    HW112764   3.668   3.300   0.140  0.2649 -0.3693 -0.6813
 4148SOL    HW212765   3.724   3.149   0.165  0.6147 -0.1627 -0.1991
 4149SOL     OW12766   0.468   0.732   3.862  0.0056  0.1524 -0.1138
 4149SOL    HW112767   0.418   0.689   3.936 -0.1019  0.3901 -0.0459
 4149SOL    HW212768   0.413   0.730   3.778  0.6232 -1.2138 -0.5042
 4150SOL     OW12769   4.024   5.433   0.154 -0.0860 -0.1795  1.0870
 4150SOL    HW112770   3.996   5.512   0.209 -0.3325  0.5879 -0.1152
 4150SOL    HW212771   4.090   5.462   0.085 -0.7728 -0.8815  0.1247
 4151SOL     OW12772   5.468   1.609   4.339  0.4612 -0.4687 -0.3924
 4151SOL    HW112773   5.517   1.522   4.345 -0.0594 -0.6678  1.7837
 4151SOL    HW212774   5.370   1.592   4.337  0.2377  0.0349  2.3785
 4152SOL     OW12775   2.359   1.423   2.782 -0.6037  0.2323 -0.5193
 4152SOL    HW112776   2.409   1.428   2.696 -1.0549 -0.2652 -0.8151
 4152SOL    HW212777   2.375   1.507   2.835  2.3994 -0.8169  0.4377
 4153SOL     OW12778   0.344   1.135   3.331 -0.0927  0.7499  0.0605
 4153SOL    HW112779   0.292   1.154   3.415 -0.8895 -0.5765 -0.0939
 4153SOL    HW212780   0.313   1.048   3.293  2.3323 -0.1300 -0.0145
 4154SOL     OW12781   5.331   2.747   3.988 -0.0456  0.0621 -0.2439
 4154SOL    HW112782   5.402   2.704   4.044 -0.8477 -0.9418  0.0169
 4154SOL    HW212783   5.300   2.684   3.917  0.6102  1.1545 -1.5389
 4155SOL     OW12784   0.203   1.058   0.450 -0.0028  0.0904  0.3486
 4155SOL    HW112785   0.114   1.040   0.407 -1.4093  0.6366  2.7996
 4155SOL    HW212786   0.276   1.040   0.385 -1.9238  0.4461 -2.0724
 4156SOL     OW12787   4.829   0.668   4.257  0.3189  0.0959 -0.3044
 4156SOL    HW112788   4.868   0.579   4.233  0.7111  0.4008 -0.8204
 4156SOL    HW212789   4.878   0.707   4.335  0.2713 -0.0530 -0.2002
 4157SOL     OW12790   4.089   2.082   0.096 -0.6919  0.2518  0.1669
 4157SOL    HW112791   4.185   2.057   0.110 -0.6471  0.7150  0.7267
 4157SOL    HW212792   4.081   2.181   0.093 -1.1572  0.2123  0.1062
 4158SOL     OW12793   0.663   0.947   3.416  0.2313 -0.3570  0.6820
 4158SOL    HW112794   0.638   0.931   3.511  0.5352  0.3869  0.8865
 4158SOL    HW212795   0.752   0.906   3.397  0.3787 -0.1047  0.8366
 4159SOL     OW12796   2.684   0.565   0.559  0.1646 -0.2562 -0.0422
 4159SOL    HW112797   2.615   0.500   0.526 -0.9002  1.5756 -1.6370
 4159SOL    HW212798   2.760   0.568   0.494  0.7784 -0.7402  0.6391
 4160SOL     OW12799   4.392   2.774   4.507  0.1098 -0.5422  0.1904
 4160SOL    HW112800   4.304   2.821   4.523  0.1860  0.0524 -1.0417
 4160SOL    HW212801   4.378   2.697   4.446  0.5155 -0.1547 -0.4018
 4161SOL     OW12802   4.560   2.912   5.089 -0.3862 -0.1934 -0.1299
 4161SOL    HW112803   4.516   2.837   5.139  1.3939 -1.2683 -0.0989
 4161SOL    HW212804   4.503   2.939   5.012 -1.9501 -0.2731  0.9643
 4162SOL     OW12805   0.246   0.691   0.126  0.1550  0.1511  0.1446
 4162SOL    HW112806   0.170   0.755   0.138  0.6782  0.8327 -0.0627
 4162SOL    HW212807   0.238   0.647   0.036  0.0952  0.3508  0.0505
 4163SOL     OW12808   5.388   3.084   4.649 -1.1091  0.5287  0.6063
 4163SOL    HW112809   5.409   3.002   4.596 -1.0260  1.5511 -0.9989
 4163SOL    HW212810   5.289   3.089   4.665 -1.0304 -0.2787  1.4182
 4164SOL     OW12811   0.839   0.634   3.918  0.7317 -0.7843 -0.3446
 4164SOL    HW112812   0.837   0.562   3.988 -0.1369 -0.2656  0.1721
 4164SOL    HW212813   0.761   0.622   3.856  0.5842 -0.2864 -0.2544
 4165SOL     OW12814   4.481   1.485   4.160  0.4772 -0.0756 -0.3906
 4165SOL    HW112815   4.471   1.505   4.258  2.6631 -0.5086 -0.0441
 4165SOL    HW212816   4.401   1.434   4.128  0.8279 -2.1503  1.7842
 4166SOL     OW12817   5.531   0.788   5.035 -0.1579  0.0366 -0.3491
 4166SOL    HW112818   5.619   0.809   4.993 -0.5546  0.5547 -0.9394
 4166SOL    HW212819   5.483   0.873   5.056 -0.6045 -0.2429 -0.2230
 4167SOL     OW12820   1.599   2.935   3.531  0.0457  0.6042  0.3034
 4167SOL    HW112821   1.561   2.891   3.612 -0.3846 -0.8824 -0.6631
 4167SOL    HW212822   1.527   2.950   3.464  0.7815 -0.4271 -0.7553
 4168SOL     OW12823   4.426   1.263   1.118 -0.1892  0.2845 -0.1761
 4168SOL    HW112824   4.460   1.301   1.032  1.2286  0.5874  0.4869
 4168SOL    HW212825   4.480   1.299   1.194  0.0392 -1.6711  0.6493
 4169SOL     OW12826   3.932   1.701   4.984  0.2525 -0.4214 -0.8437
 4169SOL    HW112827   3.866   1.675   5.055 -0.9952  1.0965 -1.3877
 4169SOL    HW212828   4.010   1.638   4.987  0.6129  0.0037  2.3153
 4170SOL     OW12829   0.019   0.384   3.047  0.1395 -0.4312  0.4542
 4170SOL    HW112830  -0.035   0.307   3.012  1.2871 -0.3573 -1.6020
 4170SOL    HW212831   0.092   0.349   3.106 -0.0403 -0.8136  0.4587
 4171SOL     OW12832   4.195   5.154   4.944 -0.0915  0.0687 -0.2625
 4171SOL    HW112833   4.217   5.169   4.847  2.7153  1.3972  0.4974
 4171SOL    HW212834   4.226   5.064   4.972  1.1601  0.5468 -0.0776
 4172SOL     OW12835   3.860   0.962   2.650 -0.0779  0.1572 -0.0647
 4172SOL    HW112836   3.763   0.965   2.675  0.4292  0.4947  2.0382
 4172SOL    HW212837   3.901   1.052   2.664  1.1416 -0.6286  1.9352
 4173SOL     OW12838   5.359   5.536   5.074  0.4671 -0.2780 -0.3745
 4173SOL    HW112839   5.388   5.610   5.013  1.0124 -0.5052 -0.3903
 4173SOL    HW212840   5.344   5.452   5.021  1.9568 -0.7577 -0.0661
 4174SOL     OW12841   3.040   1.168   5.093 -0.4984  1.1565 -0.5190
 4174SOL    HW112842   3.002   1.254   5.128  0.0443  1.2630 -0.1803
 4174SOL    HW212843   3.140   1.170   5.102 -0.5712 -0.1032  0.8909
 4175SOL     OW12844   0.238   4.317   4.154 -0.3828  0.6137  0.4063
 4175SOL    HW112845   0.178   4.309   4.234  0.7297  1.4164  1.3580
 4175SOL    HW212846   0.195   4.374   4.085 -1.1341  0.3605  0.6570
 4176SOL     OW12847   4.958   1.167   4.181 -0.2088 -0.0147 -0.5068
 4176SOL    HW112848   4.869   1.212   4.179 -0.8079 -1.1773 -1.7594
 4176SOL    HW212849   4.945   1.067   4.178  1.0663 -0.2672 -4.8107
 4177SOL     OW12850   3.922   2.092   4.504 -0.2503  0.0569  0.4122
 4177SOL    HW112851   3.959   2.037   4.428 -0.7875 -0.1375  0.2901
 4177SOL    HW212852   3.886   2.178   4.468  1.4270  0.9230  0.7133
 4178SOL     OW12853   4.290   5.378   5.365  0.2167  0.4202 -0.4044
 4178SOL    HW112854   4.236   5.380   5.280  1.2375  2.5167 -1.0812
 4178SOL    HW212855   4.378   5.336   5.346  1.0062  2.1608 -0.8150
 4179SOL     OW12856   0.020   4.377   0.022  0.6701  0.5576  0.4159
 4179SOL    HW112857   0.007   4.381   0.121  1.4205 -1.3848  0.6427
 4179SOL    HW212858   0.087   4.445  -0.006  0.4950  1.0856  1.2520
 4180SOL     OW12859   3.533   2.855   3.964 -0.0388  0.1085  0.0668
 4180SOL    HW112860   3.507   2.763   3.994 -0.4664  0.3579  0.4888
 4180SOL    HW212861   3.486   2.877   3.879 -0.7511  0.3241  0.5067
 4181SOL     OW12862   0.371   0.099   3.837  0.7876 -0.2963 -0.6908
 4181SOL    HW112863   0.352   0.150   3.753 -3.2679 -3.2702 -1.8634
 4181SOL    HW212864   0.400   0.006   3.814  1.7672 -0.5327  1.2792
 4182SOL     OW12865   2.229   2.650   0.308 -0.2733 -0.1632  0.5957
 4182SOL    HW112866   2.321   2.613   0.294  0.6123  2.0320  0.1215
 4182SOL    HW212867   2.195   2.625   0.398  0.7790 -1.0195  0.7657
 4183SOL     OW12868   3.325   1.662   3.716  0.1986 -0.0350  0.1534
 4183SOL    HW112869   3.342   1.594   3.786 -0.5984 -1.7618 -1.2569
 4183SOL    HW212870   3.388   1.649   3.640  0.0803  0.8632 -0.1177
 4184SOL     OW12871   5.336   1.349   4.131 -0.0295  0.2649  0.3654
 4184SOL    HW112872   5.257   1.321   4.076  1.1644 -0.1131 -1.2389
 4184SOL    HW212873   5.402   1.396   4.073  1.0453  0.3542  1.6129
 4185SOL     OW12874   3.636   5.399   4.028  0.1631  0.1548 -0.2109
 4185SOL    HW112875   3.633   5.469   4.099  1.5607  0.4510 -0.4122
 4185SOL    HW212876   3.668   5.312   4.068 -0.4397 -0.0659 -0.1976
 4186SOL     OW12877   0.402   1.515   4.648 -0.2919 -0.2754  0.1819
 4186SOL    HW112878   0.372   1.591   4.589 -0.6495 -0.2818  0.3560
 4186SOL    HW212879   0.375   1.428   4.607 -2.0963 -0.2311  1.2017
 4187SOL     OW12880   4.409   0.899   3.443  0.9445  0.4101  0.8505
 4187SOL    HW112881   4.369   0.934   3.528 -3.9549  0.4693 -1.1856
 4187SOL    HW212882   4.484   0.959   3.415 -0.7385  3.5524  2.4640
 4188SOL     OW12883   0.396   1.872   2.450  0.2099  0.1753 -0.2232
 4188SOL    HW112884   0.374   1.950   2.392  0.0994 -0.3499 -0.8973
 4188SOL    HW212885   0.403   1.790   2.394  0.4578 -0.2780  0.4614
 4189SOL     OW12886   5.517   1.294   5.479 -0.1411 -0.1403  0.5075
 4189SOL    HW112887   5.493   1.369   5.540 -0.7839 -0.1308  0.2517
 4189SOL    HW212888   5.561   1.221   5.531  1.1398  0.7034  0.6399
 4190SOL     OW12889   3.733   4.818   5.387 -0.5363  0.2334 -0.2937
 4190SOL    HW112890   3.689   4.729   5.402  0.5434 -0.2325  0.2021
 4190SOL    HW212891   3.714   4.878   5.465 -0.4405  0.0881 -0.1576
 4191SOL     OW12892   0.237   3.895   0.162  0.0298  0.2344 -0.2742
 4191SOL    HW112893   0.159   3.900   0.099  0.5757  2.5492 -0.8732
 4191SOL    HW212894   0.247   3.801   0.195 -0.9551 -0.8468 -2.7822
 4192SOL     OW12895   5.114   2.896   5.135 -0.6144  1.1156 -0.1707
 4192SOL    HW112896   5.184   2.828   5.112 -0.4596  1.2621 -0.1381
 4192SOL    HW212897   5.032   2.880   5.081 -0.9165  0.3368  0.5067
 4193SOL     OW12898   4.072   0.670   5.235 -0.0929  0.1603  0.4907
 4193SOL    HW112899   4.119   0.701   5.317  0.2459 -0.2330  0.4488
 4193SOL    HW212900   4.020   0.587   5.255 -0.0811  0.1133  0.3305
 4194SOL     OW12901   0.186   4.183   4.957  0.0656 -0.0994  0.2982
 4194SOL    HW112902   0.123   4.137   4.895 -0.9475 -1.3400  2.1479
 4194SOL    HW212903   0.135   4.231   5.028  1.1769  2.0223 -0.2581
 4195SOL     OW12904   4.321   5.452   0.058 -0.2499  0.0414 -0.1116
 4195SOL    HW112905   4.352   5.377   0.116 -3.9385 -0.4771  1.4997
 4195SOL    HW212906   4.303   5.417  -0.034  0.8456 -0.3215 -0.2045
 4196SOL     OW12907   4.730   5.345   3.898 -0.1132 -0.0451  0.4059
 4196SOL    HW112908   4.674   5.409   3.951 -0.0900  0.2951  0.0268
 4196SOL    HW212909   4.735   5.376   3.803  0.5779 -0.1635  0.3969
 4197SOL     OW12910   5.526   0.464   5.291  0.0267 -0.1925 -0.0617
 4197SOL    HW112911   5.477   0.521   5.224  0.9297  1.6793  0.7957
 4197SOL    HW212912   5.487   0.372   5.290 -2.9224  0.9160 -0.0918
 4198SOL     OW12913   4.227   1.060   4.929  0.0534  0.4326 -0.0586
 4198SOL    HW112914   4.191   1.053   4.836 -0.9557 -0.8711  0.3911
 4198SOL    HW212915   4.156   1.035   4.994 -0.0376  3.6109  1.2657
 4199SOL     OW12916   0.710   1.480   3.341  0.0173 -0.1956 -0.5206
 4199SOL    HW112917   0.644   1.407   3.358  0.4038 -0.2046  1.1032
 4199SOL    HW212918   0.675   1.541   3.270 -1.5911 -0.4007  0.0569
 4200SOL     OW12919   3.923   5.512   4.329 -0.4198 -1.2254 -0.3679
 4200SOL    HW112920   3.948   5.417   4.347  0.3183 -1.2097 -1.2538
 4200SOL    HW212921   3.934   5.565   4.413  2.2313 -1.3018 -0.5838
 4201SOL     OW12922   4.417   5.054   2.802  0.1848  0.2744  0.4580
 4201SOL    HW112923   4.478   4.981   2.833 -0.6735 -0.2846  0.8418
 4201SOL    HW212924   4.472   5.131   2.769  1.1011  0.0403  1.3981
 4202SOL     OW12925   4.709   2.242   4.705  0.2665  0.4989  0.3701
 4202SOL    HW112926   4.631   2.305   4.708 -0.7553 -0.7456  0.5355
 4202SOL    HW212927   4.676   2.148   4.705  1.8264 -0.0955  2.3514
 4203SOL     OW12928   3.804   5.507   2.860 -0.2033 -0.2661 -0.2433
 4203SOL    HW112929   3.864   5.429   2.839 -2.3908 -2.2815  0.5812
 4203SOL    HW212930   3.771   5.547   2.775 -0.4344 -1.3840 -0.7004
 4204SOL     OW12931   4.471   2.466   3.680  0.3896  0.4494 -0.1413
 4204SOL    HW112932   4.541   2.467   3.752  0.6534 -0.1460 -0.3853
 4204SOL    HW212933   4.480   2.548   3.624  1.1275  0.2021 -0.3926
 4205SOL     OW12934   3.553   0.961   3.653 -0.0018  0.0665  0.4862
 4205SOL    HW112935   3.496   0.950   3.735 -0.2335 -1.3419  0.1643
 4205SOL    HW212936   3.502   1.013   3.584 -0.4061 -0.0867  0.6650
 4206SOL     OW12937   4.908   2.657   5.557  0.4941 -0.5191 -0.4609
 4206SOL    HW112938   4.813   2.686   5.568  0.0727 -2.2093  0.7796
 4206SOL    HW212939   4.921   2.623   5.464 -0.3318 -0.9693 -0.4227
 4207SOL     OW12940   3.170   2.204   4.311 -0.4344 -0.7236  0.7658
 4207SOL    HW112941   3.076   2.181   4.285 -0.8025 -0.5593  1.9149
 4207SOL    HW212942   3.194   2.157   4.396  1.0614 -1.9612 -0.2726
 4208SOL     OW12943   4.680   1.548   5.268 -0.4667 -0.0369 -0.0845
 4208SOL    HW112944   4.690   1.450   5.251 -0.4173  0.0650 -0.6626
 4208SOL    HW212945   4.637   1.591   5.189  0.8552  0.6416 -0.4683
 4209SOL     OW12946   3.524   2.255   3.107  0.1463  0.1305 -0.3603
 4209SOL    HW112947   3.558   2.285   3.196 -2.1969  0.9210  0.3534
 4209SOL    HW212948   3.512   2.334   3.048 -1.2908  0.0352 -0.2359
 4210SOL     OW12949   4.561   5.445   4.339 -0.8394 -0.3997 -0.8667
 4210SOL    HW112950   4.558   5.464   4.437  0.6466 -1.1547 -0.6376
 4210SOL    HW212951   4.509   5.361   4.320 -0.4865 -0.6831 -0.5962
 4211SOL     OW12952   0.153   4.012   5.366  0.1736  0.5166 -0.4337
 4211SOL    HW112953   0.126   3.932   5.419  3.0406  0.6282  1.3951
 4211SOL    HW212954   0.177   3.984   5.273  0.2574 -0.6020 -0.0886
 4212SOL     OW12955   0.954   0.447   4.640  0.0466 -0.2487 -0.0197
 4212SOL    HW112956   1.049   0.469   4.661  0.3636 -1.2226 -0.3479
 4212SOL    HW212957   0.897   0.529   4.649  0.8192  0.2206  0.7188
 4213SOL     OW12958   0.084   2.046   4.464 -0.1428 -0.5010  0.1393
 4213SOL    HW112959   0.090   2.077   4.559  1.0524 -1.6903  0.4875
 4213SOL    HW212960   0.080   1.947   4.462 -0.2112 -0.4854 -1.0688
 4214SOL     OW12961   3.659   0.887   0.182  0.1267 -0.1325 -0.3280
 4214SOL    HW112962   3.712   0.804   0.166  0.0737 -0.2747  0.2284
 4214SOL    HW212963   3.700   0.963   0.132  0.3041 -0.4458 -0.6620
 4215SOL     OW12964   5.361   5.275   4.974  0.0982  0.2620 -0.0424
 4215SOL    HW112965   5.442   5.216   4.975  0.7999  1.1753 -0.9552
 4215SOL    HW212966   5.279   5.218   4.964  0.5495 -0.7182  1.5469
 4216SOL     OW12967   4.528   4.901   5.203 -0.3584 -0.0686  0.1167
 4216SOL    HW112968   4.568   4.822   5.250  0.0814 -0.4887 -0.9230
 4216SOL    HW212969   4.599   4.968   5.182 -0.5121  0.0216 -0.1286
 4217SOL     OW12970   3.057   1.096   3.648  0.4395  0.5134 -0.2350
 4217SOL    HW112971   3.071   1.089   3.747  0.0541 -2.1040 -0.2891
 4217SOL    HW212972   2.968   1.055   3.625  0.9533  0.1994 -1.7531
 4218SOL     OW12973   0.872   0.606   5.078 -0.5229 -0.1894 -0.3030
 4218SOL    HW112974   0.852   0.682   5.016  1.3040 -0.4137 -1.2603
 4218SOL    HW212975   0.857   0.519   5.030 -3.3310 -0.5241  1.0176
 4219SOL     OW12976   5.273   2.412   4.450 -0.0956 -0.5279 -0.5364
 4219SOL    HW112977   5.282   2.450   4.542 -0.5838 -0.6745 -0.4233
 4219SOL    HW212978   5.310   2.319   4.449 -3.0225 -1.8178  0.3852
 4220SOL     OW12979   0.934   1.008   4.492  0.1295  0.2905 -0.3046
 4220SOL    HW112980   0.856   0.947   4.482 -1.6078  2.4851 -0.8179
 4220SOL    HW212981   0.924   1.087   4.431  2.6686  0.7484 -0.2478
 4221SOL     OW12982   5.380   0.925   4.614  0.4274  0.0246 -0.3794
 4221SOL    HW112983   5.386   0.850   4.681 -0.8546 -0.5233 -0.8512
 4221SOL    HW212984   5.390   1.012   4.662  1.2932 -0.4015  0.2692
 4222SOL     OW12985   3.277   1.678   5.491  0.0651 -0.4448 -0.1478
 4222SOL    HW112986   3.226   1.707   5.572 -1.0742 -1.6436 -0.4158
 4222SOL    HW212987   3.308   1.759   5.441  0.9150  0.3317  1.5244
 4223SOL     OW12988   5.171   2.944   0.411 -0.6154 -0.7938 -0.3316
 4223SOL    HW112989   5.260   2.916   0.375  0.3674  1.8261 -0.1524
 4223SOL    HW212990   5.106   2.951   0.335 -0.2843 -1.3498 -0.6743
 4224SOL     OW12991   4.079   1.247   5.479 -0.0965 -0.1037 -0.2832
 4224SOL    HW112992   4.082   1.154   5.517  0.5996 -0.9398 -2.2223
 4224SOL    HW212993   4.099   1.313   5.551  1.2908 -1.5844  0.7659
 4225SOL     OW12994   5.138   0.234   3.370  0.2713 -0.1811 -0.6050
 4225SOL    HW112995   5.042   0.247   3.391 -0.6696 -3.6216 -2.0698
 4225SOL    HW212996   5.176   0.319   3.332 -2.1354  1.2578  0.0004
 4226SOL     OW12997   4.873   0.263   3.463  0.2169  0.1858  0.0396
 4226SOL    HW112998   4.861   0.342   3.523  1.5322  0.6216 -0.2271
 4226SOL    HW212999   4.797   0.259   3.397  0.3469  1.4920 -0.2162
 4227SOL     OW13000   3.562   1.202   5.012  0.2653  0.2181  0.1318
 4227SOL    HW113001   3.533   1.138   4.940  1.3325  1.8668 -1.8614
 4227SOL    HW213002   3.514   1.180   5.097 -1.0800 -1.7988 -1.0557
 4228SOL     OW13003   3.964   2.589   4.358  0.0087  0.1742  0.1220
 4228SOL    HW113004   4.018   2.558   4.436 -0.0117  0.2059  0.1491
 4228SOL    HW213005   3.996   2.679   4.329  0.6181 -0.2336 -0.4854
 4229SOL     OW13006   4.532   0.263   0.701  0.0412  0.3154  0.2357
 4229SOL    HW113007   4.564   0.353   0.671 -0.0697 -0.2035 -1.5106
 4229SOL    HW213008   4.519   0.264   0.801  0.6017  2.0409  0.3212
 4230SOL     OW13009   5.178   1.138   3.571 -0.2337 -0.0227  0.2033
 4230SOL    HW113010   5.126   1.052   3.564 -1.4623  0.6514  0.6488
 4230SOL    HW213011   5.195   1.174   3.480  1.4052 -1.3510 -0.0634
 4231SOL     OW13012   4.221   2.419   0.878 -0.5612  0.2378  0.6581
 4231SOL    HW113013   4.124   2.402   0.894 -0.5390 -0.6786 -0.0777
 4231SOL    HW213014   4.232   2.501   0.822 -0.7871  1.5203  2.3931
 4232SOL     OW13015   5.368   2.552   4.809 -0.7883  0.0025  0.2793
 4232SOL    HW113016   5.305   2.620   4.771 -0.2207 -0.8014 -2.2776
 4232SOL    HW213017   5.458   2.563   4.768  0.7977  0.9389  3.6550
 4233SOL     OW13018   4.345   1.715   0.788  0.4340 -0.4935  0.1103
 4233SOL    HW113019   4.295   1.720   0.702  0.2900  0.6568  0.2439
 4233SOL    HW213020   4.361   1.619   0.812  1.4280 -0.8311 -1.7408
 4234SOL     OW13021   5.332   0.175   3.605  0.3343  0.2379 -0.0276
 4234SOL    HW113022   5.299   0.081   3.613 -1.8699  0.8384 -1.2484
 4234SOL    HW213023   5.354   0.195   3.509 -1.9091  1.7283 -0.3022
 4235SOL     OW13024   5.427   0.738   3.514 -0.2605 -0.7986 -0.3174
 4235SOL    HW113025   5.449   0.802   3.440 -1.8019 -0.4943 -0.5389
 4235SOL    HW213026   5.333   0.705   3.503  0.6837 -3.7023 -0.6399
 4236SOL     OW13027   5.137   0.474   3.722  0.3421  0.2847 -0.4190
 4236SOL    HW113028   5.089   0.387   3.722  0.7687 -0.0755  2.8636
 4236SOL    HW213029   5.102   0.531   3.796  3.2834  0.9526  0.5751
 4237SOL     OW13030   5.222   0.226   4.870 -0.0646 -0.4703 -0.5654
 4237SOL    HW113031   5.160   0.247   4.946 -0.7444  0.0599 -1.2482
 4237SOL    HW213032   5.301   0.287   4.874  0.0360 -0.6270 -0.1294
 4238SOL     OW13033   4.493   4.840   3.976 -0.4171  0.3955 -0.4521
 4238SOL    HW113034   4.560   4.912   3.955  1.1240 -1.3005 -1.6859
 4238SOL    HW213035   4.406   4.862   3.932 -0.7061  2.5940  1.0773
 4239SOL     OW13036   0.868   1.458   1.256  0.3386 -0.3103  0.0761
 4239SOL    HW113037   0.940   1.438   1.323 -0.4217 -1.9830  0.4646
 4239SOL    HW213038   0.795   1.389   1.265 -2.9381  3.0411  1.9050
 4240SOL     OW13039   0.176   0.420   4.706  0.0568 -0.3936 -0.3823
 4240SOL    HW113040   0.130   0.434   4.618 -1.1922  1.7558  0.5234
 4240SOL    HW213041   0.245   0.491   4.719 -0.6563  0.1086  0.8758
 4241SOL     OW13042   4.659   1.074   1.576 -0.0255  0.1794 -0.5804
 4241SOL    HW113043   4.674   1.044   1.481 -1.1159  1.0746 -1.0606
 4241SOL    HW213044   4.688   1.169   1.586 -0.9068  0.4292 -0.3093
 4242SOL     OW13045   4.524   0.608   4.701 -0.4431  0.1792 -0.1633
 4242SOL    HW113046   4.538   0.510   4.691 -0.6188 -0.0988  1.8622
 4242SOL    HW213047   4.427   0.629   4.696 -0.4176  0.2410 -0.4322
 4243SOL     OW13048   4.722   1.581   3.105 -0.4615 -0.7498 -0.4854
 4243SOL    HW113049   4.654   1.620   3.167  1.7274  0.0145  1.5749
 4243SOL    HW213050   4.709   1.620   3.013 -1.7316  0.6709  0.2450
 4244SOL     OW13051   3.964   1.195   0.624  0.1375  0.0920 -0.4041
 4244SOL    HW113052   3.904   1.261   0.670 -0.6888 -1.6213  1.1221
 4244SOL    HW213053   3.913   1.150   0.551 -0.7279 -1.7633  1.2517
 4245SOL     OW13054   2.701   5.033   5.292 -0.7412 -0.0122  0.1507
 4245SOL    HW113055   2.698   4.938   5.323 -1.4492  0.5944  2.0812
 4245SOL    HW213056   2.731   5.036   5.196  1.5006 -1.9967  0.6981
 4246SOL     OW13057   5.038   1.145   0.243  0.5211 -0.0152  0.0439
 4246SOL    HW113058   4.969   1.154   0.171  0.5066  0.9187  0.1618
 4246SOL    HW213059   5.083   1.056   0.234 -0.2395 -0.3689 -0.4346
 4247SOL     OW13060   4.201   1.496   2.534  0.7066  0.3912  0.0718
 4247SOL    HW113061   4.265   1.433   2.490  0.4300 -0.5043  0.9163
 4247SOL    HW213062   4.223   1.503   2.631 -1.1004 -0.7853  0.6116
 4248SOL     OW13063   4.617   0.956   0.129 -0.1440  0.2876  0.1928
 4248SOL    HW113064   4.528   1.000   0.130  0.8269  2.4800 -1.4596
 4248SOL    HW213065   4.682   1.010   0.183  1.2299  1.3525 -2.3645
 4249SOL     OW13066   1.865   0.422   4.533  0.5516 -0.4329 -0.2387
 4249SOL    HW113067   1.838   0.485   4.606  1.2798 -0.8257  0.3790
 4249SOL    HW213068   1.915   0.472   4.462  0.8361 -0.2476  0.0883
 4250SOL     OW13069   5.398   5.482   2.495 -0.0660  0.6281 -0.1010
 4250SOL    HW113070   5.473   5.488   2.561 -0.4688 -0.1283  0.4450
 4250SOL    HW213071   5.410   5.552   2.425  0.1097  1.7971  1.0390
 4251SOL     OW13072   3.246   3.564   5.321 -0.0140 -0.3463 -0.4067
 4251SOL    HW113073   3.192   3.635   5.276 -1.8722 -0.7625  1.0712
 4251SOL    HW213074   3.258   3.587   5.418  1.7183 -0.7248 -0.4997
 4252SOL     OW13075   5.251   1.964   5.222 -0.0261 -0.2032  0.5420
 4252SOL    HW113076   5.239   1.867   5.242 -1.4945  0.1828  1.6976
 4252SOL    HW213077   5.165   2.001   5.185  0.5882  0.6124 -0.1022
 4253SOL     OW13078   2.355   0.641   1.741 -0.3917 -0.1896 -0.3209
 4253SOL    HW113079   2.454   0.651   1.730 -0.4059 -0.8577 -1.1717
 4253SOL    HW213080   2.324   0.698   1.817  0.5526  0.4996 -0.4346
 4254SOL     OW13081   1.003   0.320   3.395 -0.2102 -0.0201  0.2489
 4254SOL    HW113082   0.959   0.323   3.485  0.6130 -0.4304  0.6842
 4254SOL    HW213083   1.088   0.372   3.399 -0.4378  0.4046 -0.4509
 4255SOL     OW13084   5.232   0.735   2.912 -0.5805  0.6707  1.2625
 4255SOL    HW113085   5.257   0.766   2.820 -1.1807  3.0988  1.8734
 4255SOL    HW213086   5.143   0.691   2.908  0.0885 -0.7056  0.4586
 4256SOL     OW13087   4.717   5.475   3.653  0.2585 -0.0811  0.1122
 4256SOL    HW113088   4.679   5.564   3.680  0.8586  0.2693 -0.1667
 4256SOL    HW213089   4.808   5.489   3.614  0.2212 -0.7912 -0.2332
 4257SOL     OW13090   3.576   0.525   4.521 -0.1169  0.6015  0.0620
 4257SOL    HW113091   3.477   0.517   4.532 -0.2844 -0.4103 -1.8044
 4257SOL    HW213092   3.602   0.496   4.429  2.1214 -1.0427  1.1091
 4258SOL     OW13093   3.947   4.773   4.921  0.5091 -0.3216  0.0845
 4258SOL    HW113094   3.975   4.867   4.937  0.4444 -0.3912  0.6258
 4258SOL    HW213095   3.953   4.753   4.823 -1.0360  0.7456 -0.2678
 4259SOL     OW13096   0.631   0.511   3.798 -0.2957 -0.4780  0.3895
 4259SOL    HW113097   0.560   0.581   3.793 -0.6538 -0.8545  0.0877
 4259SOL    HW213098   0.592   0.428   3.838  0.3556 -0.2231  1.5673
 4260SOL     OW13099   2.559   1.509   0.728 -0.6334 -0.1496  0.1767
 4260SOL    HW113100   2.617   1.473   0.655 -0.1148 -0.6502  0.8186
 4260SOL    HW213101   2.554   1.609   0.720  1.7492  0.1277  1.0871
 4261SOL     OW13102   4.579   1.934   5.195  0.4205  0.0809 -0.5207
 4261SOL    HW113103   4.525   1.851   5.206 -2.1737  0.9867 -4.4369
 4261SOL    HW213104   4.616   1.938   5.102  1.6839  2.6969 -0.0136
 4262SOL     OW13105   4.970   2.556   4.750  0.2665  0.1335 -0.5525
 4262SOL    HW113106   5.019   2.550   4.837 -1.4439 -0.0149  0.4683
 4262SOL    HW213107   4.884   2.606   4.765 -0.1938 -0.1594 -2.0985
 4263SOL     OW13108   4.818   5.445   1.814  0.4931 -0.0381 -0.2641
 4263SOL    HW113109   4.889   5.439   1.885 -0.5794  0.4740  0.8809
 4263SOL    HW213110   4.759   5.364   1.820 -0.7304  0.8887  0.6976
 4264SOL     OW13111   3.454   1.818   5.265 -0.2728  0.1381 -0.1382
 4264SOL    HW113112   3.471   1.722   5.287  0.3669 -0.1254 -1.7168
 4264SOL    HW213113   3.529   1.854   5.211  1.3697  2.6216  3.3891
 4265SOL     OW13114   2.746   2.807   4.265  0.6043 -0.7423  0.3860
 4265SOL    HW113115   2.707   2.896   4.286 -1.2484 -1.7519  1.5074
 4265SOL    HW213116   2.767   2.801   4.167  0.1908  0.6911  0.2015
 4266SOL     OW13117   4.768   2.719   3.547  0.1632  0.3816 -0.2996
 4266SOL    HW113118   4.858   2.762   3.537  0.8392 -0.2345  2.4383
 4266SOL    HW213119   4.723   2.754   3.629 -0.7610 -1.5578  0.0777
 4267SOL     OW13120   5.303   1.436   4.626 -0.1940 -0.1646  0.2091
 4267SOL    HW113121   5.307   1.384   4.541  0.4132  0.7507 -0.3339
 4267SOL    HW213122   5.263   1.526   4.609  1.2124  0.5695  0.5904
 4268SOL     OW13123   4.917   0.570   0.217 -0.2740 -0.2149  0.0862
 4268SOL    HW113124   4.839   0.616   0.175  0.6787  2.1032  0.6866
 4268SOL    HW213125   4.984   0.638   0.246  1.8585 -2.1036 -0.1221
 4269SOL     OW13126   4.680   1.269   0.485  0.4116 -0.8730 -0.4083
 4269SOL    HW113127   4.640   1.217   0.561  2.2394 -2.8394 -0.7106
 4269SOL    HW213128   4.761   1.317   0.517 -0.9876  1.5646 -0.2561
 4270SOL     OW13129   0.117   0.719   4.570 -0.6566  0.0489 -0.1274
 4270SOL    HW113130   0.186   0.664   4.617  0.6718  1.1835 -0.6734
 4270SOL    HW213131   0.135   0.718   4.472 -2.1012 -0.5372 -0.4041
 4271SOL     OW13132   0.027   2.127   4.958 -0.0229  0.0757  0.6665
 4271SOL    HW113133   0.027   2.080   5.047 -1.5904  0.0039  0.6597
 4271SOL    HW213134  -0.043   2.198   4.959  0.8842  0.9986 -0.0592
 4272SOL     OW13135   5.036   0.807   5.007 -0.3245  0.5289 -0.2361
 4272SOL    HW113136   5.076   0.866   4.936 -0.0156  0.1270 -0.3973
 4272SOL    HW213137   5.107   0.782   5.073 -0.1183 -0.8168 -0.9457
 4273SOL     OW13138   3.091   0.247   1.128 -0.8693  0.0191 -0.4368
 4273SOL    HW113139   3.128   0.291   1.047 -1.3278  0.0327 -0.6455
 4273SOL    HW213140   3.158   0.250   1.202  0.0414 -1.0985 -1.1846
 4274SOL     OW13141   0.490   0.448   4.894  0.1480  0.4192  0.1069
 4274SOL    HW113142   0.560   0.424   4.827 -0.7606 -0.4352 -0.5655
 4274SOL    HW213143   0.465   0.366   4.946 -0.3925  0.6978  0.2911
 4275SOL     OW13144   0.354   2.572   4.849 -0.4076  0.4758  0.2813
 4275SOL    HW113145   0.348   2.484   4.802  0.6775 -0.9634  2.6586
 4275SOL    HW213146   0.272   2.586   4.905  0.7686 -0.6038  2.3722
 4276SOL     OW13147   3.209   1.540   4.198 -0.0999 -0.1528 -0.1413
 4276SOL    HW113148   3.180   1.504   4.287 -0.9265 -1.9087 -1.0707
 4276SOL    HW213149   3.222   1.465   4.134  0.8967  1.0514 -1.4159
 4277SOL     OW13150   2.494   0.390   0.040 -0.3488 -0.1561  0.1199
 4277SOL    HW113151   2.465   0.479   0.005 -0.2710 -0.3769 -0.5222
 4277SOL    HW213152   2.586   0.397   0.078 -1.5839  0.8227  3.2305
 4278SOL     OW13153   5.118   0.496   4.863  0.2885  0.6486 -0.0435
 4278SOL    HW113154   5.104   0.446   4.777  0.0874  1.8517 -0.7312
 4278SOL    HW213155   5.030   0.509   4.908  0.2022  1.2975 -0.3952
 4279SOL     OW13156   3.912   1.545   2.513 -0.3267 -0.3864  0.6256
 4279SOL    HW113157   4.007   1.522   2.536 -0.6298 -0.5189  1.8229
 4279SOL    HW213158   3.904   1.643   2.498  0.2158 -0.5157 -0.6572
 4280SOL     OW13159   4.750   1.565   1.815  0.1923  0.3328  0.5909
 4280SOL    HW113160   4.686   1.513   1.872  1.0320 -1.2454  0.1381
 4280SOL    HW213161   4.698   1.620   1.750 -0.7426 -0.7067  0.4169
 4281SOL     OW13162   0.558   0.370   0.487 -0.0748 -0.6892  0.1647
 4281SOL    HW113163   0.497   0.439   0.446  1.0074  0.3581  0.2747
 4281SOL    HW213164   0.624   0.340   0.418  1.0213  0.2278  0.7848
 4282SOL     OW13165   1.392   1.121   3.905 -0.5645 -0.7753  0.6180
 4282SOL    HW113166   1.326   1.062   3.857 -0.5699  1.0018 -1.7067
 4282SOL    HW213167   1.346   1.206   3.933  0.6127  0.3712 -0.7984
 4283SOL     OW13168   3.311   1.572   3.134 -0.0229  0.0096 -0.4411
 4283SOL    HW113169   3.298   1.480   3.171 -0.1872 -0.2904 -1.2216
 4283SOL    HW213170   3.350   1.566   3.042  0.9493  0.7632 -0.0921
 4284SOL     OW13171   5.330   1.889   3.985  0.1925  0.3494  0.5213
 4284SOL    HW113172   5.325   1.887   3.885 -2.3145 -0.5545  0.6061
 4284SOL    HW213173   5.331   1.984   4.016 -0.9266  0.6537 -0.3259
 4285SOL     OW13174   0.556   1.531   4.047 -0.2937  0.6605 -0.4221
 4285SOL    HW113175   0.645   1.513   4.088 -0.0229  2.1008 -0.3150
 4285SOL    HW213176   0.510   1.445   4.027  2.0879 -0.2273 -2.6319
 4286SOL     OW13177   0.347   0.959   3.673 -0.1416 -0.3964 -0.0407
 4286SOL    HW113178   0.396   0.879   3.638 -0.4685 -0.5845 -0.0690
 4286SOL    HW213179   0.407   1.011   3.734  1.5395  1.5842 -3.0902
 4287SOL     OW13180   0.493   0.727   5.327 -0.7285  0.3098 -0.0910
 4287SOL    HW113181   0.483   0.661   5.253  0.9881  0.0958 -0.1639
 4287SOL    HW213182   0.563   0.794   5.303  1.9479 -1.3561  2.3669
 4288SOL     OW13183   0.847   0.868   3.051  0.6758  0.5075  0.2611
 4288SOL    HW113184   0.917   0.799   3.074 -0.0911 -0.7986 -1.1302
 4288SOL    HW213185   0.757   0.833   3.076  0.2606  0.9369 -0.6014
 4289SOL     OW13186   4.290   0.288   4.320 -0.1027 -0.2389  0.1613
 4289SOL    HW113187   4.379   0.285   4.365  0.1554 -1.2654 -0.3703
 4289SOL    HW213188   4.218   0.273   4.388  0.2589 -1.4162  0.3141
 4290SOL     OW13189   4.783   1.929   3.433 -0.0382  0.0579  0.1371
 4290SOL    HW113190   4.788   2.023   3.465 -1.1110 -0.5428  2.2727
 4290SOL    HW213191   4.873   1.886   3.442  0.0034  0.3221  1.0928
 4291SOL     OW13192   4.977   0.494   2.279  0.4776  0.8197 -0.0701
 4291SOL    HW113193   4.917   0.557   2.231  1.2223  0.7156 -1.1843
 4291SOL    HW213194   5.052   0.466   2.218  0.2880 -0.9867  0.4509
 4292SOL     OW13195   5.364   0.359   4.590 -0.0024 -0.1303  0.4414
 4292SOL    HW113196   5.423   0.347   4.671  1.4876 -1.0954 -0.7345
 4292SOL    HW213197   5.363   0.456   4.565  0.9517 -0.0637  0.6014
 4293SOL     OW13198   4.398   1.015   1.654  0.5334  0.2031 -0.1162
 4293SOL    HW113199   4.493   1.032   1.631  0.4681  1.5266  0.5028
 4293SOL    HW213200   4.351   0.975   1.575  1.0407  1.7067 -1.2156
 4294SOL     OW13201   3.130   1.454   5.397  0.1598  0.9075 -0.1183
 4294SOL    HW113202   3.200   1.522   5.418  1.3961 -0.2010 -0.5126
 4294SOL    HW213203   3.162   1.364   5.424 -0.9518  0.3153 -0.6995
 4295SOL     OW13204   1.438   4.604   5.065 -0.3140  0.1230 -0.3847
 4295SOL    HW113205   1.345   4.568   5.068 -0.0665 -0.5232 -0.2126
 4295SOL    HW213206   1.460   4.634   4.973 -0.2930 -0.8308 -0.7045
 4296SOL     OW13207   3.914   0.702   2.734 -0.1729 -0.3265  0.0753
 4296SOL    HW113208   3.838   0.661   2.684 -1.7900  1.2286  1.1614
 4296SOL    HW213209   3.910   0.802   2.725  0.1818 -0.0661  2.2877
 4297SOL     OW13210   0.094   0.777   1.357  0.0983  0.2461 -0.3307
 4297SOL    HW113211   0.167   0.731   1.306 -0.6648  0.3659 -1.5782
 4297SOL    HW213212   0.036   0.827   1.293 -0.3288  1.2048  0.7840
 4298SOL     OW13213   5.351   0.473   2.845 -0.5839  0.4420  0.2443
 4298SOL    HW113214   5.352   0.556   2.901  0.3602  1.2715 -0.9561
 4298SOL    HW213215   5.347   0.393   2.904  1.4863  1.2430  1.5735
 4299SOL     OW13216   2.999   2.400   5.328  0.3292  0.6656 -0.2293
 4299SOL    HW113217   3.069   2.410   5.399 -0.0234  1.5253  0.0196
 4299SOL    HW213218   2.908   2.403   5.370  0.1367 -0.6731 -0.5267
 4300SOL     OW13219   4.981   0.675   5.498  0.0314 -0.0397 -0.2005
 4300SOL    HW113220   4.882   0.657   5.505  0.2853 -1.6117 -0.3104
 4300SOL    HW213221   5.010   0.730   5.576 -0.7899 -0.3000  0.3042
 4301SOL     OW13222   3.196   0.440   2.604  0.9399 -0.2699  0.2071
 4301SOL    HW113223   3.173   0.473   2.512  0.1338 -2.1843 -0.3380
 4301SOL    HW213224   3.211   0.341   2.600  2.0210 -0.2029  1.9541
 4302SOL     OW13225   0.106   0.998   3.070 -0.1311  0.1727 -0.2875
 4302SOL    HW113226   0.087   0.931   2.998 -3.0612  0.9545 -0.3730
 4302SOL    HW213227   0.091   1.090   3.034 -0.1782  0.6529  0.9428
 4303SOL     OW13228   3.376   0.601   5.083 -0.0792  0.1208  0.0389
 4303SOL    HW113229   3.333   0.691   5.087  0.6519  0.5057 -0.6155
 4303SOL    HW213230   3.411   0.577   5.174  0.4690  0.8739  0.0355
 4304SOL     OW13231   4.519   3.263   5.433  0.6355 -0.3431 -0.4255
 4304SOL    HW113232   4.507   3.336   5.366 -0.2533  0.0444  0.1357
 4304SOL    HW213233   4.510   3.301   5.525 -1.3017 -1.3948 -0.1482
 4305SOL     OW13234   3.411   0.242   5.198 -0.2395 -0.3757  0.0618
 4305SOL    HW113235   3.407   0.242   5.098 -2.8285 -0.5396  0.0815
 4305SOL    HW213236   3.336   0.186   5.234  1.2565 -1.1580  2.1113
 4306SOL     OW13237   1.362   2.090   4.760  0.3065  0.1673 -0.2235
 4306SOL    HW113238   1.431   2.041   4.706  1.5700  0.1191  1.3706
 4306SOL    HW213239   1.390   2.093   4.856 -1.9380  0.1430  0.4944
 4307SOL     OW13240   0.782   5.184   4.464 -0.0146 -0.3371  0.0583
 4307SOL    HW113241   0.698   5.237   4.453  1.4895  2.7598  1.9448
 4307SOL    HW213242   0.817   5.158   4.374 -1.8866  0.1530 -0.8655
 4308SOL     OW13243   1.460   1.185   1.738 -0.0561  0.6933 -0.2806
 4308SOL    HW113244   1.522   1.114   1.705 -1.3939 -0.3399 -0.6209
 4308SOL    HW213245   1.365   1.158   1.722 -0.7241  1.0971  2.4494
 4309SOL     OW13246   2.402   1.387   5.427 -0.8987  0.0119 -0.1755
 4309SOL    HW113247   2.382   1.362   5.522 -1.8988 -0.7703 -0.5691
 4309SOL    HW213248   2.497   1.365   5.406 -1.3009 -2.1209 -0.0381
 4310SOL     OW13249   4.507   5.201   5.313  0.0940 -0.4609 -0.0237
 4310SOL    HW113250   4.452   5.121   5.288  0.4756 -0.0170 -2.6409
 4310SOL    HW213251   4.583   5.210   5.249  0.4016  1.6435  0.5624
 4311SOL     OW13252   4.467   5.350   3.072  0.8242 -0.8045 -0.2888
 4311SOL    HW113253   4.408   5.344   2.992  0.4183 -0.3251 -0.0273
 4311SOL    HW213254   4.517   5.264   3.083  0.0689 -1.2686 -0.4210
 4312SOL     OW13255   4.467   2.375   4.769 -0.1064  0.4487 -0.3638
 4312SOL    HW113256   4.426   2.427   4.845  0.9469  0.2974  0.3359
 4312SOL    HW213257   4.440   2.279   4.776 -0.3437  0.5105 -0.4234
 4313SOL     OW13258   4.898   1.384   4.609  0.2676  0.4669  0.0356
 4313SOL    HW113259   4.854   1.439   4.537  1.1048  0.8223 -0.2115
 4313SOL    HW213260   4.945   1.307   4.568 -0.4727 -0.1621  0.3429
 4314SOL     OW13261   5.102   2.269   3.807  0.0287 -0.5000 -0.1026
 4314SOL    HW113262   5.022   2.308   3.761  0.9077  0.9429 -0.4847
 4314SOL    HW213263   5.086   2.266   3.905 -0.6049 -0.4636 -0.2036
 4315SOL     OW13264   4.586   2.785   3.752 -0.0901 -0.4935  0.0166
 4315SOL    HW113265   4.613   2.775   3.848  1.7673  1.2398 -0.2427
 4315SOL    HW213266   4.495   2.826   3.747 -0.6077 -1.4868  1.0150
 4316SOL     OW13267   3.407   3.396   5.183 -1.0188 -0.2705 -0.4185
 4316SOL    HW113268   3.374   3.313   5.138 -1.0819  0.0245 -0.9188
 4316SOL    HW213269   3.330   3.443   5.228 -1.0949 -0.1492 -0.6740
 4317SOL     OW13270   4.948   1.448   4.191  0.1035  0.0824  0.3936
 4317SOL    HW113271   5.006   1.371   4.166 -1.9112 -1.1047 -0.9401
 4317SOL    HW213272   4.954   1.519   4.121  2.8373  1.7888  2.1719
 4318SOL     OW13273   4.569   0.644   3.718  0.3695 -0.8939 -0.5494
 4318SOL    HW113274   4.600   0.628   3.624  0.1110 -0.5247 -0.6997
 4318SOL    HW213275   4.470   0.630   3.723  0.1122  0.6770 -0.7075
 4319SOL     OW13276   1.814   2.073   0.840  0.3056  0.8067 -0.4451
 4319SOL    HW113277   1.880   2.137   0.878  0.6146  1.2111 -1.6192
 4319SOL    HW213278   1.848   2.037   0.753 -0.6478  0.3909 -0.6632
 4320SOL     OW13279   2.620   1.375   3.577 -0.6044  0.2088 -0.0586
 4320SOL    HW113280   2.574   1.456   3.541 -0.8430  1.4515  2.7573
 4320SOL    HW213281   2.696   1.404   3.636 -0.7479 -1.6163  1.0912
 4321SOL     OW13282   4.236   2.131   0.829  0.0032  0.2196 -0.2664
 4321SOL    HW113283   4.290   2.131   0.913  2.2661  0.1595 -1.6342
 4321SOL    HW213284   4.244   2.220   0.784  1.4526 -0.7121 -1.9579
 4322SOL     OW13285   4.595   1.094   0.673  0.4439  0.6490 -0.2171
 4322SOL    HW113286   4.516   1.038   0.648  0.2607 -0.4213  2.4491
 4322SOL    HW213287   4.679   1.047   0.647  0.2480 -0.1604  0.5314
 4323SOL     OW13288   5.004   1.335   3.244 -0.2099 -0.3663 -0.3298
 4323SOL    HW113289   4.942   1.261   3.218 -0.4139  0.2830 -1.7579
 4323SOL    HW213290   4.995   1.411   3.180  0.9548  0.3726  0.3409
 4324SOL     OW13291   4.370   0.645   1.049 -0.0407  0.3281 -0.3246
 4324SOL    HW113292   4.399   0.719   0.987  1.5119 -0.4842 -0.6054
 4324SOL    HW213293   4.277   0.618   1.026  0.3964  0.2517 -2.1452
 4325SOL     OW13294   3.542   5.048   0.778 -0.1145  0.2506 -0.8360
 4325SOL    HW113295   3.625   5.059   0.831 -0.4408 -1.0557 -0.0214
 4325SOL    HW213296   3.563   5.004   0.690 -0.1036 -1.3471 -0.0573
 4326SOL     OW13297   4.616   0.906   3.890  1.0844 -0.4332 -0.5283
 4326SOL    HW113298   4.630   0.822   3.837 -0.1086 -1.5012  0.7670
 4326SOL    HW213299   4.661   0.897   3.979  1.6842  0.6767 -0.6985
 4327SOL     OW13300   5.105   1.738   5.500 -0.1447  0.7927  0.0614
 4327SOL    HW113301   5.149   1.648   5.491  0.9654  1.2236  0.9547
 4327SOL    HW213302   5.175   1.810   5.493 -0.7860  1.5172  0.9607
 4328SOL     OW13303   5.110   5.310   3.200 -0.0761  0.0669 -0.1280
 4328SOL    HW113304   5.149   5.377   3.263  0.6693 -0.8460  0.3973
 4328SOL    HW213305   5.011   5.324   3.195  0.0817  1.2767 -0.1186
 4329SOL     OW13306   4.930   0.900   3.852 -0.6801 -0.0522  0.3107
 4329SOL    HW113307   5.005   0.924   3.913  1.5063 -1.0939 -1.7990
 4329SOL    HW213308   4.902   0.805   3.869 -2.0961  0.5522  1.5802
 4330SOL     OW13309   4.631   2.512   1.120  0.0708 -0.7790 -0.1304
 4330SOL    HW113310   4.554   2.454   1.093 -0.7607  0.2148  0.0457
 4330SOL    HW213311   4.707   2.498   1.056 -0.0675 -2.1303 -0.0228
 4331SOL     OW13312   4.152   0.209   4.554  0.2156 -0.3598  0.0397
 4331SOL    HW113313   4.118   0.303   4.566  0.5914 -0.1824 -0.2601
 4331SOL    HW213314   4.079   0.144   4.577 -0.8757  0.0158 -2.0448
 4332SOL     OW13315   0.488   0.931   5.031  0.3040  0.0599 -0.2692
 4332SOL    HW113316   0.539   0.924   5.116 -1.7608 -0.6987  0.9696
 4332SOL    HW213317   0.499   1.023   4.992  2.1983  0.0497  0.1589
 4333SOL     OW13318   0.388   0.053   4.522 -0.1732 -0.3864  0.4977
 4333SOL    HW113319   0.364   0.069   4.618  1.6975  0.3382  0.8921
 4333SOL    HW213320   0.334   0.114   4.464 -0.2761  0.2253  1.2218
 4334SOL     OW13321   1.598   1.814   4.312  0.1207 -0.4197 -0.3429
 4334SOL    HW113322   1.572   1.910   4.308  1.5654  0.1256  1.7951
 4334SOL    HW213323   1.555   1.771   4.392 -0.7707 -1.6655 -1.4557
 4335SOL     OW13324   0.895   0.900   4.961  0.1981  0.2886 -0.1812
 4335SOL    HW113325   0.922   0.992   4.993  0.3711 -0.1156  0.9004
 4335SOL    HW213326   0.971   0.859   4.911 -0.2652  1.1490 -1.6616
 4336SOL     OW13327   0.527   3.794   0.899 -0.2628 -0.3280  0.1611
 4336SOL    HW113328   0.529   3.817   0.802 -0.0937  0.6677  0.3811
 4336SOL    HW213329   0.493   3.701   0.911  2.6945 -1.7032 -1.0744
 4337SOL     OW13330   4.549   3.627   0.160  0.1673 -0.0377  0.1264
 4337SOL    HW113331   4.502   3.658   0.077 -0.6526 -0.8963  0.2445
 4337SOL    HW213332   4.530   3.691   0.235 -0.8129 -0.3523  0.1643
 4338SOL     OW13333   5.336   1.408   1.528  0.3096 -0.2243 -0.2671
 4338SOL    HW113334   5.285   1.339   1.475  1.0918  0.5731 -2.1763
 4338SOL    HW213335   5.337   1.382   1.624  0.5778 -2.8883 -0.9074
 4339SOL     OW13336   4.660   4.642   1.181  0.2137  0.3511 -0.1403
 4339SOL    HW113337   4.689   4.569   1.243  1.1723 -0.2515 -1.2378
 4339SOL    HW213338   4.562   4.635   1.165  0.3347 -0.9241 -0.4628
 4340SOL     OW13339   4.330   4.761   0.097 -0.4202 -0.2578  0.3034
 4340SOL    HW113340   4.243   4.766   0.146 -0.7439  0.6363 -0.3553
 4340SOL    HW213341   4.332   4.678   0.041 -0.8879 -0.2284  0.2415
 4341SOL     OW13342   4.968   3.680   1.032  0.4909 -0.0474 -0.2762
 4341SOL    HW113343   5.060   3.711   1.009  1.0551 -1.0587  0.4730
 4341SOL    HW213344   4.906   3.758   1.038  0.9955  0.5296 -2.0478
 4342SOL     OW13345   0.524   3.229   0.337 -0.0304  0.5517 -0.0122
 4342SOL    HW113346   0.433   3.261   0.365  0.8958  1.0897  2.7100
 4342SOL    HW213347   0.548   3.270   0.249 -1.3175  2.6649  0.5448
 4343SOL     OW13348   4.391   4.866   1.452 -0.8438 -0.4139  0.0770
 4343SOL    HW113349   4.474   4.921   1.444 -3.0322  3.1144 -0.6301
 4343SOL    HW213350   4.407   4.791   1.517  2.6256  0.5287  0.5040
 4344SOL     OW13351   3.093   1.786   2.928 -0.5445  0.5318 -0.0686
 4344SOL    HW113352   3.052   1.834   2.850 -0.4495 -1.0284 -1.1085
 4344SOL    HW213353   3.020   1.758   2.991 -0.9523 -0.6822 -1.0361
 4345SOL     OW13354   5.133   3.500   1.868  0.5354 -0.2814  0.2680
 4345SOL    HW113355   5.035   3.501   1.888  0.6731  0.9942  1.0061
 4345SOL    HW213356   5.148   3.508   1.770 -0.0996 -1.5070  0.0535
 4346SOL     OW13357   0.184   3.027   3.768 -0.2016 -0.0974  0.0722
 4346SOL    HW113358   0.151   3.079   3.690 -0.8761  0.8166  0.9456
 4346SOL    HW213359   0.106   3.000   3.825  0.4247  0.8328  1.3970
 4347SOL     OW13360   5.450   1.302   0.593 -0.1592 -0.6839  0.2270
 4347SOL    HW113361   5.453   1.211   0.635  0.3091 -0.2239  1.2498
 4347SOL    HW213362   5.399   1.364   0.653 -0.1170 -0.1753 -0.2573
 4348SOL     OW13363   4.906   2.608   0.737  0.0019  0.1012  0.1794
 4348SOL    HW113364   4.862   2.698   0.744  0.8921  0.5986 -0.3624
 4348SOL    HW213365   4.920   2.586   0.640  0.4058 -0.3074  0.3286
 4349SOL     OW13366   4.220   1.764   2.508  0.0485 -0.4759  0.4636
 4349SOL    HW113367   4.243   1.799   2.417 -2.1496 -0.9685 -0.3499
 4349SOL    HW213368   4.210   1.665   2.505 -1.4196 -0.3711  0.8593
 4350SOL     OW13369   4.481   2.940   0.433  0.0094 -0.5323 -0.3791
 4350SOL    HW113370   4.571   2.912   0.466 -0.5486  0.3735  2.1443
 4350SOL    HW213371   4.492   3.009   0.362  1.2729 -2.6825 -2.4550
 4351SOL     OW13372   5.122   3.669   5.502 -0.1208  0.3484 -0.0970
 4351SOL    HW113373   5.119   3.595   5.435 -0.8598 -0.1844  0.5099
 4351SOL    HW213374   5.156   3.634   5.589  0.1792  0.8779  0.0021
 4352SOL     OW13375   4.911   3.813   1.723 -0.2579 -0.1902  0.8390
 4352SOL    HW113376   4.891   3.770   1.811  1.2202 -1.7405  0.4670
 4352SOL    HW213377   4.887   3.751   1.649  1.7966 -0.3817  0.2755
 4353SOL     OW13378   0.501   1.551   2.091  0.1620  0.7222  0.6431
 4353SOL    HW113379   0.474   1.576   1.998  1.8061 -0.0266 -0.0789
 4353SOL    HW213380   0.513   1.452   2.096 -1.0020  0.6143  1.9873
 4354SOL     OW13381   4.106   4.287   0.737  0.2645  0.2344  0.0415
 4354SOL    HW113382   4.143   4.379   0.750  1.8752 -0.5507  1.1669
 4354SOL    HW213383   4.166   4.219   0.779 -2.5613 -1.1173  2.2588
 4355SOL     OW13384   3.894   3.826   1.198 -0.2724 -0.0169 -0.1027
 4355SOL    HW113385   3.877   3.762   1.123  0.2498  1.2496 -1.3487
 4355SOL    HW213386   3.991   3.830   1.218 -0.0409  1.7719 -1.3700
 4356SOL     OW13387   1.717   3.908   0.923 -0.1555  0.3886 -0.2996
 4356SOL    HW113388   1.653   3.945   0.855  1.2005  2.0426 -0.7379
 4356SOL    HW213389   1.707   3.959   1.008 -0.0323  0.0546 -0.0863
 4357SOL     OW13390   4.788   0.687   1.556 -0.2929 -0.1055 -0.5696
 4357SOL    HW113391   4.884   0.659   1.561  0.0128  0.9688 -0.0646
 4357SOL    HW213392   4.758   0.721   1.645 -1.2219 -0.6445 -0.6629
 4358SOL     OW13393   4.821   3.106   1.980 -0.0126  0.1747  0.1651
 4358SOL    HW113394   4.759   3.164   2.034  1.8106  2.3691  0.0345
 4358SOL    HW213395   4.839   3.149   1.892 -1.5974 -2.5548 -1.6392
 4359SOL     OW13396   4.538   3.829   5.256 -0.1307  0.2145  0.1552
 4359SOL    HW113397   4.592   3.905   5.292 -0.8498  1.7461 -1.8078
 4359SOL    HW213398   4.588   3.785   5.182 -0.2971 -0.3494  0.3734
 4360SOL     OW13399   3.265   3.545   0.295 -0.2412  0.3757 -0.2461
 4360SOL    HW113400   3.359   3.577   0.289 -0.7950  2.2127  0.2323
 4360SOL    HW213401   3.245   3.515   0.388  0.3685 -1.8287 -0.7608
 4361SOL     OW13402   5.403   4.300   4.773  0.3985 -0.1854 -0.0783
 4361SOL    HW113403   5.424   4.203   4.785  0.1642 -0.4020 -1.2874
 4361SOL    HW213404   5.317   4.309   4.721  0.0133  0.6720  0.6899
 4362SOL     OW13405  -0.016   4.078   0.528  0.2757 -0.1640 -0.1567
 4362SOL    HW113406   0.026   4.101   0.616  0.1649 -0.5337 -0.0037
 4362SOL    HW213407   0.056   4.057   0.461  0.3555 -0.0030 -0.1226
 4363SOL     OW13408   3.783   1.467   2.018 -0.2030 -0.4151 -0.4921
 4363SOL    HW113409   3.836   1.521   1.953 -0.3694 -0.4489 -0.6578
 4363SOL    HW213410   3.837   1.450   2.100 -1.1167  2.5171  0.8382
 4364SOL     OW13411   5.047   4.641   1.171 -0.7249 -0.3977  0.2555
 4364SOL    HW113412   5.123   4.596   1.123  0.1631  0.4961  0.7959
 4364SOL    HW213413   4.968   4.647   1.109 -0.3953 -1.4181 -0.2867
 4365SOL     OW13414   5.511   4.499   1.749  0.1681 -0.8482  0.0956
 4365SOL    HW113415   5.495   4.430   1.678 -0.6361  0.0528 -0.6329
 4365SOL    HW213416   5.579   4.465   1.814  1.1616 -1.5925 -1.2723
 4366SOL     OW13417   0.481   1.452   2.542  0.2277 -0.1269 -0.3663
 4366SOL    HW113418   0.580   1.451   2.532  0.6066 -1.2391  2.6277
 4366SOL    HW213419   0.456   1.487   2.632 -1.9716 -1.5852 -0.3190
 4367SOL     OW13420   3.883   2.763   1.412 -0.2724 -0.6407  0.0340
 4367SOL    HW113421   3.895   2.669   1.379 -0.9787 -0.4799 -0.6998
 4367SOL    HW213422   3.952   2.822   1.369 -0.6391 -0.5928 -0.4969
 4368SOL     OW13423   1.188   2.271   0.529 -0.8055  1.2831  0.7382
 4368SOL    HW113424   1.176   2.214   0.448 -0.3323  0.9173  0.9181
 4368SOL    HW213425   1.167   2.218   0.611 -1.8869  1.8296  0.8381
 4369SOL     OW13426   4.040   3.063   1.818 -1.0169  0.0097 -0.2213
 4369SOL    HW113427   4.091   2.988   1.861 -1.5991 -0.3650 -0.1761
 4369SOL    HW213428   4.074   3.150   1.853 -0.1975 -0.2187 -0.4186
 4370SOL     OW13429   3.366   5.368   2.772  0.1046 -0.3748 -0.3828
 4370SOL    HW113430   3.288   5.429   2.757  1.6234  1.3918 -1.4307
 4370SOL    HW213431   3.335   5.289   2.825 -2.1060  0.9150  0.4352
 4371SOL     OW13432   5.363   3.164   2.355 -0.0729 -0.2918  0.2275
 4371SOL    HW113433   5.419   3.237   2.316  0.4096 -0.2941  0.8985
 4371SOL    HW213434   5.288   3.142   2.292  0.4443 -0.0125 -0.4981
 4372SOL     OW13435   4.474   4.296   1.153  0.2344 -0.6205 -0.1856
 4372SOL    HW113436   4.529   4.257   1.079  0.0028 -1.1256 -0.0975
 4372SOL    HW213437   4.502   4.256   1.240  0.7296  0.2131  0.0479
 4373SOL     OW13438   3.661   2.550   0.922  0.2943  0.1925  0.3393
 4373SOL    HW113439   3.739   2.602   0.956  0.0955 -0.1581  1.3661
 4373SOL    HW213440   3.593   2.613   0.885  0.5144  0.5922  0.6084
 4374SOL     OW13441   5.140   2.195   4.928  0.0785 -0.3901 -0.1223
 4374SOL    HW113442   5.154   2.181   4.830 -0.4903  2.0453 -0.6134
 4374SOL    HW213443   5.053   2.154   4.955 -1.3201  1.6100 -1.3725
 4375SOL     OW13444   4.942   4.011   4.670  0.0443  1.0325 -0.2395
 4375SOL    HW113445   5.034   3.993   4.633 -0.2650 -0.9889 -0.1289
 4375SOL    HW213446   4.891   3.925   4.676 -0.6241  1.5235  3.0164
 4376SOL     OW13447   4.980   1.193   2.444  0.3122 -0.1057 -0.5874
 4376SOL    HW113448   4.943   1.270   2.392 -0.9415 -1.1336 -1.2765
 4376SOL    HW213449   4.999   1.222   2.538  3.0900  1.9383 -1.6278
 4377SOL     OW13450   0.364   3.305   2.155 -0.3739 -0.0476 -0.0327
 4377SOL    HW113451   0.365   3.395   2.197 -0.2264 -0.9273  1.9628
 4377SOL    HW213452   0.270   3.282   2.127 -0.4552  0.5946 -0.3039
 4378SOL     OW13453   5.300   2.314   3.037 -0.2847  0.2005 -0.3002
 4378SOL    HW113454   5.369   2.338   2.970  0.4322 -1.0296 -0.0158
 4378SOL    HW213455   5.260   2.398   3.074  2.3204  1.0391  0.8554
 4379SOL     OW13456   3.225   2.292   0.818  0.6213  0.1725 -0.1873
 4379SOL    HW113457   3.319   2.327   0.816  0.9437 -0.6047 -3.0573
 4379SOL    HW213458   3.212   2.236   0.899  2.4023  0.8583  0.6332
 4380SOL     OW13459   3.692   2.265   0.310  0.0626  0.0038  0.0242
 4380SOL    HW113460   3.633   2.278   0.390 -0.4558  1.6330 -0.5836
 4380SOL    HW213461   3.765   2.333   0.311 -1.3774  1.7138 -2.1165
 4381SOL     OW13462   3.576   4.594   4.793 -0.0011  0.0849 -0.2300
 4381SOL    HW113463   3.650   4.557   4.738  1.0668  2.0494 -0.2082
 4381SOL    HW213464   3.545   4.525   4.859 -0.4399 -1.8663 -2.3693
 4382SOL     OW13465   5.374   2.329   1.616 -0.1213 -0.0627 -0.3289
 4382SOL    HW113466   5.341   2.262   1.550 -0.8405 -0.9502  0.9078
 4382SOL    HW213467   5.305   2.346   1.686  0.3872  1.3210 -0.1172
 4383SOL     OW13468   5.194   3.358   2.452  0.3465  0.2880 -0.1966
 4383SOL    HW113469   5.244   3.279   2.488 -0.1751  0.7483  1.6883
 4383SOL    HW213470   5.259   3.427   2.419  0.7967 -1.0621 -2.2912
 4384SOL     OW13471   5.282   3.480   1.013  0.6192 -0.1124 -0.1688
 4384SOL    HW113472   5.366   3.438   0.979  0.7579  0.1675 -0.1668
 4384SOL    HW213473   5.210   3.410   1.018  0.8783 -0.3750 -0.0723
 4385SOL     OW13474   5.025   3.109   1.102  0.0103  0.6936  0.0133
 4385SOL    HW113475   4.983   3.018   1.101 -1.1501  1.2058 -0.2427
 4385SOL    HW213476   5.004   3.154   1.188 -0.2651  1.0882 -0.2559
 4386SOL     OW13477   4.793   4.481   5.350  0.0283  0.0303 -0.2510
 4386SOL    HW113478   4.718   4.522   5.299  0.0290 -1.6358 -1.7219
 4386SOL    HW213479   4.880   4.517   5.316 -0.0447  0.6120  0.1769
 4387SOL     OW13480   3.907   1.576   1.423 -0.5325  0.9636  0.3488
 4387SOL    HW113481   3.900   1.600   1.326  0.3175  0.7400  0.2244
 4387SOL    HW213482   4.003   1.564   1.447 -0.8080 -0.1999  0.9200
 4388SOL     OW13483   5.196   3.564   2.898  0.1764 -0.3646  0.1602
 4388SOL    HW113484   5.235   3.507   2.826 -0.2122  0.5343 -0.7945
 4388SOL    HW213485   5.142   3.637   2.857  1.3258  1.2063  1.2956
 4389SOL     OW13486   3.755   3.707   2.000  0.3078  0.4450  0.2316
 4389SOL    HW113487   3.801   3.796   1.989 -0.2962  0.7673  0.2783
 4389SOL    HW213488   3.824   3.637   2.018  0.8592  0.7773 -0.4942
 4390SOL     OW13489   2.352   2.630   5.388 -0.3464  0.0062 -0.2090
 4390SOL    HW113490   2.311   2.590   5.470 -1.6488  0.2865 -0.7089
 4390SOL    HW213491   2.291   2.617   5.310  0.6947  0.1015 -1.0593
 4391SOL     OW13492   4.812   2.221   5.221 -0.5909 -0.8280  0.3960
 4391SOL    HW113493   4.782   2.196   5.314 -1.0480 -0.6031  0.3096
 4391SOL    HW213494   4.843   2.139   5.173 -0.1345 -0.9138  0.8223
 4392SOL     OW13495   5.055   3.708   2.247  0.1705  0.4531 -0.2703
 4392SOL    HW113496   5.152   3.689   2.259  0.2866  1.3029  0.1488
 4392SOL    HW213497   5.002   3.657   2.315  0.1654 -1.3252 -1.5271
 4393SOL     OW13498   3.251   3.373   3.538  0.5381  0.0370  0.4234
 4393SOL    HW113499   3.173   3.326   3.578  0.5226 -0.0577  0.2843
 4393SOL    HW213500   3.331   3.362   3.597  1.2847 -2.5703 -0.9333
 4394SOL     OW13501   4.073   4.080   2.975 -0.2658  0.2271 -0.3791
 4394SOL    HW113502   4.129   4.148   3.020 -0.9344 -0.2839  1.2846
 4394SOL    HW213503   4.097   3.989   3.008  0.3068 -0.3545 -2.2388
 4395SOL     OW13504   1.638   2.873   0.528 -0.0337 -0.2399 -0.2805
 4395SOL    HW113505   1.586   2.872   0.443 -1.1735  0.3445  0.3855
 4395SOL    HW213506   1.688   2.787   0.538 -1.9242 -1.3886 -0.3048
 4396SOL     OW13507   3.742   3.399   0.439  0.2363  0.3616 -0.5057
 4396SOL    HW113508   3.813   3.381   0.506  0.5443 -0.3907 -1.0252
 4396SOL    HW213509   3.754   3.339   0.360 -1.8131 -0.8317  0.0054
 4397SOL     OW13510   4.766   3.350   5.513  0.3343  0.4899  0.3203
 4397SOL    HW113511   4.802   3.358   5.419  0.3638  0.4235  0.3260
 4397SOL    HW213512   4.674   3.312   5.510  0.0365  1.1863  0.2626
 4398SOL     OW13513   4.599   4.228   0.922  0.0563  0.5329  0.3077
 4398SOL    HW113514   4.691   4.240   0.884 -0.3387  0.9097 -0.5662
 4398SOL    HW213515   4.543   4.178   0.856 -0.8109  1.7021  0.1244
 4399SOL     OW13516   4.206   4.969   5.270  0.7267  0.0878  0.1695
 4399SOL    HW113517   4.235   4.953   5.175 -0.4095 -1.0605 -0.0243
 4399SOL    HW213518   4.148   4.893   5.299  0.7453  0.6273  1.6670
 4400SOL     OW13519   3.761   3.161   0.929  0.0453  0.3570 -0.8824
 4400SOL    HW113520   3.806   3.075   0.951 -0.5464  0.0887 -0.6783
 4400SOL    HW213521   3.817   3.214   0.865 -0.1763 -0.7478 -2.0155
 4401SOL     OW13522   1.066   2.958   2.270 -0.3421  0.3742  0.5083
 4401SOL    HW113523   1.089   3.014   2.350  3.4594  0.0283 -0.1233
 4401SOL    HW213524   1.079   3.011   2.187  1.5623 -0.8063 -0.0284
 4402SOL     OW13525   3.503   3.359   0.074  0.0678  0.0984  0.3384
 4402SOL    HW113526   3.511   3.338  -0.023  2.1881 -1.1618  0.7181
 4402SOL    HW213527   3.459   3.283   0.122  0.2544  0.1197  0.5486
 4403SOL     OW13528   5.086   1.877   1.692  0.3493  0.2830  0.0926
 4403SOL    HW113529   5.121   1.824   1.615  1.3347  0.6626  0.2649
 4403SOL    HW213530   5.003   1.925   1.664 -1.0849 -1.9902  0.1777
 4404SOL     OW13531   5.249   2.559   1.180 -0.1532 -0.2861 -0.4753
 4404SOL    HW113532   5.198   2.622   1.239 -0.4373 -0.3184 -0.6836
 4404SOL    HW213533   5.185   2.501   1.130  0.0803 -0.1522 -0.9325
 4405SOL     OW13534   3.880   3.504   1.790 -0.1581  0.6271  0.0962
 4405SOL    HW113535   3.849   3.466   1.877 -2.0065  0.8105 -0.4465
 4405SOL    HW213536   3.894   3.603   1.799  0.8818  0.4524  0.4960
 4406SOL     OW13537   2.859   4.424   5.538 -0.4804  0.4248 -0.3016
 4406SOL    HW113538   2.826   4.330   5.546  3.2927 -0.9742  0.6018
 4406SOL    HW213539   2.915   4.433   5.456  0.1199  1.5590  0.2050
 4407SOL     OW13540   5.490   2.140   1.061  0.7678  0.5380  0.3948
 4407SOL    HW113541   5.493   2.219   1.122 -1.3763  0.4044  0.7568
 4407SOL    HW213542   5.398   2.128   1.025  1.7388  0.0167 -2.1644
 4408SOL     OW13543   3.512   1.674   1.081  0.1986 -0.0907 -1.1117
 4408SOL    HW113544   3.451   1.603   1.048 -0.7042  1.0884 -2.0494
 4408SOL    HW213545   3.548   1.648   1.171 -1.2383 -1.0699 -0.7902
 4409SOL     OW13546   4.156   2.433   2.339 -0.3505 -0.0857  0.8272
 4409SOL    HW113547   4.076   2.474   2.381 -1.4842 -1.2559 -0.1157
 4409SOL    HW213548   4.160   2.335   2.359  1.3874  0.1112  1.6513
 4410SOL     OW13549   3.677   1.796   0.882 -0.5364  0.0204 -0.0877
 4410SOL    HW113550   3.620   1.760   0.956 -1.4931 -1.0113 -1.2768
 4410SOL    HW213551   3.620   1.816   0.802  0.6454 -0.2498 -1.0326
 4411SOL     OW13552   4.160   3.805   1.235 -0.8090  0.0965  0.1582
 4411SOL    HW113553   4.225   3.781   1.164 -0.4894  1.7210 -0.1382
 4411SOL    HW213554   4.145   3.727   1.296  1.2800 -0.3561  0.1333
 4412SOL     OW13555   5.234   2.409   2.162  0.3662  0.1226 -0.0034
 4412SOL    HW113556   5.169   2.438   2.092 -1.1925 -2.6744  0.1318
 4412SOL    HW213557   5.311   2.472   2.164 -1.8829  3.1299 -0.7602
 4413SOL     OW13558   5.509   3.926   4.123  0.1491  0.1314 -0.2921
 4413SOL    HW113559   5.595   3.900   4.079 -0.3805 -0.3206 -1.0826
 4413SOL    HW213560   5.461   3.843   4.152 -0.4208  0.3417 -0.6308
 4414SOL     OW13561   4.357   3.111   1.490 -0.4085  0.1318 -0.2529
 4414SOL    HW113562   4.277   3.167   1.511 -0.3066  0.0447  0.3874
 4414SOL    HW213563   4.330   3.015   1.484 -0.4762  0.1811 -0.7432
 4415SOL     OW13564   4.639   3.941   0.600 -0.0063 -0.3600  0.2168
 4415SOL    HW113565   4.609   3.849   0.624 -0.1153 -0.4118 -0.1111
 4415SOL    HW213566   4.629   4.002   0.679 -0.2951 -0.5408  0.3203
 4416SOL     OW13567   4.913   1.547   1.159  0.2459 -0.1004  0.0215
 4416SOL    HW113568   4.897   1.643   1.137 -0.5896 -0.0498  0.7683
 4416SOL    HW213569   4.854   1.489   1.102  0.1294 -0.1235  0.1651
 4417SOL     OW13570   4.309   2.034   4.505 -0.1608  0.1687  1.1000
 4417SOL    HW113571   4.404   2.055   4.482  0.1991  0.9560  3.0906
 4417SOL    HW213572   4.303   1.942   4.542 -1.0057 -1.7846 -3.2935
 4418SOL     OW13573   3.664   1.426   2.552 -0.9947  0.8051 -0.6929
 4418SOL    HW113574   3.594   1.497   2.544 -0.1992  1.5289 -1.4596
 4418SOL    HW213575   3.752   1.468   2.572 -0.8081 -0.1199  0.5512
 4419SOL     OW13576   5.078   5.181   4.947 -0.2542 -0.1046  0.1196
 4419SOL    HW113577   5.024   5.234   5.012  1.1739  0.1207  1.1605
 4419SOL    HW213578   5.066   5.219   4.855 -2.0521 -0.2387  0.2667
 4420SOL     OW13579   5.418   2.606   2.086 -0.1639  0.3527 -0.0143
 4420SOL    HW113580   5.440   2.670   2.159  0.2835  1.3881 -1.0271
 4420SOL    HW213581   5.502   2.561   2.054 -0.4630 -0.6979  0.6356
 4421SOL     OW13582   4.836   3.786   5.502  0.0570  0.3128  0.1973
 4421SOL    HW113583   4.762   3.825   5.556  0.8201  0.7730  0.9389
 4421SOL    HW213584   4.861   3.696   5.538 -0.3040  0.0419 -0.2146
 4422SOL     OW13585   3.760   2.805   0.717  0.2157 -0.5236  0.4904
 4422SOL    HW113586   3.705   2.728   0.685  1.4184 -0.2343 -2.6447
 4422SOL    HW213587   3.857   2.784   0.704  0.6200  0.9908  0.8847
 4423SOL     OW13588   4.996   2.073   1.315  0.7294 -0.3144  0.0667
 4423SOL    HW113589   5.064   2.140   1.345  0.4956 -1.0302  2.3756
 4423SOL    HW213590   5.042   2.001   1.262  1.6023 -0.2490  0.7176
 4424SOL     OW13591   4.012   2.291   1.945 -0.3223  0.1008 -0.1663
 4424SOL    HW113592   4.048   2.221   1.884 -1.4029 -0.1301 -0.5747
 4424SOL    HW213593   4.086   2.350   1.978  0.8177 -1.9491  1.1425
 4425SOL     OW13594   0.335   2.733   5.094  0.4628 -0.5951 -0.0509
 4425SOL    HW113595   0.284   2.818   5.085 -1.5343 -1.7521 -0.3665
 4425SOL    HW213596   0.349   2.713   5.191  2.4833  0.8948  0.0269
 4426SOL     OW13597   5.506   2.944   0.648 -0.0590 -0.6984 -0.0895
 4426SOL    HW113598   5.587   2.886   0.656 -0.2016 -0.6760  2.0893
 4426SOL    HW213599   5.431   2.903   0.701 -1.0258  0.0606 -0.8301
 4427SOL     OW13600   4.836   0.950   0.642 -0.1624  0.4335  0.3626
 4427SOL    HW113601   4.891   0.884   0.692 -1.8313 -0.4857  1.0520
 4427SOL    HW213602   4.893   1.028   0.616  2.0029 -1.4606 -0.9644
 4428SOL     OW13603   4.317   1.314   4.552 -0.2360 -0.7354 -0.1095
 4428SOL    HW113604   4.332   1.223   4.513  0.2661 -0.5318 -0.3833
 4428SOL    HW213605   4.219   1.332   4.555 -0.2746 -0.5744 -1.6697
 4429SOL     OW13606   4.918   4.293   1.563  0.2214  0.1650  0.2120
 4429SOL    HW113607   4.965   4.345   1.493  0.2173  0.6918  0.5951
 4429SOL    HW213608   4.951   4.198   1.563  1.0425  0.4476  0.2625
 4430SOL     OW13609   0.160   3.267   0.487  0.0075  0.4233 -0.3239
 4430SOL    HW113610   0.194   3.359   0.505  0.9202  0.0049  0.1993
 4430SOL    HW213611   0.062   3.270   0.467  0.4670  1.7965 -2.7531
 4431SOL     OW13612   0.760   3.009   4.925 -0.0740 -0.0086  0.3517
 4431SOL    HW113613   0.766   3.025   4.826  0.0377  0.2908  0.4048
 4431SOL    HW213614   0.821   3.072   4.973 -1.1178  0.7817  0.6920
 4432SOL     OW13615   0.136   3.437   0.964 -0.1993 -0.3456  0.2371
 4432SOL    HW113616   0.200   3.361   0.949 -0.0447 -0.0704 -0.5594
 4432SOL    HW213617   0.056   3.426   0.905 -1.0895 -0.8818  1.4931
 4433SOL     OW13618   2.924   0.502   0.986  0.1780 -0.5913 -0.1037
 4433SOL    HW113619   2.853   0.468   0.925 -1.2562  0.5919  0.8479
 4433SOL    HW213620   3.013   0.466   0.957 -0.7596 -1.9691 -1.4191
 4434SOL     OW13621   4.035   4.220   4.326  0.2690 -0.0487 -0.2888
 4434SOL    HW113622   4.058   4.238   4.422  0.3898  1.4282 -0.5738
 4434SOL    HW213623   3.989   4.300   4.287  0.6901 -0.4256 -1.6068
 4435SOL     OW13624   3.486   1.983   1.124  0.5305  0.4380 -0.3582
 4435SOL    HW113625   3.422   2.019   1.192  0.7759  1.4060 -0.6316
 4435SOL    HW213626   3.466   1.887   1.107 -0.4673  0.5758 -0.0015
 4436SOL     OW13627   4.168   3.575   1.667  0.2589  0.4094  0.0607
 4436SOL    HW113628   4.158   3.498   1.730  1.0895  0.5150  0.3352
 4436SOL    HW213629   4.093   3.640   1.681  0.9301  0.9010  1.6233
 4437SOL     OW13630   5.432   3.701   0.651  0.4347  0.7057  0.2441
 4437SOL    HW113631   5.406   3.627   0.589  1.5518 -0.7269  1.3993
 4437SOL    HW213632   5.449   3.785   0.599 -0.7420  0.1311 -1.1171
 4438SOL     OW13633   3.002   3.959   5.376 -0.2640 -0.0235  0.3559
 4438SOL    HW113634   3.078   4.021   5.394 -0.7963  0.5547  0.6936
 4438SOL    HW213635   2.989   3.950   5.278  0.0423  0.1284  0.3009
 4439SOL     OW13636   5.296   5.213   1.900 -0.1635 -0.0818  0.3098
 4439SOL    HW113637   5.281   5.223   1.801  2.2840 -1.3955 -0.2847
 4439SOL    HW213638   5.264   5.123   1.929 -0.8484  0.2906  0.7177
 4440SOL     OW13639   4.093   2.875   2.111  0.9959  0.3117 -0.4164
 4440SOL    HW113640   4.001   2.910   2.090  0.8849 -0.3994 -1.1417
 4440SOL    HW213641   4.145   2.864   2.027  0.6273 -2.3541 -0.3825
 4441SOL     OW13642   4.680   3.924   4.819 -0.0159 -0.2155 -0.1971
 4441SOL    HW113643   4.624   3.905   4.738  0.0698 -1.3430 -0.0068
 4441SOL    HW213644   4.693   4.023   4.829 -1.4701  0.0257 -0.5783
 4442SOL     OW13645   0.500   3.563   1.556 -0.2068 -0.3646 -0.2228
 4442SOL    HW113646   0.597   3.586   1.561  0.2015 -0.8123 -3.5274
 4442SOL    HW213647   0.454   3.588   1.641  2.1916  2.7497  0.3009
 4443SOL     OW13648   4.756   3.641   0.811  0.7444  0.3401 -0.6011
 4443SOL    HW113649   4.666   3.597   0.805  1.3666 -0.9815 -0.5090
 4443SOL    HW213650   4.745   3.734   0.847 -0.2966 -0.8176  2.3653
 4444SOL     OW13651   4.793   3.531   0.490  0.5777 -0.0936  0.7050
 4444SOL    HW113652   4.865   3.574   0.545  2.3943 -0.9574 -0.8679
 4444SOL    HW213653   4.785   3.434   0.515  0.6203 -0.2144  0.2721
 4445SOL     OW13654   0.065   1.083   0.039  0.0025 -0.2950  0.1709
 4445SOL    HW113655   0.101   1.154   0.099  0.7469 -1.1469  0.7583
 4445SOL    HW213656   0.138   1.053  -0.024 -0.1212 -0.9394  0.3241
 4446SOL     OW13657   4.031   3.530   3.048  0.2126  0.3635 -0.3496
 4446SOL    HW113658   3.946   3.536   3.100 -1.0061 -0.6890 -2.1379
 4446SOL    HW213659   4.013   3.489   2.958  2.7003 -0.4135 -0.5692
 4447SOL     OW13660   5.304   2.954   1.897  0.3611 -0.1371 -0.0230
 4447SOL    HW113661   5.398   2.984   1.917  0.8547 -2.4065  1.4763
 4447SOL    HW213662   5.242   2.991   1.965  0.3560  0.4144 -0.3247
 4448SOL     OW13663   3.802   1.869   0.014  0.3415 -0.1491  0.0459
 4448SOL    HW113664   3.729   1.930   0.047 -0.2408 -0.8377  0.0546
 4448SOL    HW213665   3.844   1.823   0.092  0.0329 -0.5885 -0.0472
 4449SOL     OW13666   4.713   2.553   0.267  0.2972  0.7044  0.1920
 4449SOL    HW113667   4.793   2.518   0.316  1.1661  0.1418 -1.5575
 4449SOL    HW213668   4.733   2.643   0.229  0.2944  0.3430 -0.6890
 4450SOL     OW13669   3.711   2.988   0.079 -0.0954 -0.1262  0.2487
 4450SOL    HW113670   3.660   2.961  -0.003  1.1580  0.5953 -0.8101
 4450SOL    HW213671   3.808   2.972   0.064  0.2463  0.8928  1.2472
 4451SOL     OW13672   2.103   1.194   1.393 -0.8261 -0.0280 -0.6164
 4451SOL    HW113673   2.190   1.173   1.348 -0.4735  0.2979 -0.1030
 4451SOL    HW213674   2.035   1.220   1.325 -0.8143 -1.2720 -1.1128
 4452SOL     OW13675   4.081   2.011   2.163  0.1246  0.1704  0.7465
 4452SOL    HW113676   4.048   1.928   2.119 -0.0307 -0.1286  1.4126
 4452SOL    HW213677   4.010   2.081   2.160 -0.4554 -0.3458  1.8362
 4453SOL     OW13678   4.750   3.497   1.044  0.0059  0.5967 -0.4028
 4453SOL    HW113679   4.828   3.496   1.106 -0.7039  1.5256  0.5335
 4453SOL    HW213680   4.772   3.553   0.964  1.0174 -0.8172 -1.1762
 4454SOL     OW13681   4.685   3.035   3.597 -0.5839 -0.3237  0.1165
 4454SOL    HW113682   4.631   2.951   3.595  0.7272 -1.1824 -0.1205
 4454SOL    HW213683   4.731   3.043   3.686  0.0998 -0.4022 -0.2198
 4455SOL     OW13684   4.257   1.680   0.171 -0.6504  0.1384  0.7559
 4455SOL    HW113685   4.214   1.706   0.257 -0.6149  1.6989  0.3368
 4455SOL    HW213686   4.282   1.763   0.120 -2.3326 -0.6687 -1.5950
 4456SOL     OW13687   2.125   2.047   4.734 -0.2542 -0.2457 -0.0226
 4456SOL    HW113688   2.176   2.091   4.661 -1.4967  0.7643 -0.3174
 4456SOL    HW213689   2.157   1.953   4.745  1.9441  0.4493  0.1097
 4457SOL     OW13690   4.821   3.266   2.481 -0.4593  0.0032  0.1893
 4457SOL    HW113691   4.902   3.256   2.423 -0.7604 -0.7533 -0.1075
 4457SOL    HW213692   4.824   3.199   2.555 -0.9091 -0.1545  0.0649
 4458SOL     OW13693   5.083   4.821   1.380  0.0748  0.5349 -0.9379
 4458SOL    HW113694   5.066   4.776   1.292 -0.9747  0.6141 -0.7864
 4458SOL    HW213695   5.143   4.763   1.435 -0.3125 -0.1355 -1.2067
 4459SOL     OW13696   0.773   3.623   1.575 -0.1042 -0.3911  0.4482
 4459SOL    HW113697   0.818   3.663   1.495  1.5913 -2.5017  0.2336
 4459SOL    HW213698   0.841   3.574   1.630 -1.9403 -2.7498  0.7618
 4460SOL     OW13699   2.995   3.775   1.959  0.0535  0.7043  0.2350
 4460SOL    HW113700   3.044   3.835   2.023 -0.7369  1.0893  0.4899
 4460SOL    HW213701   2.912   3.821   1.928  0.9319  0.9701 -1.9043
 4461SOL     OW13702   4.996   0.887   4.151 -0.4536  0.8677 -0.4983
 4461SOL    HW113703   4.972   0.794   4.177  0.0823  0.8179 -0.1592
 4461SOL    HW213704   5.088   0.888   4.111 -1.6594  0.7616 -3.5426
 4462SOL     OW13705   3.550   3.557   0.267 -0.0441 -0.4305 -0.1284
 4462SOL    HW113706   3.600   3.503   0.334 -1.3779 -1.4374  0.0939
 4462SOL    HW213707   3.529   3.501   0.187  1.8431  0.8573 -1.6043
 4463SOL     OW13708   4.149   3.515   2.626  0.2186 -0.3478 -0.2216
 4463SOL    HW113709   4.245   3.509   2.651  0.1376  1.6466  0.7599
 4463SOL    HW213710   4.096   3.453   2.683  0.8065 -0.6842 -0.0350
 4464SOL     OW13711   0.086   2.653   1.773 -0.3765 -0.7686 -0.4026
 4464SOL    HW113712  -0.010   2.655   1.802 -0.7253  0.9060 -1.5030
 4464SOL    HW213713   0.090   2.655   1.673  0.8212 -0.6325 -0.3641
 4465SOL     OW13714   1.302   2.856   0.419 -0.3664 -0.0680  0.2139
 4465SOL    HW113715   1.275   2.890   0.509 -0.5193  1.9007 -0.5187
 4465SOL    HW213716   1.341   2.932   0.366  1.3342 -1.5594 -0.7873
 4466SOL     OW13717   5.428   3.816   1.780  0.2390 -0.0339 -0.3711
 4466SOL    HW113718   5.528   3.821   1.772  0.4581  0.1257  1.7602
 4466SOL    HW213719   5.403   3.729   1.822 -0.4042  0.4507  0.2740
 4467SOL     OW13720   3.233   2.640   1.840  0.3747  0.6358  0.0248
 4467SOL    HW113721   3.139   2.612   1.821  0.0054  1.1488  1.0216
 4467SOL    HW213722   3.294   2.599   1.773 -0.2819 -1.5784  0.7179
 4468SOL     OW13723   3.442   2.591   1.663 -0.0713 -0.3948  0.0975
 4468SOL    HW113724   3.464   2.524   1.733  0.6657 -1.2171 -0.8737
 4468SOL    HW213725   3.522   2.649   1.646 -0.5184  0.3569  0.5281
 4469SOL     OW13726   4.519   3.240   1.321 -0.5176 -0.0439  0.7755
 4469SOL    HW113727   4.432   3.223   1.367 -0.2747  0.6838  1.5515
 4469SOL    HW213728   4.548   3.334   1.340  0.3300 -0.2107  0.3490
 4470SOL     OW13729   0.454   4.933   5.080  0.0162  0.3602  0.5592
 4470SOL    HW113730   0.513   4.891   5.011  0.7855  0.4742  1.1351
 4470SOL    HW213731   0.387   4.992   5.035 -2.7420 -3.2652 -0.5213
 4471SOL     OW13732   4.615   0.859   2.167  0.0762  0.4789  0.2023
 4471SOL    HW113733   4.569   0.935   2.212  0.8040  2.3532 -2.0591
 4471SOL    HW213734   4.549   0.808   2.112 -0.4126 -0.6351  1.7242
 4472SOL     OW13735   4.146   1.353   1.155  0.8154 -0.5831 -0.1283
 4472SOL    HW113736   4.084   1.287   1.195 -0.3302  0.4404 -0.1636
 4472SOL    HW213737   4.233   1.308   1.132  0.2866 -1.9104  0.3885
 4473SOL     OW13738   3.279   1.464   1.749 -0.7703  0.3517  0.4428
 4473SOL    HW113739   3.324   1.525   1.684  0.2230 -0.6842  0.1326
 4473SOL    HW213740   3.303   1.490   1.842  1.5710 -0.9357  0.2743
 4474SOL     OW13741   5.139   3.244   2.840 -0.2655 -0.3620 -0.1216
 4474SOL    HW113742   5.120   3.218   2.935 -0.8326  1.0468  0.1788
 4474SOL    HW213743   5.209   3.183   2.802  0.3088 -0.6662  1.3475
 4475SOL     OW13744   3.783   2.430   2.572 -0.3266 -0.2475  0.3371
 4475SOL    HW113745   3.763   2.332   2.575 -0.7722 -0.1625  0.1898
 4475SOL    HW213746   3.770   2.470   2.663  0.9566 -0.5283  0.6723
 4476SOL     OW13747   4.784   2.890   5.327  0.0084  0.3447 -0.0211
 4476SOL    HW113748   4.866   2.947   5.331  0.3398  0.1104 -2.1327
 4476SOL    HW213749   4.703   2.948   5.335  0.3569  0.9320 -0.6537
 4477SOL     OW13750   4.492   3.154   2.530  0.4936 -0.1180  0.6669
 4477SOL    HW113751   4.403   3.125   2.563  0.2539 -0.9875 -0.6581
 4477SOL    HW213752   4.564   3.112   2.586  0.0890 -0.5600  0.8525
 4478SOL     OW13753   4.034   3.856   2.268  0.2308 -0.5105 -0.1580
 4478SOL    HW113754   4.085   3.940   2.250 -1.2169  0.3599 -0.3760
 4478SOL    HW213755   4.053   3.824   2.360 -0.5410  1.0840  0.5968
 4479SOL     OW13756   4.928   4.143   0.581  0.0593  0.1073 -0.3676
 4479SOL    HW113757   4.869   4.223   0.587  0.2951  0.2378  0.3264
 4479SOL    HW213758   4.995   4.156   0.508  0.5534  0.8635  0.1985
 4480SOL     OW13759   5.289   2.773   1.514 -0.3385 -0.4519 -0.4863
 4480SOL    HW113760   5.336   2.712   1.579  0.3867  0.6277  0.0423
 4480SOL    HW213761   5.356   2.809   1.449 -1.3307 -2.8184 -2.9470
 4481SOL     OW13762   4.123   3.148   2.878 -0.2441  0.3616  0.1983
 4481SOL    HW113763   4.216   3.184   2.879  0.1483 -0.5916  2.0896
 4481SOL    HW213764   4.090   3.137   2.972 -1.7116 -0.7184 -0.4005
 4482SOL     OW13765   4.584   3.838   1.700  0.3143 -0.0272  0.4316
 4482SOL    HW113766   4.490   3.860   1.674  0.5347  0.2607 -0.1544
 4482SOL    HW213767   4.646   3.874   1.631  0.7801 -1.3897  0.1118
 4483SOL     OW13768   3.819   1.761   0.275 -0.5474 -0.7015 -0.9130
 4483SOL    HW113769   3.758   1.840   0.282 -0.4999 -0.7394  0.1593
 4483SOL    HW213770   3.826   1.717   0.365  0.5127 -1.1010 -1.1825
 4484SOL     OW13771   5.214   3.769   0.955 -0.5305  0.1184 -0.2064
 4484SOL    HW113772   5.237   3.675   0.927 -0.7188  0.1246 -0.3800
 4484SOL    HW213773   5.209   3.828   0.874  0.5045  0.4820 -0.0209
 4485SOL     OW13774   3.651   1.837   2.749 -0.2812  0.2778  0.6015
 4485SOL    HW113775   3.561   1.865   2.715 -0.2668 -1.0017 -0.5858
 4485SOL    HW213776   3.717   1.840   2.673  0.4870  0.3982  1.2661
 4486SOL     OW13777   4.008   3.004   1.568  0.7445 -0.0014 -0.5293
 4486SOL    HW113778   4.015   3.016   1.667 -1.8092 -2.7178  0.1254
 4486SOL    HW213779   4.064   2.927   1.539  2.2232  1.3590 -1.4321
 4487SOL     OW13780   0.990   4.274   1.878 -0.2114 -0.6187  0.7438
 4487SOL    HW113781   1.073   4.242   1.832  0.6072 -0.5789  2.1228
 4487SOL    HW213782   0.954   4.201   1.936 -1.5907 -0.8833 -0.3817
 4488SOL     OW13783   0.229   2.030   5.187  0.4854 -0.2757  0.1861
 4488SOL    HW113784   0.137   2.051   5.220 -0.8566 -1.1263 -2.6417
 4488SOL    HW213785   0.277   1.973   5.254 -0.6810  0.8781  2.0915
 4489SOL     OW13786   0.361   0.912   1.018 -0.6484 -0.7038  0.1094
 4489SOL    HW113787   0.459   0.932   1.011 -0.6045 -0.5818  0.8940
 4489SOL    HW213788   0.323   0.899   0.927 -0.2712  1.0635 -0.3525
 4490SOL     OW13789   3.743   2.560   0.589 -0.1417 -0.0541  0.5742
 4490SOL    HW113790   3.689   2.483   0.624  1.3392 -0.4615  2.0952
 4490SOL    HW213791   3.773   2.541   0.496 -2.5227  0.1727 -0.3164
 4491SOL     OW13792   3.442   2.733   0.904 -0.5023 -0.0453 -0.0626
 4491SOL    HW113793   3.382   2.728   0.985 -0.6986 -0.0463 -0.2070
 4491SOL    HW213794   3.386   2.749   0.823 -0.2216  1.0122 -0.0621
 4492SOL     OW13795   4.527   2.428   1.363  0.3644 -0.3007  0.3762
 4492SOL    HW113796   4.566   2.461   1.277 -0.5100 -0.3232 -0.0414
 4492SOL    HW213797   4.476   2.343   1.347 -0.2724 -0.0143  0.8046
 4493SOL     OW13798   3.566   4.360   2.300 -0.1482  0.4494  0.1922
 4493SOL    HW113799   3.551   4.284   2.236  3.4958 -0.1783 -0.1128
 4493SOL    HW213800   3.613   4.326   2.381  0.4092  2.1563  0.6273
 4494SOL     OW13801   4.944   3.430   1.207  0.2515  0.6909 -0.0489
 4494SOL    HW113802   4.977   3.508   1.260 -1.4993  0.5306  1.3606
 4494SOL    HW213803   4.974   3.345   1.250 -0.7167  0.5620  0.3812
 4495SOL     OW13804   4.186   4.063   0.891 -0.2299  0.0412 -0.6491
 4495SOL    HW113805   4.113   4.092   0.954  1.5706  1.6035  0.8537
 4495SOL    HW213806   4.172   3.967   0.865 -2.1502 -0.0481  0.5365
 4496SOL     OW13807   0.331   0.248   1.094 -0.0284 -0.3941 -0.3063
 4496SOL    HW113808   0.390   0.171   1.067  0.2016 -0.4870  0.4242
 4496SOL    HW213809   0.242   0.214   1.123  0.0538 -0.3878 -0.0379
 4497SOL     OW13810   2.912   0.132   4.108 -1.2292  0.1249  0.3507
 4497SOL    HW113811   2.853   0.152   4.186 -0.4527  1.1687  0.6890
 4497SOL    HW213812   2.989   0.075   4.138 -0.0056  1.8989  0.7609
 4498SOL     OW13813   0.198   2.355   5.423  0.1171 -0.5266 -0.1254
 4498SOL    HW113814   0.276   2.294   5.438  0.2570 -0.1451  0.7421
 4498SOL    HW213815   0.128   2.336   5.492  0.3099  0.5138  0.3831
 4499SOL     OW13816   4.726   0.863   3.257  0.0878  0.4417 -0.6460
 4499SOL    HW113817   4.665   0.784   3.257 -0.3228  0.7587 -0.3815
 4499SOL    HW213818   4.700   0.926   3.330  1.0387  0.3478 -0.2131
 4500SOL     OW13819   4.307   3.853   1.628  0.5929  0.2127 -0.4447
 4500SOL    HW113820   4.245   3.790   1.675 -0.2622  0.2596 -1.4782
 4500SOL    HW213821   4.266   3.944   1.625  1.1329  0.4659 -0.3182
 4501SOL     OW13822   0.222   2.906   4.773 -0.9103  0.6275 -1.0233
 4501SOL    HW113823   0.219   3.004   4.750  1.4174  1.4814  1.7168
 4501SOL    HW213824   0.138   2.880   4.820 -0.8517  1.7894 -0.2314
 4502SOL     OW13825   3.943   3.094   5.238 -0.0980  0.1894 -0.2733
 4502SOL    HW113826   3.906   3.003   5.255 -2.5971  1.1735  0.0531
 4502SOL    HW213827   4.024   3.109   5.294 -1.6183 -0.6713  2.3441
 4503SOL     OW13828   4.319   3.112   1.866 -0.0834 -0.2180 -0.3455
 4503SOL    HW113829   4.417   3.123   1.882  0.0438 -0.6156 -0.8371
 4503SOL    HW213830   4.300   3.017   1.841 -0.5453 -0.0582 -0.6165
 4504SOL     OW13831   3.983   2.042   1.170 -0.7303  0.0244 -0.0363
 4504SOL    HW113832   4.043   2.121   1.170  2.1882 -1.9546 -2.4367
 4504SOL    HW213833   3.920   2.047   1.093 -0.2806 -0.1189 -0.4206
 4505SOL     OW13834   4.662   4.902   1.130  0.3419 -0.4776 -0.1651
 4505SOL    HW113835   4.754   4.940   1.122  0.7659 -1.4253  0.0953
 4505SOL    HW213836   4.668   4.806   1.157 -0.7784  0.0314  2.1152
 4506SOL     OW13837   4.855   2.374   0.873 -0.3314 -0.2209  0.3367
 4506SOL    HW113838   4.880   2.451   0.815 -0.8178  0.2909  0.8058
 4506SOL    HW213839   4.767   2.337   0.844 -1.7159  1.4649  2.1089
 4507SOL     OW13840   3.675   2.342   1.322 -0.6305 -0.3011  0.7459
 4507SOL    HW113841   3.585   2.385   1.314  0.7972  2.6452 -1.1783
 4507SOL    HW213842   3.715   2.332   1.231  0.8748 -1.9218  1.5285
 4508SOL     OW13843   4.346   3.836   2.828 -0.4272 -0.6829  0.0694
 4508SOL    HW113844   4.359   3.839   2.729  4.0891  1.3348  0.4965
 4508SOL    HW213845   4.418   3.780   2.869  0.5331  2.0620  2.4109
 4509SOL     OW13846   4.069   0.803   1.293 -0.1230 -0.5801 -0.2604
 4509SOL    HW113847   4.022   0.784   1.207  0.8994 -0.6250 -0.8225
 4509SOL    HW213848   4.133   0.728   1.313  1.4789  0.6039 -0.7666
 4510SOL     OW13849   4.476   3.376   0.133  0.3143  0.3249  0.6310
 4510SOL    HW113850   4.514   3.466   0.114  1.0652 -0.1201  0.0027
 4510SOL    HW213851   4.380   3.386   0.161 -0.5096  1.1324 -2.1697
 4511SOL     OW13852   3.856   2.150   1.387  0.1777 -0.0247  0.1173
 4511SOL    HW113853   3.904   2.117   1.306 -0.9126  0.0112 -0.5650
 4511SOL    HW213854   3.774   2.200   1.359  0.9109  1.8777  1.1686
 4512SOL     OW13855   4.075   1.055   1.227 -0.6223 -0.2560 -0.3901
 4512SOL    HW113856   4.048   0.962   1.250  0.0023 -0.3068  0.1676
 4512SOL    HW213857   4.162   1.054   1.177  0.4310  0.1070  1.3299
 4513SOL     OW13858   4.733   2.130   1.215 -0.1068  0.9361 -0.3397
 4513SOL    HW113859   4.733   2.135   1.115  0.0161  1.7269 -0.3069
 4513SOL    HW213860   4.828   2.118   1.247 -0.3304 -1.4721 -0.3896
 4514SOL     OW13861   3.848   2.145   2.100 -0.0686 -0.0940  0.0864
 4514SOL    HW113862   3.810   2.064   2.054  2.7588 -1.7592  0.4728
 4514SOL    HW213863   3.908   2.193   2.037  1.0174 -0.3351  0.9215
 4515SOL     OW13864   0.421   4.126   5.234 -0.0955 -0.4003 -0.0548
 4515SOL    HW113865   0.340   4.154   5.183 -0.0296  2.9768  1.4491
 4515SOL    HW213866   0.500   4.124   5.173 -0.8072 -1.0679 -0.9814
 4516SOL     OW13867   5.343   0.623   1.680 -0.8097 -0.0302 -0.3438
 4516SOL    HW113868   5.423   0.614   1.739 -0.3450  0.7045 -0.8428
 4516SOL    HW213869   5.313   0.718   1.679 -0.2728  0.1475 -1.9716
 4517SOL     OW13870   3.878   2.791   2.893  0.0807 -0.0011 -0.5275
 4517SOL    HW113871   3.816   2.810   2.816 -1.2429 -3.2775 -0.4538
 4517SOL    HW213872   3.955   2.737   2.860  1.4210  1.5659 -0.0800
 4518SOL     OW13873   3.913   3.501   2.071 -0.3231 -0.2298 -0.5049
 4518SOL    HW113874   4.012   3.485   2.071  0.0905  2.0272  0.0533
 4518SOL    HW213875   3.868   3.428   2.122  0.7212 -2.7328 -2.9155
 4519SOL     OW13876   1.683   3.261   5.183  0.2321  0.0206 -0.4582
 4519SOL    HW113877   1.616   3.194   5.213 -0.3558  1.6943  2.3141
 4519SOL    HW213878   1.649   3.308   5.101 -0.3451 -1.4989 -1.1182
 4520SOL     OW13879   4.979   1.991   5.186 -0.3762  0.6831 -0.4621
 4520SOL    HW113880   4.953   1.921   5.119 -0.6652 -0.0131  0.3639
 4520SOL    HW213881   4.955   1.960   5.278 -0.1549  1.7101 -0.0456
 4521SOL     OW13882   4.928   4.138   0.273  0.0943  0.2999 -0.0674
 4521SOL    HW113883   4.985   4.216   0.245 -0.4049  0.4112 -0.7926
 4521SOL    HW213884   4.947   4.060   0.213 -0.3091  0.2523 -0.1318
 4522SOL     OW13885   4.739   2.379   2.959 -0.3832  0.7061  0.4369
 4522SOL    HW113886   4.705   2.307   3.020  1.4380  0.1667  0.8859
 4522SOL    HW213887   4.722   2.468   3.000  1.3210  0.3449  2.1180
 4523SOL     OW13888   2.580   2.246   0.543 -0.3601  0.2518  0.5585
 4523SOL    HW113889   2.564   2.173   0.609  0.1440 -0.6223 -0.2613
 4523SOL    HW213890   2.538   2.222   0.455  0.0022  0.8470  0.2107
 4524SOL     OW13891   1.014   2.275   5.491  0.2640  0.4758  0.6460
 4524SOL    HW113892   1.104   2.310   5.517  0.8703 -1.5982  1.6100
 4524SOL    HW213893   0.945   2.345   5.506  1.5645  1.7226  1.0306
 4525SOL     OW13894   0.437   3.658   0.471  0.2908 -0.7355 -0.2755
 4525SOL    HW113895   0.428   3.574   0.524  3.1040 -0.1882  1.2485
 4525SOL    HW213896   0.505   3.644   0.399 -2.1704 -0.9042 -2.7209
 4526SOL     OW13897   4.111   1.242   3.846  0.1116  0.0011 -0.1086
 4526SOL    HW113898   4.162   1.309   3.793 -0.8099 -0.3521 -1.4639
 4526SOL    HW213899   4.014   1.246   3.822 -0.1182 -1.0772  0.5788
 4527SOL     OW13900   4.080   3.315   4.430  0.0448  0.0287  0.5863
 4527SOL    HW113901   3.983   3.304   4.450  0.0722 -0.1955  0.5972
 4527SOL    HW213902   4.134   3.290   4.511  0.1212 -0.0797  0.5019
 4528SOL     OW13903   0.358   3.960   1.332 -0.1572 -0.3283  0.8444
 4528SOL    HW113904   0.449   3.917   1.335 -0.1012 -0.3065 -0.1075
 4528SOL    HW213905   0.369   4.059   1.325 -0.0960 -0.4348 -2.7260
 4529SOL     OW13906   5.200   1.604   2.893  0.4482  0.6586  0.0231
 4529SOL    HW113907   5.130   1.559   2.948 -1.3650  1.6580 -1.3674
 4529SOL    HW213908   5.205   1.701   2.918 -0.0479  1.0149 -1.1843
 4530SOL     OW13909   3.874   2.045   4.756  0.6389 -0.4724  0.2465
 4530SOL    HW113910   3.890   2.065   4.660 -0.1791 -2.1393 -0.2686
 4530SOL    HW213911   3.959   2.013   4.799  1.0903  0.6116  0.2022
 4531SOL     OW13912   3.075   4.472   1.531  0.0785  0.3068 -0.4090
 4531SOL    HW113913   3.107   4.448   1.439 -0.1617  2.2903 -1.0650
 4531SOL    HW213914   3.134   4.542   1.570 -0.8339  0.7530  0.2145
 4532SOL     OW13915   5.431   1.625   2.493 -0.1919 -0.8025  0.0167
 4532SOL    HW113916   5.394   1.672   2.573 -1.1699  1.0866 -1.4194
 4532SOL    HW213917   5.530   1.635   2.491 -0.3568  1.2470 -0.1819
 4533SOL     OW13918   3.602   1.237   0.675  0.3070 -0.1102  0.3083
 4533SOL    HW113919   3.613   1.140   0.652  1.4737  0.0890 -0.0158
 4533SOL    HW213920   3.670   1.263   0.744  0.9022  0.8002 -0.6022
 4534SOL     OW13921   4.499   2.635   1.536  0.0391  0.9026  0.4206
 4534SOL    HW113922   4.425   2.694   1.502 -0.9086  0.0601  0.9577
 4534SOL    HW213923   4.510   2.557   1.474  1.9901  2.1126 -0.8628
 4535SOL     OW13924   4.329   1.189   1.393 -0.0832 -0.3204 -0.8660
 4535SOL    HW113925   4.417   1.181   1.345 -0.7431 -1.3768 -1.9476
 4535SOL    HW213926   4.296   1.098   1.418  0.7736  0.1977  2.7462
 4536SOL     OW13927   3.316   5.028   1.459 -0.0976 -0.7540  0.0750
 4536SOL    HW113928   3.218   5.048   1.461  0.0471  0.2452 -1.3502
 4536SOL    HW213929   3.350   5.019   1.553 -1.2811  0.2428  0.6291
 4537SOL     OW13930   0.318   2.948   1.027  0.2729 -0.4561 -0.9977
 4537SOL    HW113931   0.362   2.864   1.059  0.0106 -0.3166 -0.2498
 4537SOL    HW213932   0.219   2.933   1.022  0.0499  0.2591  0.6475
 4538SOL     OW13933   4.055   0.522   1.647 -0.2405  0.5575 -0.0688
 4538SOL    HW113934   4.041   0.611   1.691 -0.5076  0.9948 -1.0289
 4538SOL    HW213935   4.014   0.522   1.556 -0.2727 -0.5637 -0.0703
 4539SOL     OW13936   3.659   3.610   1.193 -0.1504 -0.1272 -0.6871
 4539SOL    HW113937   3.729   3.617   1.121  0.3539  0.0103 -0.1866
 4539SOL    HW213938   3.622   3.518   1.193  0.9488 -0.5920 -0.1193
 4540SOL     OW13939   3.493   4.199   0.692  0.0763 -0.2067 -0.5097
 4540SOL    HW113940   3.505   4.101   0.709 -1.6098 -0.1046  1.7738
 4540SOL    HW213941   3.402   4.216   0.655 -0.2035  0.5917  0.4946
 4541SOL     OW13942   5.116   1.685   0.242 -0.5653  0.4214 -0.5237
 4541SOL    HW113943   5.081   1.719   0.155 -0.6987  0.2674 -0.5290
 4541SOL    HW213944   5.216   1.684   0.239 -0.5759 -0.1150 -0.8786
 4542SOL     OW13945   4.603   3.266   1.045 -0.4801 -0.1018 -0.2830
 4542SOL    HW113946   4.661   3.348   1.049 -0.3346 -0.2676  1.4869
 4542SOL    HW213947   4.568   3.245   1.136 -1.5386 -1.3022 -0.9347
 4543SOL     OW13948   5.229   2.127   0.995  0.1321  0.0176  0.1043
 4543SOL    HW113949   5.160   2.194   1.024 -0.7685 -0.5273 -0.7275
 4543SOL    HW213950   5.183   2.048   0.953  1.2480 -0.5348 -0.1049
 4544SOL     OW13951   3.753   3.121   1.465 -0.0438  0.2352  0.3905
 4544SOL    HW113952   3.767   3.213   1.502  1.6381  0.0229  0.3435
 4544SOL    HW213953   3.818   3.058   1.508  0.2079 -0.5256 -1.0726
 4545SOL     OW13954   4.467   1.290   0.302 -0.1829 -1.0525  0.7314
 4545SOL    HW113955   4.549   1.284   0.359 -0.2501 -3.2886  0.6925
 4545SOL    HW213956   4.484   1.352   0.225  0.9149 -0.2940  1.5524
 4546SOL     OW13957   4.896   3.347   2.865  0.1687 -0.2605 -0.2331
 4546SOL    HW113958   4.954   3.278   2.821 -2.5217 -2.7442 -0.1722
 4546SOL    HW213959   4.923   3.358   2.960  1.3836 -0.3303 -0.5582
 4547SOL     OW13960   4.403   0.371   3.115 -0.2898 -0.3764 -0.8367
 4547SOL    HW113961   4.333   0.441   3.130 -0.5135 -0.1667 -2.5646
 4547SOL    HW213962   4.363   0.280   3.130 -0.1618 -0.1796  0.8280
 4548SOL     OW13963   4.485   1.666   2.698  0.4031 -0.8772 -0.1032
 4548SOL    HW113964   4.439   1.589   2.741 -1.0034 -1.3063 -2.2324
 4548SOL    HW213965   4.442   1.752   2.728  1.1275 -0.9526  1.2561
 4549SOL     OW13966   0.037   5.513   2.696 -0.3474  0.3439 -0.1673
 4549SOL    HW113967   0.031   5.613   2.690  0.4360  0.3560 -0.9481
 4549SOL    HW213968   0.129   5.483   2.670 -0.8141 -0.6363 -0.7722
 4550SOL     OW13969   0.102   2.665   2.876 -0.0025 -0.6701  0.1037
 4550SOL    HW113970   0.133   2.635   2.786 -1.3636 -0.6221 -0.4134
 4550SOL    HW213971   0.066   2.759   2.869  0.5024 -0.4139  0.8452
 4551SOL     OW13972   0.154   1.226   2.904  0.1183  0.0516 -0.2604
 4551SOL    HW113973   0.128   1.309   2.854  0.9707  1.7643  1.9499
 4551SOL    HW213974   0.216   1.171   2.848 -1.0884  0.4553 -2.0899
 4552SOL     OW13975   3.845   4.092   2.636 -0.2280  0.4036 -0.2465
 4552SOL    HW113976   3.923   4.033   2.658 -1.2593 -1.2151 -0.8047
 4552SOL    HW213977   3.783   4.044   2.574 -2.4385  1.0594  1.3518
 4553SOL     OW13978   1.998   1.984   1.845 -0.1805  0.2286  0.3820
 4553SOL    HW113979   2.025   2.014   1.753 -1.0536 -1.5059 -0.4851
 4553SOL    HW213980   2.006   1.885   1.851 -2.7512 -0.0111  1.2375
 4554SOL     OW13981   0.294   0.180   4.735 -0.2000 -0.0247 -0.4983
 4554SOL    HW113982   0.338   0.197   4.823 -0.3433  0.1906 -0.4685
 4554SOL    HW213983   0.238   0.259   4.709  1.3300  0.7278 -1.6917
 4555SOL     OW13984   5.296   2.566   3.800 -0.0442 -0.4580  0.5164
 4555SOL    HW113985   5.310   2.480   3.849 -0.6734 -0.9264 -0.1025
 4555SOL    HW213986   5.220   2.556   3.736 -0.1195  0.5601  0.4232
 4556SOL     OW13987   3.609   2.635   2.480  0.3546 -0.0454 -0.7338
 4556SOL    HW113988   3.657   2.722   2.473 -0.6495  0.7076  1.0536
 4556SOL    HW213989   3.661   2.573   2.538  0.5202 -0.2531 -1.0975
 4557SOL     OW13990   4.295   1.690   3.501  0.1907  0.3970 -0.2948
 4557SOL    HW113991   4.297   1.786   3.476  1.0728  0.6031  0.5383
 4557SOL    HW213992   4.230   1.676   3.575  1.9106  0.8211  1.3659
 4558SOL     OW13993   4.998   2.421   3.002 -0.1354 -0.6953 -0.0342
 4558SOL    HW113994   5.001   2.487   3.077 -0.2437 -1.1753  0.3919
 4558SOL    HW213995   4.905   2.387   2.991 -0.0895 -0.7416 -0.2893
 4559SOL     OW13996   5.365   0.664   4.030 -0.3002  0.3779  0.1841
 4559SOL    HW113997   5.372   0.706   3.939 -1.1384 -0.5327 -0.3181
 4559SOL    HW213998   5.455   0.663   4.073 -0.0370  1.5490 -0.2923
 4560SOL     OW13999   0.103   3.030   1.742 -0.4832  0.0153  0.4786
 4560SOL    HW114000   0.097   3.096   1.817  1.2835 -1.3591  1.9267
 4560SOL    HW214001   0.121   2.939   1.779  0.4919 -0.7104 -1.6237
 4561SOL     OW14002   4.060   3.181   3.135  0.6449 -0.3083  0.2093
 4561SOL    HW114003   4.116   3.105   3.169  1.8931  0.6003  0.2378
 4561SOL    HW214004   4.057   3.254   3.204 -0.7270 -0.3945  0.2786
 4562SOL     OW14005   4.746   3.058   0.143 -0.1750  0.0332  0.0130
 4562SOL    HW114006   4.709   3.132   0.198  1.8553  0.2422  1.1893
 4562SOL    HW214007   4.721   3.072   0.047 -0.3010  1.9116  0.2831
 4563SOL     OW14008   5.267   2.068   1.799 -0.6081 -0.1943 -0.1456
 4563SOL    HW114009   5.229   2.156   1.827 -0.3436  0.1467 -0.8419
 4563SOL    HW214010   5.194   2.008   1.766 -0.9378 -0.6295  1.3077
 4564SOL     OW14011   3.228   3.065   4.296 -0.3649  0.1226  0.0685
 4564SOL    HW114012   3.152   3.056   4.360  1.0342 -0.6739  1.7135
 4564SOL    HW214013   3.253   3.161   4.286 -1.8112  0.4339 -0.8146
 4565SOL     OW14014   3.422   3.498   4.736  0.3911 -0.5248  0.0464
 4565SOL    HW114015   3.500   3.517   4.676  1.4462  0.7182  1.7215
 4565SOL    HW214016   3.386   3.585   4.772 -0.4726 -1.2134  0.8801
 4566SOL     OW14017   3.967   2.329   4.273 -0.1994 -0.1757 -0.2967
 4566SOL    HW114018   3.949   2.427   4.266  1.2643  0.0588 -1.0985
 4566SOL    HW214019   3.982   2.292   4.181  0.8513 -0.8273  0.1284
 4567SOL     OW14020   4.182   1.437   1.792  0.0865  0.1230 -0.3379
 4567SOL    HW114021   4.212   1.403   1.881  1.5230  2.4717  0.1929
 4567SOL    HW214022   4.183   1.363   1.725 -1.7657 -1.8863  1.6961
 4568SOL     OW14023   3.461   4.589   1.571  0.8025 -0.0600  0.3879
 4568SOL    HW114024   3.470   4.496   1.537  0.2853  0.4441 -1.2459
 4568SOL    HW214025   3.540   4.643   1.542  0.4883  0.3155  0.2234
 4569SOL     OW14026   4.528   4.383   2.037  0.2178  0.4953 -0.0677
 4569SOL    HW114027   4.562   4.303   1.988  1.3953 -0.2325  1.8233
 4569SOL    HW214028   4.496   4.355   2.128 -0.2751  2.0330  0.2643
 4570SOL     OW14029   5.305   4.771   3.777 -0.0357  0.3407 -0.1075
 4570SOL    HW114030   5.324   4.852   3.834 -0.1262  2.4190 -2.8093
 4570SOL    HW214031   5.389   4.720   3.763 -0.0239 -0.2750  1.8516
 4571SOL     OW14032   4.889   3.335   3.804  0.7369 -0.5079 -0.3073
 4571SOL    HW114033   4.946   3.417   3.810  1.3672 -1.0268  2.0827
 4571SOL    HW214034   4.814   3.351   3.740  1.8547  1.2598 -1.2604
 4572SOL     OW14035   1.201   4.261   1.408  0.3094  1.0998 -0.2743
 4572SOL    HW114036   1.102   4.272   1.419 -0.0133 -1.5329  0.1236
 4572SOL    HW214037   1.221   4.228   1.316  0.8475  1.7486 -0.3980
 4573SOL     OW14038   3.367   1.966   2.715 -0.2189  0.1811 -0.3759
 4573SOL    HW114039   3.283   1.999   2.672  0.7898  1.3494 -1.5177
 4573SOL    HW214040   3.360   1.975   2.814 -0.6285  2.3705 -0.5546
 4574SOL     OW14041   3.695   3.406   3.359  0.5764  0.3419 -0.2661
 4574SOL    HW114042   3.678   3.471   3.434  1.0792 -2.7859  2.7916
 4574SOL    HW214043   3.611   3.356   3.339  0.5169  0.9620 -1.7265
 4575SOL     OW14044   4.382   2.294   5.369  0.1885 -0.5789 -0.4060
 4575SOL    HW114045   4.450   2.231   5.406 -0.0488 -1.2615 -1.0975
 4575SOL    HW214046   4.379   2.286   5.269 -1.6102 -1.3320 -0.3373
 4576SOL     OW14047   4.007   3.237   2.378  0.4441  0.1003  0.2532
 4576SOL    HW114048   3.971   3.188   2.458 -0.0861  0.0769  0.0039
 4576SOL    HW214049   3.946   3.223   2.300  0.5089  0.8183  0.0652
 4577SOL     OW14050   4.301   2.241   3.085  0.1082 -0.2919  0.5491
 4577SOL    HW114051   4.302   2.333   3.044 -1.2014 -1.4724 -2.4200
 4577SOL    HW214052   4.213   2.227   3.131 -1.2251 -1.1311 -2.0267
 4578SOL     OW14053   4.791   2.710   2.223  0.1888  0.1245  0.4395
 4578SOL    HW114054   4.885   2.705   2.190  0.5095  0.3311  1.3010
 4578SOL    HW214055   4.778   2.793   2.277 -0.5928  0.2871  0.0163
 4579SOL     OW14056   5.031   3.452   3.094  0.2782 -0.5155 -0.0175
 4579SOL    HW114057   5.064   3.501   3.175  0.9792  0.3965 -0.8247
 4579SOL    HW214058   5.090   3.473   3.016 -0.0539 -1.8088 -0.6521
 4580SOL     OW14059   5.089   1.889   3.635  0.2359  0.8422 -0.5127
 4580SOL    HW114060   5.065   1.843   3.550  1.2063  0.8088 -0.7719
 4580SOL    HW214061   5.012   1.947   3.663 -1.3424 -1.4664  0.2373
 4581SOL     OW14062   3.947   4.278   2.271 -0.3998  0.1662 -0.4236
 4581SOL    HW114063   3.897   4.349   2.321 -0.0765 -0.4268  0.7789
 4581SOL    HW214064   3.889   4.197   2.261 -0.4247  0.2434 -0.9284
 4582SOL     OW14065   5.395   4.418   2.321 -0.0981 -0.3360  0.0952
 4582SOL    HW114066   5.493   4.398   2.317  0.1497  0.4559  1.5539
 4582SOL    HW214067   5.346   4.339   2.357 -0.1042 -0.9679 -1.2358
 4583SOL     OW14068   4.059   2.908   1.223  0.3063 -0.0815  0.0472
 4583SOL    HW114069   4.147   2.956   1.225  1.1088 -1.4859  1.8982
 4583SOL    HW214070   3.984   2.974   1.223  1.3572  1.1993  2.3493
 4584SOL     OW14071   4.997   2.630   3.170 -1.0008 -0.0630  0.1214
 4584SOL    HW114072   5.068   2.691   3.135 -0.3063 -0.9391 -0.0191
 4584SOL    HW214073   5.010   2.617   3.268 -0.2752 -1.1098 -0.1000
 4585SOL     OW14074   4.781   2.254   2.219  0.1549 -0.4692 -0.1599
 4585SOL    HW114075   4.866   2.280   2.265  0.1618 -0.6612 -0.0608
 4585SOL    HW214076   4.795   2.169   2.168 -0.2617 -1.1299  0.7733
 4586SOL     OW14077   4.663   2.799   0.124  0.2419  0.1735 -0.7218
 4586SOL    HW114078   4.709   2.882   0.154  0.7490 -0.0638 -0.8337
 4586SOL    HW214079   4.587   2.823   0.064  0.0928  0.5780 -0.3707
 4587SOL     OW14080   5.262   2.152   3.531 -0.2814  0.3328 -0.3928
 4587SOL    HW114081   5.209   2.205   3.465  0.2141  1.1952 -0.1127
 4587SOL    HW214082   5.237   2.180   3.623  0.9091  1.0211 -0.2615
 4588SOL     OW14083   3.821   3.274   3.038 -0.1917 -0.0583  0.4051
 4588SOL    HW114084   3.911   3.231   3.030 -0.4170 -0.1229 -3.4164
 4588SOL    HW214085   3.831   3.374   3.037 -0.1516 -0.0632  0.3261
 4589SOL     OW14086   0.242   2.251   2.822 -0.3732 -0.1687 -0.0323
 4589SOL    HW114087   0.238   2.202   2.735 -0.0174 -0.2984  0.0210
 4589SOL    HW214088   0.278   2.343   2.806  0.8732 -0.6107  0.1432
 4590SOL     OW14089   3.370   1.902   4.044  0.1469  0.0747  0.8743
 4590SOL    HW114090   3.442   1.850   3.998 -0.8132 -0.2555 -0.3161
 4590SOL    HW214091   3.355   1.865   4.135  0.2738 -1.0274  0.4651
 4591SOL     OW14092   3.933   1.695   2.878  0.6032  0.0714  0.4113
 4591SOL    HW114093   3.967   1.787   2.858  1.0307  0.1758  1.5241
 4591SOL    HW214094   3.851   1.701   2.935 -1.3256 -0.1830 -2.1443
 4592SOL     OW14095   4.067   2.497   4.568 -0.0019 -0.2755  0.2368
 4592SOL    HW114096   4.087   2.512   4.665  0.0007  0.4596  0.1305
 4592SOL    HW214097   4.106   2.410   4.539  0.6388 -0.1556  0.7159
 4593SOL     OW14098   3.675   2.926   2.737 -0.5059 -0.4329  0.1803
 4593SOL    HW114099   3.671   3.015   2.781  0.3459 -0.3235  0.0472
 4593SOL    HW214100   3.606   2.866   2.778  1.5113 -0.9810  3.1199
 4594SOL     OW14101   5.366   2.295   3.778  0.2206  0.3216 -0.6877
 4594SOL    HW114102   5.269   2.276   3.792  0.1823 -0.0391 -1.3818
 4594SOL    HW214103   5.421   2.225   3.824  0.1216 -0.2270 -1.3898
 4595SOL     OW14104   4.634   3.044   2.714  0.5211  0.3145  0.2785
 4595SOL    HW114105   4.718   2.999   2.682 -1.2986 -2.5739 -0.8335
 4595SOL    HW214106   4.603   3.000   2.799  0.2645  1.5762  0.8616
 4596SOL     OW14107   4.726   0.296   2.992 -0.0421  0.2867 -0.2141
 4596SOL    HW114108   4.752   0.223   2.929  0.4221  0.2740 -0.0104
 4596SOL    HW214109   4.796   0.368   2.991  0.5649 -0.2382  1.1251
 4597SOL     OW14110   4.417   2.759   3.415  0.5691  0.0586 -0.9392
 4597SOL    HW114111   4.349   2.799   3.354  1.0013  1.9469 -0.2352
 4597SOL    HW214112   4.375   2.743   3.504  1.1500  1.8133 -0.3117
 4598SOL     OW14113   4.638   3.303   2.819 -0.2114 -0.6395  0.0012
 4598SOL    HW114114   4.729   3.341   2.834  0.0265 -1.2387  0.1217
 4598SOL    HW214115   4.643   3.231   2.750 -1.0009  0.8982 -1.7298
 4599SOL     OW14116   5.409   3.474   3.243 -0.0343 -0.1269  0.3077
 4599SOL    HW114117   5.320   3.471   3.288  0.7469 -1.3435  1.8751
 4599SOL    HW214118   5.454   3.561   3.265 -0.8509  0.5453 -0.5937
 4600SOL     OW14119   0.049   3.464   4.058  0.4005 -0.4615 -0.2550
 4600SOL    HW114120   0.045   3.547   4.003 -1.7889 -0.8762 -0.7929
 4600SOL    HW214121   0.014   3.387   4.005 -0.1243 -1.2111  1.1314
 4601SOL     OW14122   3.088   3.212   3.710 -0.5827 -0.4604 -0.0147
 4601SOL    HW114123   3.115   3.133   3.654 -1.6450 -0.7012 -0.2121
 4601SOL    HW214124   3.086   3.186   3.806 -1.4189 -0.8337 -0.1222
 4602SOL     OW14125   4.673   3.528   3.354 -0.4718  0.8333 -0.3936
 4602SOL    HW114126   4.718   3.473   3.284  1.0151 -0.2535  1.3125
 4602SOL    HW214127   4.575   3.535   3.334 -0.4211 -1.0959 -1.5262
 4603SOL     OW14128   3.483   4.108   5.082 -0.2347 -0.4359  0.1720
 4603SOL    HW114129   3.491   4.084   4.986  0.7705 -0.9859  0.3770
 4603SOL    HW214130   3.568   4.153   5.112 -0.6043 -0.1202  0.7589
 4604SOL     OW14131   4.452   4.001   3.798 -0.1071 -0.4863  0.1916
 4604SOL    HW114132   4.382   3.933   3.822  0.7691 -0.7523  2.2217
 4604SOL    HW214133   4.494   4.037   3.882  1.3087  0.6001 -0.9273
 4605SOL     OW14134   4.419   1.037   4.457 -0.1275 -0.3038 -0.4996
 4605SOL    HW114135   4.367   0.959   4.492 -1.4459  0.7907  0.0798
 4605SOL    HW214136   4.371   1.076   4.379 -0.6999  1.2619  0.5911
 4606SOL     OW14137   5.236   1.262   3.351  0.1507 -0.7584 -0.0168
 4606SOL    HW114138   5.289   1.219   3.278 -1.3364 -1.2966 -0.8163
 4606SOL    HW214139   5.146   1.289   3.316 -0.6294 -1.0869  1.6196
 4607SOL     OW14140   0.580   3.992   3.331  0.3445 -0.9344  0.0920
 4607SOL    HW114141   0.676   3.975   3.309  0.0220 -0.2184 -2.0820
 4607SOL    HW214142   0.556   4.085   3.305 -1.1408 -1.3567 -0.1265
 4608SOL     OW14143   4.945   3.447   3.493  0.1197 -0.7782  0.0544
 4608SOL    HW114144   4.865   3.491   3.453 -0.8479 -1.3829  1.2537
 4608SOL    HW214145   4.943   3.349   3.471  0.5554 -0.7951  0.0740
 4609SOL     OW14146   4.725   2.732   1.645 -0.1007 -0.1172 -0.5367
 4609SOL    HW114147   4.721   2.832   1.648 -1.9799 -0.1625  1.2587
 4609SOL    HW214148   4.641   2.697   1.604 -0.8325 -0.9464  1.5070
 4610SOL     OW14149   4.803   1.366   2.795  0.2747 -0.6632  0.3572
 4610SOL    HW114150   4.719   1.336   2.750  0.3356  1.1549 -1.1065
 4610SOL    HW214151   4.797   1.463   2.816  1.6413 -0.7177  1.1544
 4611SOL     OW14152   4.609   1.865   3.650 -0.1590  0.0146 -0.2913
 4611SOL    HW114153   4.630   1.768   3.658 -0.9785 -0.1955 -0.5400
 4611SOL    HW214154   4.642   1.899   3.562 -0.6516 -0.2632 -0.5913
 4612SOL     OW14155   5.286   1.354   2.842  0.4780  0.1779 -0.8977
 4612SOL    HW114156   5.378   1.323   2.818  0.2409 -0.1760 -1.3776
 4612SOL    HW214157   5.284   1.453   2.847  0.9366  0.1765 -0.6737
 4613SOL     OW14158   4.582   2.806   2.382 -0.0481  0.1362  0.0883
 4613SOL    HW114159   4.611   2.731   2.323 -0.3328  0.1525 -0.0710
 4613SOL    HW214160   4.560   2.886   2.326 -1.5119 -0.2310  0.1139
 4614SOL     OW14161   3.776   1.460   4.645 -0.1711  0.6564 -0.1558
 4614SOL    HW114162   3.749   1.537   4.702 -1.5056  0.6172 -0.7051
 4614SOL    HW214163   3.724   1.460   4.560  2.4264  1.2468 -1.8780
 4615SOL     OW14164   3.497   3.209   3.392  0.0373  0.4169 -0.4058
 4615SOL    HW114165   3.438   3.243   3.465 -2.3767 -0.4387 -1.8539
 4615SOL    HW214166   3.457   3.128   3.351  1.3372  0.8065 -2.6404
 4616SOL     OW14167   4.757   2.730   4.743  0.1590 -0.3828 -0.4448
 4616SOL    HW114168   4.794   2.820   4.719  0.0533 -0.2674 -0.1795
 4616SOL    HW214169   4.660   2.739   4.764  0.6449 -0.1029  2.0052
 4617SOL     OW14170   3.951   3.135   3.493 -0.6166 -0.2196  0.1414
 4617SOL    HW114171   4.017   3.077   3.445 -1.5930 -2.8540  1.7432
 4617SOL    HW214172   3.877   3.159   3.431  0.4668  0.4553 -0.9206
 4618SOL     OW14173   3.616   4.425   4.399  0.4808  0.5222 -0.3640
 4618SOL    HW114174   3.586   4.331   4.379 -0.4795  0.7056  0.1395
 4618SOL    HW214175   3.562   4.489   4.345 -0.5456  0.8999  1.0482
 4619SOL     OW14176   3.686   3.429   4.354 -0.4110  0.4336 -0.3128
 4619SOL    HW114177   3.627   3.371   4.298 -0.2721 -1.5844  1.5028
 4619SOL    HW214178   3.639   3.514   4.375 -2.0102 -0.4341 -0.2743
 4620SOL     OW14179   1.032   3.425   0.568  0.2901 -0.7167 -0.1150
 4620SOL    HW114180   0.984   3.350   0.615 -3.4557  0.0980 -2.1980
 4620SOL    HW214181   1.077   3.483   0.635 -4.1583  0.0378  2.6682
 4621SOL     OW14182   3.884   1.112   3.145 -0.4207 -0.0692 -0.1897
 4621SOL    HW114183   3.816   1.104   3.218 -1.3501  0.1910 -1.0222
 4621SOL    HW214184   3.944   1.190   3.165  1.0168 -1.5360  1.6357
 4622SOL     OW14185   4.719   2.633   3.119  0.2245 -0.5827 -0.7001
 4622SOL    HW114186   4.818   2.629   3.129  0.2003 -0.9883 -0.6130
 4622SOL    HW214187   4.692   2.726   3.095  0.4735 -0.1073  0.7944
 4623SOL     OW14188   4.842   1.821   4.164 -0.1171  0.4499 -0.1666
 4623SOL    HW114189   4.927   1.771   4.148 -0.8464 -1.7498  2.2947
 4623SOL    HW214190   4.764   1.764   4.138 -0.9706  0.2168  2.6606
 4624SOL     OW14191   4.016   3.048   4.014 -0.1176 -0.4966  0.1135
 4624SOL    HW114192   4.089   3.017   3.953 -0.2800  0.1660 -0.4269
 4624SOL    HW214193   3.955   2.971   4.034  1.0355 -1.2019  1.0443
 4625SOL     OW14194   0.021   2.929   2.930 -0.1918 -0.1582  0.0547
 4625SOL    HW114195  -0.023   2.931   3.020  0.6182 -2.8650  0.6046
 4625SOL    HW214196   0.072   3.013   2.916 -0.6683  0.4957  1.9550
 4626SOL     OW14197   4.245   3.603   3.882  0.3585 -0.0408 -0.1743
 4626SOL    HW114198   4.188   3.607   3.800  0.8742 -0.3528 -0.5571
 4626SOL    HW214199   4.191   3.570   3.959  0.2466 -1.2105 -0.7395
 4627SOL     OW14200   4.128   3.756   2.492  0.1623 -0.2705 -0.2672
 4627SOL    HW114201   4.097   3.678   2.547  1.0029 -0.1227  0.4365
 4627SOL    HW214202   4.225   3.771   2.507 -0.2037  1.6021  0.4858
 4628SOL     OW14203   3.294   1.061   2.965 -0.2659 -0.2239  0.6638
 4628SOL    HW114204   3.344   1.048   2.880 -0.4142 -0.6621  0.6429
 4628SOL    HW214205   3.321   1.148   3.006 -0.3685  0.1052  0.0506
 4629SOL     OW14206   3.662   2.027   3.808 -0.3933 -0.1653  0.0474
 4629SOL    HW114207   3.586   2.032   3.742 -0.3163 -1.7611 -0.2118
 4629SOL    HW214208   3.633   1.972   3.886  0.0708  0.3432  0.5805
 4630SOL     OW14209   0.221   3.449   1.500  0.3786  0.3077 -0.0027
 4630SOL    HW114210   0.318   3.451   1.522  0.7898  0.8169 -1.7285
 4630SOL    HW214211   0.204   3.501   1.416 -1.7376  2.4628  1.5659
 4631SOL     OW14212   4.638   2.802   4.025 -0.2689 -0.4826 -0.9437
 4631SOL    HW114213   4.696   2.833   4.101 -1.5420 -0.1373 -0.0767
 4631SOL    HW214214   4.543   2.828   4.043 -1.2645 -3.7369 -0.7404
 4632SOL     OW14215   3.900   3.901   3.936 -0.4572 -0.2306 -0.0762
 4632SOL    HW114216   3.900   3.815   3.987  1.5723  0.3839  1.0971
 4632SOL    HW214217   3.896   3.978   4.001 -1.7258  0.5880 -1.0730
 4633SOL     OW14218   4.614   0.809   1.814 -0.4721 -0.1358  0.2005
 4633SOL    HW114219   4.644   0.717   1.838  1.9141  0.1625 -1.3575
 4633SOL    HW214220   4.524   0.805   1.772  0.0249 -1.9072 -0.7878
 4634SOL     OW14221   4.854   4.096   1.875  0.6044  0.0992 -0.2413
 4634SOL    HW114222   4.873   4.114   1.778 -1.5578  0.3209 -0.6783
 4634SOL    HW214223   4.877   4.001   1.897  0.0712 -0.2858 -1.2815
 4635SOL     OW14224   4.591   2.907   3.232 -0.2890 -0.5000  0.0016
 4635SOL    HW114225   4.576   2.887   3.328 -1.0235 -2.0422 -0.4099
 4635SOL    HW214226   4.505   2.895   3.182 -0.2269  1.5008 -0.6739
 4636SOL     OW14227  -0.010   3.516   2.590  0.2055  0.2741  0.8561
 4636SOL    HW114228   0.012   3.478   2.500 -0.0046 -0.4870  1.1167
 4636SOL    HW214229   0.049   3.594   2.609  0.4241  0.2850  0.1666
 4637SOL     OW14230   4.855   4.571   0.272 -0.4520 -0.2675  0.1517
 4637SOL    HW114231   4.821   4.477   0.271 -0.2770 -0.3285 -0.5386
 4637SOL    HW214232   4.808   4.625   0.202  0.7088 -0.3051 -0.6853
 4638SOL     OW14233   0.365   2.206   3.078 -0.2942 -0.0396 -0.0948
 4638SOL    HW114234   0.455   2.183   3.041  0.0534  0.5894  0.3606
 4638SOL    HW214235   0.303   2.227   3.003 -0.1003 -0.5790 -0.4169
 4639SOL     OW14236   0.475   2.755   3.504  0.1963 -0.4406  0.3209
 4639SOL    HW114237   0.457   2.847   3.467  1.3103 -0.1125  0.5753
 4639SOL    HW214238   0.457   2.755   3.602  0.5422 -0.4053  0.3824
 4640SOL     OW14239   5.186   2.333   1.805 -0.5335  0.0099 -0.0497
 4640SOL    HW114240   5.117   2.325   1.732 -0.4340 -1.0811 -0.0480
 4640SOL    HW214241   5.149   2.387   1.880 -0.8767  0.6030 -0.6341
 4641SOL     OW14242   4.311   3.442   3.035  0.3938  0.3670 -0.7654
 4641SOL    HW114243   4.332   3.356   2.989  2.5726  1.7679 -2.5399
 4641SOL    HW214244   4.215   3.465   3.019  0.3169 -0.7016 -2.0156
 4642SOL     OW14245   4.736   4.014   3.583  0.3461  0.0078 -0.0810
 4642SOL    HW114246   4.674   4.084   3.619 -0.0919  0.0488 -0.8858
 4642SOL    HW214247   4.683   3.933   3.556  0.7808 -0.4058  0.2877
 4643SOL     OW14248   3.787   2.450   3.613 -0.4710  0.0597 -0.2202
 4643SOL    HW114249   3.802   2.380   3.682  0.9843  0.7828  0.2399
 4643SOL    HW214250   3.726   2.521   3.649  1.2953  1.1050  0.8713
 4644SOL     OW14251   4.982   0.719   3.155  0.4051 -0.2219 -0.0497
 4644SOL    HW114252   5.005   0.789   3.223  0.1276 -0.9785  0.8504
 4644SOL    HW214253   4.939   0.762   3.076 -0.8634  0.5204  1.0066
 4645SOL     OW14254   2.058   3.024   3.988  0.4378 -0.0368 -0.1187
 4645SOL    HW114255   2.138   3.052   3.935  0.3494  0.4036 -0.0201
 4645SOL    HW214256   1.999   2.966   3.931  1.1618 -0.9466  0.0192
 4646SOL     OW14257   4.298   3.796   4.742  0.3777 -0.3603 -0.2765
 4646SOL    HW114258   4.258   3.797   4.834  0.2505  1.6939 -0.3020
 4646SOL    HW214259   4.229   3.769   4.675  0.0128 -0.2446  0.0530
 4647SOL     OW14260   4.417   3.590   2.314 -0.5866 -0.3412  0.9206
 4647SOL    HW114261   4.496   3.552   2.363 -0.5271  2.7720  3.5631
 4647SOL    HW214262   4.333   3.545   2.346 -0.1522 -1.9419 -0.0797
 4648SOL     OW14263   3.261   2.666   2.742  0.0707 -0.0982  0.6421
 4648SOL    HW114264   3.181   2.723   2.723  0.0165 -0.0572  0.9775
 4648SOL    HW214265   3.292   2.623   2.658  0.5992  1.0553  0.2266
 4649SOL     OW14266   4.222   2.394   3.766 -0.5445 -0.0637  0.4119
 4649SOL    HW114267   4.209   2.436   3.856 -0.5669  0.3133  0.2351
 4649SOL    HW214268   4.318   2.402   3.739 -0.1856 -1.6539  1.1277
 4650SOL     OW14269   3.364   2.532   2.504 -0.4117  0.0087  0.7963
 4650SOL    HW114270   3.447   2.587   2.494 -0.4215  0.4580  2.7685
 4650SOL    HW214271   3.389   2.438   2.526 -0.4096 -0.6997 -1.9359
 4651SOL     OW14272   4.191   2.474   1.991 -0.2082 -0.0316 -0.2588
 4651SOL    HW114273   4.246   2.523   1.924 -0.2545 -0.2436 -0.4512
 4651SOL    HW214274   4.233   2.485   2.082 -0.0070  0.0436 -0.3592
 4652SOL     OW14275   1.402   1.835   4.101  0.2391  0.6843  0.3546
 4652SOL    HW114276   1.486   1.806   4.146 -0.3241 -0.4949  0.6990
 4652SOL    HW214277   1.384   1.931   4.120  1.4122  0.8999  0.4143
 4653SOL     OW14278   0.886   5.485   3.725  0.1074 -0.1847  0.0101
 4653SOL    HW114279   0.843   5.451   3.808  1.7822 -1.8395  0.2659
 4653SOL    HW214280   0.967   5.430   3.705  1.4346  2.0480 -1.0793
 4654SOL     OW14281   5.308   4.848   3.284  0.2248  0.0087  0.2549
 4654SOL    HW114282   5.231   4.812   3.335 -1.6221 -1.2907 -3.1111
 4654SOL    HW214283   5.278   4.924   3.226  1.5416 -0.2432 -0.8271
 4655SOL     OW14284   3.626   4.084   3.008 -0.2216  0.3855 -0.4215
 4655SOL    HW114285   3.633   4.055   3.104 -0.1944  0.5090 -0.3864
 4655SOL    HW214286   3.548   4.146   2.998 -0.5683 -0.0728 -0.5863
 4656SOL     OW14287   4.581   0.829   2.841 -0.1683  0.0095 -0.4329
 4656SOL    HW114288   4.548   0.864   2.754 -1.9253 -2.0934 -0.6929
 4656SOL    HW214289   4.594   0.905   2.905 -0.1948  1.4429 -2.0583
 4657SOL     OW14290   1.444   1.482   4.784  0.6611  0.6286 -0.5738
 4657SOL    HW114291   1.480   1.465   4.876  0.2248 -0.6063 -0.6106
 4657SOL    HW214292   1.365   1.543   4.791  0.9432  0.9547 -0.1840
 4658SOL     OW14293   5.150   3.106   3.071  0.3558  0.6904  0.1810
 4658SOL    HW114294   5.231   3.162   3.086 -0.5311  1.7855  1.0784
 4658SOL    HW214295   5.175   3.010   3.071  1.5784  0.9902  0.9351
 4659SOL     OW14296   4.322   3.956   5.139  0.4268  0.2234 -0.2422
 4659SOL    HW114297   4.254   3.903   5.087 -0.3095  0.7730  0.1377
 4659SOL    HW214298   4.404   3.900   5.154 -0.8248 -1.3199  1.3108
 4660SOL     OW14299   3.403   2.441   3.430  0.3049  0.0066 -0.4504
 4660SOL    HW114300   3.434   2.455   3.336 -1.4366  3.1756 -0.7086
 4660SOL    HW214301   3.327   2.377   3.432 -1.2069  1.6509 -1.6572
 4661SOL     OW14302   5.265   2.710   3.389 -0.3112 -1.1130  0.3106
 4661SOL    HW114303   5.176   2.731   3.430  0.5177  1.3089  1.0514
 4661SOL    HW214304   5.338   2.742   3.449  1.0211 -1.3179 -1.1376
 4662SOL     OW14305   4.342   1.885   2.755 -0.3438 -0.2666  0.2464
 4662SOL    HW114306   4.283   1.853   2.681  0.2720 -0.5152 -0.1474
 4662SOL    HW214307   4.326   1.983   2.770 -0.5073 -0.2258 -0.1830
 4663SOL     OW14308   2.615   1.989   1.858  0.4329  0.2372  0.2201
 4663SOL    HW114309   2.686   1.995   1.928  0.3544 -2.3576  0.5963
 4663SOL    HW214310   2.590   1.894   1.844 -2.4186  1.0036 -0.4934
 4664SOL     OW14311   2.972   4.288   2.957 -0.4135  0.6117 -0.3049
 4664SOL    HW114312   2.997   4.231   2.879 -1.2577  0.8379 -0.7592
 4664SOL    HW214313   2.947   4.380   2.925  1.2600  1.3685  0.4505
 4665SOL     OW14314   4.016   2.804   3.151  0.3002 -0.0784  0.7600
 4665SOL    HW114315   3.979   2.825   3.061  0.3404 -0.5121  0.6422
 4665SOL    HW214316   3.949   2.753   3.204 -0.2153  1.2411  1.4369
 4666SOL     OW14317   1.831   2.483   4.921 -0.0376 -0.1003 -0.5479
 4666SOL    HW114318   1.908   2.420   4.922 -0.0171 -0.0953  0.6839
 4666SOL    HW214319   1.750   2.438   4.884  0.2077 -0.5660 -0.5218
 4667SOL     OW14320   3.561   3.503   2.027 -0.0087  0.3093 -0.7089
 4667SOL    HW114321   3.606   3.418   1.999  1.8720  0.6416  1.0094
 4667SOL    HW214322   3.626   3.578   2.022 -0.6105  1.0050  0.9831
 4668SOL     OW14323   3.809   2.255   3.813  0.0790 -0.1988  0.1766
 4668SOL    HW114324   3.731   2.194   3.802  0.5052 -0.7394  0.1454
 4668SOL    HW214325   3.892   2.210   3.782  0.2592  0.7634 -0.8159
 4669SOL     OW14326   4.730   3.547   3.061  0.5061  0.6849  0.5328
 4669SOL    HW114327   4.818   3.534   3.017  1.0806  1.0495  1.5504
 4669SOL    HW214328   4.739   3.610   3.138 -0.7782  1.2814  0.2368
 4670SOL     OW14329   4.420   4.135   3.391 -0.6169 -0.0572 -0.1194
 4670SOL    HW114330   4.402   4.040   3.364 -1.0357 -0.2469  0.7626
 4670SOL    HW214331   4.455   4.186   3.313 -0.5004 -0.9089 -0.6408
 4671SOL     OW14332   5.377   3.741   2.983 -0.2486 -0.2519  0.5286
 4671SOL    HW114333   5.350   3.802   2.908  1.2263  0.3136  0.4312
 4671SOL    HW214334   5.319   3.659   2.982 -0.2162 -0.2884 -1.2805
 4672SOL     OW14335   4.335   3.542   4.742  0.2867 -0.2158  0.1136
 4672SOL    HW114336   4.329   3.638   4.767 -1.0150  0.2539 -1.7364
 4672SOL    HW214337   4.245   3.500   4.751  0.8859 -1.3459  1.1007
 4673SOL     OW14338   3.993   2.144   2.887  0.6691  0.6938 -0.1935
 4673SOL    HW114339   3.988   2.121   2.984 -1.3663 -0.5280 -0.5414
 4673SOL    HW214340   4.082   2.115   2.851  0.7657 -0.5132  0.9180
 4674SOL     OW14341   4.385   3.554   3.293 -0.1720 -0.3925 -0.2276
 4674SOL    HW114342   4.351   3.524   3.204 -0.9671  0.6398 -0.2958
 4674SOL    HW214343   4.384   3.654   3.296 -1.5321 -0.4190  1.4616
 4675SOL     OW14344   4.669   3.288   3.155 -0.2627 -0.4284  0.0608
 4675SOL    HW114345   4.584   3.244   3.126 -0.8862 -0.1704  1.4172
 4675SOL    HW214346   4.681   3.373   3.104  1.3908 -2.4094 -3.2153
 4676SOL     OW14347   1.627   2.247   2.643  0.2281  0.9328 -0.3864
 4676SOL    HW114348   1.609   2.177   2.574  1.2625  0.0839  0.1773
 4676SOL    HW214349   1.543   2.267   2.692  0.0660 -0.5099 -0.0237
 4677SOL     OW14350   4.042   4.734   4.036  0.2678 -0.0075  0.0059
 4677SOL    HW114351   4.004   4.751   3.945  2.7327 -1.5186 -1.4251
 4677SOL    HW214352   3.969   4.740   4.104 -2.5819 -2.6977 -2.4678
 4678SOL     OW14353   1.206   1.647   4.841 -0.1118  0.2882 -0.2439
 4678SOL    HW114354   1.192   1.746   4.840 -0.5004  0.3914  3.2129
 4678SOL    HW214355   1.215   1.616   4.936 -1.3577 -3.2034 -1.1306
 4679SOL     OW14356   4.149   1.165   2.475 -0.1375  0.7800  0.4992
 4679SOL    HW114357   4.108   1.210   2.554  1.2682  0.9204  1.1694
 4679SOL    HW214358   4.237   1.207   2.455  1.1823 -1.5621  1.0629
 4680SOL     OW14359   3.946   2.668   2.214 -0.1692 -0.1549 -0.4343
 4680SOL    HW114360   4.009   2.744   2.198 -2.2586  1.4961 -1.2119
 4680SOL    HW214361   3.965   2.627   2.303  2.7447 -0.5481 -1.1161
 4681SOL     OW14362   3.719   3.594   3.560 -0.3464  0.3515  0.7650
 4681SOL    HW114363   3.713   3.657   3.638 -0.5175  1.4886 -0.1302
 4681SOL    HW214364   3.782   3.520   3.581  0.4648  1.2448  1.5880
 4682SOL     OW14365   2.781   5.286   1.363 -0.0084 -0.1476 -0.4574
 4682SOL    HW114366   2.843   5.235   1.303  0.7017  1.3002 -1.0040
 4682SOL    HW214367   2.686   5.271   1.334  0.1490 -1.4213 -0.3656
 4683SOL     OW14368   4.568   2.036   2.098  0.4448  0.0533  0.2955
 4683SOL    HW114369   4.534   1.943   2.115 -0.9120  0.4280 -0.2657
 4683SOL    HW214370   4.667   2.032   2.083  0.7581 -1.0371  2.2291
 4684SOL     OW14371   3.509   1.755   3.246 -0.9322  0.4112 -0.7506
 4684SOL    HW114372   3.434   1.692   3.229 -1.8259  1.1567  0.2697
 4684SOL    HW214373   3.473   1.845   3.270  0.1103  0.0751  2.7535
 4685SOL     OW14374   4.290   0.965   2.875 -0.2554  0.0911 -0.5502
 4685SOL    HW114375   4.379   0.923   2.896 -0.6152 -0.1530  0.5698
 4685SOL    HW214376   4.227   0.949   2.951 -1.6757 -0.8542 -1.8566
 4686SOL     OW14377   1.015   2.301   2.316 -0.0981  0.1193  0.0079
 4686SOL    HW114378   0.941   2.237   2.338  0.1174  0.1275  0.7675
 4686SOL    HW214379   0.994   2.390   2.356 -1.3782  1.1343 -2.6758
 4687SOL     OW14380   3.856   4.369   3.224  0.0199  0.4116 -0.0178
 4687SOL    HW114381   3.871   4.321   3.137  1.1188 -0.2012  0.4958
 4687SOL    HW214382   3.893   4.315   3.299 -2.5111  0.0562  1.0929
 4688SOL     OW14383   0.465   2.499   2.952 -0.2435 -0.3326  0.4597
 4688SOL    HW114384   0.379   2.541   2.981 -0.3560 -0.7478  0.7397
 4688SOL    HW214385   0.512   2.560   2.889 -0.8280 -0.1808  0.1636
 4689SOL     OW14386   3.658   4.181   3.949 -0.2250  0.1283  0.5205
 4689SOL    HW114387   3.660   4.141   4.041  0.3761 -0.7794  0.1305
 4689SOL    HW214388   3.563   4.197   3.923 -0.6700 -2.6194  0.0844
 4690SOL     OW14389   4.360   2.935   3.814  0.5160 -0.1514  0.2426
 4690SOL    HW114390   4.288   3.002   3.795  0.2878 -0.4332  0.1013
 4690SOL    HW214391   4.411   2.963   3.895 -0.4898 -0.5298  1.0398
 4691SOL     OW14392   4.110   2.334   5.076 -0.0883 -0.5935  0.1667
 4691SOL    HW114393   4.209   2.325   5.088  0.1865  1.6614  0.0778
 4691SOL    HW214394   4.069   2.370   5.160 -0.6457 -0.4356 -0.1674
 4692SOL     OW14395   2.343   1.261   0.352 -0.2296  0.2425 -0.1693
 4692SOL    HW114396   2.399   1.344   0.357 -0.1296  0.2868 -1.6112
 4692SOL    HW214397   2.308   1.239   0.443  2.4662 -0.0399  0.8883
 4693SOL     OW14398   4.114   3.594   3.619  0.2762 -0.8379 -0.6096
 4693SOL    HW114399   4.060   3.633   3.545 -0.4667 -1.6339 -0.5011
 4693SOL    HW214400   4.160   3.511   3.588  0.2887 -0.9490 -0.3036
 4694SOL     OW14401   5.205   5.518   4.357 -0.2428  0.3151  1.0169
 4694SOL    HW114402   5.205   5.554   4.450 -0.0662  2.0454  0.3869
 4694SOL    HW214403   5.112   5.515   4.322 -0.2682  0.0342  1.1039
 4695SOL     OW14404   1.187   3.348   0.937 -0.1469  0.0451  0.8340
 4695SOL    HW114405   1.257   3.418   0.927  0.5921 -0.8254 -0.3698
 4695SOL    HW214406   1.097   3.387   0.917  0.3683  0.4370 -0.8355
 4696SOL     OW14407   3.967   3.421   3.316  0.1646 -0.0277  0.3042
 4696SOL    HW114408   4.029   3.390   3.389 -1.3715  0.4295  1.8753
 4696SOL    HW214409   3.873   3.416   3.349 -0.6494 -0.5948 -1.9799
 4697SOL     OW14410   3.036   0.858   2.752 -0.3149 -0.6624 -0.0720
 4697SOL    HW114411   2.956   0.839   2.695 -0.0617 -1.1765 -0.2578
 4697SOL    HW214412   3.102   0.784   2.743 -0.3672 -0.8818  1.0650
 4698SOL     OW14413   3.723   2.596   4.646 -0.1497 -0.5964 -0.4498
 4698SOL    HW114414   3.698   2.631   4.555 -0.6642 -0.6519 -0.3309
 4698SOL    HW214415   3.686   2.504   4.657  1.8570 -1.5601 -1.0748
 4699SOL     OW14416   0.579   3.216   3.611 -0.3394  0.1663 -0.0962
 4699SOL    HW114417   0.523   3.201   3.692 -2.1168  0.6282 -1.1672
 4699SOL    HW214418   0.526   3.267   3.543  1.1096 -0.1204 -1.5132
 4700SOL     OW14419   4.751   1.624   2.815  0.1640 -0.2633 -0.4339
 4700SOL    HW114420   4.684   1.639   2.743  0.8095 -0.4364 -1.0874
 4700SOL    HW214421   4.818   1.698   2.814 -0.1771  0.0620  0.4047
 4701SOL     OW14422   1.352   2.360   1.888 -0.4793  0.4263 -0.0656
 4701SOL    HW114423   1.328   2.291   1.957  0.4577  0.7383  0.6110
 4701SOL    HW214424   1.451   2.373   1.889 -0.6362  1.7332 -0.2263
 4702SOL     OW14425   4.270   4.635   3.852 -0.3642  0.0902 -0.3268
 4702SOL    HW114426   4.172   4.613   3.849 -0.1635 -0.6875 -1.7984
 4702SOL    HW214427   4.290   4.682   3.938 -1.7771 -0.9733  0.6430
 4703SOL     OW14428   4.850   2.969   2.595 -0.2064  0.3776  0.2990
 4703SOL    HW114429   4.898   2.976   2.683 -0.4206 -1.3141  0.5796
 4703SOL    HW214430   4.917   2.958   2.521 -0.0821  0.2628  0.4294
 4704SOL     OW14431   4.079   2.145   3.746 -0.2774  0.2359  0.2891
 4704SOL    HW114432   4.160   2.109   3.699  0.2785  0.6867  0.8776
 4704SOL    HW214433   4.084   2.245   3.748 -1.3425  0.3121 -0.5233
 4705SOL     OW14434   5.472   3.420   0.797  0.3108  0.5004  0.3716
 4705SOL    HW114435   5.397   3.456   0.742  0.2523 -0.5364 -0.2552
 4705SOL    HW214436   5.463   3.321   0.805  2.9800 -0.0745 -1.9425
 4706SOL     OW14437   4.213   2.697   1.267 -0.1187  0.3626  0.3640
 4706SOL    HW114438   4.156   2.774   1.237  0.1147  1.1858  1.9114
 4706SOL    HW214439   4.285   2.681   1.200 -0.9353  0.6332 -0.6139
 4707SOL     OW14440   4.535   3.292   4.004  0.0767 -0.0420  0.4396
 4707SOL    HW114441   4.469   3.317   4.075  1.8056 -0.5366  2.3229
 4707SOL    HW214442   4.628   3.297   4.041  1.0447 -0.7184 -1.7009
 4708SOL     OW14443   1.880   1.622   4.870 -0.3302  0.1949 -0.4892
 4708SOL    HW114444   1.848   1.530   4.893 -1.2773  0.3334 -1.1595
 4708SOL    HW214445   1.907   1.625   4.773  0.0741  0.5237 -0.3697
 4709SOL     OW14446   4.472   1.994   3.832  0.2119  0.0657  0.1448
 4709SOL    HW114447   4.432   1.926   3.894  0.0373 -0.0088 -0.0490
 4709SOL    HW214448   4.504   1.950   3.749 -1.5213  0.4306 -0.7677
 4710SOL     OW14449   5.035   5.003   1.839  0.7289  0.1990 -0.3778
 4710SOL    HW114450   5.048   5.075   1.771 -2.7894  0.9937 -0.4281
 4710SOL    HW214451   5.001   4.920   1.794  0.5012  0.0068  0.1347
 4711SOL     OW14452   3.265   0.219   0.531 -0.3433 -0.1878 -0.8853
 4711SOL    HW114453   3.363   0.204   0.521 -0.0008  0.5008  1.0117
 4711SOL    HW214454   3.220   0.134   0.556  0.3452  0.1009  1.6608
 4712SOL     OW14455   5.049   1.010   2.716  0.6150 -0.1061  0.3508
 4712SOL    HW114456   5.033   0.975   2.623 -1.4992 -1.2570  1.0984
 4712SOL    HW214457   5.146   1.032   2.726  1.0952 -0.9706 -1.7855
 4713SOL     OW14458   3.754   3.128   3.275 -0.1326 -0.2293 -0.2267
 4713SOL    HW114459   3.770   3.184   3.193 -0.1097 -0.6253 -0.4975
 4713SOL    HW214460   3.674   3.161   3.323 -0.5327 -0.3964 -0.7689
 4714SOL     OW14461   5.345   2.172   2.250 -0.3352  0.2865  0.0308
 4714SOL    HW114462   5.389   2.143   2.165  2.0311  2.1699  0.4914
 4714SOL    HW214463   5.284   2.249   2.232  0.1719  0.6900  0.0135
 4715SOL     OW14464   5.327   4.105   0.759 -0.0184  0.4181  0.2326
 4715SOL    HW114465   5.296   4.010   0.754 -1.5722  0.9515 -1.7712
 4715SOL    HW214466   5.420   4.108   0.794  0.7419 -2.0064 -1.3304
 4716SOL     OW14467   0.051   0.877   2.838  0.2820 -0.1433 -0.2264
 4716SOL    HW114468   0.042   0.779   2.854  0.8171 -0.4319 -1.5902
 4716SOL    HW214469  -0.040   0.916   2.819  0.1420 -0.4567 -0.1973
 4717SOL     OW14470   4.063   3.703   0.624 -0.0867 -0.2310  0.2296
 4717SOL    HW114471   4.151   3.681   0.584  0.2998 -0.4587  1.1658
 4717SOL    HW214472   4.074   3.719   0.722 -1.0084  0.2128  0.2736
 4718SOL     OW14473   3.878   0.824   3.478  0.0133  0.0990 -0.3623
 4718SOL    HW114474   3.928   0.785   3.556  0.1290 -2.7028 -1.7204
 4718SOL    HW214475   3.783   0.795   3.483  0.1054 -0.4202 -1.4286
 4719SOL     OW14476   5.252   1.514   3.205  0.1431 -0.2019 -0.7871
 4719SOL    HW114477   5.223   1.430   3.251 -0.6632  1.2508  1.5095
 4719SOL    HW214478   5.172   1.567   3.178  0.6364  0.3107 -1.2826
 4720SOL     OW14479   4.229   3.408   3.470  0.1918  0.2311  0.0225
 4720SOL    HW114480   4.278   3.324   3.493  0.7418  0.6066  0.2407
 4720SOL    HW214481   4.289   3.468   3.417  0.0188  0.7479  0.3990
 4721SOL     OW14482   3.113   2.924   3.597  0.3150 -0.3718 -0.6806
 4721SOL    HW114483   3.079   2.850   3.538 -1.6049 -1.6915  1.8430
 4721SOL    HW214484   3.167   2.885   3.671 -0.9405  0.6556  0.8547
 4722SOL     OW14485   3.059   1.624   2.688  0.1597 -0.4325  0.0320
 4722SOL    HW114486   2.979   1.683   2.701  1.1806  0.6803  1.6869
 4722SOL    HW214487   3.057   1.552   2.757  0.9067 -0.0162  0.4913
 4723SOL     OW14488   3.683   2.561   2.795 -0.2055  0.0427  0.2898
 4723SOL    HW114489   3.743   2.516   2.861  0.4808  0.0031 -0.3441
 4723SOL    HW214490   3.591   2.569   2.833  0.0623 -0.4186  1.0513
 4724SOL     OW14491   3.140   3.915   2.145 -0.3740 -0.4537  0.0296
 4724SOL    HW114492   3.182   4.006   2.140 -1.8380  0.3734  1.5834
 4724SOL    HW214493   3.210   3.847   2.165  0.7538  0.3156 -1.1325
 4725SOL     OW14494   4.580   3.592   4.107 -0.2628 -0.5219 -0.2078
 4725SOL    HW114495   4.595   3.542   4.022 -0.6703 -0.2163 -0.4673
 4725SOL    HW214496   4.485   3.580   4.136 -0.4666  0.3795 -0.4691
 4726SOL     OW14497   2.681   0.994   2.747 -0.2000 -0.1248  0.1957
 4726SOL    HW114498   2.605   1.052   2.774  0.4525  0.4728  0.8004
 4726SOL    HW214499   2.649   0.901   2.732 -0.9199 -0.0301  1.0902
 4727SOL     OW14500   5.111   2.436   2.708  0.7629  0.3674  0.7611
 4727SOL    HW114501   5.098   2.422   2.806 -0.2442 -0.0012  0.5923
 4727SOL    HW214502   5.185   2.377   2.675  0.8307  0.1873  1.2283
 4728SOL     OW14503   4.238   3.344   5.242 -0.1452 -0.0016  0.2188
 4728SOL    HW114504   4.219   3.408   5.317  0.8042  1.7810 -1.0073
 4728SOL    HW214505   4.332   3.356   5.212 -0.4770 -0.7898 -1.1796
 4729SOL     OW14506   3.691   3.580   2.455  0.0404 -0.3385 -0.3786
 4729SOL    HW114507   3.636   3.523   2.394 -0.3312 -0.1465 -0.2247
 4729SOL    HW214508   3.727   3.658   2.404 -0.0415 -0.3262 -0.4171
 4730SOL     OW14509   4.569   4.090   4.024  0.3143  0.0898  0.0633
 4730SOL    HW114510   4.662   4.093   4.061  1.2366  3.6608 -2.0548
 4730SOL    HW214511   4.503   4.107   4.097  1.4394 -0.4143  1.2355
 4731SOL     OW14512   4.178   1.552   1.503 -0.0768 -0.7023 -0.0949
 4731SOL    HW114513   4.231   1.540   1.419  0.1092  1.2106 -0.3067
 4731SOL    HW214514   4.211   1.490   1.574  0.7786 -1.2643 -0.9698
 4732SOL     OW14515   0.052   3.168   4.793  0.3629  0.1123 -1.0001
 4732SOL    HW114516   0.081   3.228   4.719 -0.7906  0.5859 -1.1009
 4732SOL    HW214517  -0.030   3.117   4.765  0.4939 -0.4369 -0.4088
 4733SOL     OW14518   0.224   3.362   3.301  0.3264  0.0760 -0.2631
 4733SOL    HW114519   0.234   3.458   3.277  0.6641 -0.3118 -1.7688
 4733SOL    HW214520   0.191   3.311   3.222  2.1453 -1.3870 -0.1391
 4734SOL     OW14521   5.283   4.727   0.252  0.0098  0.0637  0.1732
 4734SOL    HW114522   5.232   4.696   0.173  0.2138  0.8016 -0.2631
 4734SOL    HW214523   5.349   4.798   0.224  0.2749  0.1404  0.9498
 4735SOL     OW14524   3.954   3.843   4.350  0.2192 -0.0541  0.2414
 4735SOL    HW114525   4.023   3.817   4.418 -0.0731 -0.8191  0.2534
 4735SOL    HW214526   3.867   3.861   4.396 -0.1961 -1.3679  0.0070
 4736SOL     OW14527   3.497   3.815   5.068  0.1982 -0.1090 -0.2658
 4736SOL    HW114528   3.525   3.910   5.082 -0.3933  0.0403 -0.0629
 4736SOL    HW214529   3.510   3.763   5.153 -0.9631  0.1802  0.1163
 4737SOL     OW14530   4.698   3.034   2.260 -0.2133  0.0708 -0.7296
 4737SOL    HW114531   4.777   3.032   2.198 -0.3992 -0.7433 -0.9555
 4737SOL    HW214532   4.724   3.078   2.346  0.1877  0.7556 -1.1920
 4738SOL     OW14533   0.729   3.898   2.960  0.2778 -0.1886  0.0661
 4738SOL    HW114534   0.684   3.981   2.927  4.2938  1.1486 -2.8827
 4738SOL    HW214535   0.780   3.919   3.043 -0.5322 -0.4076  0.6357
 4739SOL     OW14536   3.561   3.826   4.123  0.0117  0.1036 -0.6585
 4739SOL    HW114537   3.482   3.809   4.064 -0.9297 -0.0264  0.6118
 4739SOL    HW214538   3.555   3.919   4.160 -0.4608 -0.4728  0.7721
 4740SOL     OW14539   4.194   1.273   3.390 -0.1285 -0.0906 -0.2775
 4740SOL    HW114540   4.173   1.185   3.432  0.6788  0.7080  1.9128
 4740SOL    HW214541   4.263   1.321   3.444 -0.9016  2.1312 -1.1237
 4741SOL     OW14542   3.311   1.707   2.649 -0.2798  0.0962  0.4833
 4741SOL    HW114543   3.214   1.684   2.640 -0.2811  0.7533 -1.7558
 4741SOL    HW214544   3.322   1.806   2.655  0.3282  0.3495 -2.7133
 4742SOL     OW14545   1.184   2.714   2.372 -0.4992  0.0239  0.4969
 4742SOL    HW114546   1.103   2.753   2.330 -1.2224  0.4343  2.1701
 4742SOL    HW214547   1.239   2.668   2.303  0.0230  3.3213 -1.4851
 4743SOL     OW14548   4.663   2.176   3.547  0.4953 -0.4889 -0.0764
 4743SOL    HW114549   4.577   2.207   3.587 -0.0060 -1.3467 -0.4785
 4743SOL    HW214550   4.733   2.175   3.618 -0.4543 -2.2595  0.8959
 4744SOL     OW14551   5.314   2.416   3.339  0.2750  0.3090 -0.5569
 4744SOL    HW114552   5.394   2.362   3.313 -0.7054 -0.0878 -3.1075
 4744SOL    HW214553   5.338   2.513   3.339  0.9987  0.1349 -0.3070
 4745SOL     OW14554   2.436   0.238   2.376 -0.0186 -0.1700 -0.3061
 4745SOL    HW114555   2.533   0.212   2.374 -0.1733 -0.6942 -1.4268
 4745SOL    HW214556   2.424   0.328   2.334 -0.0456 -0.2112 -0.3873
 4746SOL     OW14557   4.861   3.564   2.708  0.1998  0.3921 -0.4078
 4746SOL    HW114558   4.935   3.625   2.735  0.9578 -0.6190 -0.1393
 4746SOL    HW214559   4.871   3.477   2.755 -0.3622 -0.2617 -1.4578
 4747SOL     OW14560   5.434   0.970   2.250 -0.4689 -0.0841 -0.2911
 4747SOL    HW114561   5.379   1.021   2.316 -1.4871 -0.9910 -0.3968
 4747SOL    HW214562   5.402   0.875   2.247  0.8653 -0.5389 -0.6569
 4748SOL     OW14563   4.108   1.364   2.084  0.2028 -0.4171 -0.4237
 4748SOL    HW114564   4.163   1.283   2.104 -1.5675 -1.3235  1.0599
 4748SOL    HW214565   4.035   1.373   2.152 -2.5402 -0.2235 -3.1504
 4749SOL     OW14566   5.057   3.601   1.365 -0.4973  0.6092  0.0370
 4749SOL    HW114567   5.118   3.656   1.308  0.1804  0.0712  0.2306
 4749SOL    HW214568   5.105   3.575   1.449 -0.4556 -1.0734 -0.4670
 4750SOL     OW14569   3.553   3.448   2.295  0.4856 -0.1641 -0.2564
 4750SOL    HW114570   3.476   3.404   2.342  0.8858  0.2566  0.8094
 4750SOL    HW214571   3.527   3.467   2.200 -0.5352 -0.4954 -0.0566
 4751SOL     OW14572   3.931   1.128   1.714  0.0970 -0.3217 -0.4982
 4751SOL    HW114573   3.932   1.035   1.677  0.0522 -0.7412  0.5246
 4751SOL    HW214574   4.025   1.161   1.722  0.1991 -0.7998  0.3878
 4752SOL     OW14575   4.263   2.487   2.981  0.0902  0.2609  0.5593
 4752SOL    HW114576   4.193   2.519   2.918  1.7881  0.2561 -1.4424
 4752SOL    HW214577   4.309   2.566   3.023  1.7175  0.4779 -1.4625
 4753SOL     OW14578   0.145   2.128   3.683  0.6424  0.0796  0.3415
 4753SOL    HW114579   0.242   2.140   3.663  0.4901  1.9944  0.5484
 4753SOL    HW214580   0.098   2.216   3.673 -1.0030 -0.7329  0.6215
 4754SOL     OW14581   4.112   3.226   1.507 -0.3760  0.7823  0.3144
 4754SOL    HW114582   4.085   3.133   1.531  0.9852 -0.0908 -1.3332
 4754SOL    HW214583   4.048   3.291   1.547 -2.6968 -0.9763 -0.3618
 4755SOL     OW14584   5.494   5.233   1.520 -0.7911  0.2109 -0.5433
 4755SOL    HW114585   5.403   5.199   1.497 -1.0041 -1.4218  2.2232
 4755SOL    HW214586   5.485   5.318   1.573 -0.6032  0.7021 -1.2763
 4756SOL     OW14587   3.776   4.432   3.915  0.7492 -0.1814  0.6106
 4756SOL    HW114588   3.725   4.353   3.947 -1.1467 -0.0396 -1.7291
 4756SOL    HW214589   3.798   4.421   3.818 -0.8348  2.7038 -0.1982
 4757SOL     OW14590   2.325   3.119   4.854  0.1624  0.3367  0.8495
 4757SOL    HW114591   2.261   3.161   4.919 -0.6529  0.6489 -0.1278
 4757SOL    HW214592   2.319   3.166   4.767  2.5908  1.1191  1.0360
 4758SOL     OW14593   3.266   2.765   4.976  0.1332  0.0595 -0.3030
 4758SOL    HW114594   3.166   2.767   4.979  0.0961 -1.4022  1.3082
 4758SOL    HW214595   3.296   2.723   4.891 -0.7459 -2.0414  0.3580
 4759SOL     OW14596   0.336   4.553   4.232  0.3237  0.0564  0.3758
 4759SOL    HW114597   0.340   4.456   4.206  0.0940  0.0342  0.4202
 4759SOL    HW214598   0.428   4.587   4.248  0.3952 -0.1914  0.4942
 4760SOL     OW14599   4.138   2.167   4.758  0.1872 -0.0331 -0.3306
 4760SOL    HW114600   4.154   2.185   4.660 -0.2195 -0.1286 -0.4169
 4760SOL    HW214601   4.224   2.180   4.808  0.2415  0.7197 -0.5986
 4761SOL     OW14602   1.065   2.728   1.952  0.4068 -0.6216 -0.4670
 4761SOL    HW114603   1.073   2.797   2.024 -1.8442 -0.5625 -0.2041
 4761SOL    HW214604   1.090   2.769   1.864 -0.1253  0.2974 -0.2037
 4762SOL     OW14605   3.444   3.174   4.570  0.1173 -0.3348  0.1268
 4762SOL    HW114606   3.445   3.097   4.506 -1.0665 -0.6697  0.4977
 4762SOL    HW214607   3.530   3.175   4.621  0.0845 -1.5228  0.2363
 4763SOL     OW14608   3.536   2.689   0.450  0.3022  0.2086  0.2381
 4763SOL    HW114609   3.593   2.760   0.408 -0.0246 -0.1296 -0.8170
 4763SOL    HW214610   3.564   2.675   0.544  1.3034  0.7499  0.0313
 4764SOL     OW14611   4.596   3.078   0.849 -0.1633  0.1192 -0.7049
 4764SOL    HW114612   4.601   3.151   0.917 -0.8409 -0.8417  0.4168
 4764SOL    HW214613   4.678   3.021   0.856 -0.2302  0.0231 -0.6986
 4765SOL     OW14614   0.357   2.170   0.025  0.8380 -0.0294 -0.3952
 4765SOL    HW114615   0.338   2.074   0.043 -0.8479 -0.0027 -1.7297
 4765SOL    HW214616   0.428   2.177  -0.046  2.4927 -0.2084  1.1702
 4766SOL     OW14617   4.937   3.095   5.246  0.3050  0.0679  0.0379
 4766SOL    HW114618   4.972   3.111   5.339 -0.7108 -1.2083  0.6719
 4766SOL    HW214619   4.996   3.030   5.199 -0.2976 -0.8716  0.5464
 4767SOL     OW14620   4.313   2.852   0.871 -0.3688 -0.0379  0.1383
 4767SOL    HW114621   4.363   2.810   0.795 -1.7891  0.4189 -1.0787
 4767SOL    HW214622   4.343   2.810   0.957 -0.7190 -2.5614 -0.8973
 4768SOL     OW14623   3.963   2.036   5.392 -0.2080 -0.5873 -0.0010
 4768SOL    HW114624   4.024   2.071   5.463  1.2515 -1.2999 -0.8407
 4768SOL    HW214625   3.892   1.980   5.433  0.5193 -0.8638  0.9032
 4769SOL     OW14626   0.833   2.218   4.575  0.1655  0.1540 -0.2295
 4769SOL    HW114627   0.929   2.193   4.590  0.2660  0.4902 -0.2845
 4769SOL    HW214628   0.811   2.208   4.478 -0.5145 -2.1212  0.1164
 4770SOL     OW14629   4.159   4.220   3.374  0.5073 -0.4858 -0.0451
 4770SOL    HW114630   4.241   4.201   3.427  0.5437  0.8773  0.4386
 4770SOL    HW214631   4.183   4.242   3.280  0.5573 -1.6069 -0.2991
 4771SOL     OW14632   0.032   2.442   1.484 -0.2328  0.0072 -0.1321
 4771SOL    HW114633  -0.039   2.409   1.547  1.6007  0.7778  2.5491
 4771SOL    HW214634   0.044   2.540   1.496  0.7786  0.0206 -1.0785
 4772SOL     OW14635   2.415   3.168   5.169  0.3102  0.4688  0.5418
 4772SOL    HW114636   2.387   3.152   5.074  3.3782 -0.7167 -0.2875
 4772SOL    HW214637   2.409   3.083   5.221  0.7032  0.5952  0.7997
 4773SOL     OW14638   4.043   2.342   0.088 -0.5968 -0.7097  0.1206
 4773SOL    HW114639   4.075   2.359   0.181  0.4547 -0.0070 -0.3457
 4773SOL    HW214640   4.105   2.386   0.023 -1.5869 -0.7721 -0.8982
 4774SOL     OW14641   5.074   0.021   0.032 -0.2815 -0.0256 -0.1876
 4774SOL    HW114642   5.153   0.064   0.075 -2.0999  2.3849  1.0089
 4774SOL    HW214643   5.071   0.047  -0.065  1.0517 -1.2548 -0.5956
 4775SOL     OW14644   3.890   1.924   3.738  0.3404  0.4748 -0.2561
 4775SOL    HW114645   3.954   2.002   3.740 -0.6371  1.3415 -1.4010
 4775SOL    HW214646   3.803   1.952   3.778  0.4210 -0.4839  0.6218
 4776SOL     OW14647   5.209   0.616   4.590  0.4557  0.3426 -0.2638
 4776SOL    HW114648   5.268   0.635   4.668 -0.1348  0.9831  0.0381
 4776SOL    HW214649   5.137   0.552   4.617 -0.2993  1.2718 -0.0111
 4777SOL     OW14650   3.475   2.338   3.946 -0.2227 -0.1606  0.3226
 4777SOL    HW114651   3.411   2.284   4.001  0.7868 -1.8795 -0.1079
 4777SOL    HW214652   3.478   2.300   3.853 -0.1009  1.1971 -0.2517
 4778SOL     OW14653   0.662   2.398   3.821 -0.0972  0.9191  0.2469
 4778SOL    HW114654   0.724   2.476   3.825 -0.0962  0.8886  0.8535
 4778SOL    HW214655   0.682   2.336   3.896 -1.2650  1.2117  0.8153
 4779SOL     OW14656   4.795   2.276   4.317 -0.3867  0.3040 -0.2295
 4779SOL    HW114657   4.784   2.232   4.227  0.4528 -0.7997  0.1813
 4779SOL    HW214658   4.867   2.345   4.311 -1.2503  1.2033 -0.7107
 4780SOL     OW14659   5.023   2.969   2.374 -0.1652  0.2242 -0.0372
 4780SOL    HW114660   5.108   2.919   2.355 -0.6126 -0.0881 -1.2340
 4780SOL    HW214661   5.019   3.051   2.317 -0.3597  0.6055  0.5130
 4781SOL     OW14662   1.066   3.223   3.863  0.7021  0.1441 -0.2882
 4781SOL    HW114663   1.093   3.210   3.959 -0.3628 -0.1898 -0.0242
 4781SOL    HW214664   0.975   3.184   3.848  0.3860  1.1848 -1.1736
 4782SOL     OW14665   5.105   2.672   0.196  0.4779 -0.5588 -0.0337
 4782SOL    HW114666   5.041   2.697   0.122  0.5900  0.3713  0.1685
 4782SOL    HW214667   5.059   2.612   0.261 -0.1131 -0.1214 -0.0382
 4783SOL     OW14668   5.142   3.554   3.333  0.2074 -0.0251  0.2188
 4783SOL    HW114669   5.077   3.513   3.397 -0.9608  0.1633 -0.8249
 4783SOL    HW214670   5.184   3.635   3.376  1.3559 -1.3407  1.6872
 4784SOL     OW14671   3.273   3.383   4.544  0.0858  0.1861  0.4094
 4784SOL    HW114672   3.292   3.428   4.631 -1.4331  1.0319  0.3275
 4784SOL    HW214673   3.328   3.299   4.537 -0.3573 -0.3319  2.5244
 4785SOL     OW14674   5.413   2.182   4.436  0.1039 -0.2919  0.4892
 4785SOL    HW114675   5.506   2.148   4.450  0.4355  0.5455  0.3630
 4785SOL    HW214676   5.363   2.118   4.378  0.2394 -1.3233  1.4718
 4786SOL     OW14677   0.442   3.059   5.161  0.3984  0.9455  0.2762
 4786SOL    HW114678   0.515   2.993   5.179 -0.2274  0.0261 -0.4635
 4786SOL    HW214679   0.449   3.091   5.067 -0.8369 -0.0552 -0.1759
 4787SOL     OW14680   4.690   3.150   5.127 -0.9278 -0.0879  0.9190
 4787SOL    HW114681   4.642   3.069   5.092 -0.0414 -0.5786  0.8210
 4787SOL    HW214682   4.769   3.121   5.181  0.1960  0.7132 -0.2444
 4788SOL     OW14683   0.233   0.129   5.254  0.2901 -0.9497 -0.2826
 4788SOL    HW114684   0.215   0.058   5.185 -0.0040 -1.5108  0.3571
 4788SOL    HW214685   0.220   0.090   5.345 -0.4364  0.0841  0.0681
 4789SOL     OW14686   3.652   2.290   3.346  0.0532  0.8155  0.4067
 4789SOL    HW114687   3.650   2.303   3.445  0.0706 -0.1162  0.5379
 4789SOL    HW214688   3.691   2.200   3.325 -3.7265 -0.8557 -0.2444
 4790SOL     OW14689   0.438   2.355   0.207  0.3222  0.0466 -0.5759
 4790SOL    HW114690   0.401   2.286   0.144 -0.4057 -0.1064 -0.0003
 4790SOL    HW214691   0.455   2.440   0.157  0.3589 -0.2651 -1.1047
 4791SOL     OW14692   0.627   0.161   5.197  0.2720 -0.2537 -0.0112
 4791SOL    HW114693   0.602   0.065   5.196 -1.4321  0.1147 -2.3306
 4791SOL    HW214694   0.726   0.170   5.183  0.3335 -1.6718 -0.6687
 4792SOL     OW14695   4.833   2.994   3.089  0.2696  0.3275 -0.0499
 4792SOL    HW114696   4.760   2.957   3.148 -1.4614  2.9260 -0.4316
 4792SOL    HW214697   4.848   3.090   3.111  3.0264  0.1196 -0.6416
 4793SOL     OW14698   5.348   3.487   0.504  0.7136  0.2075  0.3964
 4793SOL    HW114699   5.278   3.474   0.574  2.0782  0.7036  1.9406
 4793SOL    HW214700   5.390   3.399   0.481  0.9412  0.1548  0.9825
 4794SOL     OW14701   0.256   1.788   5.053 -0.4741  0.3821 -0.0731
 4794SOL    HW114702   0.267   1.886   5.071  0.9412  0.5022 -1.3255
 4794SOL    HW214703   0.237   1.775   4.955  1.0276 -0.6657 -0.2543
 4795SOL     OW14704   0.203   2.145   0.577 -0.0622  0.0969  0.0265
 4795SOL    HW114705   0.132   2.076   0.562 -0.9766  1.1868 -0.7976
 4795SOL    HW214706   0.246   2.129   0.666 -0.7620 -1.0734  0.1825
 4796SOL     OW14707   3.916   2.694   5.478  0.5715 -0.3762 -0.2524
 4796SOL    HW114708   3.991   2.743   5.523  1.3844 -1.2617 -0.6154
 4796SOL    HW214709   3.901   2.732   5.387  0.1379  0.2271  0.0654
 4797SOL     OW14710   4.178   3.530   5.439  0.1037 -0.2396 -0.1057
 4797SOL    HW114711   4.269   3.571   5.444  0.6859 -1.3000 -1.5467
 4797SOL    HW214712   4.140   3.523   5.532  2.1427 -1.2493  0.7248
 4798SOL     OW14713   4.419   3.050   4.309  0.1233 -0.2175  0.2228
 4798SOL    HW114714   4.411   2.993   4.391 -0.8564 -0.5381 -0.0953
 4798SOL    HW214715   4.329   3.085   4.283  0.7108  1.7424  0.5835
 4799SOL     OW14716   4.806   1.554   4.400  0.2120  0.4386  0.3596
 4799SOL    HW114717   4.714   1.531   4.369  0.4823  1.1754 -1.0616
 4799SOL    HW214718   4.873   1.511   4.339  0.8587 -0.7312  1.8246
 4800SOL     OW14719   4.212   1.355   4.081  0.2969 -0.4295  0.5230
 4800SOL    HW114720   4.139   1.415   4.114  1.1020  0.2538  1.1318
 4800SOL    HW214721   4.181   1.305   4.001 -0.7303  0.0834  0.5864
 4801SOL     OW14722   2.177   3.270   5.023  0.0806 -0.2903  0.1312
 4801SOL    HW114723   2.191   3.269   5.122 -0.5116 -1.6164  0.2290
 4801SOL    HW214724   2.105   3.335   5.000 -2.6626 -2.7822  1.0706
 4802SOL     OW14725   1.397   3.430   1.919  0.3079 -0.0670  0.4376
 4802SOL    HW114726   1.436   3.521   1.910 -1.6508  0.6475 -1.9348
 4802SOL    HW214727   1.336   3.427   1.999 -0.3604  1.0210 -0.0160
 4803SOL     OW14728   2.966   1.006   0.469 -0.2882  0.3254 -0.2885
 4803SOL    HW114729   3.021   1.030   0.389  1.3742  0.1078  0.7412
 4803SOL    HW214730   2.957   1.086   0.529  0.7020 -0.1512  0.5400
 4804SOL     OW14731   0.119   1.387   4.349  0.3664  0.1115 -0.5874
 4804SOL    HW114732   0.175   1.410   4.270  0.4833 -0.0694 -0.5561
 4804SOL    HW214733   0.140   1.294   4.380  0.9821  0.5129  0.2270
 4805SOL     OW14734   5.155   1.806   4.202  0.7106  0.0010  0.5581
 4805SOL    HW114735   5.144   1.720   4.252  1.6715  0.6237  1.8877
 4805SOL    HW214736   5.201   1.788   4.115 -0.1665 -0.9822  0.2828
 4806SOL     OW14737   3.996   1.590   5.357  0.0862  0.6205 -0.5515
 4806SOL    HW114738   4.000   1.538   5.442  0.9914  1.8630  0.1933
 4806SOL    HW214739   4.013   1.529   5.279 -1.0331 -0.5778  0.1216
 4807SOL     OW14740   2.224   3.302   5.315  0.1736  0.2252  0.4681
 4807SOL    HW114741   2.236   3.297   5.414 -1.5922 -1.1308  0.6907
 4807SOL    HW214742   2.305   3.265   5.269 -0.0710 -1.8052  1.5332
 4808SOL     OW14743   0.351   2.214   1.821  0.6538  0.7449  0.5516
 4808SOL    HW114744   0.372   2.226   1.724  1.1929  1.5449  0.7514
 4808SOL    HW214745   0.371   2.300   1.870  0.6840  0.2555  1.4178
 4809SOL     OW14746  -0.016   3.084   2.005  0.0079 -0.1827 -0.2872
 4809SOL    HW114747  -0.020   3.176   2.043 -1.8449 -0.7681  1.0697
 4809SOL    HW214748   0.043   3.026   2.061 -0.0562 -0.2060 -0.2436
 4810SOL     OW14749   5.114   2.696   2.572  0.6768  0.1491  0.0052
 4810SOL    HW114750   5.152   2.613   2.613 -0.7038  1.2713  3.9413
 4810SOL    HW214751   5.017   2.683   2.553  0.4597  0.8062  0.6096
 4811SOL     OW14752   0.047   2.398   0.851  0.0898 -0.2764  0.3103
 4811SOL    HW114753   0.041   2.476   0.913 -1.8714  0.6707 -0.9729
 4811SOL    HW214754  -0.044   2.374   0.819  1.0267 -0.1979 -2.7954
 4812SOL     OW14755   3.489   0.341  -0.005  0.1747  0.0606  0.1609
 4812SOL    HW114756   3.457   0.247  -0.020  2.8185 -0.6012 -2.2927
 4812SOL    HW214757   3.575   0.339   0.045 -0.4026  1.3457  1.2862
 4813SOL     OW14758   5.505   2.991   3.195 -0.2092  0.5074 -0.0003
 4813SOL    HW114759   5.558   2.995   3.280 -1.5554 -0.5841  0.9320
 4813SOL    HW214760   5.445   3.071   3.189 -1.3795 -0.2655  0.9760
 4814SOL     OW14761   4.358   1.049   0.089  0.0227 -0.2330 -0.7569
 4814SOL    HW114762   4.284   1.015   0.030 -0.4216  0.1378 -0.4198
 4814SOL    HW214763   4.319   1.086   0.174  0.7274 -1.9850  0.3872
 4815SOL     OW14764   0.180   4.674   5.251 -0.2831 -0.1075 -0.0392
 4815SOL    HW114765   0.227   4.762   5.265 -2.9045  1.7583 -1.9066
 4815SOL    HW214766   0.205   4.636   5.162 -1.2302  0.2438 -0.4747
 4816SOL     OW14767   4.516   0.725   4.331  0.3471  0.2943 -0.1050
 4816SOL    HW114768   4.578   0.777   4.388 -0.0672  0.7683 -0.0827
 4816SOL    HW214769   4.538   0.627   4.338 -0.0510  0.2852  1.3053
 4817SOL     OW14770   0.688   2.026   4.969  0.4627  0.8335  0.3791
 4817SOL    HW114771   0.609   2.058   4.917  0.6419  0.5848 -0.0474
 4817SOL    HW214772   0.745   2.104   4.995 -0.4607  1.1472  1.6034
 4818SOL     OW14773   4.794   3.390   4.780 -0.7120  0.0349  0.3070
 4818SOL    HW114774   4.807   3.444   4.864 -0.9358 -0.2398  0.5171
 4818SOL    HW214775   4.752   3.302   4.803 -1.4404  0.2521 -0.1828
 4819SOL     OW14776   5.462   3.453   5.095  0.3909  0.6010  0.0669
 4819SOL    HW114777   5.473   3.551   5.077  0.1716  0.8508  1.2540
 4819SOL    HW214778   5.426   3.439   5.187 -1.6444 -0.5259 -0.8375
 4820SOL     OW14779   3.908   1.805   4.046  0.7525  0.2315  0.6441
 4820SOL    HW114780   3.909   1.714   4.085 -0.1702 -0.8875 -1.7071
 4820SOL    HW214781   3.992   1.821   3.995  1.3153  1.0853  1.8144
 4821SOL     OW14782   0.537   1.182   4.924  0.3360  0.3170 -0.0338
 4821SOL    HW114783   0.623   1.178   4.975  0.1180 -0.4411  0.2860
 4821SOL    HW214784   0.510   1.278   4.913  0.6445  0.5192  0.8370
 4822SOL     OW14785   0.549   2.126   4.246  0.1523 -0.2617  0.3506
 4822SOL    HW114786   0.617   2.107   4.175 -0.7325 -0.3558 -0.4849
 4822SOL    HW214787   0.567   2.215   4.287  0.8712 -0.3577  0.2546
 4823SOL     OW14788   0.048   1.560   1.132 -0.2963 -0.3562  0.3372
 4823SOL    HW114789   0.038   1.587   1.227  1.4872 -0.2176  0.5209
 4823SOL    HW214790   0.003   1.627   1.073  0.6836  0.8912  0.9756
 4824SOL     OW14791   0.059   3.561   3.488  0.2268  0.3372 -0.2899
 4824SOL    HW114792   0.099   3.646   3.521 -0.9987  2.1907 -3.2377
 4824SOL    HW214793   0.115   3.525   3.414 -0.7890  0.1655 -0.9938
 4825SOL     OW14794   3.856   2.181   5.151  0.2382  0.9358  0.2372
 4825SOL    HW114795   3.763   2.212   5.171 -0.5291 -0.9168 -0.3129
 4825SOL    HW214796   3.898   2.145   5.235 -0.9596 -1.7125 -0.2255
 4826SOL     OW14797   0.804   3.081   3.903  0.0552 -0.0577  0.3102
 4826SOL    HW114798   0.722   3.037   3.939 -0.0725 -0.8171 -0.8649
 4826SOL    HW214799   0.801   3.082   3.803  2.7340 -2.7432  0.0529
 4827SOL     OW14800   5.521   3.264   0.187  0.1476 -0.0367 -0.0810
 4827SOL    HW114801   5.605   3.214   0.166  0.2726  1.0440 -2.4180
 4827SOL    HW214802   5.449   3.235   0.124  0.2001  2.5878 -1.4766
 4828SOL     OW14803   4.760   2.848   4.284  0.2990 -0.6970 -0.0788
 4828SOL    HW114804   4.796   2.937   4.311  0.5951 -0.5616 -0.8674
 4828SOL    HW214805   4.753   2.788   4.364  2.0941 -0.6623  0.1465
 4829SOL     OW14806   5.170   2.781   4.416 -0.0458  0.0393  0.2113
 4829SOL    HW114807   5.110   2.857   4.442  1.2867  1.0461  0.4415
 4829SOL    HW214808   5.143   2.746   4.326 -1.0433  0.3693  0.3655
 4830SOL     OW14809   5.260   1.220   5.024  0.1360  0.5001 -0.2047
 4830SOL    HW114810   5.245   1.291   4.956  0.8232  0.9292  0.0872
 4830SOL    HW214811   5.177   1.211   5.081 -1.4601 -1.6235 -2.6375
 4831SOL     OW14812   0.239   2.402   3.244  0.2247  0.1166  0.0429
 4831SOL    HW114813   0.293   2.421   3.325  0.7143 -0.0252 -0.2458
 4831SOL    HW214814   0.283   2.330   3.190 -1.3567 -1.5330  0.8803
 4832SOL     OW14815   4.632   2.119   0.918  0.2378  0.3040 -0.5042
 4832SOL    HW114816   4.617   2.204   0.867 -1.2997  0.3301 -0.0705
 4832SOL    HW214817   4.668   2.049   0.857 -1.4578  0.3662 -1.6371
 4833SOL     OW14818   0.929   1.877   4.097  0.5397 -0.0589  0.2509
 4833SOL    HW114819   0.985   1.941   4.150  0.0297 -1.3261  2.4370
 4833SOL    HW214820   0.852   1.846   4.152 -0.2242 -1.2229 -1.3818
 4834SOL     OW14821   3.769   1.795   4.489  0.0058  0.4888 -0.1990
 4834SOL    HW114822   3.798   1.890   4.477  2.8370 -0.2168  0.4791
 4834SOL    HW214823   3.837   1.745   4.542 -1.6743 -1.8299 -0.0622
 4835SOL     OW14824   0.522   2.829   4.767  0.1810  0.2530 -0.2965
 4835SOL    HW114825   0.560   2.847   4.676  0.3329  1.8531  0.0455
 4835SOL    HW214826   0.423   2.844   4.766 -0.0207 -1.0331 -0.4983
 4836SOL     OW14827   0.207   2.528   3.673 -0.0741 -0.2641 -0.7807
 4836SOL    HW114828   0.145   2.457   3.640 -1.9439 -0.0890  1.9735
 4836SOL    HW214829   0.154   2.599   3.721  2.1194  0.7966  0.2099
 4837SOL     OW14830   2.958   4.290   5.043 -0.0527  0.0055  0.0303
 4837SOL    HW114831   2.979   4.335   4.956 -0.4957 -3.0759 -1.8102
 4837SOL    HW214832   2.964   4.357   5.117 -0.1977  2.9019 -2.3779
 4838SOL     OW14833   4.560   3.278   4.371 -0.3793  0.4063  0.2592
 4838SOL    HW114834   4.488   3.341   4.400 -0.8790 -1.3471  3.3037
 4838SOL    HW214835   4.522   3.187   4.357  1.1016 -0.5177  1.7226
 4839SOL     OW14836   3.482   2.973   4.387  0.6952 -0.2761  0.4045
 4839SOL    HW114837   3.386   2.949   4.369 -0.3710  2.7598  1.3063
 4839SOL    HW214838   3.528   2.992   4.300  0.8176 -2.6682 -0.1086
 4840SOL     OW14839   2.901   3.767   4.470 -0.7118 -0.7246  0.1824
 4840SOL    HW114840   2.994   3.734   4.485 -0.6343 -0.2224  0.8299
 4840SOL    HW214841   2.836   3.698   4.501 -0.5490 -0.4570  1.1366
 4841SOL     OW14842   0.762   2.674   5.414  0.1222  0.4539  0.0782
 4841SOL    HW114843   0.797   2.712   5.499  0.6575  0.8119 -0.2923
 4841SOL    HW214844   0.838   2.660   5.350 -0.3248  0.6451 -0.5096
 4842SOL     OW14845   0.977   2.652   4.389 -0.3064  0.0291  0.2312
 4842SOL    HW114846   1.062   2.703   4.377 -0.0291 -0.6650 -0.8117
 4842SOL    HW214847   0.986   2.589   4.466 -0.6571  1.5082  1.5549
 4843SOL     OW14848   0.144   2.505   3.978 -0.0251 -0.2637  0.1005
 4843SOL    HW114849   0.159   2.588   4.031 -0.4023 -0.3688  0.3829
 4843SOL    HW214850   0.110   2.433   4.038 -0.2284 -0.4590 -0.2421
 4844SOL     OW14851   3.355   4.587   5.456  0.0042  0.2414 -0.7651
 4844SOL    HW114852   3.452   4.579   5.431  0.0660 -0.8817 -0.2528
 4844SOL    HW214853   3.299   4.540   5.389 -0.2061  0.9501 -1.0973
 4845SOL     OW14854   1.639   3.581   3.500  0.5546 -0.2720 -0.4396
 4845SOL    HW114855   1.592   3.510   3.553 -0.2988  1.3346  1.0469
 4845SOL    HW214856   1.720   3.541   3.456 -0.1424 -2.2507 -0.0305
 4846SOL     OW14857   0.605   3.028   1.118 -0.1626  0.0935  0.1293
 4846SOL    HW114858   0.515   3.069   1.103 -0.2290  0.4244  1.2903
 4846SOL    HW214859   0.674   3.099   1.121 -0.1261  0.0305  1.0763
 4847SOL     OW14860   3.930   1.924   3.110  0.6476 -0.4847 -0.2373
 4847SOL    HW114861   3.999   1.857   3.139  0.3402 -1.4114 -1.5377
 4847SOL    HW214862   3.844   1.877   3.093 -0.7107  0.7834  2.3862
 4848SOL     OW14863   0.573   1.397   4.327  0.0427  0.4907 -0.7592
 4848SOL    HW114864   0.557   1.304   4.293 -2.4398  1.2170 -1.8589
 4848SOL    HW214865   0.525   1.409   4.414 -0.8128  1.0788 -1.2868
 4849SOL     OW14866   0.256   3.915   5.100 -0.4934 -0.2963  0.2064
 4849SOL    HW114867   0.354   3.898   5.099 -0.3464  0.3263  1.5821
 4849SOL    HW214868   0.236   3.996   5.045 -0.0783  0.2141  0.7843
 4850SOL     OW14869   4.701   3.241   0.606 -0.3619  0.6794 -0.2931
 4850SOL    HW114870   4.684   3.170   0.674 -0.8569  1.5813  0.5489
 4850SOL    HW214871   4.780   3.215   0.550  0.3854  0.1591  0.9631
 4851SOL     OW14872   0.242   5.098   4.124 -0.3710 -0.4962  0.3260
 4851SOL    HW114873   0.154   5.068   4.087 -0.0190  0.2291 -1.1691
 4851SOL    HW214874   0.309   5.024   4.118 -0.1224 -0.1754 -1.2167
 4852SOL     OW14875   3.225   2.754   1.513  0.2000 -0.1482  0.5773
 4852SOL    HW114876   3.139   2.753   1.564 -0.0667  0.2770  0.1388
 4852SOL    HW214877   3.296   2.707   1.566 -0.1487  0.0394  1.2178
 4853SOL     OW14878   3.296   2.848   0.430 -0.0971  0.0813 -0.2176
 4853SOL    HW114879   3.385   2.807   0.449  0.5975  1.9879  0.9463
 4853SOL    HW214880   3.293   2.880   0.335  0.6506  0.3915 -0.1457
 4854SOL     OW14881   5.066   3.104   3.832 -0.1939  0.0376 -0.5680
 4854SOL    HW114882   5.164   3.123   3.824 -0.0348 -0.9993 -1.1977
 4854SOL    HW214883   5.016   3.191   3.829  0.7549  0.7054  1.1266
 4855SOL     OW14884   4.657   1.657   4.054  0.0562  0.0925  0.0471
 4855SOL    HW114885   4.591   1.724   4.022 -1.5977 -2.5810 -2.6951
 4855SOL    HW214886   4.610   1.588   4.110  1.1802 -0.1657  0.7041
 4856SOL     OW14887   5.283   3.159   1.016 -0.2241 -0.7687  0.4315
 4856SOL    HW114888   5.190   3.150   1.053  0.3399  0.1872  2.2080
 4856SOL    HW214889   5.346   3.180   1.090  0.8399  2.3794 -1.1815
 4857SOL     OW14890   0.380   2.133   4.596 -0.2529 -0.2269  0.0414
 4857SOL    HW114891   0.302   2.104   4.651 -0.8188  1.1921  0.0227
 4857SOL    HW214892   0.410   2.057   4.538 -0.5511 -1.2918  1.2474
 4858SOL     OW14893   4.318   2.894   5.411  0.1256  0.6328  0.7554
 4858SOL    HW114894   4.272   2.861   5.329 -2.0474  1.5940  1.5158
 4858SOL    HW214895   4.332   2.818   5.475  3.2191 -0.4412 -1.0127
 4859SOL     OW14896   3.080   4.222   3.603 -0.0103 -0.3748 -0.0447
 4859SOL    HW114897   2.983   4.239   3.616  0.0651 -0.0600  0.1308
 4859SOL    HW214898   3.099   4.124   3.612 -0.2897 -0.4219  0.0421
 4860SOL     OW14899   0.243   1.522   4.104 -0.5680 -0.4566 -0.3075
 4860SOL    HW114900   0.237   1.617   4.073  1.1643 -0.0504  0.4711
 4860SOL    HW214901   0.325   1.480   4.065  0.2113 -0.7418  1.5504
 4861SOL     OW14902   5.052   3.598   4.324 -0.0920  0.4771  0.3247
 4861SOL    HW114903   5.076   3.593   4.421  0.4225 -0.3875  0.1586
 4861SOL    HW214904   4.962   3.640   4.315 -0.3768  0.0983  1.2176
 4862SOL     OW14905   5.096   4.649   0.041  0.2591 -0.1342  0.0944
 4862SOL    HW114906   5.142   4.591  -0.026  1.2042  1.8025 -1.0076
 4862SOL    HW214907   5.005   4.674   0.007  0.4557  0.2648 -0.1420
 4863SOL     OW14908   0.985   2.145   0.260 -0.4215 -0.4960 -0.0641
 4863SOL    HW114909   0.949   2.152   0.353  0.3650 -1.7482  0.3623
 4863SOL    HW214910   0.999   2.237   0.223 -0.6726  0.0253  1.0832
 4864SOL     OW14911   3.086   4.817   5.398 -0.3149  0.5432 -0.1918
 4864SOL    HW114912   3.145   4.865   5.462 -0.0965 -0.7763  0.6258
 4864SOL    HW214913   3.024   4.756   5.448 -1.1251  0.5410 -1.1478
 4865SOL     OW14914   4.875   5.120   1.100 -1.1884  0.2614  0.6260
 4865SOL    HW114915   4.889   5.213   1.067  2.1659 -0.4502 -0.3038
 4865SOL    HW214916   4.906   5.113   1.195 -2.7916  0.3553  1.1899
 4866SOL     OW14917   0.222   2.470   5.165  0.3430 -0.2015 -0.0504
 4866SOL    HW114918   0.249   2.566   5.160 -0.7534  0.0697 -1.3029
 4866SOL    HW214919   0.202   2.447   5.261  0.0028  1.0116  0.1941
 4867SOL     OW14920   0.896   5.124   4.214 -0.0509  0.5232 -0.5233
 4867SOL    HW114921   0.874   5.040   4.165  1.5377 -0.8137  0.9158
 4867SOL    HW214922   0.953   5.182   4.155  0.3629 -0.2377 -0.8906
 4868SOL     OW14923   4.171   1.802   5.336 -0.2437 -0.0139 -0.5118
 4868SOL    HW114924   4.119   1.719   5.355 -1.7010  0.9921  0.0649
 4868SOL    HW214925   4.109   1.878   5.318  1.0540  0.8969 -1.3603
 4869SOL     OW14926   3.089   2.171   1.030 -0.2857  0.0625 -0.0495
 4869SOL    HW114927   3.019   2.164   0.958 -1.4434 -1.3566  1.1674
 4869SOL    HW214928   3.118   2.080   1.058 -0.0210  0.5784  1.4438
 4870SOL     OW14929   0.482   2.902   5.535 -0.0679  0.2664  0.0858
 4870SOL    HW114930   0.451   2.988   5.574  2.6650  0.1916  2.7990
 4870SOL    HW214931   0.562   2.918   5.477  0.4080 -0.4188  0.5380
 4871SOL     OW14932   1.086   1.435   4.259  0.3124  0.4896  0.0409
 4871SOL    HW114933   1.149   1.511   4.248  0.7145  0.1952  0.2969
 4871SOL    HW214934   0.992   1.468   4.251  0.5057  0.8594 -0.7401
 4872SOL     OW14935   2.990   1.362   3.890 -0.0552  0.6572 -0.5947
 4872SOL    HW114936   3.072   1.312   3.914  0.4896  3.0732  3.5604
 4872SOL    HW214937   2.915   1.336   3.951  0.1872  4.3964  1.5979
 4873SOL     OW14938   3.535   4.078   4.806 -0.2307 -0.4219  0.4251
 4873SOL    HW114939   3.528   4.162   4.752 -0.3013 -0.3500  0.5460
 4873SOL    HW214940   3.478   4.007   4.764 -0.5149 -0.2803  0.5675
 4874SOL     OW14941   1.190   1.705   4.304  0.0907  0.0897  0.2675
 4874SOL    HW114942   1.142   1.757   4.233 -0.0370 -0.7036 -0.2351
 4874SOL    HW214943   1.184   1.754   4.391 -0.3435  0.7329 -0.1187
 4875SOL     OW14944   5.021   3.876   0.535  0.1759 -0.1520 -0.3722
 4875SOL    HW114945   4.956   3.932   0.586  1.4838  1.0612 -0.0028
 4875SOL    HW214946   4.989   3.866   0.441 -0.6174  0.2812 -0.1593
 4876SOL     OW14947   4.454   3.022   4.052 -0.5646 -0.4451 -0.0637
 4876SOL    HW114948   4.429   3.010   4.148  1.6950 -1.0239  0.5229
 4876SOL    HW214949   4.460   3.120   4.031 -1.6850 -0.3156  0.1971
 4877SOL     OW14950   0.577   2.998   4.060 -0.2008 -0.0998 -0.1718
 4877SOL    HW114951   0.569   2.974   4.156 -0.9677 -0.2581 -0.2649
 4877SOL    HW214952   0.514   2.942   4.006 -0.3075  0.4879 -0.6729
 4878SOL     OW14953   5.136   2.578   0.863  0.1515  0.0178 -0.5459
 4878SOL    HW114954   5.070   2.598   0.790  1.6926  2.3132 -1.4345
 4878SOL    HW214955   5.091   2.526   0.935 -2.5919  1.3230 -1.1819
 4879SOL     OW14956   3.859   3.349   5.355 -0.5767  0.1292  0.1803
 4879SOL    HW114957   3.764   3.320   5.367 -0.7502  0.9942  1.0793
 4879SOL    HW214958   3.915   3.271   5.330 -1.5478 -0.3667 -0.5124
 4880SOL     OW14959   4.499   3.481   4.984  0.1836 -0.4018 -0.5410
 4880SOL    HW114960   4.447   3.504   4.902 -0.0357  1.4438  0.0785
 4880SOL    HW214961   4.595   3.472   4.961 -0.0190 -1.0808 -1.1887
 4881SOL     OW14962   4.846   1.162   5.519 -0.3593 -0.4315 -0.0415
 4881SOL    HW114963   4.857   1.132   5.425  0.0347 -1.3585  0.2941
 4881SOL    HW214964   4.748   1.167   5.542 -0.4542 -0.2151 -0.4844
 4882SOL     OW14965   1.080   1.915   4.510 -0.0066  0.0007  0.0376
 4882SOL    HW114966   1.095   2.007   4.546  1.5850 -0.7161  1.3548
 4882SOL    HW214967   1.023   1.864   4.574 -1.4730  0.2592 -1.0333
 4883SOL     OW14968   0.846   2.178   4.311  0.4158  0.6018  0.7376
 4883SOL    HW114969   0.835   2.250   4.243  0.0911  1.5810  1.7756
 4883SOL    HW214970   0.931   2.128   4.295 -0.0047  0.3395 -0.7830
 4884SOL     OW14971   5.363   3.752   5.147  0.1423  0.2745  0.4761
 4884SOL    HW114972   5.271   3.715   5.132  0.4229 -0.1066 -0.3308
 4884SOL    HW214973   5.369   3.789   5.240 -0.3572 -1.0877  1.0707
 4885SOL     OW14974   3.228   2.234   0.545 -0.2402 -0.2122  0.1736
 4885SOL    HW114975   3.219   2.264   0.640  1.6693 -1.3795  0.7767
 4885SOL    HW214976   3.181   2.299   0.485 -0.9480  0.8874  1.8527
 4886SOL     OW14977   3.878   5.242   0.276  0.1132 -0.0308  0.6447
 4886SOL    HW114978   3.906   5.148   0.253  2.1359  0.4957  0.7049
 4886SOL    HW214979   3.947   5.306   0.242 -0.5641  1.3284  1.7449
 4887SOL     OW14980   4.487   1.809   5.549 -0.2984 -0.6374  0.0804
 4887SOL    HW114981   4.451   1.820   5.457 -0.7552  0.7014  0.4019
 4887SOL    HW214982   4.573   1.758   5.545 -0.2772 -0.5353 -1.0847
 4888SOL     OW14983   4.704   3.444   1.637 -0.3216 -0.2926 -0.7334
 4888SOL    HW114984   4.636   3.512   1.610 -0.5413 -0.3769 -0.3922
 4888SOL    HW214985   4.794   3.474   1.605  0.1067  1.7342  2.0307
 4889SOL     OW14986   3.842   3.700   4.148  0.0082 -0.1414  0.2219
 4889SOL    HW114987   3.893   3.740   4.224  0.5736 -0.9743  0.2942
 4889SOL    HW214988   3.752   3.742   4.143 -0.6519 -1.1211  2.3416
 4890SOL     OW14989   3.972   3.936   3.664 -0.6796 -0.1793 -0.1842
 4890SOL    HW114990   3.963   3.864   3.596  0.7695  0.4673 -1.1041
 4890SOL    HW214991   3.951   3.899   3.755 -1.2423 -1.4038 -0.7891
 4891SOL     OW14992   3.032   2.627   4.738  0.1417 -0.2205  0.2183
 4891SOL    HW114993   3.046   2.563   4.813  1.6267 -0.8146 -0.5241
 4891SOL    HW214994   2.945   2.608   4.693  0.1470 -1.1205  0.5785
 4892SOL     OW14995   1.178   2.843   4.354 -0.0642 -0.0026 -0.3989
 4892SOL    HW114996   1.259   2.828   4.297  0.8282  1.0052  0.5597
 4892SOL    HW214997   1.201   2.904   4.430 -2.1770  1.9000 -1.1615
 4893SOL     OW14998   5.046   3.339   0.939 -0.3565  0.4115 -0.3788
 4893SOL    HW114999   5.044   3.254   0.991 -0.5556  0.1362 -0.8264
 4893SOL    HW215000   4.985   3.406   0.981  1.6712  1.2260  1.4491
 4894SOL     OW15001   4.373   2.284   5.101 -0.0505 -0.5028  0.0143
 4894SOL    HW115002   4.441   2.357   5.101 -0.9689  0.3838 -0.8597
 4894SOL    HW215003   4.414   2.200   5.067  0.4983  0.1368 -0.9480
 4895SOL     OW15004   0.357   3.421   4.562 -0.5622  0.0021 -0.6897
 4895SOL    HW115005   0.338   3.485   4.636  1.1972  0.2517 -0.4093
 4895SOL    HW215006   0.369   3.472   4.477 -0.2888 -0.0614 -0.6901
 4896SOL     OW15007   3.677   1.463   4.013  0.0515  0.5058  0.0229
 4896SOL    HW115008   3.773   1.486   3.998  0.6054 -1.9835 -0.6220
 4896SOL    HW215009   3.659   1.459   4.111  1.4465 -1.9397  0.2512
 4897SOL     OW15010   4.503   2.765   4.753  0.6753 -0.1600 -0.2525
 4897SOL    HW115011   4.467   2.850   4.792 -0.0587 -0.1289 -0.9739
 4897SOL    HW215012   4.474   2.758   4.657  0.9757 -1.0841 -0.2793
 4898SOL     OW15013   3.222   3.501   0.559  0.1415  0.6978 -0.1455
 4898SOL    HW115014   3.164   3.420   0.560  0.0048  0.7957  0.3731
 4898SOL    HW215015   3.314   3.476   0.590 -0.1630  0.9169  1.0034
 4899SOL     OW15016   4.101   2.982   4.966 -0.8344  0.3790  0.1285
 4899SOL    HW115017   4.012   2.955   4.930 -1.5050  0.2650  1.7862
 4899SOL    HW215018   4.095   3.075   5.003 -0.2974  0.3395  0.3302
 4900SOL     OW15019   0.810   2.433  -0.007  0.7016  0.0768 -0.2021
 4900SOL    HW115020   0.761   2.516  -0.034 -0.6056  0.4245  2.7916
 4900SOL    HW215021   0.826   2.434   0.092  1.6060 -2.7641 -0.2171
 4901SOL     OW15022   5.020   3.594   3.729 -0.1246  0.5496  0.1901
 4901SOL    HW115023   5.018   3.557   3.636  0.2025  0.1483  0.3401
 4901SOL    HW215024   5.093   3.662   3.735 -1.8294  2.5550 -0.5689
 4902SOL     OW15025   4.271   1.909   5.049 -0.2130  0.2094  0.0117
 4902SOL    HW115026   4.245   1.817   5.020  0.1867  0.3635 -0.8606
 4902SOL    HW215027   4.343   1.904   5.118  0.4885 -0.1204 -0.7275
 4903SOL     OW15028   4.310   5.041   5.501 -0.3637 -1.0023 -0.0321
 4903SOL    HW115029   4.351   4.956   5.533  0.6179 -0.6057 -0.2186
 4903SOL    HW215030   4.302   5.039   5.402  0.8325 -0.3851 -0.1613
 4904SOL     OW15031   0.572   3.188   4.322  0.2703 -0.2089 -0.6452
 4904SOL    HW115032   0.488   3.139   4.344  0.6506 -0.3021  0.6859
 4904SOL    HW215033   0.564   3.229   4.231 -1.1066 -0.4296 -0.6445
 4905SOL     OW15034   5.262   3.604   0.202 -0.2168 -0.2254 -0.1234
 4905SOL    HW115035   5.321   3.526   0.221 -0.6764 -0.6076 -0.2762
 4905SOL    HW215036   5.311   3.688   0.227  0.6359 -0.4962 -0.8247
 4906SOL     OW15037   5.530   2.805   4.954  0.2003 -0.2965 -0.4988
 4906SOL    HW115038   5.575   2.836   5.039 -0.7668  0.9992 -0.4294
 4906SOL    HW215039   5.442   2.763   4.976  0.7724 -1.6881 -0.7391
 4907SOL     OW15040   3.735   3.174   4.745 -0.1553  0.4716  0.7242
 4907SOL    HW115041   3.691   3.249   4.794 -1.6056  0.1283  0.0043
 4907SOL    HW215042   3.717   3.087   4.791  1.4462  0.5078  1.5069
 4908SOL     OW15043   5.468   3.511   4.628  0.5457 -0.2241 -0.5387
 4908SOL    HW115044   5.422   3.449   4.691  0.2497 -0.7879 -1.2945
 4908SOL    HW215045   5.406   3.586   4.604  0.4400 -0.3442 -0.6417
 4909SOL     OW15046   4.585   2.179   3.995 -0.1732 -0.3809  0.2194
 4909SOL    HW115047   4.678   2.153   4.021 -0.8336 -2.1431  0.9409
 4909SOL    HW215048   4.546   2.111   3.933 -1.4298 -0.3688  0.9518
 4910SOL     OW15049   4.764   3.487   4.517  0.1352  0.2991 -0.0500
 4910SOL    HW115050   4.793   3.460   4.609  1.7400  1.7843 -0.0543
 4910SOL    HW215051   4.689   3.429   4.487  0.9703 -1.6144  1.3505
 4911SOL     OW15052   4.973   2.655   3.833  0.0863 -0.3421  0.4649
 4911SOL    HW115053   4.962   2.572   3.778  1.8491 -0.6584  0.5314
 4911SOL    HW215054   4.923   2.646   3.919 -1.4197 -0.4765 -0.4039
 4912SOL     OW15055   4.580   0.201   4.427 -0.0087 -0.4788 -0.3240
 4912SOL    HW115056   4.561   0.107   4.401 -0.5286 -0.8670  1.3121
 4912SOL    HW215057   4.673   0.208   4.464  0.3622 -0.1476 -1.2997
 4913SOL     OW15058   3.884   3.510   1.346 -0.2512 -0.3358 -0.3892
 4913SOL    HW115059   3.877   3.442   1.273 -2.7657 -0.4435 -0.1211
 4913SOL    HW215060   3.822   3.586   1.327 -0.6196 -0.1450  1.3880
 4914SOL     OW15061   1.914   3.610   4.700 -0.0439 -0.1502 -0.3865
 4914SOL    HW115062   1.885   3.705   4.689 -1.2075 -0.1948  1.7225
 4914SOL    HW215063   2.013   3.606   4.711 -0.1658  1.1161  1.6936
 4915SOL     OW15064   4.193   4.521   4.831 -0.3215  0.0151 -0.7388
 4915SOL    HW115065   4.116   4.578   4.802 -1.9812 -1.9184 -0.2988
 4915SOL    HW215066   4.159   4.435   4.869  2.0885 -1.6957 -2.1777
 4916SOL     OW15067   5.526   1.730   4.080  0.4301 -0.2417  0.2887
 4916SOL    HW115068   5.502   1.725   4.177  0.7253  0.3279  0.4016
 4916SOL    HW215069   5.457   1.784   4.031 -0.2705 -1.3861 -0.0248
 4917SOL     OW15070   4.406   2.223   3.428  0.1026  0.1903  0.2887
 4917SOL    HW115071   4.472   2.204   3.355  0.5196  1.3682  0.3335
 4917SOL    HW215072   4.385   2.320   3.429 -0.2633  0.1159  1.4361
 4918SOL     OW15073   4.117   3.301   3.972 -0.3180 -0.0207  0.3228
 4918SOL    HW115074   4.058   3.223   3.991  2.0568 -1.7525  1.0566
 4918SOL    HW215075   4.191   3.272   3.911 -0.2068  2.0902 -0.6317
 4919SOL     OW15076   0.197   4.745   0.810  0.2029 -0.1062  0.6941
 4919SOL    HW115077   0.155   4.654   0.818  1.2625 -0.9066 -1.8643
 4919SOL    HW215078   0.135   4.805   0.759  0.9279 -0.4830 -0.6879
 4920SOL     OW15079   3.989   3.342   5.018  0.2725 -0.3708 -0.6292
 4920SOL    HW115080   3.940   3.275   5.074 -0.5409  0.9078  0.2213
 4920SOL    HW215081   4.046   3.400   5.076  2.0383 -1.1367 -1.4977
 4921SOL     OW15082   5.134   2.888   4.101  0.2916  0.9515  0.4408
 4921SOL    HW115083   5.140   2.987   4.091 -0.6512  0.7825 -3.3685
 4921SOL    HW215084   5.211   2.845   4.053  1.0144 -0.2385  2.5281
 4922SOL     OW15085   0.570   4.106   0.615 -0.3726 -0.2563 -0.3786
 4922SOL    HW115086   0.523   4.020   0.632 -0.0938 -0.7855 -2.0613
 4922SOL    HW215087   0.510   4.167   0.563 -0.4526  0.4532  0.5203
 4923SOL     OW15088   5.495   3.910   1.078 -0.4005 -0.0554 -0.0707
 4923SOL    HW115089   5.495   3.840   1.006 -1.3608  0.5644 -0.6858
 4923SOL    HW215090   5.525   3.868   1.164 -1.4170 -1.3523 -0.3144
 4924SOL     OW15091   5.059   3.322   0.050  0.0757 -0.3334  0.2370
 4924SOL    HW115092   4.969   3.366   0.052  1.3987  2.6669  0.6067
 4924SOL    HW215093   5.102   3.331   0.140  1.0370 -1.0546 -0.1303
 4925SOL     OW15094   4.543   4.614   3.153 -0.3516  0.0800  0.2572
 4925SOL    HW115095   4.636   4.614   3.114 -0.8200  2.0312 -0.9912
 4925SOL    HW215096   4.477   4.603   3.079 -1.1916  1.2535  0.8224
 4926SOL     OW15097   0.143   3.207   5.051 -0.0055  0.0292 -0.2336
 4926SOL    HW115098   0.186   3.118   5.069  0.2803  0.1631 -0.2496
 4926SOL    HW215099   0.094   3.202   4.964 -0.3555 -0.2438 -0.0235
 4927SOL     OW15100   4.742   2.881   0.993  0.9620  0.4735  0.6727
 4927SOL    HW115101   4.673   2.891   1.065  1.6352  0.3946  1.3407
 4927SOL    HW215102   4.822   2.832   1.029  0.6933 -0.9332 -0.5574
 4928SOL     OW15103   3.071   3.130   3.975 -0.4941  0.1126 -0.0728
 4928SOL    HW115104   3.133   3.054   3.993  1.0437  0.5719 -2.7926
 4928SOL    HW215105   2.993   3.126   4.037  0.8339 -2.1504  1.5748
 4929SOL     OW15106   4.559   0.334   4.690 -0.5581 -0.3538 -0.0842
 4929SOL    HW115107   4.546   0.276   4.609  1.8958 -2.1504  0.7075
 4929SOL    HW215108   4.526   0.286   4.771 -0.5018  0.2970  0.3324
 4930SOL     OW15109   4.452   2.685   1.958 -0.1757  0.0822  0.5167
 4930SOL    HW115110   4.447   2.631   1.874 -0.0135  0.2567  0.3924
 4930SOL    HW215111   4.418   2.631   2.035  0.7009 -0.4868  0.5276
 4931SOL     OW15112   0.564   1.716   1.047  0.6421  0.2639 -0.2170
 4931SOL    HW115113   0.468   1.696   1.030  0.6167  0.2000  0.0024
 4931SOL    HW215114   0.580   1.722   1.145  1.1139 -1.0068 -0.1931
 4932SOL     OW15115   4.121   2.551   4.838  0.1332  0.0847  0.1478
 4932SOL    HW115116   4.215   2.581   4.849 -0.4173  2.0250 -0.0957
 4932SOL    HW215117   4.097   2.489   4.913  0.8521  1.5455  1.6437
 4933SOL     OW15118   4.427   1.803   4.031 -0.0734 -0.3995 -0.4393
 4933SOL    HW115119   4.358   1.736   4.001 -1.3930  0.3672  0.7599
 4933SOL    HW215120   4.396   1.846   4.115  1.7913  0.1697 -0.0121
 4934SOL     OW15121   5.532   2.868   5.269 -0.5622 -0.4806 -0.1181
 4934SOL    HW115122   5.439   2.887   5.299  0.2285  0.1156  2.1973
 4934SOL    HW215123   5.546   2.769   5.267 -0.8434 -0.5585  0.9770
 4935SOL     OW15124   4.394   2.192   4.172 -0.2338  0.0869 -0.2366
 4935SOL    HW115125   4.384   2.291   4.185 -2.0887 -0.0647 -0.2963
 4935SOL    HW215126   4.464   2.175   4.102  0.9767  1.2873  0.6281
 4936SOL     OW15127   4.296   1.714   2.980 -0.0369  0.1346  0.1789
 4936SOL    HW115128   4.233   1.757   3.044  1.3901  1.0757  1.0034
 4936SOL    HW215129   4.313   1.776   2.903  2.1835  1.2496  1.4718
 4937SOL     OW15130   4.416   2.404   0.576 -0.1912  0.1454  0.1389
 4937SOL    HW115131   4.340   2.349   0.543  1.7131 -1.9655 -0.9612
 4937SOL    HW215132   4.432   2.480   0.513 -1.6921  0.9939  0.7112
 4938SOL     OW15133   3.719   5.232   4.398 -0.2624  0.7647 -0.4065
 4938SOL    HW115134   3.663   5.315   4.394 -2.0006 -0.2785  0.7456
 4938SOL    HW215135   3.770   5.230   4.485  0.6222  1.1179 -0.9074
 4939SOL     OW15136   2.382   0.968   4.861 -0.5260  0.2285  0.4106
 4939SOL    HW115137   2.335   1.032   4.800 -0.2849  1.8902  1.8684
 4939SOL    HW215138   2.393   1.010   4.951  1.1012 -1.2700  0.9808
 4940SOL     OW15139   0.355   2.209   3.958  0.5065  0.0832 -0.2770
 4940SOL    HW115140   0.320   2.221   4.051  1.0679  2.8109 -0.3205
 4940SOL    HW215141   0.330   2.118   3.924 -0.8006 -0.5112  2.0505
 4941SOL     OW15142   3.625   1.784   3.950 -0.0318  0.3018 -0.1231
 4941SOL    HW115143   3.717   1.779   3.989  0.5218 -0.0017 -1.3947
 4941SOL    HW215144   3.581   1.694   3.957 -0.5365  0.6154  1.1175
 4942SOL     OW15145   5.122   0.992   4.808  0.2468  0.1546 -0.3260
 4942SOL    HW115146   5.133   1.089   4.786  0.2662 -0.0397 -1.2133
 4942SOL    HW215147   5.103   0.941   4.724 -1.6502 -0.3456  0.3466
 4943SOL     OW15148   5.395   3.163   0.768  0.6810 -0.6946  0.4464
 4943SOL    HW115149   5.426   3.076   0.729 -1.7204 -1.9194  1.0403
 4943SOL    HW215150   5.354   3.145   0.858 -2.3655  0.5639 -0.5738
 4944SOL     OW15151   4.237   1.949   3.347  1.0703 -0.7454  0.0059
 4944SOL    HW115152   4.236   1.976   3.443 -1.2693  0.5629 -0.3225
 4944SOL    HW215153   4.231   2.030   3.289 -0.6203 -1.6420 -1.1528
 4945SOL     OW15154   4.193   2.277   0.487  0.7287 -0.0215  0.3314
 4945SOL    HW115155   4.112   2.294   0.543  1.3040  1.9774  0.6125
 4945SOL    HW215156   4.183   2.324   0.399  1.1702 -0.5733 -0.0196
 4946SOL     OW15157   4.047   3.978   0.531 -0.1622 -0.5160 -0.2299
 4946SOL    HW115158   4.040   3.938   0.439  0.1171 -1.2596  0.0669
 4946SOL    HW215159   4.070   3.907   0.597 -1.8704 -0.2866  0.6818
 4947SOL     OW15160   5.089   2.121   2.441  0.1946  0.1969 -0.3024
 4947SOL    HW115161   5.070   2.207   2.393  2.6958  0.5792 -0.7484
 4947SOL    HW215162   5.118   2.051   2.375  0.1014 -0.3887  0.2658
 4948SOL     OW15163   0.617   3.294   0.576  0.1116  0.0686 -0.5852
 4948SOL    HW115164   0.603   3.263   0.482 -1.8831 -1.5260  0.1357
 4948SOL    HW215165   0.539   3.350   0.605  0.4163  0.0608  0.2877
 4949SOL     OW15166   2.911   3.349   5.572  0.5246  0.7923 -0.0771
 4949SOL    HW115167   2.862   3.428   5.536  1.4759  1.1495 -0.6029
 4949SOL    HW215168   2.883   3.267   5.522  1.0106  1.1114 -0.8830
 4950SOL     OW15169   4.113   2.680   0.449 -0.1052 -0.0568 -0.0756
 4950SOL    HW115170   4.058   2.764   0.451 -2.6414 -1.6004 -1.0116
 4950SOL    HW215171   4.155   2.670   0.358 -0.3569 -0.1357 -0.1836
 4951SOL     OW15172   3.515   3.065   0.876  0.2094 -0.6074  0.0828
 4951SOL    HW115173   3.588   3.129   0.898 -1.4610  1.5903 -0.4665
 4951SOL    HW215174   3.543   3.006   0.801  0.8250  1.3536 -1.2876
 4952SOL     OW15175   0.113   1.792   4.388  0.0872  0.4841  0.0873
 4952SOL    HW115176   0.147   1.797   4.294 -0.2791  0.9288 -0.0285
 4952SOL    HW215177   0.049   1.716   4.397  1.4667 -0.6709  0.4319
 4953SOL     OW15178   3.904   3.772   3.480 -0.5961  0.4292  0.0521
 4953SOL    HW115179   3.826   3.717   3.510 -0.2135  0.3047  0.8675
 4953SOL    HW215180   3.889   3.804   3.387 -1.3149 -0.1536 -0.0426
 4954SOL     OW15181   5.020   2.851   1.057  0.3755 -0.3383 -0.6391
 4954SOL    HW115182   5.086   2.881   0.989 -0.2893 -1.5329 -1.8603
 4954SOL    HW215183   5.066   2.797   1.128  0.7833 -0.8527 -1.2801
 4955SOL     OW15184   0.049   1.939   0.555 -0.1930  0.1668 -0.2205
 4955SOL    HW115185  -0.017   1.985   0.614 -1.1791 -1.7776  0.2842
 4955SOL    HW215186   0.112   1.885   0.612  0.1596 -0.0923 -0.8474
 4956SOL     OW15187   3.619   3.702   4.576  0.4875 -0.4369  0.8358
 4956SOL    HW115188   3.671   3.786   4.560  2.5190 -1.9375 -1.0688
 4956SOL    HW215189   3.564   3.681   4.495 -0.1048 -0.8912  1.3468
 4957SOL     OW15190   4.902   3.381   5.266 -0.2352 -0.3261 -0.0768
 4957SOL    HW115191   4.988   3.417   5.300 -1.1585 -0.5172  2.6601
 4957SOL    HW215192   4.911   3.283   5.248  0.5137 -0.0439 -1.3398
 4958SOL     OW15193   4.747   2.206   0.532 -0.4357  0.1121 -0.1965
 4958SOL    HW115194   4.770   2.128   0.475  1.2186  0.4686 -0.0621
 4958SOL    HW215195   4.817   2.277   0.522 -1.1800  1.0076  0.7325
 4959SOL     OW15196   4.289   2.724   3.641  0.0899 -0.6157 -0.0785
 4959SOL    HW115197   4.230   2.652   3.676  0.5899 -1.1435 -0.3185
 4959SOL    HW215198   4.301   2.795   3.711  2.7051 -2.5959  1.6377
 4960SOL     OW15199   3.315   3.895   4.325 -0.2176  0.0530  1.0519
 4960SOL    HW115200   3.398   3.949   4.312 -0.1448 -0.4194 -0.6489
 4960SOL    HW215201   3.239   3.938   4.278 -0.0861 -1.4210 -0.6281
 4961SOL     OW15202   3.830   1.844   3.440  0.2538  0.0574  0.3298
 4961SOL    HW115203   3.841   1.894   3.526  1.0725 -1.7122  1.2906
 4961SOL    HW215204   3.783   1.757   3.458  1.3178 -0.7825 -0.8455
 4962SOL     OW15205   5.514   2.368   2.877  0.3582 -0.2023  0.1588
 4962SOL    HW115206   5.594   2.418   2.911  1.6819 -1.6390 -0.7394
 4962SOL    HW215207   5.539   2.273   2.859 -1.6239 -0.7430  0.0404
 4963SOL     OW15208   0.475   2.505   5.338  0.3053  0.3098 -0.3852
 4963SOL    HW115209   0.490   2.514   5.239  1.1931 -3.3600 -0.7229
 4963SOL    HW215210   0.477   2.408   5.363 -0.8956  1.0624  3.1319
 4964SOL     OW15211   3.436   3.238   3.725 -0.7331  0.6180  0.3342
 4964SOL    HW115212   3.523   3.282   3.749 -1.0211  1.2576  0.2179
 4964SOL    HW215213   3.452   3.142   3.703 -0.1413  0.5823  0.9079
 4965SOL     OW15214   4.806   4.221   3.376 -0.6932 -0.4089  0.4561
 4965SOL    HW115215   4.793   4.146   3.441 -1.6839 -0.7429 -0.0997
 4965SOL    HW215216   4.860   4.294   3.418  0.2511 -1.4162  1.0128
 4966SOL     OW15217   2.641   3.402   0.155  0.0514  0.2360 -0.2649
 4966SOL    HW115218   2.669   3.465   0.082  3.0580 -0.0064  0.5345
 4966SOL    HW215219   2.599   3.454   0.229  1.6107  1.2462 -0.0300
 4967SOL     OW15220   5.082   0.061   5.303 -0.2997  0.0745  0.1513
 4967SOL    HW115221   5.002   0.043   5.245 -1.1880 -0.6459  1.5500
 4967SOL    HW215222   5.133  -0.024   5.317 -0.5300  0.0752  1.0467
 4968SOL     OW15223   4.278   5.498   3.401 -0.0477  0.0206 -0.2841
 4968SOL    HW115224   4.318   5.563   3.465  1.2524 -0.6280 -0.4138
 4968SOL    HW215225   4.258   5.544   3.314 -0.4742  0.5645  0.0970
 4969SOL     OW15226   2.093   0.302   2.320  0.2587 -0.5364 -0.1648
 4969SOL    HW115227   2.106   0.255   2.407  0.5231 -1.2335 -0.5799
 4969SOL    HW215228   2.127   0.396   2.327  2.3016 -1.2370 -0.1529
 4970SOL     OW15229   0.491   4.215   4.282 -0.8105 -0.3233  0.2422
 4970SOL    HW115230   0.398   4.235   4.249 -0.0380  0.0429 -1.8771
 4970SOL    HW215231   0.501   4.117   4.295 -1.8683 -0.2586  1.7900
 4971SOL     OW15232   5.269   4.051   5.377  0.1463 -0.5517 -0.0352
 4971SOL    HW115233   5.350   4.063   5.434  0.0415  1.1517 -0.2087
 4971SOL    HW215234   5.202   4.122   5.398 -1.0260 -1.5084 -0.3931
 4972SOL     OW15235   0.469   3.512   1.274 -0.0204 -0.4639 -0.4747
 4972SOL    HW115236   0.376   3.535   1.247  0.3271  0.8312 -0.6529
 4972SOL    HW215237   0.485   3.543   1.368 -0.4544 -2.7365  0.4144
 4973SOL     OW15238   2.907   1.777   0.747 -0.0601 -0.0680  1.4959
 4973SOL    HW115239   2.874   1.734   0.831  0.2163 -1.6777  0.8266
 4973SOL    HW215240   2.943   1.706   0.686  0.1158  1.1114  0.1882
 4974SOL     OW15241   5.123   5.202   1.650  0.2929  0.0452  0.1804
 4974SOL    HW115242   5.143   5.191   1.552 -0.2346 -3.8385  0.3581
 4974SOL    HW215243   5.047   5.266   1.661  1.9274  2.5135 -1.6602
 4975SOL     OW15244   4.812   4.372   3.093 -0.3291  0.4618  0.0800
 4975SOL    HW115245   4.784   4.334   3.181 -0.1828 -0.0295 -0.0812
 4975SOL    HW215246   4.816   4.299   3.025  1.6901  0.4077  0.1820
 4976SOL     OW15247   4.655   4.405   1.598  0.4511  0.0908 -0.6844
 4976SOL    HW115248   4.620   4.390   1.690  1.7945 -0.9009 -0.3057
 4976SOL    HW215249   4.735   4.348   1.583  0.8609  0.9875 -2.1236
 4977SOL     OW15250   2.028   1.331   0.408 -0.2130  1.1651  0.5528
 4977SOL    HW115251   2.013   1.412   0.465 -0.4552  0.9571  0.7869
 4977SOL    HW215252   2.088   1.355   0.331 -3.1189  2.5612 -1.4997
 4978SOL     OW15253   0.504   5.294   0.732 -0.1011 -0.5524 -0.2922
 4978SOL    HW115254   0.462   5.374   0.689  0.5516 -0.9022 -1.6174
 4978SOL    HW215255   0.435   5.224   0.747 -0.2897 -0.5192 -0.9931
 4979SOL     OW15256   2.750   3.905   0.502  0.3194 -0.4133  0.0038
 4979SOL    HW115257   2.835   3.855   0.517  0.8337 -0.2756 -2.0850
 4979SOL    HW215258   2.672   3.842   0.508  0.8873 -1.3310 -1.6811
 4980SOL     OW15259   5.448   0.590   1.426 -0.2948  0.0356 -0.5107
 4980SOL    HW115260   5.543   0.622   1.422  0.1074 -0.8902  0.7996
 4980SOL    HW215261   5.399   0.637   1.499 -0.8935  0.5743 -1.2402
 4981SOL     OW15262   3.891   4.295   1.935  0.3307  0.2825  0.6883
 4981SOL    HW115263   3.933   4.205   1.919 -0.1122  0.1069  0.4978
 4981SOL    HW215264   3.840   4.293   2.021  0.5094  0.4216  0.7979
 4982SOL     OW15265   4.555   5.077   0.959  0.1072  0.1521 -0.1559
 4982SOL    HW115266   4.599   5.026   1.033  1.6763  2.2571  0.4350
 4982SOL    HW215267   4.471   5.120   0.993  0.1599  0.1087  0.0279
 4983SOL     OW15268   2.991   5.324   0.289  0.0835 -0.6348  0.1384
 4983SOL    HW115269   2.979   5.227   0.308 -0.9171 -0.8300 -1.3542
 4983SOL    HW215270   2.938   5.349   0.208  0.4390  1.1307  0.4143
 4984SOL     OW15271   4.555   5.281   0.615 -0.7059  0.1142  0.0406
 4984SOL    HW115272   4.622   5.326   0.673  0.1120 -2.6665  1.4299
 4984SOL    HW215273   4.463   5.295   0.653 -0.4930  0.7256  0.3399
 4985SOL     OW15274   5.100   0.883   1.246  0.1631  0.1987  0.3069
 4985SOL    HW115275   5.146   0.972   1.245  1.1697 -0.2810  1.2238
 4985SOL    HW215276   5.001   0.897   1.255  0.4504  1.2379  2.5493
 4986SOL     OW15277   3.471   3.403   0.621  0.0572  0.4658 -0.1322
 4986SOL    HW115278   3.550   3.409   0.560  0.9090  2.2725  1.0537
 4986SOL    HW215279   3.435   3.310   0.621  2.8225 -0.6708  0.0938
 4987SOL     OW15280   0.326   3.899   1.946  0.0528  0.0313 -0.5365
 4987SOL    HW115281   0.286   3.989   1.928  2.5142  1.5326  1.0308
 4987SOL    HW215282   0.400   3.881   1.881  1.5064  0.4994  0.9290
 4988SOL     OW15283   2.440   3.877   3.693  0.0858  0.3381 -0.2677
 4988SOL    HW115284   2.530   3.882   3.737  0.4814 -0.0340 -1.0091
 4988SOL    HW215285   2.420   3.781   3.669 -0.8849  0.2965  0.6389
 4989SOL     OW15286   4.845   4.606   1.005  0.3666 -0.0233  0.3646
 4989SOL    HW115287   4.816   4.591   0.910 -0.1023  1.2802  0.2917
 4989SOL    HW215288   4.765   4.614   1.064  0.6552 -0.7125  0.8680
 4990SOL     OW15289   4.978   0.420   4.609 -0.3217  0.1428  0.3987
 4990SOL    HW115290   5.020   0.352   4.549  0.2956  1.2630 -0.4776
 4990SOL    HW215291   4.914   0.374   4.671 -0.5342 -1.1277 -0.7026
 4991SOL     OW15292   5.036   5.289   5.424 -0.2479  0.3153  0.0023
 4991SOL    HW115293   5.010   5.362   5.488 -1.4765  1.6649 -1.9354
 4991SOL    HW215294   5.007   5.201   5.461 -1.7545  1.1503  0.9299
 4992SOL     OW15295   0.621   5.428   5.192 -0.0949  0.0884  0.1291
 4992SOL    HW115296   0.692   5.439   5.121 -0.4600  2.1318  0.0019
 4992SOL    HW215297   0.664   5.399   5.277  0.8795  1.0025 -0.0244
 4993SOL     OW15298   1.983   3.544   1.133  0.1424 -0.1116  0.7811
 4993SOL    HW115299   1.983   3.508   1.227 -0.9224 -0.0154  0.8277
 4993SOL    HW215300   1.927   3.485   1.075  0.4136  0.0956  0.3017
 4994SOL     OW15301   0.060   4.607   2.113  0.7282 -0.2699  0.2899
 4994SOL    HW115302   0.118   4.577   2.036  1.7160  2.5687 -0.1812
 4994SOL    HW215303   0.098   4.571   2.198  0.7584 -1.8331 -0.3393
 4995SOL     OW15304   3.356   4.387   2.443  0.0814 -0.7623  0.1383
 4995SOL    HW115305   3.431   4.389   2.376  2.0393  3.0557  2.0879
 4995SOL    HW215306   3.388   4.343   2.527 -0.4870 -0.7490  0.3647
 4996SOL     OW15307   3.100   5.040   5.239  0.4966 -0.6151 -0.8525
 4996SOL    HW115308   3.081   4.950   5.278  0.7025 -0.8669 -1.3181
 4996SOL    HW215309   3.070   5.042   5.144  0.0812 -0.0397 -0.7075
 4997SOL     OW15310   4.364   3.421   0.964 -0.2348  0.4995  0.1400
 4997SOL    HW115311   4.447   3.372   0.991  0.6576  1.6580 -0.4316
 4997SOL    HW215312   4.299   3.356   0.924  0.6454 -0.3213 -0.0033
 4998SOL     OW15313   4.456   4.876   0.541  0.2643 -0.0455  0.2108
 4998SOL    HW115314   4.520   4.826   0.482  0.1199 -1.0129  0.8459
 4998SOL    HW215315   4.471   4.849   0.636 -0.8556 -0.0266  0.4030
 4999SOL     OW15316   5.267   4.096   1.139 -0.2998  0.2984 -0.2365
 4999SOL    HW115317   5.285   4.194   1.148 -0.7268  0.2881  1.0851
 4999SOL    HW215318   5.353   4.048   1.123  0.3363  0.6446  1.8249
 5000SOL     OW15319   4.508   3.626   1.575  0.5951 -0.0845  0.1990
 5000SOL    HW115320   4.418   3.626   1.619  0.5268 -0.1246  0.0637
 5000SOL    HW215321   4.561   3.705   1.606  0.5269 -0.0809  0.3073
 5001SOL     OW15322   2.184   5.277   0.158  0.7219 -0.4323  0.3373
 5001SOL    HW115323   2.100   5.229   0.182  0.8571 -1.4031 -1.0102
 5001SOL    HW215324   2.222   5.238   0.074  1.0243  1.8300 -0.6470
 5002SOL     OW15325   0.846   0.772   0.986 -0.3402  0.1291  0.1931
 5002SOL    HW115326   0.834   0.686   0.936 -0.7878 -0.3357  1.0829
 5002SOL    HW215327   0.757   0.815   1.000 -0.1791  0.4337  0.2924
 5003SOL     OW15328   5.173   0.160   0.478 -0.3122  0.2709  0.3929
 5003SOL    HW115329   5.145   0.234   0.417  1.2735 -0.0943 -0.8362
 5003SOL    HW215330   5.236   0.196   0.547  0.5405  0.0821 -0.2679
 5004SOL     OW15331   0.343   0.326   2.124 -0.3620 -0.0855 -0.0057
 5004SOL    HW115332   0.280   0.338   2.047 -0.2418  1.5923  0.1315
 5004SOL    HW215333   0.341   0.230   2.153  1.0889 -1.3040 -3.3571
 5005SOL     OW15334   4.542   3.472   0.742  0.3335  0.0500  0.2341
 5005SOL    HW115335   4.468   3.462   0.810  1.4022  0.7448  1.5533
 5005SOL    HW215336   4.584   3.383   0.726 -1.8558 -0.7113 -1.8633
 5006SOL     OW15337   3.290   4.016   2.458  0.0764 -0.6055 -0.4595
 5006SOL    HW115338   3.274   4.065   2.373 -0.3356 -0.6380 -0.4005
 5006SOL    HW215339   3.253   3.923   2.451  0.6101 -0.8205 -0.4747
 5007SOL     OW15340   0.715   0.420   0.686  0.2420  0.1829  0.1343
 5007SOL    HW115341   0.773   0.338   0.689 -1.0103 -0.7379 -0.0330
 5007SOL    HW215342   0.650   0.412   0.610 -0.7567  0.7276  0.9137
 5008SOL     OW15343   4.331   2.819   2.474  0.2700 -0.4327 -0.3798
 5008SOL    HW115344   4.425   2.847   2.454 -0.3199  2.1933  0.0749
 5008SOL    HW215345   4.267   2.886   2.434 -1.3283 -1.0996  0.9310
 5009SOL     OW15346   0.114   3.743   1.740  0.3744 -0.8749 -0.5629
 5009SOL    HW115347   0.167   3.756   1.824  1.9740 -0.0753 -1.6523
 5009SOL    HW215348   0.082   3.649   1.736 -1.3217 -0.4965  1.7985
 5010SOL     OW15349   5.093   3.941   0.084 -0.2442 -0.2835  0.6239
 5010SOL    HW115350   5.120   4.007   0.014  0.0886 -0.8415  0.2190
 5010SOL    HW215351   5.063   3.856   0.040  1.3711 -1.1730  1.1692
 5011SOL     OW15352   2.776   3.579   5.473  0.3029 -0.0816 -0.2900
 5011SOL    HW115353   2.857   3.635   5.487 -0.1714  0.4953  0.1891
 5011SOL    HW215354   2.694   3.636   5.481 -0.3264 -1.2126  2.6068
 5012SOL     OW15355   3.986   4.978   2.343  0.1018  0.0160  0.5001
 5012SOL    HW115356   4.077   4.984   2.382 -0.2767  1.7092  1.2223
 5012SOL    HW215357   3.930   4.915   2.397  0.8752 -1.2492 -0.1101
 5013SOL     OW15358   5.464   4.934   0.191 -0.2200  0.0109 -0.6690
 5013SOL    HW115359   5.404   5.013   0.179  0.5820  0.6616 -0.5178
 5013SOL    HW215360   5.493   4.900   0.102  0.9452  1.0941 -0.7367
 5014SOL     OW15361   4.622   3.303   2.138  0.8071  0.6190  0.2973
 5014SOL    HW115362   4.709   3.349   2.154  0.7192  0.8027  0.2559
 5014SOL    HW215363   4.585   3.269   2.224  1.2317 -0.0314  0.2308
 5015SOL     OW15364   4.442   3.888   1.407  0.0819 -0.3505 -0.0771
 5015SOL    HW115365   4.391   3.904   1.322 -0.6078  0.8756  0.5367
 5015SOL    HW215366   4.378   3.881   1.483  0.7914  1.6786  0.7778
 5016SOL     OW15367   0.567   0.879   0.550  0.1764 -0.8496 -0.6665
 5016SOL    HW115368   0.657   0.866   0.590  0.4890  0.6094 -0.8488
 5016SOL    HW215369   0.538   0.974   0.561 -0.9888 -1.1028 -1.3191
 5017SOL     OW15370   5.092   0.225   1.651  1.0542  1.0235 -0.1820
 5017SOL    HW115371   5.182   0.268   1.659  0.7546  1.5852  0.2558
 5017SOL    HW215372   5.070   0.208   1.555  1.0628  2.0926 -0.3742
 5018SOL     OW15373   4.119   4.100   0.068  0.0385 -0.5833  0.0733
 5018SOL    HW115374   4.095   4.074  -0.026  0.9997 -3.2916  0.5075
 5018SOL    HW215375   4.050   4.164   0.103 -1.7797 -1.5292 -1.5831
 5019SOL     OW15376   3.046   5.090   4.981  0.4009 -0.0394  0.0098
 5019SOL    HW115377   2.985   5.048   4.914  1.4780  0.1191 -1.0955
 5019SOL    HW215378   3.099   5.163   4.937  2.1220 -0.8390  0.6672
 5020SOL     OW15379   4.555   3.916   1.092  0.4917 -0.8044  0.1897
 5020SOL    HW115380   4.473   3.971   1.109  1.9901  1.7651 -0.3394
 5020SOL    HW215381   4.558   3.839   1.156 -0.5459  1.0794  2.6405
 5021SOL     OW15382   3.869   3.965   1.976  0.5819  0.1694  0.0798
 5021SOL    HW115383   3.801   3.992   1.908  0.8905 -1.1230 -0.7598
 5021SOL    HW215384   3.959   4.001   1.950  0.3832  1.2635  0.8148
 5022SOL     OW15385   4.817   3.596   0.224 -0.4227 -0.0348  0.5239
 5022SOL    HW115386   4.729   3.583   0.179 -0.5534 -1.8544  1.2500
 5022SOL    HW215387   4.817   3.550   0.313  1.9047 -1.7727 -0.2858
 5023SOL     OW15388   5.249   4.663   1.543  0.3951  0.2123 -0.0696
 5023SOL    HW115389   5.188   4.636   1.618  0.8706  0.3398  0.3701
 5023SOL    HW215390   5.302   4.583   1.512 -0.3371 -0.0100 -0.7843
 5024SOL     OW15391   4.924   3.843   0.292  0.2901  0.3072  0.6118
 5024SOL    HW115392   5.011   3.840   0.242 -0.4250 -0.5001 -0.6352
 5024SOL    HW215393   4.868   3.764   0.267 -1.2407  1.3689  0.5588
 5025SOL     OW15394   3.399   5.340   0.482 -0.4296 -1.0917  0.1142
 5025SOL    HW115395   3.478   5.315   0.538  1.2823  1.2945 -1.0409
 5025SOL    HW215396   3.334   5.392   0.537  0.1639 -0.6795  0.4345
 5026SOL     OW15397   0.147   3.731   4.296 -0.7099  0.4314 -0.2217
 5026SOL    HW115398   0.085   3.659   4.328 -0.2287  0.7180  1.4363
 5026SOL    HW215399   0.176   3.787   4.373 -2.0458  3.2241 -1.6039
 5027SOL     OW15400   3.839   1.314   0.848  0.1727 -0.0190  0.9259
 5027SOL    HW115401   3.833   1.406   0.887 -3.2537 -1.0051  3.2155
 5027SOL    HW215402   3.868   1.249   0.919  2.6810 -0.8053 -0.6875
 5028SOL     OW15403   5.020   0.355   0.329  0.1111 -0.1816 -0.0403
 5028SOL    HW115404   4.961   0.274   0.332  1.8368 -1.4802  0.3867
 5028SOL    HW215405   4.970   0.431   0.287 -1.3955 -1.6048 -0.9399
 5029SOL     OW15406   2.945   4.484   5.234 -1.2255  0.0276  0.1925
 5029SOL    HW115407   2.988   4.565   5.194 -1.0609  0.5411  1.3774
 5029SOL    HW215408   2.849   4.504   5.255 -1.5497 -0.5132 -0.6907
 5030SOL     OW15409   0.889   4.720   2.071  0.0453 -0.0666  0.2795
 5030SOL    HW115410   0.832   4.752   1.995 -0.9806  1.2788  1.5397
 5030SOL    HW215411   0.889   4.620   2.073 -0.2890 -0.1165 -1.1936
 5031SOL     OW15412   3.786   3.720   5.103  0.1685  0.5067  0.2735
 5031SOL    HW115413   3.698   3.677   5.127  0.7110  0.4686  2.3518
 5031SOL    HW215414   3.795   3.807   5.150  1.1544  0.6409 -0.1350
 5032SOL     OW15415   4.857   3.441   1.863  0.1794 -0.1803 -0.1451
 5032SOL    HW115416   4.792   3.420   1.790 -1.1889 -1.2275  1.2782
 5032SOL    HW215417   4.859   3.539   1.879 -1.0630 -0.1246 -0.2374
 5033SOL     OW15418   3.631   4.334   1.513  0.3382  0.1428 -0.1771
 5033SOL    HW115419   3.687   4.380   1.583 -0.1862  1.5053 -0.6048
 5033SOL    HW215420   3.662   4.362   1.422 -1.7976  2.0192 -0.4282
 5034SOL     OW15421   4.782   4.629   2.428 -0.5942  0.0006  0.2806
 5034SOL    HW115422   4.736   4.710   2.389 -0.2915  1.0108  1.9292
 5034SOL    HW215423   4.881   4.639   2.417 -0.5821 -0.4004  0.0248
 5035SOL     OW15424   3.669   4.283   2.529 -0.0349  0.6048  0.8199
 5035SOL    HW115425   3.756   4.288   2.577  0.3117  0.8767  0.1736
 5035SOL    HW215426   3.635   4.189   2.531  1.7222 -0.1425 -1.4331
 5036SOL     OW15427   3.534   3.618   5.263 -0.8716  0.0219  0.0623
 5036SOL    HW115428   3.575   3.609   5.354  0.5028  0.6175 -0.4788
 5036SOL    HW215429   3.487   3.533   5.239  0.1420 -0.7294  0.6638
 5037SOL     OW15430   3.552   3.346   1.154  0.2488  0.1029  0.0234
 5037SOL    HW115431   3.565   3.254   1.119  1.1711  0.5159 -0.7495
 5037SOL    HW215432   3.469   3.385   1.114  0.3041 -0.0920 -0.2847
 5038SOL     OW15433   5.365   3.376   4.846  0.8681  0.0972 -0.4037
 5038SOL    HW115434   5.388   3.282   4.824  0.2322 -0.0215 -0.5897
 5038SOL    HW215435   5.381   3.393   4.943  0.6243 -0.3147 -0.2898
 5039SOL     OW15436   4.217   3.202   4.664 -0.0828 -0.0896 -0.2441
 5039SOL    HW115437   4.149   3.257   4.712  0.5673  1.6520 -1.2252
 5039SOL    HW215438   4.306   3.213   4.708  0.0732 -0.2641 -0.5116
 5040SOL     OW15439   3.072   4.816   1.989 -0.0469 -0.2884 -0.6398
 5040SOL    HW115440   3.003   4.743   1.987  1.3567 -1.6741 -0.8409
 5040SOL    HW215441   3.033   4.897   2.033 -1.4477 -1.3931  0.2792
 5041SOL     OW15442   3.130   4.049   1.077 -0.1649  0.2875 -0.6034
 5041SOL    HW115443   3.189   4.054   1.159 -0.3566  0.3182 -0.4666
 5041SOL    HW215444   3.120   4.141   1.038 -0.7272  0.4037 -0.1948
 5042SOL     OW15445   5.515   5.399   4.677 -0.3406 -0.1007 -0.0523
 5042SOL    HW115446   5.573   5.447   4.742  1.0256 -2.5101  0.6378
 5042SOL    HW215447   5.558   5.397   4.587 -0.8182  0.6857 -0.3065
 5043SOL     OW15448   0.270   5.466   0.917  0.2338  0.0080 -0.0458
 5043SOL    HW115449   0.180   5.496   0.886  0.5229  2.3312  1.1807
 5043SOL    HW215450   0.264   5.371   0.950 -1.1024 -0.8518 -2.4941
 5044SOL     OW15451   0.583   5.456   2.169 -0.0948 -0.3370  0.7312
 5044SOL    HW115452   0.613   5.523   2.100 -0.4480  1.2645  2.0732
 5044SOL    HW215453   0.607   5.364   2.138  1.3758  0.4661 -0.7014
 5045SOL     OW15454   4.903   3.170   0.406  0.0642  0.1949  0.5977
 5045SOL    HW115455   4.967   3.107   0.361 -2.1093  0.3358 -3.1263
 5045SOL    HW215456   4.937   3.263   0.400  1.3879 -0.1184  2.4800
 5046SOL     OW15457   2.758   3.884   1.892  0.0984  0.2846  0.2010
 5046SOL    HW115458   2.677   3.825   1.888 -0.2674  0.8342 -0.8237
 5046SOL    HW215459   2.754   3.950   1.817  1.9724 -0.2981 -0.4612
 5047SOL     OW15460   3.017   4.860   1.353  0.5503  0.0495  0.1696
 5047SOL    HW115461   2.947   4.820   1.412 -0.3582  2.9740  1.2172
 5047SOL    HW215462   3.101   4.806   1.360  0.3570 -0.0251  3.8307
 5048SOL     OW15463   5.204   4.510   5.383  0.3971 -0.4667  0.1837
 5048SOL    HW115464   5.299   4.512   5.353  0.7406  0.2844  1.2754
 5048SOL    HW215465   5.144   4.528   5.305  1.0674 -2.1312 -0.7525
 5049SOL     OW15466   4.004   3.403   0.588 -0.8137  0.0601  0.5012
 5049SOL    HW115467   3.983   3.501   0.590 -1.6223 -0.1151  0.9248
 5049SOL    HW215468   4.093   3.389   0.545 -0.5416  1.0060  0.7396
 5050SOL     OW15469   5.427   1.294   0.323  0.2510  0.4919  0.1287
 5050SOL    HW115470   5.440   1.328   0.416 -0.6915  0.1987  0.3751
 5050SOL    HW215471   5.516   1.286   0.278  1.1438 -2.6848  2.1492
 5051SOL     OW15472   3.620   0.022   5.519 -0.3451  0.1149 -0.1826
 5051SOL    HW115473   3.530   0.067   5.519 -0.1223  0.6085 -1.6855
 5051SOL    HW215474   3.615  -0.062   5.573 -1.0313  1.3998  1.8724
 5052SOL     OW15475   4.398   4.252   0.265 -0.0821  0.4155 -0.3469
 5052SOL    HW115476   4.496   4.266   0.279  0.2858 -0.5261 -1.7362
 5052SOL    HW215477   4.358   4.212   0.348  0.6465  1.0443  0.3257
 5053SOL     OW15478   3.182   4.333   0.974  0.0135 -0.1602 -0.0549
 5053SOL    HW115479   3.144   4.307   0.885  0.4214  1.6108 -0.7734
 5053SOL    HW215480   3.282   4.333   0.969  0.0905  2.9477 -0.6131
 5054SOL     OW15481   0.122   4.580   1.141  0.4621  0.5515  0.2221
 5054SOL    HW115482   0.040   4.621   1.103  2.3255  2.3175 -2.2612
 5054SOL    HW215483   0.103   4.486   1.168 -2.4435  1.0663  0.2614
 5055SOL     OW15484   5.360   5.361   5.564  0.6401 -0.3778  0.1920
 5055SOL    HW115485   5.372   5.376   5.466  1.6475  1.4201  0.5414
 5055SOL    HW215486   5.329   5.446   5.607  1.1462 -0.8587  1.5617
 5056SOL     OW15487   4.329   3.369   4.167  0.0417  0.1792  0.4257
 5056SOL    HW115488   4.237   3.358   4.130 -0.3702  0.2408  1.4031
 5056SOL    HW215489   4.325   3.372   4.267  1.1108  0.1375  0.4838
 5057SOL     OW15490   5.087   4.995   0.956  0.3332  0.3777 -0.2504
 5057SOL    HW115491   5.069   4.899   0.933  0.6547 -0.3976  2.4305
 5057SOL    HW215492   5.002   5.039   0.984  0.5502  0.2291  0.6517
 5058SOL     OW15493   2.321   5.291   2.251 -0.3821 -0.2133  0.0189
 5058SOL    HW115494   2.387   5.224   2.284 -1.0408 -1.3674 -0.9175
 5058SOL    HW215495   2.361   5.383   2.258  0.7935 -0.7472  0.7155
 5059SOL     OW15496   3.284   0.267   1.331  0.1635 -0.2159 -0.1216
 5059SOL    HW115497   3.328   0.182   1.302 -0.5250 -0.2515 -1.0740
 5059SOL    HW215498   3.331   0.344   1.288 -0.1864 -0.2070 -0.4901
 5060SOL     OW15499   3.092   5.200   0.791 -0.5233  0.3611 -0.0762
 5060SOL    HW115500   2.997   5.176   0.769 -0.3227 -0.7412  0.1665
 5060SOL    HW215501   3.103   5.204   0.890  0.2221 -2.0569  0.0036
 5061SOL     OW15502   5.481   5.467   1.677 -0.1195 -0.2303  0.2269
 5061SOL    HW115503   5.456   5.493   1.770 -0.2658  0.9215 -0.1226
 5061SOL    HW215504   5.579   5.481   1.663 -0.5036  2.0499 -0.5352
 5062SOL     OW15505   0.296   3.442   5.126 -0.0395 -0.0073  0.5634
 5062SOL    HW115506   0.267   3.516   5.067  0.9257  1.2220  1.5839
 5062SOL    HW215507   0.237   3.362   5.111  0.2798  0.1904 -2.1230
 5063SOL     OW15508   4.433   4.085   0.770  0.3528 -0.6825  0.1574
 5063SOL    HW115509   4.390   4.091   0.680  0.4894 -2.5446 -0.0770
 5063SOL    HW215510   4.367   4.051   0.837  0.7377 -1.0413  0.3587
 5064SOL     OW15511   3.132   4.397   1.793 -0.0208  0.4610  0.4767
 5064SOL    HW115512   3.171   4.474   1.842  0.9002  0.2209  0.1519
 5064SOL    HW215513   3.102   4.427   1.702  0.9817  0.3046  0.0835
 5065SOL     OW15514   2.958   3.731   0.921 -0.5601  0.2595  0.2649
 5065SOL    HW115515   3.034   3.791   0.896 -0.9195  0.3505 -0.6588
 5065SOL    HW215516   2.907   3.706   0.838  0.0420 -1.9555  0.5059
 5066SOL     OW15517   0.073   3.675   2.912 -0.2450 -0.3247 -0.4275
 5066SOL    HW115518   0.067   3.584   2.953 -1.6968 -0.1807 -0.2627
 5066SOL    HW215519  -0.017   3.720   2.917  0.4135  1.0650 -0.6361
 5067SOL     OW15520   2.640   4.454   5.244 -0.1498  0.4759 -0.3639
 5067SOL    HW115521   2.664   4.367   5.201 -1.2850  0.2655 -0.6009
 5067SOL    HW215522   2.586   4.436   5.327  1.2118  0.9058  0.6385
 5068SOL     OW15523   3.022   3.725   0.548 -0.1363 -0.0421  0.1813
 5068SOL    HW115524   3.092   3.790   0.577  0.4312 -0.2742 -0.6364
 5068SOL    HW215525   3.061   3.633   0.546  0.2279  0.0996 -2.4488
 5069SOL     OW15526   2.736   0.437   0.826 -0.7360 -0.2680  0.1209
 5069SOL    HW115527   2.731   0.473   0.733  1.3949  0.4620  0.2362
 5069SOL    HW215528   2.643   0.427   0.863 -1.5432  1.4479 -1.2960
 5070SOL     OW15529   2.884   0.183   0.706 -0.3427  0.0105  0.5029
 5070SOL    HW115530   2.954   0.252   0.690  1.0958 -1.2145  1.2239
 5070SOL    HW215531   2.824   0.212   0.781 -0.2376  0.8166  0.2763
 5071SOL     OW15532   0.381   5.032   5.513 -0.5939 -0.3594  0.2127
 5071SOL    HW115533   0.320   5.031   5.592 -1.2258 -1.4640 -0.2617
 5071SOL    HW215534   0.474   5.011   5.543 -0.4492  1.1088  0.9061
 5072SOL     OW15535   1.929   4.268   0.295  0.8351  0.1457  0.3466
 5072SOL    HW115536   1.955   4.365   0.291  2.5350 -0.3332 -0.9091
 5072SOL    HW215537   1.984   4.216   0.231 -0.3962 -1.6132  0.6559
 5073SOL     OW15538   3.681   4.861   2.056  0.0254 -0.3799  0.3974
 5073SOL    HW115539   3.592   4.817   2.070  0.1034 -0.0580  2.0735
 5073SOL    HW215540   3.752   4.806   2.101  0.8319 -1.0715 -1.6033
 5074SOL     OW15541   4.414   3.698   5.491  0.1754 -0.0273 -0.2814
 5074SOL    HW115542   4.439   3.725   5.398 -0.6736  2.1419  0.0660
 5074SOL    HW215543   4.383   3.778   5.542 -1.6297 -1.5364  1.1554
 5075SOL     OW15544   1.091   3.110   0.460  0.1202  0.0884 -0.0547
 5075SOL    HW115545   1.077   3.109   0.559  1.3706 -0.2668  0.1354
 5075SOL    HW215546   1.188   3.104   0.440 -0.1331 -0.1329 -1.3180
 5076SOL     OW15547   4.059   3.393   4.766 -0.0183 -0.2541 -0.0694
 5076SOL    HW115548   4.040   3.398   4.864  1.7181 -0.3850  0.3144
 5076SOL    HW215549   3.981   3.428   4.715 -0.3486  1.3392  1.4217
 5077SOL     OW15550   3.554   4.735   3.796 -0.4664 -0.2585 -0.1220
 5077SOL    HW115551   3.480   4.714   3.859 -1.1246  1.6854 -0.1571
 5077SOL    HW215552   3.617   4.658   3.790 -1.1335 -1.0110  1.8304
 5078SOL     OW15553   3.806   0.422   0.616  0.8372  0.3381  0.0380
 5078SOL    HW115554   3.767   0.392   0.529  0.1359  1.1755  0.0466
 5078SOL    HW215555   3.735   0.423   0.685  1.1938  0.5322  0.4040
 5079SOL     OW15556   4.975   5.078   1.341 -0.4373  0.1141  0.7194
 5079SOL    HW115557   5.002   5.150   1.404  2.3715 -0.2920  0.1039
 5079SOL    HW215558   5.022   4.993   1.365 -1.6724 -0.8437 -0.1259
 5080SOL     OW15559   4.662   4.378   5.579  0.4816 -0.3139  0.1939
 5080SOL    HW115560   4.714   4.403   5.498  2.1808 -0.7100  1.1164
 5080SOL    HW215561   4.566   4.364   5.554  0.9724 -0.4916 -1.7356
 5081SOL     OW15562   3.956   4.588   1.437  0.3004 -0.4593  0.2330
 5081SOL    HW115563   3.997   4.564   1.525  1.2772 -1.4219 -0.4588
 5081SOL    HW215564   4.028   4.614   1.373 -0.4687  1.0652 -0.0606
 5082SOL     OW15565   1.723   1.215   1.537 -0.1505  0.7556  0.0798
 5082SOL    HW115566   1.648   1.203   1.472 -1.2487 -1.2016  1.5884
 5082SOL    HW215567   1.707   1.298   1.591 -2.4267 -0.6463  1.7395
 5083SOL     OW15568   3.213   4.573   2.035  0.6437 -0.5293  0.8537
 5083SOL    HW115569   3.301   4.593   1.991  0.6789  0.4279  1.3363
 5083SOL    HW215570   3.145   4.639   2.004 -0.1909 -1.8486 -0.2780
 5084SOL     OW15571   0.380   5.066   2.353 -0.0272  0.4570  0.3477
 5084SOL    HW115572   0.324   4.983   2.358  0.6947 -0.0660 -0.0899
 5084SOL    HW215573   0.396   5.091   2.258  3.0698 -1.2277  0.3066
 5085SOL     OW15574   3.698   2.138   0.689 -0.2437 -0.1733  0.1181
 5085SOL    HW115575   3.647   2.083   0.755  1.3531 -1.1542  0.5872
 5085SOL    HW215576   3.712   2.085   0.605 -0.1365  0.1537 -0.0731
 5086SOL     OW15577   0.118   3.182   5.343  0.2496  0.8237 -0.7493
 5086SOL    HW115578   0.080   3.180   5.251 -1.0351  1.6428 -0.2655
 5086SOL    HW215579   0.200   3.240   5.345 -0.0711  1.2958 -1.2444
 5087SOL     OW15580   5.377   5.339   4.250  0.2855  0.3631  0.3104
 5087SOL    HW115581   5.370   5.248   4.291  0.3809  0.2420  0.0560
 5087SOL    HW215582   5.312   5.400   4.295 -0.4230 -0.0553 -0.1373
 5088SOL     OW15583   3.175   4.400   1.285  0.2135  0.2306  0.1035
 5088SOL    HW115584   3.156   4.373   1.191  0.3931 -1.4050  0.5008
 5088SOL    HW215585   3.236   4.333   1.328 -0.8936  0.2060  1.7640
 5089SOL     OW15586   4.161   4.099   2.252  0.0293 -0.3280  0.5308
 5089SOL    HW115587   4.226   4.092   2.176  0.7089  0.3823  1.0267
 5089SOL    HW215588   4.097   4.174   2.235 -0.3861 -0.7504  0.2408
 5090SOL     OW15589   1.427   5.080   2.900 -0.0506  0.0198  0.3930
 5090SOL    HW115590   1.499   5.100   2.966 -0.0257  0.3755  0.2551
 5090SOL    HW215591   1.340   5.069   2.949 -0.2167  1.2473  0.3890
 5091SOL     OW15592   4.341   4.125   4.693 -0.6121 -0.4982 -0.1817
 5091SOL    HW115593   4.367   4.030   4.679  1.1063  0.0922 -1.4223
 5091SOL    HW215594   4.311   4.139   4.788  0.6268 -1.9341  0.4525
 5092SOL     OW15595   0.133   3.838   1.479  0.2619  0.3479  0.2313
 5092SOL    HW115596   0.112   3.805   1.571 -0.8279  1.6740  0.4809
 5092SOL    HW215597   0.219   3.890   1.480 -0.1174  0.9786  0.6631
 5093SOL     OW15598   0.214   0.467   0.694 -0.1708 -0.1925 -0.0940
 5093SOL    HW115599   0.233   0.477   0.596  0.3293  2.5593  0.2076
 5093SOL    HW215600   0.292   0.501   0.747 -1.3177  0.4778  1.2324
 5094SOL     OW15601   0.571   4.535   0.845 -0.0065  0.1763  0.1839
 5094SOL    HW115602   0.626   4.453   0.858  1.0281  1.1699  2.6865
 5094SOL    HW215603   0.579   4.566   0.750 -0.5891 -2.6425 -0.8813
 5095SOL     OW15604   2.963   5.122   3.914 -0.2608  0.1436  0.2981
 5095SOL    HW115605   2.870   5.145   3.942  0.3326  1.4504  1.2907
 5095SOL    HW215606   3.019   5.205   3.912  0.6469 -0.4646 -1.2962
 5096SOL     OW15607   2.926   4.652   3.443  0.3854 -0.1456 -0.2480
 5096SOL    HW115608   2.925   4.600   3.358 -0.7167 -2.3097  1.0064
 5096SOL    HW215609   2.832   4.678   3.468  0.5355 -0.6664  0.9328
 5097SOL     OW15610   4.042   3.797   1.732  0.2036 -0.0457  0.1483
 5097SOL    HW115611   4.043   3.816   1.830 -0.1891  0.9422 -0.0255
 5097SOL    HW215612   3.985   3.865   1.686 -0.1852 -0.9139 -0.6802
 5098SOL     OW15613   4.058   5.089   5.512 -0.2187 -0.3411  0.4086
 5098SOL    HW115614   4.006   5.163   5.470 -0.5672  0.3510  1.9722
 5098SOL    HW215615   4.156   5.108   5.503 -0.2933 -0.0922  0.1085
 5099SOL     OW15616   5.281   5.123   1.402  0.3110 -0.6850  0.6611
 5099SOL    HW115617   5.321   5.034   1.421  1.4057 -0.3406  0.0601
 5099SOL    HW215618   5.256   5.129   1.305 -1.0511 -0.8189  0.9800
 5100SOL     OW15619   5.136   1.159   1.179 -0.4168 -0.5633 -0.0812
 5100SOL    HW115620   5.205   1.218   1.138 -1.4108  0.9765  0.3583
 5100SOL    HW215621   5.052   1.163   1.125 -1.0671 -0.1575  0.9212
 5101SOL     OW15622   3.745   4.058   1.275 -0.0492 -0.0843 -0.3595
 5101SOL    HW115623   3.672   4.071   1.342  0.2052  0.1723 -0.1290
 5101SOL    HW215624   3.774   3.962   1.276 -0.1499 -0.1135 -0.2105
 5102SOL     OW15625   3.395   4.343   0.062  0.1036  0.3466 -0.3445
 5102SOL    HW115626   3.473   4.314   0.006  1.4436  1.5156  0.8270
 5102SOL    HW215627   3.350   4.422   0.018 -1.7860 -1.5566 -2.0744
 5103SOL     OW15628   3.802   2.980   2.305 -0.3373  0.2847  0.0742
 5103SOL    HW115629   3.758   2.919   2.240  1.5972  0.1284 -1.1489
 5103SOL    HW215630   3.771   3.074   2.289  1.8721  0.6556 -2.8229
 5104SOL     OW15631   0.188   3.339   2.423 -0.1908 -0.4095  0.3373
 5104SOL    HW115632   0.113   3.306   2.365 -0.4329  0.2474  0.2648
 5104SOL    HW215633   0.244   3.404   2.372  0.0851 -0.4548  0.5786
 5105SOL     OW15634   4.627   0.270   0.042  0.3152  0.5487  0.2043
 5105SOL    HW115635   4.720   0.304   0.055  0.3755  0.2720  0.5254
 5105SOL    HW215636   4.630   0.177   0.006  0.1625  0.5893  0.0874
 5106SOL     OW15637   4.877   2.391   3.708 -0.2725 -0.3004  0.3689
 5106SOL    HW115638   4.868   2.434   3.618 -2.2120 -1.3229  0.0260
 5106SOL    HW215639   4.796   2.412   3.763 -0.1700 -1.5756  1.0364
 5107SOL     OW15640   3.987   1.627   1.840  0.2026 -0.6320 -0.0872
 5107SOL    HW115641   4.051   1.552   1.819  2.3361  1.1245 -0.2632
 5107SOL    HW215642   3.950   1.664   1.754 -0.1789 -0.9131 -0.0470
 5108SOL     OW15643   5.124   4.268   5.478 -0.2560 -0.5367  0.7249
 5108SOL    HW115644   5.124   4.303   5.571 -0.0787  0.6778  0.2922
 5108SOL    HW215645   5.122   4.345   5.414  4.0104 -1.0796 -0.3655
 5109SOL     OW15646   2.927   1.019   1.876 -0.5891  0.4486  0.1898
 5109SOL    HW115647   2.848   1.001   1.818 -0.3173  1.5421 -0.5560
 5109SOL    HW215648   3.010   0.989   1.829 -0.5614 -1.0125  1.1121
 5110SOL     OW15649   3.030   5.427   1.189  0.7739  0.3218  0.0399
 5110SOL    HW115650   3.062   5.411   1.283  0.3089 -1.4766 -0.0737
 5110SOL    HW215651   2.933   5.450   1.190  0.0706 -2.3230 -0.1069
 5111SOL     OW15652   2.372   4.643   1.013  0.2433  0.7738 -0.0914
 5111SOL    HW115653   2.465   4.631   0.979 -0.4734 -1.2555 -1.5526
 5111SOL    HW215654   2.366   4.729   1.064  2.5839  1.5771 -1.0212
 5112SOL     OW15655   3.584   4.046   1.503  0.3529  0.4528  0.3890
 5112SOL    HW115656   3.535   4.007   1.581 -0.0106  0.3679  0.1202
 5112SOL    HW215657   3.611   4.140   1.525 -0.5536  0.7510  0.2836
 5113SOL     OW15658   5.399   1.056   4.123  0.2659  0.0989 -1.1516
 5113SOL    HW115659   5.354   1.143   4.145 -2.3736 -1.2412 -0.8341
 5113SOL    HW215660   5.420   1.008   4.208 -0.1186 -0.4273 -1.3504
 5114SOL     OW15661   1.799   4.760   1.572 -0.3619  0.2736 -0.2440
 5114SOL    HW115662   1.700   4.773   1.563 -0.3751  0.4374  0.1137
 5114SOL    HW215663   1.825   4.768   1.669 -0.0296  0.0115 -0.3104
 5115SOL     OW15664   5.561   4.920   0.716  0.0038 -0.3306 -0.4126
 5115SOL    HW115665   5.523   4.935   0.624  0.4026  1.1721 -0.3589
 5115SOL    HW215666   5.549   5.003   0.771 -1.2471 -1.5697  1.2943
 5116SOL     OW15667   3.020   4.239   0.781  0.5743  0.2612  0.2708
 5116SOL    HW115668   3.033   4.145   0.750  1.5019  0.6450 -0.5207
 5116SOL    HW215669   3.017   4.300   0.702  0.3986  0.9556  0.8060
 5117SOL     OW15670   4.350   5.460   1.372  0.1091  0.1659 -0.4332
 5117SOL    HW115671   4.358   5.557   1.393 -0.3468  0.7114 -2.5260
 5117SOL    HW215672   4.270   5.422   1.418  0.5577  0.6532  0.7750
 5118SOL     OW15673   2.326   1.962   5.330  0.1917  0.2100 -0.1435
 5118SOL    HW115674   2.328   1.865   5.306 -0.9287 -0.2970  1.6763
 5118SOL    HW215675   2.419   1.994   5.349  0.4493 -0.7740  0.2627
 5119SOL     OW15676   5.058   3.612   4.607 -0.2182 -0.0557  0.2453
 5119SOL    HW115677   4.969   3.657   4.617  0.1024  0.5046  0.5694
 5119SOL    HW215678   5.066   3.540   4.676  0.5158  1.4267  1.7630
 5120SOL     OW15679   0.223   5.261   1.537 -0.4867  0.1136  0.0511
 5120SOL    HW115680   0.126   5.236   1.536 -1.0184  1.9938 -0.4915
 5120SOL    HW215681   0.241   5.317   1.618 -0.4158  1.6260 -0.9614
 5121SOL     OW15682   3.790   5.337   3.603  0.0619 -0.3436  0.2930
 5121SOL    HW115683   3.813   5.332   3.700  1.9314  0.5184 -0.0709
 5121SOL    HW215684   3.750   5.426   3.582  0.9288 -0.0023  0.0420
 5122SOL     OW15685   5.452   1.043   0.703  0.3334  0.5178  0.5480
 5122SOL    HW115686   5.512   1.021   0.626  3.1503  2.2567  2.0436
 5122SOL    HW215687   5.445   0.964   0.764 -0.9375 -0.4770 -0.8299
 5123SOL     OW15688   5.263   4.937   1.994 -0.5697 -0.4844  0.1690
 5123SOL    HW115689   5.181   4.943   1.937  1.0035  0.0260 -2.2174
 5123SOL    HW215690   5.300   4.844   1.988 -0.4124 -0.4352  0.3957
 5124SOL     OW15691   3.901   0.897   5.388  0.0906 -0.5949  0.4857
 5124SOL    HW115692   3.879   0.836   5.311  2.5422  0.1904 -0.9383
 5124SOL    HW215693   3.879   0.991   5.364 -0.0822 -0.4528  1.1697
 5125SOL     OW15694   3.974   4.909   1.300 -0.0531  0.0610 -0.2912
 5125SOL    HW115695   3.973   4.848   1.222  0.4563 -1.0384  0.5387
 5125SOL    HW215696   3.980   4.856   1.385 -2.6443  1.1055  0.6503
 5126SOL     OW15697   0.558   4.511   5.437 -0.0853  0.2225  0.4134
 5126SOL    HW115698   0.482   4.446   5.448  0.1081  0.0713  0.8957
 5126SOL    HW215699   0.529   4.586   5.378 -0.6457  0.2189  0.6732
 5127SOL     OW15700   3.677   4.307   5.181  0.0902  0.6830  0.6351
 5127SOL    HW115701   3.775   4.288   5.184  0.2157  1.3066  0.5393
 5127SOL    HW215702   3.661   4.391   5.129 -0.6371 -0.3973 -0.9684
 5128SOL     OW15703   0.194   4.433   0.617 -0.1241  0.5427  0.4250
 5128SOL    HW115704   0.103   4.392   0.624 -0.0621  0.5033  1.0870
 5128SOL    HW215705   0.235   4.440   0.709  2.5595 -3.9604 -0.1460
 5129SOL     OW15706   3.086   0.372   0.671  0.1565 -0.5292  0.1530
 5129SOL    HW115707   3.155   0.310   0.634  0.7090  0.9741 -1.5279
 5129SOL    HW215708   3.047   0.426   0.596  0.3152  1.7205  1.5956
 5130SOL     OW15709   5.425   4.607   0.440 -0.3322 -0.3439  0.0572
 5130SOL    HW115710   5.360   4.616   0.365  0.9392 -0.7127 -1.1440
 5130SOL    HW215711   5.499   4.545   0.412  1.1932  1.0268  0.8838
 5131SOL     OW15712   4.856   4.813   0.738 -0.5674  0.0264 -0.1742
 5131SOL    HW115713   4.814   4.893   0.695 -2.0744 -0.7334 -0.1708
 5131SOL    HW215714   4.875   4.744   0.669 -0.3172 -0.0671 -0.0144
 5132SOL     OW15715   3.964   4.893   1.623  0.3060  0.2903  0.1250
 5132SOL    HW115716   3.909   4.973   1.649 -1.6519 -0.8720 -0.2635
 5132SOL    HW215717   3.997   4.847   1.706  0.7208  0.9937  0.3619
 5133SOL     OW15718   0.058   5.250   1.208  0.8632  0.0444  0.7354
 5133SOL    HW115719  -0.010   5.317   1.182  1.2736  0.3721  0.4959
 5133SOL    HW215720   0.079   5.259   1.306 -0.7622 -1.2647  1.2439
 5134SOL     OW15721   0.104   4.746   2.579 -0.1716  0.4938  0.1225
 5134SOL    HW115722   0.082   4.844   2.582 -0.2877  0.4452  1.9282
 5134SOL    HW215723   0.035   4.696   2.631 -1.1648 -0.7984 -2.2873
 5135SOL     OW15724   1.029   3.942   1.416 -0.4775  0.2300 -0.1265
 5135SOL    HW115725   1.025   3.845   1.395  1.4007 -0.4669  2.1971
 5135SOL    HW215726   1.018   3.955   1.515  2.5487  1.9531  0.1223
 5136SOL     OW15727   3.699   4.714   1.499  0.2377 -0.4462 -0.4664
 5136SOL    HW115728   3.787   4.673   1.473  1.4597  1.5990  0.2127
 5136SOL    HW215729   3.669   4.776   1.426 -0.2061 -0.4881 -0.3189
 5137SOL     OW15730   0.712   4.913   1.892 -0.3087  0.1982  0.3025
 5137SOL    HW115731   0.641   4.844   1.890 -0.5356  0.3928  1.1422
 5137SOL    HW215732   0.681   4.992   1.946  0.0241  0.8650 -0.4500
 5138SOL     OW15733   3.376   0.714   0.635 -0.8066  0.3711  0.5205
 5138SOL    HW115734   3.436   0.770   0.577 -1.6226 -1.3325 -2.1659
 5138SOL    HW215735   3.378   0.619   0.604 -2.6981 -0.2885  2.1765
 5139SOL     OW15736   3.713   0.061   0.351  0.0406  0.1333 -0.0880
 5139SOL    HW115737   3.781   0.093   0.285  0.7806 -1.3347 -0.0821
 5139SOL    HW215738   3.635   0.022   0.301 -1.1761  2.4304 -0.1085
 5140SOL     OW15739   0.793   5.018   3.208  0.0991 -0.4409  0.2228
 5140SOL    HW115740   0.699   5.052   3.218 -0.5529 -2.3251  0.7679
 5140SOL    HW215741   0.805   4.980   3.116  0.4705  0.1154  0.0293
 5141SOL     OW15742   3.295   3.331   3.192 -0.2643  0.5363 -0.2523
 5141SOL    HW115743   3.367   3.277   3.234  0.6516  0.3875 -1.9211
 5141SOL    HW215744   3.218   3.340   3.255  1.0434  0.3776  1.4177
 5142SOL     OW15745   3.799   3.765   0.307 -0.2020  1.1217  0.2862
 5142SOL    HW115746   3.798   3.785   0.405  0.0430  2.9151 -0.0384
 5142SOL    HW215747   3.721   3.707   0.284 -0.4918  1.0154  1.4700
 5143SOL     OW15748   3.240   3.057   0.876 -1.4028 -0.0848 -0.1853
 5143SOL    HW115749   3.201   2.995   0.944  0.4051 -0.7932  0.2447
 5143SOL    HW215750   3.340   3.054   0.880 -1.1134  4.0995  1.0711
 5144SOL     OW15751   4.208   4.874   0.880  0.4938 -0.5797 -0.1699
 5144SOL    HW115752   4.241   4.813   0.808  0.7596 -0.1220 -0.4411
 5144SOL    HW215753   4.123   4.918   0.850 -1.0296 -2.5843  0.9529
 5145SOL     OW15754   3.221   4.680   1.661 -0.2560 -0.1600 -0.6588
 5145SOL    HW115755   3.223   4.779   1.679  1.7354 -0.2471 -0.0917
 5145SOL    HW215756   3.312   4.650   1.631 -1.2313 -1.5831 -2.3625
 5146SOL     OW15757   4.867   0.520   2.727 -0.3799  0.4382  0.2546
 5146SOL    HW115758   4.925   0.460   2.670  0.9685  0.9982  0.9886
 5146SOL    HW215759   4.912   0.535   2.815 -1.1587  1.7494  0.4428
 5147SOL     OW15760   5.432   5.494   1.160 -0.7642  0.2016  0.2099
 5147SOL    HW115761   5.500   5.566   1.152 -2.0532  1.3511 -0.9611
 5147SOL    HW215762   5.372   5.514   1.237 -0.1972 -0.4632  0.8372
 5148SOL     OW15763   0.623   4.479   1.968  0.4466 -0.4363 -0.0443
 5148SOL    HW115764   0.573   4.564   1.950  0.2630 -0.9253 -2.0532
 5148SOL    HW215765   0.698   4.470   1.903 -0.6618 -2.6667 -1.1164
 5149SOL     OW15766   3.944   5.408   1.396 -0.5625  0.0678 -0.0356
 5149SOL    HW115767   3.942   5.508   1.392 -1.8734  0.1880  1.9198
 5149SOL    HW215768   4.029   5.378   1.438  0.7666  0.1848 -2.4605
 5150SOL     OW15769   2.559   5.375   2.543 -0.2434 -0.0950  0.1462
 5150SOL    HW115770   2.478   5.317   2.552  0.4763 -1.0428  0.5817
 5150SOL    HW215771   2.636   5.321   2.510  0.0111  0.9811 -1.0981
 5151SOL     OW15772   4.300   4.918   4.627 -0.0555  0.3375  0.2681
 5151SOL    HW115773   4.277   5.010   4.659 -0.0898  0.3144  0.3106
 5151SOL    HW215774   4.333   4.864   4.704  0.1218  0.3640  0.2110
 5152SOL     OW15775   3.674   4.916   0.565  0.2510 -0.0727 -0.2850
 5152SOL    HW115776   3.650   4.820   0.572 -0.9657  0.2423  0.1542
 5152SOL    HW215777   3.773   4.926   0.568  0.4514 -1.3848 -1.4522
 5153SOL     OW15778   4.247   2.826   2.765  0.1059  0.0771 -0.1316
 5153SOL    HW115779   4.167   2.766   2.774 -1.2796  1.7922 -0.5088
 5153SOL    HW215780   4.275   2.829   2.669 -0.6209  0.9622 -0.3344
 5154SOL     OW15781   4.770   4.944   2.934  0.2958 -0.2191  0.0354
 5154SOL    HW115782   4.745   4.880   3.007 -0.4053  0.3684  0.3128
 5154SOL    HW215783   4.870   4.954   2.931  0.3264 -0.2058  0.9497
 5155SOL     OW15784   0.223   0.810   5.274  0.5831 -0.8163 -0.0622
 5155SOL    HW115785   0.322   0.796   5.281  1.0072  0.6991 -2.1991
 5155SOL    HW215786   0.193   0.793   5.180 -0.8533  0.5442  0.1125
 5156SOL     OW15787   4.087   4.801   0.234 -0.5928  0.1548 -0.3126
 5156SOL    HW115788   4.123   4.840   0.319 -1.3896 -0.8741  0.5146
 5156SOL    HW215789   4.009   4.855   0.203  0.1965  1.0216 -0.8676
 5157SOL     OW15790   2.098   4.417   4.980  0.0504 -0.3097  0.2531
 5157SOL    HW115791   1.999   4.427   4.977 -0.1926 -2.3562 -0.2662
 5157SOL    HW215792   2.126   4.384   5.071  0.2535  0.2617  0.3988
 5158SOL     OW15793   4.289   4.625   0.537 -0.5665  0.4511 -0.0369
 5158SOL    HW115794   4.320   4.716   0.512 -0.1351  0.5787  0.9164
 5158SOL    HW215795   4.260   4.576   0.455 -1.1935  1.5820 -0.5158
 5159SOL     OW15796   4.799   0.059   1.264  0.1729  0.6276  0.5133
 5159SOL    HW115797   4.729   0.028   1.329 -1.4125 -0.5825 -1.6465
 5159SOL    HW215798   4.775   0.149   1.229  0.5835  0.9255  1.0007
 5160SOL     OW15799   1.879   0.646   1.475  0.3639 -0.2231 -0.4348
 5160SOL    HW115800   1.918   0.667   1.386 -1.2666 -1.8865 -1.6322
 5160SOL    HW215801   1.952   0.624   1.540  1.5367 -0.0756 -1.6760
 5161SOL     OW15802   2.024   4.580   5.529  0.0554  0.4812 -0.1677
 5161SOL    HW115803   2.042   4.492   5.484 -0.4615  0.4410 -0.3042
 5161SOL    HW215804   1.982   4.643   5.464 -0.9722  0.3266  0.3284
 5162SOL     OW15805   3.001   4.702   1.007  0.1068 -0.3704 -0.3369
 5162SOL    HW115806   3.005   4.766   1.083  0.0252 -1.7317  0.8455
 5162SOL    HW215807   2.971   4.612   1.039  0.6584 -1.1492 -1.8544
 5163SOL     OW15808   0.850   3.551   2.153 -0.4098  0.2580 -0.0188
 5163SOL    HW115809   0.906   3.633   2.164 -0.4297  0.0930  1.4282
 5163SOL    HW215810   0.817   3.546   2.058  1.0540  0.9648 -0.5957
 5164SOL     OW15811   4.320   3.715   1.038  0.2767  0.1709  0.4056
 5164SOL    HW115812   4.329   3.621   1.004  0.7701 -0.1083  1.2760
 5164SOL    HW215813   4.410   3.750   1.062  0.0906  0.8668  0.1181
 5165SOL     OW15814   4.944   4.806   1.641  0.6875 -0.6952 -0.2959
 5165SOL    HW115815   4.968   4.713   1.668  1.2348 -0.6169 -0.5097
 5165SOL    HW215816   4.972   4.822   1.547  2.4481  0.3371  0.3549
 5166SOL     OW15817   0.376   3.456   0.655  0.5233 -0.5135 -0.1333
 5166SOL    HW115818   0.284   3.492   0.667 -0.1359 -1.7549 -1.1925
 5166SOL    HW215819   0.402   3.404   0.736 -0.6312 -2.0310 -0.6883
 5167SOL     OW15820   0.152   5.247   0.568 -0.5532  0.5618 -0.1259
 5167SOL    HW115821   0.066   5.279   0.527  0.3544  3.2393 -0.1239
 5167SOL    HW215822   0.227   5.307   0.539  1.4029 -1.8010 -0.2600
 5168SOL     OW15823   0.567   4.333   1.231  0.0876  0.0809 -0.1102
 5168SOL    HW115824   0.588   4.428   1.252 -1.8842  0.1180  2.0830
 5168SOL    HW215825   0.637   4.297   1.169  2.2138  2.2405  0.8383
 5169SOL     OW15826   4.490   4.258   5.342  0.4618  0.4540 -0.2354
 5169SOL    HW115827   4.560   4.188   5.331  0.9262  1.2418 -3.1318
 5169SOL    HW215828   4.447   4.249   5.431  2.0841 -2.0275  0.3756
 5170SOL     OW15829   3.814   4.568   0.234 -0.4210  0.1740 -0.0730
 5170SOL    HW115830   3.902   4.578   0.188  0.1811  0.4461  1.1258
 5170SOL    HW215831   3.811   4.626   0.315 -0.6661 -1.8470  1.4362
 5171SOL     OW15832   3.331   4.100   0.179 -0.7359 -0.1044  0.3665
 5171SOL    HW115833   3.382   4.078   0.262  0.4042 -0.5583 -0.4231
 5171SOL    HW215834   3.341   4.198   0.159 -1.5691  0.1411  1.1175
 5172SOL     OW15835   1.272   4.729   5.339  0.1128  0.0666  0.3826
 5172SOL    HW115836   1.348   4.679   5.382 -1.0359 -1.0491  1.2058
 5172SOL    HW215837   1.203   4.664   5.309 -0.1456  1.0104 -1.1630
 5173SOL     OW15838   5.413   4.885   1.460  0.1750 -0.1359 -0.5306
 5173SOL    HW115839   5.341   4.817   1.474 -1.8645  2.0418  0.1417
 5173SOL    HW215840   5.497   4.852   1.503 -0.3362 -2.7667 -1.3373
 5174SOL     OW15841   4.710   4.305   0.292 -0.0891 -0.2447  0.0059
 5174SOL    HW115842   4.767   4.224   0.303 -1.7333 -1.5584 -0.6863
 5174SOL    HW215843   4.699   4.327   0.195  1.0833  1.4035  0.2050
 5175SOL     OW15844   3.101   5.518   0.439  0.3533  0.0255  0.3551
 5175SOL    HW115845   3.037   5.453   0.397  1.2116  0.3559 -1.5820
 5175SOL    HW215846   3.144   5.477   0.519  0.5826 -1.6543 -0.6020
 5176SOL     OW15847   5.349   5.290   0.725  0.0998  0.1221 -0.2114
 5176SOL    HW115848   5.341   5.386   0.699  1.7146  0.4979  0.5975
 5176SOL    HW215849   5.354   5.234   0.643 -3.1836  0.4327 -0.7645
 5177SOL     OW15850   1.986   4.548   2.311  0.4020 -0.7730  0.1124
 5177SOL    HW115851   1.926   4.622   2.341 -0.6675 -1.7020  0.3303
 5177SOL    HW215852   2.072   4.586   2.278 -0.0061  0.5394  0.5106
 5178SOL     OW15853   0.716   4.940   3.803  0.1020 -0.3203  0.3505
 5178SOL    HW115854   0.706   4.847   3.767  1.2817 -1.1309  1.9879
 5178SOL    HW215855   0.765   4.937   3.890 -1.9760  1.5918  1.7114
 5179SOL     OW15856   3.149   3.935   1.552 -0.2135  0.0824 -0.2868
 5179SOL    HW115857   3.086   3.990   1.608  0.6704  0.7098  0.1236
 5179SOL    HW215858   3.166   3.848   1.598 -0.7415 -0.0669 -0.3731
 5180SOL     OW15859   3.931   0.420   4.322  0.4281  0.1997  0.3766
 5180SOL    HW115860   4.016   0.463   4.292  2.2094 -2.2381  1.5710
 5180SOL    HW215861   3.913   0.339   4.267 -0.6980  0.2398  0.6556
 5181SOL     OW15862   0.535   3.897   2.287  0.0265 -0.0310  0.6643
 5181SOL    HW115863   0.632   3.876   2.276  0.0550  1.1985 -2.4539
 5181SOL    HW215864   0.524   3.994   2.310 -0.4566  0.2926 -0.8094
 5182SOL     OW15865   5.018   3.850   3.211  0.1358 -0.1485  0.4547
 5182SOL    HW115866   4.927   3.809   3.212  0.6890 -1.4119  0.3304
 5182SOL    HW215867   5.053   3.856   3.304  0.4969 -1.0108  0.3873
 5183SOL     OW15868   0.530   5.176   4.688 -0.1358  0.4447  0.4200
 5183SOL    HW115869   0.549   5.082   4.660  0.1572  0.8921 -0.9562
 5183SOL    HW215870   0.588   5.199   4.767  0.0888 -0.3867  0.5114
 5184SOL     OW15871   3.847   5.373   3.162 -0.0707  0.0057 -0.2686
 5184SOL    HW115872   3.899   5.359   3.078 -1.1759 -4.5940 -0.4491
 5184SOL    HW215873   3.905   5.348   3.240 -0.2137  0.6163  0.0371
 5185SOL     OW15874   5.024   3.069   3.335  0.3082 -0.2943  0.0147
 5185SOL    HW115875   4.947   3.123   3.367 -0.0728 -0.9107  0.1590
 5185SOL    HW215876   5.055   3.104   3.247 -1.6715 -1.4729 -1.2249
 5186SOL     OW15877   3.684   4.070   1.806  0.4034 -0.4131 -0.1302
 5186SOL    HW115878   3.658   4.166   1.819  1.7469 -0.1531  0.8534
 5186SOL    HW215879   3.603   4.012   1.817 -0.6599  0.6413 -1.8447
 5187SOL     OW15880   3.570   0.066   4.179 -0.0010 -0.2871  0.1655
 5187SOL    HW115881   3.539   0.111   4.095  1.2443  0.8009  0.2629
 5187SOL    HW215882   3.606   0.134   4.242  0.7891 -1.2965  0.8323
 5188SOL     OW15883   3.529   4.174   2.103  0.3673 -0.0246  0.2199
 5188SOL    HW115884   3.616   4.128   2.119  0.9133  0.4971 -1.1129
 5188SOL    HW215885   3.532   4.223   2.016 -1.5179 -0.5763 -0.2083
 5189SOL     OW15886   5.166   0.640   3.499  0.0577 -0.8628  0.3123
 5189SOL    HW115887   5.133   0.580   3.572 -1.5351 -1.3416 -0.7437
 5189SOL    HW215888   5.187   0.585   3.418 -0.3181 -0.1336 -0.2936
 5190SOL     OW15889   2.135   4.011   1.620 -0.0520  0.3777 -0.7957
 5190SOL    HW115890   2.222   4.052   1.592  0.3979 -0.2216 -0.2855
 5190SOL    HW215891   2.143   3.972   1.711 -0.2013 -1.6191 -1.5927
 5191SOL     OW15892   4.799   4.299   2.343 -0.1227 -0.2487  0.3196
 5191SOL    HW115893   4.739   4.346   2.407 -0.3828  0.4457 -0.4195
 5191SOL    HW215894   4.869   4.362   2.310 -1.2995  0.0692 -1.7353
 5192SOL     OW15895   1.914   0.863   3.074 -0.1871 -0.4466 -0.5608
 5192SOL    HW115896   1.976   0.790   3.045  0.3769 -0.2465  0.1062
 5192SOL    HW215897   1.836   0.869   3.011 -0.7391 -2.2528 -0.1044
 5193SOL     OW15898   0.230   0.234   4.048 -0.6267  0.1990  0.2133
 5193SOL    HW115899   0.289   0.192   3.980 -1.6904 -0.3876 -0.3735
 5193SOL    HW215900   0.178   0.309   4.006 -1.3558 -0.2240  0.3459
 5194SOL     OW15901   4.999   5.505   2.233 -0.3091  0.1125 -0.4579
 5194SOL    HW115902   5.056   5.587   2.239  1.8469 -1.3549  0.2754
 5194SOL    HW215903   4.980   5.471   2.325 -2.8800  0.8295 -0.6550
 5195SOL     OW15904   4.436   0.233   1.483  0.1816  0.0207  0.3289
 5195SOL    HW115905   4.471   0.298   1.415  0.4098 -1.2514 -0.8069
 5195SOL    HW215906   4.387   0.283   1.554  1.2183  1.5254  0.0375
 5196SOL     OW15907   3.847   4.736   3.138  0.2881 -0.2922  0.4386
 5196SOL    HW115908   3.826   4.812   3.076 -0.0028  0.3694  1.3311
 5196SOL    HW215909   3.766   4.678   3.148 -0.1022  0.3577  1.2259
 5197SOL     OW15910   4.158   5.294   1.518  0.2453 -0.0556 -0.2929
 5197SOL    HW115911   4.186   5.205   1.483 -2.9826 -1.6416  0.7967
 5197SOL    HW215912   4.123   5.284   1.611 -1.5364  2.0839 -0.6370
 5198SOL     OW15913   5.188   3.621   4.093  0.2971 -0.0279  0.2718
 5198SOL    HW115914   5.180   3.711   4.050 -1.5870 -0.8386 -1.2006
 5198SOL    HW215915   5.137   3.621   4.179  1.3283  0.6429  0.8989
 5199SOL     OW15916   4.756   4.654   4.221 -0.2721 -0.5334 -0.1706
 5199SOL    HW115917   4.834   4.693   4.271  0.0128 -1.8718  0.4802
 5199SOL    HW215918   4.671   4.691   4.257 -0.1053 -1.8124  1.7175
 5200SOL     OW15919   0.654   0.178   1.468 -0.3027 -0.2516  0.1369
 5200SOL    HW115920   0.621   0.195   1.375  1.8078  0.5367 -0.5331
 5200SOL    HW215921   0.577   0.180   1.532 -1.3823  4.2832 -0.9337
 5201SOL     OW15922   4.113   4.544   2.694 -0.0255  0.5770  0.5113
 5201SOL    HW115923   4.076   4.548   2.787 -0.8625  0.9062  0.1754
 5201SOL    HW215924   4.140   4.635   2.665  0.4185  0.4429  0.4966
 5202SOL     OW15925   4.507   5.359   1.603  0.0523  0.7396  0.9153
 5202SOL    HW115926   4.450   5.363   1.522  1.9627  1.4452 -0.4813
 5202SOL    HW215927   4.553   5.270   1.607  1.6719  1.4740 -0.0970
 5203SOL     OW15928   0.144   4.114   3.391 -0.0318  0.2178  0.4179
 5203SOL    HW115929   0.222   4.111   3.453  0.7626  1.3627 -0.4723
 5203SOL    HW215930   0.093   4.199   3.406  1.4343  1.6298 -1.8735
 5204SOL     OW15931   4.343   4.661   2.253  0.0399  0.3498 -0.0273
 5204SOL    HW115932   4.321   4.563   2.250  1.6504 -0.0154 -1.8650
 5204SOL    HW215933   4.374   4.685   2.345 -1.3792 -0.6060  0.7352
 5205SOL     OW15934   0.916   5.047   3.642  0.1887 -0.4168 -0.5182
 5205SOL    HW115935   0.906   4.975   3.573  1.8034 -1.4334  0.2512
 5205SOL    HW215936   0.853   5.028   3.718 -0.5366 -0.1005 -1.0213
 5206SOL     OW15937   4.614   3.912   0.055 -0.0370  0.3702  0.0305
 5206SOL    HW115938   4.518   3.939   0.049  0.2933  1.3894 -1.4390
 5206SOL    HW215939   4.654   3.947   0.140 -0.6759  0.9641  0.0947
 5207SOL     OW15940   4.069   2.631   2.807 -0.0398  0.5550  0.2932
 5207SOL    HW115941   4.097   2.616   2.712 -0.6450  2.0476 -0.1558
 5207SOL    HW215942   4.015   2.553   2.839 -0.0548  0.1589 -0.6736
 5208SOL     OW15943   4.398   3.196   2.945  0.6108 -0.1005  0.1044
 5208SOL    HW115944   4.458   3.257   2.894 -0.8833 -0.8003 -2.6911
 5208SOL    HW215945   4.436   3.103   2.944  0.1317 -0.2957 -0.5677
 5209SOL     OW15946   4.278   5.151   1.005  0.2616 -0.0116 -0.6271
 5209SOL    HW115947   4.235   5.071   0.963 -1.7595  0.9411 -0.5271
 5209SOL    HW215948   4.301   5.218   0.934  0.9772 -0.2328 -0.6115
 5210SOL     OW15949   2.658   0.574   2.515 -0.0038  0.3147  0.0882
 5210SOL    HW115950   2.708   0.503   2.466  1.3989  0.7947  0.7914
 5210SOL    HW215951   2.606   0.533   2.591 -0.7342 -0.1837 -0.6616
 5211SOL     OW15952   3.732   3.952   4.504  0.7070  0.0214  0.5444
 5211SOL    HW115953   3.742   3.984   4.598  2.1979  1.3641 -0.0275
 5211SOL    HW215954   3.667   4.011   4.455  0.0613 -0.5726  0.6705
 5212SOL     OW15955   0.948   0.126   2.725  0.3617  0.3531  0.2619
 5212SOL    HW115956   0.960   0.029   2.703  0.1256  0.2609  0.5355
 5212SOL    HW215957   0.959   0.181   2.641 -0.3280  0.0214 -0.0496
 5213SOL     OW15958   5.469   3.762   2.199  0.1909 -0.0673 -0.2312
 5213SOL    HW115959   5.566   3.737   2.199  0.5065  1.0976 -1.2677
 5213SOL    HW215960   5.424   3.721   2.119  0.0438  0.2229 -0.2962
 5214SOL     OW15961   3.137   4.906   2.322 -0.2393  0.2363 -0.1769
 5214SOL    HW115962   3.236   4.907   2.332 -0.2879 -0.1405  0.3619
 5214SOL    HW215963   3.110   4.970   2.250  0.4201  0.0549 -0.5876
 5215SOL     OW15964   4.044   5.089   3.334 -0.6572  0.0885 -0.3586
 5215SOL    HW115965   4.075   5.104   3.240 -0.1456 -0.1928 -0.2359
 5215SOL    HW215966   4.059   5.172   3.388 -0.0612 -0.0641 -0.2860
 5216SOL     OW15967   5.512   5.121   0.881 -0.2795 -0.1292 -0.3897
 5216SOL    HW115968   5.457   5.183   0.825 -1.0099 -0.2570  0.1695
 5216SOL    HW215969   5.467   5.108   0.970  1.3125  0.8103  0.5910
 5217SOL     OW15970   5.498   4.311   3.393 -0.0939 -0.6224 -0.3141
 5217SOL    HW115971   5.480   4.378   3.465  1.2768 -1.0024  0.4081
 5217SOL    HW215972   5.415   4.259   3.374 -0.4993 -0.4416  0.9075
 5218SOL     OW15973   0.434   3.010   3.415  0.2495 -0.3540 -0.4294
 5218SOL    HW115974   0.476   3.074   3.480 -1.7616  0.5025  0.1178
 5218SOL    HW215975   0.482   3.014   3.328  1.5613  0.2039  0.2880
 5219SOL     OW15976   4.684   3.689   2.430 -0.0895 -0.2855  0.0528
 5219SOL    HW115977   4.781   3.713   2.424 -0.0377 -0.4908  0.0786
 5219SOL    HW215978   4.673   3.590   2.421 -0.5777 -0.0297 -3.5002
 5220SOL     OW15979   4.221   2.473   4.042 -0.3449 -0.6568 -0.2918
 5220SOL    HW115980   4.170   2.559   4.041 -0.0614 -0.4715 -1.5869
 5220SOL    HW215981   4.317   2.491   4.064 -0.2168 -0.5737 -0.8781
 5221SOL     OW15982   4.089   3.769   2.016  0.6537  0.6644 -0.4505
 5221SOL    HW115983   4.150   3.692   2.035  0.6475  0.8280  0.2812
 5221SOL    HW215984   4.060   3.810   2.103 -1.3019 -0.0263 -0.7291
 5222SOL     OW15985   3.671   3.258   1.913 -0.2921 -0.3997 -0.0721
 5222SOL    HW115986   3.702   3.166   1.934 -1.9358 -0.9287  0.1672
 5222SOL    HW215987   3.648   3.264   1.815  3.9453  1.0542 -1.1996
 5223SOL     OW15988   4.885   5.380   4.706  0.0942 -0.2786  0.5109
 5223SOL    HW115989   4.984   5.371   4.690  0.3170  1.3224  0.8334
 5223SOL    HW215990   4.839   5.296   4.677  1.2229 -0.0378 -2.2796
 5224SOL     OW15991   3.361   3.367   2.450 -0.2294  0.1010 -0.0571
 5224SOL    HW115992   3.279   3.330   2.406 -0.4132  0.9762 -0.4681
 5224SOL    HW215993   3.335   3.430   2.523  0.0572  1.0867 -0.7844
 5225SOL     OW15994   5.373   0.205   0.921 -0.1542 -0.1844  0.2932
 5225SOL    HW115995   5.298   0.250   0.874  0.6489 -0.0893 -0.9539
 5225SOL    HW215996   5.460   0.241   0.887  0.4832 -1.6212  0.3384
 5226SOL     OW15997   0.309   3.508   3.815 -0.4246 -0.3180 -0.2942
 5226SOL    HW115998   0.353   3.593   3.842 -1.0385  0.0495 -0.4272
 5226SOL    HW215999   0.210   3.521   3.813 -0.4623 -0.6626 -1.6069
 5227SOL     OW16000   3.446   0.199   2.448  0.0756 -0.1101 -0.7032
 5227SOL    HW116001   3.521   0.133   2.440 -0.8448 -1.4779  1.2581
 5227SOL    HW216002   3.471   0.270   2.513 -1.0252 -1.7358  1.6219
 5228SOL     OW16003   0.018   0.309   2.231  0.4555  0.3150  0.1344
 5228SOL    HW116004   0.046   0.372   2.158  0.5481 -1.7001 -1.6826
 5228SOL    HW216005  -0.064   0.344   2.276  0.5966  1.7958 -0.6846
 5229SOL     OW16006   1.596   1.015   2.456  0.1978 -0.3278 -0.3438
 5229SOL    HW116007   1.587   1.105   2.413  0.5540 -0.7127 -1.2415
 5229SOL    HW216008   1.506   0.971   2.460 -0.0169  0.1433  0.2992
 5230SOL     OW16009   4.650   4.780   3.550  0.1808  0.2200  0.1889
 5230SOL    HW116010   4.664   4.696   3.497 -1.4828  2.0970 -3.6380
 5230SOL    HW216011   4.560   4.776   3.594 -0.1612  0.1922 -0.4920
 5231SOL     OW16012   4.775   4.731   4.546  0.4038  0.4552  0.2425
 5231SOL    HW116013   4.766   4.760   4.642 -0.1080 -1.3240  0.7707
 5231SOL    HW216014   4.841   4.656   4.540  0.2901  0.4304 -0.7811
 5232SOL     OW16015   1.911   4.531   2.036 -0.3322  0.4405 -0.3275
 5232SOL    HW116016   1.932   4.551   2.132 -1.7726  1.2854 -0.1637
 5232SOL    HW216017   1.845   4.597   2.002 -0.9670 -0.7385 -1.4773
 5233SOL     OW16018   1.227   5.388   1.868 -0.8731 -0.7367 -0.3190
 5233SOL    HW116019   1.265   5.300   1.840  3.1599 -0.0784  2.2696
 5233SOL    HW216020   1.294   5.460   1.850 -0.5338  0.5554  4.7248
 5234SOL     OW16021   4.789   0.081   4.142  0.0046  0.4541  0.3386
 5234SOL    HW116022   4.715   0.017   4.121  1.3475 -0.6865 -1.1828
 5234SOL    HW216023   4.763   0.173   4.112 -0.8358  0.0887 -0.0889
 5235SOL     OW16024   0.228   5.510   3.226  0.5859 -0.1189  0.1632
 5235SOL    HW116025   0.319   5.496   3.186  0.8410  0.9143  0.3770
 5235SOL    HW216026   0.190   5.596   3.193  0.2201  0.0772  1.0936
 5236SOL     OW16027   4.049   2.863   4.328  0.9537  0.7232  0.6785
 5236SOL    HW116028   4.126   2.912   4.369  1.7790  0.3352 -0.3549
 5236SOL    HW216029   3.964   2.913   4.345  1.5074  1.4575  1.3450
 5237SOL     OW16030   4.557   3.703   1.959  0.1870  0.3219  0.2947
 5237SOL    HW116031   4.508   3.617   1.948 -1.4019  1.2561 -0.1370
 5237SOL    HW216032   4.567   3.749   1.871  1.7278  0.2409  0.3919
 5238SOL     OW16033   2.954   4.541   3.213 -0.1460 -0.1168 -0.0032
 5238SOL    HW116034   2.959   4.441   3.210 -1.0812 -0.1390 -1.3215
 5238SOL    HW216035   2.981   4.578   3.124 -2.3695  0.6685 -0.3925
 5239SOL     OW16036   4.370   4.510   0.956  0.7938  0.0056 -0.5559
 5239SOL    HW116037   4.344   4.574   1.028  3.0619 -1.3315  1.6433
 5239SOL    HW216038   4.411   4.428   0.997 -0.8740 -2.3892 -3.2779
 5240SOL     OW16039   5.303   4.720   2.784  0.0631 -0.0438 -0.2463
 5240SOL    HW116040   5.258   4.652   2.725  2.0960  0.4105 -2.4998
 5240SOL    HW216041   5.323   4.802   2.730  1.5579  0.6259  1.2503
 5241SOL     OW16042   4.524   1.465   2.203 -0.5528 -0.3696  0.5196
 5241SOL    HW116043   4.574   1.414   2.273 -0.3578  0.4188  0.9678
 5241SOL    HW216044   4.583   1.535   2.164 -0.5369 -1.0566 -0.7250
 5242SOL     OW16045   4.162   3.752   4.981 -0.4189  0.4576 -0.4489
 5242SOL    HW116046   4.077   3.771   4.933 -0.3352 -0.5648 -1.0411
 5242SOL    HW216047   4.145   3.686   5.055 -0.4523  1.6173  0.6098
 5243SOL     OW16048   5.245   5.483   3.635 -0.6627  0.3084  0.4904
 5243SOL    HW116049   5.226   5.435   3.550 -0.3200 -0.7294  0.9725
 5243SOL    HW216050   5.245   5.417   3.711  0.4990  0.9511  1.0800
 5244SOL     OW16051   4.335   4.021   1.994  0.1738 -0.8091  0.5495
 5244SOL    HW116052   4.422   4.052   1.956  0.8972 -0.6018  2.2915
 5244SOL    HW216053   4.349   3.934   2.043 -0.2890 -0.1124  1.9809
 5245SOL     OW16054   3.376   3.898   4.619  0.6381  0.0735  0.1783
 5245SOL    HW116055   3.308   3.965   4.647  2.0813  0.7646  2.2533
 5245SOL    HW216056   3.358   3.869   4.525 -2.9829 -0.4007  0.8606
 5246SOL     OW16057   4.541   4.789   2.762  0.7784 -0.7100 -0.2510
 5246SOL    HW116058   4.480   4.742   2.825 -0.0400 -0.9954 -1.2342
 5246SOL    HW216059   4.635   4.757   2.777  0.5772 -0.9149  0.6719
 5247SOL     OW16060   4.982   3.546   2.445 -0.4405  0.5880 -0.2673
 5247SOL    HW116061   5.053   3.476   2.442 -0.9849  0.0115 -0.0230
 5247SOL    HW216062   4.931   3.538   2.531 -0.7904  1.0042 -0.4302
 5248SOL     OW16063   3.911   4.596   3.414 -0.1967 -0.1503 -0.5640
 5248SOL    HW116064   3.903   4.517   3.353  1.6291 -1.8981  1.2865
 5248SOL    HW216065   3.969   4.666   3.371 -0.8438 -0.3159 -1.7448
 5249SOL     OW16066   5.065   5.192   2.910  0.0074  0.3028 -0.1912
 5249SOL    HW116067   5.022   5.239   2.988  1.1583  1.2783 -0.1255
 5249SOL    HW216068   5.066   5.093   2.928 -1.2050  0.3555  0.2883
 5250SOL     OW16069   3.336   3.780   2.272  0.6901 -0.3005  0.4827
 5250SOL    HW116070   3.298   3.736   2.353  1.4210 -1.8526  0.0251
 5250SOL    HW216071   3.433   3.800   2.287  0.7282 -0.2246  0.1364
 5251SOL     OW16072   5.325   4.208   2.128  0.0604 -0.0939 -0.2157
 5251SOL    HW116073   5.239   4.168   2.096  0.3212 -0.3567 -0.5969
 5251SOL    HW216074   5.305   4.287   2.187 -0.4402  1.0360 -1.8154
 5252SOL     OW16075   4.437   3.800   2.162 -0.5698  1.1025 -0.2898
 5252SOL    HW116076   4.427   3.724   2.226 -2.1053  1.6139  0.1270
 5252SOL    HW216077   4.485   3.768   2.080 -0.6607 -0.1614  0.1238
 5253SOL     OW16078   3.337   5.479   3.149  0.1810  0.2458 -0.5039
 5253SOL    HW116079   3.405   5.473   3.076  2.3120 -1.1334  1.4648
 5253SOL    HW216080   3.360   5.555   3.210 -0.1259 -0.1480  0.1082
 5254SOL     OW16081   4.357   4.427   2.676 -0.0309 -0.3725 -0.1632
 5254SOL    HW116082   4.377   4.329   2.673 -1.4763 -0.7484  1.1636
 5254SOL    HW216083   4.260   4.441   2.696 -0.2215  1.3518 -2.0266
 5255SOL     OW16084   4.391   4.674   2.530 -0.3595  0.4006 -0.1950
 5255SOL    HW116085   4.441   4.749   2.572 -0.7109  0.2428  0.5068
 5255SOL    HW216086   4.357   4.611   2.600 -0.4885 -0.1572 -0.7396
 5256SOL     OW16087   5.151   4.802   3.544 -0.0159  0.2858 -0.4423
 5256SOL    HW116088   5.056   4.805   3.576 -0.2021 -1.0297 -0.8213
 5256SOL    HW216089   5.210   4.774   3.620 -0.3852 -2.2361 -0.9816
 5257SOL     OW16090   4.076   5.565   2.526 -0.0884  0.6660 -0.1495
 5257SOL    HW116091   4.130   5.572   2.610 -2.4167 -0.3413  1.5460
 5257SOL    HW216092   4.102   5.482   2.476  0.5418  0.6670  0.1752
 5258SOL     OW16093   4.542   2.945   1.901  0.0580 -0.3497 -0.1139
 5258SOL    HW116094   4.631   2.956   1.946  0.3683  1.4521 -1.0507
 5258SOL    HW216095   4.514   2.850   1.906  1.1120 -0.6181  1.9074
 5259SOL     OW16096   0.909   1.023   0.433 -0.2798  0.2701  0.4104
 5259SOL    HW116097   0.828   1.015   0.375 -0.2393 -1.4039  0.5494
 5259SOL    HW216098   0.925   1.120   0.454 -1.9041  0.6755 -0.0671
 5260SOL     OW16099   3.421   4.105   3.480 -0.6868  0.4903  0.2837
 5260SOL    HW116100   3.470   4.172   3.535  0.8392 -1.3091  1.2560
 5260SOL    HW216101   3.365   4.047   3.540  0.4994 -1.0853 -0.0505
 5261SOL     OW16102   5.115   4.524   4.105 -0.5724  0.2560 -0.6791
 5261SOL    HW116103   5.058   4.574   4.040 -1.4253 -2.0829 -1.8766
 5261SOL    HW216104   5.164   4.451   4.057  0.8236  0.0886  0.9031
 5262SOL     OW16105   4.875   4.181   2.880 -0.3938  0.2759  0.1492
 5262SOL    HW116106   4.948   4.116   2.904 -0.9881 -0.6376 -0.4761
 5262SOL    HW216107   4.869   4.189   2.780 -0.2789  1.3647  0.2156
 5263SOL     OW16108   3.048   5.557   3.595  0.5374 -0.0520 -0.5460
 5263SOL    HW116109   3.025   5.581   3.689 -0.5649 -1.4908 -0.4315
 5263SOL    HW216110   3.038   5.459   3.581  2.9487 -0.2399 -1.5631
 5264SOL     OW16111   5.005   2.994   4.443 -0.2422 -0.6371  0.0687
 5264SOL    HW116112   5.064   3.064   4.482 -1.7286 -0.3298  1.9057
 5264SOL    HW216113   4.938   3.037   4.382  0.1517 -0.7301 -0.4320
 5265SOL     OW16114   4.504   4.797   4.259 -0.1690  0.3520 -0.4428
 5265SOL    HW116115   4.441   4.720   4.263 -0.5336  0.6328 -0.7320
 5265SOL    HW216116   4.517   4.824   4.164  0.4034  0.2837 -0.3865
 5266SOL     OW16117   4.633   0.584   2.951 -0.1232  0.5995 -0.0548
 5266SOL    HW116118   4.731   0.569   2.959  0.0741  1.8029 -0.1603
 5266SOL    HW216119   4.615   0.670   2.903 -1.2314 -0.1659 -1.1186
 5267SOL     OW16120   4.678   4.610   1.958 -0.7695  0.9758 -0.2085
 5267SOL    HW116121   4.626   4.532   1.990  0.4141 -0.2819 -1.2185
 5267SOL    HW216122   4.776   4.593   1.970 -0.4939  2.5404  0.0598
 5268SOL     OW16123   4.629   2.747   2.640  0.0607 -0.3892 -1.0626
 5268SOL    HW116124   4.628   2.794   2.551 -1.6539  1.1825 -0.2863
 5268SOL    HW216125   4.575   2.663   2.633  1.1305 -1.0314 -1.8506
 5269SOL     OW16126   2.885   4.652   1.474 -0.4812  0.2956  1.2265
 5269SOL    HW116127   2.819   4.627   1.403  1.2573 -1.4679  0.1526
 5269SOL    HW216128   2.944   4.574   1.494  2.7716  2.3797  0.4985
 5270SOL     OW16129   1.380   4.873   4.293 -0.2562  0.1471 -0.1581
 5270SOL    HW116130   1.464   4.819   4.292 -0.6149 -0.4314  0.1971
 5270SOL    HW216131   1.309   4.825   4.242 -0.6466  0.1713  0.3488
 5271SOL     OW16132   2.486   0.766   2.780  0.1914  0.3725 -0.4390
 5271SOL    HW116133   2.482   0.666   2.775 -0.4015  0.4021 -0.6338
 5271SOL    HW216134   2.461   0.796   2.872 -1.2276  0.4106 -0.8205
 5272SOL     OW16135   4.197   0.565   3.104  0.0208  0.0166  0.3697
 5272SOL    HW116136   4.107   0.561   3.060 -0.8884 -2.2329  2.2402
 5272SOL    HW216137   4.207   0.653   3.151 -1.1753  0.3106  0.1199
 5273SOL     OW16138   4.631   3.929   4.314 -0.1338 -0.2483  0.0834
 5273SOL    HW116139   4.672   4.008   4.359  0.9323  0.0995 -1.4202
 5273SOL    HW216140   4.701   3.860   4.298 -0.9927 -1.4184  1.1112
 5274SOL     OW16141   4.747   5.430   2.405 -0.4275 -0.2268  0.9084
 5274SOL    HW116142   4.809   5.357   2.435  0.2099 -0.2342 -0.3326
 5274SOL    HW216143   4.690   5.396   2.330  0.8105  0.8961 -0.6041
 5275SOL     OW16144   5.173   3.886   3.749  0.2236  0.0184  0.3443
 5275SOL    HW116145   5.088   3.910   3.796  0.0957  0.3728 -0.0519
 5275SOL    HW216146   5.191   3.954   3.678  0.9448  0.0512  0.5561
 5276SOL     OW16147   4.902   4.902   4.350  0.2112  0.6868 -0.4491
 5276SOL    HW116148   4.853   4.853   4.422  1.5253  1.1834  0.8415
 5276SOL    HW216149   4.837   4.942   4.285 -1.0017 -3.7086 -2.3466
 5277SOL     OW16150   4.638   4.436   3.583 -0.1640  0.7923  0.1365
 5277SOL    HW116151   4.697   4.455   3.662  1.4782  0.9622 -1.0681
 5277SOL    HW216152   4.608   4.341   3.586 -0.6713  0.9622  1.2781
 5278SOL     OW16153   3.434   4.727   3.470 -0.0447  0.2145  0.4367
 5278SOL    HW116154   3.376   4.780   3.531  0.5207  1.3335  0.0334
 5278SOL    HW216155   3.378   4.680   3.401 -0.6616 -0.8601  1.6364
 5279SOL     OW16156   5.418   4.492   3.568  0.6505 -0.5266  0.4194
 5279SOL    HW116157   5.479   4.542   3.628 -1.4590  0.4078  1.9376
 5279SOL    HW216158   5.369   4.556   3.509 -2.0480 -0.5871  2.3547
 5280SOL     OW16159   3.432   1.264   3.065  0.2728  0.0156  0.0464
 5280SOL    HW116160   3.517   1.225   3.032  0.5167  1.2560 -0.8856
 5280SOL    HW216161   3.442   1.289   3.162  0.1495 -2.0000  0.6207
 5281SOL     OW16162   4.449  -0.012   0.773  0.0483  0.1968  0.1941
 5281SOL    HW116163   4.529  -0.031   0.830  0.1640  0.4509  0.1211
 5281SOL    HW216164   4.467   0.068   0.716 -0.7751  1.1746  1.2355
 5282SOL     OW16165   3.257   4.663   3.225  0.3190  0.2643  0.5399
 5282SOL    HW116166   3.251   4.679   3.127  0.3098  1.5790  0.7374
 5282SOL    HW216167   3.213   4.739   3.274 -0.8017 -0.9881  1.5439
 5283SOL     OW16168   0.686   5.132   2.107 -0.6474  0.6828 -0.0855
 5283SOL    HW116169   0.715   5.159   2.015 -2.7309 -1.7898 -1.6246
 5283SOL    HW216170   0.588   5.147   2.116 -1.9232 -4.9102 -0.8728
 5284SOL     OW16171   3.987   0.237   3.380 -0.1555 -0.0280 -1.0059
 5284SOL    HW116172   3.962   0.234   3.477  1.2715  0.5325 -0.5978
 5284SOL    HW216173   3.978   0.330   3.347 -1.7964 -0.4176 -1.7695
 5285SOL     OW16174   3.339   1.222   2.608  0.0479 -0.1407 -0.1236
 5285SOL    HW116175   3.306   1.265   2.524  0.3223 -0.8464 -0.6098
 5285SOL    HW216176   3.333   1.286   2.684  0.1956  0.6491 -0.7715
 5286SOL     OW16177   3.607   0.700   4.050  0.0868 -0.8659 -0.0535
 5286SOL    HW116178   3.676   0.689   3.980 -0.2817  0.2075 -0.6186
 5286SOL    HW216179   3.645   0.751   4.127  0.0597 -0.6900 -0.1564
 5287SOL     OW16180   3.768   3.815   2.253 -0.1615 -0.3375 -0.2853
 5287SOL    HW116181   3.866   3.794   2.259  0.1477  0.9665 -0.4410
 5287SOL    HW216182   3.731   3.777   2.168 -0.0869 -1.8785  0.3405
 5288SOL     OW16183   0.230   0.198   4.349 -0.8478  0.1562 -0.5494
 5288SOL    HW116184   0.135   0.212   4.378 -0.3229  3.2549  0.0172
 5288SOL    HW216185   0.234   0.200   4.249 -1.3766 -0.1775 -0.5867
 5289SOL     OW16186   4.939   2.991   2.838 -0.5195  0.2200 -0.1352
 5289SOL    HW116187   4.908   2.986   2.933  0.0825 -0.2868  0.0434
 5289SOL    HW216188   5.033   2.957   2.832 -0.8170 -0.4730 -1.0359
 5290SOL     OW16189   4.033   4.298   4.956  0.3034 -0.4653  1.1127
 5290SOL    HW116190   3.980   4.276   4.874  1.8849  1.2912 -0.5104
 5290SOL    HW216191   4.117   4.245   4.957  1.5549  1.3768  0.0784
 5291SOL     OW16192   3.775   5.071   1.224 -0.2342  0.4007  0.2928
 5291SOL    HW116193   3.750   5.111   1.312 -0.9766 -1.5047  1.0136
 5291SOL    HW216194   3.843   4.999   1.239  0.1320  0.5126 -0.7883
 5292SOL     OW16195   3.682   1.629   3.477 -0.3151 -0.7037 -0.3365
 5292SOL    HW116196   3.613   1.570   3.520 -1.9071  1.2090 -0.1166
 5292SOL    HW216197   3.650   1.656   3.386 -1.5733  2.8002  0.9770
 5293SOL     OW16198   2.979   4.369   0.558 -0.1501  0.2904 -0.2057
 5293SOL    HW116199   2.893   4.410   0.526 -0.5603 -0.2799  0.1531
 5293SOL    HW216200   3.044   4.365   0.482 -1.5387 -2.1825 -1.3811
 5294SOL     OW16201   4.202   4.148   2.514 -0.1606 -0.5759  0.7852
 5294SOL    HW116202   4.186   4.124   2.418  0.5030  2.3895 -0.1631
 5294SOL    HW216203   4.155   4.082   2.573 -1.5889 -1.8028 -1.5803
 5295SOL     OW16204   2.876   5.191   3.593  0.0959  0.2108  0.3809
 5295SOL    HW116205   2.807   5.122   3.572 -0.6882  1.0271  0.1829
 5295SOL    HW216206   2.967   5.155   3.573 -0.3223 -0.6410 -0.0379
 5296SOL     OW16207   4.253   4.555   3.476  0.8064  0.1430 -0.3278
 5296SOL    HW116208   4.229   4.475   3.531 -1.9542 -0.1425 -1.7550
 5296SOL    HW216209   4.291   4.626   3.534 -1.2191 -0.4303  1.8391
 5297SOL     OW16210   0.625   4.577   4.735  0.2950 -0.3359  0.0912
 5297SOL    HW116211   0.618   4.500   4.798  0.7147 -0.3059  0.1778
 5297SOL    HW216212   0.722   4.595   4.715  0.1828 -0.0593 -0.2064
 5298SOL     OW16213   3.767   3.439   2.672 -0.1132  0.1555  0.2520
 5298SOL    HW116214   3.745   3.487   2.587 -0.0119 -0.7163 -0.2789
 5298SOL    HW216215   3.684   3.394   2.707  0.1134 -0.5242 -0.0656
 5299SOL     OW16216   3.509   3.257   1.398  0.6533 -0.3347  0.0875
 5299SOL    HW116217   3.580   3.191   1.423  0.5855 -0.3679  0.1926
 5299SOL    HW216218   3.543   3.316   1.325  0.0772 -1.6525 -1.3084
 5300SOL     OW16219   4.839   3.455   2.218 -0.4457  0.6713  0.0747
 5300SOL    HW116220   4.886   3.480   2.134 -0.9365  1.7757  0.1150
 5300SOL    HW216221   4.888   3.494   2.296 -0.6521  0.6400  0.2182
 5301SOL     OW16222   4.277   4.638   4.163  0.1558  0.3649 -0.2526
 5301SOL    HW116223   4.191   4.685   4.143  1.0822  0.9697 -3.3363
 5301SOL    HW216224   4.275   4.547   4.122  1.3103  0.7642 -1.2486
 5302SOL     OW16225   5.561   5.167   1.878 -0.3406  0.4911 -0.5808
 5302SOL    HW116226   5.463   5.182   1.897 -0.6587 -0.7654 -1.1139
 5302SOL    HW216227   5.579   5.181   1.781 -0.2281 -0.4003 -0.6949
 5303SOL     OW16228   4.219   0.659   4.724  0.1322  0.2615  0.1352
 5303SOL    HW116229   4.213   0.626   4.818 -3.2656  0.4668  0.1344
 5303SOL    HW216230   4.173   0.593   4.664 -2.1784  2.4024 -0.6023
 5304SOL     OW16231   0.503   3.058   0.695 -0.5065  0.1497 -0.1073
 5304SOL    HW116232   0.437   3.024   0.627 -0.3425 -1.0052  0.2924
 5304SOL    HW216233   0.550   3.137   0.657 -0.8347 -0.1155 -1.1251
 5305SOL     OW16234   5.137   5.007   0.673  0.1920  0.3137  0.4979
 5305SOL    HW116235   5.081   4.935   0.634  0.7452 -0.5969  1.3591
 5305SOL    HW216236   5.138   5.000   0.772  0.1866  1.5682  0.6128
 5306SOL     OW16237   3.432   4.406   3.764 -0.2320  0.6666  0.1674
 5306SOL    HW116238   3.518   4.375   3.723 -0.3954 -1.4472  1.2658
 5306SOL    HW216239   3.361   4.408   3.694  0.4088  1.1204 -0.4804
 5307SOL     OW16240   2.867   5.280   2.590  0.5108  0.1663 -0.1129
 5307SOL    HW116241   2.849   5.311   2.683  2.5336  0.3188  0.2580
 5307SOL    HW216242   2.894   5.184   2.590 -1.9705 -0.6283 -0.8726
 5308SOL     OW16243   3.950   4.362   2.579 -0.2979  0.2316  0.0666
 5308SOL    HW116244   3.958   4.263   2.594  0.7990 -0.0179 -1.8134
 5308SOL    HW216245   4.027   4.408   2.623  1.4188 -0.2163 -2.2786
 5309SOL     OW16246   4.765   4.997   0.377  0.6384  0.3348 -0.1098
 5309SOL    HW116247   4.822   5.022   0.299 -0.0018  0.2251 -0.6218
 5309SOL    HW216248   4.687   5.060   0.382  0.1782 -0.2265 -0.1145
 5310SOL     OW16249   0.037   0.080   3.874 -0.2948  0.0638  0.2349
 5310SOL    HW116250  -0.032   0.049   3.939 -0.4465  0.9409  0.4993
 5310SOL    HW216251   0.112   0.124   3.923  0.1704 -0.3376 -0.0975
 5311SOL     OW16252   2.821   4.596   2.199 -0.2773 -0.4815  0.2601
 5311SOL    HW116253   2.860   4.521   2.253  1.4421 -0.0982 -0.3815
 5311SOL    HW216254   2.852   4.589   2.104 -2.7291 -0.7703 -0.5960
 5312SOL     OW16255   1.886   1.833   3.059  0.0101  0.1392  0.0742
 5312SOL    HW116256   1.874   1.770   2.982 -2.3695 -1.6348  1.7695
 5312SOL    HW216257   1.861   1.926   3.031 -1.8704 -0.6548 -1.0220
 5313SOL     OW16258   4.576   3.815   3.500 -0.0289 -0.0803 -0.3448
 5313SOL    HW116259   4.540   3.753   3.569 -1.0457 -0.3585 -1.1014
 5313SOL    HW216260   4.516   3.815   3.420  1.1830  0.1405 -1.2867
 5314SOL     OW16261   2.853   4.906   2.698 -0.4644 -0.1184 -0.0157
 5314SOL    HW116262   2.930   4.970   2.685 -0.5630  0.4980  2.1393
 5314SOL    HW216263   2.874   4.820   2.652  1.0389  0.4099 -0.3956
 5315SOL     OW16264   5.217   4.570   3.334 -0.3916  0.0053 -0.2521
 5315SOL    HW116265   5.142   4.627   3.366  0.2763  0.6172  0.2488
 5315SOL    HW216266   5.186   4.515   3.256 -1.9272 -1.2141  1.1465
 5316SOL     OW16267   3.760   2.846   3.320  0.1887  0.0703  0.4574
 5316SOL    HW116268   3.774   2.944   3.307  1.0464  0.1644  1.9374
 5316SOL    HW216269   3.710   2.809   3.241  1.2173  1.3868 -0.8644
 5317SOL     OW16270   5.332   2.922   3.624  0.1174  0.1602  0.1620
 5317SOL    HW116271   5.242   2.895   3.660  0.5510 -1.2237  0.2762
 5317SOL    HW216272   5.385   2.840   3.603  2.2566  0.8794  2.3119
 5318SOL     OW16273   4.858   4.113   0.830  0.8764 -0.8038 -0.1740
 5318SOL    HW116274   4.877   4.114   0.732  0.5736 -1.4989 -0.2491
 5318SOL    HW216275   4.939   4.140   0.881  0.8047  0.3342 -0.6432
 5319SOL     OW16276   4.520   4.785   2.096  0.5155  0.1618  0.2366
 5319SOL    HW116277   4.557   4.726   2.024 -0.5813 -1.5272  0.9971
 5319SOL    HW216278   4.453   4.734   2.149  0.9906  1.4938  2.2096
 5320SOL     OW16279   4.457   4.333   3.865  0.0211 -0.4221  0.1100
 5320SOL    HW116280   4.504   4.317   3.778  0.7170 -0.8401  0.5544
 5320SOL    HW216281   4.483   4.261   3.930  1.1007  0.9877  1.3073
 5321SOL     OW16282   5.154   5.130   3.546  0.2195  0.0159 -0.1457
 5321SOL    HW116283   5.171   5.032   3.529  1.0935  0.1438 -0.0881
 5321SOL    HW216284   5.231   5.168   3.598 -0.4973  0.5566  0.5381
 5322SOL     OW16285   4.061   0.752   1.778 -0.0066 -0.7248  0.1649
 5322SOL    HW116286   4.025   0.825   1.720 -0.4454  0.1867  1.5330
 5322SOL    HW216287   3.998   0.736   1.854  1.4156 -0.5988  1.4182
 5323SOL     OW16288   3.774   4.143   3.714 -0.0322  0.0535 -0.0688
 5323SOL    HW116289   3.722   4.150   3.799  1.1664 -0.4373  0.7377
 5323SOL    HW216290   3.846   4.075   3.725  0.2613  0.1168 -1.4299
 5324SOL     OW16291   3.524   4.450   2.712  0.4602  0.7522  0.0927
 5324SOL    HW116292   3.563   4.466   2.803  0.2855  0.5290  0.2070
 5324SOL    HW216293   3.574   4.377   2.666  1.0961  1.4364 -0.3308
 5325SOL     OW16294   0.412   3.581   1.812  0.4839 -0.2825 -0.0547
 5325SOL    HW116295   0.339   3.545   1.869  0.2013 -0.1529 -0.3321
 5325SOL    HW216296   0.444   3.668   1.848  0.7641 -0.5213  0.2820
 5326SOL     OW16297   4.108   4.509   1.964 -0.1036  0.3257  0.3017
 5326SOL    HW116298   4.069   4.573   1.898 -0.9389 -0.0327  0.4301
 5326SOL    HW216299   4.052   4.426   1.967  1.0650 -0.4949  0.0090
 5327SOL     OW16300   5.484   0.161   4.445  0.3696  0.1600  1.1850
 5327SOL    HW116301   5.502   0.078   4.498  1.3270  0.4836  1.3853
 5327SOL    HW216302   5.433   0.226   4.502 -0.4806 -0.3231  0.9899
 5328SOL     OW16303   0.460   4.669   3.458  0.6763 -0.1560  0.3376
 5328SOL    HW116304   0.409   4.585   3.439  0.1644 -0.2967  2.1603
 5328SOL    HW216305   0.426   4.742   3.399 -1.3385 -0.3668  1.1639
 5329SOL     OW16306   4.345   5.285   4.225  0.0241 -0.5088  0.5232
 5329SOL    HW116307   4.296   5.199   4.214 -0.8004 -0.2140  1.7383
 5329SOL    HW216308   4.285   5.362   4.201  0.4310 -0.2103  0.4316
 5330SOL     OW16309   3.092   5.492   2.633 -0.2526  0.0309  0.2793
 5330SOL    HW116310   3.045   5.542   2.706 -0.6637  0.1547 -0.0675
 5330SOL    HW216311   3.030   5.425   2.593  1.0020 -2.6200  2.4362
 5331SOL     OW16312   5.041   4.902   2.856 -0.1026 -0.1271  0.2220
 5331SOL    HW116313   5.084   4.847   2.927  0.2509 -0.2192 -0.0600
 5331SOL    HW216314   5.041   4.851   2.769 -0.2251  0.1175  0.0756
 5332SOL     OW16315   4.518   4.988   2.475  0.0209  0.5539 -0.4602
 5332SOL    HW116316   4.582   4.939   2.416 -0.2490  0.4974 -0.7054
 5332SOL    HW216317   4.566   5.017   2.559 -0.1072 -1.1943  0.2599
 5333SOL     OW16318   4.131   0.080   3.225 -0.5374 -0.0417 -0.1817
 5333SOL    HW116319   4.063   0.077   3.152  0.4445  1.4943 -1.1915
 5333SOL    HW216320   4.105   0.151   3.291 -0.2917  0.0544 -0.1883
 5334SOL     OW16321   4.576   5.079   1.352  0.1163  0.2581 -0.2971
 5334SOL    HW116322   4.536   5.159   1.309 -1.5066 -0.8119 -0.8451
 5334SOL    HW216323   4.628   5.027   1.284  3.6061  2.1792  0.5979
 5335SOL     OW16324   0.327   4.255   3.061 -0.0743  0.0930  0.7524
 5335SOL    HW116325   0.277   4.341   3.055 -0.3915 -0.1793 -1.0489
 5335SOL    HW216326   0.263   4.180   3.077 -0.3229 -0.2347 -1.3925
 5336SOL     OW16327   4.191   3.473   2.089 -0.1320  0.1495 -0.1530
 5336SOL    HW116328   4.286   3.499   2.074  0.3385 -0.9557  0.7945
 5336SOL    HW216329   4.166   3.490   2.184 -0.5490 -0.5940 -0.1254
 5337SOL     OW16330   1.252   1.353   4.034 -0.2203 -0.2195  0.4228
 5337SOL    HW116331   1.158   1.342   4.066 -1.4741 -0.0468 -2.8036
 5337SOL    HW216332   1.267   1.447   4.005  1.0607 -0.1840  1.1225
 5338SOL     OW16333   4.782   3.644   4.294 -0.3037  0.2645  0.1557
 5338SOL    HW116334   4.767   3.604   4.384 -0.6087  1.2459  0.5548
 5338SOL    HW216335   4.711   3.611   4.231 -0.2185 -0.2540  0.3274
 5339SOL     OW16336   5.559   4.427   4.561 -0.1351 -0.3621  0.1554
 5339SOL    HW116337   5.524   4.508   4.514 -2.2361 -2.3023 -1.8832
 5339SOL    HW216338   5.493   4.397   4.630 -0.7201 -1.8250 -0.9889
 5340SOL     OW16339   4.013   0.182   2.313 -0.2141  0.1463  0.1262
 5340SOL    HW116340   4.020   0.120   2.391 -3.6619 -0.5651  0.0251
 5340SOL    HW216341   4.036   0.132   2.229  0.3070 -0.0057  0.3533
 5341SOL     OW16342   0.627   3.675   4.402  0.6458 -0.3160 -0.3172
 5341SOL    HW116343   0.674   3.756   4.369 -0.1025 -0.0589 -0.7525
 5341SOL    HW216344   0.609   3.684   4.500 -0.2013  0.4290 -0.5301
 5342SOL     OW16345   2.284   5.222   0.917  1.2016 -0.4603 -0.2139
 5342SOL    HW116346   2.369   5.260   0.880  1.0186 -1.6946 -2.0063
 5342SOL    HW216347   2.298   5.125   0.939  0.6474 -0.3145  0.8598
 5343SOL     OW16348   4.129   4.781   2.108 -0.0168  0.0083 -1.4925
 5343SOL    HW116349   4.194   4.735   2.169 -0.8573  0.3187 -0.3234
 5343SOL    HW216350   4.162   4.874   2.089  0.1914 -0.0498 -1.4204
 5344SOL     OW16351   3.989   5.228   4.075  0.7608  0.2229 -1.1994
 5344SOL    HW116352   3.892   5.214   4.094  1.2217 -1.7226 -0.0587
 5344SOL    HW216353   4.013   5.182   3.990  0.2950  2.5598 -2.7009
 5345SOL     OW16354   0.883   0.374   4.380 -0.4363 -0.2352 -0.1453
 5345SOL    HW116355   0.899   0.391   4.478 -0.8546  0.7574 -0.2395
 5345SOL    HW216356   0.847   0.282   4.368  3.1276 -1.8608  0.2657
 5346SOL     OW16357   3.867   4.086   4.157  0.4171 -0.3844 -0.4006
 5346SOL    HW116358   3.935   4.136   4.211 -1.8023  2.7230 -0.1790
 5346SOL    HW216359   3.785   4.071   4.212 -0.6960 -0.0359 -1.8980
 5347SOL     OW16360   4.454   3.452   1.943  0.7931  0.1423 -0.2559
 5347SOL    HW116361   4.451   3.408   1.853  0.0239  1.1408 -0.7382
 5347SOL    HW216362   4.495   3.389   2.009 -0.1299 -1.2356 -0.9464
 5348SOL     OW16363   4.886   5.142   2.009 -0.4970  0.1770 -0.7300
 5348SOL    HW116364   4.927   5.233   2.018  0.4202 -0.3257  0.5661
 5348SOL    HW216365   4.951   5.081   1.965 -1.3332  0.2564 -2.1396
 5349SOL     OW16366   3.354   2.671   4.458 -0.1297  0.1412 -0.2612
 5349SOL    HW116367   3.450   2.698   4.452  0.1149 -0.5237  0.5333
 5349SOL    HW216368   3.338   2.590   4.401 -0.0164 -0.2640  0.2725
 5350SOL     OW16369   4.087   4.777   1.834 -0.9069  0.7654 -0.3068
 5350SOL    HW116370   4.142   4.859   1.818  2.2096 -1.0123  0.4648
 5350SOL    HW216371   4.085   4.757   1.932 -0.2547 -0.8779 -0.5987
 5351SOL     OW16372   0.020   4.835   3.432  0.5189  0.3389  0.3463
 5351SOL    HW116373   0.052   4.924   3.398 -1.7153  2.0961  2.4383
 5351SOL    HW216374  -0.066   4.812   3.387  1.5254 -1.2888 -0.8324
 5352SOL     OW16375   4.375   3.752   2.568 -0.6687  0.0408 -0.1201
 5352SOL    HW116376   4.439   3.690   2.614 -0.7337  0.1686  0.1454
 5352SOL    HW216377   4.420   3.795   2.490 -0.7454 -0.6478 -0.5519
 5353SOL     OW16378   0.673   2.300   2.222 -0.3363  0.1012  0.2307
 5353SOL    HW116379   0.636   2.311   2.130 -1.4317  0.0301  0.6373
 5353SOL    HW216380   0.748   2.234   2.220  1.2567  1.8424 -0.9712
 5354SOL     OW16381   4.376   3.847   3.292 -0.2636  0.6399 -0.2579
 5354SOL    HW116382   4.283   3.876   3.311 -0.5854  0.0551 -0.9050
 5354SOL    HW216383   4.406   3.884   3.204 -0.3006 -0.1036 -0.5908
 5355SOL     OW16384   3.333   0.613   2.080 -0.1958  0.3898 -0.7856
 5355SOL    HW116385   3.328   0.540   2.148 -0.8531 -1.0849 -2.3296
 5355SOL    HW216386   3.428   0.637   2.064  0.2884 -2.0932 -2.1542
 5356SOL     OW16387   4.847   3.659   1.517  0.3818  0.1238  0.2224
 5356SOL    HW116388   4.922   3.636   1.456 -0.6123 -1.7453 -0.3680
 5356SOL    HW216389   4.788   3.728   1.474  1.0499  0.6734  0.1678
 5357SOL     OW16390   3.252   4.497   4.481  0.3505 -0.2319  0.6042
 5357SOL    HW116391   3.160   4.524   4.510  0.5560  2.2046 -0.7415
 5357SOL    HW216392   3.315   4.573   4.497  1.2066 -0.1475 -2.5170
 5358SOL     OW16393   3.806   1.795   2.265 -0.0132 -0.6497  0.4419
 5358SOL    HW116394   3.873   1.797   2.190  0.9670  1.2202  1.2856
 5358SOL    HW216395   3.841   1.849   2.342 -1.9992 -0.5934  1.3693
 5359SOL     OW16396   0.557   0.557   3.395 -0.2464  0.3052 -0.2235
 5359SOL    HW116397   0.509   0.475   3.363  0.5870 -0.8214  1.2709
 5359SOL    HW216398   0.656   0.542   3.390 -0.0849  0.8441  0.9212
 5360SOL     OW16399   0.443   4.077   3.768 -0.8773 -0.6059 -0.2900
 5360SOL    HW116400   0.508   4.006   3.796 -1.3900 -0.7537  0.5473
 5360SOL    HW216401   0.386   4.103   3.846 -1.4058 -0.0293 -0.8578
 5361SOL     OW16402   3.975   4.789   4.358  0.0030 -0.5623  0.8946
 5361SOL    HW116403   3.891   4.840   4.343  0.8264  0.5010 -0.3238
 5361SOL    HW216404   3.954   4.692   4.372 -1.3046 -0.6571 -1.3394
 5362SOL     OW16405   0.588   0.252   3.903 -0.7579  0.2301  0.0456
 5362SOL    HW116406   0.524   0.183   3.870  0.5784 -0.2711 -1.7255
 5362SOL    HW216407   0.679   0.211   3.911 -0.0596  1.6177 -0.4630
 5363SOL     OW16408   0.143   3.207   3.093  0.7190 -0.2575 -0.5182
 5363SOL    HW116409   0.150   3.169   3.001  0.0422  0.0845 -0.7157
 5363SOL    HW216410   0.129   3.133   3.159 -1.2812 -0.3496 -0.9751
 5364SOL     OW16411   3.589   4.599   2.515 -0.4907 -0.2387  0.4647
 5364SOL    HW116412   3.558   4.535   2.585  0.4574 -0.4801  0.6759
 5364SOL    HW216413   3.519   4.606   2.443 -1.4023 -0.1093  1.3383
 5365SOL     OW16414   0.640   2.447   4.219  0.3115  0.6308  0.1580
 5365SOL    HW116415   0.661   2.463   4.315  0.3089 -0.6998  0.3955
 5365SOL    HW216416   0.725   2.440   4.167  0.4231 -1.1482  0.5114
 5366SOL     OW16417   4.683   4.579   3.369 -0.1836  0.2233  0.5654
 5366SOL    HW116418   4.650   4.517   3.440 -0.7446  0.7817  0.8056
 5366SOL    HW216419   4.617   4.582   3.294  0.9334 -1.2270 -0.5231
 5367SOL     OW16420   4.946   4.214   3.836 -0.0505 -0.3453 -0.2413
 5367SOL    HW116421   4.947   4.238   3.933 -0.5642  0.3025 -0.3842
 5367SOL    HW216422   4.889   4.280   3.786 -1.2629 -1.6866 -0.7160
 5368SOL     OW16423   4.682   5.141   5.080  0.1311 -0.0798 -0.1384
 5368SOL    HW116424   4.725   5.078   5.017 -0.3186 -1.2922  0.7253
 5368SOL    HW216425   4.746   5.215   5.102 -0.2579  1.3215 -3.2253
 5369SOL     OW16426   2.893   4.604   1.908 -0.3775  0.2915  0.4025
 5369SOL    HW116427   2.847   4.518   1.887  0.7944 -0.5602  1.2365
 5369SOL    HW216428   2.889   4.664   1.828 -1.9245 -0.1823  0.0826
 5370SOL     OW16429   2.960   4.125   1.687 -0.0406 -0.9540  0.4832
 5370SOL    HW116430   2.860   4.131   1.694 -0.0757 -0.2339 -0.4578
 5370SOL    HW216431   3.001   4.205   1.730  0.1314 -1.1847  0.7521
 5371SOL     OW16432   4.952   0.426   1.327  0.0447  0.1857 -0.2840
 5371SOL    HW116433   4.979   0.333   1.353 -0.0316  0.3878  0.5615
 5371SOL    HW216434   4.933   0.479   1.410 -3.7964 -0.1571 -0.7576
 5372SOL     OW16435   4.418   4.093   4.243 -0.1708 -0.4810 -0.4334
 5372SOL    HW116436   4.323   4.067   4.262  0.1092 -0.7756  0.6089
 5372SOL    HW216437   4.476   4.012   4.251  0.2259 -0.2289 -0.7251
 5373SOL     OW16438   3.730   5.379   2.485 -0.4268  0.4576 -0.8201
 5373SOL    HW116439   3.729   5.476   2.461 -1.4994  0.5242 -0.5544
 5373SOL    HW216440   3.637   5.350   2.509  0.4686  0.4417  3.3371
 5374SOL     OW16441   4.139   4.612   5.345  0.3457  0.6043  0.2428
 5374SOL    HW116442   4.083   4.577   5.270  1.9477 -0.6530 -0.4123
 5374SOL    HW216443   4.112   4.707   5.365 -0.7620  0.6399 -1.2572
 5375SOL     OW16444   5.210   3.357   3.906 -0.0044 -0.0786  0.2744
 5375SOL    HW116445   5.219   3.349   3.807  0.7754  0.8394  0.2567
 5375SOL    HW216446   5.207   3.454   3.932  2.5871 -0.1936  1.3410
 5376SOL     OW16447   4.585   3.402   2.457 -0.1510 -0.8653  0.7825
 5376SOL    HW116448   4.679   3.370   2.469  0.1299 -1.2163 -1.7676
 5376SOL    HW216449   4.525   3.324   2.442 -0.9808 -0.6764  2.8261
 5377SOL     OW16450   5.034   4.132   3.255  0.5858  0.1076  1.0490
 5377SOL    HW116451   5.020   4.041   3.215  0.8283 -0.1307  1.5021
 5377SOL    HW216452   4.959   4.152   3.318  0.3398  0.3758  0.6730
 5378SOL     OW16453   3.037   5.075   2.113  0.4101  0.1951 -0.3385
 5378SOL    HW116454   2.960   5.114   2.063  1.4580  2.0474 -0.6315
 5378SOL    HW216455   3.103   5.148   2.134  1.3641 -1.0481  1.2333
 5379SOL     OW16456   4.152   3.249   0.995  0.4513 -0.2493  0.4037
 5379SOL    HW116457   4.152   3.280   1.090  0.8499  1.1294 -0.0224
 5379SOL    HW216458   4.079   3.296   0.944 -0.7843 -2.1193  0.3482
 5380SOL     OW16459   3.094   4.675   2.961 -0.2221  0.5691  0.3788
 5380SOL    HW116460   3.151   4.625   2.896  0.9388  1.2861  0.8167
 5380SOL    HW216461   3.097   4.773   2.940 -4.5949  0.4334 -2.1656
 5381SOL     OW16462   4.623   0.053   1.540 -0.0729 -0.0175 -0.5158
 5381SOL    HW116463   4.553   0.123   1.523  0.2442  0.6171  0.6561
 5381SOL    HW216464   4.579  -0.035   1.556 -0.5260  0.0843 -1.1476
 5382SOL     OW16465   3.462   0.871   3.081  0.0093  0.1019 -0.7254
 5382SOL    HW116466   3.445   0.863   3.180  0.9205 -2.4591 -0.7038
 5382SOL    HW216467   3.412   0.950   3.045 -0.1512  1.2621  1.8101
 5383SOL     OW16468   4.320   3.041   1.158  0.0823  0.0678 -0.1610
 5383SOL    HW116469   4.275   3.115   1.207  3.0042  2.2127 -0.4484
 5383SOL    HW216470   4.329   3.065   1.062  0.3056 -1.0992 -0.4519
 5384SOL     OW16471   4.075   3.540   4.071  0.1980  0.3222 -0.0586
 5384SOL    HW116472   4.075   3.442   4.051 -1.8535  0.3543 -0.3874
 5384SOL    HW216473   3.985   3.568   4.104  0.9497  1.9832  0.7395
 5385SOL     OW16474   3.385   3.747   4.837 -0.0207 -0.0606  0.2042
 5385SOL    HW116475   3.399   3.817   4.767  3.1304 -1.7865 -1.0827
 5385SOL    HW216476   3.429   3.776   4.922 -0.0464  0.1792  0.1360
 5386SOL     OW16477   3.832   1.328   1.557 -0.0097  0.3172 -0.1524
 5386SOL    HW116478   3.878   1.259   1.613 -1.4893  1.6175  2.9196
 5386SOL    HW216479   3.900   1.393   1.523  0.8271  0.7466  2.1275
 5387SOL     OW16480   4.775   4.380   0.575 -0.3661  0.5134  0.0713
 5387SOL    HW116481   4.714   4.415   0.647 -0.5173  1.2934 -0.4236
 5387SOL    HW216482   4.737   4.404   0.486 -0.0223 -0.1876 -0.2709
 5388SOL     OW16483   5.363   4.376   4.214  0.2432  0.2139 -0.4043
 5388SOL    HW116484   5.304   4.318   4.158  0.1136 -0.3022  0.2590
 5388SOL    HW216485   5.306   4.440   4.266  0.2443 -0.4026  0.3696
 5389SOL     OW16486   3.172   4.835   3.411  0.2019  0.0617  0.2956
 5389SOL    HW116487   3.175   4.934   3.400 -0.5612 -0.1655 -3.3373
 5389SOL    HW216488   3.076   4.804   3.410  0.4739 -0.8011 -0.0786
 5390SOL     OW16489   3.668   4.367   3.635 -0.2158  0.1669 -0.2409
 5390SOL    HW116490   3.722   4.283   3.642  1.9580  1.5325  0.4173
 5390SOL    HW216491   3.671   4.401   3.541  0.6024  0.5384 -0.0906
 5391SOL     OW16492   1.186   5.129   2.470 -0.3555 -0.1342 -0.4484
 5391SOL    HW116493   1.102   5.128   2.524 -1.7346  1.1374 -2.3946
 5391SOL    HW216494   1.177   5.199   2.398  1.7403 -1.0742 -1.6959
 5392SOL     OW16495   0.456   0.432   4.370 -1.0559  0.0081 -0.0349
 5392SOL    HW116496   0.514   0.363   4.411  0.2039  0.2310 -1.3785
 5392SOL    HW216497   0.479   0.443   4.273 -4.3513 -0.9649 -1.0598
 5393SOL     OW16498   4.727   4.136   4.447 -0.0586 -0.1998 -0.0560
 5393SOL    HW116499   4.722   4.230   4.413 -0.9442 -0.7286 -1.4758
 5393SOL    HW216500   4.819   4.118   4.481  0.4822  0.7885 -0.9493
 5394SOL     OW16501   4.912   4.863   5.331  0.3222 -0.5170 -0.1624
 5394SOL    HW116502   4.960   4.944   5.363 -0.0462  0.5818 -2.2350
 5394SOL    HW216503   4.864   4.820   5.408  0.5445  1.1944  0.9774
 5395SOL     OW16504   5.142   1.236   3.980  0.6338 -0.7267 -0.4916
 5395SOL    HW116505   5.196   1.154   3.961 -0.7076 -1.9751  0.6945
 5395SOL    HW216506   5.065   1.211   4.040 -0.0759  1.3371 -0.4610
 5396SOL     OW16507   4.196   4.966   0.461 -1.0394 -0.4863  0.0054
 5396SOL    HW116508   4.288   4.947   0.497 -0.5824 -0.8052 -1.2669
 5396SOL    HW216509   4.187   5.064   0.442 -1.1312 -0.3854  0.5400
 5397SOL     OW16510   5.092   5.182   0.311 -0.3712  0.0393  0.5704
 5397SOL    HW116511   5.085   5.216   0.405  2.7611 -0.4377  1.0772
 5397SOL    HW216512   5.054   5.090   0.305 -0.0255 -0.1705  1.5167
 5398SOL     OW16513   4.531   0.505   0.530 -0.4102 -0.0326  0.0981
 5398SOL    HW116514   4.492   0.594   0.505  0.0020  0.3676  0.8578
 5398SOL    HW216515   4.555   0.455   0.447 -0.4727  0.6402 -0.3332
 5399SOL     OW16516   5.423   4.922   2.946  0.0418  0.6525 -0.6915
 5399SOL    HW116517   5.365   5.003   2.951 -1.1860 -0.2482  0.8726
 5399SOL    HW216518   5.371   4.845   2.909  0.5184  0.0729 -0.2060
 5400SOL     OW16519   0.492   4.304   4.571 -0.4389 -0.0649 -0.4876
 5400SOL    HW116520   0.406   4.355   4.576  0.4809  1.8473 -2.3061
 5400SOL    HW216521   0.499   4.260   4.481  1.1410  1.1537 -0.9973
 5401SOL     OW16522   2.357   4.910   4.929  0.2256 -0.5252  0.3861
 5401SOL    HW116523   2.374   4.972   5.006 -0.1087  0.1171 -0.0394
 5401SOL    HW216524   2.440   4.901   4.875  0.2440 -0.3395  0.3813
 5402SOL     OW16525   5.574   0.432   3.975 -0.3095 -0.3034  0.1024
 5402SOL    HW116526   5.494   0.444   3.916  0.4090 -1.7349 -1.2302
 5402SOL    HW216527   5.546   0.384   4.059 -0.8806 -0.7023 -0.3013
 5403SOL     OW16528   4.177   4.957   2.841 -0.4609  0.3012  0.1487
 5403SOL    HW116529   4.263   5.000   2.812 -0.8554  0.4575 -0.8243
 5403SOL    HW216530   4.145   4.896   2.769 -0.3461 -0.9966  1.1684
 5404SOL     OW16531   4.399   0.236   4.071 -0.2665  0.8156  0.4930
 5404SOL    HW116532   4.358   0.241   4.162 -1.2271  0.1777  0.1099
 5404SOL    HW216533   4.369   0.152   4.026  0.3589  1.0322 -0.3393
 5405SOL     OW16534   4.170   4.520   3.206 -0.2323 -0.8668  0.0888
 5405SOL    HW116535   4.160   4.611   3.165  3.4231 -1.1574 -1.7752
 5405SOL    HW216536   4.204   4.529   3.300 -1.1076 -0.3608  0.3780
 5406SOL     OW16537   3.863   4.639   0.482 -0.4416 -0.1837 -0.1577
 5406SOL    HW116538   3.772   4.607   0.506 -0.6517 -0.8016 -1.6744
 5406SOL    HW216539   3.931   4.571   0.510 -0.8683 -2.0342 -3.1830
 5407SOL     OW16540   5.397   0.803   0.827  0.1714  0.3378 -0.0358
 5407SOL    HW116541   5.328   0.747   0.871  0.8903 -0.3893  0.1882
 5407SOL    HW216542   5.433   0.755   0.747 -1.8920  2.0731 -2.1621
 5408SOL     OW16543   3.731   1.198   4.043  0.2226  0.0976 -0.1200
 5408SOL    HW116544   3.717   1.295   4.025 -0.5603  0.2529  1.1696
 5408SOL    HW216545   3.725   1.146   3.958 -1.9736  0.8888 -0.4918
 5409SOL     OW16546   4.151   3.116   5.417 -0.2867  0.2801  0.3079
 5409SOL    HW116547   4.188   3.204   5.387 -0.6894  1.0867  2.0539
 5409SOL    HW216548   4.219   3.045   5.404  0.6504  1.1473  0.3792
 5410SOL     OW16549   4.837   4.485   3.790  0.4293 -0.4504 -0.2836
 5410SOL    HW116550   4.787   4.526   3.867 -0.3704 -1.3995 -0.2815
 5410SOL    HW216551   4.925   4.531   3.780 -0.6807  1.7071 -0.6938
 5411SOL     OW16552   0.295   5.193   3.456  0.4605  0.1167 -0.3386
 5411SOL    HW116553   0.263   5.287   3.466  1.2372  0.2205  1.6493
 5411SOL    HW216554   0.395   5.193   3.449  0.4019 -0.5144 -1.3400
 5412SOL     OW16555   5.511   0.377   4.246 -0.8118  0.2997 -0.8793
 5412SOL    HW116556   5.475   0.285   4.257 -2.5736  0.7218 -2.5961
 5412SOL    HW216557   5.440   0.444   4.270  0.3774  1.2486  0.1813
 5413SOL     OW16558   0.707   4.616   3.398  0.0336 -0.4087  0.2483
 5413SOL    HW116559   0.712   4.598   3.300 -0.5616 -3.0778  0.6123
 5413SOL    HW216560   0.611   4.629   3.425  0.2480  0.9871  0.4208
 5414SOL     OW16561   1.296   0.101   4.429  0.3132  0.6334  0.3470
 5414SOL    HW116562   1.377   0.124   4.484  1.7972 -2.1327 -0.4858
 5414SOL    HW216563   1.255   0.017   4.465 -0.3119  0.2862 -1.1068
 5415SOL     OW16564   3.794   4.250   0.406 -0.0052 -0.8831  0.1180
 5415SOL    HW116565   3.726   4.214   0.469 -0.2206 -1.1756 -0.2814
 5415SOL    HW216566   3.864   4.300   0.457 -0.5512 -0.5311  0.5196
 5416SOL     OW16567   0.118   5.001   3.055 -0.5186 -0.6905  0.7235
 5416SOL    HW116568   0.122   5.018   3.153  1.1317  0.9523  0.4448
 5416SOL    HW216569   0.025   4.975   3.029 -1.3911  0.4570  2.4895
 5417SOL     OW16570   3.525   5.217   5.529 -0.2410 -0.2695 -0.3179
 5417SOL    HW116571   3.509   5.276   5.450 -2.0887 -1.1861 -0.6906
 5417SOL    HW216572   3.557   5.272   5.606 -2.4785  1.3902 -0.4615
 5418SOL     OW16573   4.225   3.286   0.278 -0.1830  0.8072 -0.1999
 5418SOL    HW116574   4.195   3.212   0.217  0.2612  2.0602 -2.0107
 5418SOL    HW216575   4.208   3.374   0.234 -0.0524  1.7681  1.6181
 5419SOL     OW16576   5.045   4.541   1.696  0.2534 -0.2981  0.0837
 5419SOL    HW116577   5.030   4.451   1.656  0.8440 -0.0107 -0.8338
 5419SOL    HW216578   5.048   4.534   1.796  3.7716 -1.8976  0.0147
 5420SOL     OW16579   5.559   2.879   4.243 -0.3021  0.5085 -0.3299
 5420SOL    HW116580   5.517   2.965   4.216  0.9903  1.2110 -0.1771
 5420SOL    HW216581   5.527   2.853   4.335 -0.8597  0.7002 -0.4662
 5421SOL     OW16582   5.242   4.886   5.241 -0.4212  0.8302  0.1312
 5421SOL    HW116583   5.261   4.979   5.272  0.0309  0.3073  1.5101
 5421SOL    HW216584   5.294   4.821   5.297  1.7644 -0.1569 -2.7743
 5422SOL     OW16585   2.743   4.428   0.391 -0.0646 -0.1577  0.2807
 5422SOL    HW116586   2.741   4.330   0.368 -0.9219  0.4044 -2.4265
 5422SOL    HW216587   2.674   4.448   0.460 -0.9454 -1.2328 -0.2633
 5423SOL     OW16588   0.947   0.325   4.979 -0.1761  0.5303 -0.1550
 5423SOL    HW116589   0.931   0.250   4.915 -0.8374 -0.0897  0.7128
 5423SOL    HW216590   1.020   0.383   4.944  1.7296 -1.5940  0.0430
 5424SOL     OW16591   4.310   1.336   3.661  0.2529  0.1825  0.1553
 5424SOL    HW116592   4.391   1.387   3.632 -0.1795  0.7437 -0.0865
 5424SOL    HW216593   4.337   1.247   3.697  0.8321 -0.3788 -1.5946
 5425SOL     OW16594   4.274   3.874   3.983  0.0453 -0.0949 -0.5845
 5425SOL    HW116595   4.252   3.888   4.080  1.5536  1.8571 -0.4538
 5425SOL    HW216596   4.237   3.786   3.953 -1.2101 -0.3713  1.5137
 5426SOL     OW16597   4.804   3.514   5.031  0.5680 -0.0909 -0.1974
 5426SOL    HW116598   4.780   3.607   5.057 -3.0127 -0.9225  0.0856
 5426SOL    HW216599   4.832   3.463   5.112  2.1176  0.5981 -0.2820
 5427SOL     OW16600   4.898   5.042   3.791 -0.4272  0.0890 -0.1136
 5427SOL    HW116601   4.891   5.109   3.717 -0.6980 -0.1809 -0.3317
 5427SOL    HW216602   4.968   5.072   3.856  1.5930 -0.9173 -1.7566
 5428SOL     OW16603   3.899   4.988   0.159 -0.3985 -0.3766 -0.0717
 5428SOL    HW116604   3.807   4.973   0.124  0.4200 -0.1229 -2.5168
 5428SOL    HW216605   3.961   5.009   0.083  1.6574 -0.3709  1.5112
 5429SOL     OW16606   4.274   0.115   0.328  0.3695 -0.3502 -0.5296
 5429SOL    HW116607   4.308   0.030   0.288  0.9620  0.2526 -1.3558
 5429SOL    HW216608   4.182   0.134   0.295 -0.0814 -1.0690  0.2885
 5430SOL     OW16609   4.952   5.448   0.239 -0.1861 -0.6259 -0.2928
 5430SOL    HW116610   4.998   5.379   0.296 -1.1602 -0.9447  0.1139
 5430SOL    HW216611   5.013   5.473   0.163  0.2497 -1.8135 -0.3569
 5431SOL     OW16612   3.945   3.120   0.623  0.0895  0.0392 -0.2729
 5431SOL    HW116613   3.958   3.219   0.621  0.9659 -0.0727 -0.5295
 5431SOL    HW216614   4.012   3.078   0.685 -1.4349 -0.2428  1.2570
 5432SOL     OW16615   0.816   4.041   4.577 -0.6500 -0.4184 -0.2810
 5432SOL    HW116616   0.862   4.023   4.664  1.5871  0.1125 -1.2705
 5432SOL    HW216617   0.856   3.984   4.506  0.3414  1.8556 -1.6761
 5433SOL     OW16618   4.105   5.326   5.159  0.1560  0.6839 -0.2874
 5433SOL    HW116619   4.026   5.292   5.209  1.4405 -1.0980  0.6107
 5433SOL    HW216620   4.136   5.257   5.093  0.0203  1.9981 -1.7993
 5434SOL     OW16621   5.051   4.611   4.908  0.2615  0.0537 -0.2707
 5434SOL    HW116622   5.128   4.645   4.853  0.0946 -1.0196 -1.2067
 5434SOL    HW216623   5.072   4.519   4.941  0.2115  0.5507  1.2132
 5435SOL     OW16624   4.301   0.652   3.818  0.1684  0.0907  0.3157
 5435SOL    HW116625   4.276   0.556   3.832 -0.9674  0.2323 -0.5931
 5435SOL    HW216626   4.282   0.703   3.902 -0.4287 -0.2511  0.3969
 5436SOL     OW16627   0.936   3.460   4.318 -0.3733 -0.2281 -0.2981
 5436SOL    HW116628   0.918   3.389   4.249 -0.4128  0.8009 -1.3749
 5436SOL    HW216629   0.872   3.449   4.394 -2.4136  0.4407 -1.8333
 5437SOL     OW16630   5.158   5.121   4.055 -0.5965 -0.0155 -0.0313
 5437SOL    HW116631   5.202   5.114   4.145 -0.2758 -0.9303 -0.2488
 5437SOL    HW216632   5.061   5.141   4.067 -0.1916  1.8687  0.4616
 5438SOL     OW16633   3.793   3.938   5.220 -0.2487  0.0628 -0.2589
 5438SOL    HW116634   3.843   4.016   5.182 -0.3709  0.0154 -0.5183
 5438SOL    HW216635   3.831   3.915   5.310 -0.0600  0.2736 -0.2828
 5439SOL     OW16636   5.045   0.312   3.105  0.3175 -0.0856  0.2904
 5439SOL    HW116637   5.065   0.251   3.028 -0.2506  0.7060 -0.5057
 5439SOL    HW216638   5.073   0.268   3.191  1.5375 -0.7329 -0.4063
 5440SOL     OW16639   4.505   5.212   3.707 -0.0394  0.5344  0.5667
 5440SOL    HW116640   4.458   5.223   3.620 -0.6933  1.7611  1.0582
 5440SOL    HW216641   4.593   5.260   3.704  0.6550 -0.7119  0.0802
 5441SOL     OW16642   1.557   1.431   5.015 -0.4867 -0.1911  0.0689
 5441SOL    HW116643   1.516   1.352   5.060 -2.3872  0.3073 -0.6946
 5441SOL    HW216644   1.594   1.493   5.084  0.5935 -1.4812  0.6931
 5442SOL     OW16645   1.378   4.550   5.511  0.3620  0.9085 -0.1165
 5442SOL    HW116646   1.467   4.504   5.521 -0.3631 -0.2084  1.6929
 5442SOL    HW216647   1.371   4.624   5.577 -0.7875 -0.3103  1.1943
 5443SOL     OW16648   4.575   5.121   4.168 -0.0239  0.5632  0.5391
 5443SOL    HW116649   4.478   5.142   4.162 -0.3782 -1.1237 -0.0271
 5443SOL    HW216650   4.619   5.139   4.080 -0.0858  0.1156  0.4149
 5444SOL     OW16651   4.960   2.687   4.154 -0.2827 -0.1414  0.1682
 5444SOL    HW116652   4.876   2.732   4.185 -0.0902 -0.0825  0.6011
 5444SOL    HW216653   5.026   2.756   4.123 -0.2210 -0.1627  0.2529
 5445SOL     OW16654   3.173   4.686   0.803  0.2103 -0.3811 -0.0529
 5445SOL    HW116655   3.212   4.773   0.772 -0.6870 -0.4325 -1.4223
 5445SOL    HW216656   3.094   4.704   0.861 -0.7897 -0.2204 -1.3942
 5446SOL     OW16657   4.640   0.589   3.969 -0.0963 -0.5421  0.0009
 5446SOL    HW116658   4.597   0.602   3.880 -0.6709 -0.8217  0.2326
 5446SOL    HW216659   4.578   0.621   4.041  0.1487 -0.7925  0.3284
 5447SOL     OW16660   1.023   3.083   4.307  0.0972 -0.1668  0.0177
 5447SOL    HW116661   1.077   3.001   4.325 -0.7983 -0.6907  0.3543
 5447SOL    HW216662   0.945   3.086   4.368 -0.6738  0.1992 -0.9589
 5448SOL     OW16663   5.519   5.175   2.212  0.6862  0.3667 -0.7539
 5448SOL    HW116664   5.578   5.181   2.292 -0.7495  4.1414  0.2577
 5448SOL    HW216665   5.473   5.087   2.210  1.6293 -0.2652  1.9462
 5449SOL     OW16666   3.640   0.634   4.976  0.1715 -0.9062 -0.3391
 5449SOL    HW116667   3.670   0.657   4.884  0.0428 -0.9494 -0.3918
 5449SOL    HW216668   3.540   0.622   4.977 -0.2556  1.9586  0.3731
 5450SOL     OW16669   1.487   3.342   3.549 -0.0303 -0.2186 -0.3177
 5450SOL    HW116670   1.436   3.370   3.468 -1.5594  1.1553  1.0687
 5450SOL    HW216671   1.434   3.275   3.601  0.8866 -0.9923 -0.3343
 5451SOL     OW16672   3.759   4.489   4.634 -0.4930 -0.6488  0.3583
 5451SOL    HW116673   3.823   4.559   4.604 -1.3609  0.4879  1.0618
 5451SOL    HW216674   3.693   4.471   4.561 -0.4438 -0.5067  0.2771
 5452SOL     OW16675   0.685   4.240   3.833 -0.1415  0.2149  0.1667
 5452SOL    HW116676   0.594   4.200   3.832 -0.1104  0.0808 -2.2815
 5452SOL    HW216677   0.678   4.339   3.837 -0.3183  0.1647  1.6757
 5453SOL     OW16678   3.987   4.401   0.534  0.1137 -0.8025 -0.4306
 5453SOL    HW116679   4.060   4.424   0.471  0.9698 -0.9505  0.4806
 5453SOL    HW216680   4.023   4.345   0.609 -0.7437 -0.1420  0.5062
 5454SOL     OW16681   1.830   4.425   4.949  0.7288 -0.1746  0.2010
 5454SOL    HW116682   1.763   4.425   5.024 -0.2302  1.0917 -0.6090
 5454SOL    HW216683   1.843   4.331   4.916 -1.9120 -0.3181 -0.6686
 5455SOL     OW16684   4.375   3.465   4.460 -0.1019  0.0841 -0.4317
 5455SOL    HW116685   4.301   3.511   4.412  0.1101 -0.4620 -1.2889
 5455SOL    HW216686   4.378   3.498   4.555 -0.0220  1.7590 -0.9793
 5456SOL     OW16687   3.755   2.579   0.097 -0.3375  0.5888 -0.0640
 5456SOL    HW116688   3.828   2.616   0.040 -0.4502  0.3573 -0.3633
 5456SOL    HW216689   3.744   2.481   0.078 -0.2692  0.4738  0.4713
 5457SOL     OW16690   2.617   4.805   1.251 -0.2184  0.3300  0.4148
 5457SOL    HW116691   2.577   4.760   1.331  2.2135  0.7364  1.9724
 5457SOL    HW216692   2.664   4.737   1.195 -0.3178  0.3054  0.3618
 5458SOL     OW16693   5.306   3.730   4.664 -0.1247  0.1925  0.2316
 5458SOL    HW116694   5.338   3.797   4.597  3.1611 -1.6293 -0.2386
 5458SOL    HW216695   5.223   3.686   4.630  0.0066  1.1000 -1.3858
 5459SOL     OW16696   0.258   5.433   4.841  0.2055  0.0672 -0.0050
 5459SOL    HW116697   0.282   5.513   4.786 -0.9069  0.9043  0.6708
 5459SOL    HW216698   0.269   5.350   4.787  2.1148  0.5941 -0.4880
 5460SOL     OW16699   5.104   3.386   4.752 -0.3243 -0.3357  0.2669
 5460SOL    HW116700   5.196   3.381   4.790  0.0389  1.7411 -0.2165
 5460SOL    HW216701   5.039   3.342   4.814  0.9441 -1.6166  0.7264
 5461SOL     OW16702   4.060   3.586   5.179 -0.4704  0.1828  0.5916
 5461SOL    HW116703   3.963   3.606   5.168 -0.4561 -0.1906 -0.3513
 5461SOL    HW216704   4.081   3.570   5.275 -1.3278  0.3352  0.8058
 5462SOL     OW16705   0.265   0.512   5.456  0.5410 -0.4113  0.1140
 5462SOL    HW116706   0.294   0.494   5.362  0.4377  1.1563 -0.2437
 5462SOL    HW216707   0.200   0.441   5.485 -2.9795  1.3667 -2.6211
 5463SOL     OW16708   2.202   3.684   3.167 -0.0750 -0.2190  0.1037
 5463SOL    HW116709   2.226   3.714   3.259  0.3095 -0.7230  0.1658
 5463SOL    HW216710   2.194   3.765   3.108 -0.0637  0.0853  0.5088
 5464SOL     OW16711   4.721   3.781   5.040  0.0350 -0.2393  0.6110
 5464SOL    HW116712   4.800   3.813   5.094  1.3263  0.1857 -1.4374
 5464SOL    HW216713   4.715   3.834   4.955 -1.0037 -1.9037 -0.3953
 5465SOL     OW16714   0.093   3.681   5.099 -0.0324 -0.3188  0.3756
 5465SOL    HW116715   0.149   3.761   5.076  0.8606 -0.2056  2.6654
 5465SOL    HW216716   0.002   3.711   5.129  0.0292 -0.2194  0.4628
 5466SOL     OW16717   5.306   5.114   4.391 -0.8191  0.4328 -0.2168
 5466SOL    HW116718   5.297   5.119   4.490 -2.2124  0.6258 -0.3371
 5466SOL    HW216719   5.235   5.055   4.353  0.1248 -0.2100 -1.0528
 5467SOL     OW16720   5.340   0.618   4.334  0.3165  0.1102 -0.3037
 5467SOL    HW116721   5.290   0.652   4.414 -3.1643 -0.2685 -2.1157
 5467SOL    HW216722   5.300   0.656   4.251  2.8021 -0.7009 -1.9903
 5468SOL     OW16723   1.908   4.695   4.836  0.1963 -0.3845 -0.1663
 5468SOL    HW116724   1.903   4.596   4.851  0.7228 -0.3297  0.4267
 5468SOL    HW216725   2.003   4.726   4.846 -0.1880  0.4313  1.4000
 5469SOL     OW16726   3.453   4.396   0.330  0.6560  0.4765 -0.2325
 5469SOL    HW116727   3.474   4.494   0.333 -0.4426  0.7472 -0.8006
 5469SOL    HW216728   3.473   4.360   0.239  1.3814  0.0796  0.0707
 5470SOL     OW16729   4.258   4.415   1.277  0.2219 -0.3111  0.4350
 5470SOL    HW116730   4.238   4.513   1.277  0.3057 -0.2929  0.8812
 5470SOL    HW216731   4.355   4.402   1.257  0.5714 -0.2199  1.9725
 5471SOL     OW16732   4.688   5.281   3.412  0.5898  0.8657  0.3188
 5471SOL    HW116733   4.590   5.263   3.412  0.8384 -0.6244  0.3279
 5471SOL    HW216734   4.704   5.380   3.403 -0.9091  1.2960  1.8334
 5472SOL     OW16735   4.274   2.895   3.212  0.3872  0.0944  0.6890
 5472SOL    HW116736   4.181   2.861   3.198 -0.6218  3.2171 -1.1359
 5472SOL    HW216737   4.317   2.913   3.123  1.4433  1.7988  1.4845
 5473SOL     OW16738   4.144   5.116   3.079 -0.1826 -0.0480  0.3800
 5473SOL    HW116739   4.176   5.059   3.003  0.2043 -0.5025  0.8710
 5473SOL    HW216740   4.223   5.159   3.122 -0.1322 -1.5478  1.9024
 5474SOL     OW16741   5.212   5.502   0.637  0.3445  0.0374  0.0634
 5474SOL    HW116742   5.177   5.536   0.725  1.3863  0.3601  0.3724
 5474SOL    HW216743   5.203   5.574   0.568 -0.2899 -0.1473 -0.0556
 5475SOL     OW16744   1.062   3.645   2.642  0.4400  0.6097 -0.4756
 5475SOL    HW116745   1.040   3.633   2.545  1.1825  1.5803 -0.7853
 5475SOL    HW216746   1.015   3.726   2.677  1.7731  1.4647 -0.5868
 5476SOL     OW16747   5.455   3.139   4.155 -0.0198 -0.0722  0.0084
 5476SOL    HW116748   5.356   3.150   4.151 -0.1449 -1.2019 -0.4044
 5476SOL    HW216749   5.497   3.183   4.075 -0.3522 -1.0923 -0.7461
 5477SOL     OW16750   4.887   5.016   4.857  0.4313 -0.6263 -0.1825
 5477SOL    HW116751   4.868   4.947   4.926 -0.4057  0.5251  0.7610
 5477SOL    HW216752   4.971   5.065   4.880 -0.2053  0.2139  0.4109
 5478SOL     OW16753   2.094   1.211   3.947 -0.1757  0.7263  0.0782
 5478SOL    HW116754   2.173   1.267   3.921 -0.4780  1.0474 -0.1527
 5478SOL    HW216755   2.010   1.255   3.915 -0.5508  1.0557  1.4415
 5479SOL     OW16756   0.065   3.595   3.809 -0.0787 -0.3202  0.3784
 5479SOL    HW116757   0.130   3.660   3.771 -0.1501 -0.5846 -0.1998
 5479SOL    HW216758  -0.023   3.640   3.823 -0.1718 -0.3261 -0.1670
 5480SOL     OW16759   4.012   3.082   2.610  0.3842  0.2641  0.0913
 5480SOL    HW116760   4.070   3.084   2.692  1.7603  0.5240 -0.8545
 5480SOL    HW216761   3.961   2.996   2.607 -1.7457  1.2757  2.5515
 5481SOL     OW16762   1.006   1.661   4.648  0.1376  0.0455 -0.0005
 5481SOL    HW116763   1.085   1.649   4.708  1.0837 -1.2899 -1.4466
 5481SOL    HW216764   0.968   1.572   4.623 -0.0190  0.5427 -1.6437
 5482SOL     OW16765   4.292   3.627   0.521 -0.1963 -0.0508  0.6528
 5482SOL    HW116766   4.296   3.527   0.514  0.4425  0.0839 -2.3763
 5482SOL    HW216767   4.385   3.663   0.519 -0.4715  0.6457  0.2257
 5483SOL     OW16768   0.699   5.288   4.865 -0.3008  0.3109  0.2636
 5483SOL    HW116769   0.795   5.262   4.850 -0.8181 -1.7537  0.2626
 5483SOL    HW216770   0.670   5.256   4.955 -0.9327  1.1764  0.3767
 5484SOL     OW16771   1.533   4.458   4.271 -0.2371  0.4276 -0.8712
 5484SOL    HW116772   1.526   4.422   4.364  1.0651 -0.5869 -1.1412
 5484SOL    HW216773   1.529   4.558   4.273 -1.6438  0.3785  0.1154
 5485SOL     OW16774   0.439   0.176   4.977 -0.6471 -0.1851 -0.5255
 5485SOL    HW116775   0.513   0.149   4.916 -0.1316  2.4501 -1.2044
 5485SOL    HW216776   0.468   0.165   5.072  0.1972 -0.2132 -0.7830
 5486SOL     OW16777   3.511   2.712   5.567 -0.5849 -0.0851  0.1721
 5486SOL    HW116778   3.595   2.661   5.584 -0.1870  1.1947  2.2933
 5486SOL    HW216779   3.523   2.769   5.485 -1.0373 -3.2002 -2.2615
 5487SOL     OW16780   4.287   0.512   0.321  0.2384  0.6305 -0.3080
 5487SOL    HW116781   4.352   0.443   0.292 -0.1148 -0.2964  1.0267
 5487SOL    HW216782   4.323   0.603   0.300  0.0151  0.0734 -3.5405
 5488SOL     OW16783   4.207   4.927   3.976 -0.1877 -0.2893  0.0278
 5488SOL    HW116784   4.149   4.852   4.007 -3.4027  1.9039 -0.1375
 5488SOL    HW216785   4.225   4.989   4.052 -2.8605  1.8668 -0.9089
 5489SOL     OW16786   3.519   0.768   4.753  0.2796  0.6765  0.0691
 5489SOL    HW116787   3.606   0.744   4.711  0.0865  0.3025 -0.1286
 5489SOL    HW216788   3.514   0.867   4.766  0.6505  0.7197 -0.0988
 5490SOL     OW16789   0.108   3.313   4.590  0.1606 -0.2142 -0.1136
 5490SOL    HW116790   0.198   3.353   4.571  0.3453 -1.3980 -2.1040
 5490SOL    HW216791   0.037   3.382   4.578  0.6932  0.3313 -0.1461
 5491SOL     OW16792   2.906   1.443   3.393  0.0335  0.1064  0.2700
 5491SOL    HW116793   2.982   1.454   3.457  0.1245 -1.9058  0.5455
 5491SOL    HW216794   2.932   1.382   3.319 -0.5245  1.3525 -1.0226
 5492SOL     OW16795   3.016   4.166   4.607 -0.4325 -0.0931  0.2455
 5492SOL    HW116796   3.103   4.185   4.561  0.9630 -0.3487  2.5905
 5492SOL    HW216797   3.021   4.077   4.652 -1.0463  0.8088  2.2274
 5493SOL     OW16798   5.339   5.023   3.885 -0.0078  0.5465 -0.3741
 5493SOL    HW116799   5.265   5.059   3.942  1.4850  1.6151  0.9478
 5493SOL    HW216800   5.411   4.985   3.943 -0.0811 -1.7659 -1.6691
 5494SOL     OW16801   4.644   4.489   0.782 -0.9478 -0.2247  0.5724
 5494SOL    HW116802   4.597   4.573   0.754 -1.0839 -0.3202  0.5148
 5494SOL    HW216803   4.600   4.452   0.864 -0.3063  0.2710  1.1515
 5495SOL     OW16804   1.447   0.275   3.917  0.1592 -0.4196 -0.1476
 5495SOL    HW116805   1.513   0.277   3.992 -2.7210 -0.9853  2.6140
 5495SOL    HW216806   1.477   0.209   3.848  1.4419 -2.3379  2.0964
 5496SOL     OW16807   5.169   4.021   4.893 -0.6655 -0.6587 -0.5055
 5496SOL    HW116808   5.264   3.989   4.895  0.5470  2.2216 -2.8098
 5496SOL    HW216809   5.123   3.983   4.813 -1.3780 -1.6957  0.3662
 5497SOL     OW16810   3.481   4.136   0.421 -0.0638 -0.0175 -0.3727
 5497SOL    HW116811   3.485   4.136   0.521 -1.2456 -0.1927 -0.3083
 5497SOL    HW216812   3.495   4.229   0.387 -1.0933  0.3045  0.0464
 5498SOL     OW16813   4.184   5.223   0.369  0.4318  0.3277  0.1344
 5498SOL    HW116814   4.147   5.294   0.430  0.2288 -0.7168  1.2680
 5498SOL    HW216815   4.248   5.265   0.305 -0.4256  1.6972  0.1097
 5499SOL     OW16816   5.087   0.295   5.137 -0.5618  0.1100  0.4664
 5499SOL    HW116817   5.097   0.380   5.188 -1.9541  0.8968 -0.5022
 5499SOL    HW216818   5.111   0.218   5.195  0.6812  1.1499  1.3801
 5500SOL     OW16819   4.791   3.058   3.908 -0.4606 -0.1878 -0.1014
 5500SOL    HW116820   4.884   3.092   3.894 -0.5263  0.5693  1.1639
 5500SOL    HW216821   4.753   3.097   3.992 -2.4500  0.6669 -1.3165
 5501SOL     OW16822   4.402   5.235   0.187 -0.2828  0.0994 -0.2920
 5501SOL    HW116823   4.454   5.183   0.255  0.8286  0.1324 -1.0949
 5501SOL    HW216824   4.347   5.171   0.132 -2.6273  0.2095  1.7520
 5502SOL     OW16825   4.357   4.747   1.112 -0.2028 -0.1190  0.1013
 5502SOL    HW116826   4.304   4.775   1.032  0.5676  0.7263 -0.1157
 5502SOL    HW216827   4.402   4.826   1.153  1.8938 -0.9875 -0.4365
 5503SOL     OW16828   0.123   5.283   5.289 -0.3608 -0.7178 -0.3768
 5503SOL    HW116829   0.202   5.303   5.347 -0.3079  1.2363 -1.0382
 5503SOL    HW216830   0.129   5.338   5.205 -1.6518 -1.6890 -1.1293
 5504SOL     OW16831   4.352   4.540   5.495  0.3355 -0.5664  0.1057
 5504SOL    HW116832   4.270   4.547   5.438 -0.4021  2.4142  1.3728
 5504SOL    HW216833   4.363   4.445   5.524 -0.9472 -1.6174 -2.4662
 5505SOL     OW16834   4.607   0.097   0.444  0.3836 -0.2804 -0.1749
 5505SOL    HW116835   4.616  -0.002   0.440  0.8103 -0.2263 -0.7744
 5505SOL    HW216836   4.580   0.125   0.536 -0.8236 -1.0293 -0.2864
 5506SOL     OW16837   4.423   3.241   4.867  0.4052  0.5189  0.5577
 5506SOL    HW116838   4.507   3.191   4.887 -0.3399 -0.5693  1.1040
 5506SOL    HW216839   4.427   3.331   4.910  1.4553  0.6530  0.2150
 5507SOL     OW16840   5.160   4.916   4.274  0.2859 -0.3590 -0.0291
 5507SOL    HW116841   5.192   4.861   4.197 -1.7239 -0.0034 -1.1836
 5507SOL    HW216842   5.064   4.897   4.291 -0.0293  1.5762  0.6178
 5508SOL     OW16843   4.113   1.042   3.519 -0.5532 -0.2675  0.0855
 5508SOL    HW116844   4.153   1.015   3.607  0.7631 -1.1669 -0.7574
 5508SOL    HW216845   4.051   0.970   3.487  0.9684 -1.1843 -0.9264
 5509SOL     OW16846   3.120   2.446   4.476 -0.7839  0.2799  0.6015
 5509SOL    HW116847   3.175   2.428   4.558 -1.0346 -0.6661  0.5684
 5509SOL    HW216848   3.152   2.388   4.401 -1.9865 -0.4853  0.6595
 5510SOL     OW16849   0.844   2.983   3.395  0.5488  0.4500  0.6199
 5510SOL    HW116850   0.941   2.963   3.414  0.6281  2.2728  2.4699
 5510SOL    HW216851   0.796   2.897   3.377  1.9592 -0.8280  2.4638
 5511SOL     OW16852   3.850   2.807   5.232  0.6039 -0.5313  0.4247
 5511SOL    HW116853   3.832   2.743   5.157  0.8103  0.4796 -0.5214
 5511SOL    HW216854   3.765   2.852   5.259  0.4527 -1.2096  1.1134
 5512SOL     OW16855   5.486   0.890   1.147  0.0699  0.2319  0.2610
 5512SOL    HW116856   5.438   0.802   1.154 -0.0355  0.3920  1.9458
 5512SOL    HW216857   5.487   0.920   1.052 -0.2528 -1.3932 -0.2863
 5513SOL     OW16858   3.735   0.626   4.714 -0.2337 -0.2356 -0.2279
 5513SOL    HW116859   3.671   0.574   4.658  0.0085 -0.9399  0.1320
 5513SOL    HW216860   3.817   0.571   4.730 -0.2826 -0.0292  0.7839
 5514SOL     OW16861   3.431   0.468   5.323 -0.4544 -0.2827  0.1201
 5514SOL    HW116862   3.449   0.434   5.416 -0.9415 -1.2504 -0.1262
 5514SOL    HW216863   3.411   0.391   5.263  1.8889  0.1115 -1.2897
 5515SOL     OW16864   0.931   3.578   4.607  0.1379  0.1984 -0.1891
 5515SOL    HW116865   0.842   3.542   4.581 -1.1424  2.3128  1.0189
 5515SOL    HW216866   0.994   3.502   4.622 -1.0913 -1.3202 -2.1141
 5516SOL     OW16867   4.883   2.958   4.697 -0.2660 -0.1734 -0.2479
 5516SOL    HW116868   4.912   2.952   4.601 -0.2529 -1.6968 -0.1712
 5516SOL    HW216869   4.961   2.987   4.753  0.0028 -0.2647 -0.5699
 5517SOL     OW16870   5.291   3.316   3.659 -0.1103  0.5309 -0.1206
 5517SOL    HW116871   5.302   3.412   3.631  1.8979  0.6486  0.8833
 5517SOL    HW216872   5.296   3.258   3.578  4.1787  0.9694 -0.3992
 5518SOL     OW16873   4.997   4.609   5.242 -0.1747 -0.9147 -0.0011
 5518SOL    HW116874   4.983   4.698   5.285  2.0241 -1.0184  1.0810
 5518SOL    HW216875   4.999   4.619   5.143  1.0554  0.4447  0.1288
 5519SOL     OW16876   3.468   4.967   4.119 -0.0336  0.0251  0.0314
 5519SOL    HW116877   3.402   4.899   4.086 -0.5296 -0.0356  1.1302
 5519SOL    HW216878   3.556   4.953   4.072 -0.2373 -1.1357 -0.0336
 5520SOL     OW16879   3.768   4.052   0.048  0.2572  0.6852  0.0697
 5520SOL    HW116880   3.813   4.134   0.083 -1.0501  1.5454 -0.1947
 5520SOL    HW216881   3.702   4.019   0.115  1.4425 -0.7351  0.5764
 5521SOL     OW16882   3.856   4.311   0.862  0.0121 -0.6511 -0.8152
 5521SOL    HW116883   3.843   4.253   0.942  0.5190 -0.0763 -0.3075
 5521SOL    HW216884   3.943   4.289   0.818  0.6095  0.2544 -0.1411
 5522SOL     OW16885   5.519   4.628   3.779  0.3961  0.8133 -0.1194
 5522SOL    HW116886   5.518   4.616   3.878  2.3735 -1.0379 -0.2654
 5522SOL    HW216887   5.603   4.675   3.752 -0.3143  1.6725 -0.9272
 5523SOL     OW16888   0.519   5.292   4.207  0.1350 -0.2607  0.2095
 5523SOL    HW116889   0.547   5.196   4.203  1.4605  0.0672  1.0071
 5523SOL    HW216890   0.501   5.318   4.302 -0.1522  0.3012  0.0078
 5524SOL     OW16891   4.419   0.673   2.046  0.1214  0.0942 -0.1653
 5524SOL    HW116892   4.397   0.681   1.949  0.7789 -1.6082 -0.5027
 5524SOL    HW216893   4.480   0.594   2.060 -0.9860 -0.4908  1.7835
 5525SOL     OW16894   0.116   5.459   5.094 -0.4695  0.8224  0.2970
 5525SOL    HW116895   0.145   5.430   5.003 -0.7516 -0.9559  0.7484
 5525SOL    HW216896   0.038   5.521   5.086  0.7087  2.2570 -0.7250
 5526SOL     OW16897   4.998   4.338   5.011  0.3563 -0.3218 -0.1495
 5526SOL    HW116898   4.899   4.335   5.025  0.4218  1.9427  1.3178
 5526SOL    HW216899   5.043   4.271   5.070 -0.2070 -0.2518  0.3591
 5527SOL     OW16900   3.917   3.958   1.555 -0.2702 -0.0857  0.3595
 5527SOL    HW116901   3.832   4.002   1.585  0.6042  2.3966 -0.5220
 5527SOL    HW216902   3.911   3.938   1.457  0.0817 -0.0875  0.3375
 5528SOL     OW16903   0.258   5.198   1.033  0.2717 -0.4279 -0.3386
 5528SOL    HW116904   0.176   5.218   1.088  0.3430 -0.6071 -0.1653
 5528SOL    HW216905   0.329   5.160   1.092 -0.1242 -1.9100 -0.7766
 5529SOL     OW16906   3.985   4.482   3.696 -0.6527  0.0538  0.5934
 5529SOL    HW116907   4.068   4.427   3.686 -1.4556 -1.1413  0.3569
 5529SOL    HW216908   3.942   4.494   3.607 -1.9627 -1.3222  1.0054
 5530SOL     OW16909   5.361   4.089   3.988  0.5189  0.5384  0.3805
 5530SOL    HW116910   5.383   4.076   3.892  1.2508 -0.0795  0.6289
 5530SOL    HW216911   5.421   4.034   4.045 -0.1738  0.5802  1.1841
 5531SOL     OW16912   4.488   0.738   5.382 -0.0081  0.1452  0.3442
 5531SOL    HW116913   4.499   0.641   5.402 -0.6859  0.4040  2.1162
 5531SOL    HW216914   4.391   0.761   5.379  0.1471  0.7766  0.0150
 5532SOL     OW16915   0.335   4.812   3.259  0.4103  0.0616  0.1720
 5532SOL    HW116916   0.286   4.892   3.223 -0.3718 -0.7966 -0.7430
 5532SOL    HW216917   0.275   4.732   3.255  1.6037 -0.8499 -0.1618
 5533SOL     OW16918   3.771   5.150   5.266 -0.1338 -0.0916  0.2310
 5533SOL    HW116919   3.824   5.189   5.341  0.8875  0.5895 -0.8124
 5533SOL    HW216920   3.686   5.202   5.255  0.2315  0.5139  0.2152
 5534SOL     OW16921   4.718   4.342   4.915  0.4632 -0.1551 -0.3020
 5534SOL    HW116922   4.659   4.351   4.996  1.0222 -2.3092  0.4102
 5534SOL    HW216923   4.673   4.284   4.847  0.7520  0.1943 -0.7997
 5535SOL     OW16924   4.181   0.050   5.132 -0.2678  0.4136 -0.4836
 5535SOL    HW116925   4.127  -0.034   5.132 -0.5568  0.5416 -2.4581
 5535SOL    HW216926   4.266   0.035   5.184 -1.8566  0.0377  2.1569
 5536SOL     OW16927   3.015   2.869   5.019  0.1124 -0.3170 -0.2285
 5536SOL    HW116928   3.009   2.959   4.976 -1.3235 -0.5791 -0.6367
 5536SOL    HW216929   3.009   2.879   5.119  0.7128  0.0871 -0.2316
 5537SOL     OW16930   5.489   0.369   4.849 -0.0624  0.0740  0.8978
 5537SOL    HW116931   5.576   0.397   4.808 -0.1012 -0.5339  0.3835
 5537SOL    HW216932   5.467   0.429   4.926  0.4860  0.6422  0.6175
 5538SOL     OW16933   0.264   5.560   5.534  0.4271  0.4165  0.5383
 5538SOL    HW116934   0.280   5.466   5.506 -0.3890  0.3403  0.3009
 5538SOL    HW216935   0.348   5.598   5.574  1.5938  0.4766 -1.8245
 5539SOL     OW16936   4.794   5.145   4.598 -0.1605  0.0134 -0.1396
 5539SOL    HW116937   4.728   5.093   4.543 -1.9057  0.5186  1.3989
 5539SOL    HW216938   4.830   5.086   4.670  0.8774 -0.1659 -0.7831
 5540SOL     OW16939   3.274   4.463   3.983  0.0387 -0.8731  0.5384
 5540SOL    HW116940   3.340   4.438   3.912 -0.3382  1.7862 -0.8480
 5540SOL    HW216941   3.182   4.467   3.944 -0.1644  0.6967  1.1112
 5541SOL     OW16942   3.803   4.105   0.667 -0.4504  0.4537  0.0468
 5541SOL    HW116943   3.849   4.189   0.696 -1.2967  1.0324 -0.2241
 5541SOL    HW216944   3.857   4.060   0.596  0.1258  0.6398  0.3579
 5542SOL     OW16945   5.276   3.132   3.468  0.0704  0.1006  0.7154
 5542SOL    HW116946   5.188   3.116   3.423  0.5521 -0.3311 -0.0876
 5542SOL    HW216947   5.296   3.057   3.530  0.6411 -0.6504 -0.3512
 5543SOL     OW16948   5.288   5.167   2.753  0.1058 -0.2551  0.1065
 5543SOL    HW116949   5.357   5.235   2.777  1.2330 -0.3268 -2.5547
 5543SOL    HW216950   5.210   5.175   2.815  1.1690  1.9115  1.2694
 5544SOL     OW16951   4.949   0.041   0.598 -0.2327  0.2587  0.3071
 5544SOL    HW116952   4.993   0.081   0.518 -1.4515  1.4397  0.1936
 5544SOL    HW216953   4.992   0.076   0.681  0.8730 -0.7829  0.2040
 5545SOL     OW16954   4.944   3.947   3.873  0.0399 -0.0952 -0.1661
 5545SOL    HW116955   4.858   3.897   3.870 -0.0971  0.1455 -0.2779
 5545SOL    HW216956   4.928   4.043   3.849  0.5370 -0.3103 -1.4360
 5546SOL     OW16957   3.902   5.305   5.438 -0.0396 -1.0689 -0.5256
 5546SOL    HW116958   3.856   5.381   5.392 -1.6705 -2.4861 -1.3621
 5546SOL    HW216959   3.912   5.326   5.535 -1.1286 -0.0937 -0.6074
 5547SOL     OW16960   2.088   1.089   2.200 -0.1467  0.6463 -0.3716
 5547SOL    HW116961   2.028   1.038   2.138 -1.4921  0.6003  0.9217
 5547SOL    HW216962   2.062   1.070   2.294  0.3257  2.5316  0.1734
 5548SOL     OW16963   0.854   5.061   0.710  0.4131  0.5654 -0.4655
 5548SOL    HW116964   0.786   5.025   0.774 -0.4546  2.2357 -0.4011
 5548SOL    HW216965   0.922   5.115   0.759  2.9075 -2.4093 -0.2652
 5549SOL     OW16966   4.913   5.289   5.161  0.2088 -0.3977  0.4438
 5549SOL    HW116967   4.886   5.382   5.133 -0.9187  0.0297  2.6741
 5549SOL    HW216968   4.961   5.294   5.249 -1.9302 -2.0428  1.8120
 5550SOL     OW16969   4.126   4.040   5.340 -0.2608 -0.2949  0.6706
 5550SOL    HW116970   4.211   4.008   5.296 -0.7131 -1.1965  0.4143
 5550SOL    HW216971   4.059   3.966   5.339 -1.3378  0.6604  0.1394
 5551SOL     OW16972   4.306   5.445   3.737 -0.1335  0.4508  0.6748
 5551SOL    HW116973   4.357   5.362   3.714  0.4365  1.4400 -2.0151
 5551SOL    HW216974   4.210   5.423   3.751 -0.0097 -0.6434 -0.1135
 5552SOL     OW16975   5.478   0.971   0.385 -0.1654  0.2061  0.4817
 5552SOL    HW116976   5.429   1.028   0.320  0.4242  0.7954  0.5417
 5552SOL    HW216977   5.454   0.875   0.370 -0.9422  0.4364  0.1895
 5553SOL     OW16978   4.752   5.006   3.331  0.2227  0.1573 -0.2699
 5553SOL    HW116979   4.761   5.084   3.392  3.5428 -1.2184  1.2701
 5553SOL    HW216980   4.729   4.924   3.385 -0.0677 -0.5015 -1.3586
 5554SOL     OW16981   4.402   4.727   3.623  0.1238  0.2903  0.2276
 5554SOL    HW116982   4.368   4.655   3.684  0.1459 -0.3615 -0.5263
 5554SOL    HW216983   4.384   4.817   3.665  1.9883 -0.1535  2.1837
 5555SOL     OW16984   4.249   4.149   0.540  0.1564  0.2758  0.3488
 5555SOL    HW116985   4.174   4.085   0.528 -0.6016  1.4233 -1.5738
 5555SOL    HW216986   4.219   4.225   0.598 -0.7272  1.4641 -1.5747
 5556SOL     OW16987   0.853   4.928   5.329 -0.3859 -0.2392  0.1961
 5556SOL    HW116988   0.859   4.837   5.370 -1.8576 -0.9611 -1.1083
 5556SOL    HW216989   0.906   4.929   5.244  0.9441  0.6373  0.9931
 5557SOL     OW16990   4.712   3.128   4.861 -0.3055  0.0601  0.6271
 5557SOL    HW116991   4.721   3.142   4.959 -1.5198  0.5133  0.7001
 5557SOL    HW216992   4.765   3.049   4.833  0.5082  0.2632  1.5511
 5558SOL     OW16993   0.485   3.907   4.757 -0.1085  0.3511 -0.3925
 5558SOL    HW116994   0.463   4.004   4.757  1.5386  0.7614 -0.2468
 5558SOL    HW216995   0.501   3.876   4.851 -3.0430 -0.7061 -0.1486
 5559SOL     OW16996   0.026   5.343   3.121 -0.3251  0.7511 -0.8172
 5559SOL    HW116997   0.121   5.340   3.151 -0.0319 -1.8121 -1.7302
 5559SOL    HW216998  -0.032   5.300   3.191 -0.4667  0.2406 -1.2404
 5560SOL     OW16999   5.145   3.405   5.369  0.2329  0.0572  0.1283
 5560SOL    HW117000   5.242   3.407   5.348  0.1748  0.3680 -0.1247
 5560SOL    HW217001   5.130   3.354   5.453  0.6516  0.2986  0.3529
 5561SOL     OW17002   5.041   0.018   3.908  0.9369  0.3436  0.3895
 5561SOL    HW117003   4.960   0.036   3.964  1.5322 -1.3700  1.8826
 5561SOL    HW217004   5.029   0.061   3.818 -2.7089 -1.8673 -0.3728
 5562SOL     OW17005   3.783   3.769   0.589 -0.6294 -0.4331 -0.0789
 5562SOL    HW117006   3.715   3.750   0.660 -0.5512  2.1625  0.8091
 5562SOL    HW217007   3.873   3.739   0.621 -0.8735 -0.9951  0.0952
 5563SOL     OW17008   5.453   4.528   3.238 -0.2182 -0.3081  0.0199
 5563SOL    HW117009   5.480   4.439   3.276  1.4146 -0.3575 -1.1593
 5563SOL    HW217010   5.366   4.556   3.279 -0.0843 -1.7889  1.4463
 5564SOL     OW17011   5.037   4.045   4.253  0.0640  0.3406  0.4174
 5564SOL    HW117012   5.075   3.969   4.199  0.1857  0.7606 -0.0920
 5564SOL    HW217013   5.075   4.041   4.346  0.9847  0.4674  0.0615
 5565SOL     OW17014   1.921   0.671   3.750 -0.1295  0.0580  0.1594
 5565SOL    HW117015   1.921   0.572   3.766  0.5331  0.1313  0.6201
 5565SOL    HW217016   1.909   0.720   3.836 -0.7255  0.3850 -0.0984
 5566SOL     OW17017   3.382   2.429   4.920  0.0393  0.4728 -0.5668
 5566SOL    HW117018   3.377   2.494   4.844  1.0133  0.3856 -0.7241
 5566SOL    HW217019   3.462   2.450   4.977 -0.0703 -0.1147 -0.1834
 5567SOL     OW17020   3.770   4.784   4.598  0.5016  0.2343  0.6738
 5567SOL    HW117021   3.704   4.806   4.669  0.6705  0.2690  0.8197
 5567SOL    HW217022   3.770   4.856   4.529 -0.6786 -0.4623 -0.1055
 5568SOL     OW17023   3.652   3.584   5.512 -0.2579 -0.2376  0.6117
 5568SOL    HW117024   3.633   3.512   5.579 -1.8499 -0.9226 -0.5208
 5568SOL    HW217025   3.730   3.557   5.456 -1.6965 -1.8583 -0.7552
 5569SOL     OW17026   4.451   0.303   0.241 -0.3243 -0.0851 -0.0161
 5569SOL    HW117027   4.402   0.220   0.268 -0.2800 -0.1728 -0.2020
 5569SOL    HW217028   4.515   0.281   0.168 -1.5913  0.4541 -1.3288
 5570SOL     OW17029   4.514   0.772   0.430  0.5224 -0.1848  0.3745
 5570SOL    HW117030   4.606   0.795   0.398  0.7304  0.4572  1.3768
 5570SOL    HW217031   4.470   0.855   0.466 -0.3507 -0.5417  0.1382
 5571SOL     OW17032   3.017   3.294   0.536 -1.0772  0.3078  0.1457
 5571SOL    HW117033   3.053   3.203   0.554  1.9780  1.7377  2.2829
 5571SOL    HW217034   2.981   3.298   0.443 -0.9860 -2.9177 -0.1420
 5572SOL     OW17035   3.373   0.107   5.514 -0.1064  0.9940 -0.5635
 5572SOL    HW117036   3.325   0.086   5.429 -1.9283  3.3853 -0.2511
 5572SOL    HW217037   3.325   0.067   5.592  1.8704 -1.6755 -0.5815
 5573SOL     OW17038   5.138   0.208   4.528 -0.2134 -0.0749  0.0160
 5573SOL    HW117039   5.137   0.135   4.596  0.5997 -1.1835 -1.1151
 5573SOL    HW217040   5.225   0.256   4.531 -0.2867  0.0604 -0.0386
 5574SOL     OW17041   5.199   5.355   3.855  0.1526  0.2063 -0.7690
 5574SOL    HW117042   5.204   5.268   3.903  2.6247  1.3759  1.3560
 5574SOL    HW217043   5.130   5.413   3.897  1.7701  0.9338  1.0572
 5575SOL     OW17044   3.676   3.828   2.894 -0.4910  0.0447 -0.1055
 5575SOL    HW117045   3.657   3.827   2.796 -0.4827  1.8782 -0.1506
 5575SOL    HW217046   3.665   3.920   2.930  0.8053 -0.3168  1.3687
 5576SOL     OW17047   1.154   3.899   2.911  0.2729 -0.3697 -0.1477
 5576SOL    HW117048   1.172   3.998   2.911  0.8010 -0.4129  1.8389
 5576SOL    HW217049   1.241   3.849   2.912  0.0585 -0.7647  1.4279
 5577SOL     OW17050   1.304   0.016   4.149 -0.0661 -0.2223 -0.4915
 5577SOL    HW117051   1.307   0.045   4.244 -0.1170  0.5753 -0.7228
 5577SOL    HW217052   1.362   0.077   4.094  2.1767 -2.2655 -0.5792
 5578SOL     OW17053   3.615   0.365   3.722 -0.3387 -0.1893 -0.0570
 5578SOL    HW117054   3.519   0.348   3.743  0.1960 -0.2737  2.7280
 5578SOL    HW217055   3.628   0.368   3.623 -3.1557 -0.3224 -0.5018
 5579SOL     OW17056   4.225   0.380   2.333  0.3075 -0.1174  0.4981
 5579SOL    HW117057   4.139   0.329   2.336  0.1974  0.0772  0.6967
 5579SOL    HW217058   4.283   0.344   2.260  0.9318 -1.6219  1.6740
 5580SOL     OW17059   4.562   3.410   3.571 -0.4093 -0.2614 -0.1285
 5580SOL    HW117060   4.557   3.469   3.651  1.7003  0.8572 -0.7440
 5580SOL    HW217061   4.614   3.455   3.499 -0.3716 -2.1119 -1.3469
 5581SOL     OW17062   4.540   3.858   4.577 -0.2022 -0.0545  0.0567
 5581SOL    HW117063   4.556   3.839   4.480  0.1541 -1.2968  0.3448
 5581SOL    HW217064   4.450   3.823   4.603 -0.2311  0.1362  0.2174
 5582SOL     OW17065   4.361   0.127   3.610  0.3752 -0.5281 -0.1903
 5582SOL    HW117066   4.351   0.037   3.654  0.2370 -1.2651 -1.6516
 5582SOL    HW217067   4.296   0.191   3.650  1.9261 -0.3940  2.4190
 5583SOL     OW17068   5.220   0.742   5.195 -0.0599  0.5430  0.2620
 5583SOL    HW117069   5.283   0.791   5.255 -0.9886  1.5489  0.4544
 5583SOL    HW217070   5.202   0.651   5.232  0.1900  0.7734  0.9559
 5584SOL     OW17071   3.921   0.501   3.333  0.3454 -0.0992 -0.2403
 5584SOL    HW117072   3.992   0.517   3.402 -0.2732  1.0453  0.1561
 5584SOL    HW217073   3.912   0.581   3.274 -0.9537 -0.0136  0.0366
 5585SOL     OW17074   4.969   5.497   3.540 -0.2355 -0.0982  0.0341
 5585SOL    HW117075   4.962   5.402   3.570  2.1804 -0.7073 -1.1392
 5585SOL    HW217076   5.062   5.530   3.554  0.1447  0.6834 -3.3739
 5586SOL     OW17077   5.545   1.338   2.130  0.0945 -0.0684 -0.1056
 5586SOL    HW117078   5.538   1.320   2.228 -1.0968  1.1169  0.0645
 5586SOL    HW217079   5.515   1.431   2.111 -0.9896 -0.6876 -1.7357
 5587SOL     OW17080   3.860   1.363   3.793 -0.0430 -0.6074 -0.1657
 5587SOL    HW117081   3.766   1.341   3.765 -1.0410  1.0790  1.6753
 5587SOL    HW217082   3.878   1.460   3.777  2.4103 -1.3731 -3.0427
 5588SOL     OW17083   4.622   5.025   4.422 -0.3355 -0.0597  0.3902
 5588SOL    HW117084   4.640   5.056   4.329 -0.5111 -0.3247  0.2664
 5588SOL    HW217085   4.589   4.930   4.420  0.0783 -0.2149  0.7512
 5589SOL     OW17086   3.328   5.204   4.928  0.1501  0.2458 -0.2160
 5589SOL    HW117087   3.266   5.260   4.873 -0.0476  0.7432  0.4972
 5589SOL    HW217088   3.328   5.237   5.023 -1.0701 -1.8180  0.5827
 5590SOL     OW17089   4.209   4.413   2.331  0.0530  0.0454 -0.8368
 5590SOL    HW117090   4.128   4.376   2.285  1.0999 -2.8238 -0.5687
 5590SOL    HW217091   4.198   4.405   2.430  0.7114 -0.5218 -0.8029
 5591SOL     OW17092   5.401   3.870   4.444 -0.6150 -0.4692  0.2859
 5591SOL    HW117093   5.487   3.922   4.450  0.2369 -1.9592  2.8095
 5591SOL    HW217094   5.400   3.817   4.360  1.0999 -0.5959  0.3020
 5592SOL     OW17095   4.875   2.108   4.940  0.0306  0.2917  0.0445
 5592SOL    HW117096   4.834   2.017   4.950  0.6435 -0.0768 -0.6860
 5592SOL    HW217097   4.822   2.162   4.875  0.4104 -0.0069 -0.5163
 5593SOL     OW17098   4.378   4.610   2.929  0.5251 -0.0206  0.2997
 5593SOL    HW117099   4.352   4.552   2.852 -0.9539  1.3214 -0.2618
 5593SOL    HW217100   4.297   4.642   2.977  1.0236  3.3303 -0.7561
 5594SOL     OW17101   0.014   3.479   4.328 -0.0145 -0.2142  0.0372
 5594SOL    HW117102  -0.044   3.407   4.367  0.3356 -0.9396 -0.7344
 5594SOL    HW217103   0.042   3.452   4.236 -0.1942  1.1019 -0.4283
 5595SOL     OW17104   1.950   4.316   3.502  0.3866 -0.3475  0.4155
 5595SOL    HW117105   1.941   4.377   3.581 -0.6108  1.1540 -0.7844
 5595SOL    HW217106   1.873   4.331   3.440  1.1660 -1.4451 -0.8641
 5596SOL     OW17107   0.526   3.991   4.447  0.3155 -1.1014 -0.2209
 5596SOL    HW117108   0.575   3.932   4.382 -0.0641 -1.8332  0.1580
 5596SOL    HW217109   0.588   4.018   4.520  0.1562 -2.0807  0.2931
 5597SOL     OW17110   5.348   3.687   3.833 -0.4141 -0.2127 -0.2386
 5597SOL    HW117111   5.348   3.627   3.753  1.1918  1.8708 -1.9308
 5597SOL    HW217112   5.280   3.759   3.821 -1.0119 -0.5784  0.8702
 5598SOL     OW17113   5.302   4.139   3.282 -0.0237  0.3774 -0.5193
 5598SOL    HW117114   5.360   4.174   3.209 -0.6930 -1.3071 -1.9209
 5598SOL    HW217115   5.206   4.149   3.257 -0.3091  0.8346  0.6684
 5599SOL     OW17116   3.932   1.243   2.656  0.5836  0.8848 -0.2038
 5599SOL    HW117117   3.870   1.291   2.594 -0.0938  0.5265  0.1836
 5599SOL    HW217118   3.951   1.300   2.736 -0.0297  0.6087  0.1419
 5600NA      NA17119   1.968   0.825   2.458 -0.3477  0.0484  0.1106
 5601NA      NA17120   0.221   1.337   3.158 -0.4883 -0.4539 -0.1658
 5602NA      NA17121   0.541   2.080   1.180 -0.1259  0.4112  0.2793
 5603NA      NA17122   0.531   2.696   4.952 -0.2538 -0.2155  0.0743
 5604NA      NA17123   1.762   3.682   0.839 -0.2073  0.4515 -0.3462
 5605NA      NA17124   0.324   5.324   4.085  0.2094 -0.1249 -0.5508
 5606NA      NA17125   1.501   4.321   2.628 -0.2558 -0.1478  0.4983
 5607NA      NA17126   0.541   0.729   0.018  0.0651  0.1822 -0.1204
 5608NA      NA17127   3.406   4.164   3.246 -0.3361  0.2234  1.0943
 5609NA      NA17128   2.623   2.692   4.632 -0.3391  0.1687 -0.0606
 5610NA      NA17129   4.514   0.372   2.889 -0.4242 -0.0008 -0.2100
 5611NA      NA17130   4.229   0.822   2.062 -0.1226 -0.2559  0.4114
 5612NA      NA17131   0.821   3.178   3.247  0.0122 -0.2418  0.1207
 5613NA      NA17132   3.986   2.185   4.950 -0.1323  0.3644  0.1315
 5614NA      NA17133   4.841   0.321   5.081  0.0573 -0.0811 -0.3622
 5615NA      NA17134   0.389   2.460   3.836  0.1317 -0.0794  0.4678
 5616CL      CL17135   5.513   3.368   2.154  0.1835 -0.0339  0.0700
 5617CL      CL17136   1.754   4.015   5.405 -0.6170 -0.1092 -0.2303
 5618CL      CL17137   1.102   3.777   2.142 -0.3622  0.3260 -0.4782
 5619CL      CL17138   1.050   4.597   2.537 -0.0350 -0.1765  0.2169
 5620CL      CL17139   3.273   1.272   4.053 -0.5161  0.0513 -0.6434
 5621CL      CL17140   3.238   0.020   4.839 -0.0053  0.2908 -0.3807
 5622CL      CL17141   2.771   1.347   0.535 -0.1709  0.1725 -0.3856
 5623CL      CL17142   2.281   5.462   2.969 -0.5244 -0.4734 -0.1448
 5624CL      CL17143   4.811   0.049   5.129  0.0366 -0.4675  0.0155
 5625CL      CL17144   0.204   0.374   3.315 -0.3016 -0.1625  0.3327
 5626CL      CL17145   5.100   0.815   0.246 -0.0497  0.3206  0.1378
 5627CL      CL17146   4.955   2.460   0.419  0.0416  0.4313  0.4146
 5628CL      CL17147   3.590   2.929   5.346  0.3775  0.0115  0.3603
 5629CL      CL17148   3.542   4.120   4.279  0.5864 -0.0315  0.3290
 5630CL      CL17149   3.954   1.528   4.176  0.0573 -0.0361  0.4155
 5631CL      CL17150   3.840   3.657   0.943  0.2286 -0.0648  0.3587
   5.54989   5.54989   5.54989
