Protein in water
21091
    1MET      N    1   1.851   1.997   3.766  0.6938 -0.4076  0.3651
    1MET     H1    2   1.813   1.932   3.833 -2.0739  1.3930  0.7138
    1MET     H2    3   1.822   1.980   3.671 -0.1405  0.3901  0.4658
    1MET     H3    4   1.950   1.977   3.761  0.3805 -1.8196 -0.6920
    1MET     CA    5   1.820   2.136   3.814 -0.2691 -0.2664  0.6117
    1MET     HA    6   1.713   2.153   3.802 -0.4535 -1.3787  0.5676
    1MET     CB    7   1.866   2.148   3.961 -0.3446  0.5546  0.6173
    1MET    HB1    8   1.859   2.252   3.993 -0.5846  0.8124 -0.2460
    1MET    HB2    9   1.969   2.124   3.985 -0.3548 -0.5576 -0.3970
    1MET     CG   10   1.773   2.069   4.055 -0.1879  0.7686 -0.5639
    1MET    HG1   11   1.789   1.964   4.032  2.3396  0.2122  2.9674
    1MET    HG2   12   1.674   2.104   4.026 -0.7551 -0.6816 -0.4491
    1MET     SD   13   1.810   2.110   4.227 -0.0545 -0.3689 -0.0950
    1MET     CE   14   1.678   1.998   4.291  0.4825 -0.2247  0.0840
    1MET    HE1   15   1.700   1.898   4.254  1.5364 -0.0253  0.1543
    1MET    HE2   16   1.662   1.998   4.399 -0.9544 -1.8283 -0.0880
    1MET    HE3   17   1.586   2.023   4.237  0.4380  0.5435  0.4973
    1MET      C   18   1.886   2.241   3.733 -0.4810  0.1466 -0.6646
    1MET      O   19   1.989   2.215   3.670 -0.4883 -0.1983  0.2065
    2LYS      N   20   1.822   2.354   3.724  0.4905 -0.5700 -0.0769
    2LYS      H   21   1.739   2.374   3.777 -0.2232  2.3260 -2.0504
    2LYS     CA   22   1.857   2.460   3.625  0.6796 -0.4116  0.8482
    2LYS     HA   23   1.846   2.423   3.524  0.2924  1.2501  0.2456
    2LYS     CB   24   1.762   2.581   3.648  0.1429  0.3150 -0.6544
    2LYS    HB1   25   1.663   2.556   3.612  0.8602 -1.5388 -1.4558
    2LYS    HB2   26   1.802   2.661   3.586  0.7468 -0.8878 -1.8570
    2LYS     CG   27   1.763   2.635   3.796  0.5903  0.0110 -0.1848
    2LYS    HG1   28   1.861   2.667   3.834 -1.0942  1.7720  3.2376
    2LYS    HG2   29   1.724   2.561   3.866  0.7150  0.6399  0.5772
    2LYS     CD   30   1.661   2.751   3.804  1.2186 -0.6387  0.0303
    2LYS    HD1   31   1.570   2.725   3.751  0.6804 -0.7775  0.9937
    2LYS    HD2   32   1.707   2.838   3.758 -0.1451 -0.3313 -0.7850
    2LYS     CE   33   1.628   2.780   3.954 -0.8081  0.4673 -0.1156
    2LYS    HE1   34   1.722   2.784   4.009 -0.5121 -0.0991 -0.5669
    2LYS    HE2   35   1.578   2.685   3.976  1.1905 -0.8019 -0.7592
    2LYS     NZ   36   1.528   2.891   3.970  0.1167  0.0083 -0.4530
    2LYS    HZ1   37   1.474   2.885   4.056  0.1364  0.3404 -0.4149
    2LYS    HZ2   38   1.581   2.976   3.964  0.0893  0.0999  0.3842
    2LYS    HZ3   39   1.459   2.889   3.896 -4.8137 -2.8509  3.5538
    2LYS      C   40   2.004   2.511   3.626  0.3659 -0.0050 -0.5117
    2LYS      O   41   2.059   2.562   3.525 -0.3169  0.2115  0.0495
    3LEU      N   42   2.075   2.496   3.740 -0.1258  0.3683  0.0963
    3LEU      H   43   2.017   2.492   3.824 -0.0111 -1.0884  0.1242
    3LEU     CA   44   2.220   2.517   3.751  0.2718 -0.2127  0.3790
    3LEU     HA   45   2.241   2.624   3.751  0.5401 -0.2610 -0.2844
    3LEU     CB   46   2.263   2.460   3.889  0.2379  0.1160  0.0884
    3LEU    HB1   47   2.372   2.454   3.896  0.1812  0.5749  2.5551
    3LEU    HB2   48   2.216   2.362   3.894  0.9873 -0.2914 -0.7060
    3LEU     CG   49   2.226   2.530   4.012  0.3204 -0.1031 -0.1961
    3LEU     HG   50   2.119   2.549   4.009  0.4803  1.2280  1.2436
    3LEU    CD1   51   2.247   2.441   4.132 -0.0614 -1.0484  0.2462
    3LEU   HD11   52   2.173   2.360   4.136 -1.3282  0.1082  1.2113
    3LEU   HD12   53   2.352   2.419   4.149 -0.1570  0.1160  2.6364
    3LEU   HD13   54   2.215   2.501   4.217 -1.2997  0.7325 -1.3841
    3LEU    CD2   55   2.300   2.660   4.021 -0.3676  0.5212  0.8075
    3LEU   HD21   56   2.277   2.715   4.112 -1.4629 -1.0165  1.4947
    3LEU   HD22   57   2.407   2.640   4.027 -0.4363  0.0399  0.4754
    3LEU   HD23   58   2.280   2.716   3.930 -1.2129 -1.4595 -0.2690
    3LEU      C   59   2.312   2.462   3.638  0.0390 -0.4389 -0.2408
    3LEU      O   60   2.423   2.522   3.607  0.8104  0.4246  0.0323
    4ALA      N   61   2.274   2.343   3.591  0.2184 -0.4176 -0.0027
    4ALA      H   62   2.197   2.288   3.627  0.2706 -1.3484 -1.2255
    4ALA     CA   63   2.337   2.274   3.477 -0.2794 -0.2639 -0.6695
    4ALA     HA   64   2.438   2.243   3.502 -1.1996 -1.9943  1.2995
    4ALA     CB   65   2.254   2.148   3.456  0.0838  0.1432 -0.5757
    4ALA    HB1   66   2.249   2.092   3.549 -0.8317 -0.8478 -1.1992
    4ALA    HB2   67   2.155   2.163   3.412 -1.4054  2.5747  3.1362
    4ALA    HB3   68   2.311   2.086   3.386  1.0728 -0.0673  0.3762
    4ALA      C   69   2.335   2.348   3.348 -0.4970 -0.1764 -0.1787
    4ALA      O   70   2.443   2.356   3.287 -0.3670 -0.6638  0.1616
    5VAL      N   71   2.226   2.420   3.317 -0.3026  0.0734 -0.6174
    5VAL      H   72   2.143   2.412   3.374  0.9740 -1.4704  1.1559
    5VAL     CA   73   2.213   2.523   3.212 -0.8588  0.0511 -0.1039
    5VAL     HA   74   2.242   2.468   3.122  2.0809  1.2502 -0.0087
    5VAL     CB   75   2.069   2.582   3.200  0.4222  0.7001 -0.4004
    5VAL     HB   76   2.042   2.635   3.291 -0.5737 -0.8632  0.2574
    5VAL    CG1   77   2.053   2.671   3.077  0.3322  0.0495 -0.1773
    5VAL   HG11   78   2.106   2.764   3.098 -0.4091  0.0705  1.8558
    5VAL   HG12   79   2.087   2.609   2.995 -1.0916 -0.5035 -0.3805
    5VAL   HG13   80   1.946   2.696   3.074  0.8164  2.2209 -1.0440
    5VAL    CG2   81   1.966   2.465   3.190  0.0553  0.4419 -0.7238
    5VAL   HG21   82   1.993   2.385   3.121  1.1479  1.9203 -2.0890
    5VAL   HG22   83   1.966   2.416   3.288 -2.3347  0.1898 -0.7893
    5VAL   HG23   84   1.867   2.510   3.183 -0.0360  0.5816  0.9547
    5VAL      C   85   2.308   2.643   3.233 -0.2957  0.6106 -0.3619
    5VAL      O   86   2.365   2.680   3.135  0.7371  0.2080  0.0306
    6ASP      N   87   2.316   2.694   3.354 -0.3409 -0.1222  0.2264
    6ASP      H   88   2.259   2.662   3.430  1.3167 -1.4712  0.9638
    6ASP     CA   89   2.414   2.800   3.381 -0.3370  0.1765  0.9845
    6ASP     HA   90   2.390   2.884   3.316 -1.2161  0.1660  1.2822
    6ASP     CB   91   2.404   2.865   3.520  0.4935  0.6252 -0.7550
    6ASP    HB1   92   2.494   2.924   3.535  0.8897  0.5356 -2.5112
    6ASP    HB2   93   2.412   2.780   3.589  3.1808 -0.2948 -2.0410
    6ASP     CG   94   2.276   2.946   3.548  0.9910 -0.3330 -0.0715
    6ASP    OD1   95   2.205   2.980   3.448  0.4584  0.2100 -0.0021
    6ASP    OD2   96   2.238   2.962   3.666  0.6504 -0.5131 -0.7393
    6ASP      C   97   2.564   2.753   3.374 -0.1846  0.0040  0.3084
    6ASP      O   98   2.649   2.833   3.338 -0.5135 -0.2943 -0.2317
    7ALA      N   99   2.596   2.624   3.395  0.4377 -0.4441 -0.1140
    7ALA      H  100   2.521   2.562   3.423  0.1942 -0.1077 -0.0275
    7ALA     CA  101   2.736   2.584   3.381  0.1163  0.3023 -0.7970
    7ALA     HA  102   2.794   2.670   3.416 -1.6431  1.4467 -0.5514
    7ALA     CB  103   2.763   2.458   3.463 -0.3133 -0.0234  0.4435
    7ALA    HB1  104   2.870   2.441   3.454 -0.7027 -2.2133 -0.7585
    7ALA    HB2  105   2.743   2.478   3.569 -0.0785  0.6314  0.3682
    7ALA    HB3  106   2.710   2.373   3.419  2.5475 -0.2563 -3.0143
    7ALA      C  107   2.768   2.574   3.226 -0.0731  0.1364  0.1182
    7ALA      O  108   2.871   2.620   3.183  0.2692 -0.3905  0.2773
    8LEU      N  109   2.673   2.526   3.145 -0.2169  0.4183 -0.1604
    8LEU      H  110   2.589   2.485   3.183  0.0577  1.4195  1.6415
    8LEU     CA  111   2.676   2.523   2.994  0.3515 -0.0351 -0.0847
    8LEU     HA  112   2.763   2.467   2.959 -0.7880 -0.2959 -2.7225
    8LEU     CB  113   2.553   2.449   2.941 -0.4381 -0.5880 -0.6490
    8LEU    HB1  114   2.538   2.477   2.837  0.7229 -0.7280 -0.8666
    8LEU    HB2  115   2.463   2.493   2.986 -0.1579  1.6433 -2.0901
    8LEU     CG  116   2.551   2.295   2.966  0.4379 -0.0361  0.3754
    8LEU     HG  117   2.548   2.270   3.073 -1.8282 -0.1824  0.3184
    8LEU    CD1  118   2.425   2.241   2.911  0.2143  0.2286  0.2116
    8LEU   HD11  119   2.434   2.134   2.891 -0.6140  0.1454  0.2523
    8LEU   HD12  120   2.337   2.261   2.973 -1.7091 -1.9012 -1.6569
    8LEU   HD13  121   2.405   2.291   2.817 -1.5037  0.6942  0.7862
    8LEU    CD2  122   2.653   2.204   2.898  0.0483 -0.0688 -0.1650
    8LEU   HD21  123   2.749   2.226   2.945  0.4123  0.6081 -1.2037
    8LEU   HD22  124   2.639   2.105   2.940  1.0162  0.2790  1.0428
    8LEU   HD23  125   2.656   2.199   2.789 -1.0521 -0.4500 -0.1874
    8LEU      C  126   2.687   2.664   2.939 -0.0175  0.0843 -0.9331
    8LEU      O  127   2.770   2.689   2.848  0.6898 -0.5394  0.3595
    9LEU      N  128   2.607   2.760   2.991  0.0441  0.2451 -0.5369
    9LEU      H  129   2.545   2.736   3.067  1.0155  0.1343  0.2382
    9LEU     CA  130   2.619   2.906   2.968  0.1068  0.6621 -0.1643
    9LEU     HA  131   2.596   2.919   2.862 -2.4281  0.7554  0.3487
    9LEU     CB  132   2.505   2.980   3.038  0.3555 -0.2734  0.0456
    9LEU    HB1  133   2.533   3.082   3.063 -0.6921  0.0385 -0.0421
    9LEU    HB2  134   2.484   2.928   3.132  0.2534 -1.7839 -0.7888
    9LEU     CG  135   2.372   2.985   2.967 -0.4768 -0.5647  0.4689
    9LEU     HG  136   2.355   2.883   2.932  0.3030 -0.5145 -0.0806
    9LEU    CD1  137   2.245   3.024   3.046  0.1114  0.0654 -0.7344
    9LEU   HD11  138   2.151   2.999   2.996 -0.6484  1.2615  0.0424
    9LEU   HD12  139   2.247   2.957   3.133  1.6225 -1.2385 -1.7193
    9LEU   HD13  140   2.245   3.128   3.078 -1.9856  0.5770 -2.1997
    9LEU    CD2  141   2.390   3.076   2.846 -0.4589 -0.2718 -0.0047
    9LEU   HD21  142   2.418   3.173   2.886  0.3121 -1.2984  2.0658
    9LEU   HD22  143   2.470   3.030   2.787 -0.2788 -1.4487  1.1251
    9LEU   HD23  144   2.296   3.087   2.791 -1.5889  1.3664  2.1088
    9LEU      C  145   2.752   2.975   3.001  0.8127 -0.2116 -0.2980
    9LEU      O  146   2.808   3.051   2.924  0.4519  0.2204 -0.2670
   10ARG      N  147   2.800   2.938   3.115  0.2762 -0.6160 -0.9633
   10ARG      H  148   2.744   2.881   3.178  0.0102  0.8877  0.2210
   10ARG     CA  149   2.927   2.990   3.173  0.5395 -0.0851  0.0056
   10ARG     HA  150   2.928   3.098   3.155  1.1292 -0.1541 -0.4406
   10ARG     CB  151   2.928   2.970   3.323  0.5162  0.5168 -0.4076
   10ARG    HB1  152   2.959   2.867   3.342  0.9239 -0.2195 -4.2341
   10ARG    HB2  153   2.829   2.992   3.361  0.8676  0.7943  0.3663
   10ARG     CG  154   3.035   3.052   3.400 -0.2231  0.4636 -0.1340
   10ARG    HG1  155   3.025   3.157   3.372  0.7754  1.2171  2.1349
   10ARG    HG2  156   3.136   3.038   3.361 -0.8306  0.6265 -1.8481
   10ARG     CD  157   3.037   3.030   3.552  0.2298 -0.0070 -0.3211
   10ARG    HD1  158   3.076   2.931   3.576 -0.8378 -0.1521  0.9613
   10ARG    HD2  159   2.933   3.031   3.586  0.4790 -3.7557  1.0720
   10ARG     NE  160   3.123   3.130   3.616  0.2037  0.1192  0.6867
   10ARG     HE  161   3.201   3.163   3.561  0.9526 -1.3297  0.8435
   10ARG     CZ  162   3.091   3.208   3.718 -0.2439 -0.1286  0.7930
   10ARG    NH1  163   2.970   3.212   3.773  0.1813 -0.2279 -0.3082
   10ARG   HH11  164   2.892   3.153   3.749 -0.0907  0.1662 -0.4055
   10ARG   HH12  165   2.953   3.278   3.847  3.6582  1.0142 -0.4277
   10ARG    NH2  166   3.180   3.301   3.755 -0.5661  0.0123  0.4824
   10ARG   HH21  167   3.269   3.305   3.708  0.5414  0.1589  2.5065
   10ARG   HH22  168   3.153   3.368   3.825  0.5943  1.1546 -0.1275
   10ARG      C  169   3.054   2.936   3.107 -0.1770 -0.0793 -0.0464
   10ARG      O  170   3.149   3.004   3.078  0.0181 -0.0891  0.2305
   11THR      N  171   3.047   2.807   3.067  0.3532 -0.0203  0.1388
   11THR      H  172   2.971   2.748   3.097  1.8360 -1.1196  1.9832
   11THR     CA  173   3.156   2.748   2.990  0.2448 -0.3078  0.5279
   11THR     HA  174   3.251   2.766   3.040  1.0164 -0.4370 -0.8425
   11THR     CB  175   3.132   2.592   2.969 -0.7326 -0.1677  1.0863
   11THR     HB  176   3.036   2.576   2.919  0.4199  0.6702 -1.5780
   11THR    CG2  177   3.234   2.514   2.891  0.0202 -0.4293  0.3860
   11THR   HG21  178   3.223   2.537   2.785 -3.0226 -2.9264  0.0222
   11THR   HG22  179   3.335   2.532   2.929 -0.9940 -1.6383  4.0660
   11THR   HG23  180   3.203   2.410   2.899 -1.3267 -0.2323 -1.4930
   11THR    OG1  181   3.137   2.535   3.100 -0.0749 -0.6224  0.2638
   11THR    HG1  182   3.061   2.574   3.143  1.6710  1.2671  1.7821
   11THR      C  183   3.162   2.805   2.843  0.0808  0.2293 -0.6397
   11THR      O  184   3.270   2.832   2.786 -0.3473 -1.3097  0.1916
   12PHE      N  185   3.042   2.837   2.783  0.4336 -0.0330  0.2110
   12PHE      H  186   2.956   2.816   2.830 -0.2885  2.2844  0.0580
   12PHE     CA  187   3.028   2.909   2.656 -1.2870  0.0873  0.3561
   12PHE     HA  188   3.089   2.847   2.590 -1.6505 -0.7795  0.8102
   12PHE     CB  189   2.883   2.892   2.605 -0.0109 -0.4077 -0.0019
   12PHE    HB1  190   2.808   2.950   2.658  1.4178  0.9284  0.6533
   12PHE    HB2  191   2.868   2.784   2.613  0.3348 -0.4414  0.2139
   12PHE     CG  192   2.856   2.927   2.459 -0.5847  0.5853  0.2101
   12PHE    CD1  193   2.863   2.828   2.360 -0.4755 -0.0440  0.7484
   12PHE    HD1  194   2.892   2.728   2.388 -1.5955 -1.6119 -2.9939
   12PHE    CE1  195   2.850   2.852   2.223  0.5148 -0.2950  0.2799
   12PHE    HE1  196   2.871   2.773   2.153 -0.6138  0.3315 -0.8063
   12PHE     CZ  197   2.816   2.985   2.179  0.1799  0.8632  0.4968
   12PHE     HZ  198   2.801   3.004   2.074 -3.6791  0.2923  0.7797
   12PHE    CE2  199   2.810   3.088   2.276  0.1941  0.8205  0.4208
   12PHE    HE2  200   2.795   3.189   2.243  0.1180  0.2504 -1.3520
   12PHE    CD2  201   2.827   3.057   2.410  0.0530  0.2592  0.0424
   12PHE    HD2  202   2.833   3.135   2.484 -0.9225  1.5910 -1.2095
   12PHE      C  203   3.079   3.054   2.666  0.1528  0.3792  0.0558
   12PHE      O  204   3.147   3.093   2.573 -0.3476 -0.3971  0.1754
   13ALA      N  205   3.057   3.129   2.770 -0.1067 -0.3929 -0.2360
   13ALA      H  206   2.998   3.082   2.838  0.6263 -2.1862 -0.7940
   13ALA     CA  207   3.115   3.265   2.792 -0.2709 -0.7971 -0.4764
   13ALA     HA  208   3.099   3.315   2.697 -4.4038  0.2125  0.5305
   13ALA     CB  209   3.037   3.343   2.908 -0.4912  0.1624  0.6677
   13ALA    HB1  210   3.094   3.434   2.927  0.1897 -0.0246 -0.4257
   13ALA    HB2  211   2.936   3.367   2.874 -0.8840 -1.7783  0.3855
   13ALA    HB3  212   3.043   3.280   2.996 -2.8671 -0.0753  0.7432
   13ALA      C  213   3.269   3.268   2.800 -0.4592  0.0689  0.9850
   13ALA      O  214   3.331   3.345   2.736 -0.3315  0.0411 -0.0669
   14GLU      N  215   3.340   3.180   2.874 -0.4022  0.1311 -0.1629
   14GLU      H  216   3.285   3.120   2.933 -0.1243  0.2147  0.1845
   14GLU     CA  217   3.486   3.159   2.872 -0.0870 -0.1451  0.5813
   14GLU     HA  218   3.543   3.248   2.897 -0.8317  0.3385  0.5987
   14GLU     CB  219   3.507   3.048   2.968  0.4251 -0.4594 -0.9235
   14GLU    HB1  220   3.613   3.021   2.964  0.7151  0.6937 -1.7127
   14GLU    HB2  221   3.444   2.964   2.940 -0.3456 -0.6457  1.2297
   14GLU     CG  222   3.482   3.102   3.110 -0.2594  0.3675  1.0700
   14GLU    HG1  223   3.377   3.124   3.129 -0.7869 -2.7868  2.5790
   14GLU    HG2  224   3.547   3.188   3.130 -1.6133  1.4856  0.7934
   14GLU     CD  225   3.520   2.999   3.212  0.0940  0.0477  0.0284
   14GLU    OE1  226   3.616   2.922   3.202 -0.6829 -0.7234 -0.2220
   14GLU    OE2  227   3.452   2.995   3.316 -0.2168 -0.5848 -0.1778
   14GLU      C  228   3.545   3.117   2.735  0.0973  0.5832  0.1222
   14GLU      O  229   3.649   3.164   2.689 -0.5158  0.1290  0.0589
   15SER      N  230   3.461   3.055   2.651 -0.0486  0.5404 -0.0492
   15SER      H  231   3.378   3.011   2.689 -0.4142 -0.6507 -2.0732
   15SER     CA  232   3.503   3.013   2.516 -0.1264 -0.1416  0.1932
   15SER     HA  233   3.607   2.981   2.517  0.3300  1.2357  1.9477
   15SER     CB  234   3.411   2.896   2.474 -0.3845  0.2637 -0.0385
   15SER    HB1  235   3.313   2.939   2.455 -0.6811  0.1894  1.1930
   15SER    HB2  236   3.402   2.835   2.564  0.1506  1.6321  0.9733
   15SER     OG  237   3.471   2.826   2.355 -0.3591 -0.5805 -1.2351
   15SER     HG  238   3.419   2.855   2.280 -3.3239  0.2675  0.9666
   15SER      C  239   3.496   3.133   2.416  0.6334  0.6643 -0.5518
   15SER      O  240   3.584   3.166   2.345  0.4186  0.4360  0.2182
   16SER      N  241   3.380   3.196   2.423  0.5893  0.4409  0.2084
   16SER      H  242   3.309   3.148   2.477  0.6911  0.4757  0.3719
   16SER     CA  243   3.350   3.318   2.352  0.2631 -0.7847 -0.1622
   16SER     HA  244   3.364   3.296   2.246  0.3622  0.2313 -0.3668
   16SER     CB  245   3.203   3.358   2.381  1.1008 -0.2930 -0.5045
   16SER    HB1  246   3.192   3.361   2.489  1.7378  0.5816 -0.4559
   16SER    HB2  247   3.140   3.280   2.338  1.0897 -0.3523 -0.3787
   16SER     OG  248   3.173   3.481   2.321 -0.3797 -0.2764  0.5719
   16SER     HG  249   3.077   3.488   2.328 -0.5274 -0.9086 -0.5415
   16SER      C  250   3.442   3.435   2.379 -0.0098 -0.5266  0.1460
   16SER      O  251   3.482   3.501   2.286 -0.1428  0.1950  0.4953
   17ASP      N  252   3.490   3.448   2.506  0.6790 -0.6273  0.0774
   17ASP      H  253   3.462   3.372   2.567 -0.6337  0.3209  0.7092
   17ASP     CA  254   3.585   3.546   2.553  0.0253  0.2198 -0.5032
   17ASP     HA  255   3.548   3.647   2.534  1.0191  0.8028  0.5380
   17ASP     CB  256   3.595   3.536   2.712  0.1444 -0.0912  0.1627
   17ASP    HB1  257   3.602   3.431   2.743 -2.8693 -0.7837 -1.1012
   17ASP    HB2  258   3.507   3.577   2.762  0.6263 -0.6301  1.4987
   17ASP     CG  259   3.711   3.608   2.762  0.0869 -0.2985  0.1409
   17ASP    OD1  260   3.713   3.735   2.761 -0.0358 -0.2678  0.0747
   17ASP    OD2  261   3.808   3.543   2.806  0.1682  0.4561  0.0420
   17ASP      C  262   3.725   3.527   2.485  0.9564  0.0416 -0.8718
   17ASP      O  263   3.772   3.623   2.430 -0.4870 -0.1397 -0.5175
   18LYS      N  264   3.778   3.406   2.465 -0.0935 -0.3208 -0.5142
   18LYS      H  265   3.718   3.329   2.493 -1.0018 -0.1551 -1.9232
   18LYS     CA  266   3.902   3.367   2.400  0.1282 -0.2814  0.0392
   18LYS     HA  267   3.979   3.430   2.445 -0.2604  0.3788 -0.2148
   18LYS     CB  268   3.933   3.222   2.431 -0.4024  0.2327  0.6177
   18LYS    HB1  269   4.023   3.185   2.382 -0.0921  1.7221  0.0114
   18LYS    HB2  270   3.854   3.155   2.398 -1.4651  0.6645  2.1607
   18LYS     CG  271   3.959   3.204   2.581  0.5049 -0.2493 -0.3022
   18LYS    HG1  272   3.887   3.262   2.639  0.6753 -0.4369  0.0987
   18LYS    HG2  273   4.054   3.252   2.601  0.3962  0.4821 -1.4157
   18LYS     CD  274   3.965   3.057   2.630 -0.8552 -0.0971 -0.8446
   18LYS    HD1  275   3.866   3.028   2.596 -2.4445  2.9640  0.8342
   18LYS    HD2  276   3.970   3.056   2.739  1.2352  1.0117 -0.8754
   18LYS     CE  277   4.072   2.964   2.555 -0.2351 -1.3216 -0.1710
   18LYS    HE1  278   4.167   3.017   2.563 -0.0836 -1.1085 -2.5673
   18LYS    HE2  279   4.052   2.959   2.447 -2.1017  1.1792 -0.0222
   18LYS     NZ  280   4.090   2.832   2.615 -0.3171 -0.0134 -0.2702
   18LYS    HZ1  281   4.148   2.770   2.561  0.0131  0.2692 -0.2481
   18LYS    HZ2  282   4.133   2.848   2.705 -0.0619  1.5003 -0.6347
   18LYS    HZ3  283   4.007   2.776   2.622  0.0297 -0.5560 -0.4631
   18LYS      C  284   3.904   3.385   2.249  0.4015 -0.0097 -0.2914
   18LYS      O  285   4.006   3.424   2.192 -0.0994 -0.3832 -0.7394
   19LEU      N  286   3.787   3.363   2.182 -0.0153  0.0786  0.1031
   19LEU      H  287   3.703   3.344   2.236  0.3829  0.6921  0.9629
   19LEU     CA  288   3.769   3.391   2.044  0.1003 -0.1882  0.4415
   19LEU     HA  289   3.860   3.365   1.989  0.4214  0.8515  0.4591
   19LEU     CB  290   3.662   3.303   1.993  0.4857 -0.1271 -0.7566
   19LEU    HB1  291   3.640   3.349   1.897 -1.1775 -0.6042 -0.6222
   19LEU    HB2  292   3.573   3.329   2.049  0.6845  1.0218 -0.9483
   19LEU     CG  293   3.680   3.157   1.980  0.5595 -0.1490 -0.2231
   19LEU     HG  294   3.681   3.107   2.077  1.0112 -1.0884 -0.7002
   19LEU    CD1  295   3.555   3.089   1.916  0.1156 -0.5735  0.2084
   19LEU   HD11  296   3.559   2.983   1.940  0.9844 -1.4216 -3.2457
   19LEU   HD12  297   3.467   3.126   1.969 -0.3372  0.3221 -1.1173
   19LEU   HD13  298   3.553   3.128   1.814  1.4470  1.9256  1.0390
   19LEU    CD2  299   3.808   3.127   1.905  0.3262 -0.3097  0.3423
   19LEU   HD21  300   3.806   3.181   1.810 -0.7331 -0.8404  0.0480
   19LEU   HD22  301   3.896   3.146   1.966  0.4889  0.8274 -0.2029
   19LEU   HD23  302   3.826   3.025   1.871  0.2218 -0.3069  0.2764
   19LEU      C  303   3.764   3.540   2.008  0.0107  0.0900 -0.8191
   19LEU      O  304   3.810   3.581   1.903  0.2795  0.1869 -0.1001
   20ARG      N  305   3.721   3.622   2.099  1.0742  0.1498 -0.0954
   20ARG      H  306   3.681   3.574   2.178 -3.1695  1.2683 -1.2807
   20ARG     CA  307   3.693   3.766   2.085  0.2032 -0.1547 -0.2628
   20ARG     HA  308   3.647   3.779   1.987  0.8169  1.5883 -0.3606
   20ARG     CB  309   3.609   3.820   2.202 -0.1772 -0.4135 -0.3544
   20ARG    HB1  310   3.676   3.831   2.287  2.5670  0.6270 -2.5018
   20ARG    HB2  311   3.527   3.751   2.225  0.5686 -0.7007  1.6885
   20ARG     CG  312   3.549   3.955   2.165  0.0578 -0.5862  0.1955
   20ARG    HG1  313   3.494   3.925   2.075  1.2132 -0.3552 -0.6211
   20ARG    HG2  314   3.631   4.025   2.146 -0.8603  0.0834 -1.5644
   20ARG     CD  315   3.447   4.012   2.267 -0.3690 -0.5983  0.7187
   20ARG    HD1  316   3.495   4.008   2.365  0.2568  0.6916  0.4920
   20ARG    HD2  317   3.361   3.945   2.264 -0.9444  0.1342  0.6073
   20ARG     NE  318   3.388   4.146   2.232 -0.0154  0.1312 -0.0442
   20ARG     HE  319   3.293   4.142   2.197  0.4894 -0.5281 -1.3841
   20ARG     CZ  320   3.444   4.258   2.265 -0.0740  0.3149 -0.6371
   20ARG    NH1  321   3.554   4.280   2.328 -0.0115 -0.0708 -0.5642
   20ARG   HH11  322   3.605   4.201   2.365  1.2877  1.3711  0.8259
   20ARG   HH12  323   3.584   4.375   2.343 -0.1740 -0.1659  0.4558
   20ARG    NH2  324   3.377   4.361   2.226  0.3361 -0.9921 -0.0952
   20ARG   HH21  325   3.283   4.344   2.191  0.2656 -0.2687 -0.2778
   20ARG   HH22  326   3.407   4.455   2.248  0.0920 -0.6223 -1.2632
   20ARG      C  327   3.821   3.845   2.074 -0.1138 -0.0819 -0.1121
   20ARG      O  328   3.825   3.954   2.020  0.1346 -0.0732 -0.5748
   21ARG      N  329   3.931   3.788   2.123  0.6871  0.2144  0.6147
   21ARG      H  330   3.917   3.700   2.171  0.5641  0.8098  1.7056
   21ARG     CA  331   4.062   3.854   2.144  0.1127 -0.5714 -0.8953
   21ARG     HA  332   4.047   3.961   2.129 -0.8417 -0.2264  1.9529
   21ARG     CB  333   4.099   3.845   2.298  0.1986 -0.0910  0.5057
   21ARG    HB1  334   4.085   3.741   2.326  0.0065  0.3333  2.0819
   21ARG    HB2  335   4.029   3.888   2.369 -0.4936  0.2850 -0.3877
   21ARG     CG  336   4.245   3.893   2.340 -0.0640  0.1004  0.7024
   21ARG    HG1  337   4.279   3.988   2.298 -1.3357  1.3107  2.2902
   21ARG    HG2  338   4.313   3.812   2.312  0.6568  0.6561  0.8328
   21ARG     CD  339   4.244   3.902   2.488  0.5583 -0.0646 -0.5543
   21ARG    HD1  340   4.229   3.805   2.537 -0.4331  0.7992  0.9118
   21ARG    HD2  341   4.169   3.970   2.529 -0.4159 -1.9884  1.0419
   21ARG     NE  342   4.368   3.955   2.540  0.6761  0.7355  0.2563
   21ARG     HE  343   4.374   4.053   2.565  4.6309  0.8341 -0.3714
   21ARG     CZ  344   4.480   3.887   2.570  0.9004  0.0350 -0.5976
   21ARG    NH1  345   4.487   3.758   2.558  0.5172 -0.2888 -0.1129
   21ARG   HH11  346   4.409   3.694   2.556 -0.0330  0.3688 -0.0965
   21ARG   HH12  347   4.572   3.710   2.585 -0.8237 -0.3845  4.8528
   21ARG    NH2  348   4.586   3.948   2.609  0.0601 -0.4556 -0.5727
   21ARG   HH21  349   4.581   4.049   2.614 -2.6297 -0.5228 -0.7479
   21ARG   HH22  350   4.654   3.882   2.644 -1.2081 -0.6398  1.7189
   21ARG      C  351   4.169   3.804   2.054 -0.9121  0.2071  0.3167
   21ARG    OC1  352   4.224   3.695   2.079  0.9987  0.0725  0.1940
   21ARG    OC2  353   4.217   3.880   1.964  0.4008  0.0566 -1.0241
   22SOL     OW  354   5.207   1.538   4.710 -0.3799  0.1181 -0.2371
   22SOL    HW1  355   5.294   1.512   4.669  0.0835  0.5302  0.4576
   22SOL    HW2  356   5.214   1.630   4.747 -0.6082 -0.4267  1.2291
   23SOL     OW  357   5.238   5.013   1.204  0.6395  0.1545  0.1069
   23SOL    HW1  358   5.223   4.929   1.152  0.9016  0.4750 -0.4976
   23SOL    HW2  359   5.326   5.010   1.250  0.7411  0.1874 -0.0873
   24SOL     OW  360   4.121   0.025   0.801 -0.2918  0.5725 -0.3598
   24SOL    HW1  361   4.090   0.098   0.739  0.2097  2.5252  1.5345
   24SOL    HW2  362   4.064   0.027   0.884  0.2091 -0.7537  0.0351
   25SOL     OW  363   0.764   2.908   1.476  0.5567 -0.5009  0.6302
   25SOL    HW1  364   0.726   2.838   1.417  0.8829 -0.6647  0.6088
   25SOL    HW2  365   0.857   2.930   1.447  0.8125 -0.7591  1.2199
   26SOL     OW  366   2.579   2.555   1.212 -0.0317  0.4860  0.0485
   26SOL    HW1  367   2.521   2.596   1.283 -0.9444 -1.7573  0.7065
   26SOL    HW2  368   2.541   2.577   1.122 -1.2165  0.0909  0.4300
   27SOL     OW  369   5.767   2.307   1.248  0.0116 -0.6921  0.1251
   27SOL    HW1  370   5.685   2.255   1.270 -0.4792  0.0439  0.0600
   27SOL    HW2  371   5.827   2.310   1.328 -0.7795  0.1592  0.7032
   28SOL     OW  372   0.941   0.843   0.758  0.8891  0.1936 -0.3556
   28SOL    HW1  373   0.868   0.896   0.799 -1.1757 -1.8253 -1.2367
   28SOL    HW2  374   1.017   0.904   0.735 -0.5716  2.4090  0.3747
   29SOL     OW  375   4.115   5.562   5.797  0.3738  0.0997  0.3726
   29SOL    HW1  376   4.031   5.511   5.814 -0.2166  0.9467  0.0752
   29SOL    HW2  377   4.169   5.515   5.728  0.3413 -0.6537  0.8407
   30SOL     OW  378   5.591   5.219   0.704 -0.4496  0.0925  0.1819
   30SOL    HW1  379   5.577   5.120   0.710 -4.6762  0.5585  1.8841
   30SOL    HW2  380   5.665   5.246   0.766  0.5471 -1.9124 -0.0482
   31SOL     OW  381   1.831   2.335   2.550  0.2411  0.5993 -0.2519
   31SOL    HW1  382   1.899   2.387   2.497  0.8048  1.3372  1.1400
   31SOL    HW2  383   1.741   2.375   2.534  0.5123  1.3119 -0.0753
   32SOL     OW  384   0.657   2.089   2.592  0.2745  0.3632  0.0477
   32SOL    HW1  385   0.601   2.172   2.592  0.4597  0.4924  0.3505
   32SOL    HW2  386   0.754   2.115   2.601  0.3903  0.1504 -0.5645
   33SOL     OW  387   5.112   0.919   0.381 -0.0783 -0.0174  0.3123
   33SOL    HW1  388   5.111   0.871   0.293 -0.2876 -1.1665  0.9156
   33SOL    HW2  389   5.198   0.901   0.428 -0.3676 -0.2368  0.7702
   34SOL     OW  390   0.596   0.606   1.253  0.4265  0.3663  0.2409
   34SOL    HW1  391   0.611   0.637   1.347  1.2456  0.3697  0.1121
   34SOL    HW2  392   0.520   0.657   1.213 -1.3310 -1.0551  1.5679
   35SOL     OW  393   5.802   1.346   1.592  0.1312 -0.5865  0.2328
   35SOL    HW1  394   5.820   1.248   1.601 -3.2097 -1.2186  1.6179
   35SOL    HW2  395   5.755   1.364   1.505 -1.4369 -0.6774  1.0268
   36SOL     OW  396   1.495   5.701   0.184  1.0182 -0.1370  0.1460
   36SOL    HW1  397   1.478   5.662   0.274 -0.3374 -0.2182 -0.1182
   36SOL    HW2  398   1.455   5.792   0.179 -1.8365 -1.3309 -1.3334
   37SOL     OW  399   5.935   2.526   1.183 -0.3985 -0.0648  0.2190
   37SOL    HW1  400   5.907   2.617   1.214 -0.4292 -0.4874  1.4871
   37SOL    HW2  401   5.855   2.465   1.185 -0.1046 -0.4426  0.6605
   38SOL     OW  402   2.194   0.906   1.658  0.6738  1.1358  0.1254
   38SOL    HW1  403   2.149   0.921   1.570  0.1606  0.4817  0.2675
   38SOL    HW2  404   2.141   0.841   1.712  2.1319 -0.2059  0.0145
   39SOL     OW  405   4.868   1.308   0.565  0.1522 -0.2636 -0.1661
   39SOL    HW1  406   4.950   1.330   0.511  0.1884 -0.6186 -0.2618
   39SOL    HW2  407   4.790   1.296   0.504  0.4706 -2.0064 -0.3073
   40SOL     OW  408   0.614   2.765   1.321 -0.3439  0.0634  0.6671
   40SOL    HW1  409   0.587   2.669   1.312  0.8112 -0.2525  0.4156
   40SOL    HW2  410   0.646   2.799   1.233  1.8684 -0.1632  1.3226
   41SOL     OW  411   0.265   1.201   2.379 -0.0895  0.3407  0.0005
   41SOL    HW1  412   0.252   1.188   2.281 -1.3651  0.3594  0.1470
   41SOL    HW2  413   0.250   1.297   2.402 -0.4458  0.2198  0.2936
   42SOL     OW  414   0.039   1.233   5.801  0.0800 -0.5044  0.0458
   42SOL    HW1  415   0.137   1.240   5.783  0.2336 -0.4254  0.8894
   42SOL    HW2  416   0.022   1.163   5.871 -0.3187  0.5550  1.0335
   43SOL     OW  417   1.107   5.524   2.095 -0.1109  0.4483  0.5375
   43SOL    HW1  418   1.102   5.544   2.193  0.2326  1.0545  0.4352
   43SOL    HW2  419   1.201   5.538   2.063  0.0861 -1.0209  0.3846
   44SOL     OW  420   5.854   5.135   1.539 -0.5645  0.0979  0.0922
   44SOL    HW1  421   5.923   5.203   1.515  0.5989 -1.6725 -1.9930
   44SOL    HW2  422   5.769   5.155   1.490  0.0638 -0.4120 -1.2481
   45SOL     OW  423   3.223   1.513   5.800 -0.2445  0.5799  0.3295
   45SOL    HW1  424   3.179   1.488   5.887 -0.0062 -0.0063  0.2851
   45SOL    HW2  425   3.178   1.466   5.725  1.4549 -1.3379  0.4347
   46SOL     OW  426   5.505   1.086   0.844 -0.0529 -0.0139 -0.5921
   46SOL    HW1  427   5.538   1.136   0.764 -1.0295  0.9384 -0.4267
   46SOL    HW2  428   5.407   1.103   0.856 -0.1558 -1.0504  0.1583
   47SOL     OW  429   0.608   1.644   0.647 -0.4808 -0.3902 -0.1357
   47SOL    HW1  430   0.569   1.712   0.586  0.2925 -0.6432 -0.9319
   47SOL    HW2  431   0.700   1.619   0.615  0.2927  0.0820  1.5929
   48SOL     OW  432   0.227   1.581   0.584  0.6615  0.0613  0.3330
   48SOL    HW1  433   0.320   1.546   0.596  0.7026  0.6965  2.1507
   48SOL    HW2  434   0.167   1.507   0.555  1.2932 -0.8843  1.3821
   49SOL     OW  435   5.042   3.694   2.924 -0.0791 -0.0777 -0.4505
   49SOL    HW1  436   5.134   3.708   2.959  0.2257 -0.3127 -1.1391
   49SOL    HW2  437   5.014   3.773   2.870 -0.3733  0.0934 -0.0501
   50SOL     OW  438   0.492   1.345   5.411 -0.1021  0.3516  0.3303
   50SOL    HW1  439   0.521   1.338   5.316  1.3455 -1.2049  0.8156
   50SOL    HW2  440   0.394   1.361   5.416  0.0259  1.8747 -1.4098
   51SOL     OW  441   1.504   0.089   2.471  0.0984 -0.0457  0.1466
   51SOL    HW1  442   1.533   0.123   2.561  2.3917 -0.9517 -0.1856
   51SOL    HW2  443   1.554   0.137   2.399  1.9204 -2.5175 -0.4040
   52SOL     OW  444   0.041   4.608   0.125 -0.1906 -0.1060 -0.1804
   52SOL    HW1  445   0.012   4.546   0.051 -0.5273 -0.4210  0.2154
   52SOL    HW2  446  -0.032   4.673   0.144  0.6365  1.2878 -1.4914
   53SOL     OW  447   1.425   0.073   0.619 -0.3026 -0.0458  0.3078
   53SOL    HW1  448   1.458  -0.017   0.646 -1.3396 -0.4056  0.4121
   53SOL    HW2  449   1.425   0.133   0.699  0.7967  0.1884  0.1480
   54SOL     OW  450   2.590   0.058   5.894  0.0351 -0.2608  0.1941
   54SOL    HW1  451   2.496   0.049   5.860 -0.8225 -0.0659  2.3601
   54SOL    HW2  452   2.626   0.148   5.869 -1.2113  0.5598  1.2283
   55SOL     OW  453   1.431   2.740   1.924 -0.0415  0.5084  0.2852
   55SOL    HW1  454   1.415   2.838   1.940 -0.7621  0.5260 -0.4509
   55SOL    HW2  455   1.526   2.726   1.898  0.1199  0.9859  0.5941
   56SOL     OW  456   5.083   0.414   3.077 -0.6206  0.2070 -0.1562
   56SOL    HW1  457   5.008   0.430   3.141 -0.1758  2.7884 -0.1644
   56SOL    HW2  458   5.169   0.446   3.117  0.5638 -2.5810 -0.1882
   57SOL     OW  459   0.225   0.497   0.756  0.3129  0.3116 -0.5361
   57SOL    HW1  460   0.252   0.404   0.733 -0.8939 -0.0963 -0.3901
   57SOL    HW2  461   0.293   0.538   0.816 -1.7090 -2.4716  4.1316
   58SOL     OW  462   0.625   1.739   5.219 -0.4769  0.0695  0.2039
   58SOL    HW1  463   0.627   1.687   5.134  0.5465  0.6580 -0.1447
   58SOL    HW2  464   0.713   1.731   5.265 -1.7149 -2.2429  2.4647
   59SOL     OW  465   5.630   5.482   0.464 -0.3248  0.1634 -0.7595
   59SOL    HW1  466   5.596   5.575   0.479  0.5202  0.5667 -1.2603
   59SOL    HW2  467   5.553   5.422   0.443 -1.0867  0.3722  1.2162
   60SOL     OW  468   0.222   0.090   5.756 -0.0782 -0.1262 -0.2235
   60SOL    HW1  469   0.125   0.079   5.732 -0.1562  0.3261 -0.1285
   60SOL    HW2  470   0.235   0.070   5.853 -0.1937  0.4403 -0.0854
   61SOL     OW  471   2.820   0.668   1.040 -0.3991 -0.2067 -0.2444
   61SOL    HW1  472   2.826   0.608   0.960 -0.5974 -0.6853  0.1038
   61SOL    HW2  473   2.913   0.688   1.073 -0.2279  1.0460 -1.3678
   62SOL     OW  474   0.383   5.324   1.179 -0.0395  0.0834  0.1022
   62SOL    HW1  475   0.427   5.248   1.131 -0.4050  0.0528 -0.1946
   62SOL    HW2  476   0.327   5.376   1.114  2.2130  2.1862 -0.3093
   63SOL     OW  477   5.614   5.080   1.756 -0.0786 -0.5523  0.5171
   63SOL    HW1  478   5.556   5.063   1.676  0.4698 -0.7350  0.1542
   63SOL    HW2  479   5.586   5.166   1.800  0.2234  0.0404 -0.4172
   64SOL     OW  480   1.821   3.401   0.355 -0.4376 -0.7008 -0.7529
   64SOL    HW1  481   1.779   3.488   0.327 -0.9565 -0.5953  0.3165
   64SOL    HW2  482   1.807   3.333   0.284 -1.3302 -0.3221 -0.9479
   65SOL     OW  483   1.302   1.319   0.471 -0.5740 -0.5700 -0.2793
   65SOL    HW1  484   1.342   1.358   0.388 -3.4057  0.9393 -1.0680
   65SOL    HW2  485   1.248   1.238   0.446 -0.1448 -1.0646  0.3665
   66SOL     OW  486   1.743   0.652   5.190  0.2136 -0.4095 -0.3538
   66SOL    HW1  487   1.657   0.702   5.184  0.5715  0.2255 -0.3448
   66SOL    HW2  488   1.816   0.706   5.148  0.7787 -0.5291  0.4377
   67SOL     OW  489   5.647   0.819   0.879  0.1958 -0.1515  0.1553
   67SOL    HW1  490   5.605   0.768   0.953  1.0652 -1.0279  0.0725
   67SOL    HW2  491   5.601   0.908   0.868  0.0473 -0.0127  1.7188
   68SOL     OW  492   5.066   2.513   2.570 -0.3800 -0.0093  0.0498
   68SOL    HW1  493   5.050   2.415   2.560 -1.2540 -0.0268  1.3559
   68SOL    HW2  494   5.040   2.542   2.662 -3.2970  2.0415 -1.2572
   69SOL     OW  495   0.539   5.382   5.726  0.2551  0.1573 -0.3048
   69SOL    HW1  496   0.537   5.318   5.649  1.1828  0.6896 -0.7836
   69SOL    HW2  497   0.457   5.440   5.722 -1.2668 -1.7689  0.8517
   70SOL     OW  498   1.000   0.801   2.279 -0.3484 -0.4557 -0.1702
   70SOL    HW1  499   0.939   0.737   2.232 -0.9843  0.6315 -0.8913
   70SOL    HW2  500   0.946   0.877   2.316  0.4038 -0.2258  0.4770
   71SOL     OW  501   1.019   1.248   0.123  0.0223 -0.4447  0.1413
   71SOL    HW1  502   1.024   1.342   0.156 -0.0687 -0.4460  0.1605
   71SOL    HW2  503   1.021   1.247   0.023 -1.4172 -0.3190  0.0912
   72SOL     OW  504   1.723   5.232   0.439 -0.7580  0.2279  0.0544
   72SOL    HW1  505   1.761   5.316   0.400  1.0685 -0.6103 -0.0768
   72SOL    HW2  506   1.739   5.231   0.538 -0.0613 -0.3122 -0.0604
   73SOL     OW  507   0.019   1.064   0.088 -0.1502  0.3451  0.0636
   73SOL    HW1  508   0.026   1.096   0.182 -3.0981  0.1025  0.4583
   73SOL    HW2  509   0.104   1.018   0.062  0.8099  0.5826  2.5262
   74SOL     OW  510   0.553   5.454   0.390  0.0529  0.0281 -0.0839
   74SOL    HW1  511   0.587   5.441   0.483 -1.1231  0.8124  0.4713
   74SOL    HW2  512   0.477   5.519   0.390 -1.6152 -1.7953 -1.2301
   75SOL     OW  513   3.753   1.118   0.485  0.0635 -0.1876  0.3911
   75SOL    HW1  514   3.759   1.189   0.555 -2.8538 -2.9247  3.8591
   75SOL    HW2  515   3.686   1.145   0.416  2.2754  2.1484 -1.0175
   76SOL     OW  516   1.051   2.157   1.718  0.2050 -0.2730  0.1983
   76SOL    HW1  517   0.958   2.160   1.755  0.7202  0.0508  1.5151
   76SOL    HW2  518   1.109   2.222   1.767  1.3607 -1.1401  0.0368
   77SOL     OW  519   0.291   0.970   0.581 -0.0646  0.4668  0.1559
   77SOL    HW1  520   0.390   0.963   0.586  0.0954  1.8795 -0.5135
   77SOL    HW2  521   0.254   0.984   0.673  0.6319  2.4921  0.1852
   78SOL     OW  522   2.138   0.082   1.406  0.1465  0.6462 -0.2038
   78SOL    HW1  523   2.056   0.049   1.453  0.9217 -2.0440 -0.5225
   78SOL    HW2  524   2.166   0.170   1.444 -0.4503 -0.3821  2.9300
   79SOL     OW  525   0.654   4.956   0.763 -0.4686  0.8748  0.0733
   79SOL    HW1  526   0.585   4.923   0.700  0.1415 -2.7834  1.0641
   79SOL    HW2  527   0.744   4.953   0.719 -0.0203 -1.8386  0.9964
   80SOL     OW  528   2.067   0.655   0.700  0.3018 -0.0729  0.1453
   80SOL    HW1  529   1.980   0.692   0.732 -0.3733 -1.2096 -0.3035
   80SOL    HW2  530   2.141   0.717   0.726 -0.2235 -0.6049  3.3736
   81SOL     OW  531   5.739   0.381   4.326 -0.1035  0.0013  0.0222
   81SOL    HW1  532   5.754   0.300   4.270  1.4233  0.8090 -0.7863
   81SOL    HW2  533   5.827   0.416   4.359 -0.7629  1.1289  0.6630
   82SOL     OW  534   2.418   0.385   5.186 -0.4151 -0.3253 -0.4204
   82SOL    HW1  535   2.477   0.339   5.119  1.2152  0.4421  0.4457
   82SOL    HW2  536   2.453   0.367   5.278 -1.5194  0.2079  0.1100
   83SOL     OW  537   0.624   1.982   5.733 -0.3252  0.1602  0.0770
   83SOL    HW1  538   0.623   1.902   5.673  0.3953  0.1202  0.1111
   83SOL    HW2  539   0.717   1.998   5.765 -0.3772  1.2821 -0.2893
   84SOL     OW  540   1.667   3.785   5.775  0.4659  0.2403 -0.4474
   84SOL    HW1  541   1.664   3.706   5.713 -0.0800  0.2572 -0.4496
   84SOL    HW2  542   1.616   3.763   5.859 -2.3803  1.6140 -1.6753
   85SOL     OW  543   2.036   3.439   0.784  0.2780  0.3860 -0.1189
   85SOL    HW1  544   1.996   3.436   0.693 -0.5864  2.9791  0.0888
   85SOL    HW2  545   1.965   3.459   0.851  1.2115  0.4833  0.8744
   86SOL     OW  546   2.953   0.438   1.331  0.4078  0.7780 -0.4029
   86SOL    HW1  547   2.856   0.422   1.314  0.5259 -0.0297 -0.3407
   86SOL    HW2  548   2.981   0.391   1.414  1.5262 -1.6390 -2.0217
   87SOL     OW  549   4.123   0.413   1.843  0.1089  0.1585  0.1779
   87SOL    HW1  550   4.203   0.386   1.896  0.0272  0.3738  0.4116
   87SOL    HW2  551   4.144   0.405   1.745  0.8557  1.4562  0.2130
   88SOL     OW  552   1.191   1.734   0.428  0.2988 -0.2206 -0.3231
   88SOL    HW1  553   1.225   1.701   0.340  1.3901 -1.0099  0.3613
   88SOL    HW2  554   1.130   1.665   0.467 -1.2168  0.6868 -1.0186
   89SOL     OW  555   0.598   0.282   4.117 -0.1014  0.2746  0.6151
   89SOL    HW1  556   0.612   0.380   4.127  1.0342  0.0260  1.6526
   89SOL    HW2  557   0.606   0.237   4.206 -1.6980 -0.6493  0.3352
   90SOL     OW  558   5.641   5.519   2.341 -0.1993 -0.2057 -0.9107
   90SOL    HW1  559   5.674   5.510   2.435 -2.3253  0.4167 -0.0378
   90SOL    HW2  560   5.682   5.600   2.298  0.4516 -0.2426 -0.3643
   91SOL     OW  561   0.982   1.836   2.761 -0.7332 -0.1913 -0.8178
   91SOL    HW1  562   0.987   1.926   2.718 -0.1839 -0.5812 -1.5892
   91SOL    HW2  563   0.887   1.804   2.760 -0.6173 -0.6329 -2.7189
   92SOL     OW  564   0.538   4.947   5.608 -0.1441 -0.1045  0.4344
   92SOL    HW1  565   0.535   4.852   5.636  3.4092 -1.1584 -1.9447
   92SOL    HW2  566   0.595   4.999   5.672 -1.3434  0.2299  1.2432
   93SOL     OW  567   1.282   2.320   1.754  0.2894 -0.2776 -0.2678
   93SOL    HW1  568   1.240   2.340   1.665 -0.1566  0.0874  0.0203
   93SOL    HW2  569   1.381   2.332   1.747  0.2976 -0.6092 -0.8104
   94SOL     OW  570   0.870   0.399   0.807  0.8332  0.6057  0.0531
   94SOL    HW1  571   0.898   0.315   0.759 -1.7330 -0.4843  0.3009
   94SOL    HW2  572   0.875   0.476   0.744 -0.7775 -0.4880 -1.5081
   95SOL     OW  573   5.619   0.276   0.670  0.1256  0.5383 -0.0717
   95SOL    HW1  574   5.585   0.185   0.694  0.9849  0.1352 -0.3428
   95SOL    HW2  575   5.692   0.303   0.734  0.6120  0.5725 -0.6267
   96SOL     OW  576   0.595   0.897   0.618  0.2931 -0.4128  0.1263
   96SOL    HW1  577   0.655   0.947   0.555 -2.1495  0.5761 -1.5715
   96SOL    HW2  578   0.598   0.799   0.596 -1.8351  0.0498 -2.9685
   97SOL     OW  579   4.531   4.079   5.500  0.2780 -0.0122  0.3657
   97SOL    HW1  580   4.510   4.175   5.522 -1.2707  0.2808 -2.0231
   97SOL    HW2  581   4.623   4.072   5.462  0.2257  0.6028  0.1234
   98SOL     OW  582   0.157   0.511   0.163 -0.3733  0.4017  0.0601
   98SOL    HW1  583   0.064   0.480   0.144 -0.2673 -1.6356  2.2951
   98SOL    HW2  584   0.165   0.609   0.145 -3.1871  0.8148  0.6700
   99SOL     OW  585   0.045   1.756   0.780  0.0106  0.0973 -0.3833
   99SOL    HW1  586   0.143   1.750   0.761  0.0809  1.9030 -0.7332
   99SOL    HW2  587  -0.007   1.721   0.702  0.3389 -1.5492  0.0882
  100SOL     OW  588   0.593   2.103   1.222  0.1702  0.4536 -0.4772
  100SOL    HW1  589   0.577   2.098   1.321  1.0362 -1.6490 -0.3886
  100SOL    HW2  590   0.520   2.056   1.173  2.6550 -4.0744 -0.3782
  101SOL     OW  591   1.606   4.860   5.554 -0.2940  0.2776 -0.2835
  101SOL    HW1  592   1.691   4.887   5.600  0.6970 -0.4554 -1.6206
  101SOL    HW2  593   1.606   4.895   5.461 -2.3290  1.8524  0.2374
  102SOL     OW  594   0.879   4.653   0.485 -0.1140 -0.3168  0.2807
  102SOL    HW1  595   0.858   4.662   0.388 -0.7987  0.5582  0.4918
  102SOL    HW2  596   0.849   4.563   0.518 -1.3919 -0.0042  0.0337
  103SOL     OW  597   2.101   0.076   5.360  0.2710  0.0441  0.1088
  103SOL    HW1  598   2.056   0.166   5.359  1.6640  0.7746  0.5258
  103SOL    HW2  599   2.115   0.045   5.267 -1.3150 -0.3353 -0.0364
  104SOL     OW  600   5.054   0.676   2.442  0.3030  0.0217  0.4001
  104SOL    HW1  601   4.972   0.693   2.387 -0.0732  0.8662  1.1859
  104SOL    HW2  602   5.133   0.718   2.399  0.3456 -0.8194 -0.3785
  105SOL     OW  603   5.626   0.345   0.397  0.1154 -0.1358  0.2199
  105SOL    HW1  604   5.604   0.299   0.483 -0.5587  0.4708  0.3767
  105SOL    HW2  605   5.645   0.442   0.414 -0.1428  0.0129 -0.3303
  106SOL     OW  606   5.778   2.052   4.072  0.5875 -0.1775 -0.2817
  106SOL    HW1  607   5.802   2.094   4.160 -0.4268  1.3225 -0.6801
  106SOL    HW2  608   5.819   2.105   3.998  0.9257 -1.0724 -0.7401
  107SOL     OW  609   1.342   5.213   5.313  0.3827  0.1817  0.0797
  107SOL    HW1  610   1.372   5.188   5.221 -1.3130 -0.9566 -0.2221
  107SOL    HW2  611   1.300   5.303   5.311  0.2439  0.1124 -0.2980
  108SOL     OW  612   0.980   1.368   5.515  0.3555 -0.3923  0.3017
  108SOL    HW1  613   0.935   1.353   5.427  3.9868 -0.5801 -1.6905
  108SOL    HW2  614   1.003   1.464   5.525  0.0587 -0.3913  1.0497
  109SOL     OW  615   1.725   5.330   0.993  0.7064 -0.7760  0.0030
  109SOL    HW1  616   1.806   5.388   0.999  0.6730 -0.5699 -1.2489
  109SOL    HW2  617   1.744   5.242   1.036  0.9507 -0.0730  1.3890
  110SOL     OW  618   1.521   1.943   5.574  0.2945 -0.3341 -0.0902
  110SOL    HW1  619   1.521   2.035   5.536  2.0184  0.0032  0.6418
  110SOL    HW2  620   1.589   1.937   5.647 -0.2649 -2.0109  0.3411
  111SOL     OW  621   3.005   1.034   5.494 -0.0317  0.5704 -0.2802
  111SOL    HW1  622   3.056   0.952   5.520 -0.2924  0.3118 -0.5792
  111SOL    HW2  623   3.067   1.098   5.449  0.0040  0.2061 -0.7508
  112SOL     OW  624   1.022   1.567   5.819  0.2683 -0.5865 -0.0086
  112SOL    HW1  625   1.039   1.469   5.829 -0.6072 -1.0982 -2.6887
  112SOL    HW2  626   0.932   1.589   5.857  1.1658 -0.4344  2.1450
  113SOL     OW  627   0.725   0.629   4.479 -0.4557  0.2206  0.2024
  113SOL    HW1  628   0.684   0.588   4.560 -0.4275 -1.9461 -0.8236
  113SOL    HW2  629   0.809   0.676   4.504 -0.4789 -0.3662  1.4403
  114SOL     OW  630   4.474   1.949   0.390 -0.2827 -0.5799  0.2495
  114SOL    HW1  631   4.499   2.041   0.418 -2.6639  0.6720 -1.3752
  114SOL    HW2  632   4.486   1.938   0.292 -1.1608 -1.5666  0.2205
  115SOL     OW  633   1.454   1.995   1.740 -0.4256 -0.2772  0.5310
  115SOL    HW1  634   1.527   2.062   1.724 -1.9851  0.8152 -2.7929
  115SOL    HW2  635   1.386   2.034   1.802 -0.5694  0.6307 -0.1816
  116SOL     OW  636   0.219   2.458   5.474 -0.1078 -0.1437  0.2202
  116SOL    HW1  637   0.264   2.371   5.454  0.5973  0.4799 -1.0756
  116SOL    HW2  638   0.208   2.469   5.573 -0.7378 -1.9497  0.3839
  117SOL     OW  639   2.474   1.174   0.535 -0.2970  0.1789 -0.8156
  117SOL    HW1  640   2.568   1.200   0.557 -0.4772 -0.6997  1.2125
  117SOL    HW2  641   2.464   1.166   0.436  2.0722 -0.7712 -1.0350
  118SOL     OW  642   0.698   2.028   0.833  0.2183 -0.1473  0.8742
  118SOL    HW1  643   0.678   2.105   0.893  0.2649  1.3539 -0.9314
  118SOL    HW2  644   0.618   2.008   0.776  0.3645 -1.1541  0.9927
  119SOL     OW  645   0.971   2.479   1.934  0.1977 -0.6718  0.0648
  119SOL    HW1  646   1.066   2.497   1.907  0.1254 -1.2917 -0.6347
  119SOL    HW2  647   0.914   2.473   1.853 -0.5524  0.2442  0.5096
  120SOL     OW  648   0.684   5.559   0.136  0.2636  0.5545  0.5662
  120SOL    HW1  649   0.784   5.559   0.136  0.3174 -1.8345  0.6797
  120SOL    HW2  650   0.650   5.541   0.229 -0.2676  0.5238  0.3715
  121SOL     OW  651   1.875   0.560   2.185 -0.1400  0.2778  0.3973
  121SOL    HW1  652   1.835   0.530   2.099  1.5586  0.3132 -0.4399
  121SOL    HW2  653   1.915   0.481   2.233 -1.2166  0.2285  1.2542
  122SOL     OW  654   1.163   4.775   5.899  0.0591  0.2116  0.2601
  122SOL    HW1  655   1.246   4.759   5.845 -0.2795 -0.6560 -0.0163
  122SOL    HW2  656   1.189   4.795   5.994  0.5630 -3.5207  1.0634
  123SOL     OW  657   1.830   2.120   2.917  0.4750  0.1310  0.0999
  123SOL    HW1  658   1.889   2.130   2.837  0.7022 -1.0332  0.1029
  123SOL    HW2  659   1.880   2.073   2.990 -0.9589 -2.7427 -0.5884
  124SOL     OW  660   2.365   0.280   1.175  0.0296 -0.3376 -0.4049
  124SOL    HW1  661   2.394   0.273   1.271  1.1001 -0.8326 -0.7586
  124SOL    HW2  662   2.289   0.345   1.169  1.1058  1.0859  0.5517
  125SOL     OW  663   0.215   2.522   1.549 -0.3066 -0.1418  0.1529
  125SOL    HW1  664   0.116   2.508   1.541  0.0121 -2.4428 -0.3416
  125SOL    HW2  665   0.256   2.448   1.601  1.2051  0.7280  0.2760
  126SOL     OW  666   0.376   3.056   1.963 -0.3238  0.2944  0.2181
  126SOL    HW1  667   0.333   3.092   1.880 -0.2372  1.2404  0.5687
  126SOL    HW2  668   0.453   2.997   1.938  0.0865  1.0596 -0.3847
  127SOL     OW  669   2.437   0.844   2.283 -0.0521 -0.2748  0.1348
  127SOL    HW1  670   2.408   0.748   2.287 -0.0729 -0.2504  0.5566
  127SOL    HW2  671   2.508   0.854   2.214  2.0912 -1.1699  2.0850
  128SOL     OW  672   0.800   1.002   0.426 -0.7166  0.4214 -0.6398
  128SOL    HW1  673   0.783   0.973   0.332 -1.6162 -1.4386  0.0493
  128SOL    HW2  674   0.898   1.019   0.439  0.0004 -2.7853 -1.0519
  129SOL     OW  675   0.624   1.061   1.209 -0.3686 -0.5385 -0.3078
  129SOL    HW1  676   0.558   1.014   1.150 -0.8585 -2.1449  1.4223
  129SOL    HW2  677   0.575   1.122   1.271  0.0247  0.1249 -0.6366
  130SOL     OW  678   2.826   2.605   1.362  0.9200  0.2354 -0.2518
  130SOL    HW1  679   2.743   2.577   1.316 -0.9312  2.4129  1.5197
  130SOL    HW2  680   2.874   2.525   1.398 -1.7459 -0.9799  0.8310
  131SOL     OW  681   4.015   1.410   0.253  0.2887 -0.6206  0.7535
  131SOL    HW1  682   4.069   1.490   0.280  0.5354 -1.2798  2.3023
  131SOL    HW2  683   4.022   1.398   0.154  1.8165  0.1675  0.7246
  132SOL     OW  684   1.914   0.303   2.888 -0.0195  0.0634  0.1043
  132SOL    HW1  685   1.887   0.386   2.840 -1.3918 -1.0414 -1.1126
  132SOL    HW2  686   1.859   0.293   2.971  1.5785  1.3899  1.3883
  133SOL     OW  687   2.519   0.279   1.434  0.3439  0.1078  0.2787
  133SOL    HW1  688   2.590   0.340   1.397  0.0917  0.4770  0.3919
  133SOL    HW2  689   2.533   0.267   1.532 -0.4984  1.2397  0.5589
  134SOL     OW  690   0.272   0.522   0.409  0.1093 -0.2890 -0.3284
  134SOL    HW1  691   0.255   0.617   0.435  0.1511 -0.7173  1.3800
  134SOL    HW2  692   0.219   0.500   0.327 -2.4385  0.3064  1.0711
  135SOL     OW  693   2.690   0.180   2.576 -0.2386 -0.7994  0.2064
  135SOL    HW1  694   2.673   0.208   2.481  0.7704  0.6729  0.4223
  135SOL    HW2  695   2.635   0.237   2.638  0.7180 -0.2661  0.5877
  136SOL     OW  696   5.151   0.335   2.311  0.0400 -0.4709  0.3203
  136SOL    HW1  697   5.104   0.389   2.242  0.5629  0.7775  0.9062
  136SOL    HW2  698   5.156   0.240   2.281 -0.8057 -0.1895 -0.7903
  137SOL     OW  699   5.537   1.589   5.657 -0.2626 -0.1445  0.4714
  137SOL    HW1  700   5.628   1.574   5.620 -1.1355 -1.4625 -1.3096
  137SOL    HW2  701   5.532   1.679   5.699  1.1292  1.0526 -1.7717
  138SOL     OW  702   2.428   1.850   0.319  0.0381 -0.0303  0.3543
  138SOL    HW1  703   2.352   1.859   0.384 -0.8928 -0.2324 -0.6815
  138SOL    HW2  704   2.477   1.765   0.336  0.0580  0.1107  1.0383
  139SOL     OW  705   5.477   0.293   2.101 -0.3505  0.1498  0.2046
  139SOL    HW1  706   5.473   0.350   2.184 -0.8219  0.7375 -0.2117
  139SOL    HW2  707   5.406   0.322   2.037 -0.1660 -0.4795 -0.2980
  140SOL     OW  708   0.563   1.640   0.123  0.1985 -0.0713  0.0321
  140SOL    HW1  709   0.493   1.616   0.191 -0.2805 -1.0637 -0.7952
  140SOL    HW2  710   0.559   1.738   0.104 -0.3182  0.0441  0.6985
  141SOL     OW  711   1.880   5.686   0.818  0.8362  0.6435  0.2362
  141SOL    HW1  712   1.921   5.777   0.818 -1.1255  1.5863  0.3307
  141SOL    HW2  713   1.904   5.638   0.734  3.5414  0.4129  1.0645
  142SOL     OW  714   0.167   0.902   2.153  0.3460  0.5796  0.7134
  142SOL    HW1  715   0.199   0.996   2.144 -0.7927  0.9201 -0.0371
  142SOL    HW2  716   0.158   0.861   2.062  2.3346 -0.8190  1.0728
  143SOL     OW  717   5.684   0.738   1.789 -0.1269 -0.1851  0.0502
  143SOL    HW1  718   5.649   0.746   1.696 -0.9193 -1.3174  0.2280
  143SOL    HW2  719   5.634   0.666   1.837  0.0869  0.5612  1.4401
  144SOL     OW  720   1.635   1.228   1.412  0.1131 -0.1610 -0.1462
  144SOL    HW1  721   1.668   1.284   1.488 -1.0651  0.4623 -0.0759
  144SOL    HW2  722   1.578   1.283   1.351  0.3881 -0.8495 -1.0619
  145SOL     OW  723   0.824   1.833   1.462  0.1671 -0.7619  0.1163
  145SOL    HW1  724   0.774   1.849   1.547 -1.6555 -0.3481 -0.9718
  145SOL    HW2  725   0.762   1.792   1.395  1.2798 -0.1343 -1.3403
  146SOL     OW  726   0.094   2.259   2.314 -0.4238 -0.0314  0.0219
  146SOL    HW1  727   0.113   2.330   2.383  0.2088 -0.8456  0.7137
  146SOL    HW2  728   0.114   2.295   2.223  0.2950  0.5597  0.4003
  147SOL     OW  729   1.258   1.220   1.197 -0.5100 -0.1820 -0.3502
  147SOL    HW1  730   1.202   1.145   1.162  0.6178 -0.6796 -1.1055
  147SOL    HW2  731   1.229   1.306   1.154 -2.4578  0.0278  1.2285
  148SOL     OW  732   4.348   0.282   1.982  0.2276  0.3201 -0.1260
  148SOL    HW1  733   4.425   0.345   1.967 -0.1672  0.7676 -0.2882
  148SOL    HW2  734   4.341   0.219   1.904 -0.3765  1.1292 -0.7353
  149SOL     OW  735   1.873   1.458   0.904  0.6005  0.1615 -0.0176
  149SOL    HW1  736   1.852   1.378   0.960  1.1213  0.3283  0.4203
  149SOL    HW2  737   1.946   1.435   0.839  0.2226  0.0636 -0.4162
  150SOL     OW  738   1.930   0.521   1.019 -0.3449  0.1324 -0.1007
  150SOL    HW1  739   1.951   0.612   0.984  1.9077 -1.1746 -2.5220
  150SOL    HW2  740   1.859   0.479   0.963 -0.7052  0.0319  0.4238
  151SOL     OW  741   0.429   0.710   4.877  0.6525  0.1813  0.4558
  151SOL    HW1  742   0.481   0.656   4.811  1.6909  0.5049  0.9972
  151SOL    HW2  743   0.373   0.650   4.934 -0.9763 -0.0503 -1.2915
  152SOL     OW  744   0.936   0.473   0.223 -0.0406 -0.3502 -0.3354
  152SOL    HW1  745   0.924   0.510   0.131 -0.0234 -2.1277 -1.0930
  152SOL    HW2  746   0.970   0.379   0.217  1.5423  0.0410  1.5284
  153SOL     OW  747   5.018   5.421   0.271 -0.0600  0.3440 -0.5092
  153SOL    HW1  748   4.966   5.349   0.224  0.2410 -0.4906  0.4073
  153SOL    HW2  749   4.978   5.510   0.249 -0.5681 -0.1091 -1.5046
  154SOL     OW  750   1.487   0.093   2.027 -0.1519  0.3117  0.5115
  154SOL    HW1  751   1.441   0.124   1.944  0.5941  0.0558 -0.0070
  154SOL    HW2  752   1.513   0.173   2.083  1.2296  0.6358 -0.5339
  155SOL     OW  753   0.599   4.626   0.439  0.6219 -0.1526  0.1517
  155SOL    HW1  754   0.666   4.553   0.452  0.6333 -0.2210 -0.2717
  155SOL    HW2  755   0.584   4.674   0.526  0.2458 -0.9705  0.5564
  156SOL     OW  756   4.746   2.242   0.749  0.0355  0.5878  0.1021
  156SOL    HW1  757   4.750   2.278   0.655  0.8311 -1.0897 -0.5356
  156SOL    HW2  758   4.790   2.153   0.753  0.6492  0.9252  2.2451
  157SOL     OW  759   4.558   0.710   0.718 -0.1695  0.1137 -0.3528
  157SOL    HW1  760   4.616   0.773   0.771 -1.9898  2.1101 -0.5714
  157SOL    HW2  761   4.553   0.622   0.765  1.5772  0.4707  0.5888
  158SOL     OW  762   0.667   1.558   5.431  0.6012  0.2171 -0.0878
  158SOL    HW1  763   0.611   1.595   5.357  1.1832 -0.8320 -1.0671
  158SOL    HW2  764   0.647   1.461   5.443  1.7784 -0.0370 -0.0631
  159SOL     OW  765   5.761   0.294   2.075 -0.5031 -0.1641  0.1250
  159SOL    HW1  766   5.773   0.342   1.988  1.5192  0.3241  0.6250
  159SOL    HW2  767   5.673   0.247   2.075 -1.1430  0.9281 -1.6399
  160SOL     OW  768   1.204   2.102   2.146 -1.0135 -0.0706  0.0514
  160SOL    HW1  769   1.120   2.133   2.101 -1.1234 -1.6132 -0.8989
  160SOL    HW2  770   1.283   2.132   2.092 -1.1023 -1.0126 -0.6372
  161SOL     OW  771   5.445   1.933   2.369 -0.0275 -0.4721  0.0247
  161SOL    HW1  772   5.359   1.887   2.391  1.5855 -3.4098  0.8106
  161SOL    HW2  773   5.503   1.871   2.315  1.6129  1.4125 -0.5271
  162SOL     OW  774   5.893   1.736   2.193  0.4745 -0.4423  0.0390
  162SOL    HW1  775   5.937   1.682   2.122  3.0289  2.0946 -0.5118
  162SOL    HW2  776   5.932   1.713   2.282  1.0883  0.0179 -0.1075
  163SOL     OW  777   0.480   1.323   0.185 -0.4468 -0.6024  0.5250
  163SOL    HW1  778   0.576   1.352   0.188  0.2609 -2.3921 -1.8982
  163SOL    HW2  779   0.424   1.394   0.143  0.1815 -0.3258  0.1456
  164SOL     OW  780   1.627   1.263   5.833 -0.1803 -0.1711  0.5250
  164SOL    HW1  781   1.638   1.315   5.918 -1.3557  0.3031  0.3982
  164SOL    HW2  782   1.712   1.215   5.813  2.0089  3.8006 -0.7676
  165SOL     OW  783   4.363   5.377   2.117 -0.1838  0.3258  0.1103
  165SOL    HW1  784   4.362   5.403   2.020  0.4496  0.6603  0.1942
  165SOL    HW2  785   4.318   5.288   2.127  0.2985 -0.0090 -0.5812
  166SOL     OW  786   1.611   0.397   0.288 -0.1765 -0.0255  0.1116
  166SOL    HW1  787   1.525   0.376   0.240  0.0880  1.8313 -1.2617
  166SOL    HW2  788   1.632   0.322   0.351 -1.3442 -1.8575 -1.5357
  167SOL     OW  789   5.181   1.571   1.304  0.1563 -0.1438 -0.3064
  167SOL    HW1  790   5.241   1.493   1.284  0.8206 -0.1539  1.5169
  167SOL    HW2  791   5.086   1.540   1.307  0.2191 -0.4821 -1.5103
  168SOL     OW  792   5.582   1.165   0.587  0.1002  0.2064  0.5834
  168SOL    HW1  793   5.662   1.150   0.529  1.2273  2.0242  1.5768
  168SOL    HW2  794   5.500   1.133   0.539  0.8633  2.2776 -2.4060
  169SOL     OW  795   5.925   0.204   0.094  0.2515  0.1140 -0.4887
  169SOL    HW1  796   5.830   0.200   0.125  0.4130 -0.0712 -0.0020
  169SOL    HW2  797   5.942   0.293   0.051 -0.6596 -0.5584 -2.3457
  170SOL     OW  798   2.153   0.464   4.946 -0.3037  0.2779 -0.2841
  170SOL    HW1  799   2.204   0.487   4.863  1.3443 -0.8975  0.3549
  170SOL    HW2  800   2.188   0.515   5.023 -0.5268 -0.0654  0.0495
  171SOL     OW  801   1.762   3.973   4.650  0.2192 -0.7725 -0.6658
  171SOL    HW1  802   1.712   4.001   4.732 -0.8947 -0.3753 -1.4668
  171SOL    HW2  803   1.702   3.979   4.570  1.9745  1.3283 -1.9398
  172SOL     OW  804   2.037   0.706   0.416 -0.1561  0.1166  0.4280
  172SOL    HW1  805   1.968   0.652   0.369 -1.7190  0.7134  1.9668
  172SOL    HW2  806   2.064   0.661   0.501 -0.0914  0.8291  0.7930
  173SOL     OW  807   1.729   1.604   2.406  0.6553  0.1712  0.8618
  173SOL    HW1  808   1.794   1.640   2.338  0.0436  1.4010  0.8894
  173SOL    HW2  809   1.745   1.507   2.420  1.6987  0.1990 -0.0250
  174SOL     OW  810   1.161   2.840   1.069  0.1207 -0.0633  0.4506
  174SOL    HW1  811   1.185   2.908   1.139 -2.3958 -0.3429  1.6822
  174SOL    HW2  812   1.063   2.842   1.053  0.3218 -1.7245 -1.3496
  175SOL     OW  813   5.545   1.825   1.163 -0.1327  0.1211  0.3639
  175SOL    HW1  814   5.451   1.790   1.161  0.1200 -0.5785  0.3240
  175SOL    HW2  815   5.596   1.779   1.236  0.9835 -1.6790 -1.4458
  176SOL     OW  816   1.528   1.211   4.247  0.2398  0.0644 -0.6510
  176SOL    HW1  817   1.612   1.173   4.284 -1.1043 -2.5181 -0.0234
  176SOL    HW2  818   1.547   1.255   4.159  2.5806  1.6909  0.5475
  177SOL     OW  819   0.976   5.135   5.862  0.3968  0.2092  0.3281
  177SOL    HW1  820   0.907   5.202   5.834 -2.0218 -2.1827  0.1987
  177SOL    HW2  821   1.008   5.086   5.781 -1.8421 -2.3393  0.8714
  178SOL     OW  822   0.338   0.310   0.588  0.4071  0.0097  0.5086
  178SOL    HW1  823   0.426   0.286   0.548 -0.5639 -0.6363 -1.3299
  178SOL    HW2  824   0.302   0.392   0.543 -1.0129 -1.1169 -0.4822
  179SOL     OW  825   5.731   1.500   2.762  0.2307  0.3107 -0.2171
  179SOL    HW1  826   5.791   1.546   2.697 -2.0603  2.1740 -1.1936
  179SOL    HW2  827   5.737   1.401   2.750  0.3168  0.5806 -2.9273
  180SOL     OW  828   1.292   1.691   5.876 -0.5433  0.3860 -0.2084
  180SOL    HW1  829   1.218   1.637   5.835  0.2661 -0.3980 -0.6587
  180SOL    HW2  830   1.288   1.784   5.840 -1.5156  0.4434  0.0274
  181SOL     OW  831   0.671   1.840   1.727 -0.5194 -0.0841  0.6232
  181SOL    HW1  832   0.708   1.753   1.761  1.8765  0.4116 -0.5826
  181SOL    HW2  833   0.674   1.908   1.801 -1.2276 -0.6530  1.1986
  182SOL     OW  834   0.246   2.464   0.592  0.6434  0.1201 -0.0779
  182SOL    HW1  835   0.188   2.395   0.637  1.4545  1.6719  3.7790
  182SOL    HW2  836   0.190   2.522   0.533 -0.4352 -2.3228 -1.6187
  183SOL     OW  837   1.207   2.883   2.408 -0.2859 -0.4673 -0.3269
  183SOL    HW1  838   1.305   2.898   2.392 -0.3207 -1.4768 -1.7674
  183SOL    HW2  839   1.159   2.885   2.320 -1.4568 -0.6646  0.2904
  184SOL     OW  840   1.331   1.147   0.885  1.4035  0.0469  0.5856
  184SOL    HW1  841   1.292   1.104   0.803  0.8530  2.6150 -0.6033
  184SOL    HW2  842   1.340   1.078   0.957  1.1054 -2.1272 -1.3174
  185SOL     OW  843   2.003   5.049   1.991 -0.6013 -0.0382 -0.0427
  185SOL    HW1  844   2.021   4.965   1.939 -0.9190 -1.6700  2.2804
  185SOL    HW2  845   1.936   5.029   2.063  0.4400  1.8263  1.5535
  186SOL     OW  846   5.524   0.955   0.144 -0.0249 -0.0645 -0.3986
  186SOL    HW1  847   5.568   1.042   0.124 -0.4824  0.8388  2.1501
  186SOL    HW2  848   5.437   0.949   0.095  0.6116  0.3169 -1.6027
  187SOL     OW  849   5.769   5.197   0.481  0.0067  0.1103 -0.1712
  187SOL    HW1  850   5.759   5.296   0.470 -1.0948 -0.1686 -2.3832
  187SOL    HW2  851   5.707   5.164   0.552 -0.5411  0.8531 -0.2981
  188SOL     OW  852   2.309   1.623   2.952  0.1728 -0.7131  0.1772
  188SOL    HW1  853   2.373   1.564   3.001  1.7559 -0.2950 -1.2715
  188SOL    HW2  854   2.281   1.578   2.867 -1.0653 -0.6571  0.5429
  189SOL     OW  855   0.834   1.801   3.783  0.0421  0.4175 -0.1910
  189SOL    HW1  856   0.839   1.844   3.873  0.2227  0.2365 -0.1168
  189SOL    HW2  857   0.887   1.855   3.718  0.4546  0.1847 -0.0497
  190SOL     OW  858   5.838   1.507   5.824  0.3073 -0.4384 -0.1651
  190SOL    HW1  859   5.840   1.576   5.752 -0.2259  0.4702  0.6703
  190SOL    HW2  860   5.882   1.423   5.790  3.9188  1.2622 -0.1792
  191SOL     OW  861   0.335   0.412   2.261 -0.1541  0.0910  0.4665
  191SOL    HW1  862   0.310   0.480   2.193 -0.4948 -1.4570 -1.0469
  191SOL    HW2  863   0.273   0.334   2.255 -0.2411 -0.0891  2.6354
  192SOL     OW  864   2.269   1.452   2.692  0.3377  0.0295 -0.2192
  192SOL    HW1  865   2.364   1.479   2.675  0.1306 -0.0560 -1.5790
  192SOL    HW2  866   2.213   1.476   2.613 -1.1897  1.9487  1.3557
  193SOL     OW  867   2.262   4.923   2.082  0.5334 -0.1592  0.1453
  193SOL    HW1  868   2.341   4.941   2.140  0.2914  2.5088 -0.2125
  193SOL    HW2  869   2.178   4.947   2.132  0.1878  0.1970 -0.5873
  194SOL     OW  870   1.342   2.196   0.463 -0.3781 -0.0705  0.5559
  194SOL    HW1  871   1.428   2.198   0.514  0.3374  1.1553 -0.6320
  194SOL    HW2  872   1.272   2.246   0.513  0.2226  0.8343  0.5221
  195SOL     OW  873   0.499   2.292   2.492 -0.2834  0.2179  0.1167
  195SOL    HW1  874   0.522   2.300   2.395  0.4258  0.4631  0.2997
  195SOL    HW2  875   0.406   2.324   2.508 -1.1980 -1.8024 -0.8239
  196SOL     OW  876   2.256   2.582   4.810  0.4504 -0.0218 -0.0050
  196SOL    HW1  877   2.247   2.566   4.712 -0.7385 -1.7421  0.3233
  196SOL    HW2  878   2.179   2.636   4.843 -0.3639 -1.3200  0.2979
  197SOL     OW  879   5.031   0.488   2.118 -0.1234  0.2859 -0.2072
  197SOL    HW1  880   4.938   0.456   2.135 -0.5241  1.4001 -0.2609
  197SOL    HW2  881   5.029   0.581   2.083  1.0397  0.4963  0.2360
  198SOL     OW  882   0.356   0.431   1.524 -0.1984  0.2151 -0.4109
  198SOL    HW1  883   0.401   0.451   1.611  2.6163 -0.6743 -1.5248
  198SOL    HW2  884   0.323   0.336   1.524 -0.3756  0.2770 -0.2478
  199SOL     OW  885   4.584   0.986   1.850 -0.2418  0.9683 -0.7243
  199SOL    HW1  886   4.535   1.032   1.925  0.6746  0.0895  0.4552
  199SOL    HW2  887   4.679   1.016   1.848 -0.0300  0.3104 -0.9523
  200SOL     OW  888   0.700   0.109   0.703  0.1414  0.6054 -0.9202
  200SOL    HW1  889   0.780   0.048   0.705 -0.9433 -0.9098 -1.8699
  200SOL    HW2  890   0.716   0.185   0.766  1.6790 -0.4854  0.1088
  201SOL     OW  891   5.844   0.753   0.516  0.3366 -0.2794  0.1318
  201SOL    HW1  892   5.849   0.658   0.546  0.6690 -0.5778 -0.8157
  201SOL    HW2  893   5.783   0.760   0.437  1.0300  0.1293 -0.3801
  202SOL     OW  894   4.913   1.118   5.483 -0.4049 -0.2764 -0.0120
  202SOL    HW1  895   4.959   1.092   5.568  0.5731 -2.2793 -1.0887
  202SOL    HW2  896   4.958   1.074   5.406 -3.2941 -1.2408 -1.2805
  203SOL     OW  897   0.069   1.093   1.084 -0.1039  0.0635 -0.3124
  203SOL    HW1  898   0.102   1.025   1.150  0.5454  0.9668  0.3085
  203SOL    HW2  899   0.081   1.058   0.992 -1.2046 -1.3050  0.0327
  204SOL     OW  900   1.573   2.411   2.488  0.4199 -0.0116  0.0661
  204SOL    HW1  901   1.544   2.376   2.399  2.6018 -0.1552 -0.6541
  204SOL    HW2  902   1.547   2.507   2.496  1.0941  0.3008 -1.2025
  205SOL     OW  903   0.635   1.400   1.431  0.8819  0.2245  0.6186
  205SOL    HW1  904   0.621   1.436   1.339 -0.5897 -0.5256  0.5342
  205SOL    HW2  905   0.725   1.357   1.437  1.0444  0.4061 -0.4149
  206SOL     OW  906   1.303   1.807   2.560  0.0635 -0.3785 -0.4316
  206SOL    HW1  907   1.379   1.836   2.502  0.5875  2.6315  1.4915
  206SOL    HW2  908   1.216   1.821   2.511  0.3881  3.5031 -0.2291
  207SOL     OW  909   2.254   1.822   0.528 -0.0030 -0.4029 -0.3817
  207SOL    HW1  910   2.157   1.830   0.553 -0.0155 -0.2065 -0.4871
  207SOL    HW2  911   2.306   1.895   0.573 -0.2710  0.9338 -2.1496
  208SOL     OW  912   0.304   2.108   0.815 -0.5640  0.3914 -0.1212
  208SOL    HW1  913   0.349   2.066   0.894  0.7099 -1.0601 -1.5531
  208SOL    HW2  914   0.206   2.089   0.818 -0.4532 -0.0796  0.8440
  209SOL     OW  915   0.161   1.017   0.829 -0.0727  0.0479 -0.3086
  209SOL    HW1  916   0.186   0.921   0.843 -0.6730  0.1950  2.3624
  209SOL    HW2  917   0.062   1.025   0.819 -0.1407  0.4599  0.5812
  210SOL     OW  918   1.288   0.701   2.590  0.0621 -0.5876  0.8448
  210SOL    HW1  919   1.348   0.645   2.534  1.2543  0.1333  1.3543
  210SOL    HW2  920   1.290   0.669   2.685 -0.4931 -0.6652  0.8334
  211SOL     OW  921   5.744   4.704   1.869  0.9416 -0.0895 -0.0814
  211SOL    HW1  922   5.804   4.781   1.889  0.0200  0.5813  0.1275
  211SOL    HW2  923   5.664   4.736   1.820  0.6375 -0.9489 -0.1601
  212SOL     OW  924   0.213   0.481   1.176 -0.2432 -0.1510 -0.8976
  212SOL    HW1  925   0.266   0.403   1.142  0.2397 -0.0876 -0.3094
  212SOL    HW2  926   0.269   0.534   1.240 -1.6961 -1.3355  1.4874
  213SOL     OW  927   1.373   0.495   5.056 -0.0027  0.1425 -0.4798
  213SOL    HW1  928   1.465   0.458   5.065 -0.4995 -0.6953  2.1034
  213SOL    HW2  929   1.306   0.423   5.071 -1.0006  1.6048  3.2443
  214SOL     OW  930   0.177   2.805   1.146  0.2717 -0.1280 -0.2534
  214SOL    HW1  931   0.247   2.864   1.107 -0.4152  0.5751 -0.4433
  214SOL    HW2  932   0.209   2.710   1.144  1.0405  0.1303 -0.7195
  215SOL     OW  933   0.503   1.155   2.027 -0.0605 -0.1851  0.3573
  215SOL    HW1  934   0.580   1.097   2.055 -0.3881 -0.6564  0.3118
  215SOL    HW2  935   0.515   1.184   1.932  1.0631  1.4323  0.9557
  216SOL     OW  936   1.018   0.539   5.249 -0.1654 -0.0205 -0.0151
  216SOL    HW1  937   1.034   0.449   5.209  0.5230 -1.3271  2.9913
  216SOL    HW2  938   1.094   0.600   5.227  0.9501 -1.1735  0.5941
  217SOL     OW  939   1.416   1.799   5.366 -0.1974  0.1546  0.0441
  217SOL    HW1  940   1.353   1.734   5.409  0.6363 -0.7988 -0.1293
  217SOL    HW2  941   1.463   1.852   5.436  0.3081 -0.5847  0.2806
  218SOL     OW  942   5.580   0.601   2.243 -0.1087  0.2998 -0.3722
  218SOL    HW1  943   5.493   0.573   2.282  0.6741 -1.5947  0.0982
  218SOL    HW2  944   5.604   0.692   2.278 -0.0180 -0.7903  2.6646
  219SOL     OW  945   0.091   1.980   0.342  0.2049 -0.1163 -0.6915
  219SOL    HW1  946   0.061   2.070   0.310  1.3819  0.1443 -1.1026
  219SOL    HW2  947   0.021   1.941   0.402 -0.4371  0.9466 -0.7278
  220SOL     OW  948   5.749   1.292   2.024 -0.0226  0.4255  0.4756
  220SOL    HW1  949   5.713   1.297   1.931 -0.3754  1.0085  0.6380
  220SOL    HW2  950   5.685   1.335   2.087  0.6028  0.7810  0.8811
  221SOL     OW  951   3.448   4.704   5.672 -0.6839 -0.4968  0.2856
  221SOL    HW1  952   3.409   4.706   5.579 -1.0084  2.5076  0.4120
  221SOL    HW2  953   3.547   4.698   5.666 -0.7356 -0.9828 -0.2188
  222SOL     OW  954   5.148   5.026   2.470 -0.0189 -0.3503  0.2991
  222SOL    HW1  955   5.203   4.999   2.390  0.5401  0.9746  0.2029
  222SOL    HW2  956   5.067   5.077   2.439 -0.6969 -1.2713  0.5077
  223SOL     OW  957   5.734   0.843   0.247 -0.2875 -0.0913  0.0901
  223SOL    HW1  958   5.784   0.825   0.162 -0.6056 -0.4962 -0.0123
  223SOL    HW2  959   5.643   0.877   0.226 -0.6751 -0.9993  0.2523
  224SOL     OW  960   0.854   0.627   2.151  0.0308 -0.5408  0.5330
  224SOL    HW1  961   0.803   0.658   2.070  1.8672  2.6657  0.4241
  224SOL    HW2  962   0.791   0.583   2.215 -2.1352 -0.0437 -1.1343
  225SOL     OW  963   5.541   2.099   1.245 -0.0962  0.6909 -0.0736
  225SOL    HW1  964   5.502   2.121   1.156 -0.3400 -0.0648 -0.1634
  225SOL    HW2  965   5.560   2.001   1.250  0.0644  0.7501  0.6480
  226SOL     OW  966   1.188   0.433   0.885  0.2307 -0.1224 -0.4334
  226SOL    HW1  967   1.113   0.435   0.819  1.2495 -0.5604 -1.6402
  226SOL    HW2  968   1.272   0.466   0.842  1.0180 -0.8233  0.5160
  227SOL     OW  969   2.661   0.915   1.868 -0.3777  0.1108 -0.2373
  227SOL    HW1  970   2.708   0.973   1.802  2.5880 -0.1026  1.4947
  227SOL    HW2  971   2.658   0.821   1.834  1.4409 -0.0653 -0.0140
  228SOL     OW  972   0.740   1.875   4.895 -0.7005  0.4336 -0.3364
  228SOL    HW1  973   0.699   1.960   4.929 -1.8382  0.5389 -1.8919
  228SOL    HW2  974   0.827   1.860   4.943  0.1205  3.0777 -0.7875
  229SOL     OW  975   4.925   2.327   0.936  0.0463 -0.1669  0.3241
  229SOL    HW1  976   4.848   2.301   0.879 -0.0443 -1.1704  0.8725
  229SOL    HW2  977   4.981   2.246   0.955  0.0925  0.1350  1.6111
  230SOL     OW  978   1.345   0.262   1.588 -0.1291  0.2992  0.4063
  230SOL    HW1  979   1.338   0.344   1.532 -0.6494  0.5224  0.7967
  230SOL    HW2  980   1.365   0.183   1.529 -0.5180  0.5536 -0.0707
  231SOL     OW  981   5.713   5.696   0.660 -0.4371 -0.1931 -0.3324
  231SOL    HW1  982   5.769   5.778   0.649 -0.5508  0.1195  1.2407
  231SOL    HW2  983   5.646   5.692   0.586  0.4553  0.3881 -1.2065
  232SOL     OW  984   1.219   0.037   2.982  0.1446 -0.0713 -0.0694
  232SOL    HW1  985   1.155   0.052   2.907  1.3944 -0.9252 -1.3588
  232SOL    HW2  986   1.276  -0.043   2.961  0.6251 -0.2352  1.7303
  233SOL     OW  987   5.810   2.928   5.156 -0.1751  0.2346 -0.3998
  233SOL    HW1  988   5.803   3.008   5.215 -0.0848 -0.3774  0.4586
  233SOL    HW2  989   5.896   2.880   5.173 -0.5970 -0.5078 -0.3011
  234SOL     OW  990   0.412   2.289   0.189 -0.4621  0.2826  0.6585
  234SOL    HW1  991   0.487   2.327   0.135  0.4703 -0.5094  1.3407
  234SOL    HW2  992   0.413   2.329   0.281  0.4324 -1.1823  1.3356
  235SOL     OW  993   0.589   0.956   3.350  0.4496 -0.6162 -0.3801
  235SOL    HW1  994   0.624   0.963   3.257  0.8091  0.7379 -0.1515
  235SOL    HW2  995   0.529   1.034   3.369  0.3888 -0.8782  0.5289
  236SOL     OW  996   4.590   5.099   2.108  0.1200 -0.2730  0.3568
  236SOL    HW1  997   4.640   5.045   2.040 -1.3384 -0.5515 -0.5292
  236SOL    HW2  998   4.646   5.178   2.135  1.9200 -1.7144  1.0384
  237SOL     OW  999   1.021   0.763   1.421 -0.1628  0.0740  0.1587
  237SOL    HW1 1000   1.033   0.806   1.511  0.9559 -0.8646  0.4745
  237SOL    HW2 1001   0.972   0.827   1.361  1.6652  1.9554  0.5260
  238SOL     OW 1002   5.856   1.066   1.874  0.3830  0.0038 -0.6827
  238SOL    HW1 1003   5.836   1.087   1.778 -0.0992  1.6223 -0.2697
  238SOL    HW2 1004   5.850   1.151   1.928 -0.9350 -1.1102  1.0398
  239SOL     OW 1005   0.216   2.009   1.303  0.3470  0.0203 -0.0281
  239SOL    HW1 1006   0.225   1.947   1.226  1.8677  0.7617 -0.4952
  239SOL    HW2 1007   0.177   2.096   1.272  0.6330  0.1960  0.0907
  240SOL     OW 1008   0.992   0.682   0.381  0.5505  0.0190  0.2802
  240SOL    HW1 1009   0.964   0.606   0.321  0.1755 -0.8646  1.5339
  240SOL    HW2 1010   0.957   0.768   0.344  0.6721 -0.4487 -0.9792
  241SOL     OW 1011   0.707   0.156   2.317 -0.1604 -0.1742  0.3981
  241SOL    HW1 1012   0.771   0.082   2.339  0.1464 -0.1545 -0.4028
  241SOL    HW2 1013   0.748   0.244   2.339  0.3833 -0.1183 -0.7455
  242SOL     OW 1014   0.752   0.880   2.567 -0.0749 -0.1858  0.1316
  242SOL    HW1 1015   0.716   0.864   2.475  0.1119 -0.3230  0.0841
  242SOL    HW2 1016   0.749   0.795   2.620  0.5470 -0.2939  0.0021
  243SOL     OW 1017   1.805   0.014   3.967 -0.5212 -0.6729  0.2407
  243SOL    HW1 1018   1.897   0.041   3.994  0.1170 -0.3307 -2.0620
  243SOL    HW2 1019   1.742   0.091   3.980  0.1045  0.0315 -0.7237
  244SOL     OW 1020   0.798   0.445   1.612  0.5728  0.4952 -0.5993
  244SOL    HW1 1021   0.892   0.440   1.647 -0.2871  0.3805  1.8896
  244SOL    HW2 1022   0.766   0.539   1.618  0.0851  0.3044 -0.1288
  245SOL     OW 1023   5.910   0.241   3.791  0.1177  0.6143  0.0133
  245SOL    HW1 1024   5.870   0.164   3.839  0.3235  0.4700 -0.0449
  245SOL    HW2 1025   6.009   0.227   3.782  0.2854  1.2759  0.7416
  246SOL     OW 1026   1.011   2.172   1.447 -0.4121 -0.2348 -0.1697
  246SOL    HW1 1027   1.070   2.092   1.430 -0.1824 -0.2471  0.6328
  246SOL    HW2 1028   1.006   2.188   1.545  0.4161  1.4006 -0.3669
  247SOL     OW 1029   0.055   1.950   1.835  0.0813 -0.5704 -0.4886
  247SOL    HW1 1030   0.079   1.952   1.738 -0.7630  0.7758 -0.7059
  247SOL    HW2 1031  -0.044   1.940   1.844  0.1369 -0.5124  0.2328
  248SOL     OW 1032   0.928   0.496   3.729  0.2953  0.3191 -0.2596
  248SOL    HW1 1033   0.954   0.404   3.757  0.0086 -0.6349 -2.8754
  248SOL    HW2 1034   1.000   0.536   3.673  0.2126  1.5189  0.4672
  249SOL     OW 1035   1.198   0.107   1.335 -0.3289  0.5303  0.7582
  249SOL    HW1 1036   1.208   0.101   1.236 -2.2444  1.6968  0.4403
  249SOL    HW2 1037   1.203   0.015   1.375 -2.3929 -0.3189 -0.7700
  250SOL     OW 1038   0.139   0.915   1.866  0.0082  0.0336  0.5693
  250SOL    HW1 1039   0.070   0.986   1.879 -0.9889 -0.4749 -1.4701
  250SOL    HW2 1040   0.095   0.830   1.838  1.4437 -0.2115 -1.1491
  251SOL     OW 1041   0.539   2.229   2.133  0.3434 -0.0310  0.2093
  251SOL    HW1 1042   0.624   2.188   2.166  1.2053  1.1354 -0.5131
  251SOL    HW2 1043   0.462   2.184   2.177  1.3001 -1.5268  0.4285
  252SOL     OW 1044   5.002   0.557   2.679  0.4952  0.1410 -0.5078
  252SOL    HW1 1045   5.024   0.461   2.667  1.6196  0.1131  1.4310
  252SOL    HW2 1046   5.017   0.606   2.592  2.0170 -1.0354 -0.9450
  253SOL     OW 1047   2.174   3.293   2.862  1.1479  0.2459 -0.2327
  253SOL    HW1 1048   2.139   3.376   2.819 -0.2342  0.1734  0.6698
  253SOL    HW2 1049   2.109   3.262   2.931  1.8225 -1.3749 -0.2821
  254SOL     OW 1050   1.320   5.413   4.492 -0.0435  0.6667 -0.1422
  254SOL    HW1 1051   1.404   5.394   4.442  0.3949  1.9390  0.0873
  254SOL    HW2 1052   1.313   5.352   4.571  0.1008 -0.1895 -0.7776
  255SOL     OW 1053   0.246   1.163   2.101 -0.1811 -0.2162 -0.3810
  255SOL    HW1 1054   0.335   1.137   2.062  1.2965  1.4534  1.6525
  255SOL    HW2 1055   0.213   1.245   2.054 -0.8907 -1.0503 -1.3924
  256SOL     OW 1056   1.122   4.821   4.557  0.5500  0.1792 -0.0221
  256SOL    HW1 1057   1.157   4.907   4.520 -0.0728 -0.0888 -1.2990
  256SOL    HW2 1058   1.194   4.774   4.607  1.6568  0.2213 -1.5218
  257SOL     OW 1059   0.256   0.473   3.481  0.2379 -0.3728  0.0398
  257SOL    HW1 1060   0.257   0.492   3.382  0.8117 -1.0900 -0.1007
  257SOL    HW2 1061   0.332   0.521   3.525 -0.8165  1.0624  0.3696
  258SOL     OW 1062   1.250   1.426   1.785 -0.3453 -0.3151 -0.6643
  258SOL    HW1 1063   1.183   1.501   1.781 -1.1099 -0.7748  1.8070
  258SOL    HW2 1064   1.239   1.368   1.704 -1.7261  0.6162 -1.1896
  259SOL     OW 1065   0.297   3.418   2.495  0.5454 -0.2464 -0.0466
  259SOL    HW1 1066   0.331   3.492   2.436 -1.1649  0.4129 -0.2520
  259SOL    HW2 1067   0.333   3.429   2.587  0.4470  0.7492 -0.1224
  260SOL     OW 1068   0.015   5.456   2.064 -0.3382  0.4406 -0.0094
  260SOL    HW1 1069  -0.033   5.532   2.107  0.1883  0.9673 -0.3408
  260SOL    HW2 1070   0.113   5.462   2.086 -0.5839 -1.5625  2.1073
  261SOL     OW 1071   5.489   0.227   3.354  0.3568 -0.3648  0.3595
  261SOL    HW1 1072   5.513   0.321   3.332  0.0512 -0.0507  1.3429
  261SOL    HW2 1073   5.569   0.177   3.386  0.3782 -0.2526  0.4775
  262SOL     OW 1074   0.031   1.959   4.694  0.3894 -0.4286  0.3855
  262SOL    HW1 1075   0.002   1.868   4.727  2.4317 -1.3233 -0.0965
  262SOL    HW2 1076   0.120   1.981   4.735  0.0509  1.2564  0.2624
  263SOL     OW 1077   5.554   2.027   3.508 -0.0346  0.1855 -0.1479
  263SOL    HW1 1078   5.547   2.113   3.557 -0.3306 -0.1642  0.4416
  263SOL    HW2 1079   5.557   1.951   3.574 -0.9183 -0.3239 -0.6728
  264SOL     OW 1080   1.147   1.411   4.297 -0.4507  0.4295  0.2029
  264SOL    HW1 1081   1.128   1.493   4.243  0.8376 -0.8640 -2.3945
  264SOL    HW2 1082   1.089   1.337   4.265  1.1508 -0.6780 -0.2400
  265SOL     OW 1083   3.096   5.676   4.286  0.2212  0.6972  0.0192
  265SOL    HW1 1084   3.059   5.762   4.322  2.1749  2.1617 -1.2068
  265SOL    HW2 1085   3.190   5.665   4.318 -0.5888 -2.0278  1.7076
  266SOL     OW 1086   4.700   5.684   1.969 -0.4029  0.0310  0.7074
  266SOL    HW1 1087   4.663   5.770   2.004  0.2276  0.6205 -0.0386
  266SOL    HW2 1088   4.731   5.627   2.045 -1.1852  0.2860  1.2290
  267SOL     OW 1089   0.185   0.176   2.982  0.0674 -0.4083  0.9021
  267SOL    HW1 1090   0.105   0.149   2.928  0.6235  0.9285 -0.6965
  267SOL    HW2 1091   0.263   0.120   2.954  0.3777  0.3471  0.2350
  268SOL     OW 1092   0.816   2.202   1.836  0.1954 -0.4461  0.1345
  268SOL    HW1 1093   0.758   2.254   1.774  0.5233  1.5303  1.4123
  268SOL    HW2 1094   0.759   2.134   1.884 -1.2003  1.5840  1.5158
  269SOL     OW 1095   0.175   4.664   0.346 -0.2050  0.3277 -0.5185
  269SOL    HW1 1096   0.108   4.629   0.280  0.9864 -0.9568 -1.1125
  269SOL    HW2 1097   0.257   4.692   0.297  0.4077  0.0914  0.3508
  270SOL     OW 1098   2.907   4.938   2.799  0.1907 -0.0492  0.3101
  270SOL    HW1 1099   2.989   4.896   2.759 -0.1516 -0.8081  0.3718
  270SOL    HW2 1100   2.843   4.961   2.726 -0.1037 -0.7131  0.3455
  271SOL     OW 1101   4.028   2.740   1.686  0.0346 -0.8998 -0.1489
  271SOL    HW1 1102   4.045   2.641   1.683 -1.4522 -1.1594 -1.5395
  271SOL    HW2 1103   4.106   2.788   1.647  0.6979 -1.5280  0.3721
  272SOL     OW 1104   5.038   0.356   0.056  0.1808  0.3521  0.2479
  272SOL    HW1 1105   5.028   0.260   0.083  1.6727 -0.5600 -2.0751
  272SOL    HW2 1106   5.132   0.372   0.027  0.0894  2.6998  1.0451
  273SOL     OW 1107   1.963   0.071   3.644  0.0626 -0.1271 -0.1745
  273SOL    HW1 1108   1.955  -0.005   3.708  3.1304 -0.5950 -0.1688
  273SOL    HW2 1109   1.891   0.066   3.576  0.3993 -3.3200 -0.4214
  274SOL     OW 1110   2.620   1.360   0.256  0.0285  0.1680  0.5241
  274SOL    HW1 1111   2.645   1.320   0.344  0.8049  2.0138  1.1778
  274SOL    HW2 1112   2.522   1.377   0.253 -0.1286 -0.6585  0.6880
  275SOL     OW 1113   5.916   0.412   1.082  0.4790 -0.0522  0.2265
  275SOL    HW1 1114   5.864   0.387   1.164  0.2072  2.1790  0.8090
  275SOL    HW2 1115   6.006   0.446   1.108  0.2242  1.1133 -0.3185
  276SOL     OW 1116   2.404   5.161   3.751  0.4896 -0.5893  0.3312
  276SOL    HW1 1117   2.455   5.244   3.773 -0.3091 -0.3291  1.2820
  276SOL    HW2 1118   2.319   5.185   3.704  1.5291 -1.0640 -1.9306
  277SOL     OW 1119   2.692   5.048   3.497 -0.0096  0.5319  0.0509
  277SOL    HW1 1120   2.710   4.951   3.511 -1.5102 -0.0038 -1.4369
  277SOL    HW2 1121   2.764   5.088   3.440  0.5546  0.2732  0.5782
  278SOL     OW 1122   5.805   1.941   2.870 -0.6120  0.4309 -0.4870
  278SOL    HW1 1123   5.731   1.874   2.861  0.7246 -1.3412  0.8997
  278SOL    HW2 1124   5.893   1.893   2.874  0.4236  2.2934  0.4507
  279SOL     OW 1125   1.167   2.207   3.139 -0.0806  0.2428  0.3750
  279SOL    HW1 1126   1.133   2.117   3.169  0.1732  0.2893  0.8106
  279SOL    HW2 1127   1.089   2.267   3.120 -0.2492  0.2358  1.0267
  280SOL     OW 1128   5.678   1.857   3.913  0.6328  0.0509 -0.4162
  280SOL    HW1 1129   5.716   1.922   3.979 -0.8754  1.2997 -0.7122
  280SOL    HW2 1130   5.582   1.880   3.896  0.2429 -1.8942 -1.0256
  281SOL     OW 1131   5.355   0.160   2.578  0.0634 -0.9045 -0.0323
  281SOL    HW1 1132   5.307   0.083   2.620  0.0701 -0.0751  1.5883
  281SOL    HW2 1133   5.444   0.129   2.544 -1.2071 -2.2795 -2.3689
  282SOL     OW 1134   5.033   4.417   5.415  0.0457  0.2923 -0.2026
  282SOL    HW1 1135   5.117   4.424   5.361  0.4437  2.3917  0.6099
  282SOL    HW2 1136   4.955   4.445   5.359  0.2606  1.0205 -0.1439
  283SOL     OW 1137   1.398   1.582   2.705 -0.3416 -0.0976 -0.0628
  283SOL    HW1 1138   1.371   1.666   2.659 -1.2411  0.8890  2.1040
  283SOL    HW2 1139   1.329   1.512   2.691 -0.2154 -0.0706 -0.8355
  284SOL     OW 1140   5.080   2.007   2.697 -0.2190 -0.4876  0.3781
  284SOL    HW1 1141   5.159   2.016   2.636  0.7160  0.2191  1.6579
  284SOL    HW2 1142   5.071   1.911   2.725 -1.2262 -1.0123 -1.5505
  285SOL     OW 1143   1.248   0.241   3.468  0.1050  0.1577  0.0477
  285SOL    HW1 1144   1.200   0.319   3.428  1.5868  1.2516  0.3234
  285SOL    HW2 1145   1.192   0.201   3.541 -1.8184 -0.7169 -1.7825
  286SOL     OW 1146   5.717   2.603   2.945  0.4932 -0.1387  0.1771
  286SOL    HW1 1147   5.648   2.561   2.886  1.6301 -0.3912 -1.0109
  286SOL    HW2 1148   5.680   2.687   2.984 -0.1912  0.2307 -1.1843
  287SOL     OW 1149   2.209   2.006   2.057  0.1717  0.0423  0.0042
  287SOL    HW1 1150   2.183   2.022   1.962 -0.2305  1.3705  0.3169
  287SOL    HW2 1151   2.127   2.007   2.114  0.6258  1.6980  0.6712
  288SOL     OW 1152   2.684   1.779   2.586  0.4527 -0.2381 -0.5194
  288SOL    HW1 1153   2.624   1.725   2.527  0.5274 -0.1840 -0.6460
  288SOL    HW2 1154   2.634   1.856   2.623  0.1734 -0.7379  0.1557
  289SOL     OW 1155   2.161   1.237   2.912  0.3925  0.1888 -0.0559
  289SOL    HW1 1156   2.252   1.209   2.941 -0.1453 -0.5880  0.9407
  289SOL    HW2 1157   2.163   1.260   2.815  1.2071 -1.8956 -0.5933
  290SOL     OW 1158   4.648   0.717   1.491 -0.1342  0.5265  0.3003
  290SOL    HW1 1159   4.596   0.688   1.411 -0.1273 -2.4329  1.2441
  290SOL    HW2 1160   4.648   0.817   1.497 -1.7795  0.7604 -2.2524
  291SOL     OW 1161   1.301   4.698   2.699  0.0992  0.1181  0.3470
  291SOL    HW1 1162   1.286   4.780   2.755 -0.1256 -0.5452  1.2916
  291SOL    HW2 1163   1.386   4.653   2.728 -0.9579 -1.2464  1.4624
  292SOL     OW 1164   2.112   0.205   3.342 -0.0910  0.2103 -0.0630
  292SOL    HW1 1165   2.118   0.132   3.273  0.5781  0.7075 -0.5407
  292SOL    HW2 1166   2.057   0.280   3.307  2.2845  1.5861 -1.1401
  293SOL     OW 1167   1.550   2.853   2.659 -0.4953  1.0364  0.1891
  293SOL    HW1 1168   1.587   2.805   2.580 -1.3534  0.9906 -0.1983
  293SOL    HW2 1169   1.581   2.808   2.743  2.0428  2.2329 -0.0034
  294SOL     OW 1170   0.684   1.855   3.483  0.2403  0.3090 -0.4210
  294SOL    HW1 1171   0.687   1.890   3.577 -2.2331 -1.4260  0.4137
  294SOL    HW2 1172   0.691   1.756   3.484 -1.0236  0.1569 -1.9484
  295SOL     OW 1173   2.611   1.102   0.781 -0.1691  0.7552  0.1024
  295SOL    HW1 1174   2.585   1.042   0.706  1.6055 -0.4370  0.3764
  295SOL    HW2 1175   2.678   1.056   0.839 -1.5989  1.5542  2.5522
  296SOL     OW 1176   5.699   1.421   1.342  0.2161  0.0458  0.1640
  296SOL    HW1 1177   5.627   1.357   1.316  1.5754 -2.0530  1.2501
  296SOL    HW2 1178   5.757   1.442   1.263  0.5217 -1.1337  0.0620
  297SOL     OW 1179   1.666   5.880   2.174 -0.0845 -0.2432 -0.6013
  297SOL    HW1 1180   1.739   5.941   2.144 -0.2945 -0.0167 -0.6568
  297SOL    HW2 1181   1.578   5.919   2.150 -0.2740  0.0888  0.5621
  298SOL     OW 1182   1.085   2.974   3.305 -0.1407  0.0467  0.1746
  298SOL    HW1 1183   1.086   3.074   3.313 -0.3587  0.2475 -1.8820
  298SOL    HW2 1184   0.995   2.944   3.273 -0.1552 -0.8484  1.0090
  299SOL     OW 1185   1.544   5.240   3.485 -0.0409  0.1771  0.1474
  299SOL    HW1 1186   1.533   5.183   3.403 -0.8675  0.6221 -0.0611
  299SOL    HW2 1187   1.563   5.181   3.564  2.1358 -0.1692 -0.5766
  300SOL     OW 1188   0.553   1.207   1.761  0.8524  0.6479  0.4308
  300SOL    HW1 1189   0.527   1.282   1.700  0.7503  0.4572  0.2422
  300SOL    HW2 1190   0.651   1.213   1.780  0.9172  0.6053  0.1129
  301SOL     OW 1191   1.458   0.897   4.120  0.0011 -0.0684 -0.7000
  301SOL    HW1 1192   1.452   0.951   4.036 -2.0487  0.7167 -0.1123
  301SOL    HW2 1193   1.533   0.933   4.177  3.2250 -2.2509 -3.1785
  302SOL     OW 1194   5.012   0.664   3.654 -0.5112  0.0736 -0.0084
  302SOL    HW1 1195   5.030   0.673   3.752 -0.8411  0.2879  0.0325
  302SOL    HW2 1196   5.040   0.574   3.623 -0.5468 -0.0482  0.3148
  303SOL     OW 1197   0.537   5.044   4.215  0.4829  0.3075  0.1602
  303SOL    HW1 1198   0.583   5.048   4.304  1.7831  0.4638 -0.5070
  303SOL    HW2 1199   0.465   5.113   4.212  1.5555  1.4768  0.4851
  304SOL     OW 1200   0.739   1.268   3.254  0.1205  0.0359 -0.3035
  304SOL    HW1 1201   0.814   1.276   3.189  0.2486  2.0761  0.0201
  304SOL    HW2 1202   0.657   1.236   3.207  0.1513  1.6777 -1.5453
  305SOL     OW 1203   1.305   5.903   3.984 -0.1153  0.2665 -0.1422
  305SOL    HW1 1204   1.213   5.928   4.018  0.1272 -0.7976  1.4172
  305SOL    HW2 1205   1.368   5.979   4.001 -0.4205  0.4771  0.0678
  306SOL     OW 1206   0.966   0.424   4.127  0.1495 -0.5591 -0.6939
  306SOL    HW1 1207   0.982   0.363   4.204  0.7558  0.0240 -0.3474
  306SOL    HW2 1208   0.958   0.518   4.161 -0.0022 -0.3497 -1.3021
  307SOL     OW 1209   0.630   5.651   3.992  0.0564  0.3296  0.2897
  307SOL    HW1 1210   0.537   5.687   4.005  0.2472  0.1132  2.7082
  307SOL    HW2 1211   0.651   5.586   4.065  2.1724  0.4908 -0.1078
  308SOL     OW 1212   5.602   5.632   1.292  0.2973  0.7342 -0.1001
  308SOL    HW1 1213   5.578   5.554   1.350  1.1555  2.2703  2.4559
  308SOL    HW2 1214   5.518   5.671   1.253 -0.1803 -1.0880 -1.0023
  309SOL     OW 1215   1.579   0.145   3.308  0.1740 -0.1145  0.2364
  309SOL    HW1 1216   1.518   0.068   3.324  0.0778 -0.2657 -0.7641
  309SOL    HW2 1217   1.554   0.220   3.369 -0.2104 -0.6118  0.7000
  310SOL     OW 1218   5.199   5.022   1.655  0.0957  0.0157 -0.0234
  310SOL    HW1 1219   5.140   5.046   1.578  2.7583 -0.6114 -2.4511
  310SOL    HW2 1220   5.169   4.935   1.695 -2.4891  1.3094  1.0290
  311SOL     OW 1221   0.219   0.214   3.287 -0.4955 -0.0439 -0.1324
  311SOL    HW1 1222   0.175   0.303   3.294 -0.4273  0.0020 -0.2818
  311SOL    HW2 1223   0.214   0.182   3.192  2.7148  1.4662 -0.9249
  312SOL     OW 1224   0.709   5.815   4.330  0.7853 -0.0489 -0.0558
  312SOL    HW1 1225   0.696   5.913   4.343  3.5659  0.3570  0.3504
  312SOL    HW2 1226   0.669   5.787   4.243  0.4848  1.5856 -0.4683
  313SOL     OW 1227   2.250   2.646   2.140 -0.3021  0.2856 -0.5497
  313SOL    HW1 1228   2.203   2.637   2.228 -0.2536 -1.0907 -0.6438
  313SOL    HW2 1229   2.349   2.653   2.156 -0.3458  0.7991 -0.4718
  314SOL     OW 1230   4.532   1.415   2.392 -0.0602 -0.1470 -0.3228
  314SOL    HW1 1231   4.531   1.482   2.318 -0.1628  2.0173  1.5341
  314SOL    HW2 1232   4.438   1.393   2.418 -0.0233 -0.5173 -0.5062
  315SOL     OW 1233   2.330   0.356   3.400  0.1351 -0.0095 -0.4617
  315SOL    HW1 1234   2.274   0.306   3.334 -0.0939 -0.9156  0.3971
  315SOL    HW2 1235   2.372   0.291   3.464  1.5591  0.7136 -0.6123
  316SOL     OW 1236   2.055   0.496   1.843  0.2450 -0.4277 -0.7837
  316SOL    HW1 1237   2.128   0.429   1.860 -0.8398 -1.7255 -1.0114
  316SOL    HW2 1238   1.974   0.448   1.811 -0.8630  0.9395 -0.1115
  317SOL     OW 1239   5.398   0.399   2.377 -0.2907  0.4083  0.0908
  317SOL    HW1 1240   5.400   0.397   2.477  0.5899 -0.9854  0.0695
  317SOL    HW2 1241   5.307   0.371   2.345 -0.4326  0.4046  0.4940
  318SOL     OW 1242   4.668   0.610   2.458  0.5373 -0.0734 -0.1100
  318SOL    HW1 1243   4.639   0.696   2.500 -1.5744 -1.1686  0.8618
  318SOL    HW2 1244   4.589   0.566   2.415  1.4169 -1.8008 -0.0748
  319SOL     OW 1245   2.209   5.515   3.283  0.0724  0.1593  0.2850
  319SOL    HW1 1246   2.265   5.565   3.217 -0.7081 -0.1699 -0.6631
  319SOL    HW2 1247   2.115   5.550   3.280 -0.3792 -1.0182 -0.0593
  320SOL     OW 1248   0.873   5.774   1.694 -0.2784 -0.4275 -0.5659
  320SOL    HW1 1249   0.939   5.794   1.767 -1.3423 -2.6088  1.1273
  320SOL    HW2 1250   0.803   5.845   1.693 -0.9479 -0.9695  1.4986
  321SOL     OW 1251   2.766   0.553   3.423  0.0112 -0.3860  0.2206
  321SOL    HW1 1252   2.788   0.651   3.416  0.8077 -0.5124  0.7773
  321SOL    HW2 1253   2.691   0.531   3.361  0.4102  0.4054 -0.5745
  322SOL     OW 1254   1.097   1.417   3.856  0.4260  0.3973  0.1090
  322SOL    HW1 1255   1.085   1.475   3.936 -0.3591 -0.9880  1.0404
  322SOL    HW2 1256   1.013   1.419   3.801  0.1497 -0.3130  0.4846
  323SOL     OW 1257   2.685   0.411   1.253 -0.0397 -0.1173  0.2969
  323SOL    HW1 1258   2.649   0.504   1.265 -0.5388 -0.4147  1.1790
  323SOL    HW2 1259   2.660   0.377   1.163 -1.9890 -0.2946  0.8544
  324SOL     OW 1260   0.118   1.656   0.282  0.4827 -0.0464  0.0940
  324SOL    HW1 1261   0.040   1.649   0.220  1.0148  0.6970 -0.6760
  324SOL    HW2 1262   0.090   1.704   0.365  0.3450  1.1250 -0.6027
  325SOL     OW 1263   1.758   1.433   3.343  0.0766  0.0974 -0.8397
  325SOL    HW1 1264   1.740   1.351   3.290  1.4780  0.2706 -1.6409
  325SOL    HW2 1265   1.680   1.496   3.336  0.1371  0.0207 -2.5410
  326SOL     OW 1266   1.453   1.337   0.209 -0.2357 -0.1757 -0.0954
  326SOL    HW1 1267   1.499   1.255   0.242 -0.4740  0.1191  0.9859
  326SOL    HW2 1268   1.520   1.400   0.171  0.0291 -0.5626 -0.2778
  327SOL     OW 1269   0.310   5.466   2.768  0.0829  0.6834  0.2604
  327SOL    HW1 1270   0.279   5.557   2.743 -0.2031  1.1561  2.1798
  327SOL    HW2 1271   0.293   5.403   2.693  1.3131  2.3989 -1.5495
  328SOL     OW 1272   1.407   1.662   2.959  0.6584  0.2374 -0.2425
  328SOL    HW1 1273   1.326   1.718   2.973 -1.1347 -2.4804  1.0349
  328SOL    HW2 1274   1.408   1.628   2.865  1.0540  1.3003 -0.6356
  329SOL     OW 1275   2.128   1.957   3.795 -0.1369 -0.5578 -0.5330
  329SOL    HW1 1276   2.200   1.982   3.860  0.7604  1.2720 -2.1451
  329SOL    HW2 1277   2.157   1.877   3.743 -0.7922 -1.9402  1.1047
  330SOL     OW 1278   2.836   1.099   3.087 -0.0782  0.2539  0.0621
  330SOL    HW1 1279   2.820   1.017   3.141 -1.7110  0.9781  0.7400
  330SOL    HW2 1280   2.901   1.079   3.014  0.4860 -1.3050  0.9550
  331SOL     OW 1281   0.886   0.151   3.035  0.1904  0.0583  0.0054
  331SOL    HW1 1282   0.931   0.172   2.948  0.6525  0.5045  0.3492
  331SOL    HW2 1283   0.940   0.083   3.085  0.5745  0.7034  0.4857
  332SOL     OW 1284   2.683   1.656   2.846 -0.0641  0.2030  0.7142
  332SOL    HW1 1285   2.655   1.720   2.918 -0.6375  0.1082  0.5822
  332SOL    HW2 1286   2.692   1.705   2.760  0.1834  0.2349  0.7589
  333SOL     OW 1287   1.080   4.347   3.253  0.0023  0.1826 -0.1675
  333SOL    HW1 1288   1.106   4.370   3.347 -0.2900  1.4950 -0.3892
  333SOL    HW2 1289   0.988   4.309   3.252  0.0242  0.1223  0.0778
  334SOL     OW 1290   0.443   0.774   2.784  0.1685  0.4477  0.1059
  334SOL    HW1 1291   0.494   0.860   2.789  0.4225  0.2723  0.6044
  334SOL    HW2 1292   0.387   0.773   2.702  1.7676  0.2074 -1.0344
  335SOL     OW 1293   5.759   0.847   2.026 -0.1441 -0.0443  0.1810
  335SOL    HW1 1294   5.835   0.893   1.982  0.3963 -0.3323  0.7993
  335SOL    HW2 1295   5.698   0.809   1.956  0.5218 -0.2077 -0.3218
  336SOL     OW 1296   0.380   0.539   2.949 -0.2425  0.3350  0.4754
  336SOL    HW1 1297   0.377   0.619   2.889 -1.8302  2.2689  2.9605
  336SOL    HW2 1298   0.287   0.509   2.969  0.2997 -1.2264  0.8335
  337SOL     OW 1299   1.906   2.106   1.853  0.1667  0.1269 -0.6599
  337SOL    HW1 1300   1.941   2.130   1.943 -0.5401  1.6800 -0.7726
  337SOL    HW2 1301   1.980   2.066   1.798  0.5726 -0.9809  0.6176
  338SOL     OW 1302   5.932   2.441   3.297  0.1673 -0.0120 -0.2863
  338SOL    HW1 1303   5.834   2.454   3.313  0.0396 -0.2420 -0.8831
  338SOL    HW2 1304   5.971   2.389   3.373  0.1362  1.3837  0.7300
  339SOL     OW 1305   1.158   0.154   2.079  0.3488 -0.2639  0.3486
  339SOL    HW1 1306   1.217   0.103   2.142  2.6672 -0.1705 -1.5855
  339SOL    HW2 1307   1.074   0.102   2.062  1.1548 -1.8556  0.9751
  340SOL     OW 1308   5.294   0.774   3.597 -0.8592  0.8366 -0.6165
  340SOL    HW1 1309   5.307   0.680   3.628  1.6685  1.4164  0.2897
  340SOL    HW2 1310   5.287   0.834   3.676 -1.1293  1.5652 -1.1879
  341SOL     OW 1311   5.878   1.721   1.048  0.4777 -0.0795  0.3840
  341SOL    HW1 1312   5.931   1.720   0.963  1.7610 -2.3341  1.1308
  341SOL    HW2 1313   5.785   1.754   1.030  0.8480 -0.1408 -1.8114
  342SOL     OW 1314   0.926   3.936   2.352 -0.2752  0.4276 -0.6087
  342SOL    HW1 1315   0.865   3.857   2.361 -0.3092  0.5223  0.0742
  342SOL    HW2 1316   0.882   4.006   2.296  0.4210 -0.6776 -2.6507
  343SOL     OW 1317   2.533   0.646   0.669  0.2310  0.0247  0.4651
  343SOL    HW1 1318   2.514   0.723   0.608  2.6689  0.1323 -0.2671
  343SOL    HW2 1319   2.518   0.674   0.764 -1.2683  0.6067  0.0849
  344SOL     OW 1320   1.106   1.213   3.585 -0.1622 -0.2756 -0.0855
  344SOL    HW1 1321   1.153   1.131   3.617  0.6071  0.0784 -0.2739
  344SOL    HW2 1322   1.008   1.205   3.603  0.0154 -0.8709  0.6694
  345SOL     OW 1323   1.462   1.211   2.818  0.7244  0.0561  0.4137
  345SOL    HW1 1324   1.425   1.206   2.725 -0.6418  0.2140  0.9214
  345SOL    HW2 1325   1.528   1.286   2.824  2.0301 -0.9379 -0.8021
  346SOL     OW 1326   1.493   0.747   3.192 -0.3950  0.0775  0.2459
  346SOL    HW1 1327   1.478   0.690   3.273  2.5654 -0.4730  0.5380
  346SOL    HW2 1328   1.437   0.830   3.199 -1.0058 -0.4376  2.3226
  347SOL     OW 1329   0.123   0.508   3.240  0.8466 -0.0804 -0.3711
  347SOL    HW1 1330   0.132   0.500   3.140  1.9113  1.9611 -0.4784
  347SOL    HW2 1331   0.156   0.598   3.269 -2.0328  0.4828  1.5205
  348SOL     OW 1332   0.689   0.822   4.290 -0.3152  1.2281  0.6251
  348SOL    HW1 1333   0.644   0.795   4.205  0.7971  1.5412 -0.0819
  348SOL    HW2 1334   0.642   0.779   4.368 -0.6136 -0.0337 -0.2202
  349SOL     OW 1335   0.689   1.552   3.447  0.2539  0.1078  0.3866
  349SOL    HW1 1336   0.671   1.454   3.448 -1.8355  0.4056  2.3156
  349SOL    HW2 1337   0.776   1.570   3.402  0.2752 -2.5270 -0.7907
  350SOL     OW 1338   2.211   0.538   2.483 -0.2482 -0.3764  0.0834
  350SOL    HW1 1339   2.232   0.586   2.568 -2.3318  1.8439 -0.5314
  350SOL    HW2 1340   2.118   0.500   2.489 -1.3405  1.7441 -1.8872
  351SOL     OW 1341   5.395   0.066   2.931 -0.2760  0.3749 -0.7014
  351SOL    HW1 1342   5.399   0.074   3.031  1.2695  1.6569 -0.8225
  351SOL    HW2 1343   5.302   0.082   2.900 -1.3424 -2.5813  0.6819
  352SOL     OW 1344   5.970   0.215   4.532  0.2123 -0.2733 -0.2142
  352SOL    HW1 1345   5.897   0.163   4.487  0.0649 -0.2555  0.0039
  352SOL    HW2 1346   5.932   0.270   4.606  0.0547  1.6397 -1.6419
  353SOL     OW 1347   1.992   0.607   4.559  0.4173 -0.4839 -0.1037
  353SOL    HW1 1348   2.090   0.611   4.538  0.4397  1.0118  0.1535
  353SOL    HW2 1349   1.978   0.631   4.656 -0.3388  1.6642 -0.6798
  354SOL     OW 1350   1.502   2.150   2.553 -0.1276  0.1369  0.2023
  354SOL    HW1 1351   1.521   2.109   2.642 -2.2653  0.2755  0.7639
  354SOL    HW2 1352   1.538   2.243   2.551 -1.1993  0.5896  1.4050
  355SOL     OW 1353   0.757   1.380   3.897 -0.1602  0.8468  0.0070
  355SOL    HW1 1354   0.806   1.295   3.877 -2.7342 -0.3890 -1.6354
  355SOL    HW2 1355   0.801   1.455   3.848  0.1982 -0.1781 -1.3140
  356SOL     OW 1356   0.715   4.908   3.197 -0.6508 -0.3238 -0.5901
  356SOL    HW1 1357   0.643   4.860   3.147 -0.3485  0.7907 -2.1451
  356SOL    HW2 1358   0.681   4.934   3.287 -2.6142  1.1829 -1.7007
  357SOL     OW 1359   1.542   0.409   2.965  0.2479  0.1225  1.1138
  357SOL    HW1 1360   1.460   0.369   2.922  0.7188 -2.3078  2.3092
  357SOL    HW2 1361   1.575   0.485   2.909 -0.1076 -1.8068 -1.9662
  358SOL     OW 1362   1.952   4.975   4.216  0.2887 -0.2341 -0.4021
  358SOL    HW1 1363   1.899   4.905   4.168 -0.1016 -0.9484  1.0311
  358SOL    HW2 1364   1.892   5.053   4.236 -0.2535 -1.0229  1.1786
  359SOL     OW 1365   1.051   5.797   3.788  0.2814  0.0412  0.0247
  359SOL    HW1 1366   1.142   5.820   3.752  0.1213 -0.9645 -1.0696
  359SOL    HW2 1367   1.058   5.779   3.886  1.5087 -1.1869 -0.2589
  360SOL     OW 1368   1.068   1.151   2.749 -0.2714  0.0629 -0.0659
  360SOL    HW1 1369   0.994   1.141   2.816 -0.5206 -0.1103 -0.3671
  360SOL    HW2 1370   1.139   1.084   2.767 -0.7053 -0.5133 -0.4539
  361SOL     OW 1371   0.843   1.084   5.451 -1.0061 -0.1713  0.2460
  361SOL    HW1 1372   0.871   1.107   5.358  0.2907 -0.3658  0.5720
  361SOL    HW2 1373   0.744   1.097   5.460 -1.3047 -1.0135 -1.3993
  362SOL     OW 1374   5.865   4.975   1.833 -0.0684 -0.2223  0.1580
  362SOL    HW1 1375   5.936   5.036   1.871  1.3729 -1.7004 -0.0284
  362SOL    HW2 1376   5.788   5.030   1.801  0.4223  1.3701  1.5177
  363SOL     OW 1377   1.885   0.056   1.869 -0.1829 -0.2199  0.0799
  363SOL    HW1 1378   1.975   0.063   1.827  0.3071 -0.6959  0.9988
  363SOL    HW2 1379   1.820   0.021   1.802  0.2763  0.2853 -0.6446
  364SOL     OW 1380   0.321   1.739   2.531 -0.1916  0.1830 -0.1899
  364SOL    HW1 1381   0.406   1.748   2.478  0.1367 -1.4081  0.0248
  364SOL    HW2 1382   0.343   1.718   2.626 -0.8323 -0.7243 -0.2360
  365SOL     OW 1383   0.447   0.965   1.013  0.6270  0.0945 -0.6918
  365SOL    HW1 1384   0.378   0.975   0.941  0.3509 -0.9819 -0.6075
  365SOL    HW2 1385   0.425   0.884   1.068  1.0186  0.7121  0.4074
  366SOL     OW 1386   0.266   0.067   1.961 -0.6040 -0.1777 -0.5099
  366SOL    HW1 1387   0.361   0.079   1.989 -0.7349  1.7998 -0.8123
  366SOL    HW2 1388   0.258  -0.016   1.906  0.9057 -0.4443 -0.3693
  367SOL     OW 1389   2.059   1.771   4.486 -0.6162 -0.0692 -0.0938
  367SOL    HW1 1390   2.086   1.861   4.521 -0.2905 -0.2904  0.2333
  367SOL    HW2 1391   2.015   1.719   4.559  0.1890 -0.5856  0.0420
  368SOL     OW 1392   1.623   0.721   2.938 -0.3543 -0.1037 -0.7348
  368SOL    HW1 1393   1.604   0.715   3.036  1.5521  0.2145 -0.2946
  368SOL    HW2 1394   1.596   0.811   2.905 -1.4017 -0.3603 -0.6147
  369SOL     OW 1395   5.169   5.305   2.792  0.1668 -0.5663 -0.4550
  369SOL    HW1 1396   5.139   5.355   2.710  2.9609  0.8079 -0.7880
  369SOL    HW2 1397   5.143   5.209   2.784 -0.1676 -0.3591 -2.6973
  370SOL     OW 1398   0.339   2.123   2.836 -0.1244 -0.0630 -0.0421
  370SOL    HW1 1399   0.355   2.045   2.897 -1.0870  0.0030  0.3216
  370SOL    HW2 1400   0.404   2.196   2.857  2.4953 -1.6558 -2.0830
  371SOL     OW 1401   0.316   2.535   1.879  0.2267 -0.7067 -0.5678
  371SOL    HW1 1402   0.343   2.440   1.892  2.0696 -0.2057 -0.5390
  371SOL    HW2 1403   0.294   2.577   1.967  2.5140 -0.2494 -0.1634
  372SOL     OW 1404   1.722   2.181   1.656  0.1495  1.0418 -0.5122
  372SOL    HW1 1405   1.779   2.159   1.735  0.1731  3.3049  0.1858
  372SOL    HW2 1406   1.780   2.212   1.580  0.0479  0.0744 -0.9920
  373SOL     OW 1407   0.337   1.360   3.396  0.5587  0.3354  0.1699
  373SOL    HW1 1408   0.375   1.277   3.436 -0.4899  0.9220  2.5753
  373SOL    HW2 1409   0.263   1.335   3.333 -1.2634 -0.6091  2.5195
  374SOL     OW 1410   1.801   5.225   4.287 -0.1233  0.3951 -0.1619
  374SOL    HW1 1411   1.888   5.240   4.333  0.4380 -0.6264 -0.8472
  374SOL    HW2 1412   1.731   5.286   4.326  0.5571  0.2557  1.3293
  375SOL     OW 1413   3.398   4.959   5.149  0.5726 -0.3296 -0.2351
  375SOL    HW1 1414   3.302   4.936   5.132  0.8336  0.4988 -3.3937
  375SOL    HW2 1415   3.446   4.878   5.183 -1.8208  0.0841  5.2692
  376SOL     OW 1416   5.584   5.774   3.184  0.3701 -0.7777 -0.0959
  376SOL    HW1 1417   5.615   5.763   3.090  0.2640 -1.4522 -0.0564
  376SOL    HW2 1418   5.543   5.864   3.195  1.5525 -0.1765 -0.3609
  377SOL     OW 1419   2.189   0.696   5.147  0.3225  0.1545  0.0866
  377SOL    HW1 1420   2.203   0.666   5.241  0.9015 -0.7652 -0.2740
  377SOL    HW2 1421   2.103   0.746   5.140 -0.2242 -0.6318  0.9056
  378SOL     OW 1422   5.534   2.323   3.530  0.5675  0.0958 -0.5768
  378SOL    HW1 1423   5.596   2.365   3.462 -0.3182 -0.8496 -2.0214
  378SOL    HW2 1424   5.443   2.314   3.490 -0.2949  0.6001  1.1979
  379SOL     OW 1425   4.870   5.090   2.730  0.2516  0.0280 -0.7084
  379SOL    HW1 1426   4.967   5.099   2.752  0.3923 -0.7988 -0.9655
  379SOL    HW2 1427   4.860   5.047   2.640 -0.3514 -0.2695 -0.5040
  380SOL     OW 1428   5.621   3.312   3.168  0.1121  0.2122  0.0030
  380SOL    HW1 1429   5.681   3.366   3.108  0.0039 -1.0609 -1.3219
  380SOL    HW2 1430   5.549   3.270   3.113 -0.6585 -0.1159  1.2314
  381SOL     OW 1431   5.215   0.519   0.367 -0.1538 -0.9383  0.0459
  381SOL    HW1 1432   5.236   0.431   0.411  1.2767  0.1241  1.6088
  381SOL    HW2 1433   5.285   0.538   0.298  0.4786 -0.3111  0.8400
  382SOL     OW 1434   0.485   0.020   1.594  0.0632  0.6586  0.1206
  382SOL    HW1 1435   0.521   0.038   1.503 -0.3286  1.6624  0.1478
  382SOL    HW2 1436   0.552   0.049   1.663 -0.6436  2.2821  0.1677
  383SOL     OW 1437   0.145   1.161   2.806 -0.0192 -0.1581  0.3718
  383SOL    HW1 1438   0.112   1.084   2.752 -1.1609  0.5270  0.0596
  383SOL    HW2 1439   0.142   1.244   2.751  0.8560  0.1880  0.8193
  384SOL     OW 1440   0.337   0.106   5.508 -1.0888 -0.4524 -0.3474
  384SOL    HW1 1441   0.274   0.097   5.431 -0.0702  1.5419 -1.4979
  384SOL    HW2 1442   0.284   0.110   5.593 -2.3264 -1.4272 -1.0415
  385SOL     OW 1443   1.301   2.639   5.766  0.0831  0.1343 -1.1317
  385SOL    HW1 1444   1.250   2.625   5.851  1.7988 -0.6221 -0.1741
  385SOL    HW2 1445   1.391   2.678   5.786 -0.2777  2.0471 -2.8315
  386SOL     OW 1446   2.684   2.009   3.550  0.2592  0.4571  0.1030
  386SOL    HW1 1447   2.701   2.084   3.614 -3.0954  1.0895  0.4702
  386SOL    HW2 1448   2.692   2.043   3.456  1.3896  0.5442  0.2208
  387SOL     OW 1449   4.934   1.761   1.283  0.1751  0.1020 -0.1648
  387SOL    HW1 1450   5.011   1.761   1.347 -1.2294  1.6113  1.6440
  387SOL    HW2 1451   4.911   1.855   1.258 -0.8129 -0.3406 -0.9994
  388SOL     OW 1452   0.757   3.547   3.222  0.0972 -0.3017  0.4657
  388SOL    HW1 1453   0.832   3.526   3.160 -1.0821  0.1298 -1.1578
  388SOL    HW2 1454   0.712   3.632   3.192  0.1716  0.5429  2.5659
  389SOL     OW 1455   3.366   0.378   3.161  0.4268 -0.5029  0.3561
  389SOL    HW1 1456   3.275   0.399   3.197 -0.2317 -2.9807  0.3373
  389SOL    HW2 1457   3.357   0.324   3.077  1.9628  0.3595 -0.4271
  390SOL     OW 1458   2.640   5.193   1.483 -0.1591 -0.3085 -0.0433
  390SOL    HW1 1459   2.567   5.228   1.543  0.9135 -0.0497  1.1646
  390SOL    HW2 1460   2.683   5.114   1.526  1.3490  0.5429  0.0701
  391SOL     OW 1461   1.652   2.150   3.555  0.2285 -0.3797 -0.3869
  391SOL    HW1 1462   1.668   2.170   3.459  2.3186  1.8288  0.3279
  391SOL    HW2 1463   1.585   2.215   3.592 -1.7246 -2.1643 -0.6228
  392SOL     OW 1464   0.948   3.323   1.402 -0.5056 -0.5558 -0.0529
  392SOL    HW1 1465   0.940   3.262   1.323 -2.1112 -0.5826  0.0866
  392SOL    HW2 1466   0.957   3.269   1.486 -2.2486 -0.6705  0.1049
  393SOL     OW 1467   1.139   2.698   4.717  0.1851 -0.0525  0.0406
  393SOL    HW1 1468   1.048   2.727   4.747  0.6100  0.7232  0.6453
  393SOL    HW2 1469   1.206   2.722   4.788  0.8186 -0.8669 -0.2757
  394SOL     OW 1470   0.768   2.308   3.013 -0.4002  0.0799  0.3206
  394SOL    HW1 1471   0.851   2.358   3.038 -1.8250  2.5317  0.5348
  394SOL    HW2 1472   0.792   2.225   2.963  2.1325  1.7356 -1.4372
  395SOL     OW 1473   1.814   1.136   4.204  0.2398 -0.1431 -0.3702
  395SOL    HW1 1474   1.773   1.087   4.281 -1.0045 -0.4786 -1.2079
  395SOL    HW2 1475   1.907   1.164   4.227 -0.3809  0.4715  1.5441
  396SOL     OW 1476   2.338   5.385   4.417  0.2639 -0.1203 -0.1738
  396SOL    HW1 1477   2.323   5.346   4.326 -0.6800 -1.6380  0.5738
  396SOL    HW2 1478   2.407   5.330   4.465  3.6642  2.8613 -1.1967
  397SOL     OW 1479   1.072   5.400   1.715 -0.4156  0.2555  0.1570
  397SOL    HW1 1480   1.029   5.310   1.719 -1.4488  0.7582  0.8059
  397SOL    HW2 1481   1.046   5.445   1.629  0.6889 -0.3372 -0.5009
  398SOL     OW 1482   1.110   0.501   1.423 -0.1158  0.4954 -0.6391
  398SOL    HW1 1483   1.067   0.589   1.440 -1.4026 -0.2563  0.2234
  398SOL    HW2 1484   1.209   0.509   1.431 -0.0856  2.1847 -2.2144
  399SOL     OW 1485   2.928   0.057   0.696 -0.0578 -0.6082 -0.0991
  399SOL    HW1 1486   2.930  -0.043   0.686  1.1959 -0.7656  1.4643
  399SOL    HW2 1487   2.994   0.085   0.764  0.2340  1.4092 -1.1498
  400SOL     OW 1488   0.626   0.341   1.179 -0.0397  0.0750 -0.3032
  400SOL    HW1 1489   0.619   0.441   1.181 -0.2561  0.0845 -1.1068
  400SOL    HW2 1490   0.674   0.309   1.260  0.5866  0.8794 -0.3504
  401SOL     OW 1491   1.895   0.654   1.568  0.4290  0.5561 -0.0965
  401SOL    HW1 1492   1.948   0.688   1.646  1.2576  1.5194 -1.0562
  401SOL    HW2 1493   1.822   0.719   1.547  0.7913  0.7682 -0.7083
  402SOL     OW 1494   0.540   0.235   2.612 -0.1549  0.0364  0.1378
  402SOL    HW1 1495   0.584   0.145   2.612 -1.3325 -0.5881 -1.4186
  402SOL    HW2 1496   0.570   0.287   2.692  2.0197 -1.0027  0.0668
  403SOL     OW 1497   5.751   0.935   2.477  0.0197  0.8826  0.0523
  403SOL    HW1 1498   5.695   0.986   2.542 -2.1277 -1.3798  0.0895
  403SOL    HW2 1499   5.698   0.918   2.394  0.8654 -0.7834 -0.1749
  404SOL     OW 1500   4.439   0.082   1.439 -0.8975  0.0369  0.4503
  404SOL    HW1 1501   4.486   0.029   1.511  1.2933  1.2393 -0.0071
  404SOL    HW2 1502   4.480   0.061   1.351 -2.4801 -0.1910 -0.2583
  405SOL     OW 1503   2.090   4.937   2.348  0.1736 -0.4535  0.0561
  405SOL    HW1 1504   1.993   4.939   2.372 -0.4877  1.5470 -2.3631
  405SOL    HW2 1505   2.142   4.990   2.414 -0.7023  0.1945  0.2437
  406SOL     OW 1506   1.983   1.354   3.851 -0.3041 -0.2162 -0.6634
  406SOL    HW1 1507   1.905   1.350   3.914 -0.5840 -1.2184 -1.0535
  406SOL    HW2 1508   1.950   1.369   3.758  0.0672  0.6650 -0.6595
  407SOL     OW 1509   0.979   5.179   4.193 -0.1994 -0.2637  0.0552
  407SOL    HW1 1510   1.025   5.155   4.107 -1.6560 -0.7902 -0.6204
  407SOL    HW2 1511   0.964   5.278   4.196 -2.2508 -0.4462 -1.4893
  408SOL     OW 1512   4.778   2.000   0.398 -0.8181 -0.0717 -0.0064
  408SOL    HW1 1513   4.691   1.958   0.371 -0.1497 -0.9619 -0.8212
  408SOL    HW2 1514   4.796   1.978   0.494 -0.3720 -1.9088 -0.4665
  409SOL     OW 1515   0.707   0.638   2.711 -0.3438 -0.2738  0.1096
  409SOL    HW1 1516   0.695   0.544   2.742  0.4177 -0.4865 -0.2349
  409SOL    HW2 1517   0.661   0.700   2.776 -2.4089 -0.9696 -0.6208
  410SOL     OW 1518   5.331   5.282   3.090 -0.1817  0.1079  0.1909
  410SOL    HW1 1519   5.255   5.346   3.106 -0.4490 -0.0078 -0.5651
  410SOL    HW2 1520   5.296   5.199   3.047  0.3493 -0.0107 -0.0212
  411SOL     OW 1521   0.244   0.679   2.540  0.3319  0.0846 -0.0235
  411SOL    HW1 1522   0.262   0.581   2.534 -1.9114 -0.4104  0.2515
  411SOL    HW2 1523   0.145   0.694   2.546  0.6600  2.3274  0.7851
  412SOL     OW 1524   1.221   1.080   4.079 -0.2998 -0.2369 -0.1453
  412SOL    HW1 1525   1.297   1.076   4.144 -0.6569  1.5956  0.4510
  412SOL    HW2 1526   1.239   1.150   4.010 -0.3089 -1.5792 -1.5794
  413SOL     OW 1527   5.532   0.568   1.959 -0.0183  0.0683 -0.1548
  413SOL    HW1 1528   5.461   0.502   1.936  0.4287 -0.7930  0.8602
  413SOL    HW2 1529   5.566   0.549   2.051  1.9104  0.1205 -0.8274
  414SOL     OW 1530   0.326   2.892   0.076 -0.2994 -0.2363 -0.1055
  414SOL    HW1 1531   0.399   2.877   0.010 -0.7021 -0.2767 -0.5433
  414SOL    HW2 1532   0.290   2.985   0.067  0.7260  0.3030  1.1458
  415SOL     OW 1533   1.468   0.688   4.835  0.2453  0.5088 -0.3615
  415SOL    HW1 1534   1.438   0.633   4.912  0.3486 -0.3592 -0.9248
  415SOL    HW2 1535   1.504   0.775   4.868  0.2087  0.1853  0.5581
  416SOL     OW 1536   0.277   2.520   3.021 -0.0927  0.4108  0.5011
  416SOL    HW1 1537   0.307   2.433   2.983  0.5638 -0.0637  2.0140
  416SOL    HW2 1538   0.178   2.527   3.014 -0.0469  0.1163 -0.7525
  417SOL     OW 1539   2.041   0.257   0.882 -0.1605 -0.2309  0.4819
  417SOL    HW1 1540   2.004   0.347   0.909  1.2995  0.1492  1.3016
  417SOL    HW2 1541   2.081   0.264   0.790  1.7529  0.5315  1.3252
  418SOL     OW 1542   2.364   1.317   4.678 -0.3344 -0.1355 -0.1450
  418SOL    HW1 1543   2.396   1.295   4.770 -1.1356  1.6916  0.6232
  418SOL    HW2 1544   2.442   1.313   4.615  0.6617  0.5432  0.9810
  419SOL     OW 1545   1.528   1.892   2.457  0.0236 -0.4162  0.4377
  419SOL    HW1 1546   1.607   1.853   2.504 -0.8951 -2.1621  0.6240
  419SOL    HW2 1547   1.510   1.984   2.493  1.0603 -0.5807  1.4373
  420SOL     OW 1548   0.230   0.210   3.774 -0.2628  0.1365 -0.4880
  420SOL    HW1 1549   0.257   0.168   3.687  0.7575  2.1482 -1.1967
  420SOL    HW2 1550   0.303   0.196   3.842 -0.4475 -0.2196 -0.3563
  421SOL     OW 1551   0.837   0.620   3.207 -0.1395 -0.3729 -0.1961
  421SOL    HW1 1552   0.810   0.671   3.288 -1.2504 -0.7554 -0.3044
  421SOL    HW2 1553   0.915   0.561   3.229  0.3250  0.3963  0.2670
  422SOL     OW 1554   2.438   1.068   3.245  0.9527 -0.1641 -0.1881
  422SOL    HW1 1555   2.435   1.115   3.157 -0.0674 -0.3893 -0.2890
  422SOL    HW2 1556   2.364   1.002   3.249  1.9717 -1.3082  0.2156
  423SOL     OW 1557   1.301   4.654   1.872  0.0489 -0.3309 -0.1105
  423SOL    HW1 1558   1.357   4.643   1.789 -0.4966 -1.9285 -0.3007
  423SOL    HW2 1559   1.355   4.629   1.952 -0.2858 -1.6715 -0.2756
  424SOL     OW 1560   2.766   5.666   3.463 -0.0687 -0.1154  0.0839
  424SOL    HW1 1561   2.809   5.638   3.377 -1.3488 -0.7291 -0.3870
  424SOL    HW2 1562   2.834   5.663   3.537  0.8836 -0.2373 -0.7795
  425SOL     OW 1563   5.551   0.657   5.671 -0.8558 -0.5839 -0.6141
  425SOL    HW1 1564   5.469   0.698   5.633 -0.7992 -2.2285 -2.6928
  425SOL    HW2 1565   5.631   0.687   5.619 -0.3691 -0.4361  0.2034
  426SOL     OW 1566   0.065   1.787   3.990  0.1734 -0.0260  0.5008
  426SOL    HW1 1567   0.110   1.835   4.065 -0.2323  1.0625  0.0748
  426SOL    HW2 1568  -0.024   1.829   3.972  1.0440  0.9953 -1.8083
  427SOL     OW 1569   2.078   1.497   2.491 -0.6166 -0.1113 -0.0915
  427SOL    HW1 1570   2.065   1.445   2.406  3.7085 -0.5867 -0.7239
  427SOL    HW2 1571   2.064   1.594   2.473 -1.1309 -0.3349 -0.9749
  428SOL     OW 1572   5.311   0.565   0.905  0.1067  0.0175 -0.1318
  428SOL    HW1 1573   5.307   0.511   0.820  0.0984 -0.1916 -0.0000
  428SOL    HW2 1574   5.240   0.635   0.903 -1.5239 -1.5224  0.7366
  429SOL     OW 1575   5.540   0.683   0.624 -0.1886  0.3261 -0.2425
  429SOL    HW1 1576   5.461   0.744   0.621  0.2384  0.8589 -1.3858
  429SOL    HW2 1577   5.611   0.724   0.682 -0.2026  0.5423 -0.3768
  430SOL     OW 1578   5.906   0.730   4.699 -0.0345 -0.2272 -0.9729
  430SOL    HW1 1579   5.812   0.761   4.682  0.2926  0.5458 -1.3644
  430SOL    HW2 1580   5.903   0.648   4.757 -0.9112  0.4292 -0.0497
  431SOL     OW 1581   0.498   1.459   1.648 -0.4991 -0.3037 -0.0070
  431SOL    HW1 1582   0.544   1.443   1.560 -0.4709  0.6562 -0.1738
  431SOL    HW2 1583   0.423   1.523   1.635 -1.5917 -1.4707  0.3624
  432SOL     OW 1584   0.590   1.852   3.226  0.2426  0.4385 -0.0555
  432SOL    HW1 1585   0.611   1.873   3.321 -0.5796  0.5542  0.1081
  432SOL    HW2 1586   0.540   1.766   3.221  1.1077 -0.0478 -0.4731
  433SOL     OW 1587   0.416   0.027   2.916 -0.3069  0.4042 -0.5179
  433SOL    HW1 1588   0.436  -0.071   2.911  1.6209  0.6900  0.9007
  433SOL    HW2 1589   0.495   0.076   2.952 -1.4033  2.4477 -0.7575
  434SOL     OW 1590   1.819   0.602   3.499  0.3504  0.5547  0.3410
  434SOL    HW1 1591   1.817   0.502   3.493 -1.1871  0.5731 -0.0428
  434SOL    HW2 1592   1.854   0.630   3.588  1.2267 -0.3124  0.2796
  435SOL     OW 1593   0.934   1.068   2.492 -0.4708  0.1594 -0.0932
  435SOL    HW1 1594   0.866   1.004   2.529 -1.2564 -0.0862 -1.8249
  435SOL    HW2 1595   1.002   1.088   2.562  0.7404 -3.8175  0.1472
  436SOL     OW 1596   1.962   5.905   4.469 -0.4061  0.4550 -0.4297
  436SOL    HW1 1597   2.055   5.923   4.500 -0.3697 -1.6306  0.9004
  436SOL    HW2 1598   1.900   5.973   4.507  0.3233  0.7098  0.3405
  437SOL     OW 1599   4.944   0.723   1.766  0.8734  0.2685  0.2929
  437SOL    HW1 1600   4.912   0.638   1.723  3.7656 -1.5724  1.4953
  437SOL    HW2 1601   4.886   0.799   1.737 -1.3676 -1.9574 -1.4608
  438SOL     OW 1602   0.714   0.060   1.756 -0.1477 -0.6208 -0.4286
  438SOL    HW1 1603   0.805   0.101   1.746  1.3810 -3.8803 -1.0312
  438SOL    HW2 1604   0.703   0.027   1.850 -0.3943 -0.9717 -0.5829
  439SOL     OW 1605   0.330   5.465   3.209  1.0716 -0.7024  0.4253
  439SOL    HW1 1606   0.298   5.487   3.301  2.0393 -0.5834  0.7420
  439SOL    HW2 1607   0.401   5.530   3.182 -0.3934  0.3527 -1.1033
  440SOL     OW 1608   0.374   2.901   1.437 -0.5716  0.4522 -0.0028
  440SOL    HW1 1609   0.432   2.846   1.378 -0.5872  0.6754 -0.2308
  440SOL    HW2 1610   0.346   2.984   1.388 -0.8998  0.4528  0.1816
  441SOL     OW 1611   1.212   0.839   4.309 -0.3474 -0.4076 -0.1758
  441SOL    HW1 1612   1.129   0.791   4.280  0.4032 -2.0737  0.2952
  441SOL    HW2 1613   1.259   0.876   4.228 -1.5339  0.5752 -0.4397
  442SOL     OW 1614   1.036   1.617   1.730 -0.1180  0.2891 -0.1001
  442SOL    HW1 1615   0.940   1.623   1.757  0.6384 -0.1482  3.1365
  442SOL    HW2 1616   1.079   1.708   1.736 -0.1010  0.3136 -0.5708
  443SOL     OW 1617   0.558   5.937   3.781  0.3390 -0.4005  0.1058
  443SOL    HW1 1618   0.614   5.854   3.777 -0.0726 -0.6863  0.2105
  443SOL    HW2 1619   0.518   5.955   3.690  1.5528  0.4737 -0.2711
  444SOL     OW 1620   0.248   0.602   2.107  0.5169  0.3567 -0.5296
  444SOL    HW1 1621   0.288   0.675   2.162 -1.6363  2.2275 -1.2895
  444SOL    HW2 1622   0.148   0.602   2.120  0.2332 -0.9380 -2.3604
  445SOL     OW 1623   4.855   0.807   2.896 -0.1564 -0.3971 -0.0316
  445SOL    HW1 1624   4.935   0.748   2.896 -0.5550 -0.9419  0.4205
  445SOL    HW2 1625   4.839   0.844   2.988 -0.8984 -0.9552  0.0771
  446SOL     OW 1626   2.102   2.814   1.412  0.2608 -0.2478  0.3033
  446SOL    HW1 1627   2.057   2.745   1.469 -2.5822  1.9617  0.9638
  446SOL    HW2 1628   2.171   2.862   1.465 -0.2514 -0.2241  0.9523
  447SOL     OW 1629   0.343   1.921   3.029  0.4655 -0.5761 -0.0667
  447SOL    HW1 1630   0.246   1.907   3.047  0.2147  0.3333 -0.6329
  447SOL    HW2 1631   0.395   1.906   3.112 -0.0917 -1.6741  0.0983
  448SOL     OW 1632   5.794   4.408   5.720  0.2117 -0.1006  0.4638
  448SOL    HW1 1633   5.752   4.437   5.807 -0.1742 -0.6640  0.4704
  448SOL    HW2 1634   5.737   4.439   5.644  1.6993  2.4027  0.2577
  449SOL     OW 1635   5.811   5.874   5.006 -1.0302 -0.9091  0.2246
  449SOL    HW1 1636   5.882   5.853   4.939  0.4618  0.6001  1.2520
  449SOL    HW2 1637   5.807   5.802   5.074 -0.2659 -0.8672  0.3191
  450SOL     OW 1638   1.001   5.334   4.547  0.1127 -0.0079 -0.4215
  450SOL    HW1 1639   1.059   5.413   4.530 -0.2041  0.1758 -0.6493
  450SOL    HW2 1640   0.911   5.364   4.579 -0.5308 -0.1916 -1.9756
  451SOL     OW 1641   5.614   1.429   5.955 -0.1875  0.1687  0.4780
  451SOL    HW1 1642   5.680   1.490   5.910 -0.7063  0.2433 -0.2119
  451SOL    HW2 1643   5.543   1.404   5.889 -1.1232  0.5000  1.3465
  452SOL     OW 1644   1.283   0.976   4.533 -0.0084 -0.2444 -0.6851
  452SOL    HW1 1645   1.299   1.058   4.478 -0.6859 -0.1125 -0.6860
  452SOL    HW2 1646   1.259   0.900   4.473 -1.8406  0.1629 -0.5162
  453SOL     OW 1647   1.014   0.977   5.623 -0.0273  0.5438 -0.5948
  453SOL    HW1 1648   1.065   0.914   5.565 -1.5979  0.0312 -1.4778
  453SOL    HW2 1649   0.941   1.021   5.570 -1.5526  0.0281  0.9443
  454SOL     OW 1650   0.766   1.936   4.633  0.1425  0.3581  0.1618
  454SOL    HW1 1651   0.825   1.874   4.581 -0.1681 -0.9471  1.3160
  454SOL    HW2 1652   0.752   1.900   4.725 -3.6376 -0.1975 -0.4708
  455SOL     OW 1653   0.756   5.871   5.643 -0.0028  0.5553 -0.6589
  455SOL    HW1 1654   0.698   5.952   5.633 -1.4321 -0.2467  0.7997
  455SOL    HW2 1655   0.765   5.825   5.554  0.2019  1.8521 -1.3376
  456SOL     OW 1656   2.113   1.419   4.642  0.5947  0.2054 -0.0092
  456SOL    HW1 1657   2.202   1.380   4.667  1.5290  1.6189 -0.9758
  456SOL    HW2 1658   2.057   1.349   4.597  2.0416 -0.1747 -1.2939
  457SOL     OW 1659   5.804  -0.004   0.553 -0.5513  0.4013  0.1203
  457SOL    HW1 1660   5.895   0.018   0.588  0.2873 -0.8941 -1.1654
  457SOL    HW2 1661   5.739   0.066   0.583  0.2886  0.0006  3.3059
  458SOL     OW 1662   0.213   0.721   4.575  0.0319 -0.4228  0.0890
  458SOL    HW1 1663   0.239   0.629   4.545 -1.7270 -0.0215 -3.1234
  458SOL    HW2 1664   0.125   0.716   4.622 -0.7690 -0.2968 -1.3391
  459SOL     OW 1665   3.933   0.895   3.532  0.0781  0.4129 -1.0774
  459SOL    HW1 1666   3.909   0.985   3.568 -0.3806 -0.5558  1.2107
  459SOL    HW2 1667   4.025   0.899   3.493  1.7195  1.0935  2.4243
  460SOL     OW 1668   5.402   0.878   5.548 -0.2170  0.9101 -0.0080
  460SOL    HW1 1669   5.427   0.973   5.569 -2.4594  1.8801 -1.4028
  460SOL    HW2 1670   5.398   0.866   5.449 -0.3957 -0.5429  0.1583
  461SOL     OW 1671   1.445   1.738   4.467 -0.6801 -0.4643  0.3615
  461SOL    HW1 1672   1.345   1.730   4.469 -0.7863  0.7672  0.8092
  461SOL    HW2 1673   1.473   1.815   4.524  0.2549  1.3840 -2.3958
  462SOL     OW 1674   5.736   3.980   2.798 -0.3165  0.0761 -0.3610
  462SOL    HW1 1675   5.724   4.061   2.855 -2.7530 -0.3099 -0.2412
  462SOL    HW2 1676   5.771   3.904   2.854  0.6221  0.6244 -0.1795
  463SOL     OW 1677   2.491   0.668   5.581 -0.2166  0.2760  0.1432
  463SOL    HW1 1678   2.566   0.734   5.587 -0.4066  0.6855 -1.5380
  463SOL    HW2 1679   2.438   0.670   5.666  1.8395 -0.2758  1.5166
  464SOL     OW 1680   0.898   1.247   4.472 -0.5735 -0.0771  0.0388
  464SOL    HW1 1681   0.855   1.157   4.478  0.6921 -0.6692  0.4872
  464SOL    HW2 1682   0.904   1.274   4.375 -3.6872  0.9290  0.0222
  465SOL     OW 1683   0.815   1.469   4.618 -0.0961 -0.4298  0.2170
  465SOL    HW1 1684   0.834   1.390   4.559  1.1147 -0.4608  0.6290
  465SOL    HW2 1685   0.729   1.512   4.589  0.8126 -0.0042 -2.0339
  466SOL     OW 1686   5.772   1.079   1.276 -0.4503  0.2764  0.3575
  466SOL    HW1 1687   5.832   1.127   1.213 -0.7050  1.7617  1.1949
  466SOL    HW2 1688   5.683   1.064   1.233 -0.8140  1.7985  0.5204
  467SOL     OW 1689   1.252   5.245   3.577 -0.4568  0.5064  0.2415
  467SOL    HW1 1690   1.242   5.186   3.657  1.8652  1.6600  1.4839
  467SOL    HW2 1691   1.200   5.329   3.591  1.7420  1.7366  1.7290
  468SOL     OW 1692   2.320   4.529   0.869  0.3678  0.0601 -0.0944
  468SOL    HW1 1693   2.264   4.553   0.789  1.2502 -0.6303 -0.9450
  468SOL    HW2 1694   2.266   4.475   0.933 -0.6497  1.4395  0.2704
  469SOL     OW 1695   0.720   5.460   4.146 -0.1315  0.3442 -0.5840
  469SOL    HW1 1696   0.684   5.413   4.227 -0.4413  1.6346  0.0591
  469SOL    HW2 1697   0.817   5.478   4.159 -0.4994  1.9592  0.2526
  470SOL     OW 1698   2.387   2.905   4.805 -0.0185  0.1862  0.1289
  470SOL    HW1 1699   2.329   2.972   4.757 -1.4070 -2.1960 -1.7780
  470SOL    HW2 1700   2.347   2.885   4.894 -0.9305  0.2220 -0.2533
  471SOL     OW 1701   1.074   0.463   4.440 -0.2099 -0.3031 -0.0647
  471SOL    HW1 1702   1.023   0.387   4.401 -0.6970  0.2328 -0.4895
  471SOL    HW2 1703   1.011   0.537   4.463  0.5218  1.1646 -2.4251
  472SOL     OW 1704   1.787   1.151   3.001 -0.2718 -0.4170 -0.3486
  472SOL    HW1 1705   1.858   1.182   3.065  0.3347  0.7956 -1.5519
  472SOL    HW2 1706   1.828   1.089   2.934  0.0376  1.2987 -1.8473
  473SOL     OW 1707   1.346   0.959   3.206  0.5366  0.1829 -0.0296
  473SOL    HW1 1708   1.403   1.037   3.181 -0.0380 -0.2944 -3.1719
  473SOL    HW2 1709   1.283   0.986   3.280  2.0349  1.8768  0.7081
  474SOL     OW 1710   4.519   1.731   5.341 -0.3284  0.7142  0.0788
  474SOL    HW1 1711   4.464   1.723   5.424  1.4408 -0.4398  1.2012
  474SOL    HW2 1712   4.588   1.802   5.354  0.6888 -0.2492  0.0561
  475SOL     OW 1713   1.933   4.501   5.047 -0.0439  0.1456  0.3855
  475SOL    HW1 1714   1.989   4.533   4.970 -1.4671 -0.9320 -1.1730
  475SOL    HW2 1715   1.876   4.575   5.081  0.3672  0.5512  0.1914
  476SOL     OW 1716   4.746   2.444   4.872 -0.1680 -0.2173 -0.1942
  476SOL    HW1 1717   4.707   2.503   4.801 -0.7085 -0.3297  0.0031
  476SOL    HW2 1718   4.837   2.413   4.844  0.4743  1.3350  0.0292
  477SOL     OW 1719   0.605   4.892   5.346 -0.0197 -0.4432 -0.0239
  477SOL    HW1 1720   0.678   4.958   5.328  0.2871 -0.7658  0.0397
  477SOL    HW2 1721   0.559   4.916   5.432  0.1515 -0.3713  0.0468
  478SOL     OW 1722   5.340   2.153   4.236  0.3502  0.1247 -0.3286
  478SOL    HW1 1723   5.276   2.081   4.211  0.5881  0.6854 -2.8119
  478SOL    HW2 1724   5.302   2.242   4.211  1.5673  0.5561 -0.7400
  479SOL     OW 1725   3.140   1.080   2.971 -0.0256 -0.4809 -0.3787
  479SOL    HW1 1726   3.178   1.077   3.064  0.4785 -1.9383 -0.6028
  479SOL    HW2 1727   3.155   1.170   2.932 -1.1663  0.5028  1.3246
  480SOL     OW 1728   0.259   2.337   4.638  0.5768  0.0933  0.1231
  480SOL    HW1 1729   0.266   2.260   4.574  0.1760 -0.4472  0.7283
  480SOL    HW2 1730   0.311   2.317   4.720  0.4908  0.4833  0.2757
  481SOL     OW 1731   1.058   0.037   5.452  0.0521  0.5626 -0.0854
  481SOL    HW1 1732   0.964   0.061   5.475  0.6021 -0.3535  3.8080
  481SOL    HW2 1733   1.058  -0.033   5.380 -2.2887  0.0543  0.3334
  482SOL     OW 1734   0.094   1.744   3.296  0.6518 -0.5054 -0.2382
  482SOL    HW1 1735   0.120   1.658   3.339 -0.8059 -1.1093 -0.5028
  482SOL    HW2 1736   0.049   1.803   3.363 -0.1450 -0.7738 -0.5314
  483SOL     OW 1737   1.297   1.244   3.885 -0.2788 -0.4048  0.1266
  483SOL    HW1 1738   1.341   1.250   3.796  1.4335  1.8962  1.0197
  483SOL    HW2 1739   1.222   1.309   3.890 -1.7680 -2.0136 -0.2725
  484SOL     OW 1740   1.212   2.417   4.412  0.4680 -0.0981  0.1182
  484SOL    HW1 1741   1.215   2.516   4.411  1.1663 -0.1028  0.6773
  484SOL    HW2 1742   1.259   2.383   4.494  1.1215 -0.9157 -0.5767
  485SOL     OW 1743   1.920   5.324   4.868 -0.2437  0.3630 -0.3378
  485SOL    HW1 1744   2.009   5.281   4.853  0.2630  0.2564  2.4181
  485SOL    HW2 1745   1.853   5.286   4.805  1.5253  0.0969 -2.1590
  486SOL     OW 1746   4.372   5.415   4.565  0.0662 -0.2390 -0.2419
  486SOL    HW1 1747   4.457   5.458   4.534 -0.2546  1.6198  1.2971
  486SOL    HW2 1748   4.339   5.352   4.495  1.2446  1.0712 -2.0419
  487SOL     OW 1749   0.951   5.175   4.784 -0.0823 -1.0107  0.1017
  487SOL    HW1 1750   0.858   5.146   4.763 -0.6382  0.6551  0.0948
  487SOL    HW2 1751   0.991   5.218   4.702 -0.0163 -0.0412  0.6236
  488SOL     OW 1752   1.896   4.614   3.922 -0.0323 -0.0037  0.1740
  488SOL    HW1 1753   1.964   4.677   3.884  0.8158 -1.4744 -0.7961
  488SOL    HW2 1754   1.824   4.597   3.855 -0.4541  0.1835  0.5662
  489SOL     OW 1755   0.655   0.196   5.292  0.3846 -0.0296  0.0369
  489SOL    HW1 1756   0.702   0.128   5.237  1.6691  0.6436  0.2553
  489SOL    HW2 1757   0.707   0.282   5.291 -0.1432  0.3424  1.3767
  490SOL     OW 1758   0.228   0.238   5.151  0.4870 -0.1228  0.1694
  490SOL    HW1 1759   0.140   0.231   5.104  0.2409  2.2242  0.1377
  490SOL    HW2 1760   0.214   0.272   5.244  1.3290  0.2796  0.1648
  491SOL     OW 1761   0.863   0.191   3.535  0.3809 -0.1546  0.0644
  491SOL    HW1 1762   0.846   0.290   3.539 -1.1991 -0.3833 -0.1275
  491SOL    HW2 1763   0.939   0.168   3.595  0.9656  1.2147 -0.1135
  492SOL     OW 1764   0.085   4.936   5.073  0.0606 -0.8677  0.1133
  492SOL    HW1 1765  -0.001   4.983   5.092  1.0223  0.0656  2.5134
  492SOL    HW2 1766   0.131   4.914   5.159  3.3910  0.8604 -1.0525
  493SOL     OW 1767   5.080   1.510   5.618 -0.2416 -0.1812 -0.4677
  493SOL    HW1 1768   5.020   1.544   5.545 -0.4792  2.4611  0.8278
  493SOL    HW2 1769   5.173   1.542   5.601  0.0832 -1.1501 -0.5536
  494SOL     OW 1770   2.324   4.828   3.558  0.2346  0.3923  0.0154
  494SOL    HW1 1771   2.318   4.928   3.557 -0.3630  0.3676  0.6459
  494SOL    HW2 1772   2.401   4.799   3.614 -0.0712  0.4802  0.4789
  495SOL     OW 1773   1.166   1.729   4.215 -0.4922 -0.5929  0.4364
  495SOL    HW1 1774   1.136   1.805   4.274  1.8085  0.5740  0.2001
  495SOL    HW2 1775   1.258   1.747   4.182 -0.8702 -2.3000 -1.7490
  496SOL     OW 1776   1.668   0.967   4.371 -0.3663 -0.1093 -0.3099
  496SOL    HW1 1777   1.628   0.994   4.459 -2.2654 -2.5368 -0.3103
  496SOL    HW2 1778   1.705   0.874   4.379 -0.2509 -0.2251 -1.9818
  497SOL     OW 1779   1.166   5.127   4.415  0.3376 -0.3993  0.0629
  497SOL    HW1 1780   1.118   5.201   4.462  0.8795 -0.2547  0.4077
  497SOL    HW2 1781   1.117   5.103   4.331  0.1778  0.3852 -0.0777
  498SOL     OW 1782   1.136   2.121   5.549  0.4215 -0.0359 -0.5184
  498SOL    HW1 1783   1.216   2.061   5.547  0.6990  0.1668  1.7492
  498SOL    HW2 1784   1.164   2.212   5.580 -0.7079 -0.0402  0.5670
  499SOL     OW 1785   5.919   1.033   3.023 -0.1893 -0.1690 -0.1570
  499SOL    HW1 1786   5.907   0.946   2.974  0.1320 -0.2044 -0.1734
  499SOL    HW2 1787   5.957   1.101   2.960  1.5231 -0.5829  0.3628
  500SOL     OW 1788   2.465   1.848   4.836 -0.3709 -0.2124 -0.0839
  500SOL    HW1 1789   2.425   1.766   4.878  0.0930 -0.7729 -0.7189
  500SOL    HW2 1790   2.550   1.871   4.884  1.1275 -1.9065 -1.7564
  501SOL     OW 1791   1.664   1.618   4.836  0.2876 -0.4030 -0.8478
  501SOL    HW1 1792   1.583   1.562   4.815 -1.1146  1.2610 -0.1706
  501SOL    HW2 1793   1.682   1.613   4.935  0.6168 -0.2723 -0.9026
  502SOL     OW 1794   1.094   4.291   4.215  0.1997 -0.3924  0.1001
  502SOL    HW1 1795   1.001   4.318   4.239 -0.3830 -0.6432 -1.7130
  502SOL    HW2 1796   1.155   4.308   4.293 -1.1571  0.7478  0.9703
  503SOL     OW 1797   5.423   0.904   3.145 -0.6517 -0.0468 -0.1241
  503SOL    HW1 1798   5.328   0.880   3.126 -0.9836 -0.2879  1.6281
  503SOL    HW2 1799   5.448   0.869   3.236  0.8002  0.8894 -0.1343
  504SOL     OW 1800   0.089   1.499   5.118 -0.7813  0.5429 -0.2461
  504SOL    HW1 1801   0.093   1.492   5.018  1.2587 -0.3419 -0.1505
  504SOL    HW2 1802   0.039   1.421   5.155  2.5439 -1.8103 -0.3938
  505SOL     OW 1803   1.770   3.224   5.218 -0.3310  0.0207 -0.2196
  505SOL    HW1 1804   1.837   3.221   5.144  0.4930 -0.7547  0.5357
  505SOL    HW2 1805   1.742   3.319   5.234 -1.0605  0.1375 -1.9635
  506SOL     OW 1806   1.099   4.585   0.628  0.0600 -0.0747 -0.3238
  506SOL    HW1 1807   1.019   4.628   0.585 -1.2155 -0.3837  1.6360
  506SOL    HW2 1808   1.167   4.565   0.557 -1.2022  0.9859 -1.9338
  507SOL     OW 1809   2.096   1.790   3.378 -0.1242 -0.0036  0.2602
  507SOL    HW1 1810   2.189   1.826   3.392 -0.2724  0.6238 -0.3176
  507SOL    HW2 1811   2.088   1.754   3.285 -0.4862  0.0002  0.2892
  508SOL     OW 1812   0.040   3.225   3.800 -0.1106 -0.9711  0.0963
  508SOL    HW1 1813   0.045   3.147   3.738 -1.1328 -0.6547 -0.3914
  508SOL    HW2 1814  -0.033   3.211   3.866  0.2789 -0.8169  0.5702
  509SOL     OW 1815   2.667   1.210   4.571 -0.2732 -0.6764 -0.3487
  509SOL    HW1 1816   2.692   1.215   4.474  1.9901 -1.7704  0.1072
  509SOL    HW2 1817   2.644   1.115   4.594 -0.0207 -0.5658  0.3634
  510SOL     OW 1818   1.231   1.320   2.125  0.1878 -0.7146 -0.5207
  510SOL    HW1 1819   1.281   1.379   2.189  0.4524  0.4225 -1.7264
  510SOL    HW2 1820   1.292   1.248   2.091  0.1131 -1.1768  0.3062
  511SOL     OW 1821   4.717   1.910   5.069 -0.5156  0.5563  0.1368
  511SOL    HW1 1822   4.620   1.931   5.082 -0.9055 -1.6217  1.3117
  511SOL    HW2 1823   4.727   1.817   5.036  1.1750  1.2399 -1.4710
  512SOL     OW 1824   0.777   3.933   5.012 -0.3726 -0.0003  0.1106
  512SOL    HW1 1825   0.710   3.861   5.025 -1.4490  1.1075  0.9717
  512SOL    HW2 1826   0.783   3.957   4.915 -1.3565  0.0082  0.0431
  513SOL     OW 1827   2.805   5.525   5.838  0.0150 -0.6854 -0.6704
  513SOL    HW1 1828   2.733   5.487   5.781 -2.1765  2.4388 -0.2375
  513SOL    HW2 1829   2.823   5.620   5.811 -0.1355  0.4789  2.8153
  514SOL     OW 1830   1.212   5.361   2.565  0.7982 -0.0819 -0.3821
  514SOL    HW1 1831   1.286   5.366   2.633  0.7385 -0.0798 -0.3171
  514SOL    HW2 1832   1.125   5.348   2.612  0.6428  0.8497 -0.4004
  515SOL     OW 1833   1.265   0.961   2.770  0.6523  0.1773  0.2013
  515SOL    HW1 1834   1.364   0.969   2.780  0.6853 -1.1224  1.2079
  515SOL    HW2 1835   1.244   0.902   2.692  0.7759 -1.5161  1.3813
  516SOL     OW 1836   0.417   2.113   3.545  0.2204 -0.7514 -0.4595
  516SOL    HW1 1837   0.465   2.200   3.556 -0.9448  0.0831 -1.8065
  516SOL    HW2 1838   0.368   2.112   3.459 -4.1575 -0.5966  1.7695
  517SOL     OW 1839   1.297   0.627   3.608 -0.2233 -0.3168 -0.1788
  517SOL    HW1 1840   1.211   0.655   3.652 -0.9853 -0.1270 -1.7294
  517SOL    HW2 1841   1.367   0.615   3.678 -1.5275 -0.5656  1.1406
  518SOL     OW 1842   0.410   0.880   4.670 -0.0153  0.1276 -0.4472
  518SOL    HW1 1843   0.440   0.836   4.754 -1.7819  0.8920  0.6370
  518SOL    HW2 1844   0.333   0.830   4.631  1.2371 -0.6429 -2.0571
  519SOL     OW 1845   2.003   5.040   4.861  0.0895  0.0012  0.7156
  519SOL    HW1 1846   2.089   5.026   4.812 -1.0912 -0.1006 -1.4363
  519SOL    HW2 1847   1.945   4.959   4.850 -1.1838  0.9655  0.1822
  520SOL     OW 1848   5.797   5.272   3.971  0.1299  0.4242  0.1867
  520SOL    HW1 1849   5.768   5.351   3.917  0.4094  1.2296  1.1819
  520SOL    HW2 1850   5.860   5.217   3.917  2.8313  2.8272  0.6313
  521SOL     OW 1851   2.911   0.664   3.003 -0.1521 -0.5006 -0.1700
  521SOL    HW1 1852   2.922   0.763   2.988 -0.4074 -0.3186  0.8026
  521SOL    HW2 1853   2.831   0.632   2.951 -0.3089 -0.1224 -0.1687
  522SOL     OW 1854   1.081   0.017   4.600  0.4074 -0.6423 -0.2568
  522SOL    HW1 1855   1.046  -0.073   4.577 -1.5603  0.2595 -0.9697
  522SOL    HW2 1856   1.009   0.071   4.645  1.8572  0.2431  1.1433
  523SOL     OW 1857   5.920   4.673   5.212  0.1063 -0.4957 -0.3304
  523SOL    HW1 1858   5.824   4.696   5.233 -0.7889 -0.8035 -3.5274
  523SOL    HW2 1859   5.979   4.744   5.250 -1.4758  0.4036  0.6151
  524SOL     OW 1860   5.788   1.900   5.010  0.6290 -0.0340 -0.3668
  524SOL    HW1 1861   5.723   1.856   5.071 -2.1557  0.4751 -2.7658
  524SOL    HW2 1862   5.832   1.831   4.952  0.3035 -0.1555 -0.4705
  525SOL     OW 1863   1.847   1.720   5.496 -0.0558 -0.0045 -0.6473
  525SOL    HW1 1864   1.886   1.636   5.458 -2.3082 -1.5225  0.1721
  525SOL    HW2 1865   1.919   1.773   5.541  1.0748 -2.8344  1.1681
  526SOL     OW 1866   0.248   1.444   5.322  0.2741  0.2844  0.4121
  526SOL    HW1 1867   0.186   1.486   5.255 -0.7922  0.1559  1.2816
  526SOL    HW2 1868   0.231   1.346   5.326  1.0845  0.1248  0.1147
  527SOL     OW 1869   1.511   5.441   5.120  0.7551 -0.0723  0.3495
  527SOL    HW1 1870   1.472   5.363   5.072  0.4628 -0.3149  0.9696
  527SOL    HW2 1871   1.467   5.451   5.209  0.7873  0.7982  0.2813
  528SOL     OW 1872   2.915   1.745   4.548 -0.1275  0.1065  0.0671
  528SOL    HW1 1873   2.921   1.672   4.615  1.8148  0.5217  0.4191
  528SOL    HW2 1874   2.889   1.707   4.459  1.0163 -1.0520  0.2020
  529SOL     OW 1875   0.837   5.715   5.415 -0.2660 -0.5416  0.2513
  529SOL    HW1 1876   0.868   5.637   5.469  0.4320 -1.3018 -1.1778
  529SOL    HW2 1877   0.775   5.683   5.343  0.2535  0.1782 -0.5327
  530SOL     OW 1878   2.066   2.584   5.150 -0.0072  0.3124 -0.2593
  530SOL    HW1 1879   2.078   2.487   5.167 -3.4000 -0.1810  0.0553
  530SOL    HW2 1880   2.019   2.597   5.063  0.6962  1.7308 -0.4673
  531SOL     OW 1881   0.942   0.905   3.574 -0.1834  0.6933 -0.7003
  531SOL    HW1 1882   0.873   0.840   3.544 -0.1592 -0.0636  0.7486
  531SOL    HW2 1883   0.907   0.998   3.566 -0.9585  0.3813 -0.9968
  532SOL     OW 1884   0.380   3.950   5.557 -0.5682  0.2537 -0.0611
  532SOL    HW1 1885   0.371   3.882   5.484 -0.1348 -0.9435  0.9596
  532SOL    HW2 1886   0.427   3.908   5.635 -1.1915  1.4493  0.9815
  533SOL     OW 1887   1.160   2.187   0.658  0.4123 -0.2189 -0.0524
  533SOL    HW1 1888   1.173   2.089   0.667 -0.7143 -0.4393 -0.6454
  533SOL    HW2 1889   1.171   2.231   0.748 -0.4235 -1.0568  0.4740
  534SOL     OW 1890   0.727   4.993   4.778 -0.2423  0.0268  0.3095
  534SOL    HW1 1891   0.746   4.937   4.858 -0.8465  0.7426  0.9752
  534SOL    HW2 1892   0.629   4.989   4.757  0.0033 -0.6462 -0.7787
  535SOL     OW 1893   2.352   1.075   3.784 -0.4059 -0.7052 -0.0177
  535SOL    HW1 1894   2.451   1.068   3.801  0.0728  1.1333 -1.6385
  535SOL    HW2 1895   2.311   0.985   3.788  1.6941 -1.7913 -1.2565
  536SOL     OW 1896   1.759   0.433   4.720 -0.4122 -0.9428 -0.2180
  536SOL    HW1 1897   1.763   0.342   4.760 -1.8939 -0.4743  1.1098
  536SOL    HW2 1898   1.694   0.434   4.644  0.1394 -1.1443 -0.6976
  537SOL     OW 1899   1.472   3.038   5.245  0.1245 -0.3844 -0.3029
  537SOL    HW1 1900   1.559   3.013   5.289 -0.5449  0.0944  1.3314
  537SOL    HW2 1901   1.410   3.077   5.312 -0.5717  1.3627 -1.8884
  538SOL     OW 1902   2.641   5.492   2.230 -0.0741  0.4001  0.0450
  538SOL    HW1 1903   2.582   5.566   2.200  1.2659  2.0909  1.3591
  538SOL    HW2 1904   2.666   5.506   2.326  1.8656 -0.6202 -0.2586
  539SOL     OW 1905   0.545   1.338   4.049 -0.5634 -0.4692  0.5752
  539SOL    HW1 1906   0.632   1.361   4.006 -0.4595 -0.3271  0.8629
  539SOL    HW2 1907   0.474   1.335   3.979 -0.0292 -2.2703  0.0467
  540SOL     OW 1908   2.405   1.834   5.221  0.1171  0.3558 -0.3755
  540SOL    HW1 1909   2.451   1.789   5.144  0.5633 -1.5857  0.9602
  540SOL    HW2 1910   2.473   1.875   5.282  0.1358 -1.8925  1.2243
  541SOL     OW 1911   2.386   1.203   5.423 -0.4077 -0.2705  0.2809
  541SOL    HW1 1912   2.336   1.121   5.396 -0.4598 -0.0626 -0.2632
  541SOL    HW2 1913   2.348   1.238   5.509 -1.1685 -0.1331 -0.1072
  542SOL     OW 1914   4.703   2.233   5.433 -0.0158 -0.2680 -0.1211
  542SOL    HW1 1915   4.769   2.252   5.361  0.5783 -1.1048  0.1918
  542SOL    HW2 1916   4.685   2.317   5.485  0.5867  0.0217 -0.3743
  543SOL     OW 1917   0.622   5.613   1.005 -0.3886 -0.3686 -0.0297
  543SOL    HW1 1918   0.571   5.603   0.920 -0.5526  3.8640 -0.6272
  543SOL    HW2 1919   0.561   5.646   1.077  0.6203  0.6621  0.3907
  544SOL     OW 1920   0.333   0.970   5.446 -0.1958  0.1397 -0.2834
  544SOL    HW1 1921   0.309   0.889   5.500 -1.6984  0.0321 -1.0446
  544SOL    HW2 1922   0.384   0.942   5.365  1.8530  0.2785  0.9018
  545SOL     OW 1923   1.341   4.786   5.681 -0.3089 -0.3910 -0.1668
  545SOL    HW1 1924   1.421   4.809   5.736  0.2395  1.2366 -1.5834
  545SOL    HW2 1925   1.368   4.730   5.603 -0.7671 -0.9223  0.0449
  546SOL     OW 1926   5.611   0.840   1.513  0.3589 -0.2242 -0.1069
  546SOL    HW1 1927   5.569   0.924   1.547 -0.2541  0.0053 -1.3769
  546SOL    HW2 1928   5.710   0.853   1.506  0.1912  0.6755 -1.0284
  547SOL     OW 1929   1.751   4.179   2.876 -0.7266 -0.0606 -0.0915
  547SOL    HW1 1930   1.771   4.262   2.824 -1.9399 -0.1968 -0.8071
  547SOL    HW2 1931   1.756   4.198   2.974  1.2311  0.2906 -0.2150
  548SOL     OW 1932   0.372   1.822   5.268  0.0970 -0.1481 -0.0762
  548SOL    HW1 1933   0.470   1.811   5.252  0.6209  1.1071  1.8967
  548SOL    HW2 1934   0.355   1.831   5.366 -1.8225  1.1285 -0.4659
  549SOL     OW 1935   2.271   4.751   4.279  0.2284  0.3872 -0.0887
  549SOL    HW1 1936   2.213   4.691   4.224  1.5694 -0.4375 -0.6529
  549SOL    HW2 1937   2.341   4.697   4.326  1.6902  1.4902 -0.8860
  550SOL     OW 1938   0.890   2.116   3.800  0.0816 -0.0439  0.1663
  550SOL    HW1 1939   0.975   2.129   3.851  1.0955 -1.6005 -1.0616
  550SOL    HW2 1940   0.906   2.058   3.721 -2.5202 -2.0305  0.9452
  551SOL     OW 1941   1.958   1.000   2.851 -0.4440 -0.3514 -0.2986
  551SOL    HW1 1942   1.996   1.074   2.795 -0.2018  0.6904  1.1664
  551SOL    HW2 1943   2.022   0.979   2.925 -1.4533 -0.5488  0.5412
  552SOL     OW 1944   0.680   0.561   4.994  0.3723 -0.0745  0.4151
  552SOL    HW1 1945   0.726   0.600   4.915  1.0444  0.9184  1.2650
  552SOL    HW2 1946   0.694   0.462   4.996  2.9209  0.2235  0.8717
  553SOL     OW 1947   2.148   0.617   4.247  0.2641 -0.2488 -0.1039
  553SOL    HW1 1948   2.057   0.658   4.258  0.3222  0.2754 -1.3783
  553SOL    HW2 1949   2.149   0.562   4.163  1.5093  0.9335 -0.9114
  554SOL     OW 1950   3.799   0.761   5.076  0.5922  0.1634  0.2568
  554SOL    HW1 1951   3.890   0.802   5.072  1.1532 -1.0713 -0.2224
  554SOL    HW2 1952   3.786   0.716   5.164 -0.1984  1.7012  0.9635
  555SOL     OW 1953   1.586   5.395   4.370 -0.2595  0.0214 -0.1325
  555SOL    HW1 1954   1.635   5.464   4.424  0.1102 -0.2129 -0.1594
  555SOL    HW2 1955   1.579   5.426   4.275 -0.0477 -0.0009 -0.1557
  556SOL     OW 1956   1.552   0.856   5.228 -0.3004  1.2097  0.1571
  556SOL    HW1 1957   1.585   0.886   5.139 -1.0492  0.7452 -0.2855
  556SOL    HW2 1958   1.464   0.900   5.248 -0.9954 -0.0144 -0.1270
  557SOL     OW 1959   1.101   0.772   5.467  0.3502  0.2911 -0.0653
  557SOL    HW1 1960   1.146   0.740   5.383 -0.2095 -1.3437  0.2169
  557SOL    HW2 1961   1.121   0.709   5.541  0.2354  1.3295  0.8668
  558SOL     OW 1962   1.823   5.679   4.045 -0.0528  0.2888 -0.2047
  558SOL    HW1 1963   1.805   5.774   4.018  1.0622  0.1584 -1.5656
  558SOL    HW2 1964   1.813   5.620   3.965  2.2932 -0.2979 -0.1402
  559SOL     OW 1965   1.519   3.630   0.034 -0.6091 -0.6217 -0.7509
  559SOL    HW1 1966   1.441   3.580  -0.003 -1.0764 -0.3271 -0.1811
  559SOL    HW2 1967   1.497   3.663   0.126  0.2154 -0.5996 -0.5541
  560SOL     OW 1968   1.060   5.539   5.815  0.4376 -0.3764  0.5906
  560SOL    HW1 1969   1.134   5.494   5.864  0.4309 -1.1202 -0.0626
  560SOL    HW2 1970   1.005   5.592   5.879  2.7525  1.9671  0.8492
  561SOL     OW 1971   2.622   1.260   3.629 -0.5269 -0.5664  0.0921
  561SOL    HW1 1972   2.644   1.214   3.543 -1.6016  0.5050 -0.7961
  561SOL    HW2 1973   2.528   1.237   3.655 -0.0834 -1.1802  1.1987
  562SOL     OW 1974   2.697   0.298   5.850 -0.4617 -0.2156 -0.8423
  562SOL    HW1 1975   2.696   0.372   5.783 -0.6064 -0.2898 -0.9208
  562SOL    HW2 1976   2.753   0.326   5.929 -1.3244  0.3673 -0.4258
  563SOL     OW 1977   1.410   5.572   2.285 -0.0206  0.2416  0.2902
  563SOL    HW1 1978   1.407   5.662   2.330 -0.4476  1.2293 -1.6124
  563SOL    HW2 1979   1.504   5.537   2.287  0.3190  1.1231  0.3396
  564SOL     OW 1980   0.611   1.758   1.296  0.5814 -0.3493  0.3028
  564SOL    HW1 1981   0.583   1.672   1.252 -1.9813  0.0388  0.9698
  564SOL    HW2 1982   0.641   1.822   1.226  1.0090 -1.2629 -0.3793
  565SOL     OW 1983   4.897   2.122   5.040  0.4394  0.1203 -0.6181
  565SOL    HW1 1984   4.838   2.044   5.062  0.7549 -0.1436 -0.7048
  565SOL    HW2 1985   4.875   2.154   4.948  1.2823 -0.7750 -1.1546
  566SOL     OW 1986   1.633   4.518   5.263  0.1490 -0.6525 -0.2804
  566SOL    HW1 1987   1.543   4.561   5.265  1.1329  1.7342  3.7216
  566SOL    HW2 1988   1.702   4.587   5.242  1.3162 -1.8120 -0.3413
  567SOL     OW 1989   2.223   5.572  -0.003  0.0273 -0.0075  0.4047
  567SOL    HW1 1990   2.303   5.541   0.049  0.0626 -2.3593 -0.9327
  567SOL    HW2 1991   2.223   5.672  -0.007  1.4088  0.1516  2.6838
  568SOL     OW 1992   0.321   0.724   3.244 -0.1829 -0.2171 -0.3119
  568SOL    HW1 1993   0.306   0.774   3.159  2.6470  1.4040  0.0041
  568SOL    HW2 1994   0.408   0.675   3.238 -0.4038 -0.8499  1.2970
  569SOL     OW 1995   1.606   0.913   4.931  0.0186 -0.1158  0.0820
  569SOL    HW1 1996   1.679   0.915   4.863 -0.4842 -0.3728 -0.4648
  569SOL    HW2 1997   1.569   1.005   4.944 -1.6380 -0.4413 -1.9065
  570SOL     OW 1998   0.727   0.275   4.588 -0.5589  0.2539 -0.1766
  570SOL    HW1 1999   0.801   0.301   4.649 -1.3108 -0.7402  1.2075
  570SOL    HW2 2000   0.671   0.204   4.631 -0.6480 -1.0832 -2.3412
  571SOL     OW 2001   1.123   1.873   1.763 -0.3690 -0.0821 -0.9008
  571SOL    HW1 2002   1.089   1.966   1.744  2.7861  1.2942 -0.3889
  571SOL    HW2 2003   1.147   1.866   1.860  1.2000 -0.7650 -1.3104
  572SOL     OW 2004   2.028   1.618   3.592 -0.0628 -0.1045 -0.1522
  572SOL    HW1 2005   2.016   1.670   3.507 -2.7718 -0.6042 -0.1452
  572SOL    HW2 2006   2.098   1.663   3.648  2.7392 -0.4225 -3.0715
  573SOL     OW 2007   0.950   0.739   5.037  0.2994  0.3962 -0.3491
  573SOL    HW1 2008   0.899   0.674   4.980 -0.6475  0.4368  0.4288
  573SOL    HW2 2009   1.048   0.718   5.031  0.0361 -0.9502 -0.3057
  574SOL     OW 2010   2.552   0.521   3.264 -0.3044 -0.1596 -0.2595
  574SOL    HW1 2011   2.556   0.476   3.175 -1.0373 -1.1421  0.1842
  574SOL    HW2 2012   2.496   0.466   3.327  0.9011  0.0500  1.0624
  575SOL     OW 2013   1.194   0.052   5.770  0.0758  0.1396  0.3632
  575SOL    HW1 2014   1.137   0.029   5.691  1.0472  0.0758 -0.3309
  575SOL    HW2 2015   1.147   0.121   5.824 -0.9652 -0.3965  0.1764
  576SOL     OW 2016   1.151   0.367   4.857 -0.0363  0.3897  0.1083
  576SOL    HW1 2017   1.197   0.444   4.813 -0.5342  1.2441  1.0332
  576SOL    HW2 2018   1.196   0.281   4.831 -0.3622  0.8351 -2.1038
  577SOL     OW 2019   0.122   1.946   4.440 -0.3494 -0.1524 -0.1821
  577SOL    HW1 2020   0.077   1.863   4.406 -1.1848  0.1091  0.2719
  577SOL    HW2 2021   0.084   1.972   4.528  0.5542  0.2011  0.1207
  578SOL     OW 2022   0.814   5.067   5.321 -0.5482 -0.0570 -0.7306
  578SOL    HW1 2023   0.893   5.063   5.259 -0.5784 -0.5232 -0.7435
  578SOL    HW2 2024   0.841   5.032   5.411 -0.1331  1.8772 -0.0692
  579SOL     OW 2025   0.062   1.068   5.591  0.3485 -0.2866 -0.7977
  579SOL    HW1 2026   0.051   1.150   5.647 -2.5223 -0.6528 -0.6748
  579SOL    HW2 2027   0.139   1.082   5.528  0.9043  1.8649  0.2291
  580SOL     OW 2028   1.919   0.381   3.274 -0.1579  0.3395  0.2880
  580SOL    HW1 2029   1.891   0.475   3.289  0.1991  0.5896 -0.5683
  580SOL    HW2 2030   1.867   0.342   3.197  1.8795  0.8721 -1.4543
  581SOL     OW 2031   0.888   2.248   5.109  1.1414 -0.0556 -0.0421
  581SOL    HW1 2032   0.937   2.169   5.072  0.9142 -0.3802  0.3525
  581SOL    HW2 2033   0.900   2.326   5.047  0.4917 -0.6756 -0.9668
  582SOL     OW 2034   1.178   1.777   4.581  0.4313 -0.1366  0.7385
  582SOL    HW1 2035   1.194   1.875   4.588  0.0562 -0.0814  0.8236
  582SOL    HW2 2036   1.080   1.758   4.581  0.4926 -0.6225  2.3291
  583SOL     OW 2037   0.440   0.274   4.949  0.1251 -0.5142  0.4229
  583SOL    HW1 2038   0.388   0.278   5.035 -0.3459 -1.3986  0.1879
  583SOL    HW2 2039   0.378   0.268   4.872  0.5486 -2.2252  0.1706
  584SOL     OW 2040   0.384   2.220   5.446  0.6866  0.3446  0.1772
  584SOL    HW1 2041   0.393   2.181   5.538  0.4386 -0.1589 -0.0096
  584SOL    HW2 2042   0.319   2.165   5.393  0.9412  0.5493 -0.3456
  585SOL     OW 2043   1.437   1.788   5.097  0.6471 -0.2469 -0.7364
  585SOL    HW1 2044   1.448   1.788   5.197 -1.0112  2.4002 -0.4641
  585SOL    HW2 2045   1.525   1.808   5.054  1.4283 -1.6205  0.1353
  586SOL     OW 2046   5.057   1.709   3.930  0.6084  0.0960  0.3218
  586SOL    HW1 2047   5.037   1.697   4.027  1.8705  0.2594  0.6119
  586SOL    HW2 2048   5.056   1.806   3.907  1.4851  0.1379  0.4397
  587SOL     OW 2049   1.251   1.589   5.004  0.7263  0.9827  0.2976
  587SOL    HW1 2050   1.247   1.555   4.910  0.0975 -0.6514  0.8826
  587SOL    HW2 2051   1.339   1.633   5.019  1.4821 -0.1568 -0.5934
  588SOL     OW 2052   0.365   4.929   5.221 -0.6606  0.4609 -0.1716
  588SOL    HW1 2053   0.345   5.027   5.215 -3.1823  0.1563  1.4380
  588SOL    HW2 2054   0.458   4.916   5.255 -0.9729  2.3977  1.6905
  589SOL     OW 2055   1.876   0.189   4.862  0.2266 -0.5838 -0.1900
  589SOL    HW1 2056   1.925   0.110   4.896  0.6531 -1.4714 -2.6972
  589SOL    HW2 2057   1.883   0.264   4.928  2.0264 -1.7782  1.0460
  590SOL     OW 2058   4.741   2.699  -0.031  0.2012  1.0390  0.3775
  590SOL    HW1 2059   4.657   2.722   0.018  0.2922 -0.8071  1.5190
  590SOL    HW2 2060   4.819   2.713   0.030  0.5743  1.2599 -0.1503
  591SOL     OW 2061   5.505   5.760   5.220 -0.3056  0.1449  0.6692
  591SOL    HW1 2062   5.506   5.859   5.205  4.1623  0.1465 -0.1841
  591SOL    HW2 2063   5.500   5.742   5.318 -1.9770  1.0942  0.8101
  592SOL     OW 2064   1.285   2.937   5.079 -0.8594  0.5428  0.6557
  592SOL    HW1 2065   1.212   2.931   5.147 -0.3978  0.7088  1.1758
  592SOL    HW2 2066   1.365   2.980   5.120 -0.2450 -0.2200  0.2870
  593SOL     OW 2067   5.490   5.289   2.297 -0.4785  0.0641 -0.1869
  593SOL    HW1 2068   5.398   5.298   2.335 -0.4025  0.4472 -0.0939
  593SOL    HW2 2069   5.545   5.369   2.321  0.0604 -0.4255  0.2577
  594SOL     OW 2070   0.920   1.313   1.154  0.0964 -0.3472  0.7731
  594SOL    HW1 2071   0.998   1.368   1.121  0.6530 -1.5368  0.0342
  594SOL    HW2 2072   0.893   1.249   1.082 -2.1551  0.6234  0.6903
  595SOL     OW 2073   1.784   5.386   0.675 -0.2206  0.5761 -0.1167
  595SOL    HW1 2074   1.874   5.371   0.716  0.4661  1.9833 -1.0079
  595SOL    HW2 2075   1.716   5.329   0.720  0.9680  0.1300  1.1604
  596SOL     OW 2076   2.819   5.759   3.961  0.0597  0.2107 -0.4578
  596SOL    HW1 2077   2.857   5.681   4.012 -0.5989  0.0217 -0.2456
  596SOL    HW2 2078   2.721   5.746   3.949 -0.1456  1.2433 -0.0003
  597SOL     OW 2079   5.474   0.531   3.307 -0.6498 -0.5475 -0.1732
  597SOL    HW1 2080   5.378   0.556   3.306 -0.6080 -0.3077  0.7156
  597SOL    HW2 2081   5.512   0.539   3.215 -1.5115 -0.8066 -0.5609
  598SOL     OW 2082   1.511   0.335   3.491  0.2104 -0.2207  0.7494
  598SOL    HW1 2083   1.520   0.432   3.471  0.6595 -0.2105  0.9997
  598SOL    HW2 2084   1.415   0.307   3.478  0.2379  0.0725 -0.1160
  599SOL     OW 2085   5.781   0.408   0.843 -0.6340  0.2157 -0.6187
  599SOL    HW1 2086   5.699   0.399   0.900 -0.1933  0.3546  0.0476
  599SOL    HW2 2087   5.862   0.382   0.896 -0.0127  1.9956 -0.6223
  600SOL     OW 2088   4.808   1.750   3.468 -0.1062  0.0972  0.2345
  600SOL    HW1 2089   4.756   1.782   3.546  2.0210 -0.2195  1.8743
  600SOL    HW2 2090   4.811   1.650   3.469  1.2079  0.1243  0.6791
  601SOL     OW 2091   3.158   2.441   4.525 -0.7334 -0.3942  0.0311
  601SOL    HW1 2092   3.100   2.513   4.563  0.0433 -0.8407  2.2422
  601SOL    HW2 2093   3.254   2.462   4.545 -0.1857 -0.4065 -2.2653
  602SOL     OW 2094   3.119   1.276   5.338  0.6415 -0.2113  0.7916
  602SOL    HW1 2095   3.195   1.274   5.273 -0.5255 -0.1870 -0.6127
  602SOL    HW2 2096   3.032   1.282   5.289 -0.2359  1.1832  2.3988
  603SOL     OW 2097   1.598   1.678   5.829 -0.6880  0.1806 -0.4774
  603SOL    HW1 2098   1.499   1.661   5.832 -0.5027 -0.8246  0.7394
  603SOL    HW2 2099   1.615   1.768   5.789 -2.0432  0.0412 -1.4612
  604SOL     OW 2100   1.489   0.379   1.144  0.1776 -0.0514  0.0977
  604SOL    HW1 2101   1.438   0.464   1.135 -0.3747 -0.5308 -1.5616
  604SOL    HW2 2102   1.431   0.302   1.119  0.9515 -0.8525  0.6839
  605SOL     OW 2103   5.596   2.619   2.184 -0.4029 -0.7295  0.2862
  605SOL    HW1 2104   5.690   2.647   2.162 -0.8292  0.3921 -0.1761
  605SOL    HW2 2105   5.592   2.519   2.190  0.2372 -1.0472 -2.6928
  606SOL     OW 2106   0.645   2.490   2.728  0.1159  0.2830  0.0591
  606SOL    HW1 2107   0.647   2.570   2.788 -0.2866  1.6106 -1.6380
  606SOL    HW2 2108   0.737   2.474   2.690  0.2389 -0.1959  0.5423
  607SOL     OW 2109   0.576   1.727   5.623 -0.1777  0.3234 -0.5855
  607SOL    HW1 2110   0.614   1.668   5.553  1.0208  2.4055 -1.8018
  607SOL    HW2 2111   0.491   1.767   5.590 -0.5043 -0.0005 -0.1448
  608SOL     OW 2112   1.664   5.503   0.119  0.5963 -0.1010 -0.4178
  608SOL    HW1 2113   1.595   5.575   0.115  0.3396 -0.3771 -1.1571
  608SOL    HW2 2114   1.747   5.534   0.071  1.1584  0.3892  0.8130
  609SOL     OW 2115   4.887   0.391   3.300  0.5869 -0.1825  0.6488
  609SOL    HW1 2116   4.826   0.459   3.341  0.1483 -1.3611  2.0399
  609SOL    HW2 2117   4.849   0.361   3.212 -0.2973 -0.1363  1.0027
  610SOL     OW 2118   0.949   1.575   4.075 -0.9046 -0.0160  0.2476
  610SOL    HW1 2119   1.010   1.633   4.129 -0.0256 -0.3895 -0.3374
  610SOL    HW2 2120   0.854   1.606   4.089 -0.5364  0.9992  0.6308
  611SOL     OW 2121   1.659   2.533   5.119  0.3319  0.2816 -0.6062
  611SOL    HW1 2122   1.663   2.525   5.019  0.2494 -0.1157 -0.5772
  611SOL    HW2 2123   1.725   2.470   5.160  1.7732  1.7911 -0.4595
  612SOL     OW 2124   2.757   0.041   4.697  0.1201 -0.0908  0.3678
  612SOL    HW1 2125   2.786  -0.053   4.676  1.2432 -0.0008  1.3856
  612SOL    HW2 2126   2.836   0.102   4.693 -0.4641  0.6821  0.4337
  613SOL     OW 2127   0.046   0.968   3.286 -0.3802  0.1077  0.7495
  613SOL    HW1 2128  -0.010   0.910   3.345 -1.3527  1.7745  1.4923
  613SOL    HW2 2129   0.009   0.967   3.193  0.4816 -1.5944  0.3739
  614SOL     OW 2130   0.732   1.639   5.858 -0.6061 -0.3119 -0.0754
  614SOL    HW1 2131   0.691   1.632   5.949 -0.7091 -1.6394 -0.2125
  614SOL    HW2 2132   0.687   1.713   5.807 -0.5091  0.4772  0.9531
  615SOL     OW 2133   1.586   0.136   4.242 -0.0969 -0.3147 -0.0180
  615SOL    HW1 2134   1.656   0.183   4.189 -0.1080  1.1002  1.1455
  615SOL    HW2 2135   1.619   0.046   4.271  1.1775  0.2643  0.3706
  616SOL     OW 2136   0.205   1.444   4.221  0.4235  0.4729 -0.3590
  616SOL    HW1 2137   0.113   1.470   4.193 -0.1749 -1.4041 -0.2872
  616SOL    HW2 2138   0.268   1.454   4.144 -0.1590  0.2996 -0.8676
  617SOL     OW 2139   1.418   0.461   0.710 -0.2541  0.3865  0.6697
  617SOL    HW1 2140   1.410   0.470   0.611 -0.7250 -0.4357  0.6295
  617SOL    HW2 2141   1.495   0.516   0.742  0.0623  0.4537 -0.1805
  618SOL     OW 2142   0.560   0.128   2.004  0.0092 -0.4026 -0.3862
  618SOL    HW1 2143   0.615   0.154   2.083  2.1050 -3.1539 -0.8016
  618SOL    HW2 2144   0.593   0.177   1.923  2.3757 -2.4410 -0.7404
  619SOL     OW 2145   1.378   5.817   5.095  0.2410  0.3090 -0.7229
  619SOL    HW1 2146   1.454   5.881   5.104  1.0814 -0.6050 -1.1824
  619SOL    HW2 2147   1.390   5.761   5.014  0.2925 -1.4144  0.4184
  620SOL     OW 2148   1.198   1.192   5.601  0.2891 -0.7970 -1.0445
  620SOL    HW1 2149   1.149   1.105   5.593 -1.5826  0.2027 -1.0419
  620SOL    HW2 2150   1.141   1.265   5.565  0.9968  0.7094  0.7218
  621SOL     OW 2151   0.130   0.923   5.171  0.0243  0.0763 -0.3567
  621SOL    HW1 2152   0.228   0.902   5.177  0.2368  1.1205  0.0475
  621SOL    HW2 2153   0.106   0.941   5.075  0.2978  0.1255 -0.4177
  622SOL     OW 2154   5.557   2.376   4.633  0.2307 -0.2666 -0.2028
  622SOL    HW1 2155   5.591   2.298   4.580 -3.5120 -0.9753 -1.8268
  622SOL    HW2 2156   5.517   2.344   4.718 -0.6916 -0.0848 -0.5548
  623SOL     OW 2157   1.733   5.158   4.017  0.0490  0.2192  0.0795
  623SOL    HW1 2158   1.639   5.177   3.990 -0.4000  0.8695  1.9588
  623SOL    HW2 2159   1.748   5.190   4.110  2.2361  0.3968 -0.2846
  624SOL     OW 2160   0.526   1.302   4.538  0.2148 -0.4533 -0.3996
  624SOL    HW1 2161   0.553   1.397   4.524  1.1559 -0.4501  1.1203
  624SOL    HW2 2162   0.456   1.297   4.610  1.2323 -0.9776  0.5975
  625SOL     OW 2163   0.702   5.951   2.615 -0.2525 -0.2477  0.0070
  625SOL    HW1 2164   0.775   5.926   2.551 -1.7212 -1.2336 -1.3671
  625SOL    HW2 2165   0.723   5.915   2.706  1.0089 -0.4062 -0.3286
  626SOL     OW 2166   0.271   5.157   4.484 -0.1514 -0.2306  0.0004
  626SOL    HW1 2167   0.321   5.152   4.398  1.1017  0.3191  0.6715
  626SOL    HW2 2168   0.194   5.094   4.481  0.5252 -1.0470 -1.1011
  627SOL     OW 2169   0.876   2.546   0.119 -0.7236 -0.2741  0.0024
  627SOL    HW1 2170   0.861   2.642   0.097  0.7657 -0.2709 -1.1654
  627SOL    HW2 2171   0.851   2.529   0.215 -0.9375  1.2767  0.2432
  628SOL     OW 2172   1.247   0.477   4.114  0.5347 -0.4170  0.3193
  628SOL    HW1 2173   1.276   0.561   4.069  0.8328 -0.9106 -0.4176
  628SOL    HW2 2174   1.147   0.469   4.108  0.6335 -0.8490 -0.9210
  629SOL     OW 2175   0.311   0.106   3.548  0.7304  0.0505 -0.7313
  629SOL    HW1 2176   0.407   0.107   3.522  0.9939  1.0803  0.1706
  629SOL    HW2 2177   0.258   0.160   3.483  0.8595 -0.0153 -0.8907
  630SOL     OW 2178   0.891   1.306   4.202 -0.3797  0.5958 -0.1267
  630SOL    HW1 2179   0.893   1.374   4.128  1.4786  0.3269 -0.3621
  630SOL    HW2 2180   0.857   1.219   4.166  0.6588  0.4236 -0.7177
  631SOL     OW 2181   5.784   3.228   4.734  0.3189 -0.0865 -0.7634
  631SOL    HW1 2182   5.875   3.248   4.698 -0.1994  2.6323 -0.7831
  631SOL    HW2 2183   5.785   3.236   4.834  0.0956  0.0044 -0.7675
  632SOL     OW 2184   0.217   1.938   4.142  0.4882  0.3029 -0.4956
  632SOL    HW1 2185   0.312   1.953   4.116  0.4092  0.3514 -0.7623
  632SOL    HW2 2186   0.208   1.944   4.242  1.0579 -1.3532 -0.3149
  633SOL     OW 2187   1.155   5.668   4.266 -0.2712  0.1114 -0.2059
  633SOL    HW1 2188   1.116   5.760   4.264 -0.1224  0.1803  0.0600
  633SOL    HW2 2189   1.253   5.673   4.280 -0.6338 -0.1719  3.1083
  634SOL     OW 2190   0.604   5.704   4.577  0.1341  0.7958 -0.0849
  634SOL    HW1 2191   0.626   5.736   4.484 -0.9215 -0.6808 -0.8861
  634SOL    HW2 2192   0.522   5.647   4.573 -0.3588  1.3088  1.8922
  635SOL     OW 2193   1.994   5.940   5.017 -0.1260 -0.1493 -0.4760
  635SOL    HW1 2194   1.916   5.882   5.039 -1.3309  2.4553  2.9888
  635SOL    HW2 2195   2.077   5.902   5.060 -0.8253  0.3439  1.4252
  636SOL     OW 2196   2.386   1.858   5.593 -0.4866  0.0404 -0.2620
  636SOL    HW1 2197   2.357   1.844   5.688  1.6692  1.0349  0.6107
  636SOL    HW2 2198   2.428   1.775   5.558 -0.7252 -0.1361 -0.1300
  637SOL     OW 2199   5.320   1.651   3.825  0.1570  0.1215 -0.8549
  637SOL    HW1 2200   5.352   1.565   3.786  1.0636  0.3152 -0.5584
  637SOL    HW2 2201   5.228   1.639   3.862  0.7468 -1.0552  0.2909
  638SOL     OW 2202   1.254   2.109   3.614  0.4420  0.0390 -0.1606
  638SOL    HW1 2203   1.290   2.021   3.582 -0.4799 -0.8131  1.0274
  638SOL    HW2 2204   1.157   2.099   3.638  0.4598  1.2383  0.5221
  639SOL     OW 2205   2.717   1.334   3.149  0.0230  0.1127 -0.3943
  639SOL    HW1 2206   2.754   1.245   3.124 -0.4978 -0.3104  0.3013
  639SOL    HW2 2207   2.697   1.336   3.247 -1.1667  0.5545 -0.6309
  640SOL     OW 2208   1.548   3.527   4.794 -0.2840 -0.2283  0.3820
  640SOL    HW1 2209   1.478   3.598   4.781  0.9896  0.7352 -1.7805
  640SOL    HW2 2210   1.639   3.566   4.779  0.5466 -2.0321  0.4449
  641SOL     OW 2211   3.678   2.632   4.972  0.6271 -0.6176  0.4635
  641SOL    HW1 2212   3.705   2.685   4.891 -1.2401  0.0675  0.2246
  641SOL    HW2 2213   3.728   2.546   4.974  1.3128 -0.2880 -0.9720
  642SOL     OW 2214   0.770   2.299   5.353  0.4135 -0.3815 -0.0153
  642SOL    HW1 2215   0.822   2.361   5.412  1.6546 -0.9895 -0.4580
  642SOL    HW2 2216   0.802   2.307   5.259 -0.6443 -0.4090 -0.3996
  643SOL     OW 2217   1.747   1.894   5.743 -0.0362 -0.5568  0.3716
  643SOL    HW1 2218   1.793   1.934   5.822  0.4555  0.2924 -0.3184
  643SOL    HW2 2219   1.816   1.860   5.679 -0.3704  0.1156 -0.3633
  644SOL     OW 2220   0.768   1.625   0.344  0.0353  0.4233 -0.4770
  644SOL    HW1 2221   0.670   1.645   0.338 -0.6930 -2.7033 -0.5903
  644SOL    HW2 2222   0.803   1.655   0.433 -0.8579  1.9707 -0.6031
  645SOL     OW 2223   0.558   5.236   5.470 -0.1831  0.5210  0.4884
  645SOL    HW1 2224   0.622   5.294   5.420 -1.1257  1.3554  0.2343
  645SOL    HW2 2225   0.607   5.154   5.503  1.0487  1.2096  0.4512
  646SOL     OW 2226   1.913   0.658   4.818 -0.0736 -0.3115  0.1276
  646SOL    HW1 2227   1.868   0.745   4.795 -1.5912 -1.3006 -0.7879
  646SOL    HW2 2228   1.853   0.582   4.793  1.3824 -1.6491  0.5840
  647SOL     OW 2229   0.271   1.268   3.015  0.0059 -0.1465  0.1882
  647SOL    HW1 2230   0.232   1.215   2.940 -0.1691 -1.3458  1.1021
  647SOL    HW2 2231   0.202   1.282   3.086  0.5673 -0.3052  0.7814
  648SOL     OW 2232   0.802   0.829   5.758 -0.3230 -0.1921 -0.0217
  648SOL    HW1 2233   0.731   0.895   5.779 -1.8094 -0.9993 -2.2158
  648SOL    HW2 2234   0.870   0.871   5.698 -0.7242 -0.3504 -0.5923
  649SOL     OW 2235   5.005   1.052   0.964 -0.1107 -0.0628  0.3107
  649SOL    HW1 2236   4.941   1.041   1.040 -2.0984  1.3889 -1.0739
  649SOL    HW2 2237   4.956   1.085   0.883  2.2552  0.2397 -1.0826
  650SOL     OW 2238   1.997   5.730   3.709  0.5858 -0.3335  0.1478
  650SOL    HW1 2239   2.071   5.676   3.749 -0.4716 -2.1351 -0.1933
  650SOL    HW2 2240   2.023   5.758   3.617  0.9643 -0.7146  0.1334
  651SOL     OW 2241   0.995   3.503   5.794 -0.3451 -0.2600  0.6356
  651SOL    HW1 2242   0.941   3.584   5.770  0.6786  0.1023 -0.5526
  651SOL    HW2 2243   1.029   3.460   5.711 -1.1157 -2.1238  1.2184
  652SOL     OW 2244   1.522   5.914   4.617  0.2366  0.0662 -0.2277
  652SOL    HW1 2245   1.591   5.887   4.684 -0.3896  0.6756  0.6796
  652SOL    HW2 2246   1.542   6.007   4.585 -0.4768  0.4649  0.4659
  653SOL     OW 2247   0.427   3.004   4.326 -0.2247 -0.7127 -0.1863
  653SOL    HW1 2248   0.358   2.947   4.370  0.0243 -1.1020 -0.2903
  653SOL    HW2 2249   0.484   2.948   4.266 -0.8064 -0.1215 -1.3218
  654SOL     OW 2250   1.992   5.059   5.228 -0.2809 -0.3617  0.1482
  654SOL    HW1 2251   1.912   5.075   5.170 -0.4124 -0.0342  0.4087
  654SOL    HW2 2252   2.057   5.134   5.215 -1.0623  0.6472  1.6528
  655SOL     OW 2253   2.530   3.961   4.709 -0.4693 -0.1124  0.0788
  655SOL    HW1 2254   2.486   3.956   4.620  0.1283  0.4588 -0.2588
  655SOL    HW2 2255   2.515   4.052   4.749 -1.2415 -0.5576  0.8330
  656SOL     OW 2256   2.242   0.606   3.381  0.1623  0.0354 -0.0106
  656SOL    HW1 2257   2.208   0.644   3.466  0.4841  0.6468 -0.1525
  656SOL    HW2 2258   2.295   0.523   3.400  1.1950  0.7846  0.5029
  657SOL     OW 2259   0.290   1.498   3.954 -0.4721 -0.8884  0.0466
  657SOL    HW1 2260   0.276   1.427   3.885  2.1266 -0.8879 -0.6009
  657SOL    HW2 2261   0.297   1.587   3.908 -0.4185 -0.6548  0.5042
  658SOL     OW 2262   0.611   0.393   2.830 -0.2124  0.2558 -0.8017
  658SOL    HW1 2263   0.658   0.347   2.906 -0.0102  2.8963  0.7794
  658SOL    HW2 2264   0.529   0.439   2.865 -0.7994  0.5385 -2.4573
  659SOL     OW 2265   5.031   1.429   1.579 -0.0056 -0.3658  0.0026
  659SOL    HW1 2266   5.073   1.508   1.624  1.1452 -0.9392 -0.0253
  659SOL    HW2 2267   4.978   1.460   1.500  1.3915  0.3035 -0.7139
  660SOL     OW 2268   0.914   0.300   4.784  0.5271 -0.0459 -0.3236
  660SOL    HW1 2269   1.007   0.320   4.816 -0.1938  0.3425  1.7031
  660SOL    HW2 2270   0.850   0.314   4.859 -0.9486 -2.3738 -1.0666
  661SOL     OW 2271   4.929   0.402   1.130  0.3815  0.3871 -0.3949
  661SOL    HW1 2272   4.927   0.335   1.055  0.8815  0.8410 -0.8233
  661SOL    HW2 2273   4.835   0.427   1.153  0.2087  2.1465 -2.6362
  662SOL     OW 2274   0.356   5.641   0.401  0.1204  0.5065  0.6927
  662SOL    HW1 2275   0.287   5.591   0.453 -0.3584  1.1089  0.6423
  662SOL    HW2 2276   0.363   5.734   0.435  0.5689  0.5902  0.3807
  663SOL     OW 2277   2.261   2.019   2.421  0.2967 -0.0423 -0.8333
  663SOL    HW1 2278   2.320   2.070   2.358  1.2598 -0.0667  0.0176
  663SOL    HW2 2279   2.248   2.072   2.504 -1.0582  0.0385 -1.0713
  664SOL     OW 2280   4.040   1.299   5.910  0.7495  0.1773 -0.2215
  664SOL    HW1 2281   4.018   1.201   5.915  1.9212 -0.0835  0.5050
  664SOL    HW2 2282   3.991   1.341   5.834  0.1064 -0.9446 -0.4528
  665SOL     OW 2283   5.881   0.767   0.033 -0.2549 -0.0784 -0.5364
  665SOL    HW1 2284   5.968   0.772   0.082 -0.3020 -0.7013 -0.3834
  665SOL    HW2 2285   5.891   0.811  -0.057  0.6800 -1.5134 -1.1690
  666SOL     OW 2286   1.099   1.518   0.588  0.3716  0.2305  0.3063
  666SOL    HW1 2287   1.118   1.421   0.573 -1.4246 -0.5450  2.5011
  666SOL    HW2 2288   1.149   1.550   0.669  1.6066  1.4324 -0.8617
  667SOL     OW 2289   1.013   1.906   5.484  0.1429 -0.2688 -0.4486
  667SOL    HW1 2290   0.966   1.905   5.396  1.8321  2.5701 -1.5315
  667SOL    HW2 2291   1.041   2.000   5.506 -0.2585 -0.8424  3.1994
  668SOL     OW 2292   5.424   1.418   0.225 -0.1116 -0.2730  0.5713
  668SOL    HW1 2293   5.452   1.433   0.320 -0.6370  0.9816  0.5458
  668SOL    HW2 2294   5.505   1.416   0.166  0.2418 -1.4227  1.0807
  669SOL     OW 2295   0.874   0.931   1.256  0.0368 -0.2493  0.0085
  669SOL    HW1 2296   0.804   0.985   1.210  1.8575  0.5320 -2.0425
  669SOL    HW2 2297   0.948   0.910   1.191  1.5466 -1.3236  1.9614
  670SOL     OW 2298   0.586   0.637   5.712  0.0487 -0.2720 -0.3959
  670SOL    HW1 2299   0.652   0.712   5.705 -0.3832  0.0596 -1.1049
  670SOL    HW2 2300   0.549   0.632   5.804  0.1524  0.3296 -0.3223
  671SOL     OW 2301   2.465   2.511   0.268 -0.2162 -0.0285 -0.0178
  671SOL    HW1 2302   2.437   2.419   0.241 -2.3171  0.9172 -1.3500
  671SOL    HW2 2303   2.385   2.562   0.298  0.9676  1.2870  1.0324
  672SOL     OW 2304   2.076   1.175   4.207 -0.4330 -0.0839 -0.1692
  672SOL    HW1 2305   2.098   1.089   4.160 -0.3249 -1.7450  2.6939
  672SOL    HW2 2306   2.113   1.172   4.300  0.0824  3.3697 -0.1374
  673SOL     OW 2307   1.551   0.211   4.518  0.4198  0.1537 -0.1297
  673SOL    HW1 2308   1.571   0.211   4.420 -1.2550  0.1166 -0.5001
  673SOL    HW2 2309   1.454   0.230   4.533  1.1769  3.4027  1.6703
  674SOL     OW 2310   0.106   5.786   4.909 -0.3410  0.4647 -0.2813
  674SOL    HW1 2311   0.140   5.754   4.998 -2.8928 -0.5007  0.4251
  674SOL    HW2 2312   0.174   5.765   4.839  0.6971 -1.0116  1.0723
  675SOL     OW 2313   0.854   2.163   4.726 -0.0768  0.2179 -0.3479
  675SOL    HW1 2314   0.818   2.233   4.665  0.8884  0.4005 -0.7300
  675SOL    HW2 2315   0.816   2.074   4.701 -1.8704  0.6690  0.5954
  676SOL     OW 2316   0.765   0.442   5.349  0.1656  0.0096 -0.0587
  676SOL    HW1 2317   0.714   0.516   5.307 -0.3171 -0.4118 -0.2185
  676SOL    HW2 2318   0.863   0.456   5.333  0.0003 -0.1385 -1.3289
  677SOL     OW 2319   0.679   2.444   5.741  0.2495  0.3049  0.8868
  677SOL    HW1 2320   0.638   2.413   5.655  2.0446 -1.5884  0.6298
  677SOL    HW2 2321   0.607   2.469   5.805 -1.3041 -1.8484  0.0921
  678SOL     OW 2322   2.044   4.926   5.885 -0.2318 -0.4562  0.0353
  678SOL    HW1 2323   2.011   4.886   5.971 -0.5553  1.3913  0.8145
  678SOL    HW2 2324   2.144   4.930   5.887 -0.1378 -1.9157 -0.4071
  679SOL     OW 2325   5.308   2.744   4.477 -0.2756  0.5180  0.2704
  679SOL    HW1 2326   5.340   2.717   4.568 -0.1960 -0.2140  0.0328
  679SOL    HW2 2327   5.318   2.667   4.414 -2.2256  0.3720  0.1037
  680SOL     OW 2328   0.198   0.770   0.828  0.3718 -0.9147 -0.3764
  680SOL    HW1 2329   0.191   0.706   0.751 -0.8238 -0.7335 -0.4340
  680SOL    HW2 2330   0.132   0.744   0.899 -1.5156  1.3325 -1.1973
  681SOL     OW 2331   0.840   0.083   5.090  0.7358  0.6333  0.3207
  681SOL    HW1 2332   0.939   0.091   5.074  0.5158  0.9583 -1.0283
  681SOL    HW2 2333   0.815  -0.014   5.094  1.1179  0.5500  0.7676
  682SOL     OW 2334   0.567   0.535   4.267 -0.1958  0.4140 -0.2899
  682SOL    HW1 2335   0.558   0.616   4.210 -1.4952  0.0326 -0.6491
  682SOL    HW2 2336   0.629   0.555   4.343 -1.3172  2.0731  0.2373
  683SOL     OW 2337   0.879   2.674   0.688  0.3230  0.0696  0.4173
  683SOL    HW1 2338   0.792   2.707   0.651  0.7256  0.9867  0.2707
  683SOL    HW2 2339   0.861   2.598   0.752 -0.8085  1.7416  2.2163
  684SOL     OW 2340   2.504   5.255   5.400  0.1467  0.1883 -0.1596
  684SOL    HW1 2341   2.501   5.183   5.331  0.4534  0.0509 -0.0353
  684SOL    HW2 2342   2.600   5.272   5.426 -0.0239 -0.4130  0.9047
  685SOL     OW 2343   0.901   0.627   5.938  0.2521  0.4368  0.3415
  685SOL    HW1 2344   0.978   0.595   5.883  1.1274  2.5990  0.2300
  685SOL    HW2 2345   0.845   0.690   5.885 -1.1316 -0.4268  0.7167
  686SOL     OW 2346   1.366   0.218   5.642 -0.3968 -0.0723 -0.0149
  686SOL    HW1 2347   1.309   0.173   5.711 -0.3808 -1.9639 -1.1545
  686SOL    HW2 2348   1.310   0.240   5.562 -0.2999  1.6181  0.3396
  687SOL     OW 2349   0.332   0.026   0.073  0.1686 -0.2653 -0.6159
  687SOL    HW1 2350   0.330   0.084   0.155 -1.3870  0.3421 -1.0541
  687SOL    HW2 2351   0.366  -0.065   0.098 -0.5927 -0.2011  0.7747
  688SOL     OW 2352   0.899   5.159   0.248 -0.2069 -0.0940 -0.2755
  688SOL    HW1 2353   0.954   5.223   0.195 -0.4755  1.1009  0.8349
  688SOL    HW2 2354   0.806   5.196   0.258 -0.3370 -0.5956  0.4645
  689SOL     OW 2355   0.377   5.059   0.361 -0.2759 -0.0399 -0.6814
  689SOL    HW1 2356   0.380   5.099   0.453 -2.6527  0.1239 -0.6037
  689SOL    HW2 2357   0.362   5.132   0.294  0.5282 -0.2585 -1.1038
  690SOL     OW 2358   2.425   5.777   0.056  0.0894  0.3440 -0.1727
  690SOL    HW1 2359   2.358   5.844   0.088  0.2659 -0.0875  1.1409
  690SOL    HW2 2360   2.507   5.825   0.024  0.0348  0.7802  0.3230
  691SOL     OW 2361   0.927   0.209   0.157  0.0145  0.7914 -0.3613
  691SOL    HW1 2362   0.844   0.250   0.119 -0.7598 -1.4324 -1.2598
  691SOL    HW2 2363   0.905   0.158   0.240  0.4889  0.2556 -0.5567
  692SOL     OW 2364   5.293   2.508   4.326 -0.2079 -0.2489 -0.0428
  692SOL    HW1 2365   5.245   2.471   4.246  1.6187 -0.9640 -0.8589
  692SOL    HW2 2366   5.385   2.470   4.330  0.8685  2.2324  0.5941
  693SOL     OW 2367   0.755   5.751   0.451 -0.3223  0.3018  0.2594
  693SOL    HW1 2368   0.689   5.725   0.381 -0.6522 -1.4519  1.1474
  693SOL    HW2 2369   0.778   5.671   0.506  2.8417  0.7552 -0.2190
  694SOL     OW 2370   2.268   0.615   4.491 -0.4077  1.0018 -0.1932
  694SOL    HW1 2371   2.236   0.580   4.403 -0.9494  1.8449 -0.3421
  694SOL    HW2 2372   2.354   0.666   4.477 -0.9240  1.8409 -0.3777
  695SOL     OW 2373   1.296   0.603   4.461  0.6148  0.2617  0.0038
  695SOL    HW1 2374   1.216   0.543   4.474  0.7678 -0.5751 -2.3703
  695SOL    HW2 2375   1.269   0.681   4.404  1.1195  0.8880  0.6149
  696SOL     OW 2376   1.240   3.033   1.291 -0.4766  0.0335  0.8418
  696SOL    HW1 2377   1.237   3.116   1.346 -0.7225  0.1729  0.6244
  696SOL    HW2 2378   1.335   3.011   1.269 -0.2191 -1.0912  2.8974
  697SOL     OW 2379   1.748   5.552   5.147 -0.2040  0.3240  0.2951
  697SOL    HW1 2380   1.766   5.553   5.049 -0.4027  1.7528  0.2583
  697SOL    HW2 2381   1.663   5.504   5.165  0.8918 -1.8754 -0.0041
  698SOL     OW 2382   5.844   0.317   4.768  0.1760 -0.5714 -0.5917
  698SOL    HW1 2383   5.748   0.301   4.794  0.2978 -2.7573 -1.2349
  698SOL    HW2 2384   5.883   0.387   4.827 -0.7560 -2.3101  2.2913
  699SOL     OW 2385   1.803   0.971   0.423  0.1457 -0.0763 -0.2351
  699SOL    HW1 2386   1.879   1.012   0.373  0.8153 -0.5488  0.3631
  699SOL    HW2 2387   1.776   0.885   0.379 -0.7183  0.5772 -1.0200
  700SOL     OW 2388   1.755   4.425   0.294  0.2558 -0.0192 -0.1841
  700SOL    HW1 2389   1.675   4.447   0.240 -0.1738  0.0570  0.4723
  700SOL    HW2 2390   1.772   4.326   0.292 -0.9928 -0.2984  1.2025
  701SOL     OW 2391   0.284   1.018   5.962 -0.3256 -0.1682  0.5038
  701SOL    HW1 2392   0.376   1.043   5.993 -0.2165 -0.6140  0.5404
  701SOL    HW2 2393   0.287   0.991   5.866 -0.3875 -0.3692  0.5591
  702SOL     OW 2394   1.120   5.340   0.165 -0.5082  0.5308  0.2547
  702SOL    HW1 2395   1.151   5.250   0.135  0.2508  0.7223  0.4488
  702SOL    HW2 2396   1.180   5.410   0.127 -0.8239  0.9253  0.4753
  703SOL     OW 2397   1.539   1.086   0.279 -0.2452  0.1516 -0.3949
  703SOL    HW1 2398   1.537   1.127   0.370 -0.7787  0.0009 -0.3375
  703SOL    HW2 2399   1.622   1.032   0.268 -0.0084  0.4610 -0.1271
  704SOL     OW 2400   4.822   1.089   0.104  0.5126  0.7493  0.4466
  704SOL    HW1 2401   4.771   1.068   0.187 -1.2097 -1.0750 -0.9794
  704SOL    HW2 2402   4.809   1.185   0.080 -3.6799  0.0627 -0.6822
  705SOL     OW 2403   1.230   0.249   5.413  0.3954 -0.5089  0.3775
  705SOL    HW1 2404   1.187   0.161   5.431 -0.1733 -0.3071  0.0200
  705SOL    HW2 2405   1.187   0.292   5.334  0.8770 -0.0493  0.3597
  706SOL     OW 2406   5.757   3.939   0.538 -0.0853 -0.1677 -0.5572
  706SOL    HW1 2407   5.707   3.880   0.475 -0.3954 -2.3738  1.5780
  706SOL    HW2 2408   5.845   3.963   0.498 -0.9946  0.0581 -2.5428
  707SOL     OW 2409   4.738   2.803   0.322 -0.4511  0.3935  0.0142
  707SOL    HW1 2410   4.655   2.776   0.273 -0.0910 -1.8101  0.4915
  707SOL    HW2 2411   4.760   2.734   0.390  1.5093  1.1851  0.2531
  708SOL     OW 2412   0.332   2.012   1.870 -0.0166 -0.5663  0.1220
  708SOL    HW1 2413   0.237   1.984   1.856 -0.2351 -0.6351  1.5802
  708SOL    HW2 2414   0.381   1.940   1.918  0.4579 -0.0260  0.4534
  709SOL     OW 2415   5.217   1.899   4.166  0.0888 -0.4281  0.4532
  709SOL    HW1 2416   5.147   1.916   4.097 -0.3096  0.3095  1.0320
  709SOL    HW2 2417   5.174   1.874   4.252  0.5706 -0.8448  0.5798
  710SOL     OW 2418   1.029   3.395   1.155  0.0323 -0.6530 -0.0245
  710SOL    HW1 2419   1.088   3.476   1.160 -0.5955 -0.2121  0.5450
  710SOL    HW2 2420   0.977   3.387   1.240 -0.7561 -1.0048 -0.5302
  711SOL     OW 2421   1.148   5.433   0.983 -1.2818  0.1223 -0.0366
  711SOL    HW1 2422   1.060   5.436   1.029 -1.6312 -0.7864 -0.6087
  711SOL    HW2 2423   1.133   5.420   0.885 -0.4994 -0.7486 -0.0484
  712SOL     OW 2424   5.692   1.163   0.094 -0.1806 -0.2477  0.5262
  712SOL    HW1 2425   5.785   1.137   0.068 -0.1652 -0.1685  0.5014
  712SOL    HW2 2426   5.668   1.249   0.049 -0.3646 -0.4060  0.3154
  713SOL     OW 2427   0.975   5.187   0.685 -0.0511 -0.6840 -0.0317
  713SOL    HW1 2428   1.037   5.146   0.618 -2.2794 -0.1542 -2.6005
  713SOL    HW2 2429   0.881   5.179   0.653 -0.9655  2.6085  1.3581
  714SOL     OW 2430   0.214   4.186   1.847 -0.4958  0.3680 -0.2722
  714SOL    HW1 2431   0.163   4.220   1.925  1.0846 -0.7843  1.3609
  714SOL    HW2 2432   0.187   4.091   1.828  2.4381 -1.1473  2.1527
  715SOL     OW 2433   1.882   1.869   0.312 -0.1485  0.6673  0.5992
  715SOL    HW1 2434   1.947   1.944   0.299 -0.9394  1.2185 -0.3426
  715SOL    HW2 2435   1.793   1.906   0.337 -0.5497  0.0418  0.1326
  716SOL     OW 2436   5.400   2.235   1.054 -0.1171 -0.0085  0.6378
  716SOL    HW1 2437   5.362   2.239   0.961  0.4938 -0.1909  0.3771
  716SOL    HW2 2438   5.436   2.324   1.078 -1.1719  0.3129  1.0926
  717SOL     OW 2439   4.973   4.059   1.055 -0.2482  0.7153  0.2733
  717SOL    HW1 2440   4.924   3.988   1.104  0.2140  0.0767 -0.1760
  717SOL    HW2 2441   4.926   4.080   0.970 -0.6950  1.3623  0.6700
  718SOL     OW 2442   5.613   2.993   0.730  0.2778  0.2236 -0.4134
  718SOL    HW1 2443   5.646   2.914   0.783 -1.4382 -0.3092 -0.0598
  718SOL    HW2 2444   5.543   2.962   0.666  2.2004  0.8871 -2.9767
  719SOL     OW 2445   5.681   3.867   2.572 -0.5484 -0.3580  0.0986
  719SOL    HW1 2446   5.724   3.923   2.644 -1.4465 -1.1232  1.2643
  719SOL    HW2 2447   5.750   3.842   2.504  0.2220  0.7954  0.4144
  720SOL     OW 2448   0.314   1.305   5.734  0.2731 -0.3557  0.6183
  720SOL    HW1 2449   0.348   1.349   5.817  2.6507 -1.9459  0.5774
  720SOL    HW2 2450   0.391   1.283   5.674 -1.3460  0.4885 -1.9438
  721SOL     OW 2451   1.480   3.086   0.189  0.1763  0.3007 -0.1887
  721SOL    HW1 2452   1.399   3.040   0.153 -1.1189  0.7671  1.9436
  721SOL    HW2 2453   1.535   3.022   0.242  0.2469  0.3908 -0.1520
  722SOL     OW 2454   0.956   2.982   2.546 -0.0677  0.0597  0.1917
  722SOL    HW1 2455   0.870   2.932   2.552 -0.8839  1.3473 -0.3088
  722SOL    HW2 2456   1.020   2.932   2.487 -0.6087 -0.7070  0.2436
  723SOL     OW 2457   5.699   3.601   0.088  0.0242 -0.0310  0.0195
  723SOL    HW1 2458   5.699   3.512   0.133 -0.6113  1.0018  2.1938
  723SOL    HW2 2459   5.787   3.616   0.043  0.3365 -1.5065  0.1066
  724SOL     OW 2460   0.466   2.545   4.914  0.2170 -0.6997  0.0660
  724SOL    HW1 2461   0.380   2.496   4.929 -0.5783  0.5374 -0.2828
  724SOL    HW2 2462   0.534   2.482   4.876 -0.8761 -1.4488 -0.7139
  725SOL     OW 2463   5.370   3.787   1.170  0.0046  0.6982 -0.2482
  725SOL    HW1 2464   5.312   3.805   1.091 -0.9288 -0.5469  0.1106
  725SOL    HW2 2465   5.464   3.775   1.141 -0.6124 -1.6880 -1.4814
  726SOL     OW 2466   0.595   3.116   1.064 -0.0320  0.2857 -0.2250
  726SOL    HW1 2467   0.603   3.146   0.969  1.7655  0.9671  0.1170
  726SOL    HW2 2468   0.564   3.192   1.120  0.3321  0.2958 -0.0368
  727SOL     OW 2469   0.532   1.512   1.177 -0.2430  0.3153 -0.2570
  727SOL    HW1 2470   0.541   1.467   1.087  1.6019 -1.0385  0.5241
  727SOL    HW2 2471   0.436   1.528   1.197 -0.7345  0.0076 -2.1752
  728SOL     OW 2472   1.012   2.701   0.451 -0.2610  0.1177  0.3801
  728SOL    HW1 2473   0.949   2.719   0.526 -1.4220  0.8884 -0.7446
  728SOL    HW2 2474   1.005   2.774   0.382 -0.6247 -1.5131 -1.4043
  729SOL     OW 2475   2.972   3.954   1.245  0.4814  0.7197  0.0760
  729SOL    HW1 2476   3.055   3.929   1.194  0.3535 -0.2719  0.3340
  729SOL    HW2 2477   2.947   4.048   1.224  0.4754  0.3599 -1.6178
  730SOL     OW 2478   5.125   4.001   4.531 -0.6026  0.4609 -0.4931
  730SOL    HW1 2479   5.131   3.920   4.472  0.0220  0.5530 -0.5602
  730SOL    HW2 2480   5.029   4.018   4.554 -0.6782 -0.8262  0.2504
  731SOL     OW 2481   1.963   2.143   2.688  0.2915  0.6546 -0.0060
  731SOL    HW1 2482   2.045   2.132   2.632 -0.3000  1.5613 -1.0897
  731SOL    HW2 2483   1.910   2.221   2.655 -1.0904  0.0023  0.5811
  732SOL     OW 2484   3.249   1.867   5.189  0.3136 -0.5833  0.2670
  732SOL    HW1 2485   3.288   1.837   5.102 -0.0762  0.6289 -0.3596
  732SOL    HW2 2486   3.167   1.814   5.209 -0.5435  0.2041 -0.9723
  733SOL     OW 2487   0.728   2.858   2.641  0.4259  0.4047  0.3790
  733SOL    HW1 2488   0.667   2.937   2.643  1.1091  0.9938 -0.7069
  733SOL    HW2 2489   0.703   2.794   2.714 -2.7411 -0.3702 -1.2118
  734SOL     OW 2490   2.399   2.253   0.196 -0.1409 -0.6558  0.5206
  734SOL    HW1 2491   2.372   2.202   0.278  0.8399  0.1726  1.3973
  734SOL    HW2 2492   2.426   2.189   0.124 -2.4981 -1.4470  0.2709
  735SOL     OW 2493   2.463   3.272   1.143  0.1628  0.0376  0.0091
  735SOL    HW1 2494   2.476   3.325   1.227 -1.5736  2.4009 -1.0858
  735SOL    HW2 2495   2.368   3.239   1.138  0.2925 -0.2426 -0.9313
  736SOL     OW 2496   4.865   3.292   0.500 -0.1650 -0.6092  0.3850
  736SOL    HW1 2497   4.906   3.268   0.587 -0.2257  0.6211  0.7775
  736SOL    HW2 2498   4.863   3.212   0.440  0.4166 -1.3172  1.2922
  737SOL     OW 2499   5.408   3.445   2.621  0.0904 -0.1380  0.0604
  737SOL    HW1 2500   5.414   3.438   2.720  1.1213 -0.5530 -0.0270
  737SOL    HW2 2501   5.369   3.360   2.584 -0.2274 -0.0107  0.0948
  738SOL     OW 2502   0.878   3.039   0.628  0.2820  0.5185  0.0749
  738SOL    HW1 2503   0.839   2.952   0.658 -0.6316  0.6727 -0.5896
  738SOL    HW2 2504   0.846   3.059   0.535 -0.0439  1.8624  0.4557
  739SOL     OW 2505   1.507   4.085   2.376  0.2383 -0.3715 -0.3937
  739SOL    HW1 2506   1.460   4.064   2.462  1.5264  1.1504  0.7443
  739SOL    HW2 2507   1.439   4.093   2.302 -1.2108  0.6933  0.9795
  740SOL     OW 2508   5.815   3.748   2.356 -0.3164  0.0233  0.1449
  740SOL    HW1 2509   5.884   3.716   2.291 -2.7235 -1.3350 -1.9260
  740SOL    HW2 2510   5.771   3.669   2.398  0.0225  0.8801  2.2127
  741SOL     OW 2511   1.960   3.735   5.622 -0.1130  0.3519 -0.0739
  741SOL    HW1 2512   2.035   3.686   5.667  0.0468  0.9293  0.2985
  741SOL    HW2 2513   1.974   3.833   5.631  0.0933  0.4993 -1.6737
  742SOL     OW 2514   1.922   4.313   1.053 -0.7698 -0.0717 -0.7889
  742SOL    HW1 2515   1.985   4.247   1.011  0.5588  0.8123 -0.2173
  742SOL    HW2 2516   1.968   4.362   1.126 -0.9360  3.2199 -2.7274
  743SOL     OW 2517   5.539   2.610   5.667  0.7933 -0.3338 -0.2574
  743SOL    HW1 2518   5.522   2.694   5.720  0.9624 -0.3944 -0.1052
  743SOL    HW2 2519   5.473   2.604   5.592  0.3311 -0.4201  0.1533
  744SOL     OW 2520   0.192   2.442   0.088 -0.0867  0.4459 -0.2209
  744SOL    HW1 2521   0.267   2.380   0.113 -1.0107 -0.2774  0.9143
  744SOL    HW2 2522   0.109   2.388   0.074 -0.9963  1.4299  1.1070
  745SOL     OW 2523   1.235   3.898   0.632 -0.0147 -0.0372  0.0123
  745SOL    HW1 2524   1.184   3.815   0.614  0.0382  0.0420 -0.4981
  745SOL    HW2 2525   1.174   3.968   0.670  0.0007 -0.4028  0.7219
  746SOL     OW 2526   1.883   1.633   0.197  0.6030 -0.2370 -0.3048
  746SOL    HW1 2527   1.884   1.715   0.253  1.7303 -0.7182  0.4102
  746SOL    HW2 2528   1.909   1.554   0.252 -0.0979 -1.0332 -1.0653
  747SOL     OW 2529   5.331   1.421   2.682  0.2405 -0.0594 -0.3770
  747SOL    HW1 2530   5.343   1.518   2.660 -1.9751  0.5736  0.9224
  747SOL    HW2 2531   5.304   1.411   2.778 -2.9726 -1.6352 -1.3065
  748SOL     OW 2532   5.364   3.327   1.728 -0.0348 -0.4704  0.9513
  748SOL    HW1 2533   5.412   3.334   1.816  2.7860 -2.4906 -0.2863
  748SOL    HW2 2534   5.351   3.418   1.689  1.1047  0.2614  2.2210
  749SOL     OW 2535   1.360   3.071   1.658 -0.1610  0.0315  0.0481
  749SOL    HW1 2536   1.304   3.128   1.599  0.6240 -0.9365 -1.7303
  749SOL    HW2 2537   1.358   2.977   1.625  3.6663  0.1764 -1.1614
  750SOL     OW 2538   3.884   2.415   0.633  0.2639  0.2754 -0.1816
  750SOL    HW1 2539   3.817   2.478   0.673 -0.4295  0.4202 -1.4864
  750SOL    HW2 2540   3.889   2.431   0.534  2.1416  0.1656 -0.1398
  751SOL     OW 2541   5.730   1.461   0.867 -0.6281 -0.5600  0.3017
  751SOL    HW1 2542   5.811   1.442   0.922  0.3112 -1.6033 -1.3756
  751SOL    HW2 2543   5.651   1.471   0.927  0.7195  0.6326  2.0039
  752SOL     OW 2544   5.385   2.717   2.044  0.0834  0.2642 -0.2323
  752SOL    HW1 2545   5.448   2.673   2.107 -0.9057  1.4769  1.6954
  752SOL    HW2 2546   5.422   2.712   1.951  2.7483  0.4946  0.7310
  753SOL     OW 2547   5.523   2.850   5.749  0.0399  0.2799  0.2862
  753SOL    HW1 2548   5.579   2.870   5.830 -0.7499 -0.8463  1.1307
  753SOL    HW2 2549   5.526   2.929   5.687  0.3082  1.3406  1.5974
  754SOL     OW 2550   1.531   1.753   1.384 -0.1024  0.0378 -0.4899
  754SOL    HW1 2551   1.515   1.654   1.390 -3.9676  0.4755 -1.1245
  754SOL    HW2 2552   1.494   1.797   1.465 -0.0606  1.1151 -1.0439
  755SOL     OW 2553   1.580   3.421   0.768  0.3228 -0.1015  1.0751
  755SOL    HW1 2554   1.626   3.505   0.739 -0.8196  0.7860  1.7758
  755SOL    HW2 2555   1.495   3.444   0.816 -0.4922 -1.6803  0.4498
  756SOL     OW 2556   5.317   0.746   2.038  0.5023  0.2611 -0.1771
  756SOL    HW1 2557   5.240   0.711   1.985 -0.4072 -1.8558  2.2759
  756SOL    HW2 2558   5.396   0.687   2.023  1.0289  1.1765 -1.0769
  757SOL     OW 2559   1.026   2.020   0.080  0.0083  0.0963  0.1527
  757SOL    HW1 2560   1.070   2.059   0.160 -1.0171  0.2693  0.6522
  757SOL    HW2 2561   0.954   1.957   0.109  1.0024 -1.4845 -0.6372
  758SOL     OW 2562   0.832   4.031   5.700 -0.5266  0.5036  0.0408
  758SOL    HW1 2563   0.806   4.079   5.784 -2.6001  0.2916 -0.4117
  758SOL    HW2 2564   0.779   4.068   5.624  1.2785  0.6469 -1.1852
  759SOL     OW 2565   2.757   2.672   5.885 -0.5048 -0.2734 -0.5628
  759SOL    HW1 2566   2.836   2.610   5.876 -0.7525 -0.9646  1.5339
  759SOL    HW2 2567   2.706   2.673   5.799  1.7767  0.2239 -1.9912
  760SOL     OW 2568   5.548   3.120   2.616  0.0896  0.3296  0.7428
  760SOL    HW1 2569   5.524   3.036   2.664  0.3772  1.4743  2.9899
  760SOL    HW2 2570   5.465   3.165   2.584 -0.0236 -1.3597 -1.6190
  761SOL     OW 2571   1.704   3.410   1.526  0.2959 -0.0022 -0.0152
  761SOL    HW1 2572   1.780   3.434   1.586  1.7973 -1.0741 -1.3763
  761SOL    HW2 2573   1.731   3.331   1.469 -2.1514 -0.9388  0.0267
  762SOL     OW 2574   0.092   4.091   2.848  0.9890  0.1650  0.6366
  762SOL    HW1 2575   0.024   4.126   2.912 -0.2238 -0.4480 -0.2802
  762SOL    HW2 2576   0.141   4.167   2.806 -1.7985  0.9116 -1.5487
  763SOL     OW 2577   1.613   3.794   0.950  0.0318  0.3785 -0.1157
  763SOL    HW1 2578   1.701   3.837   0.969  2.2918 -3.7194 -0.2206
  763SOL    HW2 2579   1.618   3.746   0.862 -2.3317  0.0419 -0.1236
  764SOL     OW 2580   1.426   2.148   0.897 -0.1815  0.0031 -0.7229
  764SOL    HW1 2581   1.341   2.115   0.938 -1.0775  1.2601 -1.4762
  764SOL    HW2 2582   1.498   2.079   0.908 -1.5206 -1.4646 -0.8367
  765SOL     OW 2583   0.507   1.186   4.259  0.7732  0.1415  0.4938
  765SOL    HW1 2584   0.507   1.250   4.182 -1.6169 -1.0126 -0.5632
  765SOL    HW2 2585   0.513   1.238   4.344  1.4818  1.5883 -0.3920
  766SOL     OW 2586   0.669   0.411   5.610  0.0687 -0.5847 -0.4126
  766SOL    HW1 2587   0.637   0.502   5.636  0.8394 -0.6628  0.8893
  766SOL    HW2 2588   0.693   0.410   5.513 -1.6877  0.0774 -0.8930
  767SOL     OW 2589   1.239   3.129   5.780  0.0716  0.2860 -0.0138
  767SOL    HW1 2590   1.179   3.198   5.739  0.9640  0.2671 -1.4255
  767SOL    HW2 2591   1.332   3.166   5.787 -0.0413  0.3184  2.1369
  768SOL     OW 2592   2.688   1.771   0.788  0.1046 -0.2814  0.1184
  768SOL    HW1 2593   2.783   1.744   0.775  0.4010  0.8039 -0.0152
  768SOL    HW2 2594   2.657   1.745   0.879  0.8383  0.2431  0.5202
  769SOL     OW 2595   0.082   4.263   2.085 -0.1402  0.1678 -0.4726
  769SOL    HW1 2596   0.110   4.227   2.173  1.0653 -0.2299 -0.9952
  769SOL    HW2 2597   0.021   4.341   2.098 -0.4589 -0.2644  0.6908
  770SOL     OW 2598   0.457   3.417   1.774  0.2747 -0.2469 -0.0863
  770SOL    HW1 2599   0.442   3.319   1.789 -0.0916 -0.2694 -0.5725
  770SOL    HW2 2600   0.535   3.447   1.827 -0.4681 -0.5004  1.1915
  771SOL     OW 2601   0.370   3.448   0.800  0.0559  0.0192 -0.0408
  771SOL    HW1 2602   0.352   3.463   0.897  3.5035 -1.0743  0.9222
  771SOL    HW2 2603   0.366   3.350   0.780  0.4692  0.1363 -0.7474
  772SOL     OW 2604   5.047   0.643   1.160 -0.4729 -0.3637 -0.0069
  772SOL    HW1 2605   5.087   0.633   1.251 -2.3340 -0.9693  0.7873
  772SOL    HW2 2606   5.003   0.557   1.133 -0.8121  0.1229 -1.0463
  773SOL     OW 2607   0.386   2.402   0.929 -0.0335  0.6355 -0.3127
  773SOL    HW1 2608   0.288   2.383   0.933 -0.1740  1.0140 -1.5155
  773SOL    HW2 2609   0.400   2.499   0.907  0.5975  0.4947 -0.5475
  774SOL     OW 2610   1.875   2.375   2.108  0.0534 -0.6768  0.2948
  774SOL    HW1 2611   1.936   2.415   2.176  1.9172 -0.6555 -1.3083
  774SOL    HW2 2612   1.893   2.416   2.019 -1.4648 -1.5811 -0.4738
  775SOL     OW 2613   1.484   2.780  -0.028  0.0584 -0.4435  0.0359
  775SOL    HW1 2614   1.396   2.808   0.011  0.1155  1.8531 -1.3327
  775SOL    HW2 2615   1.553   2.776   0.045 -0.7614 -0.3820  0.8236
  776SOL     OW 2616   5.690   2.712   1.099  0.3854  0.0044  0.2099
  776SOL    HW1 2617   5.694   2.749   1.006 -0.1814  1.8961  0.8851
  776SOL    HW2 2618   5.757   2.759   1.156 -0.3659 -0.0048  1.1229
  777SOL     OW 2619   5.955   3.432   1.126  0.3988 -0.4324 -0.4502
  777SOL    HW1 2620   5.957   3.451   1.028 -2.1245 -0.8579 -0.6524
  777SOL    HW2 2621   5.912   3.344   1.142 -1.4097  0.6429  1.0923
  778SOL     OW 2622   1.092   2.637   1.417 -0.6507 -1.3585  0.1419
  778SOL    HW1 2623   1.180   2.632   1.368  0.1020  0.0830  1.2380
  778SOL    HW2 2624   1.052   2.727   1.402 -1.7866 -1.8808 -0.0382
  779SOL     OW 2625   5.674   2.078   1.604  0.2970  0.2367  0.0586
  779SOL    HW1 2626   5.607   2.128   1.549  0.0118 -1.2302 -1.0081
  779SOL    HW2 2627   5.750   2.139   1.628 -1.4405  1.9698  1.4098
  780SOL     OW 2628   1.734   1.904   1.264  0.1283 -0.2799 -0.1777
  780SOL    HW1 2629   1.669   1.865   1.328 -0.3236  2.2740  1.0329
  780SOL    HW2 2630   1.694   1.907   1.173 -0.2807 -1.4191 -0.0459
  781SOL     OW 2631   4.749   1.820   4.638  0.3678 -0.1358  0.3693
  781SOL    HW1 2632   4.703   1.736   4.666  1.6812 -0.9591  0.1886
  781SOL    HW2 2633   4.799   1.858   4.716  1.0760 -0.4338  0.0770
  782SOL     OW 2634   1.101   3.633   0.922 -0.0894  0.0397  0.4888
  782SOL    HW1 2635   1.118   3.731   0.933  0.9835 -0.1549  0.6659
  782SOL    HW2 2636   1.015   3.609   0.967  0.1639  0.7184  1.3589
  783SOL     OW 2637   0.858   5.012   1.204 -0.5653  0.3616 -0.2958
  783SOL    HW1 2638   0.938   5.019   1.264 -0.3767 -2.1947 -0.1455
  783SOL    HW2 2639   0.888   5.015   1.109 -0.1796 -1.0763 -0.2440
  784SOL     OW 2640   0.656   2.166   0.040  0.2099 -0.7784  0.6643
  784SOL    HW1 2641   0.590   2.175  -0.036 -1.6984 -0.5453  2.2559
  784SOL    HW2 2642   0.745   2.138   0.004 -1.0250 -2.2554 -1.5061
  785SOL     OW 2643   0.936   2.472   5.778  0.4193  0.1311  0.6251
  785SOL    HW1 2644   0.842   2.455   5.747  0.1557  0.3128  1.3023
  785SOL    HW2 2645   0.937   2.482   5.878  1.3414 -1.0447  0.7608
  786SOL     OW 2646   1.703   2.944   0.296 -0.7365  0.6614  0.6274
  786SOL    HW1 2647   1.797   2.978   0.298  0.0477 -1.0870 -1.8640
  786SOL    HW2 2648   1.677   2.912   0.388  1.6409 -0.1787  1.0779
  787SOL     OW 2649   2.352   4.022   2.080 -0.5399  0.1141  0.1510
  787SOL    HW1 2650   2.338   4.121   2.070 -0.1753  0.2052  0.5193
  787SOL    HW2 2651   2.377   4.002   2.175 -1.6645 -0.4537  0.3508
  788SOL     OW 2652   5.840   3.678   1.234  0.2018  0.1295 -0.0501
  788SOL    HW1 2653   5.891   3.729   1.304 -2.1129 -0.7523  2.4433
  788SOL    HW2 2654   5.897   3.603   1.200  0.8803 -0.4242  2.1205
  789SOL     OW 2655   1.112   2.193   4.803  0.1043 -0.0252 -0.8689
  789SOL    HW1 2656   1.148   2.284   4.825 -0.8788  0.1043  0.3644
  789SOL    HW2 2657   1.019   2.202   4.768 -0.2752 -0.5837 -0.0303
  790SOL     OW 2658   5.402   2.475   0.359  0.0986 -0.1146  0.0822
  790SOL    HW1 2659   5.494   2.497   0.391 -0.5159  0.2010  1.7469
  790SOL    HW2 2660   5.404   2.389   0.309  1.2386 -0.2969  0.3998
  791SOL     OW 2661   2.198   2.731   0.811  0.4171  0.2900  0.4691
  791SOL    HW1 2662   2.196   2.643   0.859 -0.6000 -0.7839 -1.4521
  791SOL    HW2 2663   2.232   2.718   0.718 -2.3523  1.3824 -0.7848
  792SOL     OW 2664   1.393   2.249   5.927  0.2527  0.0989 -0.1231
  792SOL    HW1 2665   1.409   2.167   5.872 -0.6973  0.4192 -0.9106
  792SOL    HW2 2666   1.461   2.318   5.903  1.1672 -0.4905  0.6686
  793SOL     OW 2667   2.171   3.693   0.717  0.0324  0.3367  0.2891
  793SOL    HW1 2668   2.217   3.608   0.742  3.4364  1.8733 -0.3047
  793SOL    HW2 2669   2.132   3.683   0.625 -1.0600 -1.0396  0.8568
  794SOL     OW 2670   5.484   2.276   5.608 -0.3591 -0.2576 -0.7070
  794SOL    HW1 2671   5.438   2.192   5.638  1.4585 -1.6351 -1.5694
  794SOL    HW2 2672   5.523   2.262   5.517  2.6772  0.4166  0.3966
  795SOL     OW 2673   1.770   1.649   0.520  0.3285 -0.2540  0.6367
  795SOL    HW1 2674   1.808   1.605   0.439 -0.9525  0.3351 -0.3254
  795SOL    HW2 2675   1.735   1.739   0.496  1.0997  0.4843  2.1431
  796SOL     OW 2676   1.520   1.511   1.488  0.1897  0.6551 -0.1949
  796SOL    HW1 2677   1.436   1.460   1.468 -0.7417  2.3725 -0.8972
  796SOL    HW2 2678   1.512   1.552   1.579  1.0828 -0.6506  0.5149
  797SOL     OW 2679   5.825   2.878   0.527  0.1672  0.1841  0.2525
  797SOL    HW1 2680   5.862   2.965   0.494 -1.2909  0.7955  0.1539
  797SOL    HW2 2681   5.728   2.889   0.550  0.3434 -1.0128  1.7907
  798SOL     OW 2682   1.304   3.395   2.176  0.0963  0.0442 -0.0873
  798SOL    HW1 2683   1.346   3.309   2.204  0.2010 -1.1908 -3.4944
  798SOL    HW2 2684   1.207   3.381   2.159 -0.0569  0.8160  0.1053
  799SOL     OW 2685   2.182   3.362   2.374  0.3997 -0.0901  0.9570
  799SOL    HW1 2686   2.124   3.374   2.294 -0.0338  3.0074  1.5983
  799SOL    HW2 2687   2.273   3.332   2.346 -0.3677 -1.2095 -0.4392
  800SOL     OW 2688   2.036   3.390   2.140 -0.2808  0.5800  0.0948
  800SOL    HW1 2689   1.993   3.309   2.101 -0.4721  0.4977  0.4722
  800SOL    HW2 2690   1.966   3.447   2.184 -0.1614  0.9984 -0.2528
  801SOL     OW 2691   0.737   4.052   0.261 -0.3670  0.4202  0.0319
  801SOL    HW1 2692   0.668   3.980   0.257 -0.2608  0.3024  0.3017
  801SOL    HW2 2693   0.812   4.023   0.320  0.5786 -0.0348 -1.3510
  802SOL     OW 2694   5.237   3.272   0.519  0.0216  0.3630  0.4000
  802SOL    HW1 2695   5.198   3.328   0.592 -0.6476 -0.9865  1.1189
  802SOL    HW2 2696   5.191   3.294   0.432  0.1522  1.2929  0.5503
  803SOL     OW 2697   1.242   1.916   0.663 -1.0453  0.0902  0.2148
  803SOL    HW1 2698   1.216   1.874   0.576 -2.3958  1.9044 -0.3324
  803SOL    HW2 2699   1.190   1.873   0.737  1.1981 -2.5133  0.4553
  804SOL     OW 2700   1.700   2.478   0.104 -0.0833 -0.1643  0.2499
  804SOL    HW1 2701   1.799   2.488   0.095  0.1111  0.0821  2.2282
  804SOL    HW2 2702   1.658   2.568   0.112 -0.4372 -0.2830 -0.2270
  805SOL     OW 2703   0.061   2.201   5.573  0.0345 -0.2765 -0.0809
  805SOL    HW1 2704   0.122   2.215   5.651 -1.2715 -1.1523  1.1673
  805SOL    HW2 2705  -0.008   2.274   5.571  0.2590 -0.0813 -0.6012
  806SOL     OW 2706   5.873   2.863   2.013  0.3693  0.0768  0.4965
  806SOL    HW1 2707   5.970   2.887   2.009  0.4884 -0.4937 -0.3231
  806SOL    HW2 2708   5.817   2.946   2.008  0.8126  0.4718  1.7486
  807SOL     OW 2709   1.451   1.609   2.261  0.7588  0.0697  0.1580
  807SOL    HW1 2710   1.533   1.574   2.306  0.3204  0.0316  0.9452
  807SOL    HW2 2711   1.448   1.708   2.270  1.3998  0.2201 -1.0541
  808SOL     OW 2712   1.719   4.081   0.071 -0.1899  0.1464  0.3813
  808SOL    HW1 2713   1.765   4.131   0.144  1.0446 -2.1236  1.2568
  808SOL    HW2 2714   1.787   4.042   0.009 -1.0282 -1.2556  0.3039
  809SOL     OW 2715   2.399   1.913   1.098 -0.8385  0.1886  0.8352
  809SOL    HW1 2716   2.308   1.898   1.059 -0.7777  0.3276  0.6384
  809SOL    HW2 2717   2.442   1.992   1.054 -0.0706 -0.6961 -0.0877
  810SOL     OW 2718   3.958   3.055   0.044  0.1945 -0.1990 -0.0106
  810SOL    HW1 2719   3.942   3.074   0.141  0.6488 -0.5270  0.1306
  810SOL    HW2 2720   3.927   2.962   0.023  0.0066 -0.0934 -0.2022
  811SOL     OW 2721   1.531   3.922   4.901  0.0004  0.0874 -0.2394
  811SOL    HW1 2722   1.465   3.848   4.896  0.3540 -0.2079 -0.6726
  811SOL    HW2 2723   1.551   3.943   4.996  0.0027 -0.4765 -0.1110
  812SOL     OW 2724   1.473   3.060   0.947 -0.3185 -0.3390 -0.3809
  812SOL    HW1 2725   1.434   2.982   0.998  1.7419 -1.4776 -0.4382
  812SOL    HW2 2726   1.561   3.033   0.908 -0.7741  1.2383 -2.6536
  813SOL     OW 2727   1.100   1.717   0.831 -0.5474 -0.1246  0.8254
  813SOL    HW1 2728   1.082   1.767   0.915 -1.4703  0.1967  0.4451
  813SOL    HW2 2729   1.063   1.624   0.839  0.8765 -0.6714  1.4067
  814SOL     OW 2730   0.554   1.099   0.028 -0.4527 -0.9091 -0.1885
  814SOL    HW1 2731   0.620   1.131  -0.041  0.3704 -1.1546  0.4642
  814SOL    HW2 2732   0.509   1.178   0.070 -0.3904 -0.7268 -0.4620
  815SOL     OW 2733   1.861   3.205   1.373 -0.6377  0.4236 -0.2092
  815SOL    HW1 2734   1.843   3.139   1.446  0.6760  0.8556  0.5408
  815SOL    HW2 2735   1.859   3.158   1.285 -2.6823 -0.0269  0.0223
  816SOL     OW 2736   5.715   3.100   2.037 -0.5884  0.4770 -0.4037
  816SOL    HW1 2737   5.652   3.112   1.961 -0.6023  1.1375 -0.2955
  816SOL    HW2 2738   5.766   3.185   2.052 -1.9257  1.0166  1.5098
  817SOL     OW 2739   3.902   5.762   1.440  0.5021 -0.0494 -0.4751
  817SOL    HW1 2740   3.873   5.670   1.416  0.3383  0.0490 -0.6554
  817SOL    HW2 2741   3.993   5.759   1.480  1.1654 -0.1071 -1.9535
  818SOL     OW 2742   4.963   5.873   2.113 -0.1035  0.3931  0.2578
  818SOL    HW1 2743   4.883   5.878   2.173 -0.0612  1.0232  0.2711
  818SOL    HW2 2744   4.941   5.915   2.025 -0.7893 -2.2369 -0.9103
  819SOL     OW 2745   1.670   3.670   1.185 -0.5631  0.4937 -0.4333
  819SOL    HW1 2746   1.631   3.728   1.114 -2.7786  0.2350  0.4646
  819SOL    HW2 2747   1.770   3.670   1.178 -0.5649  2.9561 -1.5534
  820SOL     OW 2748   1.712   1.506   1.256  0.0905  0.2610  0.0660
  820SOL    HW1 2749   1.647   1.444   1.213  0.3860 -0.6195  0.8653
  820SOL    HW2 2750   1.664   1.563   1.323  0.1301 -0.4073  0.6754
  821SOL     OW 2751   0.681   3.071   0.419  0.9057  0.2821 -0.0300
  821SOL    HW1 2752   0.639   2.986   0.387 -1.1969  1.2754 -0.0825
  821SOL    HW2 2753   0.610   3.132   0.453  2.6260  1.0165  2.5046
  822SOL     OW 2754   1.250   0.790   2.988  0.4560 -0.2161  0.0462
  822SOL    HW1 2755   1.282   0.847   3.064 -2.5168  1.5471  0.1408
  822SOL    HW2 2756   1.256   0.843   2.903  0.5765 -0.9605 -0.4197
  823SOL     OW 2757   5.825   2.928   2.619  0.3749  0.4400 -0.2592
  823SOL    HW1 2758   5.832   2.829   2.608  0.2188  0.4378 -0.3495
  823SOL    HW2 2759   5.762   2.965   2.550 -0.5151  0.4464  0.5345
  824SOL     OW 2760   0.521   2.846   0.320 -0.0084  0.1824 -0.3887
  824SOL    HW1 2761   0.423   2.845   0.305 -0.2996 -2.4268  1.1047
  824SOL    HW2 2762   0.560   2.757   0.298  2.0763  1.1878 -1.0570
  825SOL     OW 2763   2.672   3.700   0.706 -0.0484 -0.6909 -0.4352
  825SOL    HW1 2764   2.743   3.736   0.645 -0.8409  0.7936 -0.5107
  825SOL    HW2 2765   2.660   3.762   0.784 -1.3121 -0.8979 -0.4523
  826SOL     OW 2766   4.629   3.073   1.227 -0.1143 -0.5262 -0.0246
  826SOL    HW1 2767   4.564   3.130   1.276  1.8430  3.8985 -2.0722
  826SOL    HW2 2768   4.598   3.061   1.132  0.9614 -0.1544 -0.4453
  827SOL     OW 2769   0.261   2.074   5.264  0.0503 -0.3429  0.4315
  827SOL    HW1 2770   0.178   2.072   5.209 -0.2250 -1.5427  0.8440
  827SOL    HW2 2771   0.301   1.983   5.266  0.4116 -0.1749  1.6573
  828SOL     OW 2772   1.126   4.086   2.483  1.2091 -0.1077  0.0500
  828SOL    HW1 2773   1.065   4.026   2.431  0.6472 -0.1204  0.6972
  828SOL    HW2 2774   1.213   4.040   2.500  0.7947 -0.7361  0.5171
  829SOL     OW 2775   1.855   3.912   0.990  0.1668 -0.6084  0.0937
  829SOL    HW1 2776   1.921   3.880   0.923  0.7086 -0.6066  0.6220
  829SOL    HW2 2777   1.902   3.936   1.075  0.0588  3.0414 -0.7140
  830SOL     OW 2778   1.495   2.035   0.267 -0.1417 -0.3430  0.2863
  830SOL    HW1 2779   1.470   1.968   0.197  1.2924 -0.2581 -0.3493
  830SOL    HW2 2780   1.416   2.093   0.288 -0.4773 -0.0334 -1.6464
  831SOL     OW 2781   5.553   1.930   1.794 -0.1402  0.0229  0.8792
  831SOL    HW1 2782   5.609   1.938   1.877 -0.4236 -0.4247  1.1179
  831SOL    HW2 2783   5.582   1.999   1.728  0.7566 -0.2524  0.9710
  832SOL     OW 2784   2.321   3.616   4.556  0.0442  0.1823 -0.3865
  832SOL    HW1 2785   2.233   3.627   4.602 -0.0389  0.1657 -0.5428
  832SOL    HW2 2786   2.325   3.527   4.511  0.5965 -0.3147  0.6077
  833SOL     OW 2787   5.366   3.582   5.332 -0.0391  0.2904  0.3072
  833SOL    HW1 2788   5.398   3.519   5.261  0.9236 -1.4058  2.1508
  833SOL    HW2 2789   5.435   3.652   5.348 -1.7656  3.0079 -2.8754
  834SOL     OW 2790   2.908   3.348   1.016 -0.2057  0.4999 -0.1770
  834SOL    HW1 2791   2.830   3.382   0.963 -0.7958  0.5826  0.7284
  834SOL    HW2 2792   2.932   3.415   1.086 -0.8334 -0.5346  1.0671
  835SOL     OW 2793   0.314   3.738   5.904  0.2609 -0.4539 -0.4528
  835SOL    HW1 2794   0.304   3.667   5.973 -1.3471 -0.4529 -0.6612
  835SOL    HW2 2795   0.281   3.825   5.940 -0.3554 -0.3989 -1.1210
  836SOL     OW 2796   0.474   1.820   2.268  0.2367  0.4206 -0.3060
  836SOL    HW1 2797   0.411   1.897   2.272 -1.1704 -0.6517 -0.7317
  836SOL    HW2 2798   0.559   1.842   2.316 -1.3175  1.1203  2.2882
  837SOL     OW 2799   5.051   2.711   2.134  0.0917  0.1394 -0.1819
  837SOL    HW1 2800   5.064   2.810   2.124  2.1150 -0.1497 -0.9501
  837SOL    HW2 2801   5.101   2.679   2.215 -0.0470 -0.3414 -0.2854
  838SOL     OW 2802   2.001   4.218   1.630  0.4078  0.6453 -0.2740
  838SOL    HW1 2803   2.051   4.261   1.556 -0.2190  1.9614  0.0310
  838SOL    HW2 2804   2.002   4.119   1.619  2.2704  0.6851 -0.7671
  839SOL     OW 2805   0.765   5.786   3.785  0.3119  0.2156  0.9161
  839SOL    HW1 2806   0.862   5.791   3.759  0.2182 -1.6268  0.0515
  839SOL    HW2 2807   0.756   5.726   3.864 -0.3647 -2.1012 -0.8168
  840SOL     OW 2808   0.454   2.683   0.995 -0.2898 -0.2477  0.1998
  840SOL    HW1 2809   0.544   2.727   1.003  0.0298 -0.7266 -0.6256
  840SOL    HW2 2810   0.392   2.743   0.945  0.0917 -0.6333 -0.7615
  841SOL     OW 2811   0.883   2.486   0.371  0.0066 -0.4024  0.1147
  841SOL    HW1 2812   0.951   2.554   0.399  0.2205  0.6963 -2.7738
  841SOL    HW2 2813   0.909   2.396   0.408  1.9028  0.3665  0.7674
  842SOL     OW 2814   3.492   1.901   5.575 -0.5633 -0.0611  0.0487
  842SOL    HW1 2815   3.410   1.957   5.586 -0.0730  0.6619  0.0468
  842SOL    HW2 2816   3.572   1.952   5.605 -0.0252 -0.4999 -0.6120
  843SOL     OW 2817   0.961   3.746   1.455 -0.0289 -0.0955 -0.7106
  843SOL    HW1 2818   0.905   3.667   1.480 -0.0790  0.2420  0.3064
  843SOL    HW2 2819   1.055   3.717   1.440  0.0355 -0.3078  0.0472
  844SOL     OW 2820   0.085   1.999   2.103 -0.2863  0.2054 -0.1521
  844SOL    HW1 2821   0.088   1.955   2.013  0.0048 -2.1570  0.9253
  844SOL    HW2 2822   0.049   1.934   2.170  2.7579  0.5717  2.0671
  845SOL     OW 2823   0.502   2.040   0.642 -0.0381 -0.2160 -0.1064
  845SOL    HW1 2824   0.432   2.085   0.698  0.9675  0.4338  0.6701
  845SOL    HW2 2825   0.459   2.000   0.560 -1.0972  1.4715 -0.4274
  846SOL     OW 2826   1.438   1.477   0.652 -0.2796 -0.0552 -0.1638
  846SOL    HW1 2827   1.536   1.461   0.648 -0.2739 -1.2063  2.5078
  846SOL    HW2 2828   1.393   1.429   0.577  1.2284  1.8299 -2.4545
  847SOL     OW 2829   0.614   4.900   2.636 -0.0769  0.0111 -0.0197
  847SOL    HW1 2830   0.585   4.837   2.564  1.4942 -0.4133 -0.3182
  847SOL    HW2 2831   0.548   4.975   2.642 -0.0281  0.3012 -2.2011
  848SOL     OW 2832   0.952   3.958   1.204 -0.2277  0.4543 -0.3844
  848SOL    HW1 2833   0.937   3.918   1.294  0.0573  1.4717  0.1315
  848SOL    HW2 2834   0.866   3.963   1.154 -0.4329  0.1336 -0.0594
  849SOL     OW 2835   5.579   2.508   1.457 -0.2956  0.3051 -0.1022
  849SOL    HW1 2836   5.522   2.572   1.509 -0.9086 -2.0308  2.3027
  849SOL    HW2 2837   5.522   2.435   1.420  0.6160  0.1581 -1.2838
  850SOL     OW 2838   1.231   3.252   1.427 -0.2445  0.3883 -0.1032
  850SOL    HW1 2839   1.140   3.295   1.430 -0.1575  0.7263 -1.5124
  850SOL    HW2 2840   1.300   3.322   1.411  0.1790  0.0311  0.1709
  851SOL     OW 2841   4.264   3.107   3.395  0.2557  0.2464 -0.4406
  851SOL    HW1 2842   4.346   3.162   3.413 -0.1804  1.5993 -2.2668
  851SOL    HW2 2843   4.188   3.168   3.372 -1.4113 -0.9556  1.5170
  852SOL     OW 2844   5.793   2.632   1.902 -0.1258 -0.1969 -0.3679
  852SOL    HW1 2845   5.816   2.714   1.955  0.4451 -1.3701  1.3075
  852SOL    HW2 2846   5.705   2.644   1.858  0.1382  1.4645 -0.5031
  853SOL     OW 2847   1.724   3.053   5.403 -0.3462  0.3877 -0.0046
  853SOL    HW1 2848   1.734   3.098   5.491 -1.3214 -1.0264  0.8794
  853SOL    HW2 2849   1.744   3.117   5.329  2.5318  1.0469  1.2452
  854SOL     OW 2850   2.216   3.596   1.328  0.3424 -0.4091  0.2093
  854SOL    HW1 2851   2.230   3.599   1.229 -0.0208 -1.1695  0.1284
  854SOL    HW2 2852   2.183   3.505   1.355 -3.2158  0.8248  0.5458
  855SOL     OW 2853   0.876   3.762   5.729 -0.1060 -0.1455 -0.3349
  855SOL    HW1 2854   0.796   3.719   5.772  0.5020 -0.7044  0.2505
  855SOL    HW2 2855   0.859   3.860   5.718 -1.0666 -0.3353 -0.6719
  856SOL     OW 2856   5.092   2.572   0.798  0.0522  0.1582  0.1436
  856SOL    HW1 2857   5.008   2.526   0.827 -0.3360  0.7501 -0.0242
  856SOL    HW2 2858   5.156   2.577   0.876  0.6762 -1.8769 -0.1854
  857SOL     OW 2859   0.483   4.202   2.949 -0.2377 -0.3886 -0.0927
  857SOL    HW1 2860   0.544   4.224   3.025 -1.1693 -0.7236  0.7721
  857SOL    HW2 2861   0.538   4.175   2.869  0.7406 -1.3712  0.8763
  858SOL     OW 2862   5.606   2.259   5.362  0.8758  0.1850  0.2657
  858SOL    HW1 2863   5.599   2.307   5.275  0.5662 -0.5508 -0.1308
  858SOL    HW2 2864   5.673   2.185   5.355  1.0800  0.3136  0.7527
  859SOL     OW 2865   2.697   5.407   0.799  0.2643  0.4474 -0.7112
  859SOL    HW1 2866   2.684   5.505   0.811  0.7694  0.8644 -2.9850
  859SOL    HW2 2867   2.613   5.367   0.762  0.4986  0.3004 -1.0932
  860SOL     OW 2868   2.290   2.045   5.426  0.1192  0.3511  0.1720
  860SOL    HW1 2869   2.334   1.979   5.487 -0.5757 -0.6326 -0.3681
  860SOL    HW2 2870   2.193   2.050   5.447 -0.0553  0.2894 -0.5987
  861SOL     OW 2871   0.973   4.262   2.706 -0.2076 -0.0555 -0.2927
  861SOL    HW1 2872   1.022   4.219   2.630 -0.7182 -0.7633 -0.2363
  861SOL    HW2 2873   1.006   4.225   2.793  0.0336  0.3928 -0.1919
  862SOL     OW 2874   1.718   2.235   1.027 -0.2865 -0.2598  0.2266
  862SOL    HW1 2875   1.709   2.136   1.041 -0.9875 -0.0591  1.3584
  862SOL    HW2 2876   1.629   2.279   1.040  0.4483  0.7840  2.3395
  863SOL     OW 2877   0.849   3.273   1.977 -0.6915  0.3621 -0.0428
  863SOL    HW1 2878   0.813   3.313   1.893 -1.3290 -1.5236 -0.7073
  863SOL    HW2 2879   0.773   3.235   2.031 -0.0627 -0.4354  0.2965
  864SOL     OW 2880   5.573   4.667   4.350  0.2025 -0.1830 -0.3430
  864SOL    HW1 2881   5.513   4.619   4.414 -0.4966 -0.2563 -1.0468
  864SOL    HW2 2882   5.552   4.639   4.256  1.5363 -0.4227 -0.5855
  865SOL     OW 2883   1.506   4.217   0.540  0.0974 -0.1236  0.0870
  865SOL    HW1 2884   1.513   4.118   0.549  0.1512 -0.2957 -1.4909
  865SOL    HW2 2885   1.598   4.256   0.536  0.1251 -0.3064 -1.7640
  866SOL     OW 2886   0.775   1.372   2.346  0.3375  0.1697 -0.5463
  866SOL    HW1 2887   0.697   1.353   2.287  0.6887 -2.1999 -0.3709
  866SOL    HW2 2888   0.854   1.319   2.314  0.5611 -1.1270  1.9250
  867SOL     OW 2889   4.529   1.974   1.354 -0.3085 -0.0195 -0.9577
  867SOL    HW1 2890   4.541   1.878   1.379  1.4572  0.2925 -0.4773
  867SOL    HW2 2891   4.546   1.985   1.257  1.9710  0.1403 -0.5918
  868SOL     OW 2892   0.198   3.643   5.682 -0.3306  0.0747 -0.3118
  868SOL    HW1 2893   0.124   3.699   5.646  0.0006  0.5411 -0.2720
  868SOL    HW2 2894   0.230   3.682   5.768 -1.9838 -1.7306  1.2201
  869SOL     OW 2895   0.577   1.830   0.383  0.2095  0.0319 -0.5140
  869SOL    HW1 2896   0.479   1.830   0.406 -0.1920 -0.3308 -2.0546
  869SOL    HW2 2897   0.600   1.918   0.342 -0.0307 -0.6498 -2.1917
  870SOL     OW 2898   1.959   2.800   0.721  0.1114 -0.0173 -1.0241
  870SOL    HW1 2899   2.050   2.769   0.748 -0.4847 -1.5604 -0.6869
  870SOL    HW2 2900   1.962   2.898   0.698  1.9828 -0.2040 -1.7033
  871SOL     OW 2901   2.397   2.293   0.938  0.2019  0.3216  0.0267
  871SOL    HW1 2902   2.311   2.242   0.932 -0.6393  1.6621  0.2472
  871SOL    HW2 2903   2.470   2.231   0.966 -1.0181 -0.5486  1.4803
  872SOL     OW 2904   4.979   2.816   2.499 -0.2985  0.4605  0.2574
  872SOL    HW1 2905   5.047   2.775   2.439 -2.3802 -0.1854 -1.7737
  872SOL    HW2 2906   4.939   2.897   2.455  0.4569  2.0026  2.2411
  873SOL     OW 2907  -0.014   3.625   5.903 -0.0114  0.2054 -0.1204
  873SOL    HW1 2908  -0.043   3.639   5.808  1.4953  3.9155 -0.2094
  873SOL    HW2 2909   0.057   3.555   5.906  0.9307  0.9789 -2.0402
  874SOL     OW 2910   1.082   3.666   0.662 -0.3264 -0.6001  0.5469
  874SOL    HW1 2911   1.076   3.577   0.616  1.7431 -1.1578  1.2458
  874SOL    HW2 2912   1.090   3.652   0.760  2.2464  0.1674  0.5284
  875SOL     OW 2913   1.649   1.605   5.357  0.2093  0.1989  0.0308
  875SOL    HW1 2914   1.714   1.657   5.412  0.4633  1.5044 -1.4319
  875SOL    HW2 2915   1.557   1.645   5.368  0.3186  0.6771 -0.7113
  876SOL     OW 2916   5.934   4.029   1.099 -0.1030 -0.3442 -0.3608
  876SOL    HW1 2917   5.862   4.001   1.035  0.1002 -0.3550 -0.5831
  876SOL    HW2 2918   5.898   4.101   1.158 -0.2231 -0.1734 -0.6368
  877SOL     OW 2919   0.022   2.746   1.718  0.0941  0.4740  0.3060
  877SOL    HW1 2920   0.117   2.719   1.734  0.0786 -1.2926 -1.9851
  877SOL    HW2 2921  -0.036   2.706   1.788  0.9051  0.5619  1.0459
  878SOL     OW 2922   4.705   3.224   4.491 -0.7533  0.4261  0.1422
  878SOL    HW1 2923   4.679   3.164   4.566 -2.5612 -0.0881 -0.8185
  878SOL    HW2 2924   4.804   3.222   4.478 -0.6494 -1.4070  0.9171
  879SOL     OW 2925   0.210   2.232   1.654  0.5476  0.4202 -0.6489
  879SOL    HW1 2926   0.194   2.265   1.748 -0.5033  0.3591 -0.7915
  879SOL    HW2 2927   0.294   2.178   1.652 -0.0097 -0.5368  0.5127
  880SOL     OW 2928   2.329   3.235   1.513  0.7152 -0.2464  0.1136
  880SOL    HW1 2929   2.322   3.306   1.582  1.1274 -1.2632  1.2346
  880SOL    HW2 2930   2.247   3.237   1.454  1.1762  1.7601 -0.5191
  881SOL     OW 2931   1.248   2.508   0.418 -0.2371 -0.5044  0.2849
  881SOL    HW1 2932   1.164   2.559   0.403 -1.2435 -2.1961 -0.0075
  881SOL    HW2 2933   1.270   2.453   0.337  1.1583 -0.0966  0.3510
  882SOL     OW 2934   0.192   3.493   1.806  0.3661 -0.1815  0.4788
  882SOL    HW1 2935   0.180   3.577   1.858  1.1295  0.1254  0.1684
  882SOL    HW2 2936   0.289   3.468   1.803  0.5992  0.6873 -2.0991
  883SOL     OW 2937   0.218   3.136   0.102 -0.0605  0.0390 -0.3089
  883SOL    HW1 2938   0.136   3.171   0.148 -1.3068 -2.9828 -0.0466
  883SOL    HW2 2939   0.298   3.187   0.135 -1.6300  2.2367  0.3485
  884SOL     OW 2940   2.518   3.748   5.827 -0.0058 -0.2539 -0.3133
  884SOL    HW1 2941   2.525   3.839   5.785  1.5162 -0.2050  0.0134
  884SOL    HW2 2942   2.595   3.692   5.798 -0.7717 -1.3679 -0.2673
  885SOL     OW 2943   1.223   2.004   5.118  0.4267  0.0815  0.0280
  885SOL    HW1 2944   1.254   1.912   5.142  0.7782 -0.0414 -0.8537
  885SOL    HW2 2945   1.286   2.071   5.157  0.3010 -0.0514  0.4744
  886SOL     OW 2946   1.624   2.761   1.030  1.0405  0.2112 -0.2683
  886SOL    HW1 2947   1.719   2.751   1.060  0.4806 -0.2851  1.4130
  886SOL    HW2 2948   1.595   2.678   0.982  0.3150 -1.3195  2.6106
  887SOL     OW 2949   5.630   1.747   2.870 -0.7438  0.1196 -0.3466
  887SOL    HW1 2950   5.645   1.653   2.841  1.9691  0.2036  0.4574
  887SOL    HW2 2951   5.646   1.755   2.968  0.1733  1.5668 -0.5744
  888SOL     OW 2952   2.702   2.489   1.957 -0.8615  0.4615  0.3040
  888SOL    HW1 2953   2.801   2.492   1.974 -1.1773  0.4532  2.4430
  888SOL    HW2 2954   2.675   2.396   1.933 -0.3170  0.5453 -0.6840
  889SOL     OW 2955   5.509   3.798   2.815  0.2086 -0.4745  0.6520
  889SOL    HW1 2956   5.564   3.723   2.852  1.0967  0.4723  1.3224
  889SOL    HW2 2957   5.569   3.874   2.792 -0.6998  0.1182  0.2003
  890SOL     OW 2958   0.738   4.862   2.101  0.1068  0.1661 -0.1870
  890SOL    HW1 2959   0.789   4.782   2.132  0.1044  0.2503  0.0417
  890SOL    HW2 2960   0.802   4.939   2.088  0.3194 -0.2349 -1.7360
  891SOL     OW 2961   0.403   1.736   1.682 -0.1650  0.0287  0.0530
  891SOL    HW1 2962   0.496   1.723   1.717  0.2578  2.3108 -0.0635
  891SOL    HW2 2963   0.402   1.811   1.615 -2.1146  0.1778  0.1786
  892SOL     OW 2964   0.931   2.866   0.928 -0.0684 -0.5892  0.0635
  892SOL    HW1 2965   0.972   2.955   0.908 -0.0498 -0.5930  0.0846
  892SOL    HW2 2966   0.966   2.798   0.863 -0.1002 -0.5767  0.0327
  893SOL     OW 2967   0.518   1.539   1.900  0.1279 -0.6798  0.5874
  893SOL    HW1 2968   0.502   1.502   1.808 -0.7719  1.0280 -0.0064
  893SOL    HW2 2969   0.612   1.521   1.928  0.5344 -0.9046 -0.8478
  894SOL     OW 2970   1.151   3.994   1.682 -0.3827  0.9215  0.2228
  894SOL    HW1 2971   1.065   4.013   1.634 -0.4507 -1.4179 -0.7238
  894SOL    HW2 2972   1.195   3.916   1.639  0.8883  0.3877  2.4003
  895SOL     OW 2973   2.411   4.077   5.165 -0.1120 -0.5255 -0.2439
  895SOL    HW1 2974   2.388   4.033   5.252 -0.1757  0.5096  0.2763
  895SOL    HW2 2975   2.327   4.102   5.117 -0.0764 -0.2435 -0.1602
  896SOL     OW 2976   1.631   1.056   1.685  0.2724  0.1063  0.1523
  896SOL    HW1 2977   1.729   1.073   1.677 -0.0183  1.6747 -0.2449
  896SOL    HW2 2978   1.583   1.142   1.703 -1.4644  0.1088 -3.5683
  897SOL     OW 2979   0.160   4.630   1.483 -0.2203  0.1217  0.0212
  897SOL    HW1 2980   0.193   4.595   1.571 -1.0914  0.0348  0.3233
  897SOL    HW2 2981   0.235   4.674   1.434  0.1520  0.6523  1.0484
  898SOL     OW 2982   4.797   4.468   5.581 -0.4582 -0.2719 -0.5937
  898SOL    HW1 2983   4.896   4.454   5.576 -0.1243  1.7958 -0.5590
  898SOL    HW2 2984   4.762   4.426   5.664  1.1294  2.5626  1.6686
  899SOL     OW 2985   1.856   4.577   1.458  0.3476 -0.6958 -0.1079
  899SOL    HW1 2986   1.814   4.639   1.391 -1.3528  0.2640  1.7318
  899SOL    HW2 2987   1.789   4.507   1.483  0.6668 -0.5708  1.1376
  900SOL     OW 2988   1.203   2.937   0.585 -0.2488  0.0726 -0.6708
  900SOL    HW1 2989   1.206   3.037   0.588  0.7951  0.0419  0.0516
  900SOL    HW2 2990   1.119   2.907   0.541 -0.3836  1.2728 -1.2619
  901SOL     OW 2991   3.881   2.678   2.143  0.0327 -0.4320 -0.5251
  901SOL    HW1 2992   3.907   2.742   2.071  0.5883 -0.2240 -0.1533
  901SOL    HW2 2993   3.804   2.622   2.113 -1.9034  1.8482 -0.1095
  902SOL     OW 2994   5.050   5.494   1.954  0.2236  0.5735 -0.1742
  902SOL    HW1 2995   5.111   5.418   1.931 -0.1944 -0.2331  1.2372
  902SOL    HW2 2996   4.996   5.518   1.874 -0.6159 -1.5698 -0.3223
  903SOL     OW 2997   2.597   1.892   3.177  0.6214  0.1369  0.3188
  903SOL    HW1 2998   2.629   1.980   3.212 -1.7304  2.0693 -1.9391
  903SOL    HW2 2999   2.545   1.907   3.092 -0.1233 -3.4325 -0.0133
  904SOL     OW 3000   4.666   1.795   1.979 -0.2203 -0.0653 -0.2883
  904SOL    HW1 3001   4.708   1.865   1.922  1.5892 -0.7627  0.1275
  904SOL    HW2 3002   4.607   1.737   1.922  1.8773 -1.0177 -1.6152
  905SOL     OW 3003   1.343   2.916   4.441 -0.5591  1.1987 -0.6230
  905SOL    HW1 3004   1.322   2.997   4.495 -0.9045  1.4047 -1.0638
  905SOL    HW2 3005   1.395   2.943   4.359 -1.0008  1.0215 -0.9643
  906SOL     OW 3006   1.236   0.824   0.432 -0.1887  0.2361 -0.6350
  906SOL    HW1 3007   1.166   0.759   0.402  0.6934 -0.4406 -1.2817
  906SOL    HW2 3008   1.264   0.880   0.355  0.2733  0.2274 -0.4737
  907SOL     OW 3009   0.395   1.942   1.005 -0.0486 -0.1904  0.7916
  907SOL    HW1 3010   0.304   1.915   1.037  0.0578 -1.1642  0.3089
  907SOL    HW2 3011   0.430   1.874   0.941  0.8824  0.3460  0.7011
  908SOL     OW 3012   1.215   2.181   2.722 -0.5216  0.3120 -0.9550
  908SOL    HW1 3013   1.236   2.268   2.766  0.8511 -0.5645  0.2025
  908SOL    HW2 3014   1.254   2.180   2.630  1.1811  0.2167 -0.2691
  909SOL     OW 3015   5.242   1.435   0.637  0.0840 -0.8269  0.3564
  909SOL    HW1 3016   5.220   1.339   0.621  0.3783 -0.8918  0.3379
  909SOL    HW2 3017   5.157   1.488   0.645 -0.0767 -0.7918 -1.3159
  910SOL     OW 3018   5.813   2.561   5.135  0.5355  0.4074  0.5338
  910SOL    HW1 3019   5.750   2.489   5.165 -0.0532  0.3951 -0.6481
  910SOL    HW2 3020   5.878   2.582   5.208  0.2704 -0.8278  1.1506
  911SOL     OW 3021   1.522   5.022   1.056  0.1840  0.4598  0.0973
  911SOL    HW1 3022   1.451   5.092   1.043  0.3079  0.5854  0.0865
  911SOL    HW2 3023   1.479   4.934   1.074  0.0121  0.3897 -0.6133
  912SOL     OW 3024   5.797   0.378   1.830  0.5586 -0.0484  0.0401
  912SOL    HW1 3025   5.864   0.442   1.793  1.3349 -1.6435 -1.4594
  912SOL    HW2 3026   5.806   0.289   1.784 -2.1870 -0.5099  0.2011
  913SOL     OW 3027   1.008   2.223   2.010 -0.1340  0.4056  0.0263
  913SOL    HW1 3028   1.013   2.322   1.997  1.2193  0.1075 -2.1915
  913SOL    HW2 3029   0.926   2.187   1.965 -0.5354  0.4717  0.6872
  914SOL     OW 3030   1.915   2.439   2.813 -0.2517  0.2211  0.6865
  914SOL    HW1 3031   1.838   2.451   2.749 -1.1474  1.8865  1.9835
  914SOL    HW2 3032   1.910   2.348   2.854 -0.0612 -0.6105 -1.0765
  915SOL     OW 3033   5.205   2.064   0.296 -0.3787 -0.3345  0.3078
  915SOL    HW1 3034   5.236   1.970   0.283 -0.7654 -0.2092 -1.8785
  915SOL    HW2 3035   5.111   2.073   0.262  0.1645  1.1525 -0.8852
  916SOL     OW 3036   0.219   3.907   0.334  0.1493  0.0596  0.1822
  916SOL    HW1 3037   0.136   3.907   0.390  0.6550 -0.3616  0.9504
  916SOL    HW2 3038   0.196   3.935   0.240 -0.6270  1.2236  0.7017
  917SOL     OW 3039   1.298   1.365   1.412  0.1592 -0.3169  0.1681
  917SOL    HW1 3040   1.254   1.455   1.417 -0.4042 -0.5309 -0.6860
  917SOL    HW2 3041   1.255   1.312   1.340  1.4952 -0.7265 -0.3439
  918SOL     OW 3042   4.768   1.093   3.300  0.3162  0.2865  0.1913
  918SOL    HW1 3043   4.771   1.189   3.272  1.3490  0.2510  0.1508
  918SOL    HW2 3044   4.790   1.085   3.397  2.8147 -0.0975 -0.3402
  919SOL     OW 3045   1.122   3.149   2.698  0.2582  0.3336 -0.5077
  919SOL    HW1 3046   1.069   3.091   2.636 -0.7185  0.4764  0.1702
  919SOL    HW2 3047   1.181   3.091   2.754 -0.4726  0.0051 -0.0594
  920SOL     OW 3048   0.620   4.250   3.162  0.3193  0.5276 -0.7317
  920SOL    HW1 3049   0.600   4.344   3.135  1.8168  1.5416  1.3835
  920SOL    HW2 3050   0.716   4.243   3.188 -0.2036 -1.1118  0.9630
  921SOL     OW 3051   0.724   4.358   1.518 -0.0559 -0.1079  0.4720
  921SOL    HW1 3052   0.669   4.296   1.462  0.3836 -0.6806  0.6668
  921SOL    HW2 3053   0.819   4.327   1.519  0.1277  0.4465  0.7525
  922SOL     OW 3054   1.325   2.628   1.291  0.1288  0.2190 -0.0454
  922SOL    HW1 3055   1.363   2.540   1.319  0.3569 -0.1751 -1.4752
  922SOL    HW2 3056   1.319   2.631   1.191 -2.0991  0.8883  0.0492
  923SOL     OW 3057   3.150   0.984   0.420 -0.0389 -0.4561  0.3390
  923SOL    HW1 3058   3.218   0.945   0.482 -0.1215 -0.2400  0.5669
  923SOL    HW2 3059   3.196   1.046   0.356  0.0802 -0.8562  0.0285
  924SOL     OW 3060   0.655   3.348   2.548  0.5104  0.2419 -0.0745
  924SOL    HW1 3061   0.589   3.407   2.595 -2.3175 -2.4373 -0.4227
  924SOL    HW2 3062   0.649   3.363   2.450 -0.3962 -0.7561 -0.1814
  925SOL     OW 3063   1.204   4.225   3.475 -0.1394  0.0220  0.2951
  925SOL    HW1 3064   1.229   4.173   3.393 -0.8415  0.1854 -0.0344
  925SOL    HW2 3065   1.234   4.175   3.556 -1.7163 -1.4502  0.0264
  926SOL     OW 3066   0.769   3.701   2.328  0.4025  0.5355  0.6172
  926SOL    HW1 3067   0.786   3.618   2.277 -2.1079  0.3734 -0.0789
  926SOL    HW2 3068   0.709   3.681   2.406 -0.5001  1.7031  0.2552
  927SOL     OW 3069   2.143   3.430   4.041  0.1136  0.1565 -0.2857
  927SOL    HW1 3070   2.084   3.495   3.992 -0.4081  0.7088  1.0193
  927SOL    HW2 3071   2.232   3.473   4.058  0.1624  0.1104 -0.4314
  928SOL     OW 3072   5.245   1.429   2.066 -0.1290  0.5163  0.1716
  928SOL    HW1 3073   5.281   1.351   2.116 -3.2371  0.4569  2.5777
  928SOL    HW2 3074   5.316   1.500   2.060  1.7658 -1.2588  0.6257
  929SOL     OW 3075   2.679   1.947   2.215  0.1797 -0.0485  0.2329
  929SOL    HW1 3076   2.736   1.909   2.142 -0.4959 -1.5182  0.4161
  929SOL    HW2 3077   2.723   1.934   2.303 -0.1688 -0.6930  0.3217
  930SOL     OW 3078   0.778   0.674   3.875 -0.0068  0.3726 -0.5196
  930SOL    HW1 3079   0.818   0.764   3.890 -0.5194  0.3672  0.9955
  930SOL    HW2 3080   0.847   0.613   3.837  1.1709  0.6346  1.0942
  931SOL     OW 3081   1.110   1.766   3.236 -0.1580  0.2387 -0.2924
  931SOL    HW1 3082   1.075   1.859   3.251  0.9028  0.9797 -2.0281
  931SOL    HW2 3083   1.130   1.754   3.139  2.1958 -0.9000  0.2687
  932SOL     OW 3084   0.664   5.131   1.837  0.6697  0.1582  0.6245
  932SOL    HW1 3085   0.617   5.217   1.816  1.7656  1.2667  2.4232
  932SOL    HW2 3086   0.739   5.148   1.900 -0.8383 -2.4300  3.4513
  933SOL     OW 3087   5.821   4.670   2.258 -0.1256 -0.1766 -0.3539
  933SOL    HW1 3088   5.921   4.679   2.254 -0.1061 -0.9076 -2.9297
  933SOL    HW2 3089   5.779   4.758   2.237 -0.0503 -0.0673 -0.0631
  934SOL     OW 3090   0.251   5.371   1.952  0.1074 -0.1803  0.1970
  934SOL    HW1 3091   0.220   5.427   1.875  1.1428  0.7199  0.4055
  934SOL    HW2 3092   0.211   5.280   1.945  0.6204 -0.2994 -1.7182
  935SOL     OW 3093   5.576   3.299   4.017 -0.8744 -0.2385  0.6974
  935SOL    HW1 3094   5.499   3.294   3.955 -0.5917 -1.2985  0.4163
  935SOL    HW2 3095   5.646   3.232   3.990 -0.0456  0.3931  1.2005
  936SOL     OW 3096   0.167   3.849   1.167  0.6373  0.0724  0.1053
  936SOL    HW1 3097   0.114   3.934   1.161  2.3423  1.2490  0.8948
  936SOL    HW2 3098   0.131   3.792   1.241  1.1554  1.4104  1.4508
  937SOL     OW 3099   0.014   1.672   2.721 -0.5058  0.1687 -0.2548
  937SOL    HW1 3100   0.104   1.682   2.764 -0.4332 -0.5412 -0.2208
  937SOL    HW2 3101  -0.052   1.639   2.789 -0.7112  0.3579 -0.3613
  938SOL     OW 3102   0.869   1.620   2.987  0.1672 -0.1207 -0.5872
  938SOL    HW1 3103   0.817   1.591   2.907 -1.2071 -1.2881  0.6816
  938SOL    HW2 3104   0.910   1.541   3.032  4.2176  0.8216 -2.2069
  939SOL     OW 3105   1.083   2.951   1.788  0.0771 -0.2895 -0.0583
  939SOL    HW1 3106   1.169   2.908   1.757 -0.3265 -2.2431  1.3122
  939SOL    HW2 3107   1.014   2.880   1.799 -0.9307  0.8847  1.4342
  940SOL     OW 3108   4.297   3.746   0.112 -0.2739  0.4599 -0.0638
  940SOL    HW1 3109   4.223   3.680   0.096  0.3597 -0.1269 -0.6474
  940SOL    HW2 3110   4.369   3.703   0.167 -0.3302  1.0135  0.4606
  941SOL     OW 3111   1.610   4.062   1.565 -0.2719 -0.2573 -0.5824
  941SOL    HW1 3112   1.548   3.988   1.540 -0.9785  0.2841 -0.4843
  941SOL    HW2 3113   1.633   4.057   1.662 -1.3244  0.3617 -0.2871
  942SOL     OW 3114   1.721   2.721   3.212  0.1222  0.3391  0.0529
  942SOL    HW1 3115   1.685   2.630   3.231 -0.4856  0.6389  0.3693
  942SOL    HW2 3116   1.692   2.784   3.284  1.6876  0.4969  0.5864
  943SOL     OW 3117   0.558   3.364   2.276 -0.6150 -0.0721  0.7997
  943SOL    HW1 3118   0.491   3.425   2.235  0.2117  0.3045 -0.0229
  943SOL    HW2 3119   0.574   3.285   2.216 -0.8354 -0.5250  1.3235
  944SOL     OW 3120  -0.016   2.935   0.967  0.6608 -0.8043  0.2064
  944SOL    HW1 3121   0.057   2.922   1.034 -0.9068 -2.1481  1.7519
  944SOL    HW2 3122  -0.007   2.866   0.895  0.3751 -1.6265  0.9346
  945SOL     OW 3123   1.006   4.286   5.938 -0.4662 -0.3477 -0.0532
  945SOL    HW1 3124   0.983   4.383   5.946  0.1613 -0.2052  0.0834
  945SOL    HW2 3125   1.105   4.276   5.926 -0.5721 -0.9517 -0.4652
  946SOL     OW 3126   0.719   4.414   1.075  0.3390  0.3499 -0.2507
  946SOL    HW1 3127   0.780   4.384   1.148  0.6999  0.7853 -0.3650
  946SOL    HW2 3128   0.687   4.507   1.094  0.6611  0.5784 -0.7750
  947SOL     OW 3129   0.235   3.382   3.689  0.2220 -0.6291  0.4944
  947SOL    HW1 3130   0.163   3.349   3.749 -0.3665 -1.0962 -0.4400
  947SOL    HW2 3131   0.195   3.414   3.603  1.0550 -0.1307  0.2753
  948SOL     OW 3132   0.027   2.046   0.825 -0.4629 -0.5582 -0.4296
  948SOL    HW1 3133  -0.033   2.076   0.899 -0.6202 -1.4215 -0.1955
  948SOL    HW2 3134   0.025   1.946   0.819  0.6551 -0.5756 -0.6730
  949SOL     OW 3135   5.829   2.205   2.027  0.2117 -0.0612 -0.2776
  949SOL    HW1 3136   5.870   2.253   2.105  2.9583 -0.4657 -1.3320
  949SOL    HW2 3137   5.883   2.123   2.006 -0.7712 -0.2774 -2.2216
  950SOL     OW 3138   2.161   3.369   4.297  0.1790  0.3695 -0.5414
  950SOL    HW1 3139   2.148   3.413   4.208  3.0877  1.2696 -0.6111
  950SOL    HW2 3140   2.256   3.378   4.326  0.2136 -3.1448  0.9799
  951SOL     OW 3141   2.729   1.548   2.359 -0.7014 -0.2462  0.1761
  951SOL    HW1 3142   2.790   1.563   2.281 -0.3676  0.9073  0.6431
  951SOL    HW2 3143   2.643   1.598   2.345 -0.0596  1.2011  1.1958
  952SOL     OW 3144   1.258   2.148   2.397 -0.0072 -0.0210  0.0348
  952SOL    HW1 3145   1.353   2.132   2.422  0.1507 -0.3755 -0.7516
  952SOL    HW2 3146   1.250   2.149   2.297 -0.7972  0.2028  0.0942
  953SOL     OW 3147   2.335   3.596   2.478 -0.0195 -0.3694 -0.5344
  953SOL    HW1 3148   2.285   3.519   2.439  0.5008 -0.0077 -1.9761
  953SOL    HW2 3149   2.270   3.661   2.518 -0.4815 -1.3760  0.4010
  954SOL     OW 3150   5.717   3.108   0.939 -0.6581  0.2393  0.1224
  954SOL    HW1 3151   5.789   3.045   0.969  1.0489  2.3296  0.6492
  954SOL    HW2 3152   5.678   3.075   0.853  3.2355  0.5865 -2.0197
  955SOL     OW 3153   1.114   1.817   2.360  0.4536 -0.0296  0.0614
  955SOL    HW1 3154   1.078   1.724   2.367 -0.4161  0.2771 -0.1015
  955SOL    HW2 3155   1.162   1.829   2.273 -0.4713  0.0013 -0.4625
  956SOL     OW 3156   0.645   3.858   0.634 -0.0489  0.0191 -0.1092
  956SOL    HW1 3157   0.640   3.765   0.671 -0.2272 -0.4431 -1.2282
  956SOL    HW2 3158   0.577   3.868   0.561 -0.3494  1.1844  0.3135
  957SOL     OW 3159   0.128   1.280   3.261  0.1362  0.0292  0.2547
  957SOL    HW1 3160   0.042   1.326   3.279  0.6457 -0.0555  3.4168
  957SOL    HW2 3161   0.119   1.182   3.279  1.1611  0.2055  1.9362
  958SOL     OW 3162   1.041   2.413   3.042 -0.1074  0.3111 -0.0595
  958SOL    HW1 3163   1.102   2.472   3.095 -1.0030  1.9000 -0.7244
  958SOL    HW2 3164   1.027   2.452   2.951  3.3129 -3.5228 -2.5985
  959SOL     OW 3165   0.362   2.854   3.212 -0.2009  0.4405  0.2323
  959SOL    HW1 3166   0.434   2.887   3.273  1.5323 -0.4251 -1.2591
  959SOL    HW2 3167   0.329   2.766   3.245  0.5297  0.1057  0.0813
  960SOL     OW 3168   2.459   1.174   1.779  0.7247 -0.4464 -0.2429
  960SOL    HW1 3169   2.411   1.164   1.692  1.0182 -0.0722 -0.4497
  960SOL    HW2 3170   2.507   1.089   1.801 -1.2979 -1.4087  0.7504
  961SOL     OW 3171   0.150   2.451   2.538  0.2759  0.3747 -0.1864
  961SOL    HW1 3172   0.244   2.459   2.571  0.0580 -1.2189  0.9095
  961SOL    HW2 3173   0.087   2.441   2.615 -0.7773  1.1665 -0.9144
  962SOL     OW 3174   5.610   2.153   2.804  0.2020 -0.0599  0.0685
  962SOL    HW1 3175   5.591   2.164   2.706 -0.5824 -1.8701 -0.0207
  962SOL    HW2 3176   5.703   2.117   2.816  0.4703  0.5962  0.0421
  963SOL     OW 3177   0.936   3.432   4.164 -0.5750 -0.3925 -0.0338
  963SOL    HW1 3178   1.012   3.383   4.121 -0.4497 -1.5031  1.4104
  963SOL    HW2 3179   0.971   3.516   4.205 -0.9371  1.5642 -3.3060
  964SOL     OW 3180   1.398   2.764   0.756  0.0794  0.2933  0.5121
  964SOL    HW1 3181   1.491   2.800   0.751  0.6242 -1.2039 -1.3022
  964SOL    HW2 3182   1.335   2.825   0.708  0.2980  0.8119  0.8866
  965SOL     OW 3183   2.495   2.898   2.564  0.5175  0.6528 -0.0001
  965SOL    HW1 3184   2.402   2.898   2.526  0.5493  0.4356 -0.0821
  965SOL    HW2 3185   2.516   2.988   2.603  0.2703  0.6985  0.0250
  966SOL     OW 3186   0.401   3.498   2.725 -0.0117  0.1988  0.4511
  966SOL    HW1 3187   0.393   3.598   2.716  2.4774  0.4446  0.5048
  966SOL    HW2 3188   0.461   3.476   2.802 -0.3031 -1.3692  0.2599
  967SOL     OW 3189  -0.030   2.020   2.428 -0.4031 -0.0646  0.1338
  967SOL    HW1 3190  -0.006   2.082   2.353 -1.6022  0.7726  0.4042
  967SOL    HW2 3191   0.047   2.012   2.491  0.1344  0.3208 -0.4635
  968SOL     OW 3192   1.459   4.740   4.382  0.0856  0.3023  0.2131
  968SOL    HW1 3193   1.546   4.756   4.429 -0.1458 -1.2795  1.2904
  968SOL    HW2 3194   1.457   4.790   4.296  1.5881  1.2628  0.6967
  969SOL     OW 3195   2.518   3.410   2.089  0.2725  0.4265 -0.0200
  969SOL    HW1 3196   2.450   3.484   2.096 -1.2861 -0.7888 -1.3527
  969SOL    HW2 3197   2.569   3.421   2.004  0.7144  0.4944  0.2518
  970SOL     OW 3198   1.276   5.006   3.444  0.3112 -0.8237  0.4398
  970SOL    HW1 3199   1.364   4.958   3.452  1.3540  0.6727 -1.4168
  970SOL    HW2 3200   1.282   5.093   3.492  0.8501  0.5425 -1.9951
  971SOL     OW 3201   5.240   2.617   1.761  0.2101 -0.2047 -0.0262
  971SOL    HW1 3202   5.168   2.680   1.791  0.4159 -0.3361  0.7448
  971SOL    HW2 3203   5.264   2.637   1.666 -1.1952 -0.4714 -0.4621
  972SOL     OW 3204   2.218   2.877   1.144  0.0955 -0.8406  0.2666
  972SOL    HW1 3205   2.178   2.956   1.097 -0.1253 -0.8481  0.4421
  972SOL    HW2 3206   2.211   2.890   1.243  1.5201 -0.3327  0.3242
  973SOL     OW 3207   1.315   4.077   2.173  0.0324  0.4466 -0.1745
  973SOL    HW1 3208   1.299   4.057   2.076  1.7845 -0.5744 -0.2972
  973SOL    HW2 3209   1.290   3.997   2.227 -3.8794  2.0056  0.6447
  974SOL     OW 3210   1.754   4.160   2.295 -0.2193 -0.9497 -0.1228
  974SOL    HW1 3211   1.655   4.145   2.305 -0.8504 -0.2998 -3.7967
  974SOL    HW2 3212   1.778   4.250   2.330 -0.8264 -1.2531  1.1244
  975SOL     OW 3213   0.869   2.712   5.044  0.1591 -0.3039  0.0739
  975SOL    HW1 3214   0.951   2.693   5.098  0.3200 -0.9071 -0.3688
  975SOL    HW2 3215   0.816   2.785   5.087 -0.0573 -1.2160  1.3939
  976SOL     OW 3216   2.668   3.375   2.902  0.3088  0.5056 -0.1710
  976SOL    HW1 3217   2.690   3.277   2.898 -0.0046  0.4714 -2.2549
  976SOL    HW2 3218   2.599   3.391   2.973 -0.8822 -1.0597 -0.9204
  977SOL     OW 3219   0.876   5.112   2.022  0.2306  0.6330  0.1639
  977SOL    HW1 3220   0.891   5.210   2.009 -0.6189  0.9588  1.4681
  977SOL    HW2 3221   0.913   5.084   2.111 -1.4032  0.2227  0.7400
  978SOL     OW 3222   1.380   1.866   2.217 -0.5707 -0.7653 -0.4696
  978SOL    HW1 3223   1.338   1.943   2.169  0.8244 -0.5017 -1.3490
  978SOL    HW2 3224   1.445   1.901   2.285 -1.9374 -1.1549  1.0893
  979SOL     OW 3225   5.695   4.310   3.755  0.0262 -0.3990  0.3081
  979SOL    HW1 3226   5.671   4.404   3.732  1.1623 -0.2411 -0.3027
  979SOL    HW2 3227   5.770   4.279   3.696  0.0547 -1.4959  0.8874
  980SOL     OW 3228   2.047   3.744   3.004  0.2062 -0.3025  0.2603
  980SOL    HW1 3229   1.950   3.740   2.981 -0.0147 -0.5706  1.1961
  980SOL    HW2 3230   2.075   3.840   3.013 -0.3781 -0.2466  1.6011
  981SOL     OW 3231   0.157   3.071   3.192  0.5281 -0.2813  1.1779
  981SOL    HW1 3232   0.161   3.155   3.138 -0.4771 -0.1163  1.3264
  981SOL    HW2 3233   0.248   3.030   3.198  1.1766  1.1498  1.6661
  982SOL     OW 3234   2.437   2.087   2.214  0.1042  0.1592 -0.0484
  982SOL    HW1 3235   2.360   2.051   2.162  0.5507  0.8429 -1.2181
  982SOL    HW2 3236   2.507   2.017   2.225 -0.6309 -0.4423  0.9576
  983SOL     OW 3237   1.294   2.544   3.557 -0.2155  0.0059 -0.1952
  983SOL    HW1 3238   1.358   2.620   3.546  0.0735  0.1686  2.1471
  983SOL    HW2 3239   1.229   2.543   3.480  0.1846  2.1893 -0.6098
  984SOL     OW 3240   0.658   1.625   4.137 -0.0002  0.5416  0.3200
  984SOL    HW1 3241   0.636   1.678   4.055 -2.7473  0.6639  1.0576
  984SOL    HW2 3242   0.613   1.536   4.133 -0.4053  0.6503  1.8162
  985SOL     OW 3243   0.977   2.080   2.621  0.6520 -0.2278  0.1830
  985SOL    HW1 3244   1.058   2.128   2.655  1.7131  0.7081 -3.2190
  985SOL    HW2 3245   0.944   2.126   2.539 -3.2111 -0.8062  1.2409
  986SOL     OW 3246   2.308   1.774   2.002 -0.3507  0.0347 -0.6781
  986SOL    HW1 3247   2.344   1.798   1.912  1.8305  1.2552  0.4415
  986SOL    HW2 3248   2.270   1.855   2.046 -1.6547 -0.6066 -0.5568
  987SOL     OW 3249   5.199   4.806   4.151  0.0958  0.0497  0.1946
  987SOL    HW1 3250   5.112   4.850   4.132 -0.4669 -0.9673  0.3624
  987SOL    HW2 3251   5.196   4.763   4.241  1.2509  1.1647  0.7946
  988SOL     OW 3252   5.887   2.811   1.268  0.1819 -0.9498  0.1776
  988SOL    HW1 3253   5.870   2.830   1.365 -0.7325 -0.5639 -0.0583
  988SOL    HW2 3254   5.986   2.796   1.255  0.4574  0.0661  0.9698
  989SOL     OW 3255   5.932   3.233   2.514  0.3675 -0.3511 -0.2758
  989SOL    HW1 3256   5.923   3.275   2.605 -2.8992 -0.9570 -0.2020
  989SOL    HW2 3257   5.944   3.135   2.523 -0.2572 -0.4512 -0.4767
  990SOL     OW 3258   2.423   3.261   2.307 -0.0467  0.0581 -0.9125
  990SOL    HW1 3259   2.496   3.256   2.376  0.1794 -1.5491 -1.2293
  990SOL    HW2 3260   2.461   3.297   2.222  0.5244 -1.1664 -1.2067
  991SOL     OW 3261   5.449   2.103   3.783 -0.5819  0.0322 -0.3908
  991SOL    HW1 3262   5.410   2.180   3.833  2.3036  1.7586 -0.5570
  991SOL    HW2 3263   5.443   2.021   3.840 -2.7338  0.5640  0.2456
  992SOL     OW 3264   5.520   3.044   1.401  0.2247  0.3125 -0.1130
  992SOL    HW1 3265   5.432   3.044   1.448 -0.0268 -0.5147 -0.5638
  992SOL    HW2 3266   5.517   3.109   1.325  0.4704  1.2889  0.6916
  993SOL     OW 3267   1.958   0.390   4.407  0.1959 -0.2759 -0.0242
  993SOL    HW1 3268   1.924   0.312   4.461  0.6054 -0.8047 -0.5223
  993SOL    HW2 3269   1.950   0.474   4.462  0.2097 -0.7387  0.7043
  994SOL     OW 3270   0.162   3.850   2.882  0.8187  0.5957  0.1034
  994SOL    HW1 3271   0.124   3.784   2.817 -0.4101  1.3506  0.0241
  994SOL    HW2 3272   0.154   3.942   2.845 -2.2403  1.3595  2.2566
  995SOL     OW 3273   0.443   3.271   3.122  0.2802  0.1975  0.6783
  995SOL    HW1 3274   0.392   3.274   3.208 -1.5985 -1.1425 -0.3227
  995SOL    HW2 3275   0.483   3.361   3.104 -0.6675  0.9524  2.1540
  996SOL     OW 3276   1.676   4.449   1.988  0.0487 -0.0926  0.1521
  996SOL    HW1 3277   1.741   4.517   1.954  1.4144 -1.0979  0.6553
  996SOL    HW2 3278   1.596   4.495   2.025  0.0657  1.1528 -1.2745
  997SOL     OW 3279   1.828   3.142   1.080  0.4256 -0.8296  0.4528
  997SOL    HW1 3280   1.893   3.070   1.057 -1.5341 -2.6616  0.3597
  997SOL    HW2 3281   1.780   3.171   0.998  0.9504  0.3574  0.5515
  998SOL     OW 3282   2.734   0.619   1.856  0.3166  0.3668 -0.0400
  998SOL    HW1 3283   2.738   0.527   1.896 -0.4771  0.4302  0.1936
  998SOL    HW2 3284   2.785   0.620   1.770  0.7165 -0.1754  0.1883
  999SOL     OW 3285   5.841   2.105   5.383  0.7504 -0.4027  0.6124
  999SOL    HW1 3286   5.880   2.123   5.293  1.0319  1.3437  1.0376
  999SOL    HW2 3287   5.900   2.144   5.454 -0.9735  1.0366  1.3472
 1000SOL     OW 3288   5.156   0.995   2.400 -0.3609  0.2982  0.0434
 1000SOL    HW1 3289   5.062   0.986   2.432 -0.1973  1.0637  0.7721
 1000SOL    HW2 3290   5.188   1.088   2.415  0.7900 -0.1559  0.5517
 1001SOL     OW 3291   1.525   0.611   3.444  0.9372 -0.1628 -0.0467
 1001SOL    HW1 3292   1.432   0.629   3.475  0.5007 -1.4952 -0.5218
 1001SOL    HW2 3293   1.585   0.686   3.473 -0.0551  0.1669  1.2317
 1002SOL     OW 3294   0.902   3.101   1.144  0.2749  0.4233  0.4097
 1002SOL    HW1 3295   0.961   3.111   1.063  0.6776  2.9132  0.9300
 1002SOL    HW2 3296   0.817   3.056   1.117  1.0135 -0.1581 -1.0881
 1003SOL     OW 3297   1.266   0.998   3.672  0.1097  0.0279  0.0702
 1003SOL    HW1 3298   1.223   0.909   3.657 -0.0063  0.0931  0.0177
 1003SOL    HW2 3299   1.365   0.985   3.684  0.1948 -0.0403 -0.6419
 1004SOL     OW 3300   1.431   5.476   0.696  0.6625 -0.0177  0.2184
 1004SOL    HW1 3301   1.480   5.413   0.756 -0.8284 -0.2783  1.2322
 1004SOL    HW2 3302   1.469   5.568   0.705  2.2489 -0.5602 -0.5697
 1005SOL     OW 3303   1.910   3.161   2.045  0.0832  0.1226 -0.4460
 1005SOL    HW1 3304   1.811   3.175   2.043  0.4061  3.3901  1.0922
 1005SOL    HW2 3305   1.935   3.113   2.129 -0.0905  0.3532 -0.2633
 1006SOL     OW 3306   1.150   3.639   1.203  0.0607 -0.3232 -0.6022
 1006SOL    HW1 3307   1.247   3.617   1.193 -0.0801 -1.2032 -0.1463
 1006SOL    HW2 3308   1.131   3.727   1.160  0.9564 -0.3937 -1.1721
 1007SOL     OW 3309   1.378   3.078   3.050 -0.0487  0.2577  0.2641
 1007SOL    HW1 3310   1.453   3.098   2.987 -0.9474  2.0206 -0.3215
 1007SOL    HW2 3311   1.355   3.160   3.102 -0.5525 -0.6725  1.5688
 1008SOL     OW 3312   4.993   2.348   1.896 -0.0577  0.0234 -0.2443
 1008SOL    HW1 3313   5.039   2.421   1.845  0.2835 -1.0453 -1.5273
 1008SOL    HW2 3314   5.060   2.301   1.953 -0.2240  0.5263  0.3748
 1009SOL     OW 3315   5.177   3.051   2.344 -0.3741 -0.6026  0.4844
 1009SOL    HW1 3316   5.212   3.024   2.254 -0.9942 -1.4194  0.4799
 1009SOL    HW2 3317   5.183   2.973   2.406 -2.2931 -0.8130  0.4456
 1010SOL     OW 3318   5.030   1.980   3.935 -0.0391  0.6891 -0.2244
 1010SOL    HW1 3319   4.936   1.965   3.907  0.8230 -0.9388 -2.5343
 1010SOL    HW2 3320   5.081   2.023   3.860  1.8084 -1.5622 -0.3666
 1011SOL     OW 3321   1.578   3.083   2.886  0.3738 -0.2902 -0.0190
 1011SOL    HW1 3322   1.676   3.100   2.874  0.3263  0.8313  1.0615
 1011SOL    HW2 3323   1.553   3.000   2.836  1.4377  0.5674 -2.1396
 1012SOL     OW 3324   1.720   3.297   3.224 -0.1597  0.1214  0.3063
 1012SOL    HW1 3325   1.682   3.355   3.152 -0.9155  2.0065  2.1489
 1012SOL    HW2 3326   1.806   3.337   3.257 -0.0685 -0.4700  0.7995
 1013SOL     OW 3327   0.048   1.473   2.098  0.2002  0.7130 -0.1072
 1013SOL    HW1 3328   0.106   1.473   2.017  0.2037  0.4450 -0.1050
 1013SOL    HW2 3329  -0.029   1.411   2.084  1.3422 -0.9883  0.8996
 1014SOL     OW 3330   5.618   2.583   2.631  0.0450  0.1149 -0.0684
 1014SOL    HW1 3331   5.554   2.564   2.706 -1.7758  0.6753 -1.4160
 1014SOL    HW2 3332   5.618   2.507   2.567  0.1228  0.4703 -0.4953
 1015SOL     OW 3333   0.040   3.243   4.336  0.3382 -0.7110  0.1238
 1015SOL    HW1 3334   0.002   3.327   4.296  0.7534 -0.1553  0.8637
 1015SOL    HW2 3335   0.021   3.166   4.276  0.6000  0.0353 -0.9486
 1016SOL     OW 3336   1.299   2.499   2.154 -0.2166 -0.4356  0.2395
 1016SOL    HW1 3337   1.220   2.441   2.170 -1.9176  1.6997 -0.0234
 1016SOL    HW2 3338   1.303   2.524   2.057 -0.7512  1.5299  0.6918
 1017SOL     OW 3339   5.425   1.536   3.052 -0.8003  0.3352 -0.3070
 1017SOL    HW1 3340   5.362   1.484   2.994 -0.5220 -0.4456  0.0796
 1017SOL    HW2 3341   5.432   1.630   3.017 -1.0813  0.0401 -1.1865
 1018SOL     OW 3342   0.326   1.836   0.483 -0.0997 -0.4868 -0.4434
 1018SOL    HW1 3343   0.254   1.876   0.427 -2.0119  0.6078  2.5658
 1018SOL    HW2 3344   0.291   1.755   0.531  1.2170 -0.9473 -0.2130
 1019SOL     OW 3345   2.926   5.038   3.274  0.6340 -0.2987 -0.1109
 1019SOL    HW1 3346   2.922   5.038   3.174 -0.3660 -0.1130 -0.0786
 1019SOL    HW2 3347   2.941   5.131   3.307 -0.4813 -0.1235 -0.0542
 1020SOL     OW 3348   0.560   4.723   2.845 -0.6269 -0.1045  0.1546
 1020SOL    HW1 3349   0.524   4.773   2.923  2.2927  1.4778  0.6362
 1020SOL    HW2 3350   0.579   4.787   2.770 -1.3226 -1.2675 -1.0522
 1021SOL     OW 3351   0.088   3.107   3.463 -0.5970 -0.0102 -0.5650
 1021SOL    HW1 3352   0.019   3.179   3.458 -1.6968 -1.0276 -0.5729
 1021SOL    HW2 3353   0.126   3.090   3.372  1.6530  2.3560 -0.1811
 1022SOL     OW 3354   2.447   4.029   2.653 -0.0662 -0.8405 -0.1035
 1022SOL    HW1 3355   2.428   4.127   2.646  0.1994 -0.8638 -1.3439
 1022SOL    HW2 3356   2.361   3.980   2.670 -0.4738 -0.5328 -1.1882
 1023SOL     OW 3357   1.680   1.738   2.943 -0.1944 -0.3450  0.2257
 1023SOL    HW1 3358   1.697   1.732   2.844 -0.2872  0.1375  0.1787
 1023SOL    HW2 3359   1.587   1.709   2.963 -0.2746 -0.1552  0.1330
 1024SOL     OW 3360   5.606   2.115   0.679 -0.4957  0.0190 -0.5561
 1024SOL    HW1 3361   5.652   2.089   0.763  1.4393  2.4390 -0.7536
 1024SOL    HW2 3362   5.508   2.102   0.689 -0.3504  0.5157  2.1952
 1025SOL     OW 3363   1.293   2.473   2.743 -0.0640  0.0297  0.3359
 1025SOL    HW1 3364   1.304   2.509   2.650  2.8258  2.8866  1.6090
 1025SOL    HW2 3365   1.198   2.487   2.773 -0.4872  1.1482 -1.3712
 1026SOL     OW 3366   4.473   2.414   2.275 -0.6131  0.0068  0.1164
 1026SOL    HW1 3367   4.392   2.368   2.238  0.0140  0.1912 -1.5579
 1026SOL    HW2 3368   4.495   2.375   2.364 -1.0930 -1.7763 -0.4960
 1027SOL     OW 3369   0.698   2.412   1.442 -0.3292  0.4343 -0.3593
 1027SOL    HW1 3370   0.669   2.401   1.537 -1.7364 -2.4121 -0.9959
 1027SOL    HW2 3371   0.622   2.450   1.389 -0.5488 -0.5825 -0.8011
 1028SOL     OW 3372   2.390   1.543   3.355 -0.3241  0.0376 -0.1671
 1028SOL    HW1 3373   2.373   1.639   3.329 -0.7856  0.3718  1.3073
 1028SOL    HW2 3374   2.314   1.509   3.409  0.7578 -0.5148  1.0368
 1029SOL     OW 3375   0.588   1.575   4.521  0.1591 -0.1443  0.0247
 1029SOL    HW1 3376   0.488   1.578   4.512  0.2084  0.5465 -0.3803
 1029SOL    HW2 3377   0.628   1.654   4.474  0.8264  0.1658  1.0634
 1030SOL     OW 3378   0.816   3.653   1.775  0.0083 -1.0668  0.1844
 1030SOL    HW1 3379   0.767   3.607   1.700  0.3999 -1.4273  0.1433
 1030SOL    HW2 3380   0.912   3.664   1.749 -0.3130  0.9155 -0.3274
 1031SOL     OW 3381   0.396   2.283   1.925 -0.7125 -0.0156  0.1234
 1031SOL    HW1 3382   0.463   2.294   1.999 -1.2332 -1.9327  0.9342
 1031SOL    HW2 3383   0.362   2.189   1.924 -2.6433  0.6349 -0.9211
 1032SOL     OW 3384   1.199   1.612   1.439  0.3473 -0.1444 -0.4347
 1032SOL    HW1 3385   1.255   1.673   1.495 -0.0305 -1.9254  2.0775
 1032SOL    HW2 3386   1.103   1.641   1.444 -0.3325 -2.3956  3.2543
 1033SOL     OW 3387   0.400   2.666   2.356  0.0702 -0.6407  0.3690
 1033SOL    HW1 3388   0.401   2.593   2.425  0.4178 -0.3591  0.6674
 1033SOL    HW2 3389   0.384   2.754   2.401 -1.3475 -0.6348 -0.0983
 1034SOL     OW 3390   4.866   2.169   3.519 -0.0474 -0.0809  0.6808
 1034SOL    HW1 3391   4.898   2.263   3.523  2.6712 -0.9036  0.2731
 1034SOL    HW2 3392   4.838   2.140   3.610  1.0063  0.5449  1.2280
 1035SOL     OW 3393   1.158   3.078   2.008  0.2129 -0.1974 -0.8050
 1035SOL    HW1 3394   1.110   3.028   1.937 -2.1316 -0.1464  0.6544
 1035SOL    HW2 3395   1.158   3.025   2.092  0.7820  0.7674 -0.1791
 1036SOL     OW 3396   5.075   0.121   1.661  0.1018  0.3292 -0.3649
 1036SOL    HW1 3397   5.035   0.083   1.578 -1.9304  0.5714  0.4601
 1036SOL    HW2 3398   5.103   0.215   1.645 -1.1620  0.6926 -0.5391
 1037SOL     OW 3399   2.941   2.336   2.760  0.3733  0.0561 -0.3643
 1037SOL    HW1 3400   2.943   2.320   2.859  1.1193 -1.2843 -0.5802
 1037SOL    HW2 3401   2.858   2.386   2.736  0.4329  0.8622  0.9961
 1038SOL     OW 3402   0.773   3.640   3.539  0.6410 -0.2989  0.0900
 1038SOL    HW1 3403   0.684   3.604   3.511  0.2266  0.2114  0.7170
 1038SOL    HW2 3404   0.760   3.711   3.608  1.6145 -1.0915  1.1110
 1039SOL     OW 3405   2.434   3.996   4.452  0.0091  0.2529  0.6792
 1039SOL    HW1 3406   2.368   3.925   4.427  0.7069 -0.1648 -0.0460
 1039SOL    HW2 3407   2.514   3.990   4.391  1.8465 -0.8638  3.0332
 1040SOL     OW 3408   1.673   3.159   3.433  0.1016 -0.0393  0.1239
 1040SOL    HW1 3409   1.583   3.178   3.472 -0.1395 -0.9262  0.0396
 1040SOL    HW2 3410   1.689   3.216   3.353 -0.5981 -0.2308 -0.1535
 1041SOL     OW 3411   1.470   4.129   2.903 -0.3838 -0.0101  0.3566
 1041SOL    HW1 3412   1.563   4.156   2.879 -0.5583  0.2335 -0.0609
 1041SOL    HW2 3413   1.472   4.051   2.965  0.0803 -0.6400 -0.4446
 1042SOL     OW 3414   4.694   1.788   2.764 -0.3533  0.4238 -0.3820
 1042SOL    HW1 3415   4.642   1.705   2.747 -1.3197  1.2401 -1.6296
 1042SOL    HW2 3416   4.742   1.815   2.680 -0.0239  1.0946  0.0146
 1043SOL     OW 3417   2.003   2.587   1.614 -0.3177  0.3020  0.5336
 1043SOL    HW1 3418   2.102   2.595   1.628 -0.4051 -0.6609  1.9675
 1043SOL    HW2 3419   1.985   2.539   1.528  0.4877 -0.1674  0.6169
 1044SOL     OW 3420   0.650   3.531   1.953 -0.8063  0.3036 -0.2495
 1044SOL    HW1 3421   0.721   3.566   1.891  0.7766 -2.6703 -0.3068
 1044SOL    HW2 3422   0.692   3.506   2.040 -1.5508 -2.2136 -0.5362
 1045SOL     OW 3423   5.506   2.471   3.138  0.0864  0.3288 -0.5380
 1045SOL    HW1 3424   5.509   2.376   3.108  1.5175  0.0774  0.2816
 1045SOL    HW2 3425   5.543   2.530   3.066  1.2410  0.0042 -0.2271
 1046SOL     OW 3426   4.372   1.449   4.117  0.2012 -0.6670 -0.1358
 1046SOL    HW1 3427   4.392   1.514   4.190  0.7288  0.0241 -0.8752
 1046SOL    HW2 3428   4.361   1.357   4.155 -1.4179 -0.0268  1.0363
 1047SOL     OW 3429   2.133   1.068   2.642 -0.4088  0.3630 -0.4319
 1047SOL    HW1 3430   2.135   0.988   2.582  0.4552 -0.0264  0.0891
 1047SOL    HW2 3431   2.226   1.088   2.674 -0.4991  1.9680 -1.0541
 1048SOL     OW 3432   1.689   2.255   3.294 -0.8218 -0.0541 -0.0478
 1048SOL    HW1 3433   1.643   2.343   3.303 -1.9656 -0.7221  1.1594
 1048SOL    HW2 3434   1.622   2.185   3.268 -0.0877 -0.7069 -0.2228
 1049SOL     OW 3435   5.739   4.320   3.209 -0.0054 -0.1274  0.6052
 1049SOL    HW1 3436   5.788   4.265   3.277  0.2512  1.5860  1.8526
 1049SOL    HW2 3437   5.648   4.281   3.194  0.8529 -2.0034 -0.0159
 1050SOL     OW 3438   5.842   5.545   4.118  0.4942  0.6084  0.3145
 1050SOL    HW1 3439   5.929   5.497   4.119 -0.5405 -1.3751  1.0339
 1050SOL    HW2 3440   5.785   5.514   4.194 -1.3885  0.7582 -0.9441
 1051SOL     OW 3441   5.657   3.244   1.662 -0.1534  0.5528  0.4520
 1051SOL    HW1 3442   5.628   3.214   1.753 -0.2863  0.0920  0.2541
 1051SOL    HW2 3443   5.580   3.240   1.599  0.3357 -0.7019 -0.0806
 1052SOL     OW 3444   2.672   0.659   2.911 -0.1650 -0.2023 -0.1139
 1052SOL    HW1 3445   2.609   0.699   2.978 -0.1476  1.4930 -1.0454
 1052SOL    HW2 3446   2.660   0.704   2.823  1.4512 -0.7423 -0.6571
 1053SOL     OW 3447   5.477   0.883   3.415  0.1341  0.2972  0.0783
 1053SOL    HW1 3448   5.454   0.818   3.488  2.4824  0.4130  0.9907
 1053SOL    HW2 3449   5.444   0.974   3.441  1.7307  0.5148  1.4758
 1054SOL     OW 3450   0.200   3.263   3.001  0.1857  0.1963  0.6305
 1054SOL    HW1 3451   0.295   3.272   3.032  0.5974  0.3936 -0.6347
 1054SOL    HW2 3452   0.183   3.328   2.927 -0.3244 -1.1976 -0.5293
 1055SOL     OW 3453   1.269   2.616   2.498 -0.2560  0.4690 -0.1805
 1055SOL    HW1 3454   1.356   2.620   2.447 -1.4468 -0.8645 -2.5125
 1055SOL    HW2 3455   1.226   2.706   2.496 -0.6756  0.2949 -2.4541
 1056SOL     OW 3456   0.651   2.961   2.275  0.5282  0.1558 -0.2301
 1056SOL    HW1 3457   0.671   2.865   2.255  0.3424 -0.7513  3.2791
 1056SOL    HW2 3458   0.629   2.971   2.372 -3.1115  3.1900 -1.1228
 1057SOL     OW 3459   1.588   1.689   3.357 -0.0214 -0.1449  0.1959
 1057SOL    HW1 3460   1.606   1.707   3.454  1.9884  0.9769 -0.3386
 1057SOL    HW2 3461   1.657   1.735   3.301  0.3295 -2.7575 -1.7001
 1058SOL     OW 3462   1.283   3.367   3.110  0.1597 -0.1835 -0.0289
 1058SOL    HW1 3463   1.297   3.378   3.209 -0.3243  0.3787 -0.0198
 1058SOL    HW2 3464   1.209   3.427   3.080  0.5843 -0.0464 -0.8094
 1059SOL     OW 3465   0.418   1.516   2.976  0.7434  0.4341  0.5065
 1059SOL    HW1 3466   0.377   1.426   2.977 -0.1084  0.8131  0.1562
 1059SOL    HW2 3467   0.441   1.543   3.070 -2.7189  1.5020  1.1848
 1060SOL     OW 3468   0.582   4.531   3.161 -0.3627 -0.5738 -0.0052
 1060SOL    HW1 3469   0.499   4.561   3.207 -0.5964 -0.4601 -0.4942
 1060SOL    HW2 3470   0.662   4.553   3.218 -0.5644  0.4711 -0.1058
 1061SOL     OW 3471   5.625   1.703   1.386 -0.2217  0.0900 -0.6205
 1061SOL    HW1 3472   5.658   1.611   1.363 -0.8343  0.2781 -2.4287
 1061SOL    HW2 3473   5.673   1.736   1.467  0.2965 -1.6588 -0.1538
 1062SOL     OW 3474   1.029   2.468   4.086 -0.0647 -0.5760  0.6631
 1062SOL    HW1 3475   1.022   2.541   4.155  0.5365 -0.4012  0.5471
 1062SOL    HW2 3476   1.120   2.427   4.091 -0.3047 -1.1268  0.5296
 1063SOL     OW 3477   0.841   3.495   0.999  0.3123 -0.2174  0.2102
 1063SOL    HW1 3478   0.903   3.425   1.035 -0.6110 -0.0539  2.2983
 1063SOL    HW2 3479   0.773   3.517   1.069 -0.8092  1.1329 -1.2450
 1064SOL     OW 3480   0.127   3.726   2.628 -0.0664  0.2828 -0.1845
 1064SOL    HW1 3481   0.081   3.812   2.604 -0.7644 -0.8168 -3.2156
 1064SOL    HW2 3482   0.212   3.719   2.576  2.5387  1.1540  3.5282
 1065SOL     OW 3483   4.121   5.592   3.164  0.3588 -0.2393  0.0060
 1065SOL    HW1 3484   4.071   5.510   3.138 -0.2755  0.4237 -0.9727
 1065SOL    HW2 3485   4.056   5.667   3.180  0.9174  0.0553  0.9443
 1066SOL     OW 3486   5.755   3.074   2.868 -0.5523  0.5213  0.4836
 1066SOL    HW1 3487   5.717   3.159   2.832  0.7883  0.7388 -0.4618
 1066SOL    HW2 3488   5.793   3.020   2.793 -2.8879 -1.7583  0.7807
 1067SOL     OW 3489   5.404   3.976   4.311 -0.5159  0.4384  0.1208
 1067SOL    HW1 3490   5.344   3.900   4.335 -0.6396  0.5201  0.0775
 1067SOL    HW2 3491   5.404   3.988   4.211  0.4320 -0.2522  0.0333
 1068SOL     OW 3492   5.449   1.806   3.326  0.1453  0.1873  0.0267
 1068SOL    HW1 3493   5.356   1.826   3.296 -0.7810  1.1660  3.0985
 1068SOL    HW2 3494   5.479   1.878   3.389  2.8962 -0.2612 -0.6540
 1069SOL     OW 3495   1.894   0.776   2.347  0.7129 -0.1894 -0.0521
 1069SOL    HW1 3496   1.881   0.701   2.282 -1.5182 -0.5721  0.7508
 1069SOL    HW2 3497   1.859   0.861   2.307  1.5249  0.0678 -0.2381
 1070SOL     OW 3498   1.277   2.906   2.689  0.3502  0.0562 -1.0874
 1070SOL    HW1 3499   1.226   2.899   2.603  1.7542  1.5931 -2.1172
 1070SOL    HW2 3500   1.374   2.889   2.671  0.7686  1.0948  0.0445
 1071SOL     OW 3501   0.845   4.201   3.278 -0.4293 -0.0155  0.5246
 1071SOL    HW1 3502   0.910   4.170   3.209  0.2877  1.1339  0.6595
 1071SOL    HW2 3503   0.858   4.150   3.363  2.2129  1.9859  1.4579
 1072SOL     OW 3504   4.798   3.410   1.697  0.0491 -0.2298  0.2915
 1072SOL    HW1 3505   4.811   3.484   1.631  3.0793  0.2118  1.2420
 1072SOL    HW2 3506   4.787   3.448   1.789  1.7547 -0.8856  0.8059
 1073SOL     OW 3507   4.424   1.842   3.462  0.4512 -0.7332 -0.1053
 1073SOL    HW1 3508   4.421   1.921   3.401  0.2810 -0.5646  0.1186
 1073SOL    HW2 3509   4.438   1.758   3.409 -0.2085 -0.6470 -0.4208
 1074SOL     OW 3510   0.456   4.281   0.561  0.0528  0.2413 -0.1392
 1074SOL    HW1 3511   0.504   4.268   0.475 -1.8200 -1.4738 -0.9942
 1074SOL    HW2 3512   0.499   4.225   0.632 -0.1628 -0.6749 -0.7102
 1075SOL     OW 3513   1.887   3.060   1.614  0.4470  0.2261  0.3991
 1075SOL    HW1 3514   1.947   3.126   1.659  1.6549 -0.6082  0.0650
 1075SOL    HW2 3515   1.904   2.969   1.652  1.2159 -0.4352 -1.4515
 1076SOL     OW 3516   2.485   2.947   1.003  0.7154 -0.1674  0.5548
 1076SOL    HW1 3517   2.554   2.898   1.056  0.5222 -1.2494 -0.1679
 1076SOL    HW2 3518   2.393   2.919   1.033  0.5943  0.1638  0.5035
 1077SOL     OW 3519   0.562   1.455   3.729  0.5063 -0.2593 -0.0585
 1077SOL    HW1 3520   0.616   1.487   3.652  1.6643 -1.6369  0.1261
 1077SOL    HW2 3521   0.624   1.429   3.804 -0.5382  0.0977  0.9511
 1078SOL     OW 3522   1.695   4.633   1.764  0.0456  0.0598  0.5320
 1078SOL    HW1 3523   1.604   4.640   1.724  0.4479 -1.8013 -0.8408
 1078SOL    HW2 3524   1.758   4.592   1.697  1.6015  0.1201  1.8853
 1079SOL     OW 3525   1.429   3.227   3.493  0.5513  1.0213  0.0354
 1079SOL    HW1 3526   1.364   3.277   3.436  0.6452 -0.0306 -1.0415
 1079SOL    HW2 3527   1.414   3.250   3.589 -1.5202  0.6772 -0.1560
 1080SOL     OW 3528   4.750   1.416   2.901  0.7343  0.4145 -0.0590
 1080SOL    HW1 3529   4.750   1.452   2.808 -0.3536  0.3660 -0.0957
 1080SOL    HW2 3530   4.667   1.445   2.948  0.6324 -0.6485  0.4583
 1081SOL     OW 3531   2.097   3.063   0.999 -0.0415 -0.3761  0.8206
 1081SOL    HW1 3532   2.122   3.058   0.903 -1.6110 -0.1943  0.3779
 1081SOL    HW2 3533   2.122   3.152   1.036  1.5664 -0.8188  0.9212
 1082SOL     OW 3534   5.205   3.451   4.243  0.6781  0.1681  0.7227
 1082SOL    HW1 3535   5.204   3.540   4.198  0.5652  0.0335  0.4602
 1082SOL    HW2 3536   5.194   3.379   4.175  2.7411 -0.1495  0.6592
 1083SOL     OW 3537   5.627   3.194   3.573  0.4495 -0.8015 -0.0429
 1083SOL    HW1 3538   5.619   3.095   3.567 -0.3657 -0.7345 -0.1642
 1083SOL    HW2 3539   5.718   3.222   3.544  0.7704 -1.5326  0.2439
 1084SOL     OW 3540   5.634   2.101   2.509 -0.3120 -0.2412  0.0135
 1084SOL    HW1 3541   5.593   2.027   2.457  0.4650 -0.1727 -0.7165
 1084SOL    HW2 3542   5.733   2.087   2.515 -0.2536  0.3333  0.5296
 1085SOL     OW 3543   0.562   1.353   2.183  0.1132  0.0276  0.3364
 1085SOL    HW1 3544   0.480   1.410   2.191  0.3706  0.3678  0.5290
 1085SOL    HW2 3545   0.541   1.274   2.126  0.1196  0.9992 -1.0560
 1086SOL     OW 3546   0.965   3.805   2.602  0.0334  0.1947  0.5409
 1086SOL    HW1 3547   0.980   3.817   2.504  0.5598  0.5202  0.6565
 1086SOL    HW2 3548   0.924   3.888   2.639  0.3955  0.3060  0.7010
 1087SOL     OW 3549   1.344   1.833   3.363  0.1450 -0.2810  0.4526
 1087SOL    HW1 3550   1.422   1.771   3.358 -0.9059 -1.5957 -0.1942
 1087SOL    HW2 3551   1.270   1.798   3.305 -0.4015  1.7093 -0.1119
 1088SOL     OW 3552   0.764   3.916   2.945 -0.5655 -0.3945  0.2496
 1088SOL    HW1 3553   0.786   4.001   2.993 -0.3936 -0.0312 -0.4620
 1088SOL    HW2 3554   0.749   3.935   2.848  0.5484 -1.3205 -0.1311
 1089SOL     OW 3555   0.756   3.298   1.728  0.0181 -0.9927 -0.1388
 1089SOL    HW1 3556   0.682   3.232   1.723 -1.3067  0.4324 -0.2504
 1089SOL    HW2 3557   0.755   3.356   1.646  0.9341 -0.6186  0.0999
 1090SOL     OW 3558   0.709   3.782   3.748  0.3460 -0.1106 -0.0106
 1090SOL    HW1 3559   0.624   3.830   3.772  1.1383  0.6467  1.4255
 1090SOL    HW2 3560   0.735   3.721   3.823  1.8980  0.8901  0.3172
 1091SOL     OW 3561   5.811   0.218   3.210  0.0678 -0.3853  0.4746
 1091SOL    HW1 3562   5.814   0.315   3.184 -1.1127 -0.1363  1.2096
 1091SOL    HW2 3563   5.784   0.210   3.306  1.8237 -1.3875  0.9433
 1092SOL     OW 3564   0.658   2.668   2.254  0.2450  0.3292 -0.2222
 1092SOL    HW1 3565   0.571   2.680   2.302  0.5294  1.0437  0.1357
 1092SOL    HW2 3566   0.651   2.592   2.190 -0.5201  0.1343  0.0867
 1093SOL     OW 3567   5.290   2.667   3.138  0.4234 -0.1344  0.4689
 1093SOL    HW1 3568   5.298   2.648   3.040  0.1482 -1.4701  0.6907
 1093SOL    HW2 3569   5.371   2.635   3.185  0.0802 -0.4814  0.8229
 1094SOL     OW 3570   0.239   5.112   1.591 -0.3383 -0.3553 -0.2379
 1094SOL    HW1 3571   0.257   5.020   1.628 -0.2160  0.4830  1.9569
 1094SOL    HW2 3572   0.161   5.151   1.640 -0.0983  0.8817 -0.8343
 1095SOL     OW 3573   0.014   2.162   2.851 -0.0350  0.2849 -0.1417
 1095SOL    HW1 3574  -0.035   2.076   2.862 -0.3851  0.5401  0.4101
 1095SOL    HW2 3575   0.109   2.145   2.827 -0.8460 -0.2067 -3.3777
 1096SOL     OW 3576   1.830   3.300   3.633  0.3993 -0.2422  0.5226
 1096SOL    HW1 3577   1.911   3.246   3.654 -0.0706 -1.3608 -0.4303
 1096SOL    HW2 3578   1.787   3.266   3.549  0.3636  1.9331 -0.4352
 1097SOL     OW 3579   0.150   2.940   2.681  0.1832 -0.2715  0.7660
 1097SOL    HW1 3580   0.198   2.860   2.717  0.7231 -0.4216 -0.2277
 1097SOL    HW2 3581   0.054   2.918   2.666 -0.1082 -0.1210  2.3234
 1098SOL     OW 3582   0.859   2.599   2.584  0.0538 -0.0565  0.0501
 1098SOL    HW1 3583   0.819   2.688   2.604 -0.2577 -0.2219  0.1771
 1098SOL    HW2 3584   0.913   2.604   2.500 -1.0411 -0.0623 -0.6678
 1099SOL     OW 3585   0.619   5.396   3.412  0.0508  0.0483 -0.5742
 1099SOL    HW1 3586   0.567   5.475   3.444 -0.7648 -0.7229  0.0479
 1099SOL    HW2 3587   0.717   5.416   3.419 -0.0910  0.2801  1.5474
 1100SOL     OW 3588   1.714   2.871   3.455 -0.3400 -0.8183  0.0061
 1100SOL    HW1 3589   1.707   2.970   3.465  0.2033 -0.8322  0.6030
 1100SOL    HW2 3590   1.811   2.844   3.454 -0.4817 -1.3435 -0.1302
 1101SOL     OW 3591   5.155   0.858   3.117 -0.1250  0.5715 -0.4610
 1101SOL    HW1 3592   5.097   0.870   3.198  0.5087 -0.8252  0.2383
 1101SOL    HW2 3593   5.109   0.797   3.053 -0.1343  0.7767 -0.6495
 1102SOL     OW 3594   5.720   2.947   4.363 -0.5244 -0.2148 -0.5082
 1102SOL    HW1 3595   5.710   2.951   4.462  3.0576  0.9511 -0.0495
 1102SOL    HW2 3596   5.783   2.872   4.339 -0.7131  0.0324 -1.8333
 1103SOL     OW 3597   1.489   2.061   3.237  0.3294  0.1562 -0.0148
 1103SOL    HW1 3598   1.469   1.982   3.294 -0.5795  0.8612  0.6747
 1103SOL    HW2 3599   1.457   2.045   3.144  1.6482 -0.9238 -0.3125
 1104SOL     OW 3600   0.079   1.887   3.072 -0.4681 -0.0540 -0.4951
 1104SOL    HW1 3601   0.092   1.979   3.109 -2.3233  0.0728 -0.0928
 1104SOL    HW2 3602   0.068   1.821   3.146  1.8000 -0.8211 -0.7475
 1105SOL     OW 3603   1.363   3.717   3.991 -0.4953 -1.0972  0.3451
 1105SOL    HW1 3604   1.324   3.714   4.083 -0.6407  0.4433  0.3569
 1105SOL    HW2 3605   1.294   3.754   3.928  0.2868 -0.1416  0.0231
 1106SOL     OW 3606   1.787   4.603   2.267 -0.4226  0.1987  0.0076
 1106SOL    HW1 3607   1.765   4.592   2.170 -2.8584 -1.5388  0.6670
 1106SOL    HW2 3608   1.763   4.695   2.297  2.1144  1.4175 -1.3635
 1107SOL     OW 3609   2.065   3.371   1.399  0.0766 -0.4229  0.1558
 1107SOL    HW1 3610   1.984   3.313   1.390 -0.8849  0.7935  0.5158
 1107SOL    HW2 3611   2.048   3.440   1.470  1.1445  0.3329 -0.2964
 1108SOL     OW 3612   0.008   3.114   1.448 -0.5280 -0.4030  0.0777
 1108SOL    HW1 3613  -0.003   3.180   1.523 -2.2813 -2.1213  1.4327
 1108SOL    HW2 3614   0.085   3.055   1.466 -0.5086 -0.3553  0.1507
 1109SOL     OW 3615   2.471   3.195   0.595 -0.5609  0.3321 -0.2740
 1109SOL    HW1 3616   2.402   3.268   0.594 -1.6277 -0.6076 -1.7505
 1109SOL    HW2 3617   2.513   3.189   0.685 -1.5546  1.7472  0.3218
 1110SOL     OW 3618   0.231   5.583   3.448  0.4073 -0.1324  0.2020
 1110SOL    HW1 3619   0.213   5.496   3.494 -0.9719 -0.7428 -1.3807
 1110SOL    HW2 3620   0.151   5.609   3.394  1.7200  0.8422 -1.3549
 1111SOL     OW 3621   1.269   3.860   2.314 -0.3621  0.3461 -0.4951
 1111SOL    HW1 3622   1.334   3.785   2.311 -0.3904  0.1657  1.5830
 1111SOL    HW2 3623   1.185   3.834   2.266 -0.3804 -0.9905  0.2147
 1112SOL     OW 3624   2.009   0.271   2.618  0.5079  0.1164 -0.2769
 1112SOL    HW1 3625   1.932   0.236   2.565 -0.1709 -0.2369  0.8984
 1112SOL    HW2 3626   1.993   0.253   2.716  0.6438  2.7081  0.3025
 1113SOL     OW 3627   2.662   3.886   2.636 -0.2788 -0.7236 -0.2327
 1113SOL    HW1 3628   2.620   3.824   2.570  0.0579 -1.6669  0.4121
 1113SOL    HW2 3629   2.602   3.964   2.652 -1.1978 -1.4076 -0.2885
 1114SOL     OW 3630   0.172   1.380   2.644  0.2897 -0.0282 -0.3243
 1114SOL    HW1 3631   0.181   1.478   2.662  1.2345 -0.1409 -0.1155
 1114SOL    HW2 3632   0.142   1.365   2.550 -0.5309  0.4705 -0.1539
 1115SOL     OW 3633   0.927   2.659   2.310 -0.1083  0.3273 -0.6243
 1115SOL    HW1 3634   0.947   2.709   2.225  0.9080 -1.9084 -1.7917
 1115SOL    HW2 3635   0.830   2.639   2.314 -0.3386  1.3584 -0.7144
 1116SOL     OW 3636   0.140   1.433   1.418 -0.0067  0.5181 -0.0146
 1116SOL    HW1 3637   0.089   1.456   1.501 -0.4947 -1.0130  0.1273
 1116SOL    HW2 3638   0.143   1.334   1.406  0.2278  0.6960 -1.7293
 1117SOL     OW 3639   0.953   4.605   2.074 -0.3789 -0.3382  0.7992
 1117SOL    HW1 3640   0.885   4.531   2.079 -2.6061  1.6615  2.6729
 1117SOL    HW2 3641   1.015   4.599   2.152  1.2136 -1.7165 -0.5035
 1118SOL     OW 3642   1.984   1.811   0.624  0.0951 -0.5263 -0.2842
 1118SOL    HW1 3643   1.927   1.740   0.584  0.7191 -1.1921 -0.0207
 1118SOL    HW2 3644   1.998   1.792   0.721 -0.1522  0.2399 -0.0923
 1119SOL     OW 3645   0.828   2.167   3.401 -0.0938 -0.1071  0.3141
 1119SOL    HW1 3646   0.743   2.187   3.351 -0.9450 -0.6030  1.5116
 1119SOL    HW2 3647   0.823   2.208   3.492  0.3997 -1.2317  0.8671
 1120SOL     OW 3648   0.848   3.948   0.867  0.2308  0.3560  0.2434
 1120SOL    HW1 3649   0.812   3.904   0.785  1.3136 -0.8413  0.3809
 1120SOL    HW2 3650   0.780   3.944   0.940  0.0192 -0.3750  0.0062
 1121SOL     OW 3651   4.824   2.405   2.395  0.7963  0.0322 -0.6335
 1121SOL    HW1 3652   4.887   2.327   2.406  1.3503  0.6363  0.5859
 1121SOL    HW2 3653   4.824   2.433   2.299 -0.2593 -2.1528 -1.3450
 1122SOL     OW 3654   4.486   0.678   1.260  0.6805 -0.1325  0.2286
 1122SOL    HW1 3655   4.512   0.770   1.231  0.9994  0.8828  3.3067
 1122SOL    HW2 3656   4.398   0.654   1.220 -1.0058  2.9060  1.7618
 1123SOL     OW 3657   1.040   1.517   2.116 -0.0893 -0.1219  0.3963
 1123SOL    HW1 3658   0.962   1.513   2.053  0.7166 -1.3432 -0.5970
 1123SOL    HW2 3659   1.094   1.433   2.105 -0.5533 -0.9719  3.6011
 1124SOL     OW 3660   0.247   2.024   3.742 -0.1638 -0.0583 -0.1181
 1124SOL    HW1 3661   0.272   1.927   3.745  0.5221  0.1003 -0.3860
 1124SOL    HW2 3662   0.301   2.069   3.671  1.9633  1.1792  2.1446
 1125SOL     OW 3663   1.981   3.665   2.148 -0.4146 -0.0432 -0.1992
 1125SOL    HW1 3664   1.944   3.756   2.169  2.0619  1.2190 -0.9542
 1125SOL    HW2 3665   2.062   3.648   2.204 -1.7636 -2.5714  1.1583
 1126SOL     OW 3666   0.866   1.848   2.075  0.2836 -0.3944 -0.7329
 1126SOL    HW1 3667   0.839   1.828   2.169  0.9028 -1.4614 -0.7641
 1126SOL    HW2 3668   0.966   1.853   2.070  0.2185  0.9352 -1.0986
 1127SOL     OW 3669   1.433   2.304   3.615 -0.7624  0.1029  1.0670
 1127SOL    HW1 3670   1.357   2.238   3.615 -0.4553 -0.2691  1.9155
 1127SOL    HW2 3671   1.406   2.386   3.566 -1.2378 -0.5646  0.1848
 1128SOL     OW 3672   5.124   3.180   2.722 -0.0797  0.4101  0.4070
 1128SOL    HW1 3673   5.036   3.167   2.676  0.6151 -1.1461 -0.5651
 1128SOL    HW2 3674   5.110   3.229   2.808 -2.1709 -1.5717  1.2772
 1129SOL     OW 3675   1.162   2.984   4.858 -0.1496 -0.6171 -0.4642
 1129SOL    HW1 3676   1.223   2.969   4.936  1.5074 -1.9440 -1.9346
 1129SOL    HW2 3677   1.075   2.937   4.874 -0.2333 -0.0189  0.9863
 1130SOL     OW 3678   0.587   4.000   2.471  0.3821  0.1708 -0.3993
 1130SOL    HW1 3679   0.491   4.015   2.492  1.3043  3.5681  2.3691
 1130SOL    HW2 3680   0.605   4.026   2.375 -1.4034 -0.5971 -0.9719
 1131SOL     OW 3681   2.474   3.380   4.215  0.2203  0.0907 -0.0680
 1131SOL    HW1 3682   2.439   3.449   4.152  0.0707  0.7667  0.7363
 1131SOL    HW2 3683   2.542   3.323   4.169  0.1360  0.5889 -0.8173
 1132SOL     OW 3684   1.767   2.209   5.696 -0.0923  0.2325 -0.1640
 1132SOL    HW1 3685   1.761   2.129   5.756  0.8576  0.6458  0.5019
 1132SOL    HW2 3686   1.740   2.182   5.603 -0.2176 -0.7475  0.1384
 1133SOL     OW 3687   0.991   3.277   3.522  0.1633  0.4034 -0.6861
 1133SOL    HW1 3688   0.984   3.238   3.430  0.3789 -0.1932 -0.4522
 1133SOL    HW2 3689   1.011   3.204   3.588 -2.5740  0.3391  0.2308
 1134SOL     OW 3690   0.798   2.710   3.869  0.0656  0.0796 -0.7184
 1134SOL    HW1 3691   0.867   2.726   3.940  0.3007 -0.8735 -0.7175
 1134SOL    HW2 3692   0.833   2.644   3.803 -1.5990 -2.1210  0.4402
 1135SOL     OW 3693   0.337   1.791   4.593 -0.3888 -0.4889 -0.1437
 1135SOL    HW1 3694   0.344   1.710   4.536 -0.0909  0.7025 -1.8809
 1135SOL    HW2 3695   0.253   1.841   4.570  1.1502  1.5353 -1.7103
 1136SOL     OW 3696   1.867   2.298   5.089 -0.4816 -0.6822  0.2758
 1136SOL    HW1 3697   1.888   2.307   4.992 -0.9887 -1.2495  0.1119
 1136SOL    HW2 3698   1.953   2.290   5.141 -0.1136  1.4086  0.0773
 1137SOL     OW 3699   5.357   2.908   3.462 -0.0584 -0.2593  0.2260
 1137SOL    HW1 3700   5.419   2.836   3.492  1.2269  0.3556 -0.8638
 1137SOL    HW2 3701   5.410   2.984   3.426 -1.4633  0.1941 -0.9511
 1138SOL     OW 3702   1.634   3.615   4.108 -0.7497  0.1605  0.6228
 1138SOL    HW1 3703   1.546   3.653   4.081 -0.8063 -0.1426  0.3796
 1138SOL    HW2 3704   1.685   3.588   4.027 -0.8438 -0.5920  0.8046
 1139SOL     OW 3705   4.689   1.901   0.924 -0.4211 -0.2351 -0.1477
 1139SOL    HW1 3706   4.669   1.821   0.979 -2.5977  1.0543  1.0737
 1139SOL    HW2 3707   4.636   1.898   0.839  0.4495 -0.6468 -0.6959
 1140SOL     OW 3708   1.695   0.394   3.700 -0.0260  0.2506 -0.6553
 1140SOL    HW1 3709   1.788   0.399   3.663  0.0126  2.8506 -0.4031
 1140SOL    HW2 3710   1.630   0.377   3.627  0.3856  1.5888 -1.3529
 1141SOL     OW 3711   1.277   3.777   1.557  0.1553 -0.1310  0.1125
 1141SOL    HW1 3712   1.345   3.740   1.621  0.5690 -1.1244 -0.8835
 1141SOL    HW2 3713   1.323   3.806   1.473 -0.6491 -0.8058 -0.5739
 1142SOL     OW 3714   5.099   3.115   4.228  0.2882 -0.8341  0.4283
 1142SOL    HW1 3715   5.189   3.124   4.272 -0.1641  1.2859  0.9891
 1142SOL    HW2 3716   5.091   3.181   4.154 -0.9347 -0.7470  0.6161
 1143SOL     OW 3717   4.567   3.059   3.913  0.2516 -0.3434  0.1487
 1143SOL    HW1 3718   4.468   3.066   3.920  0.2937  1.0928 -0.2540
 1143SOL    HW2 3719   4.603   3.011   3.993 -0.5952  1.0700  1.4275
 1144SOL     OW 3720   0.304   4.149   4.236 -0.3347  0.0073  0.4930
 1144SOL    HW1 3721   0.333   4.238   4.271 -0.3969  1.2178 -2.3112
 1144SOL    HW2 3722   0.215   4.125   4.275 -1.1113  1.9987  0.0433
 1145SOL     OW 3723   5.526   2.936   5.302  0.4598  0.2043 -0.1379
 1145SOL    HW1 3724   5.610   2.941   5.249  0.6372  0.4689  0.1669
 1145SOL    HW2 3725   5.540   2.977   5.392  0.0759  0.0315  0.0059
 1146SOL     OW 3726   1.745   2.458   4.135  0.2727 -0.1113  0.0427
 1146SOL    HW1 3727   1.698   2.458   4.224 -0.1011  0.6190 -0.1420
 1146SOL    HW2 3728   1.684   2.419   4.066 -0.4281  1.5927 -0.3590
 1147SOL     OW 3729   1.065   2.941   5.238  0.0451  0.3942 -0.3068
 1147SOL    HW1 3730   1.066   2.844   5.216  0.1290  0.7808 -2.1499
 1147SOL    HW2 3731   1.055   2.953   5.337 -3.1758 -1.4445 -0.2786
 1148SOL     OW 3732   5.845   3.283   3.348 -0.5554  0.3527 -0.2234
 1148SOL    HW1 3733   5.810   3.262   3.258 -1.4592 -1.8869  0.5961
 1148SOL    HW2 3734   5.829   3.380   3.368 -0.4543  0.8630 -2.3609
 1149SOL     OW 3735   2.540   5.318   3.277  0.2392 -0.3207 -0.0453
 1149SOL    HW1 3736   2.468   5.318   3.346  1.0856 -0.4248  0.8556
 1149SOL    HW2 3737   2.542   5.408   3.231  1.7851  0.9663  2.3542
 1150SOL     OW 3738   5.051   5.141   3.258  0.1241 -0.5042  0.8058
 1150SOL    HW1 3739   5.050   5.222   3.316  1.2399  0.2408 -0.1574
 1150SOL    HW2 3740   4.985   5.151   3.184  2.2245  0.9303 -1.0321
 1151SOL     OW 3741   0.448   2.747   4.755 -1.1222  0.2605 -0.9698
 1151SOL    HW1 3742   0.472   2.672   4.817  0.1597  0.0369 -1.6945
 1151SOL    HW2 3743   0.483   2.833   4.792 -1.0756  0.2456 -0.9785
 1152SOL     OW 3744   5.453   3.358   5.225  0.2934 -0.0047 -0.0935
 1152SOL    HW1 3745   5.411   3.285   5.278 -0.1017  1.4435  1.6930
 1152SOL    HW2 3746   5.550   3.363   5.248  0.4896 -0.4428 -0.8008
 1153SOL     OW 3747   5.197   4.798   3.879  0.5732  1.0578 -0.0029
 1153SOL    HW1 3748   5.137   4.851   3.819  0.3660 -1.3654 -2.1100
 1153SOL    HW2 3749   5.150   4.782   3.966  0.0906  3.0642  0.1560
 1154SOL     OW 3750   1.033   2.903   4.186  0.0162  0.5272  0.0592
 1154SOL    HW1 3751   1.057   2.969   4.115 -1.3408 -0.2189 -1.1529
 1154SOL    HW2 3752   1.026   2.949   4.274  0.6236  1.6851 -0.4771
 1155SOL     OW 3753   5.244   2.540   5.491 -0.1149  0.0945  0.3414
 1155SOL    HW1 3754   5.229   2.472   5.420  1.6406  0.0942 -0.0602
 1155SOL    HW2 3755   5.217   2.502   5.580 -0.9563 -0.4129 -0.1154
 1156SOL     OW 3756   0.989   2.212   2.384 -0.1458  0.6330  0.0738
 1156SOL    HW1 3757   1.077   2.165   2.377 -0.2676  0.4205 -0.0698
 1156SOL    HW2 3758   1.002   2.310   2.369 -0.1771  0.3908 -1.8418
 1157SOL     OW 3759   2.996   1.932   4.203 -0.1094 -0.0842  0.2700
 1157SOL    HW1 3760   3.054   2.002   4.244 -0.8724 -0.4905  2.1195
 1157SOL    HW2 3761   2.920   1.975   4.154  1.1371  0.4176 -1.3338
 1158SOL     OW 3762   0.095   1.732   5.232 -0.3146  0.1089 -0.2260
 1158SOL    HW1 3763   0.188   1.761   5.252 -0.3608 -0.3123  0.6486
 1158SOL    HW2 3764   0.097   1.646   5.181 -0.2208  0.4926 -0.8847
 1159SOL     OW 3765   0.435   4.228   5.610 -0.0591 -0.7934 -0.1720
 1159SOL    HW1 3766   0.454   4.275   5.523 -1.0734 -0.1969 -0.0872
 1159SOL    HW2 3767   0.422   4.130   5.593 -1.2440 -0.5391 -0.8671
 1160SOL     OW 3768   2.014   2.347   4.843  0.1867  0.4358 -1.0547
 1160SOL    HW1 3769   2.048   2.438   4.820  2.4053 -0.3924 -1.2685
 1160SOL    HW2 3770   2.091   2.288   4.867 -1.3336 -0.9871  0.5607
 1161SOL     OW 3771   1.932   2.520   1.865  0.0106  0.0466 -0.8843
 1161SOL    HW1 3772   1.937   2.530   1.765 -2.6994 -0.7926 -1.2095
 1161SOL    HW2 3773   1.916   2.609   1.906  2.2758  0.5782 -1.0222
 1162SOL     OW 3774   1.765   3.238   4.811  0.2164 -0.1671  0.0604
 1162SOL    HW1 3775   1.741   3.296   4.734 -2.0578 -2.2599 -0.9248
 1162SOL    HW2 3776   1.682   3.198   4.850  1.5405 -1.3134  1.8549
 1163SOL     OW 3777   1.072   3.758   2.104  0.0196  0.0110 -0.1926
 1163SOL    HW1 3778   1.083   3.681   2.041  1.3487 -0.6274  0.7660
 1163SOL    HW2 3779   0.984   3.752   2.150  0.0234 -0.8479 -0.2811
 1164SOL     OW 3780   0.503   2.001   4.681  0.0083 -0.2948 -0.1078
 1164SOL    HW1 3781   0.441   1.954   4.618  0.5246  1.5560 -2.1147
 1164SOL    HW2 3782   0.593   2.012   4.637 -0.0155  2.2967  0.3365
 1165SOL     OW 3783   0.440   3.382   5.858  0.3426 -0.1932  0.3572
 1165SOL    HW1 3784   0.525   3.333   5.879  0.5781  0.6647  1.4835
 1165SOL    HW2 3785   0.462   3.473   5.822 -0.0991 -0.1222  0.2646
 1166SOL     OW 3786   4.854   1.818   4.216 -0.2675  0.1128  0.4746
 1166SOL    HW1 3787   4.796   1.740   4.192 -0.3567 -0.0022  1.0408
 1166SOL    HW2 3788   4.885   1.808   4.311 -0.6231  0.9780  0.6916
 1167SOL     OW 3789   3.975   0.712   4.588 -0.2413 -0.1649  0.2147
 1167SOL    HW1 3790   3.984   0.688   4.685 -1.1102 -0.5172  0.2132
 1167SOL    HW2 3791   3.980   0.629   4.533 -2.8597 -0.3694  0.1792
 1168SOL     OW 3792   2.067   3.185   3.612 -0.3626  0.0980  0.1417
 1168SOL    HW1 3793   2.099   3.227   3.528 -0.1315  0.2454  0.3013
 1168SOL    HW2 3794   2.090   3.087   3.612 -2.7677 -0.5596 -1.1794
 1169SOL     OW 3795   5.160   2.351   4.158  0.2173  0.6939 -0.1491
 1169SOL    HW1 3796   5.175   2.370   4.061  0.9024  5.1006  0.6020
 1169SOL    HW2 3797   5.062   2.341   4.175  0.1476 -1.1746 -1.3442
 1170SOL     OW 3798   4.100   0.022   5.653 -0.2840  0.3708  0.2619
 1170SOL    HW1 3799   4.001   0.021   5.636 -0.7233  1.6029  2.3481
 1170SOL    HW2 3800   4.132   0.117   5.659  0.8822 -0.0120  0.3293
 1171SOL     OW 3801   1.128   1.999   4.312  0.6576  0.5782  0.0832
 1171SOL    HW1 3802   1.042   2.050   4.314  0.5052  0.3321 -0.1978
 1171SOL    HW2 3803   1.171   2.004   4.402 -0.4395 -0.6369  0.7089
 1172SOL     OW 3804   1.350   2.794   1.533 -0.0382  0.5408 -0.1817
 1172SOL    HW1 3805   1.284   2.753   1.470  0.8530  0.7618 -1.2776
 1172SOL    HW2 3806   1.440   2.753   1.518  0.2670  0.8624  0.7073
 1173SOL     OW 3807   1.428   3.607   2.602  0.3363 -0.4270 -0.2889
 1173SOL    HW1 3808   1.338   3.652   2.600 -0.9265 -2.7742 -0.3479
 1173SOL    HW2 3809   1.434   3.550   2.683  1.8734 -0.1751 -0.2079
 1174SOL     OW 3810   0.417   2.223   4.809 -0.4181 -0.4432  0.3180
 1174SOL    HW1 3811   0.451   2.137   4.771 -1.5538 -1.9678  2.5322
 1174SOL    HW2 3812   0.438   2.226   4.907  0.2464  2.1882  0.1617
 1175SOL     OW 3813   3.573   4.916   4.197  0.5441 -0.7996 -0.3381
 1175SOL    HW1 3814   3.597   5.007   4.228  1.8830 -2.0050  2.4407
 1175SOL    HW2 3815   3.614   4.900   4.107  0.2621  1.2701 -0.8962
 1176SOL     OW 3816   5.003   4.210   4.858 -0.5787 -0.3154 -0.4023
 1176SOL    HW1 3817   4.908   4.201   4.830 -0.3242  0.0862 -1.4559
 1176SOL    HW2 3818   5.045   4.287   4.809 -0.1920  0.6531  1.3605
 1177SOL     OW 3819   0.632   2.057   5.342  0.8255  0.0867  0.0890
 1177SOL    HW1 3820   0.677   2.145   5.330  0.0923  0.3596 -0.7337
 1177SOL    HW2 3821   0.618   2.039   5.440 -0.7605  1.7882  0.2242
 1178SOL     OW 3822   0.782   2.361   4.193  0.1477 -0.0539  0.1194
 1178SOL    HW1 3823   0.738   2.427   4.254 -0.4382  1.7890 -2.1583
 1178SOL    HW2 3824   0.873   2.394   4.169  0.3529 -0.7309 -0.0337
 1179SOL     OW 3825   0.325   3.664   4.452 -0.4758  0.0038  0.0615
 1179SOL    HW1 3826   0.297   3.760   4.441 -0.7804 -0.1150 -0.2136
 1179SOL    HW2 3827   0.289   3.610   4.376 -0.3680 -0.3439  0.2560
 1180SOL     OW 3828   2.303   2.200   0.451  0.1612  0.2082 -0.0745
 1180SOL    HW1 3829   2.222   2.248   0.486 -0.3576  0.0318 -0.9902
 1180SOL    HW2 3830   2.356   2.164   0.528 -1.3562 -0.8397  0.5279
 1181SOL     OW 3831   0.179   3.962   0.071  0.0718  0.2939 -0.1845
 1181SOL    HW1 3832   0.085   3.935   0.046 -0.1250 -2.6290  3.0947
 1181SOL    HW2 3833   0.183   4.062   0.077 -3.0573  0.5122  0.2839
 1182SOL     OW 3834   1.617   3.780   2.168  0.2336 -0.2864 -0.5259
 1182SOL    HW1 3835   1.571   3.788   2.080  0.7869 -2.0087 -1.0200
 1182SOL    HW2 3836   1.555   3.737   2.234  0.4254 -0.7076 -0.6145
 1183SOL     OW 3837   0.233   2.440   5.013 -0.3546 -0.3899 -0.0123
 1183SOL    HW1 3838   0.152   2.491   4.985  0.9352  1.0019 -1.4178
 1183SOL    HW2 3839   0.265   2.471   5.102 -1.3441 -0.9616  0.5564
 1184SOL     OW 3840   3.214   2.689   4.883  0.2083  0.1368 -0.2731
 1184SOL    HW1 3841   3.186   2.614   4.823 -0.0572 -0.5067  0.6520
 1184SOL    HW2 3842   3.135   2.746   4.904  0.0522 -0.3375  0.4445
 1185SOL     OW 3843   5.901   3.521   2.644  0.7966 -0.5633  0.5071
 1185SOL    HW1 3844   5.959   3.601   2.629  0.2792 -0.3530 -0.4659
 1185SOL    HW2 3845   5.833   3.515   2.571 -0.2175 -0.9792  1.4534
 1186SOL     OW 3846   2.474   1.360   4.018 -0.4922  0.1779  0.2781
 1186SOL    HW1 3847   2.406   1.392   4.084 -1.0142 -0.3786  0.0173
 1186SOL    HW2 3848   2.460   1.263   4.000  0.2580  0.1011  0.0764
 1187SOL     OW 3849   4.214   2.503   3.025  0.2599  0.1805 -0.0892
 1187SOL    HW1 3850   4.287   2.535   3.085 -2.2432  3.1589  1.6721
 1187SOL    HW2 3851   4.147   2.451   3.078  0.6362 -1.8401 -1.4974
 1188SOL     OW 3852   0.643   2.929   4.882 -0.2463  0.3613 -0.4564
 1188SOL    HW1 3853   0.726   2.984   4.885  0.6498 -0.9371 -0.4246
 1188SOL    HW2 3854   0.565   2.984   4.911  0.9350  1.0316  1.6673
 1189SOL     OW 3855   5.335   5.650   3.253 -0.1319 -0.2449  0.0425
 1189SOL    HW1 3856   5.388   5.571   3.285 -0.6128  0.3578  2.5018
 1189SOL    HW2 3857   5.398   5.725   3.232  0.1296 -0.0271  1.4968
 1190SOL     OW 3858   1.733   2.768   4.694 -0.8852 -0.4566 -1.0418
 1190SOL    HW1 3859   1.822   2.813   4.702 -0.5547 -0.8350 -2.3073
 1190SOL    HW2 3860   1.670   2.806   4.762  0.1847 -0.0740 -0.2257
 1191SOL     OW 3861   0.798   2.942   3.289 -0.0189  0.2627 -1.4693
 1191SOL    HW1 3862   0.770   3.031   3.253  0.3369  0.1246 -2.1139
 1191SOL    HW2 3863   0.721   2.898   3.334 -0.2035  0.8848 -1.1664
 1192SOL     OW 3864   1.657   1.555   4.162  0.1142  0.9722  0.2276
 1192SOL    HW1 3865   1.662   1.470   4.109 -0.1275  0.1988  1.4200
 1192SOL    HW2 3866   1.748   1.596   4.167  0.4376  0.2357  0.5053
 1193SOL     OW 3867   5.531   1.852   0.316 -0.1542 -0.4444 -0.5329
 1193SOL    HW1 3868   5.560   1.763   0.351 -0.8164 -0.8149 -0.9072
 1193SOL    HW2 3869   5.436   1.846   0.284 -0.9885  0.9434  1.4942
 1194SOL     OW 3870   0.876   3.810   3.341 -0.4165  0.4121 -0.7094
 1194SOL    HW1 3871   0.878   3.898   3.389 -1.4848  1.5719 -2.6577
 1194SOL    HW2 3872   0.829   3.742   3.398 -0.1470  1.2682  0.5631
 1195SOL     OW 3873   0.139   3.467   2.837 -0.0044 -0.1152  0.1083
 1195SOL    HW1 3874   0.204   3.511   2.775 -0.6848  1.7071  0.6001
 1195SOL    HW2 3875   0.054   3.448   2.789  0.3752 -1.1579 -0.1675
 1196SOL     OW 3876   1.346   2.044   4.849  0.1330  0.0965  0.8047
 1196SOL    HW1 3877   1.312   1.966   4.901 -1.1297  1.2063  1.7248
 1196SOL    HW2 3878   1.270   2.105   4.828  0.5933 -0.2853 -2.4060
 1197SOL     OW 3879   0.988   2.564   3.415  0.2019 -0.1875 -0.0006
 1197SOL    HW1 3880   0.914   2.551   3.349  1.3868  1.4052 -1.7712
 1197SOL    HW2 3881   1.071   2.521   3.380  0.4937 -0.6959  1.2680
 1198SOL     OW 3882   1.572   2.341   3.934 -0.1487 -0.0992  0.7593
 1198SOL    HW1 3883   1.501   2.412   3.933  0.3070  0.3672  0.7262
 1198SOL    HW2 3884   1.530   2.251   3.924 -0.7370  0.1679  0.7831
 1199SOL     OW 3885   0.857   3.708   4.545 -0.0475 -0.0878  0.2416
 1199SOL    HW1 3886   0.897   3.618   4.558 -0.4261 -0.2702  0.1700
 1199SOL    HW2 3887   0.826   3.718   4.451 -3.5229 -1.3736  1.1087
 1200SOL     OW 3888   3.427   2.529   4.954 -0.0189 -0.1239 -0.2395
 1200SOL    HW1 3889   3.352   2.580   4.913 -1.1867 -1.0782  0.6519
 1200SOL    HW2 3890   3.497   2.593   4.985 -1.4965  0.9721  0.9556
 1201SOL     OW 3891   1.398   3.573   1.189 -0.1006 -0.3146 -0.1805
 1201SOL    HW1 3892   1.480   3.630   1.188  0.9980 -1.6725 -3.8805
 1201SOL    HW2 3893   1.408   3.502   1.259  1.2931  0.2815  0.2560
 1202SOL     OW 3894   0.802   5.172   3.184 -0.0525  0.2454 -0.3308
 1202SOL    HW1 3895   0.869   5.185   3.110  0.3901 -0.1602 -0.0078
 1202SOL    HW2 3896   0.781   5.075   3.193 -0.5548  0.3554 -0.3118
 1203SOL     OW 3897   0.402   2.150   5.706  0.0521 -0.0165  0.0116
 1203SOL    HW1 3898   0.320   2.094   5.712 -1.1613  1.4283 -1.7481
 1203SOL    HW2 3899   0.483   2.093   5.719 -1.1613 -1.7734  0.2230
 1204SOL     OW 3900   1.575   3.119   5.000  0.4698 -0.2965  0.5950
 1204SOL    HW1 3901   1.513   3.183   4.954  0.7216  1.4837  2.5739
 1204SOL    HW2 3902   1.559   3.122   5.099  3.8711  0.5765  1.2712
 1205SOL     OW 3903   0.748   3.122   2.894 -0.0240  0.2776  0.5996
 1205SOL    HW1 3904   0.794   3.077   2.818  0.3968 -1.2530  1.7135
 1205SOL    HW2 3905   0.649   3.118   2.880  0.0722  1.8462 -0.8368
 1206SOL     OW 3906   5.938   0.992   4.087  0.1053  0.1489 -0.0517
 1206SOL    HW1 3907   5.926   0.975   4.185  0.5253  0.0536 -0.0181
 1206SOL    HW2 3908   5.952   1.090   4.072  0.1125  0.1541 -0.0116
 1207SOL     OW 3909   5.458   4.017   4.567  0.3656  0.6341  0.0376
 1207SOL    HW1 3910   5.420   3.983   4.482 -0.1055 -1.3372  0.9872
 1207SOL    HW2 3911   5.421   3.966   4.644  1.7613  1.4706  1.3421
 1208SOL     OW 3912   3.986   3.933   3.367  0.3176 -0.3314  0.1729
 1208SOL    HW1 3913   4.070   3.890   3.333 -0.4855 -2.6059  0.9353
 1208SOL    HW2 3914   3.966   4.015   3.313  2.6860 -0.0618 -0.4006
 1209SOL     OW 3915   1.861   5.779   0.045 -0.3286 -0.3574 -0.1196
 1209SOL    HW1 3916   1.772   5.735   0.033  0.4568 -2.0717 -0.0260
 1209SOL    HW2 3917   1.930   5.729  -0.007  0.6989  0.5018  0.3829
 1210SOL     OW 3918   1.491   2.098   3.829 -0.3826 -0.7317  0.2859
 1210SOL    HW1 3919   1.434   2.116   3.749  0.5125 -1.0140 -0.4376
 1210SOL    HW2 3920   1.475   2.004   3.861 -1.7197 -0.1908  1.2760
 1211SOL     OW 3921   1.322   2.073   4.123  0.1874  0.0065 -0.0638
 1211SOL    HW1 3922   1.353   1.999   4.063  0.8828  0.2985 -0.0689
 1211SOL    HW2 3923   1.255   2.037   4.188  1.8348 -1.0411  1.1242
 1212SOL     OW 3924   2.016   2.860   3.799 -0.3130  0.0820 -0.9474
 1212SOL    HW1 3925   2.025   2.874   3.897 -1.2911 -3.1479 -0.2666
 1212SOL    HW2 3926   2.098   2.891   3.752  0.3983  1.1651  0.9242
 1213SOL     OW 3927   0.398   3.513   4.691  0.0906 -0.5500 -0.0161
 1213SOL    HW1 3928   0.400   3.587   4.759 -0.7929 -0.5360  0.0087
 1213SOL    HW2 3929   0.399   3.553   4.599 -0.3073 -0.5120 -0.0033
 1214SOL     OW 3930   1.948   2.520   5.432  0.5356 -0.0236 -0.9012
 1214SOL    HW1 3931   1.985   2.529   5.525  1.9918 -0.6239 -1.4058
 1214SOL    HW2 3932   1.932   2.611   5.394 -1.5186  0.2609  0.4508
 1215SOL     OW 3933   2.258   0.246   2.465  0.0305  0.2532 -0.1424
 1215SOL    HW1 3934   2.307   0.327   2.497  1.8199 -1.0156  0.5415
 1215SOL    HW2 3935   2.162   0.251   2.493  0.2711  1.7847  0.4986
 1216SOL     OW 3936   1.037   0.884   3.972  0.3020 -0.0431  0.1893
 1216SOL    HW1 3937   1.104   0.955   3.996 -0.0460 -0.0076  1.0922
 1216SOL    HW2 3938   0.950   0.926   3.947  0.5255 -0.1014 -0.7259
 1217SOL     OW 3939   1.850   1.760   3.923 -0.4610 -0.0009  0.1313
 1217SOL    HW1 3940   1.920   1.731   3.988  0.9431  2.2052 -0.2914
 1217SOL    HW2 3941   1.813   1.680   3.876  3.5453 -1.2033 -1.3750
 1218SOL     OW 3942   0.273   3.294   4.792  0.8157 -0.3305 -0.9764
 1218SOL    HW1 3943   0.311   3.376   4.748 -1.1291  1.1663 -0.0579
 1218SOL    HW2 3944   0.210   3.249   4.730  1.5002 -0.8617 -1.2991
 1219SOL     OW 3945   0.875   2.111   5.797 -0.7052  0.6582  0.0840
 1219SOL    HW1 3946   0.934   2.102   5.878 -1.5519 -0.4130  0.6066
 1219SOL    HW2 3947   0.931   2.106   5.714 -0.0664 -0.5704  0.5617
 1220SOL     OW 3948   5.742   3.094   3.983  0.1387  0.2253 -0.1133
 1220SOL    HW1 3949   5.831   3.059   4.012  1.1327  0.9690 -2.1241
 1220SOL    HW2 3950   5.720   3.059   3.892 -0.1168  2.5626 -1.0219
 1221SOL     OW 3951   0.956   3.073   3.700  0.7266  0.0864  0.1907
 1221SOL    HW1 3952   1.005   2.990   3.728  0.9727  0.1516 -0.0399
 1221SOL    HW2 3953   0.858   3.053   3.691  0.6949 -0.0162  0.7632
 1222SOL     OW 3954   0.410   1.131   3.525 -0.2558  0.2651  0.1023
 1222SOL    HW1 3955   0.412   1.151   3.623 -1.6418 -0.5188  0.3173
 1222SOL    HW2 3956   0.354   1.049   3.509 -0.5043  0.7026 -1.3983
 1223SOL     OW 3957   5.328   1.620   0.841  0.3823  0.2219 -0.2616
 1223SOL    HW1 3958   5.404   1.582   0.894 -0.2039 -0.7686 -0.1112
 1223SOL    HW2 3959   5.297   1.552   0.774 -0.4745  0.5546 -0.2086
 1224SOL     OW 3960   0.675   2.723   2.874 -0.1998 -0.4177 -0.1852
 1224SOL    HW1 3961   0.595   2.767   2.915 -0.7133 -0.8118 -0.7571
 1224SOL    HW2 3962   0.750   2.723   2.941 -1.0926 -1.2543  0.8567
 1225SOL     OW 3963   0.666   2.780   0.562  0.4889 -0.1970  0.1466
 1225SOL    HW1 3964   0.650   2.808   0.467  0.1023  1.4747  0.6723
 1225SOL    HW2 3965   0.586   2.731   0.597 -0.3060  1.1435  0.2771
 1226SOL     OW 3966   5.701   3.346   5.294 -0.5628 -0.0397 -0.2772
 1226SOL    HW1 3967   5.758   3.423   5.264 -0.1819 -0.3782 -0.4232
 1226SOL    HW2 3968   5.751   3.260   5.282 -0.9764 -0.3111 -0.0872
 1227SOL     OW 3969   3.770   4.459   3.885  0.1144  0.2389 -1.2111
 1227SOL    HW1 3970   3.783   4.522   3.808  0.1203  0.6774 -0.8590
 1227SOL    HW2 3971   3.859   4.438   3.926 -0.0030  1.0496 -0.5152
 1228SOL     OW 3972   5.720   2.302   3.747  0.3760 -0.3515  0.3179
 1228SOL    HW1 3973   5.670   2.328   3.664 -0.7340 -0.5966  0.8906
 1228SOL    HW2 3974   5.662   2.244   3.804  2.2164 -2.9127 -0.2134
 1229SOL     OW 3975   4.831   1.474   3.823  0.5923 -0.4879  0.3097
 1229SOL    HW1 3976   4.759   1.531   3.785  2.4684  1.8027 -0.0549
 1229SOL    HW2 3977   4.828   1.478   3.923  0.4730 -0.0247  0.2885
 1230SOL     OW 3978   2.090   2.735   4.293 -0.0940 -0.4104  0.7672
 1230SOL    HW1 3979   2.188   2.747   4.311 -0.1487  0.1549  0.7124
 1230SOL    HW2 3980   2.071   2.758   4.197  0.4539 -4.7978 -0.6330
 1231SOL     OW 3981   0.448   0.652   0.009  0.0995 -0.2254  0.0488
 1231SOL    HW1 3982   0.525   0.683   0.065  1.2341 -0.2901 -1.4154
 1231SOL    HW2 3983   0.394   0.587   0.062  0.5219  0.4844  1.4253
 1232SOL     OW 3984   1.358   2.539   3.971  0.2366  0.5401  0.0762
 1232SOL    HW1 3985   1.351   2.475   4.048  1.4515 -1.2336 -1.1849
 1232SOL    HW2 3986   1.338   2.632   4.003 -2.0692 -0.4791  1.8964
 1233SOL     OW 3987   4.747   2.894   4.059  0.2103  0.3014 -0.1435
 1233SOL    HW1 3988   4.742   2.799   4.028  2.4881 -0.1426  0.7051
 1233SOL    HW2 3989   4.843   2.922   4.069 -0.3633  1.6244  2.7830
 1234SOL     OW 3990   0.292   2.749   1.735 -0.2146 -0.2514 -0.2499
 1234SOL    HW1 3991   0.318   2.745   1.639 -0.5353  1.8853 -0.4731
 1234SOL    HW2 3992   0.310   2.661   1.778  3.2556 -0.2652 -1.4137
 1235SOL     OW 3993   0.438   2.272   5.133 -0.7515 -0.2007 -0.1833
 1235SOL    HW1 3994   0.433   2.368   5.160  0.0676 -0.5789  1.4454
 1235SOL    HW2 3995   0.369   2.219   5.183  1.3584 -1.0577  2.0404
 1236SOL     OW 3996   5.776   1.513   5.482 -0.3014 -0.8467  0.3500
 1236SOL    HW1 3997   5.793   1.599   5.434  0.0155 -0.6434  0.8212
 1236SOL    HW2 3998   5.863   1.471   5.506 -0.4308 -1.8742 -0.8826
 1237SOL     OW 3999   5.856   1.610   0.117  0.2276  0.2463 -0.4040
 1237SOL    HW1 4000   5.824   1.704   0.108 -1.6461 -0.3609 -0.4223
 1237SOL    HW2 4001   5.866   1.569   0.026  0.1473  0.1429 -0.3667
 1238SOL     OW 4002   5.674   3.920   3.753 -0.2820  0.1555 -0.1093
 1238SOL    HW1 4003   5.701   3.994   3.692 -0.2397  1.6859  1.6726
 1238SOL    HW2 4004   5.721   3.836   3.727  0.3001  0.9387 -1.6875
 1239SOL     OW 4005   1.273   2.340   4.152 -0.1288 -0.3947  0.6021
 1239SOL    HW1 4006   1.288   2.241   4.146 -0.4134 -0.3981 -0.1168
 1239SOL    HW2 4007   1.249   2.364   4.246  0.8449 -0.8735  0.9899
 1240SOL     OW 4008   1.006   2.019   3.245  0.3725  0.2748 -0.8078
 1240SOL    HW1 4009   0.952   2.082   3.301  1.1343  0.4253 -0.2309
 1240SOL    HW2 4010   0.949   1.982   3.172 -0.8914 -0.6183  0.5919
 1241SOL     OW 4011   4.953   1.835   5.396 -0.2750  0.1415 -0.0631
 1241SOL    HW1 4012   4.896   1.915   5.415 -1.3183 -0.2833 -1.3174
 1241SOL    HW2 4013   4.900   1.752   5.412  0.2061 -0.2709 -0.5780
 1242SOL     OW 4014   5.240   4.081   3.412 -0.7324  0.0008 -0.5944
 1242SOL    HW1 4015   5.188   4.003   3.446 -0.1857  1.1384  3.4095
 1242SOL    HW2 4016   5.177   4.151   3.378 -1.4463 -0.7428 -0.8166
 1243SOL     OW 4017   5.045   2.451   4.422 -0.7784 -0.8783  0.3763
 1243SOL    HW1 4018   5.141   2.476   4.408 -0.3401 -2.4485  0.2722
 1243SOL    HW2 4019   4.986   2.509   4.366  0.3042 -1.4062 -1.3747
 1244SOL     OW 4020   0.998   0.698   4.563 -0.1649  0.4445  0.2249
 1244SOL    HW1 4021   0.977   0.796   4.556 -1.5453  0.1633  0.2131
 1244SOL    HW2 4022   1.068   0.685   4.634 -0.0704  1.4211  0.3342
 1245SOL     OW 4023   4.378   0.518   1.451  0.7843  0.2006  0.6071
 1245SOL    HW1 4024   4.379   0.544   1.548 -0.0461  1.4807  0.2969
 1245SOL    HW2 4025   4.415   0.593   1.396  0.9570 -0.3925 -0.0959
 1246SOL     OW 4026   0.397   4.011   4.714  0.2822 -0.6854 -0.0672
 1246SOL    HW1 4027   0.440   4.012   4.624  1.6296 -2.0426  0.5296
 1246SOL    HW2 4028   0.305   3.971   4.707 -0.2761  0.7143 -1.0789
 1247SOL     OW 4029   2.351   2.993   5.368 -0.2494  0.1475 -0.5671
 1247SOL    HW1 4030   2.396   3.013   5.455  0.7728  0.1032 -1.0594
 1247SOL    HW2 4031   2.258   2.961   5.384  0.8289 -2.6751  0.7099
 1248SOL     OW 4032   2.555   1.521   4.528 -0.5521 -0.6038  0.1788
 1248SOL    HW1 4033   2.463   1.554   4.504 -0.1958 -0.7288 -1.4353
 1248SOL    HW2 4034   2.572   1.540   4.625 -2.0468 -0.0375  0.3636
 1249SOL     OW 4035   5.520   2.632   0.665  0.0631 -0.2636  0.4732
 1249SOL    HW1 4036   5.464   2.714   0.649 -0.6948 -0.7341  0.6758
 1249SOL    HW2 4037   5.567   2.607   0.581 -0.0337  0.1394  0.2958
 1250SOL     OW 4038   0.664   2.597   5.290  0.2786 -0.4076  0.0381
 1250SOL    HW1 4039   0.655   2.633   5.197 -0.9805 -0.6005  0.0776
 1250SOL    HW2 4040   0.742   2.641   5.335  0.3594  0.3308 -0.8027
 1251SOL     OW 4041   3.406   1.809   2.559 -0.5413 -0.4936 -0.1892
 1251SOL    HW1 4042   3.368   1.882   2.616  1.0711 -0.7886  1.3553
 1251SOL    HW2 4043   3.395   1.721   2.606  0.4846 -0.7925 -0.4685
 1252SOL     OW 4044   0.012   4.247   3.663  0.4087 -0.0688  0.1573
 1252SOL    HW1 4045   0.026   4.205   3.752 -0.0573  0.8245  0.6586
 1252SOL    HW2 4046   0.069   4.330   3.656 -0.7740  0.7689  0.2640
 1253SOL     OW 4047   3.165   1.476   4.444 -0.2611  0.0070 -0.3194
 1253SOL    HW1 4048   3.095   1.517   4.503  0.1371  1.5807 -0.8914
 1253SOL    HW2 4049   3.170   1.526   4.358  1.2531 -0.3500 -0.4756
 1254SOL     OW 4050   5.599   1.248   3.967 -0.1622  0.0761 -0.2646
 1254SOL    HW1 4051   5.603   1.149   3.978  1.1004  0.1628  0.3401
 1254SOL    HW2 4052   5.681   1.279   3.919  0.1337  0.9495  0.7663
 1255SOL     OW 4053   1.082   3.527   4.520  0.2296  0.5076 -0.7760
 1255SOL    HW1 4054   1.127   3.539   4.609 -2.1879 -0.9148  0.7382
 1255SOL    HW2 4055   1.094   3.432   4.490  1.4226  1.0919 -2.2554
 1256SOL     OW 4056   5.871   0.826   5.327  0.3881 -0.0520 -0.1115
 1256SOL    HW1 4057   5.948   0.861   5.275 -0.2833  0.4620 -0.7729
 1256SOL    HW2 4058   5.812   0.901   5.356 -1.6420 -0.5884 -2.4571
 1257SOL     OW 4059   4.884   2.304   4.140  0.2813  0.0723 -0.6841
 1257SOL    HW1 4060   4.853   2.299   4.045 -0.1902 -0.3267 -0.5149
 1257SOL    HW2 4061   4.876   2.399   4.172  1.6581  0.4672 -1.4273
 1258SOL     OW 4062   0.124   3.186   5.119 -0.1226 -0.1854  0.5049
 1258SOL    HW1 4063   0.155   3.099   5.080 -3.7063 -0.7363 -1.5832
 1258SOL    HW2 4064   0.192   3.257   5.100  1.4736 -1.9026 -0.5114
 1259SOL     OW 4065   5.817   3.626   4.421  0.8297  0.7410  0.5741
 1259SOL    HW1 4066   5.799   3.724   4.428 -0.7427  0.4255  1.7410
 1259SOL    HW2 4067   5.872   3.596   4.499  1.8495  0.7979 -0.1210
 1260SOL     OW 4068   5.416   2.121   2.176  0.0934 -0.8409 -0.8041
 1260SOL    HW1 4069   5.426   2.063   2.094 -0.0943 -2.4399  0.2552
 1260SOL    HW2 4070   5.441   2.068   2.257  1.4411  1.0636  0.1116
 1261SOL     OW 4071   5.767   3.935   5.124 -0.2264  0.2898  0.1341
 1261SOL    HW1 4072   5.703   3.869   5.087 -0.8119  1.0226 -0.1922
 1261SOL    HW2 4073   5.759   3.938   5.224 -1.6994  1.3460  0.0110
 1262SOL     OW 4074   5.671   3.071   0.150 -0.2837 -0.5610 -0.6785
 1262SOL    HW1 4075   5.598   3.138   0.135  0.0935 -0.3813 -1.7233
 1262SOL    HW2 4076   5.659   2.993   0.088 -0.8544 -1.6047  0.6778
 1263SOL     OW 4077   1.461   4.888   3.818  0.3120  0.2586  0.5283
 1263SOL    HW1 4078   1.438   4.812   3.757  1.8704 -0.3947  0.7041
 1263SOL    HW2 4079   1.539   4.938   3.780  1.0303  0.1000  1.7411
 1264SOL     OW 4080   5.948   3.002   4.142 -0.2463 -0.0671  0.2956
 1264SOL    HW1 4081   5.873   2.943   4.172 -1.7365  1.9138  0.7504
 1264SOL    HW2 4082   5.989   2.964   4.059 -2.5763 -0.6657 -0.6892
 1265SOL     OW 4083   1.026   3.538   3.553  0.0659 -0.3576 -0.6678
 1265SOL    HW1 4084   1.005   3.443   3.533 -0.1101 -0.0191 -2.2795
 1265SOL    HW2 4085   0.942   3.593   3.548  0.4062  0.1201 -1.4188
 1266SOL     OW 4086   0.798   4.912   0.124  0.0560  0.1045  0.9045
 1266SOL    HW1 4087   0.852   4.980   0.175  0.4450  0.6103 -0.1615
 1266SOL    HW2 4088   0.723   4.959   0.077 -0.4363 -0.3931  1.1886
 1267SOL     OW 4089   4.593   3.660   4.609 -0.4311  0.4025 -0.4548
 1267SOL    HW1 4090   4.607   3.634   4.705 -1.9008  1.3381  0.0506
 1267SOL    HW2 4091   4.679   3.651   4.559  0.6712  1.0168  1.2277
 1268SOL     OW 4092   0.467   3.069   5.286 -0.2628  0.1051 -0.3192
 1268SOL    HW1 4093   0.477   2.970   5.271  0.6487  0.2667 -0.7961
 1268SOL    HW2 4094   0.528   3.119   5.225  2.7207  0.8321  2.9360
 1269SOL     OW 4095   5.666   2.099   3.247 -0.1885  0.4376 -0.3974
 1269SOL    HW1 4096   5.629   2.073   3.336 -0.2771 -3.0351 -1.3183
 1269SOL    HW2 4097   5.762   2.127   3.259 -0.3844  0.6453  0.8613
 1270SOL     OW 4098   4.633   2.719   4.438 -0.7671 -0.2700  0.1374
 1270SOL    HW1 4099   4.569   2.795   4.443 -0.9299 -0.4448  0.8841
 1270SOL    HW2 4100   4.720   2.751   4.401 -0.2117  0.7309  2.1407
 1271SOL     OW 4101   5.805   3.205   5.773  0.1515  0.4650  0.4821
 1271SOL    HW1 4102   5.711   3.215   5.808 -0.5890 -2.6470 -0.2785
 1271SOL    HW2 4103   5.812   3.250   5.685 -1.5609 -1.4535 -0.7493
 1272SOL     OW 4104   1.171   2.481   3.794 -0.2955  0.5879 -0.0415
 1272SOL    HW1 4105   1.235   2.503   3.867  0.3643 -2.6020  0.4991
 1272SOL    HW2 4106   1.220   2.481   3.706  0.2259 -0.7171  0.2268
 1273SOL     OW 4107   1.522   3.014   4.248 -0.0240 -0.3029 -0.2861
 1273SOL    HW1 4108   1.587   3.023   4.323  0.1473 -1.3302 -0.2879
 1273SOL    HW2 4109   1.526   3.095   4.189  0.0696  0.3628  0.6270
 1274SOL     OW 4110   4.240   2.243   3.797 -0.6452 -0.5991 -0.2677
 1274SOL    HW1 4111   4.184   2.226   3.879 -2.1862  0.4319 -1.0531
 1274SOL    HW2 4112   4.187   2.221   3.715 -0.2241  1.1522 -1.0636
 1275SOL     OW 4113   0.733   3.161   3.159  0.0162  0.2638  0.9955
 1275SOL    HW1 4114   0.654   3.223   3.160 -0.5385 -0.1781 -2.8727
 1275SOL    HW2 4115   0.752   3.132   3.066  3.0724 -1.9224  2.1362
 1276SOL     OW 4116   1.038   3.663   4.285 -0.1273 -0.5107  0.4310
 1276SOL    HW1 4117   1.063   3.631   4.377  1.0355 -1.6753 -0.2480
 1276SOL    HW2 4118   0.946   3.701   4.287 -1.3306 -3.2173  1.5141
 1277SOL     OW 4119   0.352   4.664   3.281 -0.2572  0.0666  0.0667
 1277SOL    HW1 4120   0.354   4.702   3.374 -0.5095  0.5133 -0.1072
 1277SOL    HW2 4121   0.287   4.589   3.278  0.0054 -0.1738  0.3365
 1278SOL     OW 4122   0.560   4.110   0.728  0.0231 -0.2878  0.2530
 1278SOL    HW1 4123   0.621   4.174   0.775  0.5315 -1.5672  1.4188
 1278SOL    HW2 4124   0.613   4.034   0.692 -0.7238 -0.7782  0.1580
 1279SOL     OW 4125   5.622   1.731   2.244 -0.3019  0.2441 -0.1943
 1279SOL    HW1 4126   5.713   1.754   2.278 -0.3572  0.0376  0.0903
 1279SOL    HW2 4127   5.565   1.698   2.319 -0.7458  0.7788 -0.2853
 1280SOL     OW 4128   5.174   3.426   4.527  0.0370  0.7289 -0.1152
 1280SOL    HW1 4129   5.171   3.440   4.428  0.1352 -1.4263 -0.4651
 1280SOL    HW2 4130   5.093   3.467   4.569 -0.4623  0.8818 -1.2015
 1281SOL     OW 4131   5.938   3.845   3.917  0.3052 -0.0919  0.1124
 1281SOL    HW1 4132   5.888   3.833   4.003  0.3184  1.2142  0.3303
 1281SOL    HW2 4133   5.894   3.793   3.845 -2.4210  2.2646 -0.0888
 1282SOL     OW 4134   0.341   4.052   2.587  0.2025 -0.4001  0.0457
 1282SOL    HW1 4135   0.314   4.140   2.627 -1.9029  0.5766 -3.1357
 1282SOL    HW2 4136   0.260   3.997   2.571  0.9811 -1.0090 -2.0904
 1283SOL     OW 4137   1.870   0.727   3.732  0.0605  0.1188 -1.0993
 1283SOL    HW1 4138   1.820   0.752   3.815  0.6932 -3.5293  0.5464
 1283SOL    HW2 4139   1.890   0.810   3.679 -2.7916  2.2845  0.9140
 1284SOL     OW 4140   0.930   0.735   4.195  0.1566 -0.5677  0.7237
 1284SOL    HW1 4141   0.938   0.786   4.109 -0.9839 -1.7566 -0.1278
 1284SOL    HW2 4142   0.858   0.776   4.251  0.7564  0.0797  1.0379
 1285SOL     OW 4143   0.692   1.344   2.626  0.2039 -0.1870  0.0814
 1285SOL    HW1 4144   0.599   1.307   2.619  0.5413 -1.4819  1.8485
 1285SOL    HW2 4145   0.741   1.327   2.541 -0.4767 -1.5329 -0.0666
 1286SOL     OW 4146   5.474   4.247   3.916 -0.1323  0.6576 -0.1510
 1286SOL    HW1 4147   5.499   4.271   4.009  1.6544 -1.9297  0.1482
 1286SOL    HW2 4148   5.551   4.265   3.855 -0.9124  1.3421 -0.9507
 1287SOL     OW 4149   0.060   3.007   2.269  0.3969 -0.0210 -0.1367
 1287SOL    HW1 4150   0.119   3.081   2.300  1.1632 -0.6933  0.0200
 1287SOL    HW2 4151   0.101   2.963   2.189 -1.0591  1.0405 -1.5564
 1288SOL     OW 4152   3.677   4.337   3.242  0.3149  0.7462 -0.5213
 1288SOL    HW1 4153   3.737   4.347   3.163 -0.9035 -0.4148 -1.6377
 1288SOL    HW2 4154   3.603   4.405   3.236 -1.0090 -0.7017 -1.6000
 1289SOL     OW 4155   5.832   3.310   4.979 -0.4043  0.0747 -0.1572
 1289SOL    HW1 4156   5.897   3.242   5.014 -1.7553 -0.9548  0.4298
 1289SOL    HW2 4157   5.877   3.400   4.974  1.6788 -0.9616 -1.7222
 1290SOL     OW 4158   1.152   2.784   2.886  0.0358 -0.2265  0.2051
 1290SOL    HW1 4159   1.185   2.820   2.799  1.7279  1.1858  1.3685
 1290SOL    HW2 4160   1.215   2.810   2.960 -0.7088 -2.3684  1.7095
 1291SOL     OW 4161   2.585   2.143   4.745 -0.5295 -0.2838 -0.2999
 1291SOL    HW1 4162   2.488   2.167   4.749  0.0419  2.2244  0.0300
 1291SOL    HW2 4163   2.601   2.060   4.798 -2.1231  0.7264  1.9009
 1292SOL     OW 4164   0.805   2.524   3.221  0.0235  0.5530  0.7188
 1292SOL    HW1 4165   0.773   2.449   3.163  1.5589 -0.4138  1.0588
 1292SOL    HW2 4166   0.848   2.594   3.163 -0.5106  0.6981  0.4913
 1293SOL     OW 4167   0.449   2.622   0.652  0.1587 -0.1305 -0.1550
 1293SOL    HW1 4168   0.366   2.572   0.627  0.9211 -1.0392 -0.9561
 1293SOL    HW2 4169   0.511   2.560   0.700  0.1376  0.7064  0.9961
 1294SOL     OW 4170   5.588   2.133   0.047 -0.0456 -0.5710 -0.3170
 1294SOL    HW1 4171   5.504   2.154   0.097 -1.3536 -2.0341 -1.7852
 1294SOL    HW2 4172   5.604   2.202  -0.024 -0.1368 -0.4411 -0.2111
 1295SOL     OW 4173   0.693   2.130   4.016 -0.1053  0.2399 -0.3254
 1295SOL    HW1 4174   0.696   2.213   4.071 -0.0468  0.8434 -1.2137
 1295SOL    HW2 4175   0.741   2.146   3.930  0.8239 -1.0508 -0.0696
 1296SOL     OW 4176   4.945   2.074   5.609  0.4866  0.3182 -0.1824
 1296SOL    HW1 4177   4.871   2.141   5.618  0.7091  0.4885  0.4579
 1296SOL    HW2 4178   5.000   2.096   5.529  1.7261  2.1115  1.0680
 1297SOL     OW 4179   5.661   2.473   3.356  0.4968  0.1930  1.2616
 1297SOL    HW1 4180   5.618   2.430   3.277  1.2344  0.5374  0.6509
 1297SOL    HW2 4181   5.617   2.562   3.373  2.0371  1.3655 -0.4597
 1298SOL     OW 4182   1.451   5.668   3.946  0.3088  0.4348  0.1761
 1298SOL    HW1 4183   1.387   5.745   3.948 -3.1814 -2.0246 -2.8319
 1298SOL    HW2 4184   1.537   5.697   3.904 -1.0665  2.5851 -1.3593
 1299SOL     OW 4185   0.904   1.704   4.519  0.3188 -0.0928  0.2209
 1299SOL    HW1 4186   0.886   1.612   4.554  0.4657 -0.5631 -0.9159
 1299SOL    HW2 4187   0.848   1.720   4.438 -0.8660  1.4054  1.2767
 1300SOL     OW 4188   1.025   3.084   3.956  0.0690  0.0023 -0.4455
 1300SOL    HW1 4189   1.045   3.165   4.010 -0.7044  0.2818 -0.5709
 1300SOL    HW2 4190   0.998   3.111   3.863 -0.1558 -0.3952 -0.5003
 1301SOL     OW 4191   1.941   4.084   2.540 -0.1344 -0.0110 -0.3918
 1301SOL    HW1 4192   2.008   4.035   2.485  1.4231  0.6761  0.7809
 1301SOL    HW2 4193   1.866   4.115   2.483 -0.1595 -1.9944 -1.5045
 1302SOL     OW 4194   5.521   1.851   5.444  0.3575  0.3566  0.3865
 1302SOL    HW1 4195   5.422   1.866   5.438 -0.2029 -2.7781  0.2109
 1302SOL    HW2 4196   5.556   1.892   5.528 -0.6565  3.2387 -0.4907
 1303SOL     OW 4197   0.776   3.643   3.997 -0.3350 -0.3282 -0.3252
 1303SOL    HW1 4198   0.847   3.575   4.015  0.2908  1.0436  3.0749
 1303SOL    HW2 4199   0.686   3.604   4.021  0.0868  0.1229  2.3188
 1304SOL     OW 4200   5.499   0.737   4.851  0.4949 -0.0328 -0.2570
 1304SOL    HW1 4201   5.466   0.654   4.896  0.0231  0.1147 -0.3220
 1304SOL    HW2 4202   5.535   0.714   4.761  1.6046 -0.3543  0.2491
 1305SOL     OW 4203   0.745   1.382   0.254 -0.4746  0.4012  0.2745
 1305SOL    HW1 4204   0.746   1.473   0.295  0.8323 -0.4466  2.2555
 1305SOL    HW2 4205   0.838   1.353   0.233 -0.8054 -0.8127  0.4273
 1306SOL     OW 4206  -0.000   4.089   0.303  0.2278  0.0234 -0.0097
 1306SOL    HW1 4207   0.039   4.080   0.395 -2.4613  1.0343  1.3741
 1306SOL    HW2 4208   0.065   4.136   0.244  2.4522 -1.5566  1.0303
 1307SOL     OW 4209   1.466   2.892   1.208 -0.6770 -0.2349 -0.2683
 1307SOL    HW1 4210   1.535   2.873   1.139 -0.0654 -0.8328  0.4910
 1307SOL    HW2 4211   1.396   2.820   1.206 -2.1605  1.1576 -2.0700
 1308SOL     OW 4212   5.707   1.887   0.100  0.0141 -0.0153 -0.1714
 1308SOL    HW1 4213   5.701   1.985   0.084  1.4876  0.0422 -0.4793
 1308SOL    HW2 4214   5.647   1.862   0.176 -0.6030  1.0678 -0.2858
 1309SOL     OW 4215   0.436   2.761   4.020 -0.1277  0.2024  0.2854
 1309SOL    HW1 4216   0.470   2.668   4.010 -0.3413  0.0755  0.7200
 1309SOL    HW2 4217   0.509   2.819   4.058 -0.0388  0.1868  0.1422
 1310SOL     OW 4218   0.299   3.152   5.479 -0.8137 -0.0336  0.2528
 1310SOL    HW1 4219   0.374   3.126   5.417 -0.1084 -1.1816  1.5424
 1310SOL    HW2 4220   0.273   3.247   5.461 -0.1265 -0.0996 -1.2880
 1311SOL     OW 4221   1.577   2.499   4.342 -0.0506  0.5179  0.4998
 1311SOL    HW1 4222   1.565   2.446   4.426  1.4310  0.5130  0.7369
 1311SOL    HW2 4223   1.576   2.597   4.364 -1.0087  0.5649  0.3098
 1312SOL     OW 4224   0.613   2.006   3.705  0.0943 -0.2540  0.3269
 1312SOL    HW1 4225   0.646   2.078   3.766 -1.5118  0.3098  0.5877
 1312SOL    HW2 4226   0.539   2.042   3.649  1.1560 -0.9395 -1.5848
 1313SOL     OW 4227   0.401   3.627   4.973 -0.0711 -0.3200 -0.1591
 1313SOL    HW1 4228   0.439   3.611   5.064  1.7236  1.3321 -0.5522
 1313SOL    HW2 4229   0.415   3.723   4.948 -0.9306 -0.6460 -2.0116
 1314SOL     OW 4230   5.601   3.288   2.334 -0.8543 -0.2100 -0.0811
 1314SOL    HW1 4231   5.590   3.195   2.371  0.0692  0.0772  0.9888
 1314SOL    HW2 4232   5.677   3.289   2.269  1.2836  0.3385  2.2293
 1315SOL     OW 4233   5.706   4.510   3.387 -0.0321  0.4561 -0.3273
 1315SOL    HW1 4234   5.804   4.511   3.405 -0.2420 -0.5848  0.9586
 1315SOL    HW2 4235   5.686   4.444   3.314 -0.0620 -1.6421  1.4846
 1316SOL     OW 4236   1.481   2.729   3.460  0.0481 -0.0864  0.9548
 1316SOL    HW1 4237   1.565   2.775   3.490 -0.3638  0.8689  0.6923
 1316SOL    HW2 4238   1.416   2.798   3.426 -1.1223 -0.7350  1.8221
 1317SOL     OW 4239   0.419   4.184   1.119 -0.2617  0.2054  0.3356
 1317SOL    HW1 4240   0.342   4.168   1.181 -0.1649  1.3230  0.7706
 1317SOL    HW2 4241   0.412   4.124   1.040 -2.3975  1.2866 -0.3562
 1318SOL     OW 4242   1.363   2.898   3.730 -0.1931 -0.9265  0.0174
 1318SOL    HW1 4243   1.271   2.862   3.739 -0.4158 -0.1315  1.0629
 1318SOL    HW2 4244   1.389   2.900   3.633 -0.6206 -2.7049 -0.1542
 1319SOL     OW 4245   0.382   2.860   0.812 -0.5211  0.5288 -0.0897
 1319SOL    HW1 4246   0.311   2.891   0.749 -0.2850 -1.6043 -1.5087
 1319SOL    HW2 4247   0.450   2.807   0.762  0.8473  0.5525  1.6372
 1320SOL     OW 4248   1.857   2.503   5.725  0.2462 -0.1544 -0.4820
 1320SOL    HW1 4249   1.816   2.415   5.701 -0.6301  0.3683 -0.9111
 1320SOL    HW2 4250   1.909   2.493   5.810 -2.5828 -0.3546  1.3593
 1321SOL     OW 4251   0.516   2.314   2.902  0.1153 -0.1556 -0.7528
 1321SOL    HW1 4252   0.595   2.292   2.959  0.3262  3.1436  0.4141
 1321SOL    HW2 4253   0.547   2.353   2.815 -0.2730 -1.8721 -1.7170
 1322SOL     OW 4254   0.932   3.744   3.067  0.4504  0.0340  0.2048
 1322SOL    HW1 4255   0.913   3.768   3.162  0.6727 -1.2468  0.5925
 1322SOL    HW2 4256   0.858   3.779   3.009  1.2652  2.4934  0.5603
 1323SOL     OW 4257   5.466   1.910   4.766 -0.2430  0.5102  0.0890
 1323SOL    HW1 4258   5.491   1.984   4.829 -0.8798  0.6449  0.1975
 1323SOL    HW2 4259   5.478   1.940   4.672 -2.0053  1.3409  0.0882
 1324SOL     OW 4260   1.979   3.644   5.323  0.2246 -0.0793 -0.0583
 1324SOL    HW1 4261   1.914   3.719   5.315 -0.3326 -0.4799  0.5891
 1324SOL    HW2 4262   2.051   3.668   5.388  0.0712 -0.0838  0.1141
 1325SOL     OW 4263   1.883   1.136   0.749 -0.0344 -0.2682 -0.0564
 1325SOL    HW1 4264   1.941   1.074   0.697  0.0217 -0.1389 -0.1512
 1325SOL    HW2 4265   1.932   1.222   0.765  0.3305 -0.6604  1.0725
 1326SOL     OW 4266   5.749   1.038   5.435 -0.3963  0.1112  0.1440
 1326SOL    HW1 4267   5.827   1.055   5.496 -0.3309 -1.8020  0.6558
 1326SOL    HW2 4268   5.664   1.057   5.484 -0.2960  1.0727 -0.0345
 1327SOL     OW 4269   4.658   2.201   2.065  0.1318  0.8074  0.1251
 1327SOL    HW1 4270   4.674   2.280   2.006  1.2202  0.9733  0.6166
 1327SOL    HW2 4271   4.591   2.225   2.136  0.5743  1.3465  0.3690
 1328SOL     OW 4272   0.591   2.510   3.941 -0.1680  0.5725  0.3673
 1328SOL    HW1 4273   0.666   2.577   3.935  0.7540 -0.5154 -1.1388
 1328SOL    HW2 4274   0.578   2.467   3.851 -2.2082  0.2844  0.7660
 1329SOL     OW 4275   2.181   1.394   4.025  0.6507 -0.1199 -0.1383
 1329SOL    HW1 4276   2.166   1.344   4.111 -0.3156  0.6097  0.1270
 1329SOL    HW2 4277   2.124   1.355   3.953  1.8241 -1.0521 -0.6046
 1330SOL     OW 4278   0.464   3.135   2.885  0.0898 -0.7202 -0.1580
 1330SOL    HW1 4279   0.457   3.184   2.971 -0.5936 -3.1344  1.2511
 1330SOL    HW2 4280   0.389   3.161   2.825 -0.5237 -0.3861  0.7404
 1331SOL     OW 4281   1.964   0.393   0.030  0.6211 -0.0743 -0.8372
 1331SOL    HW1 4282   1.974   0.492   0.025 -0.4507  0.1406  0.8117
 1331SOL    HW2 4283   1.884   0.365  -0.022  2.0105 -0.3505 -2.9704
 1332SOL     OW 4284   0.484   1.564   3.247 -0.6029  0.3068  0.4940
 1332SOL    HW1 4285   0.567   1.566   3.304  0.6672  0.3317 -1.2707
 1332SOL    HW2 4286   0.426   1.488   3.275  1.3714 -1.4768  0.0208
 1333SOL     OW 4287   4.754   2.039   3.309  0.5247 -0.0263  1.2739
 1333SOL    HW1 4288   4.826   2.073   3.370  0.6793  1.4872  0.2983
 1333SOL    HW2 4289   4.731   1.945   3.334  1.3390  0.1825  2.9615
 1334SOL     OW 4290   5.888   2.322   5.951 -0.1829  0.0977 -0.1291
 1334SOL    HW1 4291   5.810   2.383   5.938 -0.3001 -0.0987 -0.3552
 1334SOL    HW2 4292   5.872   2.237   5.900  0.5547  0.3866 -0.8558
 1335SOL     OW 4293   0.875   2.727   4.773  0.3657 -0.0180  0.0162
 1335SOL    HW1 4294   0.841   2.758   4.861  0.7230 -1.1666  0.5872
 1335SOL    HW2 4295   0.813   2.658   4.735  0.1388  0.5747 -0.7038
 1336SOL     OW 4296   0.654   3.238   0.016 -0.0928  0.0178  0.2119
 1336SOL    HW1 4297   0.742   3.275  -0.012 -0.3919  0.0699 -0.7146
 1336SOL    HW2 4298   0.662   3.140   0.031  0.0694 -0.0202 -0.1167
 1337SOL     OW 4299   4.845   2.475   3.888 -0.1308  0.3903 -0.4761
 1337SOL    HW1 4300   4.748   2.452   3.902  0.4733 -1.1991  1.6057
 1337SOL    HW2 4301   4.855   2.574   3.884 -2.0728  0.6009 -3.0916
 1338SOL     OW 4302   0.894   2.177   1.086  0.6395 -0.3056 -0.4146
 1338SOL    HW1 4303   0.813   2.199   1.031 -0.9523 -1.4462  1.3467
 1338SOL    HW2 4304   0.911   2.250   1.152  2.4330  0.9704 -2.1865
 1339SOL     OW 4305   4.918   2.947   4.826 -0.2131  0.0735 -0.7019
 1339SOL    HW1 4306   4.931   2.861   4.777  1.5902 -0.2604  0.2946
 1339SOL    HW2 4307   5.001   3.001   4.822 -0.0318  0.1077  1.7857
 1340SOL     OW 4308   4.911   2.294   5.791 -0.2367 -0.0013  0.5860
 1340SOL    HW1 4309   4.962   2.380   5.792  0.4754 -0.3468 -1.5395
 1340SOL    HW2 4310   4.972   2.219   5.767 -1.4056 -0.6634 -0.4518
 1341SOL     OW 4311   3.270   2.941   4.259  0.7221  0.2716 -0.0419
 1341SOL    HW1 4312   3.322   3.020   4.225  1.0051  0.2907  0.4222
 1341SOL    HW2 4313   3.259   2.949   4.358  0.6154 -0.1907 -0.0160
 1342SOL     OW 4314   2.946   3.962   4.273  0.1432  0.1282 -0.0756
 1342SOL    HW1 4315   2.976   4.057   4.276  2.2920 -0.5196  0.9072
 1342SOL    HW2 4316   2.961   3.919   4.362 -0.8565 -1.1196 -0.4793
 1343SOL     OW 4317   4.410   2.186   1.531  0.9292  0.0689  0.1473
 1343SOL    HW1 4318   4.390   2.265   1.472  0.6498  0.2673  0.5008
 1343SOL    HW2 4319   4.468   2.122   1.482  2.1150  1.0325  0.2471
 1344SOL     OW 4320   5.400   3.040   4.557 -0.5888  0.4942  0.4202
 1344SOL    HW1 4321   5.390   2.941   4.540 -0.4046  0.4984  0.2872
 1344SOL    HW2 4322   5.372   3.091   4.476  1.1907  0.4834 -0.2483
 1345SOL     OW 4323   5.430   3.245   0.204  0.2370 -0.1255  0.4681
 1345SOL    HW1 4324   5.373   3.167   0.180 -0.4723  0.7412 -0.7664
 1345SOL    HW2 4325   5.402   3.325   0.151  1.1757  0.8891  1.4411
 1346SOL     OW 4326   0.777   3.048   4.064  0.0362 -0.3477  0.2157
 1346SOL    HW1 4327   0.861   3.054   4.010  1.3166  1.1840  2.2420
 1346SOL    HW2 4328   0.705   3.101   4.020  0.4564 -0.6663 -0.9064
 1347SOL     OW 4329   2.586   2.806   0.511  0.1099  0.2980 -0.2798
 1347SOL    HW1 4330   2.576   2.718   0.559  0.2682  0.2157 -0.3980
 1347SOL    HW2 4331   2.681   2.836   0.516  0.8264 -1.1527 -3.0356
 1348SOL     OW 4332   0.753   4.426   0.554  0.1492  0.5055 -0.0645
 1348SOL    HW1 4333   0.694   4.391   0.482  1.5744 -0.9659 -0.5810
 1348SOL    HW2 4334   0.741   4.371   0.637  1.5837 -0.6219 -0.5403
 1349SOL     OW 4335   4.757   2.059   4.201 -0.3203  0.1586 -0.4988
 1349SOL    HW1 4336   4.812   2.139   4.177 -1.5046  0.9849 -0.5431
 1349SOL    HW2 4337   4.807   1.976   4.177  0.7283  0.8881 -0.9052
 1350SOL     OW 4338   1.646   3.264   0.047  0.4567 -0.5132 -0.1392
 1350SOL    HW1 4339   1.586   3.197   0.091  0.7966  1.2563  3.3937
 1350SOL    HW2 4340   1.592   3.344   0.021  1.0285  0.9694  2.8020
 1351SOL     OW 4341   4.517   3.055   5.580 -0.5196  0.1100  0.0191
 1351SOL    HW1 4342   4.447   3.005   5.632 -0.1183 -0.9401 -0.4125
 1351SOL    HW2 4343   4.599   3.066   5.636 -0.1856 -0.7824 -0.2692
 1352SOL     OW 4344   0.008   2.680   0.858 -0.6668 -0.2805  0.6525
 1352SOL    HW1 4345   0.006   2.591   0.902 -1.8374 -0.7581 -0.2944
 1352SOL    HW2 4346   0.071   2.678   0.781 -1.5295 -0.6677 -0.0659
 1353SOL     OW 4347   5.405   2.633   5.310 -0.2593  0.5676  0.1811
 1353SOL    HW1 4348   5.346   2.620   5.389 -0.1494 -0.1019  0.1553
 1353SOL    HW2 4349   5.446   2.724   5.314 -0.0034  0.4250  1.0590
 1354SOL     OW 4350   5.843   3.589   5.287 -0.6248  0.8567 -0.0757
 1354SOL    HW1 4351   5.940   3.566   5.291 -0.7816 -0.2279 -1.5237
 1354SOL    HW2 4352   5.812   3.618   5.377  0.4798 -1.2155  1.0447
 1355SOL     OW 4353   2.339   1.068   4.366 -0.7798  0.5933 -0.2944
 1355SOL    HW1 4354   2.338   1.168   4.357 -4.0690  0.7655  0.6071
 1355SOL    HW2 4355   2.346   1.043   4.463 -0.9345 -0.0024 -0.4326
 1356SOL     OW 4356   2.857   1.266   1.090 -0.9683 -0.1350 -0.0933
 1356SOL    HW1 4357   2.761   1.263   1.117 -1.5130 -1.7441 -1.9943
 1356SOL    HW2 4358   2.878   1.357   1.053 -2.3659 -0.3816 -1.6072
 1357SOL     OW 4359   5.310   1.902   5.045 -0.0701  0.2738 -0.1744
 1357SOL    HW1 4360   5.382   1.945   4.990  0.0729  0.6722  0.3177
 1357SOL    HW2 4361   5.312   1.803   5.030  0.2046  0.3394 -0.6030
 1358SOL     OW 4362   1.199   2.680   4.458  0.2663  1.0189 -0.0115
 1358SOL    HW1 4363   1.254   2.761   4.439  1.6124  0.6703  2.0233
 1358SOL    HW2 4364   1.159   2.688   4.550 -0.2537 -0.2407 -0.1092
 1359SOL     OW 4365   0.127   2.665   0.473  0.0242  0.5183 -0.0242
 1359SOL    HW1 4366   0.141   2.671   0.375 -1.8534  0.7017 -0.3171
 1359SOL    HW2 4367   0.034   2.695   0.496  0.0018 -0.6744  1.6727
 1360SOL     OW 4368   0.383   3.187   0.739  0.3069  0.0551 -0.1139
 1360SOL    HW1 4369   0.293   3.144   0.749 -0.5184  1.7651  0.1504
 1360SOL    HW2 4370   0.454   3.121   0.763 -0.7587 -1.8234 -1.7834
 1361SOL     OW 4371   1.045   5.834   0.151 -0.3059 -0.1930 -0.4998
 1361SOL    HW1 4372   0.968   5.854   0.211 -0.9955 -0.4692 -1.2697
 1361SOL    HW2 4373   1.016   5.842   0.056  0.6771 -0.0995 -0.8033
 1362SOL     OW 4374   0.704   1.144   5.735  0.2680 -0.9318  0.4734
 1362SOL    HW1 4375   0.643   1.123   5.659  0.3205 -1.2736  0.5240
 1362SOL    HW2 4376   0.746   1.233   5.720  1.4085 -1.6176 -0.6428
 1363SOL     OW 4377   4.615   1.113   1.028 -0.1740 -0.0796 -0.5119
 1363SOL    HW1 4378   4.547   1.155   1.088 -0.8610 -1.6157 -0.1778
 1363SOL    HW2 4379   4.661   1.185   0.976 -1.0872  1.1084  0.2516
 1364SOL     OW 4380   2.828   2.398   5.695  0.2376 -0.1291  0.2092
 1364SOL    HW1 4381   2.904   2.437   5.748  0.6428  1.9806 -1.7438
 1364SOL    HW2 4382   2.757   2.467   5.684 -1.0555 -1.4141  0.2532
 1365SOL     OW 4383   5.253   3.211   1.509 -0.1004 -0.2783 -0.5538
 1365SOL    HW1 4384   5.153   3.205   1.514 -0.2192  1.2790 -0.6936
 1365SOL    HW2 4385   5.286   3.268   1.584  0.4769  0.9758 -1.7272
 1366SOL     OW 4386   0.407   1.181   2.634  0.7463  0.1924  0.5663
 1366SOL    HW1 4387   0.385   1.183   2.537  2.6426 -0.1573  0.1042
 1366SOL    HW2 4388   0.323   1.193   2.687 -0.3764 -0.0506 -1.0926
 1367SOL     OW 4389   0.577   3.074   2.614  0.7772  0.0307  0.5083
 1367SOL    HW1 4390   0.479   3.090   2.598  0.8128 -0.8796 -0.7496
 1367SOL    HW2 4391   0.628   3.156   2.591  0.4217  0.0568 -0.2417
 1368SOL     OW 4392   5.790   1.299   3.799  0.0845  0.5248 -0.1611
 1368SOL    HW1 4393   5.729   1.222   3.778 -1.4776  1.5269  0.4917
 1368SOL    HW2 4394   5.775   1.373   3.733 -0.9571  1.5787  1.1880
 1369SOL     OW 4395   5.518   1.799   0.748 -0.3374  0.1461 -0.0581
 1369SOL    HW1 4396   5.438   1.742   0.767  1.0176 -1.3925  1.4883
 1369SOL    HW2 4397   5.558   1.772   0.661 -0.4523 -0.3991  0.0515
 1370SOL     OW 4398   1.639   2.163   5.035  0.3394 -0.0973  0.6876
 1370SOL    HW1 4399   1.649   2.065   5.052  0.0917  0.0402  1.6646
 1370SOL    HW2 4400   1.723   2.210   5.061  1.2791 -0.2632 -1.7469
 1371SOL     OW 4401   5.522   3.197   1.162  0.2853  0.0931 -0.3144
 1371SOL    HW1 4402   5.607   3.215   1.113  0.2829  0.0054 -0.3507
 1371SOL    HW2 4403   5.486   3.108   1.136  0.1957  0.1186 -0.2800
 1372SOL     OW 4404   0.080   3.010   5.464 -0.7768 -0.2712  0.0575
 1372SOL    HW1 4405   0.076   2.957   5.549  1.9653 -0.1774  0.3455
 1372SOL    HW2 4406   0.161   3.069   5.466 -2.7718  2.7437 -0.9731
 1373SOL     OW 4407   1.745   2.184   0.572  0.1583  0.0004 -0.4202
 1373SOL    HW1 4408   1.767   2.238   0.491 -0.2421  0.1407 -0.4378
 1373SOL    HW2 4409   1.661   2.219   0.613 -0.8638 -1.4385 -1.1867
 1374SOL     OW 4410   1.327   2.775   0.411  0.0111  0.2673 -0.2635
 1374SOL    HW1 4411   1.272   2.832   0.473 -0.8914  0.2582 -1.0345
 1374SOL    HW2 4412   1.311   2.678   0.433  1.7737  0.2624  1.2447
 1375SOL     OW 4413   0.878   2.786   5.867  0.6837  0.3097 -0.1929
 1375SOL    HW1 4414   0.892   2.885   5.876 -0.6683  0.7179 -1.9751
 1375SOL    HW2 4415   0.783   2.769   5.840  1.2981 -1.3663 -1.4237
 1376SOL     OW 4416   1.501   1.259   1.790 -0.0938  0.1430  0.1116
 1376SOL    HW1 4417   1.482   1.202   1.871  1.2047 -0.4444  0.0220
 1376SOL    HW2 4418   1.432   1.331   1.784 -0.5961 -0.1986  1.3718
 1377SOL     OW 4419   2.696   2.949   0.802  0.4275 -0.0221 -0.5483
 1377SOL    HW1 4420   2.608   2.910   0.832 -0.2622  0.9515 -1.2387
 1377SOL    HW2 4421   2.732   3.008   0.875 -0.2421  0.7492 -0.8292
 1378SOL     OW 4422   0.086   1.135   0.424 -0.0671  0.6755  0.5874
 1378SOL    HW1 4423   0.113   1.230   0.432  1.3297  0.4343 -0.8339
 1378SOL    HW2 4424   0.157   1.076   0.462  0.6066  0.1032 -1.4274
 1379SOL     OW 4425   1.096   1.154   4.872 -0.5478  0.0087  0.4468
 1379SOL    HW1 4426   1.124   1.196   4.785 -0.1718  0.1555  0.6377
 1379SOL    HW2 4427   1.086   1.225   4.942 -1.5451 -0.0182  0.3546
 1380SOL     OW 4428   0.267   3.523   5.299 -0.5850 -0.0646 -0.1075
 1380SOL    HW1 4429   0.233   3.482   5.384 -0.6027 -1.8642 -0.9206
 1380SOL    HW2 4430   0.310   3.452   5.243  1.3934  1.4971 -0.6662
 1381SOL     OW 4431   0.819   3.103   5.658  0.2776  0.0894 -0.0399
 1381SOL    HW1 4432   0.767   3.028   5.699 -0.4590  0.5905 -0.0497
 1381SOL    HW2 4433   0.756   3.170   5.619  0.9468  0.3382 -0.7137
 1382SOL     OW 4434   5.865   3.945   5.891  0.1881  0.0316 -0.7342
 1382SOL    HW1 4435   5.843   4.034   5.849 -0.1689 -1.1374 -3.2411
 1382SOL    HW2 4436   5.800   3.877   5.858 -0.1150 -1.0257  1.8761
 1383SOL     OW 4437   0.122   5.621   1.052  0.5298 -0.2480 -0.0910
 1383SOL    HW1 4438   0.025   5.618   1.073  0.4824  1.7446  0.1800
 1383SOL    HW2 4439   0.153   5.530   1.023 -1.0882 -1.2333  1.1173
 1384SOL     OW 4440   5.492   3.674   0.692 -0.1528 -0.0919  0.2559
 1384SOL    HW1 4441   5.452   3.622   0.768 -2.1310  1.6860  0.5278
 1384SOL    HW2 4442   5.529   3.760   0.726  2.8228 -1.0532 -0.2343
 1385SOL     OW 4443   4.795   3.363   3.143 -0.3072 -0.4383  0.8105
 1385SOL    HW1 4444   4.714   3.406   3.103 -0.2970 -1.1759 -0.0401
 1385SOL    HW2 4445   4.819   3.409   3.228 -0.8862  0.5892  0.4371
 1386SOL     OW 4446   2.934   3.652   5.124  0.0977  0.0919 -0.4935
 1386SOL    HW1 4447   2.837   3.632   5.117 -0.0970  1.2835 -1.3516
 1386SOL    HW2 4448   2.972   3.667   5.033  0.8863  0.5776 -0.0958
 1387SOL     OW 4449   0.382   4.024   0.911 -0.7246  0.0386  0.4554
 1387SOL    HW1 4450   0.445   4.061   0.843 -0.5511  1.5702  1.4033
 1387SOL    HW2 4451   0.290   4.060   0.896 -1.0652 -0.9690  0.0180
 1388SOL     OW 4452   0.247   4.974   5.550 -0.2131 -0.4998 -0.2118
 1388SOL    HW1 4453   0.223   5.056   5.497  0.4999 -0.7236 -0.9047
 1388SOL    HW2 4454   0.346   4.970   5.562 -0.2815 -1.0186  0.2311
 1389SOL     OW 4455   4.140   5.638   1.824  0.1121 -0.3880 -0.1791
 1389SOL    HW1 4456   4.165   5.549   1.861  0.5394 -0.1917  0.0228
 1389SOL    HW2 4457   4.063   5.676   1.874 -0.6702 -1.0451 -0.8644
 1390SOL     OW 4458   0.450   4.368   5.372  0.1028  0.3794  0.3934
 1390SOL    HW1 4459   0.448   4.324   5.282 -1.7471  1.0920  0.0353
 1390SOL    HW2 4460   0.524   4.435   5.375  0.5467 -0.0619 -0.3954
 1391SOL     OW 4461   4.750   5.351   5.778  0.9625 -0.3189 -0.3663
 1391SOL    HW1 4462   4.652   5.368   5.786  1.0026  0.5779 -1.4846
 1391SOL    HW2 4463   4.801   5.435   5.798  1.5709 -0.9833  1.0365
 1392SOL     OW 4464   1.762   4.308   0.624  0.0301  0.0622 -0.3829
 1392SOL    HW1 4465   1.860   4.294   0.638  0.4311  2.9343  0.4153
 1392SOL    HW2 4466   1.743   4.406   0.615 -2.8429 -0.3640 -0.0843
 1393SOL     OW 4467   0.203   4.816   2.406  0.2026 -0.7662  0.3518
 1393SOL    HW1 4468   0.186   4.753   2.331  0.8859 -0.6364  0.0770
 1393SOL    HW2 4469   0.121   4.870   2.424  0.3897  0.0678 -1.1361
 1394SOL     OW 4470   1.067   5.048   0.440  0.1245 -0.1168 -0.0278
 1394SOL    HW1 4471   1.114   4.986   0.376 -0.7771 -0.5689 -0.2698
 1394SOL    HW2 4472   1.005   5.107   0.389 -0.6962 -0.5634  0.4318
 1395SOL     OW 4473   5.641   4.318   0.193  0.0671 -0.5180  0.7978
 1395SOL    HW1 4474   5.656   4.222   0.215  1.3088 -0.5529 -0.0938
 1395SOL    HW2 4475   5.678   4.376   0.265 -1.3559 -0.6941  1.7049
 1396SOL     OW 4476   2.979   4.638   5.234  0.9103  0.4734 -0.0334
 1396SOL    HW1 4477   2.902   4.675   5.182  0.9919  1.4526  0.5126
 1396SOL    HW2 4478   2.945   4.585   5.311  0.7727 -2.0202 -1.7156
 1397SOL     OW 4479   5.122   0.594   5.683 -0.4124 -0.7462  1.2423
 1397SOL    HW1 4480   5.179   0.615   5.763 -0.1931 -0.2846  0.9690
 1397SOL    HW2 4481   5.137   0.499   5.656  1.2719 -0.2699  0.3565
 1398SOL     OW 4482   1.242   4.869   2.182 -0.3694  0.1491 -0.2161
 1398SOL    HW1 4483   1.272   4.774   2.176 -2.1292 -0.5467  0.9230
 1398SOL    HW2 4484   1.273   4.909   2.268 -1.3173 -0.0791  0.2486
 1399SOL     OW 4485   5.701   4.540   1.448 -0.2545 -0.1604 -0.3171
 1399SOL    HW1 4486   5.721   4.579   1.358  1.6764 -0.8084 -0.2053
 1399SOL    HW2 4487   5.786   4.527   1.499 -1.2954  0.0314  1.5596
 1400SOL     OW 4488   3.448   3.650   5.185  0.0650  0.1499 -0.4324
 1400SOL    HW1 4489   3.441   3.571   5.124  0.0646  0.8643 -1.3771
 1400SOL    HW2 4490   3.516   3.714   5.149 -0.3456  0.8493  0.0135
 1401SOL     OW 4491   2.278   5.152   1.021  0.6366  0.1240  0.6265
 1401SOL    HW1 4492   2.281   5.251   1.034  0.4302  0.1329  0.6091
 1401SOL    HW2 4493   2.217   5.130   0.944  0.5743 -0.0243  0.7183
 1402SOL     OW 4494   1.308   5.041   1.500 -0.0106 -0.6733 -0.1559
 1402SOL    HW1 4495   1.297   5.139   1.479  1.9129 -0.8506 -2.4158
 1402SOL    HW2 4496   1.345   5.031   1.592  0.2128  0.7458 -0.0593
 1403SOL     OW 4497   1.291   4.338   1.189  0.3588  0.2460  0.5864
 1403SOL    HW1 4498   1.284   4.430   1.227 -1.6291  1.5603 -2.5701
 1403SOL    HW2 4499   1.224   4.278   1.234  1.0028  0.5585  1.9961
 1404SOL     OW 4500   0.667   5.104   5.827  0.1160 -0.4131  0.0661
 1404SOL    HW1 4501   0.762   5.083   5.852  0.3517  0.6119  0.0561
 1404SOL    HW2 4502   0.640   5.190   5.869 -0.0086  0.5531 -1.8892
 1405SOL     OW 4503   0.187   1.816   1.098  0.6879 -0.3048  0.2001
 1405SOL    HW1 4504   0.090   1.811   1.123  0.6224  2.4004  0.8035
 1405SOL    HW2 4505   0.229   1.726   1.108 -2.1796 -2.0741 -2.1048
 1406SOL     OW 4506   5.400   4.662   0.732 -0.0048 -0.4454 -0.2581
 1406SOL    HW1 4507   5.497   4.684   0.734 -0.3955  1.7957  3.4410
 1406SOL    HW2 4508   5.382   4.586   0.793 -0.7770  0.7829  1.1174
 1407SOL     OW 4509   0.083   4.302   4.543 -0.3023  0.1083  0.2289
 1407SOL    HW1 4510   0.168   4.338   4.582  0.2011  1.6056 -2.0217
 1407SOL    HW2 4511   0.029   4.258   4.614  2.7107 -1.6665  1.5776
 1408SOL     OW 4512   2.620   5.425   5.655  0.7822  0.2341 -0.1899
 1408SOL    HW1 4513   2.668   5.408   5.569 -1.1346 -1.2450 -1.0223
 1408SOL    HW2 4514   2.569   5.344   5.682 -0.3682  1.3778  1.2428
 1409SOL     OW 4515   0.053   4.779   1.686  0.3322  0.0932  0.0716
 1409SOL    HW1 4516  -0.006   4.854   1.714  0.8779 -1.1953  5.8055
 1409SOL    HW2 4517   0.040   4.761   1.588 -3.9523  3.8434 -0.3632
 1410SOL     OW 4518   0.911   5.913   5.864 -0.3965  0.1031  0.1734
 1410SOL    HW1 4519   0.925   6.010   5.880  1.2915 -0.2251  0.8790
 1410SOL    HW2 4520   0.853   5.901   5.784  0.9657  1.7025 -1.1394
 1411SOL     OW 4521   5.606   0.335   1.434  0.1645  0.2204  0.5854
 1411SOL    HW1 4522   5.508   0.315   1.436  0.2997 -0.4694  0.5294
 1411SOL    HW2 4523   5.637   0.355   1.527  0.3180 -1.3335  0.8911
 1412SOL     OW 4524   0.719   3.573   0.396  0.2792 -0.0370  0.1345
 1412SOL    HW1 4525   0.621   3.561   0.414  0.7197 -0.5366  2.5520
 1412SOL    HW2 4526   0.762   3.483   0.386  1.0156  0.0008  2.5263
 1413SOL     OW 4527   0.174   4.849   1.041  0.2962 -0.4500 -0.1566
 1413SOL    HW1 4528   0.127   4.793   0.972 -0.0046  0.7919 -1.0068
 1413SOL    HW2 4529   0.272   4.850   1.022  0.2427 -0.3061 -0.4335
 1414SOL     OW 4530   1.751   3.778   5.240 -0.1159  0.8662  0.0187
 1414SOL    HW1 4531   1.814   3.744   5.170  0.1605 -1.7623  1.3959
 1414SOL    HW2 4532   1.680   3.834   5.197  1.7021  1.8070 -1.9049
 1415SOL     OW 4533   5.223   0.240   0.426  0.3397 -0.3954  0.1295
 1415SOL    HW1 4534   5.125   0.232   0.411 -0.1285  2.0263  1.3724
 1415SOL    HW2 4535   5.247   0.201   0.515 -0.2298  2.3319  1.5828
 1416SOL     OW 4536   5.304   3.209   2.535 -0.3918  0.2952 -0.5736
 1416SOL    HW1 4537   5.229   3.201   2.600 -0.3052 -0.8991 -0.5931
 1416SOL    HW2 4538   5.274   3.175   2.445  0.1821 -0.2907 -0.5560
 1417SOL     OW 4539   1.175   0.937   1.860  0.3984  0.2533  0.0211
 1417SOL    HW1 4540   1.203   0.924   1.955  1.1037  1.6197  0.0210
 1417SOL    HW2 4541   1.243   0.992   1.812 -0.9496  1.3454 -0.7148
 1418SOL     OW 4542   0.147   1.359   1.027 -0.0656  0.6457 -0.7877
 1418SOL    HW1 4543   0.142   1.270   1.072 -0.5363  0.7678 -0.5933
 1418SOL    HW2 4544   0.193   1.349   0.938 -1.1881 -0.0219 -1.3158
 1419SOL     OW 4545   0.466   3.632   5.642 -0.2921 -0.9398  0.0823
 1419SOL    HW1 4546   0.503   3.679   5.723  1.4683  0.7380 -1.5877
 1419SOL    HW2 4547   0.367   3.633   5.646 -0.2859  0.9198  1.2620
 1420SOL     OW 4548   1.660   2.265   0.309 -1.2069  0.7738 -0.3919
 1420SOL    HW1 4549   1.618   2.175   0.319 -2.0631  1.1973 -0.0523
 1420SOL    HW2 4550   1.647   2.297   0.215  1.7976 -0.7362 -1.4623
 1421SOL     OW 4551   0.779   0.728   1.668  0.1570  0.1823  0.2188
 1421SOL    HW1 4552   0.745   0.724   1.762 -0.5208  1.6491  0.0755
 1421SOL    HW2 4553   0.853   0.796   1.662 -1.2121  1.6888 -0.6484
 1422SOL     OW 4554   1.318   3.343   0.369  0.3374 -0.6866  0.0487
 1422SOL    HW1 4555   1.342   3.305   0.280  0.1136  1.2072 -0.8646
 1422SOL    HW2 4556   1.402   3.359   0.422  0.4820 -1.6539  0.1180
 1423SOL     OW 4557   1.325   2.647   1.002  0.4488  0.0977  0.0991
 1423SOL    HW1 4558   1.370   2.672   0.916 -0.2726 -0.7634 -0.5545
 1423SOL    HW2 4559   1.260   2.718   1.028 -0.4868 -0.3471 -0.9315
 1424SOL     OW 4560   0.394   0.475   1.812 -0.3524 -0.6001  0.8196
 1424SOL    HW1 4561   0.446   0.415   1.873 -1.7602 -1.3667  1.2959
 1424SOL    HW2 4562   0.409   0.570   1.838  1.6641 -0.7032  0.2499
 1425SOL     OW 4563   0.497   5.375   0.674 -0.0886 -0.1155 -0.2022
 1425SOL    HW1 4564   0.476   5.471   0.689  1.2727  0.2865 -0.7791
 1425SOL    HW2 4565   0.560   5.343   0.745  0.3809 -0.2554 -0.6752
 1426SOL     OW 4566   0.434   3.122   5.722 -0.0765 -0.2445  0.1289
 1426SOL    HW1 4567   0.435   3.203   5.781  0.4957 -0.7574  0.8495
 1426SOL    HW2 4568   0.381   3.141   5.640  0.3454  0.9857  0.1156
 1427SOL     OW 4569   1.001   3.328   5.365  0.5647  0.4368 -0.0032
 1427SOL    HW1 4570   0.905   3.311   5.387  0.4503  0.3864 -0.5295
 1427SOL    HW2 4571   1.012   3.424   5.337  0.6429  0.4095 -0.0660
 1428SOL     OW 4572   0.234   4.687   0.599  0.0134 -0.1072  0.2504
 1428SOL    HW1 4573   0.308   4.629   0.635  1.1782  1.4674  0.5127
 1428SOL    HW2 4574   0.218   4.665   0.503  2.1940  0.7778 -0.3825
 1429SOL     OW 4575   1.142   2.361   5.169  0.3733 -0.3220  0.4820
 1429SOL    HW1 4576   1.100   2.298   5.104  2.8098 -2.2400  0.6024
 1429SOL    HW2 4577   1.077   2.383   5.242 -1.2845 -0.8503 -0.7915
 1430SOL     OW 4578   1.520   4.999   2.580  0.0707 -0.0142 -0.3072
 1430SOL    HW1 4579   1.485   5.058   2.653 -0.7131  0.6961 -1.2168
 1430SOL    HW2 4580   1.535   4.907   2.615 -0.2321  0.3249  0.7526
 1431SOL     OW 4581   1.132   5.396   0.728 -0.1224 -0.3247  0.1397
 1431SOL    HW1 4582   1.223   5.363   0.704 -0.0392  1.0759 -1.6591
 1431SOL    HW2 4583   1.064   5.329   0.696  0.1948 -0.4558 -0.2758
 1432SOL     OW 4584   1.096   4.242   0.344 -1.0667  1.0333  0.3044
 1432SOL    HW1 4585   1.058   4.282   0.261 -1.7946 -2.4140 -1.1561
 1432SOL    HW2 4586   1.025   4.193   0.394  0.5308 -2.6261 -0.6844
 1433SOL     OW 4587   1.748   4.844   2.388  0.2373  0.3349 -0.0329
 1433SOL    HW1 4588   1.652   4.816   2.383  0.0235  1.1416 -0.7552
 1433SOL    HW2 4589   1.775   4.855   2.484 -0.7568  1.2357  0.1644
 1434SOL     OW 4590   1.407   4.988   0.194  0.2697 -0.9364 -0.0682
 1434SOL    HW1 4591   1.360   5.072   0.167  2.1646  0.1913 -0.0297
 1434SOL    HW2 4592   1.349   4.936   0.257 -1.1582  0.0724 -0.5151
 1435SOL     OW 4593   0.404   4.705   1.389  0.0495  0.3542 -0.2179
 1435SOL    HW1 4594   0.418   4.748   1.300  1.2337 -2.5687 -1.5675
 1435SOL    HW2 4595   0.493   4.684   1.430 -0.2049 -4.0596 -1.4447
 1436SOL     OW 4596   1.742   4.352   1.609  0.6253  0.6693  0.4722
 1436SOL    HW1 4597   1.824   4.305   1.641 -2.1384 -2.8609  3.3905
 1436SOL    HW2 4598   1.723   4.326   1.514  1.8508 -0.0223  0.4016
 1437SOL     OW 4599   0.562   4.935   1.673  0.7277 -0.0270  0.9166
 1437SOL    HW1 4600   0.591   5.001   1.742 -0.8290  0.4146  1.1867
 1437SOL    HW2 4601   0.464   4.915   1.685  0.8684 -1.3755  0.0105
 1438SOL     OW 4602   2.221   2.433   1.948 -0.3159  0.3854  0.0748
 1438SOL    HW1 4603   2.125   2.441   1.974 -0.0706 -0.0018  1.1258
 1438SOL    HW2 4604   2.271   2.512   1.981  0.0644 -0.2765  1.1391
 1439SOL     OW 4605   0.488   4.138   1.918 -0.0567  0.4518  0.7718
 1439SOL    HW1 4606   0.578   4.169   1.886  0.4225 -0.5318  1.1206
 1439SOL    HW2 4607   0.420   4.152   1.846  0.6738 -0.1688 -0.0667
 1440SOL     OW 4608   1.163   5.078   0.102 -0.4258 -0.1675 -0.5742
 1440SOL    HW1 4609   1.095   5.093   0.030 -2.3007  0.7465  1.2912
 1440SOL    HW2 4610   1.142   4.992   0.149 -1.0166  0.6840  0.7495
 1441SOL     OW 4611   1.363   4.694   0.298 -0.1812 -0.2945 -0.1197
 1441SOL    HW1 4612   1.432   4.654   0.238  1.0389  0.5442  0.6690
 1441SOL    HW2 4613   1.368   4.652   0.388 -0.6483 -0.1672 -0.0279
 1442SOL     OW 4614   1.096   0.368   0.445  0.0417 -0.0251  0.0808
 1442SOL    HW1 4615   1.139   0.452   0.476 -0.4767  0.7025 -1.1282
 1442SOL    HW2 4616   1.035   0.334   0.517 -2.0142  2.2521 -0.4351
 1443SOL     OW 4617   1.645   4.571   4.611 -0.1188  0.4588  0.1972
 1443SOL    HW1 4618   1.620   4.479   4.583  1.8806 -0.8776  2.4494
 1443SOL    HW2 4619   1.744   4.582   4.606 -0.2461  2.2093  0.7687
 1444SOL     OW 4620   0.451   3.545   0.439  0.0629  0.6069 -0.1308
 1444SOL    HW1 4621   0.367   3.590   0.470 -1.8589 -2.4287 -0.4940
 1444SOL    HW2 4622   0.466   3.463   0.494  3.8447  1.9045  1.0590
 1445SOL     OW 4623   3.500   4.910   2.598 -0.0475  0.3272 -1.0124
 1445SOL    HW1 4624   3.401   4.929   2.601 -0.1578 -0.2674 -0.8147
 1445SOL    HW2 4625   3.537   4.944   2.511 -0.7693 -1.0330 -1.8823
 1446SOL     OW 4626   0.947   0.240   4.331 -0.3723 -0.0282 -0.4348
 1446SOL    HW1 4627   1.010   0.163   4.319  0.1576  0.1541  1.0194
 1446SOL    HW2 4628   0.867   0.210   4.383  0.9091  0.8571  2.2251
 1447SOL     OW 4629   5.890   3.237   0.225  0.0539 -0.5306 -0.1440
 1447SOL    HW1 4630   5.819   3.296   0.265  0.4545 -0.1803  0.0551
 1447SOL    HW2 4631   5.846   3.163   0.173 -0.4807 -1.1197  1.1123
 1448SOL     OW 4632   2.279   3.171   0.263 -0.3950 -0.1401 -0.4279
 1448SOL    HW1 4633   2.279   3.071   0.254  0.0798 -0.3616  1.6932
 1448SOL    HW2 4634   2.373   3.205   0.262 -0.5837  0.4656 -2.3709
 1449SOL     OW 4635   0.492   4.422   0.150 -0.3182 -0.1143 -0.2318
 1449SOL    HW1 4636   0.453   4.508   0.118 -0.4020  0.0477  0.3022
 1449SOL    HW2 4637   0.481   4.352   0.079 -1.0256  0.0899 -0.3233
 1450SOL     OW 4638   1.038   3.324   2.168 -0.2894 -0.1565 -0.6125
 1450SOL    HW1 4639   1.036   3.265   2.249 -0.5589  0.4968 -0.1331
 1450SOL    HW2 4640   0.998   3.276   2.091 -0.6509 -0.5461 -0.1890
 1451SOL     OW 4641   1.616   4.992   5.326  0.2263  0.0900 -0.0389
 1451SOL    HW1 4642   1.668   5.078   5.329  1.0296 -0.3746 -0.2940
 1451SOL    HW2 4643   1.619   4.955   5.233 -2.0826  0.9464 -0.5103
 1452SOL     OW 4644   0.930   4.007   1.544 -0.1493  0.7644 -0.2594
 1452SOL    HW1 4645   0.955   3.911   1.537 -0.8975  0.5494 -0.0380
 1452SOL    HW2 4646   0.832   4.018   1.526 -0.2591  1.3609  0.6307
 1453SOL     OW 4647   1.764   5.862   0.311 -0.1417  0.0394 -0.2816
 1453SOL    HW1 4648   1.700   5.796   0.350  1.5168 -0.4709  1.7826
 1453SOL    HW2 4649   1.775   5.844   0.213 -2.4277 -0.3905 -0.5152
 1454SOL     OW 4650   2.112   5.847   5.826 -0.2822 -0.6232 -0.3686
 1454SOL    HW1 4651   2.080   5.932   5.867  0.8508  0.0477 -0.8231
 1454SOL    HW2 4652   2.071   5.835   5.736  1.7406  0.9876 -1.5967
 1455SOL     OW 4653   1.364   4.183   0.319  0.6413 -0.5453 -0.1931
 1455SOL    HW1 4654   1.415   4.199   0.403  0.1092  0.0052  0.0330
 1455SOL    HW2 4655   1.266   4.193   0.337  0.6025  2.1350 -1.3874
 1456SOL     OW 4656   1.609   2.826   0.535 -0.2655  0.5966  0.3962
 1456SOL    HW1 4657   1.536   2.791   0.476 -0.9864  0.9794  1.0383
 1456SOL    HW2 4658   1.678   2.754   0.549 -0.1491  0.4635 -0.7865
 1457SOL     OW 4659   5.573   3.281   5.854 -0.7607  0.1979 -0.2517
 1457SOL    HW1 4660   5.504   3.214   5.826  1.6160 -1.9079 -1.4374
 1457SOL    HW2 4661   5.551   3.370   5.816 -1.7565 -0.8740 -2.3235
 1458SOL     OW 4662   5.241   4.040   2.603 -0.1808  0.1761 -0.2234
 1458SOL    HW1 4663   5.183   3.962   2.579 -1.1639  0.1762  1.8943
 1458SOL    HW2 4664   5.203   4.123   2.563 -1.3330  0.0835  0.6311
 1459SOL     OW 4665   1.742   0.343   5.833 -0.7117 -0.0958  0.1207
 1459SOL    HW1 4666   1.717   0.297   5.748 -0.9084  1.2758 -0.5924
 1459SOL    HW2 4667   1.714   0.439   5.829  1.2155  0.5568  0.8344
 1460SOL     OW 4668   5.172   4.477   2.651  0.0614  0.2757  0.0797
 1460SOL    HW1 4669   5.100   4.434   2.705 -1.0122 -0.3997 -1.8172
 1460SOL    HW2 4670   5.178   4.574   2.675 -1.4469  0.3311  0.2967
 1461SOL     OW 4671   1.564   0.607   1.317  0.0064  0.1154 -0.2245
 1461SOL    HW1 4672   1.641   0.551   1.289  0.8198  0.5761  1.0351
 1461SOL    HW2 4673   1.499   0.615   1.240  1.0595 -0.4944 -1.2066
 1462SOL     OW 4674   2.010   2.095   0.645  0.0606 -0.1716 -0.0216
 1462SOL    HW1 4675   2.036   2.009   0.602  0.7244  0.1585 -0.2937
 1462SOL    HW2 4676   1.910   2.101   0.648 -0.0028 -0.4664 -1.0005
 1463SOL     OW 4677   0.272   3.746   1.981 -0.2923  0.4834 -0.6317
 1463SOL    HW1 4678   0.368   3.758   1.954 -0.4923  0.6344 -1.2902
 1463SOL    HW2 4679   0.217   3.820   1.943 -0.6842  0.3715 -0.2960
 1464SOL     OW 4680   1.604   2.542   0.838  0.0795  0.0700  0.2556
 1464SOL    HW1 4681   1.530   2.520   0.773  0.6075  1.5530 -0.9006
 1464SOL    HW2 4682   1.598   2.480   0.916 -1.8981 -0.3698 -0.1777
 1465SOL     OW 4683   0.679   3.949   1.074  0.3854  0.0916 -0.1336
 1465SOL    HW1 4684   0.649   4.003   1.152  2.3680 -0.7115  1.2873
 1465SOL    HW2 4685   0.609   3.882   1.050 -1.1144  1.6905 -0.4282
 1466SOL     OW 4686   1.015   3.421   0.542  0.3859  0.4528  0.3077
 1466SOL    HW1 4687   0.976   3.404   0.451 -1.5151  0.9947  0.9714
 1466SOL    HW2 4688   1.066   3.340   0.572 -0.8363 -0.6027 -0.3431
 1467SOL     OW 4689   2.336   4.512   5.124 -0.0690  0.1014  0.5332
 1467SOL    HW1 4690   2.349   4.458   5.207 -0.8927  0.9675  1.2463
 1467SOL    HW2 4691   2.296   4.601   5.148 -1.2639 -0.0286 -0.8886
 1468SOL     OW 4692   5.559   3.046   0.426  0.2595 -0.1599  0.6818
 1468SOL    HW1 4693   5.594   3.045   0.332  0.0491  1.1279  0.5778
 1468SOL    HW2 4694   5.545   3.140   0.456 -0.5850 -0.5782  1.6742
 1469SOL     OW 4695   0.934   5.086   0.954  0.3259  0.0445  0.1072
 1469SOL    HW1 4696   1.021   5.058   0.995 -0.0608 -0.3706  0.6718
 1469SOL    HW2 4697   0.949   5.117   0.860  1.1053  0.1572  0.2612
 1470SOL     OW 4698   2.677   4.330   4.466 -0.0549  0.4626 -0.7225
 1470SOL    HW1 4699   2.585   4.294   4.484  0.6487 -0.0878  2.3236
 1470SOL    HW2 4700   2.743   4.282   4.523  2.4378 -0.1615 -3.8540
 1471SOL     OW 4701   1.752   4.691   1.190  0.4766 -0.5037  0.1689
 1471SOL    HW1 4702   1.818   4.735   1.128 -0.3232  0.0679 -0.2885
 1471SOL    HW2 4703   1.675   4.656   1.138 -0.8541  1.1550  0.9414
 1472SOL     OW 4704   1.966   3.092   4.965 -0.4408 -0.1384 -0.5422
 1472SOL    HW1 4705   1.902   3.105   4.890 -0.2581 -0.4635 -0.7570
 1472SOL    HW2 4706   1.940   3.012   5.018 -0.2612 -0.2192 -0.5766
 1473SOL     OW 4707   4.426   4.678   0.511  0.2051  0.0361  0.5008
 1473SOL    HW1 4708   4.339   4.728   0.516 -0.7131 -1.3123 -0.9656
 1473SOL    HW2 4709   4.483   4.718   0.439 -0.9429 -1.4950 -1.3769
 1474SOL     OW 4710   3.728   4.830   5.515 -0.5095 -0.1486 -0.2920
 1474SOL    HW1 4711   3.796   4.760   5.496 -1.2475 -0.7994 -0.6077
 1474SOL    HW2 4712   3.726   4.896   5.439 -0.7270 -0.5351 -0.6272
 1475SOL     OW 4713   1.004   4.723   1.851 -0.3033  0.3600  0.4756
 1475SOL    HW1 4714   0.963   4.686   1.934 -1.0570 -0.9444 -0.4346
 1475SOL    HW2 4715   1.103   4.709   1.854 -0.5946 -2.3027 -0.0364
 1476SOL     OW 4716   0.964   4.033   0.479  0.3794 -0.1357  0.7145
 1476SOL    HW1 4717   1.024   4.056   0.556 -0.2314 -1.6111  1.6579
 1476SOL    HW2 4718   0.943   3.936   0.481 -0.0125 -0.1139 -1.0810
 1477SOL     OW 4719   1.135   3.850   0.046  1.0475  0.0583  0.2310
 1477SOL    HW1 4720   1.191   3.867   0.127  1.9823  1.0276 -0.5866
 1477SOL    HW2 4721   1.094   3.936   0.015 -0.9530 -0.6345  0.8205
 1478SOL     OW 4722   0.968   5.153   1.678  0.0101  0.3730 -0.4374
 1478SOL    HW1 4723   0.892   5.089   1.688  1.0797 -0.7617  0.7984
 1478SOL    HW2 4724   1.054   5.106   1.696  1.0255  1.6465 -1.7530
 1479SOL     OW 4725   3.257   3.806   1.687  0.3384  0.3199  0.6464
 1479SOL    HW1 4726   3.204   3.854   1.617  0.2621  0.2359  0.6463
 1479SOL    HW2 4727   3.224   3.833   1.777 -1.5031 -1.7005  0.6486
 1480SOL     OW 4728   0.635   5.827   3.378  0.1914  0.1033  0.1125
 1480SOL    HW1 4729   0.589   5.911   3.405 -1.1686 -0.8189  0.7995
 1480SOL    HW2 4730   0.730   5.847   3.352 -0.4104  1.9787 -0.7987
 1481SOL     OW 4731   2.424   4.546   0.424  0.6643 -0.1304  0.4265
 1481SOL    HW1 4732   2.376   4.570   0.339 -0.6448  0.4166  1.2840
 1481SOL    HW2 4733   2.522   4.562   0.413  0.5674 -0.4728 -1.1097
 1482SOL     OW 4734   5.625   4.150   1.883 -0.2846 -0.6865  0.0746
 1482SOL    HW1 4735   5.636   4.223   1.816  1.5680 -1.3834 -0.4630
 1482SOL    HW2 4736   5.713   4.133   1.929 -0.9178 -1.8675  0.9376
 1483SOL     OW 4737   2.337   3.971   5.422  0.0317 -0.0613  0.5353
 1483SOL    HW1 4738   2.285   3.886   5.415 -0.0970 -0.3264  3.6109
 1483SOL    HW2 4739   2.274   4.048   5.429  0.0962 -0.0172  0.6404
 1484SOL     OW 4740   1.448   4.676   1.613 -0.4152  0.1766  0.7704
 1484SOL    HW1 4741   1.391   4.610   1.565 -1.9733  0.5451  2.0275
 1484SOL    HW2 4742   1.485   4.742   1.548  1.1353 -1.8046 -0.5148
 1485SOL     OW 4743   0.992   1.227   2.266  0.1368  0.2749 -0.0030
 1485SOL    HW1 4744   1.084   1.268   2.268  1.2337 -2.0376  0.9977
 1485SOL    HW2 4745   0.976   1.177   2.350 -1.9338  0.3009 -0.3341
 1486SOL     OW 4746   5.764   5.754   0.279 -0.6694  0.0168  0.5019
 1486SOL    HW1 4747   5.831   5.695   0.236 -1.8811 -0.1558 -1.2150
 1486SOL    HW2 4748   5.811   5.821   0.337  0.9123 -0.6259 -0.0004
 1487SOL     OW 4749   0.122   5.672   0.747 -0.0903  0.1628 -0.0490
 1487SOL    HW1 4750   0.032   5.628   0.753 -0.1798  0.3944  0.4087
 1487SOL    HW2 4751   0.135   5.730   0.828  1.6302 -2.0472  1.3877
 1488SOL     OW 4752   0.385   5.751   5.257 -0.2955  0.5032  0.5111
 1488SOL    HW1 4753   0.404   5.839   5.214 -0.2488  0.8793  1.2884
 1488SOL    HW2 4754   0.384   5.762   5.356 -2.2359  0.0360  0.5868
 1489SOL     OW 4755   0.548   3.301   0.544  0.2273 -0.3191  0.6752
 1489SOL    HW1 4756   0.468   3.262   0.589  0.9165 -3.7772 -0.7281
 1489SOL    HW2 4757   0.623   3.308   0.609 -0.0070 -1.2111  1.0605
 1490SOL     OW 4758   5.498   0.089   1.757  0.3359  0.0582 -0.4414
 1490SOL    HW1 4759   5.412   0.063   1.801 -0.1914 -1.6402 -2.3311
 1490SOL    HW2 4760   5.573   0.038   1.799  0.2656  0.5951  0.3621
 1491SOL     OW 4761   0.618   3.588   1.135 -0.3556  0.3139 -0.0432
 1491SOL    HW1 4762   0.585   3.651   1.064  1.4284  0.0803 -1.1247
 1491SOL    HW2 4763   0.637   3.639   1.219  0.7377  1.1812 -0.7977
 1492SOL     OW 4764   1.385   5.268   1.841 -0.1857 -0.5653 -0.2340
 1492SOL    HW1 4765   1.484   5.259   1.849 -0.0968  0.4126 -0.1733
 1492SOL    HW2 4766   1.341   5.226   1.921  0.2679  0.5167  0.6092
 1493SOL     OW 4767   2.842   3.311   1.377  0.6417  0.0585  0.6036
 1493SOL    HW1 4768   2.904   3.365   1.319  1.0905 -1.4542 -0.3731
 1493SOL    HW2 4769   2.804   3.235   1.324 -1.8416  0.7540  1.2762
 1494SOL     OW 4770   1.041   3.663   0.229  0.1226  0.0587  0.2802
 1494SOL    HW1 4771   1.064   3.736   0.165 -1.3279  0.3248  0.0303
 1494SOL    HW2 4772   1.010   3.703   0.315  0.5020 -0.2813  0.5803
 1495SOL     OW 4773   4.809   5.490   0.887  0.4182 -0.1619 -0.8406
 1495SOL    HW1 4774   4.721   5.536   0.876  0.4555 -0.0351 -0.6004
 1495SOL    HW2 4775   4.864   5.504   0.805  1.1744  1.8042 -0.0581
 1496SOL     OW 4776   1.822   4.106   5.036  0.4634 -0.0649  0.3625
 1496SOL    HW1 4777   1.846   4.147   5.124 -0.9121  0.6847  0.4195
 1496SOL    HW2 4778   1.745   4.044   5.048  0.3607 -0.0677 -0.2850
 1497SOL     OW 4779   1.547   3.431   0.502  0.4662 -0.0102  0.1353
 1497SOL    HW1 4780   1.543   3.418   0.601 -0.7742 -0.7856  0.0096
 1497SOL    HW2 4781   1.633   3.395   0.466  1.2282  0.9003  0.9956
 1498SOL     OW 4782   1.486   2.190   5.459  0.1708 -0.0315  0.0201
 1498SOL    HW1 4783   1.445   2.195   5.368 -2.1286 -0.2929  0.9765
 1498SOL    HW2 4784   1.468   2.274   5.509  0.7114 -0.2049  0.5196
 1499SOL     OW 4785   5.602   4.348   0.818 -0.0820  0.0419  0.0960
 1499SOL    HW1 4786   5.520   4.393   0.854  0.7050 -0.0714  2.1630
 1499SOL    HW2 4787   5.643   4.290   0.889  2.1618  0.6272 -0.6195
 1500SOL     OW 4788   0.690   4.657   1.149  0.2328  0.2539 -0.1232
 1500SOL    HW1 4789   0.757   4.700   1.089 -0.5849  2.1791  0.2601
 1500SOL    HW2 4790   0.700   4.694   1.242 -1.2294  0.4602 -0.0245
 1501SOL     OW 4791   3.005   4.336   1.890  0.4129  0.5180  0.0900
 1501SOL    HW1 4792   3.065   4.382   1.825  0.2475 -1.0821 -1.2375
 1501SOL    HW2 4793   2.955   4.263   1.844  0.1222 -0.5290  1.9809
 1502SOL     OW 4794   2.168   3.414   0.287 -0.4338 -0.4340  0.1102
 1502SOL    HW1 4795   2.208   3.322   0.283  3.8521  1.2093 -0.5941
 1502SOL    HW2 4796   2.122   3.434   0.201  1.0988 -1.0198 -0.8997
 1503SOL     OW 4797   3.356   4.492   0.470 -0.3189  0.1013  0.1362
 1503SOL    HW1 4798   3.420   4.569   0.469  0.1118 -0.2571  0.0306
 1503SOL    HW2 4799   3.305   4.493   0.556  0.2756  0.0265  0.4967
 1504SOL     OW 4800   0.676   4.009   4.758 -0.2164  0.0122 -0.1420
 1504SOL    HW1 4801   0.684   4.104   4.726 -0.7311  0.0834 -0.0699
 1504SOL    HW2 4802   0.586   3.974   4.735 -1.1428  0.5166  2.3537
 1505SOL     OW 4803   0.811   4.299   5.570  0.1286  0.5752 -0.0840
 1505SOL    HW1 4804   0.760   4.218   5.543 -0.3545  0.9051 -0.1852
 1505SOL    HW2 4805   0.764   4.345   5.646  0.5124  0.6430  0.1196
 1506SOL     OW 4806   1.307   5.834   2.093  0.1814  0.3263 -0.1902
 1506SOL    HW1 4807   1.267   5.823   2.003 -1.0243  2.3178  0.0289
 1506SOL    HW2 4808   1.380   5.903   2.089 -0.0282  0.5900  0.3805
 1507SOL     OW 4809   1.442   3.406   1.383  0.8415  0.5370 -0.4090
 1507SOL    HW1 4810   1.491   3.377   1.300 -1.0401  0.3858 -1.5199
 1507SOL    HW2 4811   1.506   3.408   1.460  2.4166 -0.3721 -1.6261
 1508SOL     OW 4812   1.898   2.055   5.906  0.1371  0.3869 -0.5502
 1508SOL    HW1 4813   1.968   2.117   5.869 -1.2096  1.6343 -1.1003
 1508SOL    HW2 4814   1.881   2.079   6.002  0.1426  0.3900 -0.5499
 1509SOL     OW 4815   0.871   4.776   1.373 -0.8258  0.2930 -0.0206
 1509SOL    HW1 4816   0.875   4.789   1.472  0.8997  1.4694 -0.2059
 1509SOL    HW2 4817   0.855   4.864   1.329 -0.5111 -0.0508 -0.8338
 1510SOL     OW 4818   0.448   1.402   0.568 -0.2066 -0.4649  0.3207
 1510SOL    HW1 4819   0.496   1.470   0.624 -0.3470 -0.6983  0.7335
 1510SOL    HW2 4820   0.513   1.331   0.540 -0.2383 -0.6012  0.5920
 1511SOL     OW 4821   5.242   5.361   2.432  0.5765  0.0813 -0.5930
 1511SOL    HW1 4822   5.193   5.306   2.364  0.2123 -0.5879  0.1991
 1511SOL    HW2 4823   5.176   5.415   2.484  0.5988 -1.1882  0.8036
 1512SOL     OW 4824   5.643   4.234   0.569  0.3982  0.6862 -0.3541
 1512SOL    HW1 4825   5.713   4.164   0.579 -1.2789 -1.1010 -0.5100
 1512SOL    HW2 4826   5.620   4.272   0.659  0.2387 -0.0926 -0.0585
 1513SOL     OW 4827   1.230   3.920   5.091 -0.0345 -0.1578 -0.0827
 1513SOL    HW1 4828   1.258   3.828   5.117 -0.4820 -0.5402 -0.9298
 1513SOL    HW2 4829   1.138   3.938   5.125 -0.7092 -0.7400 -1.5259
 1514SOL     OW 4830   5.468   4.050   2.181 -0.4410 -0.3451 -0.6530
 1514SOL    HW1 4831   5.443   4.016   2.091 -0.4644 -1.5932 -0.1845
 1514SOL    HW2 4832   5.421   4.137   2.197 -1.2213 -0.6008 -1.4455
 1515SOL     OW 4833   1.656   4.677   5.915 -0.2054 -0.0347 -0.2408
 1515SOL    HW1 4834   1.672   4.635   5.826  0.6166  0.4703 -0.3391
 1515SOL    HW2 4835   1.606   4.763   5.903  1.8430  1.1726 -0.4386
 1516SOL     OW 4836   5.460   4.985   1.510  0.2189 -0.1126 -0.7143
 1516SOL    HW1 4837   5.384   5.002   1.574  0.2378  0.4799 -0.8416
 1516SOL    HW2 4838   5.462   4.888   1.486  0.9366 -0.5831  1.0910
 1517SOL     OW 4839   0.393   5.733   1.710 -0.1198  0.4119  0.6394
 1517SOL    HW1 4840   0.384   5.813   1.650  0.3474  1.4380  1.8779
 1517SOL    HW2 4841   0.475   5.744   1.767  1.0141 -1.8382 -0.4193
 1518SOL     OW 4842   0.101   3.927   5.261 -0.0039  0.8248 -0.3976
 1518SOL    HW1 4843   0.030   3.908   5.329 -1.3565 -2.3508 -2.4304
 1518SOL    HW2 4844   0.080   4.011   5.212 -2.6417 -0.1532 -1.1053
 1519SOL     OW 4845   4.846   2.495   2.122  0.5852 -0.5422  0.7454
 1519SOL    HW1 4846   4.856   2.412   2.068 -0.8366 -0.0507 -0.3432
 1519SOL    HW2 4847   4.929   2.550   2.115  0.3232 -0.3390 -1.2621
 1520SOL     OW 4848   5.735   4.382   2.549 -0.7137  0.1289 -0.2285
 1520SOL    HW1 4849   5.793   4.460   2.527  0.6309 -0.9066 -0.4487
 1520SOL    HW2 4850   5.666   4.370   2.477 -0.2463  0.4682 -0.7378
 1521SOL     OW 4851   1.898   5.268   2.222  0.3006  0.1762 -0.3565
 1521SOL    HW1 4852   1.932   5.361   2.232 -2.0142  1.3260 -2.3247
 1521SOL    HW2 4853   1.938   5.226   2.141  0.3288 -0.0725 -0.2165
 1522SOL     OW 4854   0.081   4.103   4.341  0.2297  0.2653  0.1277
 1522SOL    HW1 4855   0.081   4.174   4.411  1.7830  2.5868 -2.0368
 1522SOL    HW2 4856   0.002   4.117   4.281 -0.2063 -0.7173  0.4554
 1523SOL     OW 4857   2.499   2.589   0.017 -0.3038 -0.3267  0.1451
 1523SOL    HW1 4858   2.590   2.630   0.010 -0.4361 -0.1719 -0.7797
 1523SOL    HW2 4859   2.480   2.566   0.112  0.7793 -0.5366  0.3248
 1524SOL     OW 4860   0.373   5.726   1.105 -0.4900 -0.0812  0.2974
 1524SOL    HW1 4861   0.386   5.702   1.201 -2.7063 -0.1559  0.6358
 1524SOL    HW2 4862   0.284   5.691   1.073  0.3495 -0.4008 -1.9008
 1525SOL     OW 4863   5.141   4.730   2.685 -0.1126 -0.1187 -0.3267
 1525SOL    HW1 4864   5.191   4.816   2.694 -1.6699  0.9087 -1.1210
 1525SOL    HW2 4865   5.057   4.734   2.739  0.9160 -2.1052  1.6077
 1526SOL     OW 4866   0.474   0.555   0.866 -0.2659 -0.1936 -0.3791
 1526SOL    HW1 4867   0.521   0.568   0.779  0.0360 -1.3514 -0.4121
 1526SOL    HW2 4868   0.502   0.467   0.906 -1.5801 -0.4098  0.1203
 1527SOL     OW 4869   0.555   1.756   3.922 -0.7549 -0.0558  0.2979
 1527SOL    HW1 4870   0.628   1.777   3.857  0.3848 -1.1599  1.1506
 1527SOL    HW2 4871   0.468   1.748   3.874  0.4340 -3.5988 -1.6341
 1528SOL     OW 4872   5.139   0.753   0.945 -0.5162 -0.0052  0.5186
 1528SOL    HW1 4873   5.056   0.778   0.896  0.6308 -0.3846 -1.7572
 1528SOL    HW2 4874   5.115   0.718   1.036 -2.9632 -1.7214 -0.6749
 1529SOL     OW 4875   2.778   5.312   0.305 -0.3564 -0.4626  0.2397
 1529SOL    HW1 4876   2.739   5.390   0.257 -0.6421  1.4327  3.2876
 1529SOL    HW2 4877   2.715   5.235   0.299 -1.4442  0.4411 -0.4125
 1530SOL     OW 4878   0.296   4.609   0.058 -0.1474  0.2243 -0.4243
 1530SOL    HW1 4879   0.200   4.612   0.085 -0.5639  0.8404 -1.8863
 1530SOL    HW2 4880   0.325   4.700   0.028 -0.0550 -0.6014 -3.0904
 1531SOL     OW 4881   1.646   4.552   0.562 -0.1457 -0.0857  0.2154
 1531SOL    HW1 4882   1.655   4.643   0.602  0.4223  0.3739 -0.9029
 1531SOL    HW2 4883   1.680   4.554   0.468 -1.6883 -1.0563 -0.3917
 1532SOL     OW 4884   0.277   5.414   0.927 -0.7190  0.2485  0.3322
 1532SOL    HW1 4885   0.323   5.476   0.863 -1.7299  0.2187 -0.4363
 1532SOL    HW2 4886   0.270   5.323   0.887 -1.4851  0.2617  0.4179
 1533SOL     OW 4887   5.916   0.606   2.127 -0.4386 -0.1004 -0.1752
 1533SOL    HW1 4888   5.872   0.693   2.152 -1.5625 -0.6581 -0.1577
 1533SOL    HW2 4889   5.847   0.535   2.118  0.3086 -0.6719 -1.6646
 1534SOL     OW 4890   1.540   4.951   2.018  0.5902 -0.0025  0.2043
 1534SOL    HW1 4891   1.462   5.014   2.023 -1.1652 -2.0762  0.6682
 1534SOL    HW2 4892   1.616   4.989   2.070 -0.3387  1.7900  0.3455
 1535SOL     OW 4893   1.466   3.766   0.294  0.0425 -0.2735 -0.3379
 1535SOL    HW1 4894   1.381   3.813   0.272 -0.3309 -1.2339 -1.0198
 1535SOL    HW2 4895   1.451   3.706   0.373  0.5320  0.7734  0.5686
 1536SOL     OW 4896   0.726   0.274   1.421 -0.4150 -0.6025 -0.4273
 1536SOL    HW1 4897   0.817   0.255   1.385 -0.5051  0.1211 -1.0568
 1536SOL    HW2 4898   0.733   0.339   1.496 -0.5268  0.6143 -1.4429
 1537SOL     OW 4899   1.945   4.618   5.543  0.4510  0.5678 -0.4050
 1537SOL    HW1 4900   1.986   4.639   5.455  2.2545  2.5515  0.7949
 1537SOL    HW2 4901   1.916   4.703   5.588  2.2937  0.0175  2.0927
 1538SOL     OW 4902   5.439   3.709   3.412 -0.0153  0.2675 -0.1955
 1538SOL    HW1 4903   5.533   3.743   3.408  0.3686 -0.6916  0.3388
 1538SOL    HW2 4904   5.405   3.717   3.506 -0.9061  1.7044 -0.6050
 1539SOL     OW 4905   4.889   3.561   1.021 -0.4198 -0.3842 -0.7758
 1539SOL    HW1 4906   4.824   3.635   1.039 -0.0684 -0.1617 -0.3971
 1539SOL    HW2 4907   4.973   3.600   0.982 -1.2831 -0.8790 -3.2952
 1540SOL     OW 4908   5.860   0.297   1.335  0.3396  0.2208 -0.5343
 1540SOL    HW1 4909   5.770   0.290   1.378  1.5219 -2.0747  1.8171
 1540SOL    HW2 4910   5.917   0.359   1.389  1.3345 -1.4136  0.3649
 1541SOL     OW 4911   1.564   1.225   4.836  0.2213 -0.0374  0.1094
 1541SOL    HW1 4912   1.529   1.177   4.917  1.8311 -0.1927  0.7430
 1541SOL    HW2 4913   1.509   1.306   4.819 -0.5847 -0.3960  0.9187
 1542SOL     OW 4914   1.369   0.514   1.497 -0.0188  0.8569 -0.2614
 1542SOL    HW1 4915   1.452   0.533   1.445  2.1699 -1.6238  2.0276
 1542SOL    HW2 4916   1.359   0.581   1.570 -0.5204  1.6199 -1.0133
 1543SOL     OW 4917   2.096   2.863   2.067 -0.2650 -0.3542  0.3779
 1543SOL    HW1 4918   2.140   2.774   2.079  1.5698  0.5827  0.7901
 1543SOL    HW2 4919   2.151   2.920   2.007 -2.3045 -0.0486 -1.3347
 1544SOL     OW 4920   1.086   3.390   0.248 -0.4542 -0.2107  0.1721
 1544SOL    HW1 4921   1.165   3.368   0.306 -0.0095 -1.7630 -0.9758
 1544SOL    HW2 4922   1.080   3.490   0.238  0.8047 -0.0189  1.0159
 1545SOL     OW 4923   2.788   4.922   5.554 -0.3471 -0.2065  0.1765
 1545SOL    HW1 4924   2.755   4.910   5.460  1.1544 -0.7895 -0.3163
 1545SOL    HW2 4925   2.819   5.017   5.566  1.1806 -0.5739 -0.5492
 1546SOL     OW 4926   5.064   5.579   1.401 -0.3223  0.3320  0.7017
 1546SOL    HW1 4927   5.122   5.660   1.409 -0.2300  0.3434  0.0065
 1546SOL    HW2 4928   4.998   5.592   1.327  0.1939 -0.5207  0.0691
 1547SOL     OW 4929   0.120   2.403   4.389  0.4991  0.0568 -0.3012
 1547SOL    HW1 4930   0.160   2.373   4.302  0.2899 -0.0717 -0.3539
 1547SOL    HW2 4931   0.190   2.402   4.460  1.0189  1.5028 -0.7603
 1548SOL     OW 4932   2.306   0.714   5.888 -0.1997  0.3613 -0.3832
 1548SOL    HW1 4933   2.277   0.799   5.844 -0.4541  0.5063  0.0607
 1548SOL    HW2 4934   2.225   0.661   5.915 -0.0907  0.8706  1.0619
 1549SOL     OW 4935   5.279   4.982   5.652 -0.4196 -0.0696  0.3516
 1549SOL    HW1 4936   5.376   5.006   5.645 -0.2681 -0.4884  0.9643
 1549SOL    HW2 4937   5.262   4.898   5.601 -0.4109 -0.1309  0.4493
 1550SOL     OW 4938   1.477   0.216   0.858 -0.1128  0.2536 -0.3561
 1550SOL    HW1 4939   1.411   0.217   0.932  0.9560  0.1469  0.6340
 1550SOL    HW2 4940   1.485   0.308   0.818  0.3859  0.6709  0.6738
 1551SOL     OW 4941   0.647   4.184   1.274  0.0618  0.0180  1.0942
 1551SOL    HW1 4942   0.708   4.228   1.209 -0.2545 -0.1939  0.6508
 1551SOL    HW2 4943   0.552   4.194   1.244 -0.1762  0.8751  2.0985
 1552SOL     OW 4944   5.297   2.401   5.743  0.1609 -0.3844 -0.2389
 1552SOL    HW1 4945   5.370   2.361   5.686  0.9232  0.9172 -0.2101
 1552SOL    HW2 4946   5.264   2.331   5.807  0.3483 -1.4280 -1.2381
 1553SOL     OW 4947   0.549   0.152   5.913  0.1254 -0.1764 -0.1941
 1553SOL    HW1 4948   0.542   0.128   5.816 -1.2042 -1.4618  0.1740
 1553SOL    HW2 4949   0.477   0.104   5.964  1.2190 -0.0714  1.5244
 1554SOL     OW 4950   0.994   4.322   1.524 -0.5563  0.2658  0.3008
 1554SOL    HW1 4951   1.063   4.256   1.497 -0.0464  0.3681  1.3375
 1554SOL    HW2 4952   1.021   4.368   1.609 -0.7982  1.9497 -0.4835
 1555SOL     OW 4953   0.292   5.253   0.189 -0.3760 -0.3898  0.0535
 1555SOL    HW1 4954   0.342   5.337   0.166 -0.9087 -0.3534 -1.0496
 1555SOL    HW2 4955   0.197   5.262   0.159 -0.5761 -1.1753  0.4449
 1556SOL     OW 4956   1.167   4.948   1.027  0.0340  0.3042 -0.3548
 1556SOL    HW1 4957   1.232   4.884   1.069 -1.0760 -0.4109  0.3228
 1556SOL    HW2 4958   1.211   5.038   1.018  1.8808 -0.6802 -2.0290
 1557SOL     OW 4959   1.489   5.745   0.697  0.6415  0.7626  0.1804
 1557SOL    HW1 4960   1.537   5.743   0.784  1.0396  1.3291 -0.0176
 1557SOL    HW2 4961   1.554   5.730   0.623  0.3064  0.2872 -0.0176
 1558SOL     OW 4962   1.144   3.757   3.804 -0.0974  0.0330  0.0787
 1558SOL    HW1 4963   1.169   3.782   3.711 -0.0003  1.6786  0.5062
 1558SOL    HW2 4964   1.061   3.806   3.831 -1.3775 -2.0445  0.1618
 1559SOL     OW 4965   0.911   4.363   1.255  0.3113 -0.5508  0.2493
 1559SOL    HW1 4966   0.951   4.454   1.249 -2.4809  0.9349  2.2249
 1559SOL    HW2 4967   0.953   4.313   1.331  1.6795 -0.9059 -0.6915
 1560SOL     OW 4968   2.172   4.099   5.057 -0.0374  0.3426  0.2774
 1560SOL    HW1 4969   2.084   4.088   5.102 -0.6793 -0.8771 -1.1958
 1560SOL    HW2 4970   2.159   4.149   4.971  0.6865  0.0801  0.0090
 1561SOL     OW 4971   1.875   3.632   4.232 -0.4029  0.1042  0.4904
 1561SOL    HW1 4972   1.784   3.621   4.194 -0.2915 -0.1704  0.3019
 1561SOL    HW2 4973   1.898   3.552   4.287 -0.3404  0.2465  0.6720
 1562SOL     OW 4974   0.646   4.613   1.447  0.0545  0.3026 -0.5425
 1562SOL    HW1 4975   0.739   4.644   1.429  0.5162  0.1079  1.3873
 1562SOL    HW2 4976   0.646   4.516   1.468 -0.6313  0.2530 -0.7227
 1563SOL     OW 4977   5.289   5.429   5.615 -0.1803 -0.7052  0.3600
 1563SOL    HW1 4978   5.285   5.470   5.524 -2.2316 -0.1408  0.6319
 1563SOL    HW2 4979   5.238   5.343   5.615  0.9312 -1.3738  0.6792
 1564SOL     OW 4980   0.590   4.656   1.727  0.3114 -0.2468  0.4856
 1564SOL    HW1 4981   0.647   4.579   1.757  0.2857 -0.5331 -0.1630
 1564SOL    HW2 4982   0.585   4.656   1.627  0.8589  0.9956  0.4395
 1565SOL     OW 4983   1.670   4.014   1.834 -0.6168  0.2714  0.0157
 1565SOL    HW1 4984   1.724   4.078   1.889 -0.3103 -0.2914  0.3829
 1565SOL    HW2 4985   1.610   3.961   1.893  0.2024 -0.8118 -0.0851
 1566SOL     OW 4986   0.853   5.538   1.550 -0.4582 -0.0162  0.5161
 1566SOL    HW1 4987   0.775   5.483   1.580 -1.1895  0.6253 -0.1599
 1566SOL    HW2 4988   0.847   5.629   1.592  0.1322 -0.0822  0.7511
 1567SOL     OW 4989   2.016   3.526   0.088 -0.2871  0.0294 -0.1694
 1567SOL    HW1 4990   1.930   3.562   0.126  0.3401  0.5147  0.8451
 1567SOL    HW2 4991   1.997   3.478   0.003 -1.3147  1.8629 -1.0533
 1568SOL     OW 4992   1.112   3.589   4.844 -0.1970  0.3604 -1.2893
 1568SOL    HW1 4993   1.029   3.645   4.845 -0.4536  0.0399  0.8661
 1568SOL    HW2 4994   1.089   3.494   4.862  0.5812  0.1664 -1.2585
 1569SOL     OW 4995   0.128   4.998   0.254  0.1785 -0.4150  0.2084
 1569SOL    HW1 4996   0.047   4.987   0.312  0.9499 -1.1198  1.1932
 1569SOL    HW2 4997   0.208   5.013   0.312  0.7277  0.4871 -0.7624
 1570SOL     OW 4998   1.841   4.719   1.985 -0.2854  0.4893  0.3201
 1570SOL    HW1 4999   1.927   4.669   1.987  1.1740  2.7158 -1.4763
 1570SOL    HW2 5000   1.784   4.684   1.910 -0.4673 -0.2392  0.7902
 1571SOL     OW 5001   2.039   3.294   5.563  0.2721 -0.4306  0.0926
 1571SOL    HW1 5002   2.011   3.316   5.470 -0.5939  1.1113  0.6761
 1571SOL    HW2 5003   2.099   3.214   5.562 -3.0424 -3.1594 -1.3877
 1572SOL     OW 5004   4.402   2.432   1.392 -0.2709  0.1448  0.2187
 1572SOL    HW1 5005   4.378   2.520   1.434 -0.4303  0.3029 -0.1941
 1572SOL    HW2 5006   4.355   2.424   1.304 -2.5051 -1.5337  1.4592
 1573SOL     OW 5007   5.731   4.774   0.303  0.5479 -0.0894 -0.2622
 1573SOL    HW1 5008   5.755   4.793   0.207  0.2515 -0.2817 -0.3734
 1573SOL    HW2 5009   5.791   4.828   0.362  0.6711  0.1045 -0.5564
 1574SOL     OW 5010   1.003   0.282   5.783  0.3502 -0.2781  0.6968
 1574SOL    HW1 5011   0.904   0.266   5.776  0.6519 -1.5824 -3.2767
 1574SOL    HW2 5012   1.020   0.378   5.804 -1.8218  0.4400 -0.5068
 1575SOL     OW 5013   3.710   5.091   3.949 -0.2769  0.2473  0.0253
 1575SOL    HW1 5014   3.610   5.098   3.950 -0.3843 -1.2442  1.0382
 1575SOL    HW2 5015   3.746   5.122   4.037  0.0024 -1.0358  0.3746
 1576SOL     OW 5016   2.791   0.771   0.585 -0.7935  0.3628  0.0814
 1576SOL    HW1 5017   2.714   0.707   0.587 -0.6639  0.2254  0.7170
 1576SOL    HW2 5018   2.865   0.737   0.643 -0.1172  0.3400 -0.7783
 1577SOL     OW 5019   0.741   5.496   2.589  0.6395 -0.3384  0.0573
 1577SOL    HW1 5020   0.673   5.565   2.612  1.0568 -0.5716  2.2335
 1577SOL    HW2 5021   0.701   5.404   2.599  0.6838 -0.4453 -0.7247
 1578SOL     OW 5022   4.968   4.708   1.405  0.1425 -0.1054 -0.2970
 1578SOL    HW1 5023   4.886   4.765   1.402 -0.4334 -0.9233 -0.4009
 1578SOL    HW2 5024   4.947   4.622   1.452  0.4609 -1.0406 -1.7801
 1579SOL     OW 5025   5.371   3.441   2.291 -0.2540 -0.1578  0.3985
 1579SOL    HW1 5026   5.452   3.392   2.325  0.3537  1.0128  0.7132
 1579SOL    HW2 5027   5.386   3.539   2.300 -1.0132  0.1317 -1.1842
 1580SOL     OW 5028   5.587   2.349   2.203 -0.0169 -0.3665 -0.0084
 1580SOL    HW1 5029   5.611   2.340   2.300 -1.2623 -0.5082  0.3059
 1580SOL    HW2 5030   5.538   2.267   2.173  0.5828 -0.4288 -0.8264
 1581SOL     OW 5031   1.470   2.675   5.395 -0.4221  0.0684 -0.1676
 1581SOL    HW1 5032   1.555   2.717   5.362  1.0612 -1.4283  1.5347
 1581SOL    HW2 5033   1.414   2.744   5.440  1.9061  0.4197  2.4843
 1582SOL     OW 5034   1.294   5.762   1.391 -0.1196  0.1827 -0.5242
 1582SOL    HW1 5035   1.212   5.705   1.400 -0.5778  0.8749 -0.2913
 1582SOL    HW2 5036   1.330   5.753   1.297  0.7432 -1.7123 -0.0732
 1583SOL     OW 5037   5.291   5.251   4.532 -0.1490  0.0194  0.0353
 1583SOL    HW1 5038   5.192   5.255   4.519 -0.4918 -0.7062  2.0738
 1583SOL    HW2 5039   5.314   5.173   4.589  1.6007  0.2893 -0.2422
 1584SOL     OW 5040   1.053   5.365   1.401 -0.4072  0.0067  0.0167
 1584SOL    HW1 5041   0.986   5.434   1.428 -1.5432 -1.0861  0.1395
 1584SOL    HW2 5042   1.012   5.274   1.413  1.3713 -0.7245  0.7925
 1585SOL     OW 5043   5.766   3.910   0.919 -0.1704 -0.6592 -0.0415
 1585SOL    HW1 5044   5.722   3.951   0.840 -0.6014 -0.0191  0.5116
 1585SOL    HW2 5045   5.852   3.867   0.892  0.4782  0.9127 -0.6036
 1586SOL     OW 5046   0.619   2.080   0.298 -0.1624  0.4848 -0.4827
 1586SOL    HW1 5047   0.557   2.151   0.331 -2.2982 -0.3665 -2.3509
 1586SOL    HW2 5048   0.649   2.102   0.205  3.1999  1.3130  0.6580
 1587SOL     OW 5049   0.471   4.281   5.102 -0.6011 -0.5137 -0.4866
 1587SOL    HW1 5050   0.430   4.260   5.013 -3.0705  1.0113  0.1840
 1587SOL    HW2 5051   0.536   4.356   5.091 -1.4356  0.1753 -0.9554
 1588SOL     OW 5052   5.666   5.455   2.599 -0.2696  0.7279 -0.5057
 1588SOL    HW1 5053   5.721   5.487   2.676 -1.8774  2.8824 -0.1707
 1588SOL    HW2 5054   5.587   5.403   2.633 -0.6518  1.1587 -0.7251
 1589SOL     OW 5055   2.692   3.419   0.877  0.4798  0.3955 -0.1293
 1589SOL    HW1 5056   2.662   3.508   0.844  1.0999 -0.2346 -2.5967
 1589SOL    HW2 5057   2.613   3.357   0.883  0.1807  0.8440  0.8000
 1590SOL     OW 5058   1.879   3.923   5.846 -0.4932 -0.0057 -0.1704
 1590SOL    HW1 5059   1.940   3.872   5.906  0.7203 -0.6690 -1.8872
 1590SOL    HW2 5060   1.798   3.867   5.827 -0.6349 -0.0054  0.3956
 1591SOL     OW 5061   0.771   4.303   2.276  0.2650 -0.3688 -0.6628
 1591SOL    HW1 5062   0.776   4.346   2.186  0.1173 -2.6685 -1.8414
 1591SOL    HW2 5063   0.862   4.297   2.316  0.3906  0.2610 -0.8575
 1592SOL     OW 5064   1.294   2.856   0.171  0.2439 -0.2107 -0.8334
 1592SOL    HW1 5065   1.313   2.842   0.268 -1.8437  1.3830 -0.1278
 1592SOL    HW2 5066   1.235   2.782   0.138  0.3197 -0.3389 -0.6833
 1593SOL     OW 5067   0.713   0.955   0.869 -0.7227  0.6724 -0.7749
 1593SOL    HW1 5068   0.667   0.920   0.787 -1.0754 -0.2244 -0.1982
 1593SOL    HW2 5069   0.646   0.966   0.943 -0.0074 -0.8630  0.1440
 1594SOL     OW 5070   0.499   2.808   1.917 -0.0721  0.3376 -0.0325
 1594SOL    HW1 5071   0.528   2.727   1.968  1.4863  1.0892  0.3458
 1594SOL    HW2 5072   0.423   2.785   1.858 -0.4302 -1.1140  0.9479
 1595SOL     OW 5073   5.492   4.329   2.697  0.2976  0.1349 -0.9288
 1595SOL    HW1 5074   5.533   4.384   2.625  1.1883 -1.4204 -1.6538
 1595SOL    HW2 5075   5.488   4.233   2.668  0.2459 -0.4611  0.9027
 1596SOL     OW 5076   0.496   3.755   0.955  0.3166  0.2711  0.5653
 1596SOL    HW1 5077   0.448   3.843   0.949 -0.8605 -0.4057 -0.1710
 1596SOL    HW2 5078   0.511   3.719   0.864  2.1318  0.3809  0.7805
 1597SOL     OW 5079   0.902   4.775   3.449  0.2993  0.2194  0.1204
 1597SOL    HW1 5080   0.950   4.859   3.423 -1.7152  1.4600  0.2663
 1597SOL    HW2 5081   0.948   4.733   3.527  0.7203  1.7881  0.7555
 1598SOL     OW 5082   2.742   1.093   1.696 -0.3153 -0.6614  0.2119
 1598SOL    HW1 5083   2.704   1.180   1.727 -1.1680 -1.1160  0.4479
 1598SOL    HW2 5084   2.829   1.111   1.649 -1.6282  0.6060 -1.9326
 1599SOL     OW 5085   2.028   3.756   4.443 -0.0350  0.1157  0.2641
 1599SOL    HW1 5086   1.934   3.747   4.410  0.3581 -0.7511 -0.6664
 1599SOL    HW2 5087   2.043   3.689   4.516  0.4466 -1.2151 -1.0072
 1600SOL     OW 5088   1.082   4.997   1.365 -0.4971 -0.6259 -0.2203
 1600SOL    HW1 5089   1.169   5.041   1.389 -0.9452  0.2910 -0.2479
 1600SOL    HW2 5090   1.057   4.932   1.436  0.1467 -0.7983 -0.1478
 1601SOL     OW 5091   1.348   5.114   3.043  0.2309  0.1486 -0.7961
 1601SOL    HW1 5092   1.434   5.109   3.094  0.8167 -0.6763 -1.8070
 1601SOL    HW2 5093   1.301   5.026   3.047  0.2785  0.0694 -1.6125
 1602SOL     OW 5094   1.103   2.794   3.778  0.1992  0.2912 -0.3023
 1602SOL    HW1 5095   1.093   2.807   3.679  1.3618  1.8944 -0.2415
 1602SOL    HW2 5096   1.071   2.702   3.802 -0.5561  0.0323 -2.0822
 1603SOL     OW 5097   1.301   0.212   4.204  0.2685 -0.0840  0.1197
 1603SOL    HW1 5098   1.301   0.307   4.174 -1.3990 -0.8235 -2.6158
 1603SOL    HW2 5099   1.394   0.185   4.229  1.3295  1.4835 -1.8361
 1604SOL     OW 5100   1.122   4.051   4.096  0.0528  0.3108 -0.7158
 1604SOL    HW1 5101   1.053   4.015   4.033 -1.2736  1.6629 -0.1106
 1604SOL    HW2 5102   1.094   4.142   4.128  1.3817  0.2567  0.7497
 1605SOL     OW 5103   1.344   5.033   2.368 -0.0740  0.4072 -0.4052
 1605SOL    HW1 5104   1.406   5.022   2.446 -2.5550 -0.9229  1.5536
 1605SOL    HW2 5105   1.372   5.112   2.314  1.9716  1.1967  1.6269
 1606SOL     OW 5106   0.943   1.194   1.634  0.1424  0.2795  0.6252
 1606SOL    HW1 5107   1.039   1.223   1.625 -0.2370  2.8029  3.3060
 1606SOL    HW2 5108   0.897   1.206   1.546  1.5282  2.1719  0.0746
 1607SOL     OW 5109   5.275   5.785   4.029 -0.5829  0.4627 -0.9232
 1607SOL    HW1 5110   5.324   5.866   3.998  0.4452 -0.3904 -1.5905
 1607SOL    HW2 5111   5.255   5.726   3.951 -0.1739 -0.5311 -0.3057
 1608SOL     OW 5112   2.082   3.563   2.737 -0.4914  0.0203  0.6539
 1608SOL    HW1 5113   2.036   3.583   2.651  1.8778  0.2682 -0.6346
 1608SOL    HW2 5114   2.094   3.649   2.788 -0.1223  0.1925  0.2838
 1609SOL     OW 5115   1.017   5.036   3.370  0.4353 -0.1871 -0.0967
 1609SOL    HW1 5116   1.111   5.030   3.406 -0.1680  2.2396  2.2712
 1609SOL    HW2 5117   1.019   5.077   3.279  1.6702  0.6941  0.2897
 1610SOL     OW 5118   2.244   4.664   3.906  0.4837 -0.4200 -0.0140
 1610SOL    HW1 5119   2.208   4.643   3.816  1.2330 -0.4404 -0.3145
 1610SOL    HW2 5120   2.265   4.762   3.912 -0.7588 -0.1627  0.5799
 1611SOL     OW 5121   1.375   5.395   2.776 -0.3522 -0.5791  1.0671
 1611SOL    HW1 5122   1.403   5.491   2.766  1.0037 -1.0610 -0.1086
 1611SOL    HW2 5123   1.315   5.386   2.856 -2.0775  1.5600  0.1198
 1612SOL     OW 5124   0.362   3.716   2.473  0.2233  0.1580  0.1755
 1612SOL    HW1 5125   0.352   3.766   2.387  0.5409 -2.1790 -1.3035
 1612SOL    HW2 5126   0.455   3.680   2.480 -0.5785 -2.1447 -0.0045
 1613SOL     OW 5127   1.947   5.591   3.276 -0.7088  0.4687  0.0828
 1613SOL    HW1 5128   1.925   5.614   3.181  0.1360 -0.6625 -0.4137
 1613SOL    HW2 5129   1.909   5.501   3.298  1.6352 -0.6607 -0.1913
 1614SOL     OW 5130   0.109   3.778   0.902  0.7273 -0.2610  1.0864
 1614SOL    HW1 5131   0.149   3.780   0.993 -0.4555 -1.2108  1.6698
 1614SOL    HW2 5132   0.094   3.683   0.874  2.2494 -0.0430 -0.6717
 1615SOL     OW 5133   2.608   2.560   4.701 -0.1849 -0.0915  0.3523
 1615SOL    HW1 5134   2.580   2.530   4.610 -1.3220  1.3847  0.1747
 1615SOL    HW2 5135   2.544   2.524   4.769  0.8405 -1.4460  0.6176
 1616SOL     OW 5136   5.840   4.963   3.271  0.0536  0.0044 -0.2605
 1616SOL    HW1 5137   5.827   4.963   3.172 -1.4157  1.7565 -0.1083
 1616SOL    HW2 5138   5.766   4.910   3.314 -1.1087  1.7755  0.0293
 1617SOL     OW 5139   2.010   0.138   1.147  0.3503 -0.6630 -0.1761
 1617SOL    HW1 5140   2.104   0.133   1.181  0.3436  1.3660  0.3029
 1617SOL    HW2 5141   2.011   0.167   1.051  0.2321  0.8280  0.2394
 1618SOL     OW 5142   1.014   4.603   2.862  0.0160  0.1335 -0.3970
 1618SOL    HW1 5143   0.925   4.556   2.867  0.1523 -0.4887 -2.7822
 1618SOL    HW2 5144   1.000   4.699   2.842 -0.1325  0.2107  0.0651
 1619SOL     OW 5145   2.586   4.181   1.432  0.3003  0.3645 -0.4028
 1619SOL    HW1 5146   2.589   4.219   1.339  2.2616 -0.6336 -0.8054
 1619SOL    HW2 5147   2.658   4.113   1.442 -1.7335 -1.7489  0.9328
 1620SOL     OW 5148   1.848   4.330   5.489 -0.2031 -0.1614 -0.2763
 1620SOL    HW1 5149   1.896   4.416   5.503 -2.1547  1.0279 -0.5741
 1620SOL    HW2 5150   1.849   4.278   5.575 -0.5826  1.0034  0.4611
 1621SOL     OW 5151   0.646   5.340   4.375  0.4252  0.1683  0.6848
 1621SOL    HW1 5152   0.689   5.383   4.455 -1.1859 -0.7944  2.1289
 1621SOL    HW2 5153   0.618   5.247   4.398 -0.1952 -0.0954 -0.9880
 1622SOL     OW 5154   1.069   0.448   2.159 -0.3598  0.1996 -0.2345
 1622SOL    HW1 5155   1.046   0.371   2.100 -1.1700  0.9609 -0.9542
 1622SOL    HW2 5156   0.988   0.506   2.171 -0.2929 -0.0764  1.8675
 1623SOL     OW 5157   1.846   0.120   2.124 -0.3864  0.3628  0.2530
 1623SOL    HW1 5158   1.868   0.118   2.026 -0.1175  2.2341  0.2315
 1623SOL    HW2 5159   1.926   0.096   2.177 -0.5610 -0.7693  0.0367
 1624SOL     OW 5160   5.076   3.419   2.976 -0.1009 -0.3364 -0.0746
 1624SOL    HW1 5161   5.014   3.402   3.053 -0.5680  0.2346 -0.3147
 1624SOL    HW2 5162   5.071   3.516   2.951  0.5227 -0.3902 -0.4202
 1625SOL     OW 5163   5.372   4.903   2.740  0.5443 -0.0740  0.6147
 1625SOL    HW1 5164   5.394   4.931   2.834  2.1408 -1.2760  0.6332
 1625SOL    HW2 5165   5.455   4.901   2.685 -0.3181  0.2287 -0.7517
 1626SOL     OW 5166   1.744   5.061   2.805  0.9677 -1.1615 -0.6628
 1626SOL    HW1 5167   1.656   5.105   2.787  0.6362 -1.2768  0.5822
 1626SOL    HW2 5168   1.813   5.098   2.743  0.0838 -0.9490 -1.5391
 1627SOL     OW 5169   1.252   4.722   2.454  0.4589 -0.1304  0.4763
 1627SOL    HW1 5170   1.282   4.708   2.549  1.8219  0.7455  0.2095
 1627SOL    HW2 5171   1.154   4.743   2.453  0.1845 -1.2303  1.5750
 1628SOL     OW 5172   2.044   3.095   2.736  0.4706  0.5125  0.3567
 1628SOL    HW1 5173   1.968   3.066   2.795  0.2036  1.1160  0.3181
 1628SOL    HW2 5174   2.101   3.160   2.786  1.1636 -0.1998  0.5041
 1629SOL     OW 5175   0.626   5.248   2.601  0.4754  0.3320  0.1067
 1629SOL    HW1 5176   0.611   5.214   2.508 -0.1368  0.2155  0.2471
 1629SOL    HW2 5177   0.552   5.218   2.660  0.7430  0.6009  0.5866
 1630SOL     OW 5178   2.111   4.583   3.226  0.4750  0.5219 -0.5452
 1630SOL    HW1 5179   2.074   4.517   3.161  0.9981  0.3815 -0.7024
 1630SOL    HW2 5180   2.055   4.666   3.224 -1.9033 -0.8667  1.6253
 1631SOL     OW 5181   1.049   4.281   2.312 -0.2028 -0.8956 -0.1556
 1631SOL    HW1 5182   1.103   4.365   2.322 -1.6882  0.1379 -0.3506
 1631SOL    HW2 5183   1.085   4.211   2.373  0.9083 -0.0247  0.2286
 1632SOL     OW 5184   1.936   4.170   3.135 -0.3174  0.1503 -0.3625
 1632SOL    HW1 5185   1.993   4.091   3.113 -0.8034  0.1710 -1.7877
 1632SOL    HW2 5186   1.980   4.253   3.103  0.2287  0.4925  1.2066
 1633SOL     OW 5187   1.501   4.434   2.385 -0.2812  0.3902  0.0167
 1633SOL    HW1 5188   1.480   4.371   2.310  0.3829  0.9851 -0.6850
 1633SOL    HW2 5189   1.475   4.392   2.472  1.8912 -1.6667 -0.2211
 1634SOL     OW 5190   1.118   3.508   2.449 -0.2191  0.0942  0.2786
 1634SOL    HW1 5191   1.179   3.432   2.474  0.1361  0.2727 -0.0274
 1634SOL    HW2 5192   1.150   3.549   2.364 -0.3188  0.6862  0.5229
 1635SOL     OW 5193   2.405   3.701   3.303  0.0791 -0.7902  0.6087
 1635SOL    HW1 5194   2.342   3.680   3.229 -0.9723  0.5233  1.0819
 1635SOL    HW2 5195   2.363   3.678   3.391  1.0152 -1.6275  0.8579
 1636SOL     OW 5196   1.556   4.409   3.559  0.0395  0.4643 -0.6143
 1636SOL    HW1 5197   1.460   4.433   3.542  0.1149  0.5177 -0.9838
 1636SOL    HW2 5198   1.570   4.313   3.539 -0.2738  0.0716  0.9172
 1637SOL     OW 5199   1.452   4.555   2.996  0.3409 -0.6174  0.4425
 1637SOL    HW1 5200   1.357   4.536   3.020  0.1221  0.9176  0.9086
 1637SOL    HW2 5201   1.512   4.516   3.066 -0.1522  1.2256  1.9975
 1638SOL     OW 5202   3.189   4.811   3.061  0.1337  0.2428  0.7190
 1638SOL    HW1 5203   3.227   4.877   3.126 -0.2793  0.3607  0.8452
 1638SOL    HW2 5204   3.255   4.794   2.988 -0.3234  1.9540 -0.1473
 1639SOL     OW 5205   5.723   3.981   2.198 -0.0616 -0.3376  0.4380
 1639SOL    HW1 5206   5.626   4.004   2.200  0.1204  0.3976  2.2945
 1639SOL    HW2 5207   5.736   3.888   2.234 -0.0221 -0.1766  0.8451
 1640SOL     OW 5208   2.235   3.789   2.219 -0.0479 -0.2028  0.2072
 1640SOL    HW1 5209   2.225   3.876   2.170 -1.8096 -0.3475  0.2332
 1640SOL    HW2 5210   2.281   3.723   2.160  0.6566  0.5352 -0.0865
 1641SOL     OW 5211   4.779   4.133   1.441  0.0534  0.2305  0.0414
 1641SOL    HW1 5212   4.834   4.200   1.391  2.2493 -0.1296  1.8013
 1641SOL    HW2 5213   4.690   4.122   1.396  0.5182  2.5565 -1.6187
 1642SOL     OW 5214   1.770   4.398   2.432  0.1088  0.7300 -0.4023
 1642SOL    HW1 5215   1.789   4.480   2.379 -0.3944  0.3019 -1.2750
 1642SOL    HW2 5216   1.671   4.384   2.438  0.1641  0.5979  0.3946
 1643SOL     OW 5217   3.715   4.636   1.140  0.3925 -0.1478  0.0387
 1643SOL    HW1 5218   3.721   4.562   1.208  2.3185  0.1799  0.2987
 1643SOL    HW2 5219   3.640   4.617   1.077 -0.5494 -1.1933  1.3944
 1644SOL     OW 5220   1.463   4.787   4.069 -0.1736 -0.2668  0.7255
 1644SOL    HW1 5221   1.373   4.743   4.078 -0.1481 -0.3072  0.7829
 1644SOL    HW2 5222   1.475   4.819   3.975 -0.1792 -0.4121  0.6748
 1645SOL     OW 5223   5.924   0.514   0.624 -0.0671  0.1922  0.2750
 1645SOL    HW1 5224   6.009   0.514   0.677  1.0716 -1.7062 -1.3806
 1645SOL    HW2 5225   5.850   0.479   0.681  0.3995  1.2110  1.5412
 1646SOL     OW 5226   0.315   0.401   2.529  0.2357 -0.2175  0.2898
 1646SOL    HW1 5227   0.394   0.356   2.572  0.6304  0.2490  0.0632
 1646SOL    HW2 5228   0.332   0.410   2.431 -0.3005 -0.5209  0.1656
 1647SOL     OW 5229   1.629   5.416   2.307  0.3031  0.2173 -0.0642
 1647SOL    HW1 5230   1.615   5.325   2.345  0.6113  1.2995  2.9125
 1647SOL    HW2 5231   1.724   5.425   2.274  1.0309  0.1581  1.9024
 1648SOL     OW 5232   3.810   5.408   3.246 -0.2849 -0.7457 -0.2745
 1648SOL    HW1 5233   3.747   5.330   3.252 -1.3089 -0.0265 -1.2941
 1648SOL    HW2 5234   3.766   5.483   3.197  0.9738  0.2033 -0.0093
 1649SOL     OW 5235   2.612   3.876   5.106 -0.0459  0.4020  0.2020
 1649SOL    HW1 5236   2.651   3.916   5.023  0.9322 -2.9006 -1.0842
 1649SOL    HW2 5237   2.534   3.931   5.136 -0.2900  1.8307 -2.7374
 1650SOL     OW 5238   1.884   4.182   0.260  0.1777 -0.1125 -0.5893
 1650SOL    HW1 5239   1.966   4.238   0.251 -0.8523  1.2590 -2.0843
 1650SOL    HW2 5240   1.898   4.113   0.331  1.5660  1.8963  1.2036
 1651SOL     OW 5241   0.850   4.841   4.560  0.5479  0.2022 -0.4574
 1651SOL    HW1 5242   0.948   4.863   4.562  0.2574  1.5833 -0.5872
 1651SOL    HW2 5243   0.803   4.890   4.633 -0.1408  0.0719 -0.8057
 1652SOL     OW 5244   1.302   5.727   2.924 -0.3566  0.0949 -0.0685
 1652SOL    HW1 5245   1.394   5.688   2.913 -0.5057  0.1641 -1.6998
 1652SOL    HW2 5246   1.260   5.688   3.005  1.4837  0.8208  1.3296
 1653SOL     OW 5247   0.184   4.389   1.674  0.0077  0.4418 -0.1477
 1653SOL    HW1 5248   0.268   4.398   1.621  0.8540 -0.4501  0.9939
 1653SOL    HW2 5249   0.195   4.318   1.743 -0.8595  1.8808  1.5781
 1654SOL     OW 5250   2.148   5.094   1.380 -0.2684  0.3045 -0.2254
 1654SOL    HW1 5251   2.140   5.156   1.302 -1.0619  0.3682 -0.0983
 1654SOL    HW2 5252   2.073   5.110   1.444 -1.1230 -1.4695 -0.6891
 1655SOL     OW 5253   0.741   4.437   2.037 -0.2557  0.2767 -0.4483
 1655SOL    HW1 5254   0.659   4.381   2.054  0.8267 -1.3028 -0.2725
 1655SOL    HW2 5255   0.747   4.460   1.940 -0.2479 -0.6616 -0.6728
 1656SOL     OW 5256   3.379   4.690   1.149  0.3567  0.3012 -0.2414
 1656SOL    HW1 5257   3.378   4.629   1.228  2.6880 -0.2495 -0.5391
 1656SOL    HW2 5258   3.333   4.776   1.172  1.1257  0.2222  1.8119
 1657SOL     OW 5259   0.949   4.845   3.038  0.0126 -0.4632 -0.1695
 1657SOL    HW1 5260   0.927   4.827   2.942 -0.5376  0.7219 -0.2958
 1657SOL    HW2 5261   0.864   4.845   3.091  0.3851 -1.7537  0.4423
 1658SOL     OW 5262   3.236   4.157   3.031 -0.2833 -0.1444 -0.4874
 1658SOL    HW1 5263   3.278   4.107   2.955 -0.1632  0.0734 -0.5658
 1658SOL    HW2 5264   3.307   4.182   3.097 -0.3206  0.0549 -0.5237
 1659SOL     OW 5265   0.782   4.453   1.760 -0.4438 -0.3819  0.3847
 1659SOL    HW1 5266   0.879   4.430   1.769 -0.5498 -1.0869 -0.2222
 1659SOL    HW2 5267   0.747   4.418   1.674 -0.4024  2.8377 -1.0928
 1660SOL     OW 5268   1.151   2.171   3.883  0.2377 -0.2289 -0.6179
 1660SOL    HW1 5269   1.211   2.209   3.812  0.8914  0.1697  0.1338
 1660SOL    HW2 5270   1.203   2.161   3.968 -0.5316 -0.7266 -0.2002
 1661SOL     OW 5271   1.488   3.808   1.903 -0.5470  0.7059 -0.2267
 1661SOL    HW1 5272   1.398   3.851   1.908 -0.4594  0.9348 -0.6687
 1661SOL    HW2 5273   1.493   3.750   1.822 -0.8721 -0.6085  0.6615
 1662SOL     OW 5274   1.965   3.858   4.040 -0.5533 -0.0686 -0.2402
 1662SOL    HW1 5275   2.054   3.897   4.062 -1.4308  1.1175  1.4248
 1662SOL    HW2 5276   1.939   3.792   4.111 -2.0893  1.5144  0.7346
 1663SOL     OW 5277   1.156   3.778   2.922  0.4478  0.5056  0.6172
 1663SOL    HW1 5278   1.214   3.779   3.004  0.5465 -0.9018  0.5907
 1663SOL    HW2 5279   1.061   3.767   2.949  0.4875 -0.0270  0.5411
 1664SOL     OW 5280   2.073   4.984   3.766  0.8482  0.2511  0.5189
 1664SOL    HW1 5281   2.071   5.018   3.673 -0.7021 -0.7903  0.1337
 1664SOL    HW2 5282   2.168   4.973   3.796  1.3784  2.6721 -0.1088
 1665SOL     OW 5283   1.466   5.152   2.789 -0.3715  0.1248  0.2965
 1665SOL    HW1 5284   1.436   5.245   2.768 -0.5706  0.2306  1.0152
 1665SOL    HW2 5285   1.436   5.128   2.882 -0.4296 -0.7004  0.0680
 1666SOL     OW 5286   1.170   4.532   2.273  0.4786 -0.1696 -0.4559
 1666SOL    HW1 5287   1.255   4.497   2.234  0.1799 -1.8668  0.2850
 1666SOL    HW2 5288   1.190   4.583   2.357  0.7965 -0.1598 -0.5383
 1667SOL     OW 5289   5.580   4.412   2.285  0.2995  0.2105 -0.3916
 1667SOL    HW1 5290   5.547   4.506   2.295 -0.3167  0.1974 -1.9851
 1667SOL    HW2 5291   5.502   4.349   2.289  0.5465 -0.1155 -0.6859
 1668SOL     OW 5292   3.479   4.011   0.642 -0.1528 -0.1125  0.3681
 1668SOL    HW1 5293   3.460   4.016   0.544 -1.1901  0.3182  0.5777
 1668SOL    HW2 5294   3.567   4.055   0.661 -0.1842  0.2614 -0.3060
 1669SOL     OW 5295   5.323   4.369   2.941  0.1677 -0.7045  0.3081
 1669SOL    HW1 5296   5.230   4.334   2.925 -0.4405 -0.1937  2.3434
 1669SOL    HW2 5297   5.386   4.326   2.877 -1.2718 -2.0775 -0.2676
 1670SOL     OW 5298   0.507   5.376   1.803  0.3830 -0.7086  0.5125
 1670SOL    HW1 5299   0.562   5.458   1.819 -1.1478  0.0739  2.0875
 1670SOL    HW2 5300   0.424   5.380   1.858 -1.3082 -1.8299 -1.7676
 1671SOL     OW 5301   2.336   4.352   4.235  0.4803  0.2795 -0.1414
 1671SOL    HW1 5302   2.352   4.300   4.319  1.5306  1.8373  0.6729
 1671SOL    HW2 5303   2.409   4.419   4.223 -0.4579  1.1082 -1.5037
 1672SOL     OW 5304   1.895   3.415   4.387  0.1718  0.8399  0.3092
 1672SOL    HW1 5305   1.823   3.384   4.326  0.2788  0.7666  0.2219
 1672SOL    HW2 5306   1.985   3.391   4.350  0.3062  2.1516 -0.2859
 1673SOL     OW 5307   1.593   5.151   3.735  0.1789  0.1801 -0.0752
 1673SOL    HW1 5308   1.686   5.188   3.742 -0.2016  1.0927  0.1961
 1673SOL    HW2 5309   1.534   5.196   3.801 -0.7148  0.4141 -1.0030
 1674SOL     OW 5310   2.000   4.600   2.585  0.5888 -0.0332  0.1893
 1674SOL    HW1 5311   1.963   4.690   2.610 -0.7305 -0.5042  0.0024
 1674SOL    HW2 5312   2.094   4.610   2.554 -0.1502  1.6017 -1.7789
 1675SOL     OW 5313   5.466   2.524   2.851 -0.0520 -0.6942  0.1603
 1675SOL    HW1 5314   5.417   2.438   2.841 -0.8015 -0.0702 -1.9973
 1675SOL    HW2 5315   5.401   2.599   2.861  0.4775 -0.0732 -0.8639
 1676SOL     OW 5316   5.063   0.431   3.551  0.6385  0.1246 -0.0052
 1676SOL    HW1 5317   5.103   0.340   3.537  0.0882  0.0372 -1.1506
 1676SOL    HW2 5318   4.963   0.424   3.547  0.6061  1.0089 -1.8201
 1677SOL     OW 5319   2.317   4.288   1.961  0.2465  0.1132 -0.4961
 1677SOL    HW1 5320   2.340   4.374   1.915  0.8878  0.6278  0.7334
 1677SOL    HW2 5321   2.217   4.279   1.965 -0.0204  2.7440  2.6689
 1678SOL     OW 5322   1.686   4.248   3.823  0.0516  0.2887 -0.0629
 1678SOL    HW1 5323   1.719   4.338   3.795 -1.0813  0.4972 -0.8139
 1678SOL    HW2 5324   1.642   4.255   3.912 -1.4470  0.8533 -0.7985
 1679SOL     OW 5325   1.019   0.151   2.795 -0.6905  0.1246 -0.1809
 1679SOL    HW1 5326   1.054   0.234   2.751  1.3252 -0.7240 -0.2867
 1679SOL    HW2 5327   1.005   0.080   2.725 -0.3684 -0.2777  0.1558
 1680SOL     OW 5328   2.393   5.344   2.517 -0.4093  0.4947 -0.0455
 1680SOL    HW1 5329   2.467   5.325   2.581 -1.5353  0.8613  1.4125
 1680SOL    HW2 5330   2.374   5.442   2.516 -1.1219  0.3631 -0.1315
 1681SOL     OW 5331   0.959   4.777   2.472 -0.1122 -0.2070  0.0861
 1681SOL    HW1 5332   0.910   4.703   2.518  1.2671 -0.1196  1.8208
 1681SOL    HW2 5333   0.898   4.822   2.407 -1.0147 -2.7545 -0.9428
 1682SOL     OW 5334   2.407   3.996   2.349  0.0698 -0.2304 -0.4811
 1682SOL    HW1 5335   2.461   3.914   2.371 -0.6438 -0.4288  0.6354
 1682SOL    HW2 5336   2.386   4.045   2.433 -0.4163  0.5319 -1.0375
 1683SOL     OW 5337   1.723   5.470   2.748  0.4235  0.0407  0.2003
 1683SOL    HW1 5338   1.666   5.500   2.671 -0.6255  0.7278  1.2208
 1683SOL    HW2 5339   1.819   5.486   2.726  0.1716 -0.1601 -1.1293
 1684SOL     OW 5340   2.562   5.912   2.770  0.0732 -0.2172 -0.2683
 1684SOL    HW1 5341   2.526   5.822   2.793 -1.2894  0.8842  2.2515
 1684SOL    HW2 5342   2.487   5.975   2.754  0.9182  1.1056  0.7398
 1685SOL     OW 5343   1.308   3.314   2.498  0.4910  0.2077 -0.2365
 1685SOL    HW1 5344   1.348   3.262   2.422  0.9369  0.5586 -0.2451
 1685SOL    HW2 5345   1.254   3.252   2.555  0.2402 -0.0799 -0.7738
 1686SOL     OW 5346   5.906   5.217   2.146 -0.2159  0.5643 -0.0917
 1686SOL    HW1 5347   5.925   5.309   2.111 -0.5096  0.3124 -0.9427
 1686SOL    HW2 5348   5.918   5.216   2.245  0.4578  1.3497 -0.1513
 1687SOL     OW 5349   1.512   4.537   4.859  0.2848  0.5248 -0.4770
 1687SOL    HW1 5350   1.541   4.455   4.907 -1.6894  0.3697  0.5555
 1687SOL    HW2 5351   1.555   4.541   4.769  2.0162 -0.5400  0.2648
 1688SOL     OW 5352   0.243   1.738   3.798  0.2335  0.2005  0.1258
 1688SOL    HW1 5353   0.205   1.691   3.719 -1.0801  2.5816 -0.7736
 1688SOL    HW2 5354   0.169   1.767   3.860  1.0515  0.2886  1.1007
 1689SOL     OW 5355   1.716   5.249   5.298 -0.0656  0.4509  0.0659
 1689SOL    HW1 5356   1.803   5.272   5.340 -0.6177  0.0576  1.5014
 1689SOL    HW2 5357   1.729   5.228   5.201  1.3476  0.8341  0.1624
 1690SOL     OW 5358   3.197   4.558   2.457  0.0861  0.0860 -0.4994
 1690SOL    HW1 5359   3.283   4.569   2.506 -0.8840 -3.2490  2.3663
 1690SOL    HW2 5360   3.127   4.617   2.498  0.0215 -0.4179  0.1387
 1691SOL     OW 5361   2.613   4.614   3.321  0.6548  1.0861  0.1654
 1691SOL    HW1 5362   2.519   4.647   3.321  0.2095 -0.1309 -0.0730
 1691SOL    HW2 5363   2.658   4.643   3.237 -0.6143 -1.2537 -1.4187
 1692SOL     OW 5364   1.178   3.304   1.798 -0.3671 -0.0880  0.1070
 1692SOL    HW1 5365   1.169   3.238   1.873  0.4879  0.2924  0.5546
 1692SOL    HW2 5366   1.094   3.304   1.744 -1.0816 -0.2085  1.1829
 1693SOL     OW 5367   1.279   5.882   3.702  0.1274 -0.1158  0.4107
 1693SOL    HW1 5368   1.363   5.882   3.756  0.9114  1.2011 -0.7314
 1693SOL    HW2 5369   1.282   5.806   3.637  0.3213 -0.2062  0.5224
 1694SOL     OW 5370   0.718   4.513   2.931  0.4130 -0.0988  0.0823
 1694SOL    HW1 5371   0.694   4.495   3.027 -0.7674 -0.3236 -0.2479
 1694SOL    HW2 5372   0.643   4.559   2.886 -0.0218 -2.0890 -1.3626
 1695SOL     OW 5373   1.874   3.622   1.897 -0.0733  0.6665 -0.1534
 1695SOL    HW1 5374   1.925   3.633   1.983  1.4551 -0.3325 -0.8887
 1695SOL    HW2 5375   1.876   3.708   1.846  2.7847  0.1552 -1.1129
 1696SOL     OW 5376   1.764   3.341   2.523  0.2231  0.6155 -0.1728
 1696SOL    HW1 5377   1.681   3.286   2.530  0.4272  0.2262 -0.8317
 1696SOL    HW2 5378   1.840   3.285   2.491  0.7235  0.9969  0.3178
 1697SOL     OW 5379   4.701   3.861   2.965 -0.0013 -0.3300  0.5842
 1697SOL    HW1 5380   4.620   3.828   2.916  0.3527 -1.4350  0.7167
 1697SOL    HW2 5381   4.720   3.799   3.042  0.1361  0.7196  1.4187
 1698SOL     OW 5382   2.397   4.483   1.205 -0.3357  0.2723 -0.7760
 1698SOL    HW1 5383   2.464   4.409   1.206  0.3724  0.8935 -0.7266
 1698SOL    HW2 5384   2.428   4.556   1.267 -0.7805  0.8008 -1.1720
 1699SOL     OW 5385   0.440   3.901   3.262 -0.4141 -0.3746  0.1725
 1699SOL    HW1 5386   0.387   3.907   3.346 -0.2345  0.3688  0.2399
 1699SOL    HW2 5387   0.399   3.959   3.192 -2.2319 -3.0794 -1.2071
 1700SOL     OW 5388   2.029   5.079   3.222  0.0218 -0.1822 -0.3561
 1700SOL    HW1 5389   1.966   5.154   3.201  1.1377  1.3076  1.2942
 1700SOL    HW2 5390   2.105   5.079   3.156 -0.9849 -1.1587 -1.5555
 1701SOL     OW 5391   2.526   5.317   4.053  0.1534 -0.7694  0.5744
 1701SOL    HW1 5392   2.561   5.225   4.072  1.8143 -0.4117 -0.5193
 1701SOL    HW2 5393   2.552   5.345   3.961 -0.6203  0.6740  0.7582
 1702SOL     OW 5394   2.040   4.269   1.894  0.1666 -0.2117 -0.3186
 1702SOL    HW1 5395   2.032   4.256   1.795  1.0080 -1.2799 -0.2671
 1702SOL    HW2 5396   1.950   4.260   1.936 -0.0471 -0.7863 -0.8785
 1703SOL     OW 5397   5.123   0.470   5.182 -0.0030 -0.1915  0.2596
 1703SOL    HW1 5398   5.182   0.534   5.233  0.6136  1.1278 -1.9703
 1703SOL    HW2 5399   5.170   0.383   5.171 -0.0836 -0.4490  1.7553
 1704SOL     OW 5400   1.498   4.676   2.102  0.3643 -0.1705 -0.3435
 1704SOL    HW1 5401   1.502   4.690   2.201 -2.8487 -1.2309  0.0521
 1704SOL    HW2 5402   1.492   4.764   2.055  1.5294  0.3218  0.3905
 1705SOL     OW 5403   1.848   2.763   2.011 -0.1076  0.1085 -0.1709
 1705SOL    HW1 5404   1.915   2.833   2.035 -2.6063  2.1197  1.4551
 1705SOL    HW2 5405   1.780   2.802   1.948 -0.9905 -1.1749 -0.0604
 1706SOL     OW 5406   2.349   3.000   4.464 -0.0384 -0.1527  0.5406
 1706SOL    HW1 5407   2.313   3.048   4.544  1.1309  1.5424  0.1199
 1706SOL    HW2 5408   2.311   3.040   4.381  0.8899  0.0124  0.1808
 1707SOL     OW 5409   0.186   2.987   1.597  0.1722  0.3948 -0.0618
 1707SOL    HW1 5410   0.268   2.961   1.546  1.8812  2.8551  1.2600
 1707SOL    HW2 5411   0.152   2.908   1.647  1.6838 -0.6970 -0.6864
 1708SOL     OW 5412   1.503   4.331   1.802  0.5338  0.0839 -0.0669
 1708SOL    HW1 5413   1.571   4.365   1.867 -0.1096  1.7141 -0.2170
 1708SOL    HW2 5414   1.549   4.300   1.719  1.1346  0.8059 -0.0171
 1709SOL     OW 5415   1.197   4.480   3.059 -0.3073  0.8722 -0.7051
 1709SOL    HW1 5416   1.154   4.435   3.137  1.0838  1.5644  0.5096
 1709SOL    HW2 5417   1.128   4.527   3.005 -1.4632 -0.6830 -0.6455
 1710SOL     OW 5418   0.031   3.297   1.657  0.7565 -0.7248  0.1416
 1710SOL    HW1 5419   0.060   3.380   1.704  2.1335 -0.7263 -0.6420
 1710SOL    HW2 5420  -0.069   3.291   1.658  0.6748 -1.1103  3.6660
 1711SOL     OW 5421   4.884   3.201   2.935 -0.7652  0.3940  0.3630
 1711SOL    HW1 5422   4.849   3.252   2.857 -0.4669 -2.0091 -1.4668
 1711SOL    HW2 5423   4.846   3.238   3.019 -1.8911  2.4505 -0.9730
 1712SOL     OW 5424   0.018   4.550   3.435 -0.3456  0.3574 -0.3607
 1712SOL    HW1 5425   0.057   4.509   3.353  1.2954  2.2405 -0.6069
 1712SOL    HW2 5426   0.079   4.535   3.513  0.1330  1.9306 -0.3894
 1713SOL     OW 5427   0.967   3.219   3.258  0.0100 -0.3244  0.1201
 1713SOL    HW1 5428   0.875   3.196   3.227 -0.5829  0.8951  0.8805
 1713SOL    HW2 5429   1.016   3.267   3.185 -1.3179  2.3815  0.8606
 1714SOL     OW 5430   1.806   4.390   2.717  0.3781 -0.0673 -0.0895
 1714SOL    HW1 5431   1.828   4.438   2.632 -1.6057  1.4584  0.1971
 1714SOL    HW2 5432   1.714   4.414   2.747  0.0027 -2.6225  1.1315
 1715SOL     OW 5433   5.605   0.160   2.495 -0.2726  0.2485  0.5891
 1715SOL    HW1 5434   5.658   0.232   2.450 -0.4980 -0.0659 -0.1986
 1715SOL    HW2 5435   5.662   0.080   2.509 -0.2610  0.2684  0.6532
 1716SOL     OW 5436   2.867   4.725   1.672  0.2150 -0.3624  0.1364
 1716SOL    HW1 5437   2.956   4.756   1.641  0.3169  0.1852  0.9630
 1716SOL    HW2 5438   2.858   4.627   1.654  2.5147 -1.3451  3.4279
 1717SOL     OW 5439   1.980   5.626   2.391 -0.5199  0.0143 -0.1364
 1717SOL    HW1 5440   1.942   5.567   2.320 -1.1409 -1.1165  1.0798
 1717SOL    HW2 5441   1.911   5.692   2.420 -0.6698 -0.3063  0.2393
 1718SOL     OW 5442   3.190   4.205   3.531 -0.1222 -0.2861 -0.1173
 1718SOL    HW1 5443   3.153   4.113   3.544  0.3974 -0.4252  0.4707
 1718SOL    HW2 5444   3.115   4.271   3.529 -0.4700 -0.6717 -0.0561
 1719SOL     OW 5445   3.177   3.790   3.316  0.1853 -0.2252  0.1566
 1719SOL    HW1 5446   3.152   3.714   3.376  2.0444 -1.9627 -1.1676
 1719SOL    HW2 5447   3.198   3.755   3.224  1.7518  1.7978 -0.3251
 1720SOL     OW 5448   0.861   3.693   4.820  0.2372 -0.4114 -0.3749
 1720SOL    HW1 5449   0.766   3.684   4.852  0.7132 -0.7773  0.9931
 1720SOL    HW2 5450   0.861   3.705   4.721 -1.1616 -1.9567 -0.6124
 1721SOL     OW 5451   0.785   5.840   2.837 -0.1938  0.0103 -1.4492
 1721SOL    HW1 5452   0.812   5.901   2.912 -0.7854  0.0208 -1.2395
 1721SOL    HW2 5453   0.791   5.745   2.867  2.1238 -0.1561 -2.2153
 1722SOL     OW 5454   1.162   4.810   4.969  0.1575 -0.1488 -0.3063
 1722SOL    HW1 5455   1.240   4.747   4.972  1.2808  1.1141 -1.4061
 1722SOL    HW2 5456   1.095   4.776   4.904  0.3867 -0.5959 -0.3168
 1723SOL     OW 5457   0.655   4.001   1.473  0.0917  0.0046  0.1593
 1723SOL    HW1 5458   0.662   4.075   1.406 -0.6212 -1.0505 -1.1414
 1723SOL    HW2 5459   0.560   3.989   1.501 -0.1116 -1.5154 -1.0086
 1724SOL     OW 5460   2.010   2.465   1.386  0.9094 -0.2062  0.0026
 1724SOL    HW1 5461   1.954   2.455   1.304 -2.0047 -1.3255  1.9622
 1724SOL    HW2 5462   2.080   2.394   1.388 -0.0208 -1.1686 -0.7773
 1725SOL     OW 5463   5.759   4.948   2.181  0.2680  0.1407  0.2377
 1725SOL    HW1 5464   5.821   5.018   2.148  1.0720 -0.8941 -0.4938
 1725SOL    HW2 5465   5.718   4.978   2.268 -0.0057  1.8263 -0.4451
 1726SOL     OW 5466   1.809   3.452   3.884 -0.1859  0.3939  0.2388
 1726SOL    HW1 5467   1.822   3.380   3.816 -2.6722  0.6931 -0.6583
 1726SOL    HW2 5468   1.876   3.524   3.869  0.3406 -0.2952 -0.8644
 1727SOL     OW 5469   1.653   3.443   3.014 -0.0188 -0.7053 -0.2149
 1727SOL    HW1 5470   1.732   3.453   2.954 -1.0660  1.3058 -1.3515
 1727SOL    HW2 5471   1.571   3.426   2.959 -0.5118 -2.2469  0.9087
 1728SOL     OW 5472   0.199   5.570   1.756  0.5268 -0.0989  0.0161
 1728SOL    HW1 5473   0.285   5.612   1.726  0.2159  0.5656  0.0309
 1728SOL    HW2 5474   0.123   5.615   1.709  0.1305 -0.0973  0.6573
 1729SOL     OW 5475   0.602   0.040   1.359 -0.3494 -0.0613 -0.2088
 1729SOL    HW1 5476   0.612   0.042   1.259  0.3458 -1.1593 -0.1702
 1729SOL    HW2 5477   0.657   0.113   1.399 -1.1362  0.7942 -0.6595
 1730SOL     OW 5478   5.427   4.633   2.590 -0.0798  0.3892  0.0217
 1730SOL    HW1 5479   5.404   4.541   2.620 -1.1283  0.5623 -0.2023
 1730SOL    HW2 5480   5.394   4.699   2.658 -0.2465  0.6498 -0.3107
 1731SOL     OW 5481   5.929   5.434   3.212 -0.2083  0.0935  0.4417
 1731SOL    HW1 5482   5.835   5.416   3.183  0.0513 -2.6102  0.9539
 1731SOL    HW2 5483   5.989   5.437   3.132 -0.4864 -0.0689  0.2269
 1732SOL     OW 5484   0.848   5.401   2.367 -0.5530  0.0094  0.4642
 1732SOL    HW1 5485   0.786   5.390   2.290 -1.5438  2.0764  0.9256
 1732SOL    HW2 5486   0.796   5.422   2.450  0.7004  1.0716  1.0165
 1733SOL     OW 5487   0.542   5.400   2.935  0.0830  0.6062 -0.0488
 1733SOL    HW1 5488   0.580   5.309   2.923  0.5985  1.0038 -1.8364
 1733SOL    HW2 5489   0.455   5.407   2.885  0.0525  1.0860  0.0633
 1734SOL     OW 5490   1.734   3.814   3.134  0.4179  0.7928 -0.4474
 1734SOL    HW1 5491   1.805   3.771   3.189 -1.4514 -0.9671  0.7275
 1734SOL    HW2 5492   1.750   3.795   3.037  1.0412 -0.3335 -0.1335
 1735SOL     OW 5493   1.473   5.248   3.950  0.1321  0.2591 -0.0515
 1735SOL    HW1 5494   1.453   5.335   3.994  0.1008 -0.3940  1.2672
 1735SOL    HW2 5495   1.412   5.177   3.987  0.7979 -0.5142 -0.4031
 1736SOL     OW 5496   1.925   3.560   3.543 -0.2953  0.3349  0.4446
 1736SOL    HW1 5497   1.902   3.471   3.582  1.4469 -0.4528 -0.2390
 1736SOL    HW2 5498   2.004   3.598   3.590  0.4870  0.3734 -0.8495
 1737SOL     OW 5499   2.587   5.534   3.130  0.2493  0.3110  0.1785
 1737SOL    HW1 5500   2.683   5.563   3.126 -0.1693  1.5896 -2.4284
 1737SOL    HW2 5501   2.528   5.615   3.129 -0.8867 -0.4875  0.4906
 1738SOL     OW 5502   0.077   4.655   1.209  0.2537  0.3899  0.2902
 1738SOL    HW1 5503   0.117   4.741   1.179 -0.8285  0.9584  0.4446
 1738SOL    HW2 5504   0.082   4.648   1.308 -2.0618  1.5492  0.5534
 1739SOL     OW 5505   1.693   0.843   3.454  0.1662  0.1729  0.0816
 1739SOL    HW1 5506   1.752   0.916   3.417  0.1451 -0.6142 -1.6121
 1739SOL    HW2 5507   1.747   0.761   3.468 -0.1567  0.0046  0.3538
 1740SOL     OW 5508   1.275   5.532   1.872 -0.0018 -0.0051  0.4254
 1740SOL    HW1 5509   1.200   5.484   1.827 -0.2592  0.5323  0.2685
 1740SOL    HW2 5510   1.344   5.466   1.902  0.0800 -0.4017 -0.5748
 1741SOL     OW 5511   0.857   4.558   2.586  0.1415  0.3421 -0.6842
 1741SOL    HW1 5512   0.777   4.499   2.572 -0.1230  0.7806 -1.0507
 1741SOL    HW2 5513   0.940   4.503   2.585 -0.2668 -0.4552  1.8347
 1742SOL     OW 5514   0.519   5.052   2.113  0.0788 -0.0175  0.5205
 1742SOL    HW1 5515   0.583   4.976   2.116  1.1252  0.8156 -0.1415
 1742SOL    HW2 5516   0.509   5.083   2.019 -1.6922 -0.4383  0.5320
 1743SOL     OW 5517   0.898   4.788   1.021 -0.5606  0.0505  0.5133
 1743SOL    HW1 5518   0.907   4.875   0.973 -1.4777  0.2112  0.6109
 1743SOL    HW2 5519   0.960   4.721   0.979  0.5447  0.8716  0.7745
 1744SOL     OW 5520   1.743   5.567   4.523  0.0394 -0.2709  0.6615
 1744SOL    HW1 5521   1.834   5.553   4.483 -1.0848 -1.2179 -1.7852
 1744SOL    HW2 5522   1.750   5.571   4.622  2.8944  0.9312  0.5160
 1745SOL     OW 5523   0.806   0.647   4.771 -0.1359 -0.5943 -0.6542
 1745SOL    HW1 5524   0.882   0.639   4.706  0.9970 -1.0426  0.6711
 1745SOL    HW2 5525   0.774   0.742   4.773  1.2023 -0.1327 -0.3671
 1746SOL     OW 5526   0.907   5.671   3.216  0.2625 -0.0023  0.1983
 1746SOL    HW1 5527   0.890   5.735   3.291  1.7631 -0.5443  1.0572
 1746SOL    HW2 5528   0.832   5.676   3.150  0.0867  2.2735  0.4796
 1747SOL     OW 5529   0.931   4.536   5.397 -0.0507 -0.3529  0.4297
 1747SOL    HW1 5530   1.029   4.542   5.379  0.3872 -1.4135  2.2263
 1747SOL    HW2 5531   0.911   4.454   5.450 -2.0994 -0.7711 -0.8543
 1748SOL     OW 5532   1.311   4.099   1.020 -0.0225 -0.4068  0.0056
 1748SOL    HW1 5533   1.310   4.169   1.092 -1.6857  0.2927 -0.6212
 1748SOL    HW2 5534   1.341   4.141   0.934  0.6715 -0.9140 -0.0058
 1749SOL     OW 5535   2.711   3.942   5.749 -0.0065 -0.6770  0.0126
 1749SOL    HW1 5536   2.753   3.957   5.660 -0.7712 -1.1033 -0.4401
 1749SOL    HW2 5537   2.781   3.920   5.816  0.4416 -2.3417 -0.9336
 1750SOL     OW 5538   4.781   0.765   4.395 -0.0939  0.8727  0.1688
 1750SOL    HW1 5539   4.811   0.857   4.421  0.3440  0.9836 -0.6856
 1750SOL    HW2 5540   4.697   0.772   4.341 -0.6126  0.6945  0.9415
 1751SOL     OW 5541   3.958   3.898   0.633  0.5394  0.3556 -0.0322
 1751SOL    HW1 5542   3.937   3.963   0.560 -0.0427  0.8224  0.5400
 1751SOL    HW2 5543   3.899   3.818   0.623 -0.0530  0.7377  0.3375
 1752SOL     OW 5544   2.908   4.262   4.061 -0.3361 -0.0622 -0.3788
 1752SOL    HW1 5545   2.960   4.244   4.144 -2.3646  2.2220  1.5597
 1752SOL    HW2 5546   2.952   4.218   3.983  3.2627  0.0403  1.4182
 1753SOL     OW 5547   5.436   0.030   0.976 -0.1012 -0.1064 -0.4164
 1753SOL    HW1 5548   5.401  -0.040   1.039 -0.4005  0.2522 -0.1745
 1753SOL    HW2 5549   5.392   0.117   0.997  2.3723  0.8722  1.2714
 1754SOL     OW 5550   1.580   3.810   3.427  0.5105  0.3349  0.0622
 1754SOL    HW1 5551   1.656   3.873   3.412  2.0268 -1.9176 -2.7232
 1754SOL    HW2 5552   1.603   3.747   3.501 -0.2453  1.7739  1.6040
 1755SOL     OW 5553   2.399   3.859   2.947  0.3582 -0.1668  0.1397
 1755SOL    HW1 5554   2.401   3.945   2.998  0.3846  0.0375 -0.2017
 1755SOL    HW2 5555   2.336   3.868   2.869  1.9450  0.2521 -1.1433
 1756SOL     OW 5556   0.015   4.859   4.160 -0.1378 -0.5085 -0.5027
 1756SOL    HW1 5557  -0.062   4.899   4.109  0.5609  0.4671 -0.8171
 1756SOL    HW2 5558   0.096   4.855   4.101  0.3455 -0.5368  0.1519
 1757SOL     OW 5559   0.199   5.132   0.867 -0.3336  0.3746  0.3927
 1757SOL    HW1 5560   0.117   5.118   0.922  0.3716 -1.1609  1.1166
 1757SOL    HW2 5561   0.277   5.091   0.914  0.4340 -0.3316 -1.4405
 1758SOL     OW 5562   2.098   4.789   2.937  0.6128  0.3349 -0.0258
 1758SOL    HW1 5563   2.078   4.746   3.026  0.5317  0.6972  0.1330
 1758SOL    HW2 5564   2.078   4.724   2.864  1.0246 -0.0930  0.2369
 1759SOL     OW 5565   0.993   2.933   2.210 -0.5848 -1.1291  0.0846
 1759SOL    HW1 5566   0.958   2.896   2.124 -0.0572 -2.2114  0.3085
 1759SOL    HW2 5567   0.919   2.975   2.262 -0.8154 -0.0225 -1.1045
 1760SOL     OW 5568   0.908   5.958   2.071 -0.8379 -0.0230 -0.3868
 1760SOL    HW1 5569   0.959   5.887   2.022 -1.3086  0.0816 -1.0373
 1760SOL    HW2 5570   0.856   5.916   2.145  1.2201  0.0308  1.1722
 1761SOL     OW 5571   5.330   3.431   4.745  0.1840  0.1082  0.2003
 1761SOL    HW1 5572   5.260   3.428   4.674 -0.6561  3.2727  0.7225
 1761SOL    HW2 5573   5.411   3.380   4.715 -1.9349 -2.9462 -0.7795
 1762SOL     OW 5574   2.554   4.507   2.460  0.0342  0.0264 -0.5232
 1762SOL    HW1 5575   2.610   4.515   2.542  0.3993 -0.8438 -0.6792
 1762SOL    HW2 5576   2.610   4.475   2.384 -0.3882  0.4356 -1.0150
 1763SOL     OW 5577   5.051   4.282   3.376 -0.3649  0.3606  0.2751
 1763SOL    HW1 5578   5.016   4.262   3.284 -0.0160 -1.0624  0.4268
 1763SOL    HW2 5579   4.989   4.244   3.444  0.0359  0.2812  0.5987
 1764SOL     OW 5580   1.852   4.934   3.906 -0.1853  0.4878  0.6517
 1764SOL    HW1 5581   1.935   4.959   3.856 -1.1330  1.4927 -0.4714
 1764SOL    HW2 5582   1.817   5.014   3.954  0.9179 -0.5200  3.3866
 1765SOL     OW 5583   4.319   5.404   1.846 -1.0385 -0.0444  0.4101
 1765SOL    HW1 5584   4.375   5.481   1.815 -0.9938 -0.4152 -0.4819
 1765SOL    HW2 5585   4.372   5.319   1.836 -1.8052 -0.4231 -0.6087
 1766SOL     OW 5586   2.179   4.000   3.658 -0.0457 -0.3726 -0.1685
 1766SOL    HW1 5587   2.085   4.033   3.648  0.0403 -0.2546 -0.6065
 1766SOL    HW2 5588   2.209   4.013   3.753 -1.3361 -2.7429  0.6456
 1767SOL     OW 5589   5.860   4.964   0.764  0.3850 -0.3044  0.3890
 1767SOL    HW1 5590   5.884   5.031   0.835  2.0007 -0.2079 -0.2177
 1767SOL    HW2 5591   5.931   4.894   0.758 -1.6752 -2.6682  1.6134
 1768SOL     OW 5592   5.740   5.522   3.865 -0.9388  0.2430 -0.0595
 1768SOL    HW1 5593   5.813   5.545   3.802 -1.9621 -1.1574 -1.8596
 1768SOL    HW2 5594   5.775   5.520   3.958  0.6078  2.4535 -0.5208
 1769SOL     OW 5595   5.169   4.492   3.526  0.0491  0.4022  0.8068
 1769SOL    HW1 5596   5.267   4.475   3.515  0.2014  0.3817  2.0901
 1769SOL    HW2 5597   5.117   4.425   3.473  0.7049 -0.8803  1.7298
 1770SOL     OW 5598   0.197   5.162   1.333 -0.2139  0.0376  0.4079
 1770SOL    HW1 5599   0.271   5.217   1.297 -0.0162 -0.8405 -0.5763
 1770SOL    HW2 5600   0.205   5.156   1.433 -0.0821  1.5174  0.5021
 1771SOL     OW 5601   1.076   3.370   2.816 -0.3705  0.3235  0.0194
 1771SOL    HW1 5602   1.022   3.428   2.755 -1.2364 -0.8045 -0.3028
 1771SOL    HW2 5603   1.114   3.293   2.765 -0.5169 -0.2476  0.7576
 1772SOL     OW 5604   5.447   2.511   3.718  0.2783 -0.2839  0.4892
 1772SOL    HW1 5605   5.527   2.566   3.744 -0.0291 -1.0860  3.4938
 1772SOL    HW2 5606   5.474   2.447   3.646  1.7304  0.9273 -0.1134
 1773SOL     OW 5607   0.667   0.743   1.933 -0.2269  0.1001  0.2450
 1773SOL    HW1 5608   0.698   0.831   1.968 -0.3232  0.1484  0.2065
 1773SOL    HW2 5609   0.569   0.746   1.915 -0.3148 -0.1463  0.6605
 1774SOL     OW 5610   0.415   5.566   4.424 -0.4127  0.3578 -0.3232
 1774SOL    HW1 5611   0.340   5.611   4.375 -1.0946 -0.0655  0.3104
 1774SOL    HW2 5612   0.415   5.468   4.403  0.2725  0.4302 -0.6985
 1775SOL     OW 5613   2.209   5.261   2.006 -0.1955  0.2367  0.1194
 1775SOL    HW1 5614   2.147   5.184   1.992 -3.9961  2.7246  1.6193
 1775SOL    HW2 5615   2.260   5.249   2.090 -0.7679 -0.6377  0.3454
 1776SOL     OW 5616   5.411   4.966   3.765 -0.5953  0.5417  0.5520
 1776SOL    HW1 5617   5.353   4.892   3.799 -2.0466  1.6855  0.6796
 1776SOL    HW2 5618   5.422   5.036   3.836 -0.3898  1.0919 -0.0051
 1777SOL     OW 5619   2.872   5.572   3.189  0.1647  0.0536 -0.8564
 1777SOL    HW1 5620   2.923   5.497   3.148  1.0674  0.3523 -0.2848
 1777SOL    HW2 5621   2.898   5.658   3.145 -0.0835  0.1695 -0.7808
 1778SOL     OW 5622   0.458   5.716   3.166  0.1642  0.3601 -0.5570
 1778SOL    HW1 5623   0.393   5.784   3.199  0.2276 -0.7067  2.0357
 1778SOL    HW2 5624   0.547   5.732   3.208  0.8966  0.2066 -1.9785
 1779SOL     OW 5625   1.762   4.027   3.294  0.0537  0.4837  0.4414
 1779SOL    HW1 5626   1.740   3.942   3.246 -0.6179  0.6779  0.3960
 1779SOL    HW2 5627   1.805   4.091   3.230  2.2426 -0.4551  0.8859
 1780SOL     OW 5628   0.607   3.070   1.626  0.4086  0.0791 -0.0453
 1780SOL    HW1 5629   0.519   3.036   1.593  0.9999 -2.4137  0.7354
 1780SOL    HW2 5630   0.681   3.029   1.574  1.2615 -2.1861  2.7070
 1781SOL     OW 5631   5.410   5.598   2.183 -0.3901  0.6139 -0.0136
 1781SOL    HW1 5632   5.445   5.529   2.246  0.7424  1.7043  0.5932
 1781SOL    HW2 5633   5.310   5.597   2.184 -0.4107 -1.2026 -0.2615
 1782SOL     OW 5634   2.700   4.793   3.528  0.2401 -0.1862  0.1241
 1782SOL    HW1 5635   2.676   4.750   3.442  2.1079 -1.1569  0.0411
 1782SOL    HW2 5636   2.628   4.775   3.596 -1.2330  0.5703 -1.1702
 1783SOL     OW 5637   0.519   3.878   1.971  0.4758  0.3735  0.0902
 1783SOL    HW1 5638   0.614   3.861   1.945  0.8852  1.2242  0.9729
 1783SOL    HW2 5639   0.501   3.977   1.971 -0.8850  0.1758 -1.6461
 1784SOL     OW 5640   1.162   5.803   1.020 -0.5007  0.4993 -0.2668
 1784SOL    HW1 5641   1.247   5.758   1.047 -0.4109  1.3844  0.9948
 1784SOL    HW2 5642   1.103   5.812   1.099 -1.8966 -0.3024 -1.1725
 1785SOL     OW 5643   2.497   4.573   3.922 -0.2389  0.1032 -0.0048
 1785SOL    HW1 5644   2.510   4.474   3.920 -0.7835  0.0082 -2.6160
 1785SOL    HW2 5645   2.399   4.593   3.925 -0.1818  0.5105 -0.5808
 1786SOL     OW 5646   1.239   3.775   2.655  0.2171 -0.5417  0.2387
 1786SOL    HW1 5647   1.154   3.806   2.612 -0.2396 -0.1062  1.3978
 1786SOL    HW2 5648   1.233   3.790   2.754  2.1721  0.7657  0.2288
 1787SOL     OW 5649   2.847   4.465   1.576 -0.4341 -0.2628  0.0762
 1787SOL    HW1 5650   2.755   4.437   1.605 -0.4102 -0.8877 -0.4152
 1787SOL    HW2 5651   2.904   4.384   1.565  0.5959  0.2135  1.7043
 1788SOL     OW 5652   1.554   5.624   2.873  0.0549  0.4700  0.1026
 1788SOL    HW1 5653   1.612   5.563   2.819  0.5358  1.3380 -0.3726
 1788SOL    HW2 5654   1.601   5.711   2.889 -1.3289  1.4254 -0.8088
 1789SOL     OW 5655   2.293   0.806   3.842 -0.2013 -0.2153  0.1448
 1789SOL    HW1 5656   2.260   0.756   3.762  1.5010 -0.2834 -0.5536
 1789SOL    HW2 5657   2.319   0.742   3.914  2.5907 -0.4870 -0.9856
 1790SOL     OW 5658   2.009   5.243   2.880 -0.3372  0.1946  0.3335
 1790SOL    HW1 5659   2.018   5.290   2.792 -1.0877  0.4624  0.3918
 1790SOL    HW2 5660   2.067   5.161   2.880 -0.8919 -0.2149 -0.6981
 1791SOL     OW 5661   0.422   4.268   2.369  0.8873  0.5586 -0.5832
 1791SOL    HW1 5662   0.415   4.281   2.271  0.1513  1.0225 -0.4751
 1791SOL    HW2 5663   0.438   4.171   2.389  2.1073  0.6103 -1.1962
 1792SOL     OW 5664   2.004   2.947   4.067 -0.2622  0.0071  0.1099
 1792SOL    HW1 5665   2.045   3.025   4.020  1.7075 -1.2248 -0.3700
 1792SOL    HW2 5666   1.934   2.978   4.130 -0.2485  2.0496 -0.8161
 1793SOL     OW 5667   0.410   4.416   1.509  0.5411 -0.1203  0.1019
 1793SOL    HW1 5668   0.421   4.322   1.477  2.5049  0.5426 -1.4179
 1793SOL    HW2 5669   0.411   4.478   1.431 -1.3382  1.1691  1.0261
 1794SOL     OW 5670   0.363   4.066   1.450 -0.0322  0.4812 -0.0223
 1794SOL    HW1 5671   0.299   4.138   1.425 -0.9138 -0.1587  0.3270
 1794SOL    HW2 5672   0.312   3.987   1.484  0.8560 -0.6750 -1.2801
 1795SOL     OW 5673   1.573   5.144   3.234  0.2471  0.0114  0.4200
 1795SOL    HW1 5674   1.649   5.104   3.183  0.2391 -0.4640  0.7714
 1795SOL    HW2 5675   1.560   5.239   3.206  1.4175  0.3144  0.8334
 1796SOL     OW 5676   5.642   0.613   0.397  0.6615  0.1621 -0.3449
 1796SOL    HW1 5677   5.613   0.647   0.486 -0.6952 -1.0874 -0.2625
 1796SOL    HW2 5678   5.666   0.690   0.338 -0.5056  1.1485  0.4171
 1797SOL     OW 5679   1.672   3.230   2.040  0.1711 -0.2199 -0.0790
 1797SOL    HW1 5680   1.682   3.313   2.096 -1.4193 -1.1001  1.6334
 1797SOL    HW2 5681   1.632   3.254   1.952 -0.9176  0.7971  0.6597
 1798SOL     OW 5682   0.292   4.045   3.077  0.1663  0.1646 -0.3668
 1798SOL    HW1 5683   0.358   4.088   3.016  0.1766 -0.4603 -0.8015
 1798SOL    HW2 5684   0.230   3.987   3.024  1.1043 -1.5711  0.3603
 1799SOL     OW 5685   1.920   3.702   3.312  0.6576  0.6878 -0.0120
 1799SOL    HW1 5686   1.909   3.676   3.408 -0.3928  2.9803  0.5457
 1799SOL    HW2 5687   2.011   3.743   3.299  0.4553  1.2248  0.2313
 1800SOL     OW 5688   2.120   5.930   3.175  0.1378  0.0432  0.0186
 1800SOL    HW1 5689   2.020   5.922   3.171 -0.0462  1.7466  0.3123
 1800SOL    HW2 5690   2.158   5.907   3.085 -0.1897 -3.5782  0.6663
 1801SOL     OW 5691   2.326   4.821   0.528 -1.0878 -0.3463  0.3727
 1801SOL    HW1 5692   2.403   4.798   0.588 -1.2552  0.6094  0.9788
 1801SOL    HW2 5693   2.343   4.783   0.437  0.2009  0.0049  0.4391
 1802SOL     OW 5694   1.587   4.653   0.944 -0.1553 -0.7986  0.1927
 1802SOL    HW1 5695   1.630   4.563   0.938  0.2160 -0.5023 -2.5394
 1802SOL    HW2 5696   1.521   4.663   0.870 -1.7214  0.4489  1.6846
 1803SOL     OW 5697   1.380   4.333   2.141 -0.2633 -0.3148  0.6656
 1803SOL    HW1 5698   1.376   4.346   2.042 -0.7255 -1.5864  0.5062
 1803SOL    HW2 5699   1.342   4.244   2.165  0.0022 -0.0949  1.9787
 1804SOL     OW 5700   0.290   5.113   2.421  0.3267 -0.2529 -0.3121
 1804SOL    HW1 5701   0.384   5.133   2.394  1.1492 -2.4075  0.7359
 1804SOL    HW2 5702   0.249   5.050   2.355  0.0864 -0.3624 -0.0597
 1805SOL     OW 5703   5.848   5.865   3.538 -0.0783  0.4760  0.1774
 1805SOL    HW1 5704   5.878   5.810   3.460 -1.8412  2.5239 -2.0927
 1805SOL    HW2 5705   5.912   5.853   3.614  1.6649 -1.7023 -1.5035
 1806SOL     OW 5706   5.366   3.345   3.860  0.2491 -0.3871  0.0638
 1806SOL    HW1 5707   5.317   3.291   3.792 -0.3250  0.4027 -0.1629
 1806SOL    HW2 5708   5.342   3.441   3.850  0.3396 -0.2274  1.2338
 1807SOL     OW 5709   1.495   3.586   4.331 -0.1164 -0.4370  0.1458
 1807SOL    HW1 5710   1.542   3.581   4.242  0.9489 -0.2618  0.6818
 1807SOL    HW2 5711   1.433   3.664   4.332  0.3065 -0.0917 -0.2417
 1808SOL     OW 5712   5.461   4.261   4.862  0.4418 -0.6387  0.1329
 1808SOL    HW1 5713   5.396   4.220   4.799  0.7275 -1.9563  0.6648
 1808SOL    HW2 5714   5.554   4.247   4.828  0.5851 -1.1362  0.6959
 1809SOL     OW 5715   1.379   4.655   5.255 -0.0915  0.2350  0.0169
 1809SOL    HW1 5716   1.337   4.588   5.194  1.4551 -1.4104  0.6774
 1809SOL    HW2 5717   1.311   4.689   5.320 -1.0119 -0.2997 -0.6447
 1810SOL     OW 5718   0.836   4.670   4.257  0.4920 -0.0672 -0.1054
 1810SOL    HW1 5719   0.924   4.634   4.287 -0.0831 -0.7782  0.7823
 1810SOL    HW2 5720   0.847   4.764   4.224  1.4179  0.1845  0.8803
 1811SOL     OW 5721   1.714   3.431   2.275 -0.5563 -0.1649  0.0228
 1811SOL    HW1 5722   1.735   3.416   2.371  0.7829  0.4744 -0.1393
 1811SOL    HW2 5723   1.665   3.518   2.265 -1.1719 -0.4919  0.1734
 1812SOL     OW 5724   2.985   0.397   5.813 -0.1724  0.0881 -0.5240
 1812SOL    HW1 5725   2.889   0.401   5.784 -0.7273 -1.3221  0.9502
 1812SOL    HW2 5726   3.005   0.305   5.847  1.3480  0.7217  0.3793
 1813SOL     OW 5727   1.299   3.759   4.254 -0.4965 -0.0629  0.6894
 1813SOL    HW1 5728   1.283   3.855   4.275 -2.7360 -0.3256  0.4272
 1813SOL    HW2 5729   1.211   3.712   4.246  0.3300 -1.2697 -3.2150
 1814SOL     OW 5730   1.205   3.893   4.572  0.0665 -0.5847  0.1148
 1814SOL    HW1 5731   1.197   3.930   4.479 -0.1168 -1.0129 -0.0398
 1814SOL    HW2 5732   1.115   3.891   4.615  0.1476 -0.4112  0.2952
 1815SOL     OW 5733   2.967   2.809   4.899  0.3257 -0.0461 -0.4321
 1815SOL    HW1 5734   2.889   2.754   4.928  0.2838  1.2837  2.2400
 1815SOL    HW2 5735   2.951   2.845   4.807 -1.6397 -0.7825 -0.4110
 1816SOL     OW 5736   5.901   3.608   5.024  0.3462 -0.2301 -0.2271
 1816SOL    HW1 5737   5.866   3.646   5.110  0.1852 -0.6192 -0.1176
 1816SOL    HW2 5738   5.827   3.603   4.958  0.3246 -0.5226 -0.1814
 1817SOL     OW 5739   1.692   4.332   5.831  0.2301  0.4044  0.2833
 1817SOL    HW1 5740   1.686   4.430   5.849  0.5693  0.2293  1.3903
 1817SOL    HW2 5741   1.604   4.298   5.799 -0.0653  0.9487  0.5172
 1818SOL     OW 5742   2.619   2.522   4.219 -0.4505 -0.0795 -0.6776
 1818SOL    HW1 5743   2.636   2.619   4.234  1.4910 -0.0936 -2.2772
 1818SOL    HW2 5744   2.622   2.503   4.121 -0.3763 -1.8305 -0.3594
 1819SOL     OW 5745   5.655   3.795   0.315  0.5539  0.0683  0.2815
 1819SOL    HW1 5746   5.692   3.715   0.267 -0.9053 -0.5873  0.2118
 1819SOL    HW2 5747   5.652   3.872   0.252 -2.1903 -1.0161 -1.0720
 1820SOL     OW 5748   3.016   5.528   4.515 -0.7588 -0.5269 -0.3071
 1820SOL    HW1 5749   3.094   5.531   4.578 -2.6350  1.1017  2.1151
 1820SOL    HW2 5750   3.045   5.561   4.425  0.6305  4.0960  1.5305
 1821SOL     OW 5751   1.040   3.496   3.069  0.2172  0.0094 -0.0124
 1821SOL    HW1 5752   1.034   3.445   2.983 -0.1432 -1.1816  0.6922
 1821SOL    HW2 5753   1.015   3.591   3.053  0.1860 -0.1861 -1.2284
 1822SOL     OW 5754   0.557   3.687   5.250  0.1928  0.5688  0.6327
 1822SOL    HW1 5755   0.628   3.726   5.309  1.2122  0.2961 -0.3935
 1822SOL    HW2 5756   0.475   3.744   5.255  0.6709  1.2083  1.3995
 1823SOL     OW 5757   2.562   3.937   3.793  0.0554  0.1968 -0.0974
 1823SOL    HW1 5758   2.467   3.965   3.788 -0.3852 -1.2042 -0.2083
 1823SOL    HW2 5759   2.622   4.013   3.769 -1.0462  1.0102 -0.3044
 1824SOL     OW 5760   0.055   3.924   3.587  0.0356 -0.3444 -0.0881
 1824SOL    HW1 5761   0.041   4.023   3.594  0.0840 -0.4280  1.4224
 1824SOL    HW2 5762   0.031   3.881   3.674  2.0874 -1.4152 -0.0172
 1825SOL     OW 5763   0.706   4.064   4.242 -0.3511 -0.5103 -0.6960
 1825SOL    HW1 5764   0.633   4.028   4.184 -0.1567 -0.4508 -0.9771
 1825SOL    HW2 5765   0.770   3.992   4.264 -0.5108 -0.5707 -0.4185
 1826SOL     OW 5766   0.202   5.338   3.563  0.1692  0.5365 -0.2378
 1826SOL    HW1 5767   0.143   5.286   3.501  0.8888  0.8650 -1.2404
 1826SOL    HW2 5768   0.266   5.276   3.609 -2.8059 -0.3056  3.2114
 1827SOL     OW 5769   1.693   4.004   4.057  0.3709  0.2922 -0.4919
 1827SOL    HW1 5770   1.779   4.035   4.097 -0.5578 -0.8861  2.7478
 1827SOL    HW2 5771   1.706   3.984   3.960  3.1533  2.1422 -0.6080
 1828SOL     OW 5772   1.302   5.456   3.297 -0.4226  0.1744 -0.5541
 1828SOL    HW1 5773   1.388   5.507   3.299 -0.7476  0.7775 -1.2377
 1828SOL    HW2 5774   1.298   5.394   3.376  1.2053 -0.8347 -1.2115
 1829SOL     OW 5775   3.365   0.059   3.234 -0.1330 -0.6303  0.1332
 1829SOL    HW1 5776   3.316  -0.010   3.181 -1.2457  0.6121 -0.5027
 1829SOL    HW2 5777   3.387   0.137   3.176 -0.3595  0.2725  1.2171
 1830SOL     OW 5778   0.265   5.881   3.291  0.7537  0.4400 -0.2534
 1830SOL    HW1 5779   0.173   5.864   3.255 -0.3508  2.3252  1.4472
 1830SOL    HW2 5780   0.272   5.977   3.319  3.3230  0.3732 -0.4787
 1831SOL     OW 5781   1.460   5.149   4.368  0.8578 -0.2708  0.6303
 1831SOL    HW1 5782   1.512   5.233   4.386  0.4538 -0.1334  1.1663
 1831SOL    HW2 5783   1.371   5.154   4.414  0.1798 -0.3167 -0.6395
 1832SOL     OW 5784   1.081   4.639   4.349  0.4083  0.3559 -0.0789
 1832SOL    HW1 5785   1.166   4.589   4.367  0.9481  0.7349 -1.4804
 1832SOL    HW2 5786   1.064   4.702   4.424  0.0327 -1.4503  1.4381
 1833SOL     OW 5787   2.213   4.887   4.509  0.4665 -0.2314  0.1211
 1833SOL    HW1 5788   2.235   4.835   4.426  2.5205  2.0161 -0.8483
 1833SOL    HW2 5789   2.124   4.930   4.498  0.7155  0.0585 -0.9762
 1834SOL     OW 5790   5.497   5.161   3.956 -0.0394  0.3657  0.0879
 1834SOL    HW1 5791   5.478   5.259   3.949  0.8386  0.4999 -0.5052
 1834SOL    HW2 5792   5.594   5.144   3.943  0.0776 -0.4450  1.7985
 1835SOL     OW 5793   1.786   5.180   4.703  0.3207 -0.2720 -0.4755
 1835SOL    HW1 5794   1.859   5.119   4.733 -0.2458 -0.0528  1.4588
 1835SOL    HW2 5795   1.770   5.167   4.605  2.4380 -0.8395 -0.8066
 1836SOL     OW 5796   1.558   4.280   4.074 -0.3671 -0.1669 -0.6750
 1836SOL    HW1 5797   1.629   4.233   4.126 -0.7231  0.8156  0.7404
 1836SOL    HW2 5798   1.552   4.375   4.104  0.3882  0.8982 -3.5147
 1837SOL     OW 5799   1.723   4.733   4.128  0.2902  0.2204  0.3589
 1837SOL    HW1 5800   1.630   4.742   4.092  0.7435  3.3957 -0.3392
 1837SOL    HW2 5801   1.778   4.680   4.063 -1.0197 -1.8627  0.8753
 1838SOL     OW 5802   0.547   3.708   4.304  0.1487  0.1827 -0.0443
 1838SOL    HW1 5803   0.518   3.755   4.221  0.3004  3.0997  1.4373
 1838SOL    HW2 5804   0.468   3.691   4.362 -0.1176 -2.7621 -1.0650
 1839SOL     OW 5805   1.535   5.115   5.753  0.0506 -0.4119 -0.8380
 1839SOL    HW1 5806   1.616   5.136   5.698 -0.2927 -0.9363 -1.5596
 1839SOL    HW2 5807   1.516   5.191   5.815  1.4404 -0.5270 -0.2350
 1840SOL     OW 5808   0.547   2.755   5.079  0.5531 -0.1772  0.0106
 1840SOL    HW1 5809   0.585   2.819   5.012  1.3687 -1.2819 -0.6224
 1840SOL    HW2 5810   0.527   2.668   5.034  1.5809 -1.1093  1.2893
 1841SOL     OW 5811   3.237   0.167   4.815 -0.4303 -0.1052 -0.1269
 1841SOL    HW1 5812   3.294   0.202   4.889 -0.5352  0.4236 -0.2879
 1841SOL    HW2 5813   3.229   0.068   4.823 -0.1103 -0.0993  0.3328
 1842SOL     OW 5814   3.933   4.627   3.210  0.2363  0.0922 -0.4144
 1842SOL    HW1 5815   4.026   4.591   3.206  0.1437 -0.0724 -1.3198
 1842SOL    HW2 5816   3.912   4.674   3.124  0.4798  2.6486  0.8295
 1843SOL     OW 5817   0.397   3.159   3.793 -0.2790  0.0099  0.2710
 1843SOL    HW1 5818   0.390   3.061   3.779  0.9864 -0.0401 -0.1044
 1843SOL    HW2 5819   0.334   3.206   3.731 -0.9465 -0.5553  0.5127
 1844SOL     OW 5820   3.348   3.607   3.945  0.0758  0.1801  0.0718
 1844SOL    HW1 5821   3.429   3.550   3.934  0.9407  1.5190 -0.6478
 1844SOL    HW2 5822   3.365   3.698   3.907 -1.8378  0.4214 -0.3161
 1845SOL     OW 5823   2.144   4.368   3.802 -0.3950  0.0568 -0.0235
 1845SOL    HW1 5824   2.215   4.322   3.855 -0.6942 -0.1594  0.1894
 1845SOL    HW2 5825   2.186   4.437   3.743  0.2202 -1.2742 -1.2303
 1846SOL     OW 5826   0.263   3.205   2.678  0.0481  0.8041 -0.3093
 1846SOL    HW1 5827   0.226   3.269   2.610 -1.0748 -1.2529 -1.7164
 1846SOL    HW2 5828   0.212   3.120   2.675  3.8761 -1.7014 -1.2845
 1847SOL     OW 5829   1.415   2.600   5.134  0.2101 -0.1316 -0.3263
 1847SOL    HW1 5830   1.507   2.561   5.126  0.7708  1.1704 -0.4747
 1847SOL    HW2 5831   1.389   2.603   5.230 -0.0610 -1.3291 -0.3484
 1848SOL     OW 5832   0.646   5.044   3.718  0.1717  0.1730  0.4234
 1848SOL    HW1 5833   0.687   5.070   3.805 -0.3495  1.7466  0.2266
 1848SOL    HW2 5834   0.704   5.074   3.643 -1.3471  2.6400  0.1360
 1849SOL     OW 5835   5.219   2.902   1.324  0.5749 -0.0076 -0.4002
 1849SOL    HW1 5836   5.170   2.816   1.342  1.1119 -0.7668 -2.2619
 1849SOL    HW2 5837   5.316   2.889   1.343  0.4487  0.6736  0.7561
 1850SOL     OW 5838   3.864   5.159   4.489 -0.1576 -0.1841  0.1859
 1850SOL    HW1 5839   3.914   5.079   4.458  0.4788 -1.1509  3.3431
 1850SOL    HW2 5840   3.802   5.190   4.417  0.8632 -2.4042 -1.7684
 1851SOL     OW 5841  -0.005   3.949   3.193  0.0258 -0.6093 -0.0170
 1851SOL    HW1 5842  -0.021   3.851   3.184  0.9662 -1.0041  2.0047
 1851SOL    HW2 5843   0.079   3.964   3.245 -0.6017  1.2499  0.5390
 1852SOL     OW 5844   5.530   5.413   5.745  0.4512  0.4768 -0.0640
 1852SOL    HW1 5845   5.544   5.345   5.817 -0.0423  0.3454 -0.0827
 1852SOL    HW2 5846   5.433   5.439   5.743  0.5409  0.7985 -0.3991
 1853SOL     OW 5847   1.747   5.777   2.436  0.0976  0.7283  0.3749
 1853SOL    HW1 5848   1.718   5.835   2.360  2.4576 -1.2974 -2.2843
 1853SOL    HW2 5849   1.669   5.725   2.471 -1.2996  2.7066  0.3516
 1854SOL     OW 5850   1.807   3.748   0.508  0.7885 -0.0359  0.3726
 1854SOL    HW1 5851   1.764   3.815   0.448 -0.4818 -1.7474 -0.7008
 1854SOL    HW2 5852   1.899   3.728   0.475 -0.7133 -2.8005 -2.7238
 1855SOL     OW 5853   1.890   4.867   2.615  0.2917  0.0406  0.0683
 1855SOL    HW1 5854   1.858   4.837   2.705 -0.4004 -0.7464 -0.4346
 1855SOL    HW2 5855   1.910   4.965   2.618  0.9455 -0.1175  1.2628
 1856SOL     OW 5856   1.353   3.744   4.798 -0.0255 -0.1433 -0.2879
 1856SOL    HW1 5857   1.278   3.702   4.849 -1.1371 -0.1321 -1.8381
 1856SOL    HW2 5858   1.317   3.815   4.738  1.3312  0.3147 -0.6114
 1857SOL     OW 5859   1.352   4.312   4.974 -0.5017 -0.0982 -0.3696
 1857SOL    HW1 5860   1.348   4.227   4.921  0.2315 -0.7835  0.6158
 1857SOL    HW2 5861   1.447   4.344   4.978 -0.3766 -0.5713  1.2411
 1858SOL     OW 5862   1.538   0.596   4.570  0.6312  0.6296  0.2185
 1858SOL    HW1 5863   1.525   0.641   4.658  3.0002  0.9662  0.4610
 1858SOL    HW2 5864   1.450   0.589   4.523 -0.5691  1.1217  2.2587
 1859SOL     OW 5865   2.250   5.265   5.513  0.4683  0.7620 -0.4469
 1859SOL    HW1 5866   2.230   5.298   5.605  2.1392 -0.0151  0.2439
 1859SOL    HW2 5867   2.349   5.250   5.504  0.1910 -0.4134 -1.9253
 1860SOL     OW 5868   1.558   4.812   5.116 -0.2882  0.0425 -0.6314
 1860SOL    HW1 5869   1.547   4.750   5.038 -2.9556  1.7026 -1.7128
 1860SOL    HW2 5870   1.480   4.803   5.177  0.3947  0.7798  0.3874
 1861SOL     OW 5871   0.748   0.335   5.886  0.7154 -0.0963  0.3554
 1861SOL    HW1 5872   0.668   0.285   5.919  0.8605  1.1268  2.7248
 1861SOL    HW2 5873   0.726   0.380   5.799 -1.4017  0.7343  1.2707
 1862SOL     OW 5874   2.248   5.298   4.738  0.5042 -0.0154  0.4916
 1862SOL    HW1 5875   2.202   5.375   4.695 -0.8162  0.3540  2.4596
 1862SOL    HW2 5876   2.303   5.330   4.815  2.1525 -0.7623 -0.2996
 1863SOL     OW 5877   5.942   4.785   4.578 -0.6806  0.7140  0.2324
 1863SOL    HW1 5878   5.901   4.735   4.501 -0.7337 -0.2698  0.8779
 1863SOL    HW2 5879   5.911   4.744   4.664  0.8671  0.5830  0.7611
 1864SOL     OW 5880   2.784   5.623   5.011  0.2081  0.0947  0.5901
 1864SOL    HW1 5881   2.714   5.553   5.021 -0.5698  0.4327 -1.8770
 1864SOL    HW2 5882   2.766   5.697   5.077 -0.6892 -0.6599  1.2146
 1865SOL     OW 5883   5.112   4.810   3.054 -0.5042  0.5692 -0.0906
 1865SOL    HW1 5884   5.177   4.759   2.998  0.2162  1.5542 -0.1824
 1865SOL    HW2 5885   5.162   4.874   3.113 -0.9836 -2.0417  3.5085
 1866SOL     OW 5886   1.070   4.859   3.967 -0.3001 -0.2043  0.2971
 1866SOL    HW1 5887   1.120   4.785   4.011 -1.3468 -0.7821  0.5566
 1866SOL    HW2 5888   0.991   4.884   4.023 -2.3791 -1.7739 -1.7019
 1867SOL     OW 5889   0.658   4.754   3.595  0.4798  0.5772 -0.8031
 1867SOL    HW1 5890   0.740   4.772   3.540  1.0737  2.3953  0.5977
 1867SOL    HW2 5891   0.623   4.839   3.632 -0.4003 -0.4894  0.9553
 1868SOL     OW 5892   0.205   3.911   4.464 -0.5239  0.1724 -0.2827
 1868SOL    HW1 5893   0.154   3.975   4.406 -1.1658 -0.6884 -0.6962
 1868SOL    HW2 5894   0.159   3.903   4.553 -1.7802 -1.4202 -1.0305
 1869SOL     OW 5895   1.613   0.294   3.922 -0.0299  0.0477  0.3468
 1869SOL    HW1 5896   1.515   0.278   3.917  0.1771 -0.9770 -0.8615
 1869SOL    HW2 5897   1.645   0.334   3.836  0.5800  0.6809  0.8489
 1870SOL     OW 5898   1.492   4.882   5.873 -0.4168  0.1032 -0.2726
 1870SOL    HW1 5899   1.454   4.906   5.963 -1.0473 -0.0909 -0.4795
 1870SOL    HW2 5900   1.521   4.965   5.826  2.1623  0.0607  1.0504
 1871SOL     OW 5901   1.208   4.370   3.983  0.3593 -0.5976  0.4093
 1871SOL    HW1 5902   1.164   4.325   4.060  0.8076 -2.6520 -0.4546
 1871SOL    HW2 5903   1.285   4.313   3.951  0.9700  0.8136 -0.7554
 1872SOL     OW 5904   1.460   1.149   5.076  0.2513 -0.1938  0.5278
 1872SOL    HW1 5905   1.362   1.162   5.091  0.5531 -0.7672  3.6398
 1872SOL    HW2 5906   1.511   1.221   5.124  1.3948 -0.3672 -0.3866
 1873SOL     OW 5907   1.712   2.691   2.496  0.2104 -0.2785  0.0298
 1873SOL    HW1 5908   1.717   2.701   2.397 -0.9254  1.7234  0.1156
 1873SOL    HW2 5909   1.803   2.704   2.535  0.2464  1.9072 -0.6054
 1874SOL     OW 5910   5.431   4.543   5.851  0.3039  0.6673 -0.1132
 1874SOL    HW1 5911   5.355   4.489   5.813 -0.3499  1.4401  0.0671
 1874SOL    HW2 5912   5.395   4.628   5.891  1.0186  0.1429  1.7618
 1875SOL     OW 5913   0.543   4.676   5.726  0.0430 -0.1823  0.0365
 1875SOL    HW1 5914   0.471   4.633   5.672  0.1775 -0.5919  0.1764
 1875SOL    HW2 5915   0.502   4.729   5.800 -0.1049 -1.6966  1.0873
 1876SOL     OW 5916   0.603   3.091   4.539  0.3001 -0.2387  0.3529
 1876SOL    HW1 5917   0.531   3.046   4.486  1.6357 -0.1301 -1.6694
 1876SOL    HW2 5918   0.638   3.169   4.487 -0.1498  1.5844  2.6191
 1877SOL     OW 5919   5.654   4.542   3.643 -0.4008  0.2687  0.1502
 1877SOL    HW1 5920   5.676   4.510   3.550  0.6926  0.5520  0.2963
 1877SOL    HW2 5921   5.576   4.604   3.639 -0.7304 -0.1786 -0.5054
 1878SOL     OW 5922   1.149   3.261   4.471  0.4195 -0.5613  0.1676
 1878SOL    HW1 5923   1.077   3.205   4.430  1.4231 -0.7494 -1.4497
 1878SOL    HW2 5924   1.211   3.201   4.524  0.9580 -0.8642 -0.7800
 1879SOL     OW 5925   0.353   3.259   4.344 -0.2835  0.3737 -0.1569
 1879SOL    HW1 5926   0.389   3.166   4.332  1.1543  0.7345  1.0141
 1879SOL    HW2 5927   0.253   3.255   4.350 -0.1841 -1.4366  2.0628
 1880SOL     OW 5928   3.014   2.932   4.081  0.1381  0.6606  0.2486
 1880SOL    HW1 5929   3.094   2.950   4.137  0.5186 -0.1502 -0.0227
 1880SOL    HW2 5930   3.039   2.933   3.984  0.1063 -0.8638  0.2021
 1881SOL     OW 5931   0.777   4.133   1.938  0.4635 -0.1795 -0.1965
 1881SOL    HW1 5932   0.799   4.037   1.953  1.5705  0.1978  0.7150
 1881SOL    HW2 5933   0.861   4.187   1.939  0.0231  0.6398 -2.1009
 1882SOL     OW 5934   0.606   3.396   3.404 -0.1377 -0.3731 -0.1408
 1882SOL    HW1 5935   0.548   3.476   3.421  1.6994  0.4388  3.2419
 1882SOL    HW2 5936   0.685   3.422   3.348 -0.1130 -0.0880  0.0284
 1883SOL     OW 5937   0.088   2.900   4.601 -0.4949  0.2423  0.2147
 1883SOL    HW1 5938   0.104   2.879   4.697 -0.1716  3.9709  1.1454
 1883SOL    HW2 5939  -0.008   2.883   4.578 -0.9725  0.8053  1.6856
 1884SOL     OW 5940   1.690   5.835   4.304 -0.3196  0.1875 -0.0233
 1884SOL    HW1 5941   1.776   5.814   4.350  0.2344 -0.2113 -1.1987
 1884SOL    HW2 5942   1.639   5.750   4.288  0.1295  0.1397 -1.3304
 1885SOL     OW 5943   1.642   5.808   3.802  0.4278 -0.1402 -0.1539
 1885SOL    HW1 5944   1.699   5.746   3.748  1.5809  1.5171 -0.9106
 1885SOL    HW2 5945   1.700   5.869   3.855 -0.6269  1.1478 -0.4261
 1886SOL     OW 5946   2.468   5.728   0.344 -0.6713  0.0607  0.3171
 1886SOL    HW1 5947   2.486   5.674   0.261  2.2205  1.7246 -0.3012
 1886SOL    HW2 5948   2.400   5.798   0.324 -0.0468  0.4102 -0.6875
 1887SOL     OW 5949   1.759   5.011   3.467 -0.6575  0.7173 -0.2308
 1887SOL    HW1 5950   1.816   4.987   3.388  0.4867 -1.9063  1.2561
 1887SOL    HW2 5951   1.791   5.097   3.506  1.9724 -0.3299  0.1489
 1888SOL     OW 5952   0.984   3.066   4.382 -0.0129  0.3392 -0.2994
 1888SOL    HW1 5953   0.954   3.002   4.453  0.4674 -1.7953 -1.8970
 1888SOL    HW2 5954   0.905   3.117   4.348 -0.3197  1.0646  1.3960
 1889SOL     OW 5955   0.992   4.366   4.784  0.2800  0.9175 -0.2512
 1889SOL    HW1 5956   1.041   4.294   4.734 -2.5198 -0.3945 -1.3287
 1889SOL    HW2 5957   0.987   4.342   4.881  0.3012  0.1878 -0.4225
 1890SOL     OW 5958   5.237   3.709   5.833 -0.3114  0.0721 -0.1781
 1890SOL    HW1 5959   5.142   3.678   5.830 -0.7887  1.3446  0.8210
 1890SOL    HW2 5960   5.262   3.748   5.744 -0.5122 -0.8299 -0.6403
 1891SOL     OW 5961   0.598   2.490   4.359 -0.0487 -0.2092 -0.5227
 1891SOL    HW1 5962   0.656   2.571   4.369  1.2803 -1.1963  0.1527
 1891SOL    HW2 5963   0.516   2.500   4.415  0.0702  0.6967 -0.5042
 1892SOL     OW 5964   2.350   5.616   2.525  0.0980 -0.2719 -0.2313
 1892SOL    HW1 5965   2.353   5.624   2.425 -0.3406  1.0882 -0.1478
 1892SOL    HW2 5966   2.275   5.672   2.561  1.4454  0.8073  1.0094
 1893SOL     OW 5967   0.969   3.584   5.278 -0.1839 -0.1097 -0.0620
 1893SOL    HW1 5968   0.961   3.670   5.327 -1.7383  0.6247 -1.5017
 1893SOL    HW2 5969   0.880   3.558   5.241  0.6198 -1.3957 -1.2078
 1894SOL     OW 5970   2.748   3.568   5.446  0.2903 -0.2086 -0.5108
 1894SOL    HW1 5971   2.738   3.538   5.540 -0.4204 -0.0288 -0.5253
 1894SOL    HW2 5972   2.745   3.668   5.442 -0.2420 -0.2330 -0.7840
 1895SOL     OW 5973   2.204   3.085   4.253 -0.3060 -0.1455 -0.3770
 1895SOL    HW1 5974   2.198   3.184   4.266  0.9009 -0.2291  1.1090
 1895SOL    HW2 5975   2.112   3.046   4.250 -0.7779  0.8755  0.3077
 1896SOL     OW 5976   2.641   5.215   3.053 -0.1522 -0.2105  0.4026
 1896SOL    HW1 5977   2.732   5.256   3.046 -0.4168  0.4544  0.7875
 1896SOL    HW2 5978   2.597   5.245   3.137 -1.3819  0.8230 -0.5608
 1897SOL     OW 5979   0.476   3.645   3.491 -0.4371 -0.1614  0.0112
 1897SOL    HW1 5980   0.463   3.744   3.491 -0.1387 -0.0862 -1.5061
 1897SOL    HW2 5981   0.467   3.609   3.584 -3.5045  0.8832  0.2230
 1898SOL     OW 5982   0.450   4.545   2.660 -0.4508  0.1916 -0.5012
 1898SOL    HW1 5983   0.527   4.517   2.602 -2.0116 -0.2489 -2.4714
 1898SOL    HW2 5984   0.485   4.598   2.738  2.2832 -3.6619  1.2372
 1899SOL     OW 5985   2.662   0.497   4.016  0.4036  0.0478  0.3440
 1899SOL    HW1 5986   2.669   0.541   3.927 -0.7795 -0.8486 -0.2200
 1899SOL    HW2 5987   2.730   0.424   4.022  2.3926  1.8485  1.2943
 1900SOL     OW 5988   1.642   4.339   5.031 -0.5228  0.3542 -0.0328
 1900SOL    HW1 5989   1.672   4.390   5.113 -0.1498 -0.7487  0.5378
 1900SOL    HW2 5990   1.715   4.277   5.002 -2.4250 -3.1436  1.9600
 1901SOL     OW 5991   0.582   5.694   5.738  0.1862  0.5309  0.1170
 1901SOL    HW1 5992   0.661   5.751   5.716  1.0297 -0.3561  0.7695
 1901SOL    HW2 5993   0.610   5.622   5.802 -0.3558 -1.8753 -2.1735
 1902SOL     OW 5994   1.833   4.387   3.478  0.3419  0.0191 -0.0427
 1902SOL    HW1 5995   1.876   4.330   3.548 -0.7220 -1.1796 -0.3298
 1902SOL    HW2 5996   1.734   4.388   3.492  0.1916  0.4361 -1.0496
 1903SOL     OW 5997   1.285   5.357   3.033  0.1579  0.4845  0.2260
 1903SOL    HW1 5998   1.282   5.390   3.127  2.1505 -0.4933  0.6657
 1903SOL    HW2 5999   1.293   5.258   3.032 -0.9951  0.3660 -1.0285
 1904SOL     OW 6000   2.482   2.522   4.969  0.1318  0.1926 -0.0848
 1904SOL    HW1 6001   2.402   2.566   4.928 -0.7144 -0.8314  0.4146
 1904SOL    HW2 6002   2.466   2.423   4.977  1.5355 -0.0607 -0.1640
 1905SOL     OW 6003   0.657   1.242   0.498  0.3870  0.0204 -0.2926
 1905SOL    HW1 6004   0.675   1.292   0.413 -2.0951 -0.2220 -1.0469
 1905SOL    HW2 6005   0.687   1.147   0.487 -0.7927 -0.2658 -1.3297
 1906SOL     OW 6006   0.315   3.921   3.500 -0.5026  0.1507 -0.2991
 1906SOL    HW1 6007   0.218   3.901   3.514 -0.3696 -2.7070 -2.4823
 1906SOL    HW2 6008   0.364   3.907   3.586 -1.6044 -1.7489  0.0912
 1907SOL     OW 6009   1.370   4.120   3.934 -0.5358 -0.0017 -0.0273
 1907SOL    HW1 6010   1.332   4.039   3.979 -1.1569  0.9565  1.2293
 1907SOL    HW2 6011   1.440   4.161   3.993  0.9885 -0.5351 -1.3859
 1908SOL     OW 6012   0.738   3.279   5.448 -0.1241  0.3526  0.1732
 1908SOL    HW1 6013   0.698   3.368   5.470  1.4870  1.2831 -0.5043
 1908SOL    HW2 6014   0.666   3.218   5.414 -1.5900  0.7628  2.3177
 1909SOL     OW 6015   0.393   5.719   4.066 -0.4271  0.5311  0.4342
 1909SOL    HW1 6016   0.363   5.753   4.155 -0.6658 -0.9341  0.9391
 1909SOL    HW2 6017   0.313   5.697   4.010 -0.3537 -1.0821  0.8875
 1910SOL     OW 6018   5.693   4.686   4.801  0.0482 -0.3586 -0.3491
 1910SOL    HW1 6019   5.723   4.613   4.740  1.0659 -0.7959  0.6376
 1910SOL    HW2 6020   5.772   4.726   4.847 -0.7773 -1.1020  1.8645
 1911SOL     OW 6021   0.653   4.112   3.610  0.1850 -0.1641 -0.1534
 1911SOL    HW1 6022   0.605   4.080   3.692 -0.1994  0.9824  0.0812
 1911SOL    HW2 6023   0.621   4.203   3.586  2.0361  0.5198 -0.1722
 1912SOL     OW 6024   4.278   4.821   3.062  0.0012 -0.2317  0.1878
 1912SOL    HW1 6025   4.259   4.746   3.126  2.6200  0.5788  2.1053
 1912SOL    HW2 6026   4.241   4.906   3.097 -0.6755 -0.1777 -0.6428
 1913SOL     OW 6027   2.243   5.790   3.507 -0.4179  0.2558  0.4284
 1913SOL    HW1 6028   2.148   5.821   3.508 -0.2091  0.9442 -0.2367
 1913SOL    HW2 6029   2.260   5.737   3.423  0.2845  1.8003 -0.4422
 1914SOL     OW 6030   1.962   4.085   4.270 -0.0580 -0.5922  0.3322
 1914SOL    HW1 6031   1.964   4.051   4.364 -0.8258  2.1358  1.4265
 1914SOL    HW2 6032   1.926   4.178   4.269  0.4280 -0.3436 -2.6363
 1915SOL     OW 6033   4.755   5.102   4.994 -0.2457  0.0006 -0.5704
 1915SOL    HW1 6034   4.665   5.077   4.959 -0.0972  1.8652 -2.4884
 1915SOL    HW2 6035   4.758   5.087   5.093 -2.7685  0.2112 -0.4073
 1916SOL     OW 6036   5.805   4.229   5.241 -0.0843 -0.0358 -0.3321
 1916SOL    HW1 6037   5.824   4.154   5.305  0.7491  0.4587  0.0189
 1916SOL    HW2 6038   5.813   4.197   5.147  1.3410 -0.1536 -0.1931
 1917SOL     OW 6039   3.440   4.614   4.958  0.1690  0.4532  0.2997
 1917SOL    HW1 6040   3.516   4.644   5.014  0.9266 -2.7205  1.1974
 1917SOL    HW2 6041   3.365   4.584   5.017  0.0390 -0.6770 -0.3999
 1918SOL     OW 6042   2.042   2.874   0.447  0.1521  0.3401  0.5161
 1918SOL    HW1 6043   2.136   2.842   0.443  0.7171  2.0498 -2.0891
 1918SOL    HW2 6044   2.006   2.859   0.539  2.1414 -2.4677  0.9859
 1919SOL     OW 6045   1.305   3.121   4.640  0.1714 -0.0315  0.4306
 1919SOL    HW1 6046   1.361   3.198   4.672 -0.4608  0.3675  0.6005
 1919SOL    HW2 6047   1.249   3.087   4.715 -1.5624  1.1233 -0.2875
 1920SOL     OW 6048   3.937   3.288   4.888 -0.3862  0.4418 -0.2308
 1920SOL    HW1 6049   3.858   3.340   4.856 -0.2451  0.5877 -0.3429
 1920SOL    HW2 6050   3.906   3.217   4.952 -0.6612  0.2058 -0.6165
 1921SOL     OW 6051   0.767   3.259   4.344 -0.0478 -0.8683  0.8103
 1921SOL    HW1 6052   0.780   3.256   4.245 -1.5308 -1.2178  0.5977
 1921SOL    HW2 6053   0.699   3.328   4.367 -0.0888 -1.1364  1.5317
 1922SOL     OW 6054   0.394   4.366   3.582  0.0410  0.3406  0.5108
 1922SOL    HW1 6055   0.477   4.421   3.577 -0.6184  1.3195 -0.0002
 1922SOL    HW2 6056   0.389   4.306   3.502  0.9016 -0.6963  1.2106
 1923SOL     OW 6057   1.385   5.207   5.039 -0.0294 -0.7198 -0.1277
 1923SOL    HW1 6058   1.291   5.186   5.014  0.2862 -2.2279 -0.1222
 1923SOL    HW2 6059   1.446   5.186   4.962  0.0088  3.8535 -1.6376
 1924SOL     OW 6060   3.430   3.451   4.949 -0.0315  0.0022  0.0201
 1924SOL    HW1 6061   3.465   3.536   4.910  0.3814 -0.1290  0.0930
 1924SOL    HW2 6062   3.407   3.387   4.876  3.0598 -1.1873 -0.0993
 1925SOL     OW 6063   5.011   0.288   4.022  0.1380 -0.2257  0.3244
 1925SOL    HW1 6064   5.085   0.334   4.072 -0.6112  1.8171 -0.3463
 1925SOL    HW2 6065   4.961   0.229   4.085  0.1435  1.1334  1.6653
 1926SOL     OW 6066   2.335   3.646   4.976  0.2067 -0.1145 -0.0515
 1926SOL    HW1 6067   2.348   3.548   4.994 -1.3690 -0.2502  0.5855
 1926SOL    HW2 6068   2.402   3.677   4.909  1.0822 -1.5038  0.1272
 1927SOL     OW 6069   0.728   4.274   2.798 -0.0503 -0.4514 -0.3484
 1927SOL    HW1 6070   0.822   4.258   2.770  0.8295  0.5598  1.7540
 1927SOL    HW2 6071   0.719   4.366   2.837 -1.7237 -0.7771  0.1615
 1928SOL     OW 6072   0.242   2.406   5.752  0.1590  0.4248  0.4566
 1928SOL    HW1 6073   0.325   2.360   5.721 -1.0095 -1.9673  0.6521
 1928SOL    HW2 6074   0.238   2.403   5.852 -0.8905 -0.9559  0.4081
 1929SOL     OW 6075   0.465   4.281   3.827 -0.3439  0.2456  0.1391
 1929SOL    HW1 6076   0.435   4.329   3.745  0.5619  0.8591  0.1533
 1929SOL    HW2 6077   0.504   4.347   3.892  0.3271 -0.4244  0.4313
 1930SOL     OW 6078   0.239   3.551   4.236  0.0872  0.3796 -0.4173
 1930SOL    HW1 6079   0.292   3.507   4.163 -0.6255  0.3859 -0.9422
 1930SOL    HW2 6080   0.143   3.525   4.229  0.0605  0.0708  0.7603
 1931SOL     OW 6081   0.462   3.263   0.254 -0.6939 -0.0117  0.3192
 1931SOL    HW1 6082   0.517   3.261   0.171  0.4710 -0.8178  1.0715
 1931SOL    HW2 6083   0.520   3.288   0.332 -1.9663  1.7757  0.7663
 1932SOL     OW 6084   5.150   4.853   5.881 -0.1295 -0.2923 -0.4545
 1932SOL    HW1 6085   5.217   4.810   5.942 -0.6475 -0.3314  0.1015
 1932SOL    HW2 6086   5.193   4.872   5.793  0.0876 -2.0528 -0.7746
 1933SOL     OW 6087   1.547   4.071   4.475  0.2932  0.2450  0.0014
 1933SOL    HW1 6088   1.552   3.989   4.419 -0.0722  0.5841 -0.5398
 1933SOL    HW2 6089   1.464   4.068   4.531  1.0251 -0.4355  1.0890
 1934SOL     OW 6090   2.781   4.421   3.427 -0.2502  0.3506  0.4017
 1934SOL    HW1 6091   2.693   4.467   3.412 -0.8079 -0.7945  0.0531
 1934SOL    HW2 6092   2.795   4.352   3.356  1.4803  1.2900 -0.2093
 1935SOL     OW 6093   2.020   4.242   4.830 -0.5194  0.1245  0.1818
 1935SOL    HW1 6094   1.966   4.170   4.874 -2.3842  0.4986 -1.3692
 1935SOL    HW2 6095   1.984   4.260   4.738  0.0967  2.7763  0.3706
 1936SOL     OW 6096   1.368   5.928   3.401 -0.2177 -0.2397  0.4541
 1936SOL    HW1 6097   1.348   5.838   3.439  0.0422  0.2089  1.7038
 1936SOL    HW2 6098   1.328   5.998   3.460  0.9534  0.5126  0.3838
 1937SOL     OW 6099   0.806   5.162   3.507 -0.1828  0.3373  0.5260
 1937SOL    HW1 6100   0.738   5.148   3.434 -1.4529 -1.6711  1.9992
 1937SOL    HW2 6101   0.897   5.143   3.471 -0.9078 -1.9933 -0.2611
 1938SOL     OW 6102   1.495   3.941   0.584  0.3063 -0.2259  0.6124
 1938SOL    HW1 6103   1.550   3.863   0.613 -1.3118 -1.4517  0.4778
 1938SOL    HW2 6104   1.401   3.930   0.615 -0.6367  0.2592 -1.8104
 1939SOL     OW 6105   1.412   3.310   4.850  0.1484  0.0652 -0.2386
 1939SOL    HW1 6106   1.322   3.351   4.864  0.1930  0.0686  0.0382
 1939SOL    HW2 6107   1.473   3.378   4.809  0.0431  0.0807 -0.3713
 1940SOL     OW 6108   0.203   0.303   4.336  0.2067  0.0319  0.5334
 1940SOL    HW1 6109   0.181   0.253   4.253  0.4036  0.3641  0.2785
 1940SOL    HW2 6110   0.135   0.282   4.407  0.9261 -1.4822  0.8098
 1941SOL     OW 6111   5.953   1.251   4.011  0.5414  0.3199  0.0330
 1941SOL    HW1 6112   5.919   1.247   3.917 -1.8714 -1.2885  0.8801
 1941SOL    HW2 6113   5.896   1.315   4.063  0.2295 -0.6829  0.9548
 1942SOL     OW 6114   0.752   5.408   5.362 -0.5470  0.4573 -0.0052
 1942SOL    HW1 6115   0.806   5.431   5.442 -0.2454 -0.9648  0.2243
 1942SOL    HW2 6116   0.809   5.362   5.294 -0.4695  2.8123 -1.6563
 1943SOL     OW 6117   0.845   4.272   4.323 -0.8050 -0.5966 -0.1474
 1943SOL    HW1 6118   0.792   4.195   4.288 -3.7158  0.8978  0.6713
 1943SOL    HW2 6119   0.834   4.279   4.422  0.5947  0.0577 -0.0080
 1944SOL     OW 6120   4.829   5.754   5.594 -0.4206  0.2281  0.2948
 1944SOL    HW1 6121   4.733   5.775   5.612 -0.9066 -2.4937  1.3420
 1944SOL    HW2 6122   4.863   5.693   5.665  1.6678 -0.0704 -0.8990
 1945SOL     OW 6123   5.875   4.963   0.448  0.4786  0.2689 -0.2069
 1945SOL    HW1 6124   5.832   5.052   0.467 -0.7254 -0.5164  0.8913
 1945SOL    HW2 6125   5.921   4.930   0.531 -0.3573 -0.8065 -0.1510
 1946SOL     OW 6126   2.644   4.581   5.514  0.7692  0.1909  0.2134
 1946SOL    HW1 6127   2.592   4.504   5.549  0.8325  0.4930  0.9906
 1946SOL    HW2 6128   2.729   4.548   5.473  0.1349 -0.2705 -0.7594
 1947SOL     OW 6129   0.954   3.800   5.439  0.7480  0.3114  0.0195
 1947SOL    HW1 6130   0.996   3.769   5.525  1.0096  0.6102  0.0015
 1947SOL    HW2 6131   0.990   3.890   5.415  0.6789  0.2278 -0.4062
 1948SOL     OW 6132   2.594   3.658   3.727  0.3531 -0.2276 -0.3109
 1948SOL    HW1 6133   2.594   3.750   3.767  1.1808 -0.3762  0.0399
 1948SOL    HW2 6134   2.678   3.644   3.675  0.4753 -0.9688  0.0714
 1949SOL     OW 6135   5.740   4.504   0.019 -0.3362 -0.4171  0.5537
 1949SOL    HW1 6136   5.698   4.593   0.035  0.2061 -0.2949  1.3463
 1949SOL    HW2 6137   5.696   4.435   0.077  1.2967 -0.0674  2.3073
 1950SOL     OW 6138   4.892   3.151   1.112 -0.5118 -1.1777  0.1435
 1950SOL    HW1 6139   4.860   3.219   1.178 -1.6186 -1.3792 -0.1693
 1950SOL    HW2 6140   4.987   3.126   1.134  0.2848  1.2009 -0.3622
 1951SOL     OW 6141   0.046   4.394   0.424  0.0733  0.4264  0.0221
 1951SOL    HW1 6142   0.056   4.347   0.511 -1.1520 -0.6077 -0.3538
 1951SOL    HW2 6143   0.134   4.396   0.376  0.1164 -1.9673 -0.1436
 1952SOL     OW 6144   0.345   0.494   3.790 -1.0549 -0.0925 -0.1976
 1952SOL    HW1 6145   0.326   0.549   3.871  0.4120 -2.2241  1.7191
 1952SOL    HW2 6146   0.285   0.414   3.789 -0.8753 -0.2298 -1.0961
 1953SOL     OW 6147   0.985   2.655   4.286 -0.3290  0.0473  0.1346
 1953SOL    HW1 6148   1.004   2.739   4.235  1.5429 -0.6977 -0.4941
 1953SOL    HW2 6149   1.045   2.650   4.365 -1.5442  0.0304  1.0793
 1954SOL     OW 6150   0.270   3.900   3.925 -0.6928  0.2587  0.4500
 1954SOL    HW1 6151   0.236   3.994   3.919 -2.2683 -0.3282 -4.0715
 1954SOL    HW2 6152   0.193   3.838   3.932  0.2008 -0.8107  1.0912
 1955SOL     OW 6153   3.425   0.312   3.510 -0.2265 -0.1919  0.3149
 1955SOL    HW1 6154   3.521   0.332   3.489  0.1549 -1.1635  1.0320
 1955SOL    HW2 6155   3.406   0.217   3.489 -0.3485 -0.6749  2.4109
 1956SOL     OW 6156   2.283   4.043   3.916  0.2002  0.5201  0.7348
 1956SOL    HW1 6157   2.316   4.138   3.912  0.1855  0.5007  0.1158
 1956SOL    HW2 6158   2.249   4.024   4.008 -0.4520  1.3366  0.6771
 1957SOL     OW 6159   2.409   4.586   4.437  0.0372 -0.2484  0.4220
 1957SOL    HW1 6160   2.405   4.558   4.533  0.2525 -1.0223  0.2101
 1957SOL    HW2 6161   2.484   4.539   4.392 -0.1529  0.0060 -0.1634
 1958SOL     OW 6162   5.024   5.158   4.244 -0.2443  0.0361 -0.0410
 1958SOL    HW1 6163   5.095   5.200   4.187 -1.3569  0.5880 -1.0503
 1958SOL    HW2 6164   5.027   5.058   4.233  0.9458 -0.0210  0.6295
 1959SOL     OW 6165   0.746   5.380   3.890 -0.1192  0.3079  0.2979
 1959SOL    HW1 6166   0.736   5.429   3.977 -2.4170 -4.3569  3.1222
 1959SOL    HW2 6167   0.667   5.400   3.831 -1.6555 -0.6582  1.9112
 1960SOL     OW 6168   1.453   2.428   4.648  0.8575  0.5363  0.3479
 1960SOL    HW1 6169   1.473   2.524   4.629  0.3138  0.6204  0.1902
 1960SOL    HW2 6170   1.481   2.406   4.742  2.4212  0.4353 -0.1062
 1961SOL     OW 6171   0.306   1.010   4.285  0.5671  0.3816 -0.2173
 1961SOL    HW1 6172   0.248   1.070   4.339  0.0455 -1.6950  1.7087
 1961SOL    HW2 6173   0.392   1.057   4.263 -0.1712  2.0964  0.4254
 1962SOL     OW 6174   2.559   4.666   4.776 -0.3077  0.0270 -0.2326
 1962SOL    HW1 6175   2.579   4.616   4.861  0.3328  0.4895 -0.0987
 1962SOL    HW2 6176   2.641   4.668   4.719 -0.6339  0.0313 -0.7063
 1963SOL     OW 6177   2.238   5.018   4.753  0.0388  0.1519  0.3446
 1963SOL    HW1 6178   2.232   5.118   4.750 -2.2313  0.1021  1.3994
 1963SOL    HW2 6179   2.234   4.982   4.660  2.1405  1.0349 -0.1522
 1964SOL     OW 6180   5.816   4.145   5.702  0.1692  0.0090 -0.3715
 1964SOL    HW1 6181   5.909   4.129   5.669  2.3377  2.0002  3.9205
 1964SOL    HW2 6182   5.798   4.243   5.706 -0.9214 -0.2173  1.6109
 1965SOL     OW 6183   2.156   5.811   2.497  0.2928 -0.2781 -0.5294
 1965SOL    HW1 6184   2.099   5.754   2.438 -1.8587  0.3768  0.8071
 1965SOL    HW2 6185   2.224   5.859   2.442  1.3508 -3.0600 -1.8528
 1966SOL     OW 6186   2.322   4.812   4.930 -0.4395  0.1390  0.0564
 1966SOL    HW1 6187   2.366   4.743   4.872  0.1494  2.3196 -2.2753
 1966SOL    HW2 6188   2.283   4.883   4.872 -0.3795  2.1680  2.3720
 1967SOL     OW 6189   3.033   4.014   3.164  0.1298  0.0985 -0.4874
 1967SOL    HW1 6190   3.066   3.946   3.229 -1.3890 -0.6698 -0.4624
 1967SOL    HW2 6191   3.108   4.073   3.135  1.0138 -0.1184  1.2694
 1968SOL     OW 6192   2.182   3.969   4.150 -0.0310  0.0635 -0.0577
 1968SOL    HW1 6193   2.239   3.922   4.217 -2.3212 -1.5642  0.8797
 1968SOL    HW2 6194   2.110   4.019   4.197  0.4307  1.9246 -1.2157
 1969SOL     OW 6195   2.666   5.373   4.537  0.5369  0.1087  0.0829
 1969SOL    HW1 6196   2.647   5.447   4.472  0.2690 -0.9838 -1.1439
 1969SOL    HW2 6197   2.626   5.396   4.626 -0.2173  1.0866 -0.4806
 1970SOL     OW 6198   5.152   4.530   3.784 -0.1067  0.2657  0.1223
 1970SOL    HW1 6199   5.199   4.616   3.805  1.3606 -0.6992  0.9443
 1970SOL    HW2 6200   5.171   4.504   3.689 -1.9244  1.6500 -0.6745
 1971SOL     OW 6201   1.978   3.420   3.242 -0.0731 -0.0629 -0.6867
 1971SOL    HW1 6202   1.996   3.509   3.284 -1.9171 -0.6641  1.5964
 1971SOL    HW2 6203   2.048   3.355   3.271 -0.8255 -0.2441  0.8135
 1972SOL     OW 6204   0.511   3.900   4.107  0.4463 -0.7944 -0.1679
 1972SOL    HW1 6205   0.561   3.949   4.036  0.6085  0.0705  0.5374
 1972SOL    HW2 6206   0.413   3.907   4.089  0.4895 -0.6526 -0.3510
 1973SOL     OW 6207   0.703   2.446   4.787 -0.1285  0.4781  0.1751
 1973SOL    HW1 6208   0.681   2.377   4.718  1.0370  1.2893 -1.0642
 1973SOL    HW2 6209   0.781   2.415   4.841 -0.6802  0.0960  0.7671
 1974SOL     OW 6210   0.652   3.191   5.132 -0.1115 -0.0533  0.4917
 1974SOL    HW1 6211   0.748   3.181   5.156 -0.0190  1.1872  0.7053
 1974SOL    HW2 6212   0.643   3.223   5.038 -0.2615  0.8866  0.8125
 1975SOL     OW 6213   5.789   4.352   1.098 -0.5025  0.1059  0.0936
 1975SOL    HW1 6214   5.888   4.367   1.087 -0.6437  0.3807 -0.9102
 1975SOL    HW2 6215   5.774   4.287   1.173  0.4696 -0.4052 -0.1285
 1976SOL     OW 6216   0.626   4.476   3.548  0.0744 -0.3108  0.0190
 1976SOL    HW1 6217   0.637   4.574   3.560  0.2377 -0.4141  0.7768
 1976SOL    HW2 6218   0.716   4.434   3.537 -0.0964 -0.0324 -3.4517
 1977SOL     OW 6219   5.664   3.986   4.283 -0.9247  0.3744  0.0393
 1977SOL    HW1 6220   5.715   3.947   4.360  0.5304  0.3275 -0.9214
 1977SOL    HW2 6221   5.566   3.986   4.305 -0.5524  0.2789  1.8452
 1978SOL     OW 6222   2.886   3.276   5.102 -0.4009  0.0782 -0.0558
 1978SOL    HW1 6223   2.913   3.181   5.111  0.1011  0.0522 -1.6033
 1978SOL    HW2 6224   2.881   3.318   5.193  0.9660 -0.9742  0.5437
 1979SOL     OW 6225   1.007   1.477   0.240 -0.4126 -0.1802  0.2997
 1979SOL    HW1 6226   1.091   1.531   0.227  0.2843 -0.9976  1.2399
 1979SOL    HW2 6227   0.932   1.537   0.264 -0.2859  0.6577 -1.2333
 1980SOL     OW 6228   5.192   1.056   4.705  0.1345  0.0014  0.0920
 1980SOL    HW1 6229   5.214   1.026   4.798 -0.1676 -1.5255 -0.3100
 1980SOL    HW2 6230   5.275   1.051   4.648  0.4227  1.3463  0.3575
 1981SOL     OW 6231   1.790   0.420   0.577 -0.2249 -0.3318 -0.1131
 1981SOL    HW1 6232   1.819   0.476   0.499 -0.7018  0.7901  0.4928
 1981SOL    HW2 6233   1.742   0.339   0.544 -0.1728 -0.0158 -0.9885
 1982SOL     OW 6234   0.944   4.376   5.055  0.4073  0.2956 -0.3204
 1982SOL    HW1 6235   0.942   4.309   5.129 -1.1477 -1.1761 -1.6006
 1982SOL    HW2 6236   0.873   4.444   5.068 -0.0418 -0.1194 -0.5854
 1983SOL     OW 6237   2.150   5.376   5.734  0.7998 -0.0987 -0.4494
 1983SOL    HW1 6238   2.078   5.327   5.783 -0.5850  1.2908 -1.0079
 1983SOL    HW2 6239   2.190   5.445   5.794 -0.4637  1.1763 -1.0107
 1984SOL     OW 6240   0.599   3.300   4.707  0.3414  0.0487  0.2607
 1984SOL    HW1 6241   0.593   3.210   4.663 -0.7710  0.7824 -1.1793
 1984SOL    HW2 6242   0.524   3.358   4.675  2.1317  2.1547 -0.3617
 1985SOL     OW 6243   0.800   3.804   4.243  0.2001  0.3235  0.4469
 1985SOL    HW1 6244   0.822   3.761   4.155  0.6013  1.3750  0.0084
 1985SOL    HW2 6245   0.703   3.790   4.264  0.6300 -2.1166  1.1057
 1986SOL     OW 6246   1.216   4.467   5.465  0.5161 -0.1108 -0.3701
 1986SOL    HW1 6247   1.305   4.444   5.427 -0.1175 -0.7123 -1.5597
 1986SOL    HW2 6248   1.185   4.393   5.524 -0.5245 -1.3907 -2.4102
 1987SOL     OW 6249   2.218   5.844   5.139  0.1926 -0.1276 -0.4216
 1987SOL    HW1 6250   2.313   5.847   5.107  0.6576  0.1553  0.9211
 1987SOL    HW2 6251   2.208   5.772   5.207 -0.4940  0.0023 -0.3773
 1988SOL     OW 6252   0.317   2.129   4.479 -0.2786 -0.0495 -0.2261
 1988SOL    HW1 6253   0.410   2.116   4.445 -0.0325  1.4463 -0.2167
 1988SOL    HW2 6254   0.262   2.047   4.460  0.4070 -0.0850 -2.3281
 1989SOL     OW 6255   2.040   3.282   4.588 -0.1329 -0.0460  0.6328
 1989SOL    HW1 6256   2.039   3.351   4.660 -0.1047  0.9092 -0.2470
 1989SOL    HW2 6257   2.022   3.326   4.500  2.2704 -0.7577 -0.2896
 1990SOL     OW 6258   3.441   5.525   0.026 -0.1392 -0.2860 -0.4948
 1990SOL    HW1 6259   3.360   5.471   0.003 -1.5049  0.9750  1.0989
 1990SOL    HW2 6260   3.455   5.522   0.125  0.2048  1.6178 -0.4577
 1991SOL     OW 6261   2.897   4.521   3.982 -0.4433  0.0482  0.3796
 1991SOL    HW1 6262   2.874   4.432   4.022 -0.1479  0.2071  0.9093
 1991SOL    HW2 6263   2.835   4.590   4.019 -0.8041  0.0323 -0.1853
 1992SOL     OW 6264   0.897   4.064   3.497  0.0171 -0.0517  0.3746
 1992SOL    HW1 6265   0.968   4.060   3.567 -0.1779  0.2178  0.5890
 1992SOL    HW2 6266   0.807   4.066   3.540 -0.0820  0.9425  0.1451
 1993SOL     OW 6267   0.511   3.445   5.440  0.4819 -0.4551  0.6531
 1993SOL    HW1 6268   0.481   3.454   5.345  1.8522 -1.5598  0.0825
 1993SOL    HW2 6269   0.476   3.523   5.493  0.8680  0.9545 -1.0611
 1994SOL     OW 6270   1.602   3.455   5.404  0.0564 -1.0421  0.6192
 1994SOL    HW1 6271   1.638   3.463   5.311 -0.1717 -1.9497  0.4416
 1994SOL    HW2 6272   1.644   3.525   5.462  1.2800 -1.3658  0.1667
 1995SOL     OW 6273   3.187   4.263   3.952 -0.3932  0.0823  0.5402
 1995SOL    HW1 6274   3.189   4.350   4.001  3.0917  0.7836 -0.5816
 1995SOL    HW2 6275   3.221   4.191   4.013  1.7078  0.5361 -0.0121
 1996SOL     OW 6276   0.994   4.976   2.226  0.7256 -0.0957  0.2081
 1996SOL    HW1 6277   1.076   4.922   2.211  1.4060  1.6092 -3.3278
 1996SOL    HW2 6278   1.019   5.065   2.263 -0.1548 -1.1517  3.7120
 1997SOL     OW 6279   1.881   4.803   4.842  0.2904  0.2340 -0.1670
 1997SOL    HW1 6280   1.873   4.779   4.939  0.0652 -1.6208 -0.5921
 1997SOL    HW2 6281   1.791   4.797   4.798  0.6375 -0.6105 -0.8084
 1998SOL     OW 6282   0.824   4.550   3.306  0.3577  0.0289  0.0164
 1998SOL    HW1 6283   0.839   4.644   3.337  0.9476 -0.0896  0.1073
 1998SOL    HW2 6284   0.855   4.487   3.377 -0.8049 -0.2369  0.3096
 1999SOL     OW 6285   1.212   4.208   2.944  0.1978 -0.4331  0.0137
 1999SOL    HW1 6286   1.209   4.293   2.997 -1.4521  0.3509 -1.2478
 1999SOL    HW2 6287   1.307   4.180   2.933  0.7363  0.8251  1.1173
 2000SOL     OW 6288   0.396   3.920   4.983 -0.3652  0.1966  0.3512
 2000SOL    HW1 6289   0.429   3.951   4.894 -1.9380 -0.1499 -0.3880
 2000SOL    HW2 6290   0.314   3.972   5.008  1.1002  1.6346  2.5251
 2001SOL     OW 6291   0.183   5.561   4.687  0.4656 -0.5608 -0.3898
 2001SOL    HW1 6292   0.152   5.470   4.659  1.5006 -1.3665  0.9498
 2001SOL    HW2 6293   0.265   5.552   4.743 -1.5138  0.8582  3.0661
 2002SOL     OW 6294   5.807   0.697   5.561 -0.0648  0.1281 -0.6030
 2002SOL    HW1 6295   5.845   0.735   5.477  1.2838  1.1257  0.4150
 2002SOL    HW2 6296   5.831   0.600   5.567  0.7662  0.3061 -0.8739
 2003SOL     OW 6297   1.908   3.700   4.995 -0.0435  0.2873  0.2140
 2003SOL    HW1 6298   1.972   3.759   4.948  0.6984  0.9048  1.9228
 2003SOL    HW2 6299   1.954   3.616   5.024 -0.1826  0.4008  0.7894
 2004SOL     OW 6300   2.552   4.188   0.050 -0.6152 -0.8277 -0.3515
 2004SOL    HW1 6301   2.597   4.275   0.030  0.0107 -1.6124 -2.6437
 2004SOL    HW2 6302   2.523   4.145  -0.035 -0.4357 -3.1289  0.6817
 2005SOL     OW 6303   3.921   4.482   4.236  0.1008  0.1434  0.0888
 2005SOL    HW1 6304   3.900   4.558   4.298 -0.9619 -0.1698  0.1335
 2005SOL    HW2 6305   3.843   4.419   4.233  1.4281 -1.6426  1.0693
 2006SOL     OW 6306   0.877   2.700   5.414 -0.1454  0.1816 -0.1974
 2006SOL    HW1 6307   0.909   2.608   5.436 -4.4653 -0.9518  2.8557
 2006SOL    HW2 6308   0.932   2.767   5.463  0.3817 -1.1750  1.1448
 2007SOL     OW 6309   0.403   4.380   4.317 -0.8280  0.1430 -0.8721
 2007SOL    HW1 6310   0.366   4.460   4.365  0.2909  1.4922 -2.1657
 2007SOL    HW2 6311   0.501   4.392   4.304  0.0331 -2.9014  1.6394
 2008SOL     OW 6312   1.213   4.503   5.081 -0.2221 -0.3761 -0.1609
 2008SOL    HW1 6313   1.280   4.439   5.044 -0.2471 -1.4668  1.5793
 2008SOL    HW2 6314   1.125   4.458   5.090 -0.1917 -0.1778  1.2823
 2009SOL     OW 6315   0.149   3.409   5.920  0.4031 -0.2613 -0.2913
 2009SOL    HW1 6316   0.080   3.343   5.892  1.2498 -2.2715  2.0407
 2009SOL    HW2 6317   0.240   3.371   5.905  0.9245  0.5934  0.5805
 2010SOL     OW 6318   1.425   3.625   2.308 -0.5523  0.2748  0.5033
 2010SOL    HW1 6319   1.436   3.606   2.405 -0.5076 -0.7277  0.3202
 2010SOL    HW2 6320   1.403   3.540   2.260  0.8886  0.4701 -0.5845
 2011SOL     OW 6321   1.582   3.449   3.656  0.0365 -0.1581  0.4924
 2011SOL    HW1 6322   1.612   3.544   3.667  1.3096 -0.5865  0.8605
 2011SOL    HW2 6323   1.660   3.392   3.632 -0.2826 -1.4873  2.3910
 2012SOL     OW 6324   2.755   5.812   0.155  0.3451 -0.3321 -0.1755
 2012SOL    HW1 6325   2.853   5.798   0.143  0.8619  1.3110  1.6479
 2012SOL    HW2 6326   2.718   5.859   0.075  1.2877  0.0993 -0.3718
 2013SOL     OW 6327   0.029   5.030   4.439  0.0315 -0.1719 -0.4047
 2013SOL    HW1 6328  -0.001   5.030   4.343 -0.9353  0.5315 -0.1125
 2013SOL    HW2 6329   0.016   4.938   4.477 -2.0876  0.1726 -0.2052
 2014SOL     OW 6330   1.708   3.492   5.154 -0.2434  0.6184  0.9082
 2014SOL    HW1 6331   1.698   3.514   5.057  2.9133 -1.0212  0.0703
 2014SOL    HW2 6332   1.745   3.572   5.203  2.2545  0.2448 -0.2061
 2015SOL     OW 6333   2.263   4.922   5.361  0.3062 -0.1259  0.0476
 2015SOL    HW1 6334   2.267   4.835   5.410 -0.7710  0.0405  0.4597
 2015SOL    HW2 6335   2.228   4.994   5.422 -0.1139  0.3002 -0.6743
 2016SOL     OW 6336   1.438   0.670   2.214 -0.1803 -0.1732 -0.4858
 2016SOL    HW1 6337   1.473   0.621   2.134 -1.2908 -0.4198 -0.8397
 2016SOL    HW2 6338   1.447   0.611   2.295  0.6336 -0.0529 -0.4780
 2017SOL     OW 6339   2.202   5.601   3.833 -0.1842 -0.2489  0.2397
 2017SOL    HW1 6340   2.287   5.637   3.795  0.0377 -0.5861  0.4068
 2017SOL    HW2 6341   2.205   5.610   3.933  0.9423 -2.9054  0.5369
 2018SOL     OW 6342   5.719   4.451   0.417 -0.0906  0.0189  0.7726
 2018SOL    HW1 6343   5.682   4.373   0.468  0.4288 -1.3694 -0.9051
 2018SOL    HW2 6344   5.816   4.438   0.402 -0.3477  0.0633 -1.0954
 2019SOL     OW 6345   2.313   3.436   0.532 -0.2664  0.3613  0.0885
 2019SOL    HW1 6346   2.397   3.489   0.526  0.1348 -0.3217 -0.5312
 2019SOL    HW2 6347   2.270   3.432   0.441 -0.4092 -0.1676  0.1765
 2020SOL     OW 6348  -0.012   4.098   3.890 -0.4902 -0.5482  0.0494
 2020SOL    HW1 6349   0.065   4.132   3.943  0.7021  0.6219 -2.2874
 2020SOL    HW2 6350  -0.018   3.999   3.899  0.2927 -0.4768  1.5046
 2021SOL     OW 6351   4.793   4.457   0.049 -0.0709 -0.0231  0.1296
 2021SOL    HW1 6352   4.776   4.395  -0.027 -1.8443 -0.7387  1.0595
 2021SOL    HW2 6353   4.892   4.465   0.064  0.4057  0.9224 -2.8108
 2022SOL     OW 6354   0.598   5.955   4.686 -0.4748  0.4826  0.5639
 2022SOL    HW1 6355   0.634   5.961   4.779 -0.8756  0.7881  0.7012
 2022SOL    HW2 6356   0.620   5.865   4.648  0.8251  0.8057  0.4727
 2023SOL     OW 6357   1.265   0.121   4.838 -0.1060  0.2246  0.1469
 2023SOL    HW1 6358   1.239   0.035   4.794 -0.3420 -0.1524  0.9998
 2023SOL    HW2 6359   1.360   0.116   4.867  0.1166  0.5586 -0.5115
 2024SOL     OW 6360   1.994   4.791   5.318  0.4035 -0.5101 -0.2450
 2024SOL    HW1 6361   2.073   4.754   5.269  0.2079  0.7828 -1.6310
 2024SOL    HW2 6362   1.999   4.891   5.317  0.2455 -0.4260  2.2051
 2025SOL     OW 6363   1.988   3.892   0.761  0.6055 -0.5038  0.0089
 2025SOL    HW1 6364   1.931   3.874   0.681  0.7399  1.3623 -0.5694
 2025SOL    HW2 6365   2.073   3.840   0.754  0.7581 -0.1211 -1.2538
 2026SOL     OW 6366   2.609   3.349   0.129  0.1592 -0.0386 -0.2616
 2026SOL    HW1 6367   2.690   3.298   0.100  0.6766  0.7984 -0.3401
 2026SOL    HW2 6368   2.589   3.327   0.225  1.8076  1.3483  0.4515
 2027SOL     OW 6369   0.070   3.743   1.428 -0.3627  0.5872  0.3510
 2027SOL    HW1 6370   0.111   3.807   1.493 -0.3525  0.3437  0.5876
 2027SOL    HW2 6371   0.081   3.649   1.462 -1.2466  0.5231  0.4954
 2028SOL     OW 6372   0.079   3.059   5.795 -0.3703 -0.2725  0.7731
 2028SOL    HW1 6373   0.005   3.126   5.792 -0.3570 -0.1920  1.9317
 2028SOL    HW2 6374   0.146   3.086   5.864  0.2339 -0.8711  0.4333
 2029SOL     OW 6375   5.681   2.770   0.847  0.3504  0.4003  0.3356
 2029SOL    HW1 6376   5.629   2.702   0.795 -0.3730  2.2546 -1.5003
 2029SOL    HW2 6377   5.772   2.734   0.867  0.0742 -1.0044 -0.7611
 2030SOL     OW 6378   0.828   4.659   5.658  0.0860 -0.1321  0.2915
 2030SOL    HW1 6379   0.852   4.629   5.566  1.5198  3.1279 -0.5446
 2030SOL    HW2 6380   0.730   4.649   5.672 -0.0952 -1.1306 -1.3784
 2031SOL     OW 6381   1.316   3.832   3.555  0.7213 -0.6209  0.2326
 2031SOL    HW1 6382   1.407   3.829   3.514  0.8808  0.8573  0.4253
 2031SOL    HW2 6383   1.247   3.813   3.484  1.1535 -1.4348  0.0208
 2032SOL     OW 6384   5.642   0.052   5.877  0.0648 -0.7119  0.6556
 2032SOL    HW1 6385   5.560  -0.000   5.897  1.0226 -2.6418 -0.1497
 2032SOL    HW2 6386   5.722  -0.008   5.881  1.3692  0.9464  0.7434
 2033SOL     OW 6387   0.517   1.893   0.040  0.3290  0.2012 -0.1006
 2033SOL    HW1 6388   0.568   1.944  -0.029  2.0408 -0.0903  0.8860
 2033SOL    HW2 6389   0.451   1.953   0.085  1.8738  1.4365  0.6199
 2034SOL     OW 6390   1.303   5.209   1.008 -0.3582 -0.0116  0.5199
 2034SOL    HW1 6391   1.263   5.299   1.025  2.0414  0.9427  1.5227
 2034SOL    HW2 6392   1.323   5.200   0.910  2.5181  2.0598  0.7938
 2035SOL     OW 6393   5.822   2.752   0.255 -0.2598  0.9217  0.8809
 2035SOL    HW1 6394   5.817   2.813   0.334  2.5666 -0.5820  2.3587
 2035SOL    HW2 6395   5.917   2.725   0.239 -0.8898  0.0875 -2.2645
 2036SOL     OW 6396   0.965   2.457   5.487 -0.0240  0.5236 -0.3366
 2036SOL    HW1 6397   0.957   2.441   5.585 -1.3626  0.7205 -0.3921
 2036SOL    HW2 6398   1.055   2.497   5.466  0.0394  1.0487  0.8812
 2037SOL     OW 6399   1.460   4.259   5.667  0.0428  0.1398  0.0877
 2037SOL    HW1 6400   1.433   4.274   5.572  3.2388  0.6880 -0.8524
 2037SOL    HW2 6401   1.510   4.172   5.674  1.0989  0.7827  0.9163
 2038SOL     OW 6402   0.383   4.480   0.715  0.1434 -0.6414  0.5406
 2038SOL    HW1 6403   0.415   4.415   0.646  0.2850  1.0945 -1.0915
 2038SOL    HW2 6404   0.423   4.456   0.804  1.2805 -1.9596 -0.2810
 2039SOL     OW 6405   1.135   3.342   5.607  0.0064 -0.4367  0.2699
 2039SOL    HW1 6406   1.234   3.349   5.608 -0.0682  2.2606 -1.1199
 2039SOL    HW2 6407   1.103   3.333   5.513 -1.1149 -0.4078  0.6314
 2040SOL     OW 6408   0.003   2.837   5.661  0.0374 -0.1427 -0.2896
 2040SOL    HW1 6409   0.002   2.923   5.712 -0.4377  0.0712 -0.6510
 2040SOL    HW2 6410   0.079   2.780   5.693  0.0080  0.1694  0.3462
 2041SOL     OW 6411   2.202   4.544   5.679 -0.1701 -0.4414  0.1331
 2041SOL    HW1 6412   2.193   4.445   5.670 -0.4396 -0.3289 -1.0381
 2041SOL    HW2 6413   2.115   4.588   5.656  0.9643  0.2579 -3.3509
 2042SOL     OW 6414   1.878   4.701   0.860 -0.1994  0.2292  0.3372
 2042SOL    HW1 6415   1.804   4.635   0.869  1.0038 -1.2729 -0.3363
 2042SOL    HW2 6416   1.848   4.778   0.803 -1.1467 -0.4934 -0.1603
 2043SOL     OW 6417   1.685   3.108   3.910 -0.1347  0.1892 -0.2365
 2043SOL    HW1 6418   1.764   3.119   3.850 -0.8953 -0.6532 -1.4353
 2043SOL    HW2 6419   1.655   3.197   3.944  2.0803  0.4401  1.2869
 2044SOL     OW 6420   0.596   5.796   2.014  0.0815  0.0352  0.0070
 2044SOL    HW1 6421   0.578   5.894   2.014 -2.7347 -0.3758  1.6921
 2044SOL    HW2 6422   0.510   5.746   2.020  1.3653 -2.6238 -1.6377
 2045SOL     OW 6423   2.200   2.098   0.887  0.3833 -0.0201 -0.7528
 2045SOL    HW1 6424   2.179   2.052   0.973  1.3312  0.4343 -0.2648
 2045SOL    HW2 6425   2.117   2.104   0.832 -0.4161  0.3157  0.4364
 2046SOL     OW 6426   0.689   3.167   0.812 -0.9059 -0.1043  0.3892
 2046SOL    HW1 6427   0.755   3.093   0.804 -1.3282 -0.3312 -1.2923
 2046SOL    HW2 6428   0.732   3.254   0.786 -1.4759 -0.4004 -1.7484
 2047SOL     OW 6429   0.337   3.324   4.068  0.0646 -0.2267 -0.1164
 2047SOL    HW1 6430   0.302   3.251   4.009  2.3105 -0.9091 -0.6865
 2047SOL    HW2 6431   0.357   3.286   4.159 -0.6985  0.1805  0.2338
 2048SOL     OW 6432   1.663   2.953   0.781 -0.5789  0.4393  0.0370
 2048SOL    HW1 6433   1.713   2.870   0.807  0.8554  1.4084  0.5228
 2048SOL    HW2 6434   1.634   2.946   0.686 -0.3974 -0.5787  0.0435
 2049SOL     OW 6435   5.055   4.755   5.372 -0.2898  0.3027  0.0965
 2049SOL    HW1 6436   5.126   4.729   5.437  1.4929  2.0502 -1.0385
 2049SOL    HW2 6437   4.994   4.823   5.413  0.5589  1.0711  0.0924
 2050SOL     OW 6438   1.363   3.620   0.497 -0.3240 -0.3829  0.0669
 2050SOL    HW1 6439   1.421   3.543   0.473 -0.2289 -0.2066 -0.2847
 2050SOL    HW2 6440   1.270   3.588   0.517  0.2292 -0.8436  2.0874
 2051SOL     OW 6441   3.568   5.473   1.206  0.1384 -0.2063  0.1205
 2051SOL    HW1 6442   3.566   5.573   1.201  0.5598 -0.2361 -0.8346
 2051SOL    HW2 6443   3.663   5.441   1.199  0.1965 -0.6131  2.1308
 2052SOL     OW 6444   2.412   5.648   4.871  0.4035 -0.2786  0.0685
 2052SOL    HW1 6445   2.446   5.698   4.950 -0.2153  0.3565 -0.0552
 2052SOL    HW2 6446   2.335   5.698   4.831  0.4896 -0.7695 -0.7251
 2053SOL     OW 6447   1.695   3.049   4.487  0.2109  0.0428 -0.4287
 2053SOL    HW1 6448   1.699   3.139   4.530  0.2727  0.1829 -0.7269
 2053SOL    HW2 6449   1.724   2.980   4.552 -1.7770  0.0006  0.4853
 2054SOL     OW 6450   3.208   3.649   4.282  0.3634 -0.3874 -0.5078
 2054SOL    HW1 6451   3.301   3.684   4.270  0.5916  0.9904  3.5894
 2054SOL    HW2 6452   3.210   3.549   4.282  0.9348 -0.5490 -5.0332
 2055SOL     OW 6453   2.384   4.470   5.852  0.2862  0.4340 -0.5855
 2055SOL    HW1 6454   2.338   4.446   5.937  1.1645 -1.6173 -0.6186
 2055SOL    HW2 6455   2.317   4.499   5.784 -0.9946 -2.0628 -0.5130
 2056SOL     OW 6456   1.910   4.625   4.607  0.7152  0.2477  0.3778
 2056SOL    HW1 6457   1.988   4.602   4.550  0.7553  0.6430  0.2657
 2056SOL    HW2 6458   1.937   4.693   4.675  0.9068 -0.9342  1.5129
 2057SOL     OW 6459   4.178   3.183   5.753 -0.2183  0.0672  0.7638
 2057SOL    HW1 6460   4.258   3.241   5.769 -0.3251 -0.1401  2.1979
 2057SOL    HW2 6461   4.097   3.228   5.791 -0.1509 -1.4125  2.8157
 2058SOL     OW 6462   5.247   4.112   4.769  0.1161 -0.5586 -0.2862
 2058SOL    HW1 6463   5.224   4.086   4.675  0.2865 -0.1757 -0.4379
 2058SOL    HW2 6464   5.164   4.136   4.818  0.0020 -0.9868 -0.2689
 2059SOL     OW 6465   4.680   4.705   5.557 -0.0253 -0.2028  0.0926
 2059SOL    HW1 6466   4.635   4.710   5.646  2.6339 -0.3977  1.5428
 2059SOL    HW2 6467   4.721   4.614   5.545  0.6131  0.1950 -0.8445
 2060SOL     OW 6468   2.546   5.786   3.942 -0.1150  0.4366  0.6950
 2060SOL    HW1 6469   2.518   5.751   3.853  0.9873 -0.9043  0.8321
 2060SOL    HW2 6470   2.527   5.884   3.947  0.1206  0.6156 -1.1487
 2061SOL     OW 6471   5.505   5.441   1.454 -0.1593  0.5612 -0.1727
 2061SOL    HW1 6472   5.451   5.389   1.387 -0.2515  2.5295 -1.7044
 2061SOL    HW2 6473   5.455   5.445   1.540 -1.0172 -0.2730 -0.6037
 2062SOL     OW 6474   1.213   3.568   5.928  0.8100 -0.8438  0.2657
 2062SOL    HW1 6475   1.176   3.641   5.985 -0.2384 -1.2497  0.1397
 2062SOL    HW2 6476   1.138   3.525   5.876  1.6870 -0.6910 -1.1791
 2063SOL     OW 6477   5.793   2.641   5.566  0.5780  0.1981  0.0095
 2063SOL    HW1 6478   5.825   2.728   5.604 -0.5380  0.3663  0.6071
 2063SOL    HW2 6479   5.700   2.623   5.598  0.6493 -1.0310 -0.4305
 2064SOL     OW 6480   1.566   4.033   5.150  0.8795 -0.2989 -0.0172
 2064SOL    HW1 6481   1.471   4.059   5.166  0.9522  0.0466 -0.1291
 2064SOL    HW2 6482   1.620   4.051   5.233  0.8578 -0.4511  0.0304
 2065SOL     OW 6483   0.521   3.374   4.971  0.2292 -0.0442 -0.0013
 2065SOL    HW1 6484   0.471   3.459   4.953 -2.9521 -1.9124 -0.9267
 2065SOL    HW2 6485   0.557   3.339   4.885 -0.1822 -0.5637  0.0312
 2066SOL     OW 6486   4.801   0.214   5.856 -0.5104 -0.2853  0.4635
 2066SOL    HW1 6487   4.791   0.310   5.828 -2.2974 -0.2178  1.2199
 2066SOL    HW2 6488   4.863   0.168   5.792 -0.3344  1.1308 -0.4558
 2067SOL     OW 6489   4.866   5.547   2.179 -0.4290  1.0496  0.3850
 2067SOL    HW1 6490   4.915   5.581   2.259  0.9154 -1.3380  0.6553
 2067SOL    HW2 6491   4.930   5.534   2.104 -0.8542 -0.7272  0.2794
 2068SOL     OW 6492   3.846   4.451   0.632 -0.2936  0.0404 -0.3282
 2068SOL    HW1 6493   3.780   4.509   0.585 -0.9445 -0.7894 -0.4513
 2068SOL    HW2 6494   3.803   4.410   0.713  0.2558 -0.0097 -0.0574
 2069SOL     OW 6495   0.265   0.907   3.442 -0.3224  0.5736  0.4795
 2069SOL    HW1 6496   0.193   0.943   3.382  1.1848  0.6703 -1.3703
 2069SOL    HW2 6497   0.318   0.838   3.393  0.3116 -0.1358  2.0968
 2070SOL     OW 6498   3.256   1.250   0.904  0.3165  0.0712 -0.0535
 2070SOL    HW1 6499   3.283   1.345   0.918  0.6660  0.1463 -1.1552
 2070SOL    HW2 6500   3.319   1.207   0.839 -1.8104  0.0858 -2.2779
 2071SOL     OW 6501   0.576   0.146   5.650  0.3381  0.9180  0.2072
 2071SOL    HW1 6502   0.492   0.133   5.598 -0.1421  1.3408  0.8585
 2071SOL    HW2 6503   0.598   0.243   5.656  1.3130  0.7645 -0.6226
 2072SOL     OW 6504   5.199   1.242   5.306 -0.0907 -0.1436  0.4516
 2072SOL    HW1 6505   5.143   1.160   5.297 -2.0852  1.1126  0.7631
 2072SOL    HW2 6506   5.158   1.317   5.253  1.5160  0.7458  0.3883
 2073SOL     OW 6507   0.997   0.825   3.141  0.1409 -0.6922 -0.1235
 2073SOL    HW1 6508   1.069   0.762   3.113 -0.6009 -1.3778 -0.5163
 2073SOL    HW2 6509   0.908   0.779   3.136 -0.4524  0.4718 -0.7534
 2074SOL     OW 6510   1.454   0.537   2.464  0.1064 -0.0636 -0.0448
 2074SOL    HW1 6511   1.392   0.468   2.426  0.0979  0.4346 -0.9685
 2074SOL    HW2 6512   1.537   0.493   2.496 -1.1395 -0.9013  2.2431
 2075SOL     OW 6513   0.740   0.938   0.152 -0.1270 -0.1403  0.2978
 2075SOL    HW1 6514   0.658   0.991   0.130  0.0840 -0.3915 -1.2244
 2075SOL    HW2 6515   0.821   0.991   0.126  0.2834  0.4924  2.6178
 2076SOL     OW 6516   0.810   0.401   2.438  0.1650 -0.4969 -0.0647
 2076SOL    HW1 6517   0.817   0.338   2.515 -0.7201  1.1597  1.4596
 2076SOL    HW2 6518   0.892   0.458   2.433 -1.2825  2.0300  2.2042
 2077SOL     OW 6519   0.972   0.277   1.302  0.4020  0.1173  0.5450
 2077SOL    HW1 6520   1.010   0.367   1.325  0.5642 -0.0524  0.9425
 2077SOL    HW2 6521   1.044   0.208   1.308  0.2280 -0.0745  0.4411
 2078SOL     OW 6522   1.378   5.725   1.136  0.1956 -0.7148  0.2433
 2078SOL    HW1 6523   1.440   5.647   1.140  0.3715 -0.5338  2.9410
 2078SOL    HW2 6524   1.431   5.810   1.136  0.0229 -0.5793  1.5331
 2079SOL     OW 6525   0.834   4.973   5.585 -0.1212 -0.9386 -0.3724
 2079SOL    HW1 6526   0.812   4.883   5.622  0.0687 -0.1541  1.8126
 2079SOL    HW2 6527   0.930   4.995   5.603 -0.0783 -0.4277 -1.1735
 2080SOL     OW 6528   1.337   4.972   1.800  0.3212  0.4458  0.2841
 2080SOL    HW1 6529   1.248   4.991   1.841  0.1831 -0.3657  0.3669
 2080SOL    HW2 6530   1.362   4.877   1.816  0.7498  0.3989 -0.5956
 2081SOL     OW 6531   0.902   0.035   0.374 -0.2384 -0.4280  0.5505
 2081SOL    HW1 6532   0.992   0.009   0.409 -0.4162 -0.3184  1.1028
 2081SOL    HW2 6533   0.835  -0.035   0.398 -0.2005 -0.7903 -0.3603
 2082SOL     OW 6534   5.126   4.947   0.305 -0.0510  0.2147  0.5365
 2082SOL    HW1 6535   5.034   4.954   0.266 -0.0511  1.6178  0.7458
 2082SOL    HW2 6536   5.121   4.962   0.403  0.5008  1.2186  0.4224
 2083SOL     OW 6537   1.584   5.127   4.869 -0.4959  0.5885 -0.5609
 2083SOL    HW1 6538   1.647   5.160   4.799 -1.5297  0.0176 -1.8026
 2083SOL    HW2 6539   1.590   5.027   4.873 -1.8482  0.4616 -1.2495
 2084SOL     OW 6540   1.240   5.452   5.306  0.0244  0.0559 -0.0422
 2084SOL    HW1 6541   1.224   5.485   5.214  0.6292  0.1022 -0.1379
 2084SOL    HW2 6542   1.221   5.524   5.372 -0.8028 -0.1044 -0.1018
 2085SOL     OW 6543   0.937   5.570   0.157  0.1860  0.4922 -0.2602
 2085SOL    HW1 6544   1.001   5.495   0.175 -1.4385 -1.0520 -0.5507
 2085SOL    HW2 6545   0.979   5.657   0.180  2.0861 -0.5247  0.2823
 2086SOL     OW 6546   5.399   1.077   4.516  0.2550  0.2740  0.1822
 2086SOL    HW1 6547   5.380   1.141   4.443 -0.9766 -0.0975  0.1476
 2086SOL    HW2 6548   5.480   1.106   4.567  1.6923  0.0281 -1.8857
 2087SOL     OW 6549   1.179   0.350   2.656 -0.2745  0.4513 -0.5569
 2087SOL    HW1 6550   1.177   0.430   2.716 -2.0531  0.5048 -0.6441
 2087SOL    HW2 6551   1.175   0.379   2.560 -0.8879  0.2709 -0.5907
 2088SOL     OW 6552   5.114   4.994   0.584 -0.2210  0.0291  0.0566
 2088SOL    HW1 6553   5.046   4.928   0.617 -1.3137  0.2533 -1.5915
 2088SOL    HW2 6554   5.206   4.963   0.608 -0.8108 -1.2088  0.7913
 2089SOL     OW 6555   5.370   5.831   0.214 -0.1209 -0.2663 -0.0311
 2089SOL    HW1 6556   5.407   5.799   0.127 -0.6192 -1.4150  0.1624
 2089SOL    HW2 6557   5.328   5.754   0.262  0.0241  0.3813  1.1629
 2090SOL     OW 6558   5.309   0.831   0.602  0.3105 -0.0746  0.1383
 2090SOL    HW1 6559   5.250   0.753   0.619 -1.3969  1.1382  0.0260
 2090SOL    HW2 6560   5.294   0.901   0.671  1.8356  0.1742  0.2613
 2091SOL     OW 6561   1.112   4.626   0.896 -0.1397  0.2781  0.3415
 2091SOL    HW1 6562   1.202   4.592   0.925 -0.3551 -0.5580  0.0525
 2091SOL    HW2 6563   1.106   4.624   0.797 -0.1802  1.1269  0.3221
 2092SOL     OW 6564   0.429   4.897   0.650  0.4537  0.2954 -0.1032
 2092SOL    HW1 6565   0.366   4.831   0.608  0.3303  0.5195 -0.2754
 2092SOL    HW2 6566   0.401   4.990   0.625 -0.3541  0.5103  1.4841
 2093SOL     OW 6567   3.056   3.669   0.530  0.4547 -0.2101  0.6205
 2093SOL    HW1 6568   2.996   3.593   0.503  1.4390 -0.9391  0.4133
 2093SOL    HW2 6569   3.001   3.752   0.544 -0.4124 -0.4642 -1.0446
 2094SOL     OW 6570   1.141   3.888   1.026 -0.3540  0.1947  0.2246
 2094SOL    HW1 6571   1.086   3.919   1.104 -1.0714  1.0988 -0.6250
 2094SOL    HW2 6572   1.218   3.950   1.013 -0.2172  0.0267  0.2195
 2095SOL     OW 6573   5.779   0.608   4.177 -0.7015 -0.4239  0.2084
 2095SOL    HW1 6574   5.838   0.558   4.113 -2.9390  0.1887 -2.5278
 2095SOL    HW2 6575   5.713   0.544   4.218 -0.0715 -0.6002  0.9658
 2096SOL     OW 6576   5.776   5.739   2.255  0.2820 -0.0195  0.5073
 2096SOL    HW1 6577   5.760   5.835   2.231  2.0895  0.1611 -0.1451
 2096SOL    HW2 6578   5.862   5.731   2.304  1.2146 -1.5092 -1.2388
 2097SOL     OW 6579   0.303   4.224   5.835  0.0212  0.7892 -0.5064
 2097SOL    HW1 6580   0.337   4.245   5.744 -0.5704 -1.1519 -1.2324
 2097SOL    HW2 6581   0.365   4.159   5.880  0.8263  2.4472  0.8981
 2098SOL     OW 6582   1.594   0.179   5.241  0.0151 -0.1978  0.0255
 2098SOL    HW1 6583   1.683   0.204   5.278  0.8923 -1.6743 -0.9871
 2098SOL    HW2 6584   1.561   0.096   5.285 -1.6658  1.1854  1.5395
 2099SOL     OW 6585   3.252   5.439   5.470 -0.3273  0.3624 -0.1095
 2099SOL    HW1 6586   3.207   5.517   5.514 -2.9985 -1.1984  0.1967
 2099SOL    HW2 6587   3.203   5.416   5.386  0.7511 -0.6623 -0.4835
 2100SOL     OW 6588   1.190   0.949   5.838  0.0154 -0.4842  0.1346
 2100SOL    HW1 6589   1.261   1.019   5.841 -0.4208  0.0999 -1.9417
 2100SOL    HW2 6590   1.120   0.974   5.772  0.1626 -3.1531 -1.1759
 2101SOL     OW 6591   0.782   5.391   5.858  0.1847  0.1772 -0.1095
 2101SOL    HW1 6592   0.766   5.415   5.954 -1.4696 -1.8351  0.1959
 2101SOL    HW2 6593   0.695   5.393   5.808  0.8656  0.2331 -1.3482
 2102SOL     OW 6594   1.575   0.126   5.930 -0.0953  0.0526 -0.6057
 2102SOL    HW1 6595   1.514   0.182   5.986  0.5307  0.5518 -0.4123
 2102SOL    HW2 6596   1.650   0.182   5.896  1.8653 -1.1245  1.5122
 2103SOL     OW 6597   1.569   4.283   1.157  0.0811 -0.0614  0.0896
 2103SOL    HW1 6598   1.478   4.323   1.144 -1.3864 -3.0898  0.2148
 2103SOL    HW2 6599   1.601   4.241   1.072  0.6069 -0.4472  0.4640
 2104SOL     OW 6600   2.990   4.868   5.715 -0.6291  0.2259  0.0715
 2104SOL    HW1 6601   2.918   4.890   5.649 -1.7245  1.8579  1.6940
 2104SOL    HW2 6602   3.078   4.903   5.682 -0.6255 -1.3044 -1.6851
 2105SOL     OW 6603   0.443   4.342   2.106 -0.0288  0.3345  0.1105
 2105SOL    HW1 6604   0.393   4.416   2.060  1.5716  1.2391 -0.2476
 2105SOL    HW2 6605   0.425   4.256   2.059 -1.9406  0.4517  0.5396
 2106SOL     OW 6606   3.026   5.319   0.227 -0.1423 -0.1989  0.1487
 2106SOL    HW1 6607   3.064   5.239   0.273 -1.5696 -0.5030  0.8833
 2106SOL    HW2 6608   2.929   5.327   0.250 -0.6783  0.2345 -2.0352
 2107SOL     OW 6609   2.510   4.965   5.605  0.1325 -0.3308  0.6220
 2107SOL    HW1 6610   2.599   4.935   5.572  1.5234  0.5186  3.2431
 2107SOL    HW2 6611   2.445   4.889   5.604  1.5180 -1.5487  0.6219
 2108SOL     OW 6612   1.422   5.826   1.616  0.2291 -0.1969 -0.0791
 2108SOL    HW1 6613   1.366   5.827   1.533  1.6376  2.3808 -1.1329
 2108SOL    HW2 6614   1.484   5.747   1.614 -0.5723 -0.8219 -0.8749
 2109SOL     OW 6615   0.154   4.408   0.848  0.1175  0.2121 -0.0418
 2109SOL    HW1 6616   0.076   4.446   0.799  0.1141 -0.4079 -0.5251
 2109SOL    HW2 6617   0.239   4.436   0.803  0.1325  0.0026 -0.1423
 2110SOL     OW 6618   5.648   0.608   5.915 -0.3674  0.4469  0.1633
 2110SOL    HW1 6619   5.596   0.617   5.829 -0.9649  1.2771  0.5998
 2110SOL    HW2 6620   5.722   0.675   5.916  2.1171 -2.0862 -1.3803
 2111SOL     OW 6621   0.656   0.838   1.430  0.4549  0.0831 -0.2885
 2111SOL    HW1 6622   0.701   0.798   1.510  0.1842 -0.2590 -0.3082
 2111SOL    HW2 6623   0.726   0.863   1.362  0.6936  0.4945  0.1041
 2112SOL     OW 6624   0.700   0.047   1.088 -0.1062  0.0226 -0.3661
 2112SOL    HW1 6625   0.612   0.055   1.040 -0.4385  0.0297  0.2309
 2112SOL    HW2 6626   0.766   0.110   1.048 -0.3118 -0.1248 -0.9504
 2113SOL     OW 6627   4.805   5.355   2.678 -0.1631 -0.7482  0.4946
 2113SOL    HW1 6628   4.794   5.256   2.687 -2.6726 -0.5783  0.0811
 2113SOL    HW2 6629   4.737   5.402   2.734 -0.4660  0.6873 -0.9822
 2114SOL     OW 6630   1.553   5.563   2.543 -0.6042  0.2687  0.1868
 2114SOL    HW1 6631   1.485   5.634   2.523 -1.6769 -1.0830 -1.1325
 2114SOL    HW2 6632   1.562   5.502   2.465  2.4885  0.6389  0.1323
 2115SOL     OW 6633   1.593   5.497   4.110 -0.0293 -0.4026  0.2155
 2115SOL    HW1 6634   1.520   5.555   4.073  0.3441 -0.1125 -0.0768
 2115SOL    HW2 6635   1.680   5.547   4.106  0.0279 -0.3919  1.4289
 2116SOL     OW 6636   1.976   5.526   2.157  0.2486 -0.2396  0.0431
 2116SOL    HW1 6637   2.067   5.524   2.116  0.7834 -0.3066  1.1908
 2116SOL    HW2 6638   1.914   5.578   2.098  1.5188  1.5690  0.2091
 2117SOL     OW 6639   2.010   5.556   4.441 -0.0235 -0.0090  0.4261
 2117SOL    HW1 6640   2.097   5.553   4.491 -0.3957 -1.0558  1.0164
 2117SOL    HW2 6641   2.012   5.635   4.378  1.3927 -0.0716  0.3432
 2118SOL     OW 6642   0.979   5.562   2.712 -0.1254  0.2893  0.1204
 2118SOL    HW1 6643   0.884   5.552   2.682  0.4239  1.1352 -2.0535
 2118SOL    HW2 6644   0.991   5.515   2.799 -3.0182  1.7945  1.5018
 2119SOL     OW 6645   0.626   5.152   5.119 -0.3722  0.5647  0.0919
 2119SOL    HW1 6646   0.692   5.133   5.192  2.0920  0.8188 -1.9333
 2119SOL    HW2 6647   0.652   5.101   5.037 -2.1634  1.4817 -1.1086
 2120SOL     OW 6648   1.075   4.985   1.898 -0.0965 -0.1294  0.8153
 2120SOL    HW1 6649   1.031   4.901   1.869 -1.0577  0.8830 -0.7618
 2120SOL    HW2 6650   1.009   5.044   1.945  0.2337  0.3118  0.7405
 2121SOL     OW 6651   5.574   4.958   0.743 -0.8931  0.2120  0.0512
 2121SOL    HW1 6652   5.674   4.961   0.755 -0.9505  0.3679  0.5095
 2121SOL    HW2 6653   5.530   4.963   0.832 -1.2894 -1.0796 -0.0530
 2122SOL     OW 6654   1.337   5.253   4.697 -0.2930 -0.5644 -0.5160
 2122SOL    HW1 6655   1.374   5.160   4.701 -1.7011 -1.2105 -1.5318
 2122SOL    HW2 6656   1.252   5.257   4.748  0.0252  0.3153 -0.0458
 2123SOL     OW 6657   2.345   4.899   2.580  0.0747 -0.0723 -0.4080
 2123SOL    HW1 6658   2.433   4.902   2.532 -0.8049 -0.3107 -2.1175
 2123SOL    HW2 6659   2.285   4.834   2.535 -1.0664  0.2356  0.6131
 2124SOL     OW 6660   1.764   5.306   1.346  0.4510  0.1899  0.0190
 2124SOL    HW1 6661   1.668   5.331   1.329 -0.1483 -1.0861  1.2617
 2124SOL    HW2 6662   1.796   5.245   1.274 -0.5966 -1.5595  0.9524
 2125SOL     OW 6663   1.661   1.174   3.235 -0.3264 -0.3782  0.3226
 2125SOL    HW1 6664   1.705   1.145   3.149  0.3092 -0.0110  0.5146
 2125SOL    HW2 6665   1.566   1.197   3.218  0.4181  2.2006 -0.8316
 2126SOL     OW 6666   1.289   0.114   2.304 -0.0657  0.0812  0.0617
 2126SOL    HW1 6667   1.230   0.035   2.321  2.1318 -1.3936  1.4793
 2126SOL    HW2 6668   1.380   0.095   2.341  0.1765  3.8914  1.8912
 2127SOL     OW 6669   2.112   4.390   3.404 -0.0899 -0.1732  0.2573
 2127SOL    HW1 6670   2.140   4.470   3.351  1.0215 -0.8171 -0.1695
 2127SOL    HW2 6671   2.017   4.399   3.432 -1.0499 -0.2266 -2.6796
 2128SOL     OW 6672   1.624   5.407   3.059  0.1646 -0.4067 -0.1981
 2128SOL    HW1 6673   1.576   5.392   2.973 -1.4931  2.5716  0.0752
 2128SOL    HW2 6674   1.633   5.505   3.076  1.9057 -0.8830  2.2731
 2129SOL     OW 6675   0.524   5.217   2.339  0.3525  0.0358 -0.2288
 2129SOL    HW1 6676   0.552   5.170   2.255 -0.7869 -0.8672 -0.1378
 2129SOL    HW2 6677   0.473   5.299   2.316  1.4894  0.7166 -0.3952
 2130SOL     OW 6678   1.633   5.898   2.941 -0.0434 -0.2469 -0.0754
 2130SOL    HW1 6679   1.714   5.955   2.954 -1.3315  1.6997 -0.1129
 2130SOL    HW2 6680   1.588   5.884   3.029  0.9527 -2.3927  0.1534
 2131SOL     OW 6681   1.323   5.898   0.223 -0.2289 -0.2015  0.0466
 2131SOL    HW1 6682   1.229   5.869   0.202  0.2134 -0.5348 -1.5552
 2131SOL    HW2 6683   1.320   5.981   0.279 -1.4795 -0.3944  0.2934
 2132SOL     OW 6684   1.104   5.040   2.496 -0.7905  0.3007 -0.1292
 2132SOL    HW1 6685   1.192   5.051   2.449 -0.9794 -0.2356 -0.6233
 2132SOL    HW2 6686   1.068   4.948   2.477 -0.7625 -0.0093  1.2438
 2133SOL     OW 6687   1.821   0.346   1.816  0.0976 -0.4326  0.0124
 2133SOL    HW1 6688   1.764   0.340   1.734  2.2087 -0.1659 -1.5462
 2133SOL    HW2 6689   1.842   0.254   1.849 -2.1221 -0.5522  1.3556
 2134SOL     OW 6690   1.223   5.713   2.666  0.0466 -0.4664 -0.7582
 2134SOL    HW1 6691   1.146   5.650   2.682 -1.7361  1.7004 -0.3226
 2134SOL    HW2 6692   1.270   5.731   2.752  0.2363 -0.8061 -0.7905
 2135SOL     OW 6693   0.565   0.127   3.468  0.4664 -0.2347  0.3820
 2135SOL    HW1 6694   0.586   0.192   3.394 -2.0714  1.8969  1.3790
 2135SOL    HW2 6695   0.613   0.154   3.551  0.7560 -0.6727  0.3574
 2136SOL     OW 6696   2.839   0.281   2.238  0.1534  0.0812  0.3759
 2136SOL    HW1 6697   2.838   0.301   2.140  1.1383 -0.2733  0.2818
 2136SOL    HW2 6698   2.887   0.354   2.287  0.0144  0.0625  0.5389
 2137SOL     OW 6699   0.128   1.212   4.359  0.4258  0.0168 -0.2253
 2137SOL    HW1 6700   0.166   1.279   4.295  0.1660 -0.2808 -0.7014
 2137SOL    HW2 6701   0.029   1.218   4.358  0.4354  0.7712  0.9932
 2138SOL     OW 6702   5.708   5.839   1.426 -0.0295  0.1437 -0.2109
 2138SOL    HW1 6703   5.670   5.753   1.393  0.0486  0.7797 -2.1306
 2138SOL    HW2 6704   5.805   5.843   1.402  0.1990  0.3707  0.7287
 2139SOL     OW 6705   1.979   5.564   2.680 -0.0984  0.3788 -0.6380
 2139SOL    HW1 6706   2.064   5.541   2.727 -0.6076 -0.6275 -0.1743
 2139SOL    HW2 6707   1.997   5.578   2.583  0.5174 -0.3841 -0.6449
 2140SOL     OW 6708   0.515   4.743   2.422 -0.1517  0.3156  0.4288
 2140SOL    HW1 6709   0.419   4.772   2.427  0.1334  1.5577 -0.6914
 2140SOL    HW2 6710   0.527   4.685   2.342  0.0922  0.4290  0.3834
 2141SOL     OW 6711   2.473   2.420   1.587  0.2902  0.1873  0.0722
 2141SOL    HW1 6712   2.491   2.366   1.504 -1.0033 -2.6419  1.4871
 2141SOL    HW2 6713   2.559   2.452   1.626  1.2618 -1.8580 -0.2550
 2142SOL     OW 6714   5.819   0.488   3.114 -0.0660 -0.1257  0.2821
 2142SOL    HW1 6715   5.899   0.503   3.172  1.2616  0.0438 -1.5061
 2142SOL    HW2 6716   5.769   0.574   3.103  0.5289  0.1898 -0.0141
 2143SOL     OW 6717   5.917   0.822   1.559  0.2362 -0.5415  0.0996
 2143SOL    HW1 6718   5.935   0.803   1.656  0.6037  0.9625  0.3521
 2143SOL    HW2 6719   5.942   0.742   1.504 -0.7102 -1.7167  1.3011
 2144SOL     OW 6720   5.744   4.914   3.984  0.2905  0.5589 -0.2916
 2144SOL    HW1 6721   5.763   4.827   3.937 -1.1885  1.1775 -2.1552
 2144SOL    HW2 6722   5.647   4.921   4.003  0.4040  1.7868 -0.0779
 2145SOL     OW 6723   1.634   5.742   0.927 -0.2827 -0.8387 -0.0795
 2145SOL    HW1 6724   1.720   5.705   0.894  2.3777  0.9431  4.0028
 2145SOL    HW2 6725   1.603   5.689   1.007 -1.4387  0.2336  0.2181
 2146SOL     OW 6726   1.103   0.979   3.359  0.1179  0.1204 -0.0739
 2146SOL    HW1 6727   1.074   0.954   3.451  4.2606 -2.0924  0.8869
 2146SOL    HW2 6728   1.080   0.905   3.296  2.8762 -1.4666  0.6182
 2147SOL     OW 6729   1.553   5.532   1.103 -0.6151 -0.0809 -0.2644
 2147SOL    HW1 6730   1.538   5.499   1.196  0.4313  0.1233  0.0007
 2147SOL    HW2 6731   1.593   5.459   1.048 -1.1288 -0.1670 -0.5243
 2148SOL     OW 6732   1.910   5.769   2.824  0.1765 -0.3632  0.8400
 2148SOL    HW1 6733   1.933   5.692   2.765  0.4393 -0.9165  1.6445
 2148SOL    HW2 6734   1.910   5.854   2.771 -2.1586 -1.1448 -0.5399
 2149SOL     OW 6735   4.783   0.426   3.606  0.0588 -0.1215  0.0585
 2149SOL    HW1 6736   4.685   0.412   3.592 -0.1215  1.0906  0.0479
 2149SOL    HW2 6737   4.804   0.416   3.703 -0.0796 -0.3126  0.0700
 2150SOL     OW 6738   5.416   0.075   2.255 -0.9415 -0.3957  0.5419
 2150SOL    HW1 6739   5.481   0.093   2.329  0.2121 -0.8676 -0.3188
 2150SOL    HW2 6740   5.411   0.154   2.195 -1.4140 -0.2395  0.7844
 2151SOL     OW 6741   0.646   0.285   0.896 -0.3600  0.1253 -0.3880
 2151SOL    HW1 6742   0.640   0.285   0.996  1.3413 -1.4625 -0.2307
 2151SOL    HW2 6743   0.713   0.353   0.867  0.4844 -0.6407 -0.2907
 2152SOL     OW 6744   4.255   1.682   2.370 -0.2854 -0.2917 -0.1592
 2152SOL    HW1 6745   4.264   1.636   2.458 -2.0398 -0.3357  0.0321
 2152SOL    HW2 6746   4.169   1.655   2.326 -0.7806  1.8316 -0.6183
 2153SOL     OW 6747   0.168   2.000   2.600 -0.1030  0.1185  0.1418
 2153SOL    HW1 6748   0.223   1.920   2.577 -0.8244 -0.7965  1.4108
 2153SOL    HW2 6749   0.213   2.051   2.673 -0.8613 -0.6128  1.1586
 2154SOL     OW 6750   1.589   5.465   3.626  0.7942 -0.0843  0.1047
 2154SOL    HW1 6751   1.580   5.379   3.576 -0.2116  0.3812 -0.5383
 2154SOL    HW2 6752   1.510   5.477   3.686 -0.1699  1.3488 -1.3484
 2155SOL     OW 6753   2.653   3.847   2.915  0.3528  0.3327 -0.2667
 2155SOL    HW1 6754   2.676   3.849   2.817 -0.8389 -1.5181 -0.6483
 2155SOL    HW2 6755   2.554   3.840   2.925  0.5783 -2.3422  0.9382
 2156SOL     OW 6756   0.646   5.230   0.897  0.0065  0.3627 -0.4634
 2156SOL    HW1 6757   0.704   5.246   0.977  1.3579  2.8813 -1.8416
 2156SOL    HW2 6758   0.672   5.144   0.853 -0.1463 -0.5921  1.2211
 2157SOL     OW 6759   5.263   0.027   1.886 -0.4235 -0.4110 -0.1092
 2157SOL    HW1 6760   5.220   0.068   1.966 -0.0008  0.1881 -0.1841
 2157SOL    HW2 6761   5.197   0.023   1.811 -0.4950  0.0521 -0.0745
 2158SOL     OW 6762   1.591   5.230   0.782  0.0445 -0.0894 -0.2624
 2158SOL    HW1 6763   1.511   5.172   0.796 -1.9133  2.4055 -0.1954
 2158SOL    HW2 6764   1.623   5.265   0.870  0.5699 -0.2619 -0.3805
 2159SOL     OW 6765   5.086   5.038   4.764  0.4362 -0.1497 -0.0381
 2159SOL    HW1 6766   5.141   4.986   4.697  0.4508  0.4462 -0.5006
 2159SOL    HW2 6767   5.091   4.993   4.853 -0.2624 -1.4269 -0.6267
 2160SOL     OW 6768   3.278   1.041   3.204 -0.4310  0.0789 -0.3632
 2160SOL    HW1 6769   3.352   1.101   3.174  0.0587  0.2252  1.0682
 2160SOL    HW2 6770   3.310   0.946   3.207 -1.4377 -0.4714 -3.4287
 2161SOL     OW 6771   3.748   1.176   3.228 -0.4481  0.6268  0.1921
 2161SOL    HW1 6772   3.841   1.138   3.230 -1.0250 -0.8324 -0.0877
 2161SOL    HW2 6773   3.725   1.209   3.320  0.7605  2.1161  0.0141
 2162SOL     OW 6774   0.081   0.550   5.242 -0.2342  0.3991  0.2889
 2162SOL    HW1 6775   0.125   0.556   5.332 -0.3190  0.1845  0.3445
 2162SOL    HW2 6776  -0.004   0.498   5.250 -3.5981  5.3847  1.3655
 2163SOL     OW 6777   1.734   4.802   4.443  0.7257  0.0086 -0.1293
 2163SOL    HW1 6778   1.758   4.798   4.346  0.5292 -1.6343 -0.1302
 2163SOL    HW2 6779   1.802   4.752   4.496 -0.1265 -0.6139  0.3927
 2164SOL     OW 6780   2.015   0.583   3.933  0.0629  0.4465 -0.4090
 2164SOL    HW1 6781   1.967   0.529   4.002 -0.8076  3.1132  1.2392
 2164SOL    HW2 6782   1.948   0.638   3.882  1.0231  1.4029 -0.6753
 2165SOL     OW 6783   1.698   3.371   4.575  0.2327 -0.1567  0.2700
 2165SOL    HW1 6784   1.624   3.430   4.542  0.7009  0.1282 -0.2936
 2165SOL    HW2 6785   1.786   3.406   4.542  0.3944 -2.2084 -1.7303
 2166SOL     OW 6786   5.424   5.536   5.096 -0.0757  0.3259 -0.3195
 2166SOL    HW1 6787   5.403   5.460   5.158 -0.6245 -0.7904 -1.8301
 2166SOL    HW2 6788   5.448   5.617   5.151 -0.2005 -0.6997  1.3365
 2167SOL     OW 6789   2.361   4.467   4.671 -0.2416  0.3697  0.5306
 2167SOL    HW1 6790   2.302   4.409   4.726  0.5075 -0.8678  0.0830
 2167SOL    HW2 6791   2.431   4.509   4.729  0.1072 -0.3596  0.6479
 2168SOL     OW 6792   1.329   5.509   3.762  0.2799 -0.3805  0.0422
 2168SOL    HW1 6793   1.249   5.455   3.786  0.0225  0.0371  0.1297
 2168SOL    HW2 6794   1.360   5.561   3.841 -0.7051  1.1723 -0.5351
 2169SOL     OW 6795   0.297   4.614   5.497  0.4786  0.3951 -0.0046
 2169SOL    HW1 6796   0.251   4.632   5.584 -0.1231  0.3222 -0.2961
 2169SOL    HW2 6797   0.259   4.530   5.457  3.8017 -2.1812  1.7420
 2170SOL     OW 6798   5.201   1.810   4.726 -0.1353 -0.3209  0.0496
 2170SOL    HW1 6799   5.294   1.847   4.714 -0.1044 -0.7040 -1.0109
 2170SOL    HW2 6800   5.145   1.838   4.649 -0.3377 -1.7956 -0.3588
 2171SOL     OW 6801   0.666   5.439   5.044 -0.1060 -0.3653  0.5050
 2171SOL    HW1 6802   0.763   5.419   5.033 -0.3269 -1.3022  0.1511
 2171SOL    HW2 6803   0.620   5.360   5.085 -0.8132 -0.1365  0.1785
 2172SOL     OW 6804   0.840   1.935   5.230  0.3889 -0.4164  0.1198
 2172SOL    HW1 6805   0.762   1.981   5.273  0.2309 -0.3320 -0.2563
 2172SOL    HW2 6806   0.869   1.986   5.150  0.3221 -0.8781 -0.2014
 2173SOL     OW 6807   0.569   0.632   3.686  0.2545  0.0241 -0.4137
 2173SOL    HW1 6808   0.646   0.636   3.749  1.5640 -1.0130 -1.8580
 2173SOL    HW2 6809   0.493   0.583   3.728 -0.0032  1.8135  1.3584
 2174SOL     OW 6810   0.352   0.711   1.092 -0.1060 -0.4203 -0.2096
 2174SOL    HW1 6811   0.260   0.677   1.110  0.1665 -1.2617 -0.3560
 2174SOL    HW2 6812   0.380   0.685   0.999  0.6954 -1.1689  0.2207
 2175SOL     OW 6813   3.434   0.915   0.042 -0.3223  0.0230 -0.2021
 2175SOL    HW1 6814   3.526   0.954   0.048 -0.7411  1.0846 -0.3644
 2175SOL    HW2 6815   3.438   0.816   0.057  0.5766  0.3304  1.9737
 2176SOL     OW 6816   0.700   4.612   4.568  0.0356 -0.0338  0.2603
 2176SOL    HW1 6817   0.617   4.641   4.522 -0.8126  0.5407  2.0652
 2176SOL    HW2 6818   0.772   4.681   4.555 -0.5160  0.6227  0.6441
 2177SOL     OW 6819   5.319   0.524   3.701 -0.3462  1.1921  0.1704
 2177SOL    HW1 6820   5.403   0.489   3.659 -0.0351 -0.3755  1.9460
 2177SOL    HW2 6821   5.240   0.494   3.647  0.0111 -1.1815  0.8548
 2178SOL     OW 6822   5.237   4.923   4.588 -0.8148  0.4900  0.2228
 2178SOL    HW1 6823   5.316   4.869   4.617 -0.7286  1.5456  2.1625
 2178SOL    HW2 6824   5.230   4.922   4.489  0.9124 -0.6193  0.0687
 2179SOL     OW 6825   0.059   1.062   4.604  0.1505  0.1875  0.6411
 2179SOL    HW1 6826   0.026   0.968   4.593  0.3621  0.0274  1.3590
 2179SOL    HW2 6827   0.072   1.103   4.514  0.0442 -0.4662  0.3222
 2180SOL     OW 6828   4.683   4.328   3.942  0.1489 -0.3760 -0.3045
 2180SOL    HW1 6829   4.708   4.231   3.934  0.3396 -0.3194 -0.4019
 2180SOL    HW2 6830   4.625   4.341   4.023 -1.1704 -0.8318 -1.1435
 2181SOL     OW 6831   0.661   3.801   5.476  0.2210  0.0640 -0.0769
 2181SOL    HW1 6832   0.609   3.745   5.540 -0.8393  0.1510 -0.8485
 2181SOL    HW2 6833   0.758   3.798   5.501  0.1468 -1.8095  0.1062
 2182SOL     OW 6834   0.639   3.238   3.900 -0.4247  0.1614  0.4058
 2182SOL    HW1 6835   0.552   3.200   3.869 -1.5591  2.3462  0.7214
 2182SOL    HW2 6836   0.695   3.261   3.820 -0.9883  0.5962  0.1277
 2183SOL     OW 6837   1.913   4.562   4.269 -0.0387  0.3951  0.2808
 2183SOL    HW1 6838   1.830   4.610   4.240 -0.9929 -2.3192 -1.9861
 2183SOL    HW2 6839   1.969   4.542   4.189  1.7089  0.1772  1.5069
 2184SOL     OW 6840   5.860   4.499   0.732  0.0699 -0.0716  0.2820
 2184SOL    HW1 6841   5.792   4.461   0.795  0.2677 -0.9030  0.0106
 2184SOL    HW2 6842   5.816   4.569   0.675 -0.1176  0.6561  1.2975
 2185SOL     OW 6843   2.152   3.978   3.151  0.1324  0.6460  0.2262
 2185SOL    HW1 6844   2.244   4.009   3.128  0.5943 -0.5050  0.4570
 2185SOL    HW2 6845   2.153   3.934   3.241  0.0616 -2.2303 -1.0639
 2186SOL     OW 6846   0.273   0.211   4.730 -0.5936  0.2725  0.6607
 2186SOL    HW1 6847   0.291   0.113   4.738  0.3874  0.0932 -2.2418
 2186SOL    HW2 6848   0.194   0.225   4.669  0.5175  1.2420 -0.6195
 2187SOL     OW 6849   0.279   4.796   4.661  0.2297 -0.3516 -0.0867
 2187SOL    HW1 6850   0.186   4.802   4.624 -0.0140  0.8817  0.6569
 2187SOL    HW2 6851   0.275   4.769   4.757  0.5331  1.1259  0.3587
 2188SOL     OW 6852   0.898   5.900   3.360  0.2339  0.1714  0.4929
 2188SOL    HW1 6853   0.876   5.976   3.420  0.0181  0.5511 -0.0573
 2188SOL    HW2 6854   0.987   5.917   3.317 -0.3597  0.7073 -0.5547
 2189SOL     OW 6855   5.398   4.428   0.200  0.3640  0.6098  0.3839
 2189SOL    HW1 6856   5.388   4.487   0.119 -0.7195  0.7671  0.6064
 2189SOL    HW2 6857   5.483   4.376   0.194  0.6887  1.2224 -0.4623
 2190SOL     OW 6858   0.352   5.215   5.160 -0.1902  0.2755  0.8663
 2190SOL    HW1 6859   0.354   5.312   5.135 -1.1607  0.0538 -0.1311
 2190SOL    HW2 6860   0.417   5.164   5.103 -1.4091 -0.0169 -0.2952
 2191SOL     OW 6861   5.036   0.830   5.552 -0.0592 -0.4285  0.2193
 2191SOL    HW1 6862   5.036   0.741   5.598 -2.2397 -0.2135  0.7364
 2191SOL    HW2 6863   4.980   0.895   5.605 -0.3451  0.6237 -1.2982
 2192SOL     OW 6864   2.666   0.043   3.555 -0.5497 -0.3170  0.1441
 2192SOL    HW1 6865   2.724  -0.018   3.500 -0.7325 -1.0618  0.7671
 2192SOL    HW2 6866   2.570   0.028   3.531 -0.4922  2.2047 -2.2357
 2193SOL     OW 6867   1.271   0.903   5.096 -0.1654  0.6827  0.5319
 2193SOL    HW1 6868   1.281   0.893   4.997  0.9625 -1.3791  0.7979
 2193SOL    HW2 6869   1.224   0.989   5.116  0.9363  1.9074 -1.7109
 2194SOL     OW 6870   2.330   2.165   5.722  0.1175 -0.3226  1.0644
 2194SOL    HW1 6871   2.349   2.134   5.629 -0.4071 -1.9069  1.4564
 2194SOL    HW2 6872   2.405   2.136   5.782 -0.4309 -0.9870  1.4530
 2195SOL     OW 6873   2.120   4.611   0.186 -0.6456  0.7104  0.3357
 2195SOL    HW1 6874   2.111   4.515   0.214 -1.1091 -0.2925 -2.7919
 2195SOL    HW2 6875   2.035   4.660   0.205 -1.0274  0.0172  0.4450
 2196SOL     OW 6876   0.144   0.433   2.989  0.2359  0.2587  0.2678
 2196SOL    HW1 6877   0.170   0.337   2.980  1.3543  0.5981 -0.3329
 2196SOL    HW2 6878   0.058   0.449   2.941  0.2736 -0.3465 -0.0096
 2197SOL     OW 6879   5.468   5.806   4.679 -0.5219  0.0849 -0.0149
 2197SOL    HW1 6880   5.480   5.873   4.606 -1.0161  1.2349  0.9219
 2197SOL    HW2 6881   5.444   5.718   4.640  3.1828 -0.4418 -1.5119
 2198SOL     OW 6882   1.163   3.811   5.699  0.0149 -0.1228 -0.7071
 2198SOL    HW1 6883   1.065   3.831   5.701  0.4195  2.1061 -0.7667
 2198SOL    HW2 6884   1.190   3.768   5.785 -0.6347  1.3673  0.2823
 2199SOL     OW 6885   1.102   5.574   5.066  0.4507 -0.3756  0.1256
 2199SOL    HW1 6886   1.059   5.485   5.080  0.3592 -0.3734 -0.1418
 2199SOL    HW2 6887   1.094   5.601   4.970 -0.2028  0.2757  0.3584
 2200SOL     OW 6888   0.803   5.728   5.061  0.3919  0.2473  0.9318
 2200SOL    HW1 6889   0.881   5.677   5.025  1.0012  1.0683  1.0549
 2200SOL    HW2 6890   0.748   5.669   5.119  1.4027 -0.1306  1.5313
 2201SOL     OW 6891   2.613   0.081   4.223  0.6217 -0.0407 -0.4398
 2201SOL    HW1 6892   2.700   0.043   4.190  0.0198 -0.8811 -1.0846
 2201SOL    HW2 6893   2.557   0.109   4.145 -0.0804 -0.3758 -0.0572
 2202SOL     OW 6894   1.682   0.025   1.686  0.3793  0.2911 -0.1276
 2202SOL    HW1 6895   1.598  -0.028   1.693  0.5817  0.2062  2.5264
 2202SOL    HW2 6896   1.661   0.121   1.675  0.0078  0.0413 -1.9955
 2203SOL     OW 6897   2.355   0.054   3.782  0.1121  0.5591 -0.4616
 2203SOL    HW1 6898   2.301   0.089   3.705  1.3685  2.5505 -0.5087
 2203SOL    HW2 6899   2.403  -0.029   3.754  0.5967  1.2835 -1.8892
 2204SOL     OW 6900   1.829   5.582   4.888  0.2978 -0.1836  1.0425
 2204SOL    HW1 6901   1.862   5.488   4.897  0.1489 -0.4230 -0.7122
 2204SOL    HW2 6902   1.886   5.632   4.824 -0.3472  0.5770  1.0419
 2205SOL     OW 6903   5.447   4.553   4.821  0.2394  0.2712 -0.4467
 2205SOL    HW1 6904   5.493   4.466   4.842  1.6493  0.3483 -2.8957
 2205SOL    HW2 6905   5.515   4.626   4.819 -0.6160  1.0762 -0.4736
 2206SOL     OW 6906   2.470   5.795   5.100 -0.2146  0.3307  0.7241
 2206SOL    HW1 6907   2.546   5.840   5.053  0.9802 -1.1657  1.1446
 2206SOL    HW2 6908   2.503   5.754   5.185 -1.2643 -1.2613  0.3939
 2207SOL     OW 6909   0.951   2.461   4.953  0.2515  0.0588  0.3317
 2207SOL    HW1 6910   1.050   2.463   4.944  0.3151 -0.1069  0.9342
 2207SOL    HW2 6911   0.917   2.553   4.975  0.4230 -0.1356  1.4921
 2208SOL     OW 6912   2.205   0.281   4.409  0.1192 -0.0446 -0.3397
 2208SOL    HW1 6913   2.232   0.278   4.313  1.5879 -0.1188  0.0503
 2208SOL    HW2 6914   2.145   0.360   4.424  0.3359  0.2964 -1.2018
 2209SOL     OW 6915   0.948   4.560   5.918  0.2811  0.3357 -0.1893
 2209SOL    HW1 6916   0.894   4.590   5.839  2.2551  1.9756 -1.0130
 2209SOL    HW2 6917   1.035   4.609   5.919  0.9753 -0.8061  2.1580
 2210SOL     OW 6918   0.253   0.153   1.565 -0.4179  0.5909 -0.2955
 2210SOL    HW1 6919   0.230   0.160   1.468 -0.1738  3.2251 -0.2391
 2210SOL    HW2 6920   0.335   0.096   1.575 -2.2164 -2.3468 -1.2488
 2211SOL     OW 6921   1.047   2.774   5.664 -0.1636  0.3199 -0.5966
 2211SOL    HW1 6922   0.996   2.722   5.733  0.6642 -0.3799 -0.4892
 2211SOL    HW2 6923   1.137   2.799   5.702 -0.0688  0.7561 -1.0981
 2212SOL     OW 6924   2.079   3.673   0.458 -0.0377 -0.0213 -0.4056
 2212SOL    HW1 6925   2.125   3.744   0.406 -0.5614 -0.8888 -2.1122
 2212SOL    HW2 6926   2.114   3.583   0.432 -0.7006 -0.5152  0.3413
 2213SOL     OW 6927   2.230   5.588   5.296  0.0442 -0.3179 -0.0145
 2213SOL    HW1 6928   2.212   5.577   5.394 -0.2925 -0.9925 -0.1533
 2213SOL    HW2 6929   2.324   5.560   5.277 -0.2164 -1.1706 -0.0547
 2214SOL     OW 6930   5.456   0.508   0.157  0.2502  0.0220 -0.0524
 2214SOL    HW1 6931   5.534   0.532   0.100 -0.4401 -0.9168 -1.4412
 2214SOL    HW2 6932   5.488   0.472   0.245  1.3631  0.1330 -0.4050
 2215SOL     OW 6933   2.018   3.286   0.510 -0.5421  0.0884 -0.2158
 2215SOL    HW1 6934   2.111   3.297   0.543 -1.0845  1.1936  1.0030
 2215SOL    HW2 6935   1.994   3.362   0.449 -0.8385  0.1235 -0.0591
 2216SOL     OW 6936   0.152   0.159   4.106  0.3949 -0.5933 -0.2442
 2216SOL    HW1 6937   0.241   0.141   4.064  0.2762 -0.6724 -0.4623
 2216SOL    HW2 6938   0.097   0.076   4.105  0.5494 -0.7099  0.4567
 2217SOL     OW 6939   1.086   4.244   5.575 -0.7921 -0.6926  0.2975
 2217SOL    HW1 6940   1.006   4.288   5.616  0.5385 -0.0130  2.3390
 2217SOL    HW2 6941   1.107   4.160   5.625 -0.5719 -1.2049 -0.6249
 2218SOL     OW 6942   0.405   5.249   3.318  0.5592 -0.3386 -0.2032
 2218SOL    HW1 6943   0.360   5.319   3.262  2.6899  1.1954 -0.1257
 2218SOL    HW2 6944   0.483   5.290   3.366  0.1698 -2.1128  2.1648
 2219SOL     OW 6945   1.409   0.485   0.441 -0.0431  0.0161  0.1502
 2219SOL    HW1 6946   1.341   0.512   0.373 -0.2517 -0.6640  0.0862
 2219SOL    HW2 6947   1.496   0.465   0.396  0.0422  0.3248  0.1724
 2220SOL     OW 6948   1.481   2.387   1.051 -0.6075 -0.1658 -0.1409
 2220SOL    HW1 6949   1.434   2.474   1.037  2.0595  0.9522 -3.3846
 2220SOL    HW2 6950   1.425   2.313   1.014 -1.2121  0.7202 -1.0625
 2221SOL     OW 6951   1.725   1.410   1.828  0.3380 -0.2116  0.0440
 2221SOL    HW1 6952   1.651   1.346   1.848 -0.0261  0.2111  0.0815
 2221SOL    HW2 6953   1.780   1.425   1.910  0.3946 -0.4401  0.0469
 2222SOL     OW 6954   2.975   1.076   0.929 -0.0548  0.3544  0.4669
 2222SOL    HW1 6955   3.062   1.095   0.883  0.7097 -0.4797  1.5155
 2222SOL    HW2 6956   2.940   1.160   0.969  0.7187  0.5402  0.7797
 2223SOL     OW 6957   3.633   1.850   1.695 -0.2079  0.1691 -0.2858
 2223SOL    HW1 6958   3.676   1.825   1.782  1.1028 -0.8865 -1.2059
 2223SOL    HW2 6959   3.688   1.920   1.650 -0.3143 -0.0511 -0.7613
 2224SOL     OW 6960   3.228   2.737   0.443  0.1799 -0.2624 -0.8711
 2224SOL    HW1 6961   3.320   2.713   0.412  2.1954  3.7851  1.2466
 2224SOL    HW2 6962   3.190   2.807   0.383 -0.7363 -0.5648 -0.6573
 2225SOL     OW 6963   2.672   1.152   5.616  0.7500 -0.5690 -0.3760
 2225SOL    HW1 6964   2.771   1.160   5.625  0.6689 -0.4340  0.5234
 2225SOL    HW2 6965   2.649   1.125   5.523  1.7585 -2.6346 -0.0783
 2226SOL     OW 6966   3.254   1.297   2.445 -0.7114  0.6579 -0.6649
 2226SOL    HW1 6967   3.217   1.380   2.486 -2.0746 -0.1876 -0.1358
 2226SOL    HW2 6968   3.347   1.281   2.480 -0.5734  1.7349 -0.4910
 2227SOL     OW 6969   1.440   4.211   1.428 -0.2003 -0.2578 -0.7875
 2227SOL    HW1 6970   1.501   4.166   1.493  0.0338  1.8839  0.5782
 2227SOL    HW2 6971   1.489   4.227   1.342  0.4051 -0.6397 -0.5227
 2228SOL     OW 6972   3.925   0.867   1.819  0.4135 -0.1418  0.2738
 2228SOL    HW1 6973   3.842   0.914   1.790  0.6911  1.2821  1.6797
 2228SOL    HW2 6974   3.901   0.789   1.877  0.0477  0.1434  0.5097
 2229SOL     OW 6975   4.012   1.982   0.296 -0.3221  0.2981  0.1700
 2229SOL    HW1 6976   4.086   1.931   0.339 -0.2235 -0.4585 -0.8744
 2229SOL    HW2 6977   3.971   2.043   0.363  1.3152  0.8218  0.7486
 2230SOL     OW 6978   2.281   0.876   0.680 -0.0787  0.6021  0.0601
 2230SOL    HW1 6979   2.335   0.864   0.763 -1.2915  0.6298  0.8799
 2230SOL    HW2 6980   2.334   0.846   0.601  1.0288  0.3973  0.8618
 2231SOL     OW 6981   1.449   1.165   2.049  0.0321  0.3333  0.2183
 2231SOL    HW1 6982   1.428   1.090   2.112  0.1879  0.4643  0.4279
 2231SOL    HW2 6983   1.513   1.228   2.092 -2.2932  2.1758  1.1914
 2232SOL     OW 6984   5.682   0.246   0.149 -0.0914 -0.3863 -0.0816
 2232SOL    HW1 6985   5.648   0.276   0.238 -0.2001  0.6231 -0.4586
 2232SOL    HW2 6986   5.612   0.190   0.103  0.5981 -2.4108  1.1737
 2233SOL     OW 6987   4.205   5.562   0.415  0.7754  0.1032  0.3116
 2233SOL    HW1 6988   4.122   5.618   0.404  0.0571 -1.0177 -0.1075
 2233SOL    HW2 6989   4.253   5.592   0.497 -0.0112  0.8121  0.5437
 2234SOL     OW 6990   3.597   2.841   0.950  0.5652  0.2562  0.1080
 2234SOL    HW1 6991   3.573   2.777   1.023 -1.6477  0.6974 -0.1571
 2234SOL    HW2 6992   3.586   2.796   0.861  0.4681  0.5417 -0.0254
 2235SOL     OW 6993   1.325   5.152   2.059  0.5003 -0.1253 -0.7064
 2235SOL    HW1 6994   1.287   5.062   2.078 -1.3036  0.4911 -1.1410
 2235SOL    HW2 6995   1.303   5.214   2.134 -0.1145  0.4477 -1.3406
 2236SOL     OW 6996   0.540   0.545   0.390 -0.2115 -0.3634 -0.1389
 2236SOL    HW1 6997   0.559   0.604   0.311  2.0742 -0.1185  0.5187
 2236SOL    HW2 6998   0.446   0.513   0.385  0.0171 -0.8899 -3.3152
 2237SOL     OW 6999   2.595   2.726   1.917  0.0270 -0.2415 -0.6422
 2237SOL    HW1 7000   2.653   2.785   1.860 -0.5059  0.2499 -0.6839
 2237SOL    HW2 7001   2.641   2.638   1.931  1.9139  0.9802  1.3914
 2238SOL     OW 7002   2.268   0.164   1.973 -0.4877  0.3503 -0.2372
 2238SOL    HW1 7003   2.309   0.075   1.994  0.0007  0.7038  0.3540
 2238SOL    HW2 7004   2.290   0.228   2.046 -2.0239  0.5873  0.0402
 2239SOL     OW 7005   2.231   2.644   0.569 -0.1963 -0.4184  0.2390
 2239SOL    HW1 7006   2.247   2.666   0.473 -2.1486 -1.1958 -0.3224
 2239SOL    HW2 7007   2.209   2.547   0.579  2.7619 -1.0504  1.9174
 2240SOL     OW 7008   4.285   5.839   1.247 -0.2086  0.2477 -0.4427
 2240SOL    HW1 7009   4.377   5.876   1.235 -0.1919  0.0945 -0.7873
 2240SOL    HW2 7010   4.289   5.756   1.302 -0.2172  0.6052  0.1120
 2241SOL     OW 7011   0.378   0.985   1.706 -0.0498  0.6282 -0.1794
 2241SOL    HW1 7012   0.445   1.054   1.734  1.1456 -0.8122  0.5788
 2241SOL    HW2 7013   0.299   0.989   1.768 -0.3093  1.7388 -0.5490
 2242SOL     OW 7014   2.653   5.602   1.571 -0.0145 -0.2327 -0.4548
 2242SOL    HW1 7015   2.700   5.534   1.515  0.2429  0.0360 -0.5657
 2242SOL    HW2 7016   2.586   5.556   1.630  1.0370 -0.7440  0.3856
 2243SOL     OW 7017   3.863   1.073   5.462  0.3003 -0.3189  0.7298
 2243SOL    HW1 7018   3.788   1.050   5.399  0.2801 -1.3860  1.1252
 2243SOL    HW2 7019   3.874   1.173   5.465 -2.8225  0.1353  2.5806
 2244SOL     OW 7020   1.795   0.474   1.274  0.0838  0.2471  0.9355
 2244SOL    HW1 7021   1.824   0.399   1.333 -0.5774 -1.0288 -0.3307
 2244SOL    HW2 7022   1.845   0.471   1.188 -1.2446  0.1548  0.1427
 2245SOL     OW 7023   3.805   0.726   1.253  0.2504 -0.2143  0.4644
 2245SOL    HW1 7024   3.855   0.809   1.282 -2.1024  1.9174 -1.1619
 2245SOL    HW2 7025   3.864   0.646   1.266  2.6165  1.6410  2.2475
 2246SOL     OW 7026   0.472   2.113   1.654  0.1241  0.1351  0.4005
 2246SOL    HW1 7027   0.470   2.039   1.587 -1.3064  0.8850 -0.4359
 2246SOL    HW2 7028   0.466   2.075   1.746 -1.4875 -0.7738 -0.0444
 2247SOL     OW 7029   1.466   1.728   0.718  0.7436 -0.1975  0.0662
 2247SOL    HW1 7030   1.384   1.783   0.706  2.5117  2.4660 -0.5025
 2247SOL    HW2 7031   1.448   1.634   0.688 -1.9993  0.3331 -0.1818
 2248SOL     OW 7032   2.245   1.873   1.534  0.1518  0.2412  0.0702
 2248SOL    HW1 7033   2.159   1.821   1.530 -0.7110  1.6777 -0.7046
 2248SOL    HW2 7034   2.301   1.852   1.454  1.0840 -1.5327  1.1034
 2249SOL     OW 7035   4.020   1.150   1.845 -0.3132  0.0504  0.3516
 2249SOL    HW1 7036   3.985   1.069   1.799 -1.2524  0.2518  0.7032
 2249SOL    HW2 7037   4.038   1.129   1.941  1.0102 -0.1819  0.0828
 2250SOL     OW 7038   0.743   0.994   2.075  0.1459 -0.2202 -0.3873
 2250SOL    HW1 7039   0.733   0.935   2.154 -0.8847  0.5491  0.0704
 2250SOL    HW2 7040   0.840   1.003   2.052  0.3139 -2.3141 -0.6755
 2251SOL     OW 7041   4.719   1.551   0.629 -0.3568 -0.5214 -0.4037
 2251SOL    HW1 7042   4.789   1.480   0.618  0.2088  0.1187 -1.0314
 2251SOL    HW2 7043   4.702   1.565   0.726  0.8205 -0.2766 -0.2148
 2252SOL     OW 7044   2.807   2.357   2.405 -0.1755 -0.0927 -0.5810
 2252SOL    HW1 7045   2.757   2.408   2.476  1.6419  2.6039 -1.0711
 2252SOL    HW2 7046   2.744   2.330   2.333 -2.0495 -2.7009  1.7968
 2253SOL     OW 7047   5.470   5.738   2.526 -0.1635 -0.0663 -0.3804
 2253SOL    HW1 7048   5.501   5.643   2.533  0.1409  0.0008 -0.7846
 2253SOL    HW2 7049   5.384   5.741   2.476 -2.4163 -0.5601  3.1204
 2254SOL     OW 7050   2.168   0.464   1.177 -0.2899 -0.4643  0.2918
 2254SOL    HW1 7051   2.187   0.519   1.258  0.2949  0.8277 -0.6899
 2254SOL    HW2 7052   2.071   0.471   1.153 -0.0654  0.8405 -0.3017
 2255SOL     OW 7053   4.997   1.787   1.580 -0.3548 -0.0733  0.5843
 2255SOL    HW1 7054   5.051   1.750   1.656 -1.5953 -0.1126  1.4734
 2255SOL    HW2 7055   5.023   1.883   1.564  2.0483 -0.8763 -0.9701
 2256SOL     OW 7056   3.404   1.980   0.975  0.0713  0.0241  0.1174
 2256SOL    HW1 7057   3.352   1.968   1.060  0.1064 -0.1151  0.1195
 2256SOL    HW2 7058   3.344   2.018   0.905 -0.2500 -0.8669 -0.1089
 2257SOL     OW 7059   3.356   0.931   1.369  0.2724  0.0591 -0.5136
 2257SOL    HW1 7060   3.453   0.909   1.353 -0.3160 -0.9204 -3.3995
 2257SOL    HW2 7061   3.328   1.002   1.305 -1.4112 -1.2425 -1.2944
 2258SOL     OW 7062   2.471   2.576   0.953  0.5354 -0.1861  0.6301
 2258SOL    HW1 7063   2.392   2.518   0.933  1.6686 -1.3287 -0.7363
 2258SOL    HW2 7064   2.477   2.648   0.883  0.8408 -0.2542  0.5841
 2259SOL     OW 7065   1.509   5.601   5.392  0.4205  0.3427 -0.2442
 2259SOL    HW1 7066   1.432   5.557   5.438 -0.2901  0.6109 -1.1408
 2259SOL    HW2 7067   1.590   5.597   5.451  0.2093 -1.5366  0.0090
 2260SOL     OW 7068   1.706   0.961   0.845 -0.0623  0.1361 -0.1120
 2260SOL    HW1 7069   1.775   1.024   0.810  1.3812 -1.4015 -0.1866
 2260SOL    HW2 7070   1.707   0.962   0.945  0.0244  0.1723 -0.1130
 2261SOL     OW 7071   1.378   0.957   1.647 -0.2506 -0.0247  0.3809
 2261SOL    HW1 7072   1.474   0.974   1.670 -0.2329  1.2432 -0.5393
 2261SOL    HW2 7073   1.373   0.892   1.570 -0.0699  0.7922 -0.3361
 2262SOL     OW 7074   2.489   0.312   1.763  0.0827 -0.2282  0.5929
 2262SOL    HW1 7075   2.465   0.394   1.815 -1.0956 -0.6254  0.6822
 2262SOL    HW2 7076   2.578   0.327   1.719 -0.0175  1.0149  0.7645
 2263SOL     OW 7077   4.836   2.950   5.639  0.9381 -0.1285 -0.2588
 2263SOL    HW1 7078   4.856   2.958   5.736 -0.4658 -0.1646  0.0515
 2263SOL    HW2 7079   4.890   2.875   5.600  0.4013 -1.1149  0.8324
 2264SOL     OW 7080   3.583   1.589   0.845 -0.6918 -0.2230  0.4529
 2264SOL    HW1 7081   3.633   1.515   0.890 -0.0167  0.5992  1.0880
 2264SOL    HW2 7082   3.607   1.676   0.888 -1.3859  0.3822 -0.3588
 2265SOL     OW 7083   0.808   3.866   1.946  0.2707 -0.4096 -0.2025
 2265SOL    HW1 7084   0.813   3.789   1.882  0.9338  0.1551 -0.8377
 2265SOL    HW2 7085   0.861   3.844   2.028  0.4716 -0.6273 -0.3892
 2266SOL     OW 7086   4.604   0.309   5.270 -0.0135  0.0731 -0.6008
 2266SOL    HW1 7087   4.619   0.258   5.355  0.9276  1.6294  0.2283
 2266SOL    HW2 7088   4.691   0.318   5.221 -0.1624  0.8695 -0.7277
 2267SOL     OW 7089   2.683   0.187   0.784  0.7018  0.1729 -0.7994
 2267SOL    HW1 7090   2.627   0.177   0.702  0.5878  1.7591 -0.9478
 2267SOL    HW2 7091   2.779   0.170   0.761  0.8726  2.0052 -1.6413
 2268SOL     OW 7092   2.516   2.087   1.739  0.2199  0.3989 -0.3358
 2268SOL    HW1 7093   2.512   1.987   1.745 -1.2958  0.5418  2.6470
 2268SOL    HW2 7094   2.425   2.125   1.748  1.1230  2.1148  2.9418
 2269SOL     OW 7095   3.394   1.791   0.728  0.0349 -0.3137  0.1327
 2269SOL    HW1 7096   3.435   1.816   0.816 -0.3484 -0.0361  0.2364
 2269SOL    HW2 7097   3.466   1.775   0.661  0.3699 -1.6935  0.7938
 2270SOL     OW 7098   2.712   1.782   1.632  0.4457 -0.0001 -0.1301
 2270SOL    HW1 7099   2.755   1.763   1.721 -0.6368  0.9971  0.6216
 2270SOL    HW2 7100   2.613   1.778   1.642  0.3200 -0.3656 -1.4243
 2271SOL     OW 7101   1.181   2.599   5.459 -0.5448 -0.1403 -0.2655
 2271SOL    HW1 7102   1.183   2.678   5.521  0.2018 -0.9495  0.7662
 2271SOL    HW2 7103   1.268   2.550   5.465 -0.7814 -0.7290 -1.3382
 2272SOL     OW 7104   3.700   1.931   1.357  0.0099  0.0083 -0.1241
 2272SOL    HW1 7105   3.658   1.840   1.355 -0.0531  0.0404 -0.2233
 2272SOL    HW2 7106   3.636   1.997   1.395 -0.1882  0.1413 -0.6788
 2273SOL     OW 7107   2.840   0.424   0.893  0.2015 -0.1485 -0.2834
 2273SOL    HW1 7108   2.869   0.460   0.804  0.6042  0.3209  0.0327
 2273SOL    HW2 7109   2.741   0.412   0.893  0.1276  0.4399 -0.5843
 2274SOL     OW 7110   4.361   0.977   1.680 -0.5401  0.9849 -0.1766
 2274SOL    HW1 7111   4.439   0.959   1.741 -0.3888  2.4390  0.0848
 2274SOL    HW2 7112   4.322   1.067   1.700 -0.7888  1.3019 -1.8976
 2275SOL     OW 7113   4.538   5.891   1.190 -0.4481  0.3165 -0.0153
 2275SOL    HW1 7114   4.595   5.926   1.116 -1.0985 -0.6825 -1.0167
 2275SOL    HW2 7115   4.558   5.794   1.204 -1.2752  0.1738  0.2285
 2276SOL     OW 7116   1.782   4.193   2.021 -0.0179  0.6437 -0.1663
 2276SOL    HW1 7117   1.789   4.154   2.112 -0.6106 -0.8576 -0.7441
 2276SOL    HW2 7118   1.732   4.280   2.026  0.3960  0.8362  0.9866
 2277SOL     OW 7119   3.547   2.910   1.443  0.0437  0.5486  0.0029
 2277SOL    HW1 7120   3.623   2.954   1.490  0.0071  0.8112 -0.1822
 2277SOL    HW2 7121   3.547   2.937   1.347  0.2968 -0.2289 -0.2150
 2278SOL     OW 7122   1.815   0.182   1.328 -0.3533  0.1401  0.0480
 2278SOL    HW1 7123   1.855   0.122   1.398 -0.9884  1.4223  1.5810
 2278SOL    HW2 7124   1.862   0.167   1.241  2.1553  0.1971  1.3073
 2279SOL     OW 7125   2.749   2.202   1.768  0.2505  0.6916 -0.3181
 2279SOL    HW1 7126   2.664   2.153   1.750  0.7828  0.3720 -2.2365
 2279SOL    HW2 7127   2.808   2.196   1.687  1.5083  2.1089  0.4514
 2280SOL     OW 7128   4.080   2.245   1.467  0.2906  0.4202  0.1176
 2280SOL    HW1 7129   4.009   2.254   1.398  0.5035  1.3955  0.0099
 2280SOL    HW2 7130   4.156   2.191   1.430 -0.4366 -0.7358  0.2820
 2281SOL     OW 7131   2.033   5.912   0.852 -0.6947 -0.4006  0.4785
 2281SOL    HW1 7132   2.044   5.890   0.948 -1.3350 -0.2768  0.5849
 2281SOL    HW2 7133   1.997   6.005   0.842  1.4118  0.4154  0.0514
 2282SOL     OW 7134   5.786   2.211   0.997  0.8202  0.4398 -0.0354
 2282SOL    HW1 7135   5.769   2.235   1.092  1.3169 -0.3853  0.2797
 2282SOL    HW2 7136   5.733   2.130   0.973  0.6777  0.6608 -0.4680
 2283SOL     OW 7137   1.094   0.617   1.075 -0.1848 -0.4609 -0.4533
 2283SOL    HW1 7138   1.010   0.608   1.128  0.2681 -0.5813  0.2608
 2283SOL    HW2 7139   1.114   0.530   1.030 -0.1398 -0.6097 -0.1525
 2284SOL     OW 7140   1.131   2.169   0.946 -0.3324  0.0081 -1.4739
 2284SOL    HW1 7141   1.037   2.193   0.971 -0.9923 -0.9846 -2.8646
 2284SOL    HW2 7142   1.191   2.181   1.026 -2.1470 -2.1141  0.3460
 2285SOL     OW 7143   3.170   5.100   0.333  0.2120 -0.4827 -0.0156
 2285SOL    HW1 7144   3.114   5.024   0.301  0.5293 -0.8036  0.1826
 2285SOL    HW2 7145   3.262   5.093   0.294  0.7856 -1.1965  1.3741
 2286SOL     OW 7146   3.905   5.086   4.958  0.0368  0.1392  0.6038
 2286SOL    HW1 7147   3.890   5.168   5.014 -1.2017  0.1136  0.3450
 2286SOL    HW2 7148   3.856   5.096   4.872  0.0834 -0.7724  0.4689
 2287SOL     OW 7149   3.073   0.958   1.419  0.5594  0.1745  0.3178
 2287SOL    HW1 7150   3.171   0.946   1.433  1.0034  1.8205 -1.1295
 2287SOL    HW2 7151   3.053   1.053   1.397 -1.2518 -0.3028 -0.2962
 2288SOL     OW 7152   2.025   0.962   0.602 -0.3335  0.6168 -0.5987
 2288SOL    HW1 7153   2.113   0.915   0.614  0.3375  1.9219 -0.2350
 2288SOL    HW2 7154   1.982   0.931   0.518  0.1468 -0.5401 -0.4432
 2289SOL     OW 7155   2.529   3.191   0.884 -0.0483 -0.2742  0.6792
 2289SOL    HW1 7156   2.492   3.099   0.887 -2.0313  0.4735  0.8113
 2289SOL    HW2 7157   2.502   3.240   0.967 -0.5265  0.9445 -0.1666
 2290SOL     OW 7158   2.927   1.663   0.667 -0.5289 -0.1259  0.0712
 2290SOL    HW1 7159   2.943   1.651   0.569  1.4011 -1.8119  0.5139
 2290SOL    HW2 7160   3.007   1.706   0.708  0.6787 -3.3895  1.5102
 2291SOL     OW 7161   1.854   2.109   1.386  0.1507 -0.0070  0.0052
 2291SOL    HW1 7162   1.830   2.024   1.338 -2.8215  0.3671  0.6013
 2291SOL    HW2 7163   1.926   2.157   1.336  1.0927 -2.2935 -0.9617
 2292SOL     OW 7164   3.431   1.270   5.476 -0.1547 -0.1311 -0.0985
 2292SOL    HW1 7165   3.399   1.177   5.460 -0.6514 -0.2998  1.6544
 2292SOL    HW2 7166   3.414   1.295   5.572  1.3079  1.2344 -0.1557
 2293SOL     OW 7167   0.678   0.676   0.140 -0.5491  0.1912 -0.0780
 2293SOL    HW1 7168   0.719   0.765   0.156  0.0886 -0.0738 -0.2008
 2293SOL    HW2 7169   0.750   0.608   0.123 -0.8558 -0.8490  2.3117
 2294SOL     OW 7170   2.368   4.713   0.207  0.3109  0.0897  0.0517
 2294SOL    HW1 7171   2.392   4.780   0.137  0.4716  0.4503  0.4482
 2294SOL    HW2 7172   2.284   4.665   0.181 -0.6326  1.4740  0.4535
 2295SOL     OW 7173   2.434   0.768   1.676 -0.0578  0.2134 -0.0837
 2295SOL    HW1 7174   2.433   0.686   1.733 -0.8976  0.4996  0.3275
 2295SOL    HW2 7175   2.350   0.820   1.691  1.1248  1.9567  0.8426
 2296SOL     OW 7176   1.510   1.339   1.190  0.3680 -0.4023 -0.2941
 2296SOL    HW1 7177   1.421   1.293   1.196 -0.4509  1.1106 -0.0715
 2296SOL    HW2 7178   1.552   1.319   1.101 -0.4345 -0.7426 -0.6101
 2297SOL     OW 7179   3.205   5.802   1.219  0.9097  0.2230  0.3532
 2297SOL    HW1 7180   3.138   5.751   1.274  1.6895 -2.0011 -0.6333
 2297SOL    HW2 7181   3.169   5.893   1.199 -1.5759 -0.6693  0.3944
 2298SOL     OW 7182   3.046   0.486   1.900  0.0600 -0.2515 -0.3434
 2298SOL    HW1 7183   3.104   0.553   1.947  1.4675 -0.9104 -1.0818
 2298SOL    HW2 7184   3.097   0.446   1.824 -1.6386 -0.3052 -1.5123
 2299SOL     OW 7185   3.388   2.336   0.066 -0.5833 -0.4318  0.5734
 2299SOL    HW1 7186   3.380   2.355  -0.032 -1.7540 -2.5471  0.2036
 2299SOL    HW2 7187   3.425   2.245   0.080  2.7028  0.9897  2.2217
 2300SOL     OW 7188   2.560   1.711   1.001  0.0658  0.3842  0.0545
 2300SOL    HW1 7189   2.503   1.630   1.016  0.5757  0.2508  1.3855
 2300SOL    HW2 7190   2.508   1.792   1.027  0.4197  0.2667  1.2135
 2301SOL     OW 7191   5.907   0.676   0.949  0.4998  0.1307  0.2197
 2301SOL    HW1 7192   5.900   0.577   0.953 -0.5060  0.1874  0.1745
 2301SOL    HW2 7193   5.816   0.716   0.957  0.9484  1.0719  0.7694
 2302SOL     OW 7194   3.446   2.197   1.746 -0.5625  0.5490 -0.0594
 2302SOL    HW1 7195   3.526   2.154   1.704 -2.1097 -1.3434 -1.2543
 2302SOL    HW2 7196   3.445   2.294   1.723  0.7667  0.3763 -0.9940
 2303SOL     OW 7197   1.099   5.596   0.413 -0.2559  0.3183  0.8256
 2303SOL    HW1 7198   1.106   5.696   0.423  1.1690  0.0803  2.6821
 2303SOL    HW2 7199   1.022   5.563   0.466 -0.8823  0.4256  0.0090
 2304SOL     OW 7200   4.717   5.698   1.465  0.4990  0.0367  0.1349
 2304SOL    HW1 7201   4.804   5.661   1.496  0.9144  1.1789  0.4063
 2304SOL    HW2 7202   4.650   5.625   1.457  1.2986 -0.7613  0.5612
 2305SOL     OW 7203   2.024   5.769   0.348 -0.4518 -0.2016  0.0759
 2305SOL    HW1 7204   1.938   5.811   0.317 -0.6484 -1.3184 -0.9627
 2305SOL    HW2 7205   2.009   5.723   0.435 -0.8107 -0.0491  0.0980
 2306SOL     OW 7206   3.100   2.176   0.994 -0.3564  0.1698 -0.4024
 2306SOL    HW1 7207   3.036   2.240   1.037 -0.7169 -1.1591  1.1385
 2306SOL    HW2 7208   3.184   2.172   1.049 -0.1661 -0.3556 -0.7295
 2307SOL     OW 7209   3.329   0.108   0.228  0.2390  0.2966 -0.2766
 2307SOL    HW1 7210   3.397   0.043   0.195  0.6670  0.6673 -0.1320
 2307SOL    HW2 7211   3.266   0.061   0.291  1.1375  0.2478  0.5976
 2308SOL     OW 7212   2.013   1.074   0.269 -0.2485 -0.7498  0.1335
 2308SOL    HW1 7213   2.015   1.101   0.172  0.7035  0.1119  0.3716
 2308SOL    HW2 7214   2.089   1.012   0.287 -0.8579 -1.4921  0.1771
 2309SOL     OW 7215   3.871   5.858   0.959 -0.1304 -0.8981 -0.5926
 2309SOL    HW1 7216   3.799   5.916   0.921 -1.5612 -2.0198  0.3154
 2309SOL    HW2 7217   3.849   5.762   0.943  0.4847 -1.3144  0.8467
 2310SOL     OW 7218   5.876   2.661   2.503  0.0791 -0.3453 -0.4741
 2310SOL    HW1 7219   5.962   2.610   2.506 -0.6228 -1.6377 -1.4312
 2310SOL    HW2 7220   5.806   2.610   2.554 -0.6220 -0.3440 -1.4083
 2311SOL     OW 7221   3.770   4.237   5.735 -0.6087  0.3301  0.2236
 2311SOL    HW1 7222   3.863   4.239   5.701 -0.4052  0.9377  0.7941
 2311SOL    HW2 7223   3.721   4.318   5.704 -0.6045  0.5784  0.8521
 2312SOL     OW 7224   2.790   0.361   1.972 -0.1448 -0.8157  0.5741
 2312SOL    HW1 7225   2.807   0.270   1.935 -0.5786 -1.0989  1.0627
 2312SOL    HW2 7226   2.877   0.410   1.982  0.1216 -1.2962  0.6189
 2313SOL     OW 7227   3.312   1.493   0.926  0.1961 -0.6328 -0.1956
 2313SOL    HW1 7228   3.281   1.546   1.005 -0.0084 -1.0938  0.0338
 2313SOL    HW2 7229   3.385   1.543   0.879  0.4885 -0.4690  0.4285
 2314SOL     OW 7230   2.543   2.914   1.373 -0.2502  0.0062 -0.5004
 2314SOL    HW1 7231   2.447   2.886   1.371 -0.8788  1.9769 -0.6993
 2314SOL    HW2 7232   2.592   2.869   1.299 -0.9058 -1.3506 -0.1386
 2315SOL     OW 7233   2.988   1.872   1.716  0.4587  0.3688 -0.0187
 2315SOL    HW1 7234   3.004   1.780   1.682 -0.1412  0.3852 -0.3582
 2315SOL    HW2 7235   2.907   1.872   1.775 -0.8951  1.0726 -1.8002
 2316SOL     OW 7236   3.558   2.448   0.232 -0.3660 -0.1189  0.3287
 2316SOL    HW1 7237   3.643   2.464   0.182 -1.3351 -0.6111 -1.5787
 2316SOL    HW2 7238   3.485   2.423   0.167 -2.3207  1.5807  1.7177
 2317SOL     OW 7239   1.334   0.248   2.862 -0.3457  0.4836  0.6083
 2317SOL    HW1 7240   1.277   0.290   2.791 -0.6469 -0.5593  0.2153
 2317SOL    HW2 7241   1.281   0.180   2.911  0.6378 -0.7919 -0.0152
 2318SOL     OW 7242   2.425   1.833   1.336 -0.4523 -0.4522  0.2776
 2318SOL    HW1 7243   2.418   1.884   1.250  0.3857  1.5331  1.3401
 2318SOL    HW2 7244   2.491   1.877   1.396 -2.4984 -0.5603  2.7823
 2319SOL     OW 7245   1.092   2.438   2.334 -0.0391  0.5393  0.6303
 2319SOL    HW1 7246   1.032   2.516   2.319  1.4834  1.7607  0.5547
 2319SOL    HW2 7247   1.171   2.466   2.389  1.0696 -0.6824 -0.2470
 2320SOL     OW 7248   1.489   0.783   0.911  0.0689  0.0432  0.3101
 2320SOL    HW1 7249   1.416   0.774   0.843 -0.4096  0.8133  0.7009
 2320SOL    HW2 7250   1.570   0.821   0.867  0.4491 -1.3611 -0.2513
 2321SOL     OW 7251   1.628   0.193   5.575  0.2009 -0.1211 -0.0439
 2321SOL    HW1 7252   1.686   0.112   5.571 -0.4260 -0.5627 -0.4616
 2321SOL    HW2 7253   1.537   0.167   5.607 -0.1078  0.3587 -0.5026
 2322SOL     OW 7254   2.259   1.144   0.723 -0.3588  0.0844 -0.6748
 2322SOL    HW1 7255   2.258   1.045   0.711 -0.3810  0.3098 -3.0204
 2322SOL    HW2 7256   2.330   1.184   0.665 -0.4115  1.4555  0.1571
 2323SOL     OW 7257   0.635   2.464   0.778  0.7772 -1.1275  0.4499
 2323SOL    HW1 7258   0.657   2.386   0.720  0.9806 -0.7903  0.0654
 2323SOL    HW2 7259   0.601   2.432   0.866 -2.3448 -1.7305 -0.8221
 2324SOL     OW 7260   1.909   0.865   5.935  0.7101  0.0832  0.0834
 2324SOL    HW1 7261   1.948   0.956   5.947 -0.6494  0.5258  1.3967
 2324SOL    HW2 7262   1.829   0.870   5.875  1.2772 -0.4640 -0.7593
 2325SOL     OW 7263   1.892   2.190   0.216 -0.6344  0.0887  0.3219
 2325SOL    HW1 7264   1.805   2.212   0.259 -1.7435  0.1467 -1.8371
 2325SOL    HW2 7265   1.937   2.275   0.188 -0.3866  0.0038  0.4576
 2326SOL     OW 7266   1.259   0.209   1.021 -0.1225  0.4257 -0.2368
 2326SOL    HW1 7267   1.200   0.137   0.985 -2.6540  1.5125  1.4906
 2326SOL    HW2 7268   1.227   0.298   0.989 -0.3079  1.1445  1.7832
 2327SOL     OW 7269   5.229   1.252   5.606 -0.8581 -0.4482  0.2977
 2327SOL    HW1 7270   5.196   1.347   5.601  2.2061  0.7293  0.1262
 2327SOL    HW2 7271   5.215   1.208   5.517 -1.3246  0.2133  0.0286
 2328SOL     OW 7272   2.301   3.019   2.263  0.7141  0.1024  0.5574
 2328SOL    HW1 7273   2.372   2.949   2.254  0.1082 -0.4883  0.2713
 2328SOL    HW2 7274   2.343   3.107   2.282  1.5921 -0.0601 -0.5322
 2329SOL     OW 7275   0.298   1.268   0.812 -0.1418 -0.4683 -0.2536
 2329SOL    HW1 7276   0.256   1.178   0.805  0.1199 -0.5298 -1.2667
 2329SOL    HW2 7277   0.312   1.305   0.720 -1.4600  1.1855  0.1617
 2330SOL     OW 7278   1.646   0.638   0.642  0.6882  0.6423  0.7932
 2330SOL    HW1 7279   1.683   0.549   0.614  0.5749  0.7688  0.2079
 2330SOL    HW2 7280   1.616   0.688   0.560  1.1726  1.4123  1.0809
 2331SOL     OW 7281   2.241   5.926   0.220 -0.2048  0.2837 -0.0178
 2331SOL    HW1 7282   2.194   5.863   0.282  0.9838 -0.1043  0.4965
 2331SOL    HW2 7283   2.173   5.987   0.178 -1.3182 -1.0093 -0.1757
 2332SOL     OW 7284   0.901   0.296   2.013  0.4647  0.1525 -0.0307
 2332SOL    HW1 7285   0.889   0.200   2.036 -1.6250  0.4392  0.3184
 2332SOL    HW2 7286   0.880   0.310   1.916 -1.4074  0.5177  0.3743
 2333SOL     OW 7287   3.363   1.621   3.335 -0.4203  0.5670  0.1802
 2333SOL    HW1 7288   3.314   1.538   3.360  0.5426 -0.3503 -0.8898
 2333SOL    HW2 7289   3.297   1.691   3.306 -1.1966 -0.0461  0.4460
 2334SOL     OW 7290   1.830   0.704   0.827 -0.0460  0.2186 -0.4702
 2334SOL    HW1 7291   1.786   0.793   0.838  0.1105  0.3936 -1.2347
 2334SOL    HW2 7292   1.775   0.648   0.764  0.2285  0.0338 -0.5465
 2335SOL     OW 7293   3.818   0.454   4.974  0.1962 -0.5873  0.5452
 2335SOL    HW1 7294   3.776   0.544   4.982  2.3636  0.4877  0.6095
 2335SOL    HW2 7295   3.783   0.395   5.047 -0.4151  0.5612  1.2210
 2336SOL     OW 7296   2.377   1.090   0.269 -0.1343 -0.1935  0.0115
 2336SOL    HW1 7297   2.311   1.015   0.280 -0.4797 -0.2008 -1.7825
 2336SOL    HW2 7298   2.335   1.163   0.216  1.1098  0.0732 -0.6253
 2337SOL     OW 7299   2.531   2.544   2.176  0.3853 -0.2189  0.0167
 2337SOL    HW1 7300   2.571   2.497   2.097 -0.9233  1.4498 -1.7426
 2337SOL    HW2 7301   2.568   2.637   2.181 -0.7106  0.2173  0.3956
 2338SOL     OW 7302   1.276   0.175   0.385  0.9561 -0.3126  0.0595
 2338SOL    HW1 7303   1.212   0.248   0.408  0.2294 -1.3988  1.6656
 2338SOL    HW2 7304   1.317   0.139   0.469  0.6555 -2.3024 -0.6005
 2339SOL     OW 7305   2.244   0.707   2.680 -0.2589 -0.0036  0.2222
 2339SOL    HW1 7306   2.292   0.677   2.763  1.1616  0.2072 -0.4912
 2339SOL    HW2 7307   2.302   0.772   2.630 -1.9717  1.5262  0.1272
 2340SOL     OW 7308   3.237   5.694   5.614 -0.3055 -0.1831 -0.0287
 2340SOL    HW1 7309   3.160   5.735   5.663 -0.4669  0.9161 -1.1427
 2340SOL    HW2 7310   3.322   5.733   5.647 -0.2911 -0.6064  0.4517
 2341SOL     OW 7311   3.367   2.153   5.616  0.2521 -0.2841  0.2068
 2341SOL    HW1 7312   3.408   2.174   5.527  0.0054  1.4104  0.4562
 2341SOL    HW2 7313   3.282   2.103   5.602  0.1277  0.1196 -0.5353
 2342SOL     OW 7314   1.748   1.858   1.683  0.2106 -0.0648  0.5386
 2342SOL    HW1 7315   1.656   1.883   1.654  0.2756  0.7316  0.9771
 2342SOL    HW2 7316   1.788   1.933   1.736  1.6874  0.2552 -0.9300
 2343SOL     OW 7317   4.264   1.377   2.527  0.2920  0.1781  0.2023
 2343SOL    HW1 7318   4.250   1.386   2.626  0.7557 -0.1914  0.3071
 2343SOL    HW2 7319   4.177   1.356   2.483  0.3116 -1.1070  0.7139
 2344SOL     OW 7320   3.427   0.510   5.933 -0.1401  0.0813  0.0271
 2344SOL    HW1 7321   3.348   0.570   5.944 -0.9538 -0.7081 -1.3118
 2344SOL    HW2 7322   3.397   0.415   5.930  1.1064 -0.4279  1.8749
 2345SOL     OW 7323   2.013   3.236   1.801 -0.3747 -1.0488  0.1349
 2345SOL    HW1 7324   1.971   3.205   1.886 -0.8968 -2.6807 -0.6609
 2345SOL    HW2 7325   2.096   3.288   1.821 -2.2155  1.4886  1.7268
 2346SOL     OW 7326   3.724   5.326   0.510 -0.3475  0.0574 -0.3292
 2346SOL    HW1 7327   3.718   5.317   0.610  2.1912 -1.9542 -0.2333
 2346SOL    HW2 7328   3.757   5.240   0.471 -1.1106  0.8546 -2.9252
 2347SOL     OW 7329   3.201   1.854   1.911 -0.1171 -0.3822 -0.0138
 2347SOL    HW1 7330   3.128   1.852   1.843 -0.8056  1.0306  0.6349
 2347SOL    HW2 7331   3.177   1.796   1.989 -1.1890  1.0345  0.7671
 2348SOL     OW 7332   3.740   3.553   1.116 -0.0390 -0.2005  0.2403
 2348SOL    HW1 7333   3.781   3.588   1.200 -0.9808 -1.6711  1.3694
 2348SOL    HW2 7334   3.770   3.459   1.101 -0.4205 -0.1833 -0.7113
 2349SOL     OW 7335   1.273   1.595   5.475 -0.0499  0.3804  0.6251
 2349SOL    HW1 7336   1.318   1.549   5.552  1.0941  0.6467  0.1284
 2349SOL    HW2 7337   1.174   1.599   5.493 -0.0958 -1.5385  1.0510
 2350SOL     OW 7338   2.700   0.739   0.203 -0.6052 -0.7419 -0.6989
 2350SOL    HW1 7339   2.789   0.784   0.201 -0.9426 -0.0218 -0.2125
 2350SOL    HW2 7340   2.711   0.643   0.228  0.2313 -1.2269 -2.7272
 2351SOL     OW 7341   3.337   1.110   1.162  0.4570  0.1175 -0.7213
 2351SOL    HW1 7342   3.312   1.159   1.079 -0.8756  0.9939  0.1431
 2351SOL    HW2 7343   3.335   1.173   1.240  0.0249 -1.0214  0.2231
 2352SOL     OW 7344   3.832   5.389   1.679 -0.0602  0.3479 -0.0418
 2352SOL    HW1 7345   3.927   5.403   1.654 -0.3556 -0.3320 -1.6574
 2352SOL    HW2 7346   3.811   5.291   1.680 -0.6821  0.4724  0.5743
 2353SOL     OW 7347   0.758   2.128   2.269 -0.1333  0.1152  0.4402
 2353SOL    HW1 7348   0.847   2.150   2.307  1.7658 -0.6644 -3.1439
 2353SOL    HW2 7349   0.731   2.036   2.297  0.4513  0.1417  1.1023
 2354SOL     OW 7350   1.381   2.135   2.991  0.3430 -0.4762  0.1792
 2354SOL    HW1 7351   1.367   2.067   2.919  0.0513 -0.1298 -0.0934
 2354SOL    HW2 7352   1.292   2.169   3.024  0.4942  0.4386 -0.3248
 2355SOL     OW 7353   2.975   0.793   0.353  0.2149 -0.1496  0.1646
 2355SOL    HW1 7354   3.041   0.863   0.379  0.4251 -0.7316  1.2729
 2355SOL    HW2 7355   2.907   0.783   0.426  0.3670 -1.2951  0.1697
 2356SOL     OW 7356   1.038   1.281   5.799  0.0560  0.4516  0.0330
 2356SOL    HW1 7357   0.962   1.320   5.747  0.5568  1.3988 -0.0039
 2356SOL    HW2 7358   1.105   1.242   5.736  0.2440  0.8163  0.0079
 2357SOL     OW 7359   0.908   1.087   1.005 -0.1808 -0.3313  0.5024
 2357SOL    HW1 7360   0.838   1.041   0.951  0.4470 -0.2693 -0.3801
 2357SOL    HW2 7361   0.988   1.028   1.015 -0.7977 -0.9173  2.5870
 2358SOL     OW 7362   3.515   2.331   0.806  0.0404 -0.1577 -0.1019
 2358SOL    HW1 7363   3.460   2.248   0.797 -0.1077 -0.4813  2.8001
 2358SOL    HW2 7364   3.466   2.397   0.864  1.5779  0.6156  0.3781
 2359SOL     OW 7365   0.830   1.218   1.382 -0.5579  0.6127 -0.1508
 2359SOL    HW1 7366   0.850   1.273   1.301  0.3404  1.2707  0.5022
 2359SOL    HW2 7367   0.799   1.127   1.354  1.5614  0.1631 -1.2519
 2360SOL     OW 7368   2.182   2.402   2.783  0.4296 -0.2413 -0.0749
 2360SOL    HW1 7369   2.084   2.420   2.790  0.7072  1.0031  0.9710
 2360SOL    HW2 7370   2.233   2.478   2.824  1.9332  0.4182 -2.9173
 2361SOL     OW 7371   1.667   1.109   2.478  0.2975  0.6002 -0.1729
 2361SOL    HW1 7372   1.708   1.047   2.545  0.1810 -0.9432 -1.4949
 2361SOL    HW2 7373   1.567   1.105   2.485  0.2692 -0.1218 -0.9198
 2362SOL     OW 7374   3.392   0.821   0.856  0.2505  0.3714 -0.0858
 2362SOL    HW1 7375   3.331   0.886   0.903  1.0410  0.9038  0.2201
 2362SOL    HW2 7376   3.470   0.801   0.915  0.0988 -0.7490 -0.2501
 2363SOL     OW 7377   1.204   0.736   0.796 -0.6817 -0.3799  0.6805
 2363SOL    HW1 7378   1.210   0.759   0.699 -0.4969 -1.7220  0.3434
 2363SOL    HW2 7379   1.115   0.764   0.832 -1.1668 -0.8200 -0.1550
 2364SOL     OW 7380   2.579   1.531   0.011 -0.1364  0.3347 -0.2842
 2364SOL    HW1 7381   2.612   1.469   0.083  0.0860  0.8077  0.0267
 2364SOL    HW2 7382   2.651   1.542  -0.057 -0.4707 -0.3856 -0.7714
 2365SOL     OW 7383   1.879   1.441   2.045  0.1873  0.3043 -0.2179
 2365SOL    HW1 7384   1.932   1.391   2.113  0.2909  1.9946  1.0154
 2365SOL    HW2 7385   1.940   1.502   1.994 -0.1049  0.0012 -0.9474
 2366SOL     OW 7386   2.428   1.814   1.751 -0.3107  0.3371 -0.1094
 2366SOL    HW1 7387   2.374   1.839   1.671  0.0374 -0.2681 -0.5333
 2366SOL    HW2 7388   2.443   1.715   1.753  2.1144  0.6216 -0.8781
 2367SOL     OW 7389   2.767   5.315   5.445  0.0138 -0.3179  0.1203
 2367SOL    HW1 7390   2.817   5.258   5.511  0.2863  0.4329  0.5660
 2367SOL    HW2 7391   2.811   5.308   5.356  2.0310  1.6714  0.8580
 2368SOL     OW 7392   4.182   1.455   0.681  0.2978 -0.5817  0.0694
 2368SOL    HW1 7393   4.256   1.428   0.619  0.3493 -1.5080  0.5277
 2368SOL    HW2 7394   4.221   1.476   0.771 -0.0619 -1.8001  0.5277
 2369SOL     OW 7395   3.038   2.249   2.998  0.2856  0.6543 -0.1139
 2369SOL    HW1 7396   3.128   2.284   3.022  0.5239  0.7746 -1.1412
 2369SOL    HW2 7397   3.040   2.149   2.998  1.0240  0.6233 -2.1864
 2370SOL     OW 7398   2.074   1.822   2.464 -0.3799  0.5661  0.3024
 2370SOL    HW1 7399   1.990   1.847   2.511 -0.4891  0.9045 -0.0623
 2370SOL    HW2 7400   2.142   1.895   2.477 -0.1277  0.2724  0.6353
 2371SOL     OW 7401   2.589   0.363   0.999  0.2971 -0.1368  0.5322
 2371SOL    HW1 7402   2.597   0.310   0.915 -0.6190 -1.3763  1.1866
 2371SOL    HW2 7403   2.515   0.325   1.055  1.2631  0.2817  2.1632
 2372SOL     OW 7404   3.422   5.115   0.213 -0.3074 -0.0431  0.3005
 2372SOL    HW1 7405   3.403   5.147   0.121  0.7007 -1.3341 -0.3927
 2372SOL    HW2 7406   3.444   5.192   0.272  1.5117  0.6328 -1.1617
 2373SOL     OW 7407   3.598   5.731   1.105  0.1840 -0.5520 -0.6794
 2373SOL    HW1 7408   3.606   5.828   1.125  3.2625 -0.7676 -0.4427
 2373SOL    HW2 7409   3.516   5.715   1.050 -0.1194  2.2105 -1.1679
 2374SOL     OW 7410   4.733   2.652   1.857  0.0519 -0.7121  0.3348
 2374SOL    HW1 7411   4.735   2.558   1.893  1.5677 -0.9910 -0.4016
 2374SOL    HW2 7412   4.692   2.713   1.925 -1.5657 -1.9907  0.5752
 2375SOL     OW 7413   1.601   2.047   2.783  0.6342 -0.6075  0.6821
 2375SOL    HW1 7414   1.566   1.972   2.840 -0.0342  0.7484  2.1337
 2375SOL    HW2 7415   1.682   2.086   2.826 -0.4717  1.0983  1.3108
 2376SOL     OW 7416   2.666   2.961   5.624 -0.3568  0.0554  0.1634
 2376SOL    HW1 7417   2.714   2.966   5.537 -0.5637 -0.1758  0.0346
 2376SOL    HW2 7418   2.721   2.909   5.690 -0.5419 -0.4311 -0.0615
 2377SOL     OW 7419   1.657   1.702   2.662  0.0982 -1.0081  0.5058
 2377SOL    HW1 7420   1.565   1.663   2.673  0.5754 -2.1996  0.3839
 2377SOL    HW2 7421   1.717   1.634   2.618  1.8210 -1.3742  3.2067
 2378SOL     OW 7422   2.372   1.442   0.241  0.2371 -0.0599  0.4549
 2378SOL    HW1 7423   2.276   1.421   0.263 -0.1392  0.1276 -0.8859
 2378SOL    HW2 7424   2.374   1.508   0.166  1.4120  1.9438  2.1214
 2379SOL     OW 7425   2.765   1.826   1.888  0.9240  0.0432  0.3024
 2379SOL    HW1 7426   2.704   1.903   1.908  0.6668 -0.3677  1.1898
 2379SOL    HW2 7427   2.840   1.825   1.955  1.8895  0.5123 -0.7479
 2380SOL     OW 7428   2.902   4.098   0.746 -0.4022 -0.2153  0.2077
 2380SOL    HW1 7429   2.834   4.166   0.719 -1.2858 -0.5075  1.6233
 2380SOL    HW2 7430   2.956   4.072   0.666 -2.1206 -0.1677 -1.0245
 2381SOL     OW 7431   3.578   1.121   5.780 -0.5902  0.6204  0.3634
 2381SOL    HW1 7432   3.535   1.209   5.798 -0.6332  1.0385 -1.5720
 2381SOL    HW2 7433   3.509   1.056   5.747 -0.2352  0.4699 -0.1108
 2382SOL     OW 7434   1.795   1.221   1.047  0.7649 -0.2253  0.2326
 2382SOL    HW1 7435   1.797   1.129   1.087  0.1063 -0.9799 -1.3955
 2382SOL    HW2 7436   1.722   1.227   0.980  0.6682  1.5797  0.4472
 2383SOL     OW 7437   1.419   0.799   1.431  0.6534  0.7772  0.1699
 2383SOL    HW1 7438   1.345   0.796   1.365 -1.7474  0.5516  2.6951
 2383SOL    HW2 7439   1.495   0.742   1.398 -0.2250  1.0390 -2.5194
 2384SOL     OW 7440   2.197   1.764   4.239 -0.1040 -0.0447  0.4904
 2384SOL    HW1 7441   2.278   1.797   4.288 -0.2148  0.6568  0.2177
 2384SOL    HW2 7442   2.124   1.745   4.306  0.1707 -0.3394  0.7068
 2385SOL     OW 7443   2.706   0.841   5.613  0.1652  0.3898  0.0088
 2385SOL    HW1 7444   2.697   0.892   5.699  0.8186  1.7805 -0.7111
 2385SOL    HW2 7445   2.794   0.793   5.612  1.3222  2.4148 -0.8752
 2386SOL     OW 7446   1.736   3.204   0.839  0.0237  0.0345  0.4220
 2386SOL    HW1 7447   1.708   3.113   0.810 -0.5915  0.0942  0.8002
 2386SOL    HW2 7448   1.675   3.272   0.799 -1.2994  0.0676  2.3484
 2387SOL     OW 7449   3.162   0.676   2.047 -0.5870  0.3453  0.2516
 2387SOL    HW1 7450   3.183   0.611   2.120 -1.2189 -0.3193 -0.1450
 2387SOL    HW2 7451   3.125   0.760   2.087  0.0227  0.3780  0.7543
 2388SOL     OW 7452   2.396   0.657   1.083  0.2173  0.2317 -0.0176
 2388SOL    HW1 7453   2.323   0.589   1.091  0.7007 -0.2721  0.2014
 2388SOL    HW2 7454   2.444   0.663   1.170  0.1168  0.9362 -0.0041
 2389SOL     OW 7455   2.444   0.409   0.571 -0.0577 -0.2843 -0.0735
 2389SOL    HW1 7456   2.465   0.497   0.614 -1.1474  0.8459 -1.7532
 2389SOL    HW2 7457   2.530   0.363   0.546  0.5203  0.5334  0.3546
 2390SOL     OW 7458   1.488   3.892   1.400 -0.1431  0.1277  0.3953
 2390SOL    HW1 7459   1.519   3.945   1.321  2.6885  0.7568  1.7967
 2390SOL    HW2 7460   1.557   3.823   1.423 -1.8603 -1.4316  1.1342
 2391SOL     OW 7461   4.092   0.653   1.622  0.0926  0.0721 -0.1106
 2391SOL    HW1 7462   4.015   0.710   1.649  0.5294  0.1272  1.0766
 2391SOL    HW2 7463   4.092   0.569   1.676  0.3846 -0.3106 -0.6970
 2392SOL     OW 7464   1.035   1.655   5.568  0.4693  0.0770  0.5217
 2392SOL    HW1 7465   1.000   1.746   5.543  0.0731  0.4811  2.4386
 2392SOL    HW2 7466   1.041   1.647   5.667 -1.3542 -2.6672  0.5284
 2393SOL     OW 7467   0.475   1.821   1.974 -0.0281 -0.3193  0.2860
 2393SOL    HW1 7468   0.480   1.731   1.930  0.9979  0.4069 -1.1566
 2393SOL    HW2 7469   0.471   1.810   2.073 -1.9767 -2.0124  0.0852
 2394SOL     OW 7470   1.376   1.396   5.647  0.0592 -0.2933  0.1002
 2394SOL    HW1 7471   1.325   1.311   5.632  1.3765 -0.9019 -1.3026
 2394SOL    HW2 7472   1.449   1.379   5.714  0.3311 -0.2935 -0.1902
 2395SOL     OW 7473   3.074   1.381   0.418  0.2417 -0.2496 -0.4743
 2395SOL    HW1 7474   3.025   1.451   0.367  0.2955 -0.3700 -0.6931
 2395SOL    HW2 7475   3.143   1.424   0.476 -0.2722 -0.0640  0.0059
 2396SOL     OW 7476   3.129   1.948   5.839 -0.0796 -0.6531 -0.4496
 2396SOL    HW1 7477   3.100   2.041   5.863 -1.7129 -1.0389 -0.8437
 2396SOL    HW2 7478   3.206   1.922   5.897  1.4035  1.4710 -1.3084
 2397SOL     OW 7479   0.874   5.494   0.554 -0.6114 -0.1938  0.1908
 2397SOL    HW1 7480   0.825   5.407   0.546 -1.4444  0.3033 -0.2485
 2397SOL    HW2 7481   0.865   5.529   0.647  1.8946 -1.7993  1.1512
 2398SOL     OW 7482   4.314   2.322   0.989 -0.6434  0.6083 -0.3291
 2398SOL    HW1 7483   4.404   2.295   1.021 -0.8392  1.2202  0.7809
 2398SOL    HW2 7484   4.281   2.400   1.042 -2.0970  0.0001 -0.2720
 2399SOL     OW 7485   2.795   0.709   1.578  0.0997  0.1313 -0.6044
 2399SOL    HW1 7486   2.722   0.762   1.535  0.1807 -0.0338 -0.9510
 2399SOL    HW2 7487   2.864   0.770   1.615 -0.9740  0.3570  1.1140
 2400SOL     OW 7488   2.234   2.180   2.635  0.2838  0.5661 -0.5611
 2400SOL    HW1 7489   2.205   2.254   2.696  1.4144 -0.3831  1.2070
 2400SOL    HW2 7490   2.329   2.157   2.653 -0.2408 -1.8269 -0.4926
 2401SOL     OW 7491   2.623   4.825   1.379 -0.4131 -0.3274  0.0132
 2401SOL    HW1 7492   2.667   4.844   1.467 -1.4161 -1.7916  0.8795
 2401SOL    HW2 7493   2.551   4.892   1.362 -0.5777 -0.3576  0.5729
 2402SOL     OW 7494   1.122   1.886   1.459 -0.1261 -0.1841  0.3060
 2402SOL    HW1 7495   1.155   1.856   1.548 -0.0001  0.5908  0.5305
 2402SOL    HW2 7496   1.022   1.888   1.459 -0.1701 -1.4853 -0.0206
 2403SOL     OW 7497   0.818   2.065   2.910  1.2150  0.2061 -0.6189
 2403SOL    HW1 7498   0.816   1.972   2.947  0.9844  0.8130  0.9597
 2403SOL    HW2 7499   0.885   2.069   2.835  0.4860 -1.4565 -1.4269
 2404SOL     OW 7500   3.895   5.957   1.211 -0.7977  0.2847 -0.0454
 2404SOL    HW1 7501   3.901   5.888   1.283 -1.2771  1.1125  0.8135
 2404SOL    HW2 7502   3.890   5.912   1.122 -0.4316 -0.7635  0.4514
 2405SOL     OW 7503   2.725   2.123   1.238  0.7652 -0.4907  0.4772
 2405SOL    HW1 7504   2.679   2.092   1.321 -0.5952 -0.7120 -0.3250
 2405SOL    HW2 7505   2.821   2.098   1.242  0.3762 -1.9625  1.2703
 2406SOL     OW 7506   0.976   0.202   0.617  0.3267  0.2534  0.2928
 2406SOL    HW1 7507   0.929   0.150   0.546  2.7008 -0.7958 -0.6365
 2406SOL    HW2 7508   1.029   0.140   0.675  0.2364  1.3216  1.5771
 2407SOL     OW 7509   3.219   5.126   1.013  0.1932  0.7318  0.2543
 2407SOL    HW1 7510   3.173   5.205   0.972 -1.1974 -0.2284 -0.1264
 2407SOL    HW2 7511   3.166   5.043   0.993 -0.1882  0.0987  3.3764
 2408SOL     OW 7512   3.544   2.562   2.434 -0.0493  0.0778  0.1067
 2408SOL    HW1 7513   3.547   2.662   2.426  1.1554 -0.0134 -1.0707
 2408SOL    HW2 7514   3.621   2.531   2.489  0.2491 -0.2650 -0.4975
 2409SOL     OW 7515   3.662   0.793   5.777  0.5512 -0.1368 -0.6746
 2409SOL    HW1 7516   3.633   0.743   5.859  1.4230 -1.0785 -0.9167
 2409SOL    HW2 7517   3.680   0.888   5.801 -1.4082  0.1758 -0.2582
 2410SOL     OW 7518   2.228   1.496   1.519 -0.0259  0.1143  0.2198
 2410SOL    HW1 7519   2.134   1.478   1.490  0.3078 -1.3409 -0.0119
 2410SOL    HW2 7520   2.229   1.518   1.617 -0.5900  0.1092  0.2284
 2411SOL     OW 7521   2.098   2.361   0.545 -0.3462 -0.2701 -0.6982
 2411SOL    HW1 7522   2.055   2.286   0.596 -0.3899  2.3631  3.5708
 2411SOL    HW2 7523   2.028   2.409   0.492 -1.5233  0.0942  1.0964
 2412SOL     OW 7524   4.558   1.398   5.550 -0.4708 -0.4829 -0.6688
 2412SOL    HW1 7525   4.488   1.348   5.499 -1.3344 -1.5438  1.4664
 2412SOL    HW2 7526   4.523   1.489   5.572 -1.1814 -0.9825  0.3270
 2413SOL     OW 7527   2.917   2.188   1.558  0.5519  0.1928 -0.1055
 2413SOL    HW1 7528   2.996   2.129   1.570  0.1245 -0.3173  0.2720
 2413SOL    HW2 7529   2.941   2.266   1.500  1.2094 -0.1778 -0.3346
 2414SOL     OW 7530   2.054   0.353   0.283  0.1857  0.5440 -0.4596
 2414SOL    HW1 7531   2.044   0.327   0.187  0.6206  0.3301 -0.4485
 2414SOL    HW2 7532   2.141   0.400   0.296  0.7813 -0.6592  0.0847
 2415SOL     OW 7533   2.110   2.015   0.270 -0.2422  0.3707  0.7654
 2415SOL    HW1 7534   2.062   2.095   0.235 -0.8465 -0.3168 -0.0041
 2415SOL    HW2 7535   2.180   2.045   0.336 -1.8018  1.3798  2.0383
 2416SOL     OW 7536   1.807   4.065   1.369  0.8377 -0.0611 -0.4872
 2416SOL    HW1 7537   1.790   4.162   1.349 -1.2662 -0.6666 -2.0294
 2416SOL    HW2 7538   1.754   4.038   1.450  1.3810  0.0522 -0.0901
 2417SOL     OW 7539   2.449   0.827   0.887  0.0344 -0.5532  0.0264
 2417SOL    HW1 7540   2.538   0.872   0.893 -0.1835 -0.2541  1.2074
 2417SOL    HW2 7541   2.435   0.770   0.968 -0.5176 -1.2354 -0.5345
 2418SOL     OW 7542   2.841   1.618   1.078 -0.1625  0.0785  0.0856
 2418SOL    HW1 7543   2.749   1.654   1.097 -0.2804  0.4395 -1.0737
 2418SOL    HW2 7544   2.841   1.574   0.988  1.1300  1.3676 -0.5892
 2419SOL     OW 7545   3.608   0.669   1.452  0.4218 -0.0420  0.3804
 2419SOL    HW1 7546   3.527   0.616   1.429 -0.3536  0.6902  1.3516
 2419SOL    HW2 7547   3.649   0.705   1.368  0.3955 -1.3144 -0.2066
 2420SOL     OW 7548   2.591   0.874   1.475 -0.3525  0.4783 -0.1832
 2420SOL    HW1 7549   2.584   0.973   1.465  2.0317  0.7175  0.0611
 2420SOL    HW2 7550   2.540   0.845   1.556 -1.2524  1.4400 -0.3779
 2421SOL     OW 7551   1.703   1.457   0.684  0.8015 -0.2040 -0.0088
 2421SOL    HW1 7552   1.744   1.456   0.775  2.3833 -3.5739 -0.5992
 2421SOL    HW2 7553   1.731   1.541   0.636  0.8753  1.0825  2.1319
 2422SOL     OW 7554   2.173   0.359   0.662  0.4724 -0.3849 -0.0794
 2422SOL    HW1 7555   2.133   0.450   0.671 -0.6064 -0.6568 -1.6605
 2422SOL    HW2 7556   2.268   0.366   0.633  1.4738  0.2615  2.9866
 2423SOL     OW 7557   1.853   0.766   1.278  0.4720 -0.2922  0.1259
 2423SOL    HW1 7558   1.944   0.787   1.315  1.3963 -2.4862 -0.7827
 2423SOL    HW2 7559   1.821   0.679   1.316 -1.4555  0.6162  0.7146
 2424SOL     OW 7560   2.728   1.296   2.433 -0.4799  0.0965 -0.0823
 2424SOL    HW1 7561   2.730   1.396   2.424  0.7763 -0.0860 -2.6532
 2424SOL    HW2 7562   2.800   1.267   2.495 -0.5194  0.7459  0.2846
 2425SOL     OW 7563   1.184   2.364   5.665  0.6061 -0.4949  0.0085
 2425SOL    HW1 7564   1.277   2.400   5.670  0.6088 -0.2768 -1.3260
 2425SOL    HW2 7565   1.122   2.423   5.716  0.8354  0.6663 -1.0108
 2426SOL     OW 7566   4.723   0.669   0.304 -0.3317  0.4952 -0.5115
 2426SOL    HW1 7567   4.650   0.648   0.368 -0.4268 -0.0171 -0.7838
 2426SOL    HW2 7568   4.806   0.621   0.331 -0.6971 -0.7092 -1.4453
 2427SOL     OW 7569   2.574   0.411   2.382 -0.1376 -0.2947  0.1925
 2427SOL    HW1 7570   2.621   0.443   2.464 -0.3994 -1.4664  0.8124
 2427SOL    HW2 7571   2.638   0.360   2.325 -0.3426 -0.8548  0.4544
 2428SOL     OW 7572   2.449   0.063   1.702 -0.2617 -0.1978  0.2640
 2428SOL    HW1 7573   2.379   0.016   1.756 -0.7874  1.9562  1.5893
 2428SOL    HW2 7574   2.443   0.162   1.718  1.8659  0.2215 -1.0791
 2429SOL     OW 7575   1.739   0.949   1.126  0.3035  0.7073 -0.5445
 2429SOL    HW1 7576   1.650   0.963   1.169  0.4375  1.6916 -0.5510
 2429SOL    HW2 7577   1.788   0.877   1.174 -0.2608  0.5674 -0.1629
 2430SOL     OW 7578   2.733   1.302   0.530  0.1700 -0.1782 -0.0946
 2430SOL    HW1 7579   2.735   1.311   0.630 -2.1077 -0.9197  0.0734
 2430SOL    HW2 7580   2.818   1.260   0.499  2.0144  2.2343  1.2219
 2431SOL     OW 7581   0.313   2.043   0.152  0.4472  0.0250  0.5509
 2431SOL    HW1 7582   0.346   2.137   0.165  0.4652  0.1126 -0.0739
 2431SOL    HW2 7583   0.262   2.014   0.232  1.9597 -0.0854  1.5235
 2432SOL     OW 7584   2.424   5.293   2.215  0.0312  0.0457  0.2047
 2432SOL    HW1 7585   2.374   5.294   2.302  1.4831  1.2089  1.0768
 2432SOL    HW2 7586   2.516   5.327   2.230  0.5608 -0.4741 -1.6793
 2433SOL     OW 7587   1.655   0.244   2.293 -0.2084  0.4703  0.0031
 2433SOL    HW1 7588   1.737   0.207   2.249 -1.2953 -0.2722 -1.4728
 2433SOL    HW2 7589   1.619   0.319   2.238 -0.7370  0.5458  0.4494
 2434SOL     OW 7590   4.551   0.589   4.785 -0.0334  0.0813 -0.0560
 2434SOL    HW1 7591   4.501   0.606   4.700  0.2705 -0.5489 -0.3630
 2434SOL    HW2 7592   4.630   0.651   4.790 -0.6218  0.8203  0.2548
 2435SOL     OW 7593   3.609   5.576   1.887  0.4944 -0.7088 -0.3465
 2435SOL    HW1 7594   3.690   5.550   1.940 -0.3788 -0.6636  1.0460
 2435SOL    HW2 7595   3.637   5.597   1.793  2.0850 -0.7391  0.0855
 2436SOL     OW 7596   1.576   0.184   2.730 -0.6139 -0.0690 -0.2359
 2436SOL    HW1 7597   1.608   0.100   2.774  2.0663  0.3191 -1.2120
 2436SOL    HW2 7598   1.493   0.216   2.775 -1.2334 -2.7412  0.7254
 2437SOL     OW 7599   2.134   0.102   1.769 -0.4601 -0.4058 -0.1794
 2437SOL    HW1 7600   2.177   0.138   1.852 -3.5869  0.1811  1.3784
 2437SOL    HW2 7601   2.138   0.171   1.697  2.5346 -1.0218 -0.7256
 2438SOL     OW 7602   5.145   3.295   4.027 -0.0336  0.4436 -0.2925
 2438SOL    HW1 7603   5.222   3.256   3.976  0.1193  0.7018 -0.2594
 2438SOL    HW2 7604   5.065   3.302   3.966  0.0604  0.4720 -0.4137
 2439SOL     OW 7605   2.559   5.086   2.449 -0.3851 -0.1017 -0.7569
 2439SOL    HW1 7606   2.651   5.096   2.411 -0.1434 -0.9974 -0.4189
 2439SOL    HW2 7607   2.496   5.056   2.377 -0.2602 -0.2317 -0.8116
 2440SOL     OW 7608   0.787   1.655   1.882  0.2267  0.2886  0.4199
 2440SOL    HW1 7609   0.819   1.736   1.931  0.1585  0.3207  0.4113
 2440SOL    HW2 7610   0.778   1.579   1.946 -0.6609  0.5511  0.6112
 2441SOL     OW 7611   3.857   1.983   3.966  0.2756  0.2922 -0.1554
 2441SOL    HW1 7612   3.795   1.999   3.889 -0.7384  1.2976  0.8363
 2441SOL    HW2 7613   3.810   1.931   4.037  0.7614  0.5339  0.3533
 2442SOL     OW 7614   5.719   0.398   2.394 -0.1582  0.2098  0.4066
 2442SOL    HW1 7615   5.810   0.363   2.370  0.2448 -0.5585  2.7469
 2442SOL    HW2 7616   5.691   0.467   2.327  2.3380  0.7952 -0.1608
 2443SOL     OW 7617   5.134   0.896   3.413  0.2174 -0.5855  0.1262
 2443SOL    HW1 7618   5.191   0.851   3.482 -0.0495  1.3180  1.6788
 2443SOL    HW2 7619   5.062   0.834   3.383  1.8611 -2.3375 -0.4039
 2444SOL     OW 7620   0.878   1.548   3.737 -0.7608 -0.5937 -0.2378
 2444SOL    HW1 7621   0.923   1.528   3.649  1.9820  1.5577  0.5401
 2444SOL    HW2 7622   0.863   1.646   3.745 -2.3592 -0.9126  1.1329
 2445SOL     OW 7623   4.254   0.232   2.581 -0.7029 -0.2186 -0.1478
 2445SOL    HW1 7624   4.305   0.182   2.510  0.3345 -1.6764  1.5439
 2445SOL    HW2 7625   4.266   0.330   2.567  0.2221 -0.4833 -1.4705
 2446SOL     OW 7626   1.894   2.098   3.207  0.0384  0.0613  0.1619
 2446SOL    HW1 7627   1.834   2.169   3.243 -0.9591 -0.9483  0.5511
 2446SOL    HW2 7628   1.974   2.140   3.165 -1.0184  1.4460 -0.5367
 2447SOL     OW 7629   2.966   1.406   3.251  0.3178 -0.0371 -0.6257
 2447SOL    HW1 7630   2.988   1.312   3.278  0.8663  0.4602  0.7447
 2447SOL    HW2 7631   2.884   1.406   3.194  0.6941 -1.4042 -1.2123
 2448SOL     OW 7632   2.595   1.390   1.358 -0.0785  0.0309  0.2974
 2448SOL    HW1 7633   2.586   1.316   1.291  2.7952  0.7486 -1.0498
 2448SOL    HW2 7634   2.535   1.466   1.332 -0.1938 -0.3403 -0.5591
 2449SOL     OW 7635   4.049   0.088   4.704 -0.2011  1.0963 -0.2057
 2449SOL    HW1 7636   4.147   0.076   4.687 -0.1021  1.3322  0.2042
 2449SOL    HW2 7637   4.030   0.081   4.802 -0.4393  2.1658 -0.1600
 2450SOL     OW 7638   1.389   1.271   3.652  0.1322 -0.0116 -0.5010
 2450SOL    HW1 7639   1.309   1.314   3.610  0.8003 -0.8452 -2.7965
 2450SOL    HW2 7640   1.384   1.172   3.639  1.8957 -0.0074 -1.4075
 2451SOL     OW 7641   0.702   2.265   0.616 -0.3043 -0.2243  0.2268
 2451SOL    HW1 7642   0.675   2.170   0.632 -0.9253 -0.0337  0.3255
 2451SOL    HW2 7643   0.793   2.267   0.573  0.3015 -0.8074  1.4415
 2452SOL     OW 7644   3.187   4.565   2.779  0.5981 -0.1127  0.2119
 2452SOL    HW1 7645   3.249   4.528   2.711 -3.1116 -3.0440 -2.0155
 2452SOL    HW2 7646   3.171   4.496   2.850 -0.5778  0.2368  0.3188
 2453SOL     OW 7647   1.787   0.385   0.856 -0.4475 -0.3942  0.0054
 2453SOL    HW1 7648   1.770   0.396   0.758  1.0387  0.4008 -0.1812
 2453SOL    HW2 7649   1.733   0.308   0.890 -2.3697  0.3957 -1.0425
 2454SOL     OW 7650   4.265   0.822   1.497 -0.7028 -0.0888 -0.2051
 2454SOL    HW1 7651   4.225   0.737   1.532 -0.3520 -0.5961 -1.0010
 2454SOL    HW2 7652   4.306   0.873   1.572 -1.0360 -0.5565  0.3066
 2455SOL     OW 7653   1.882   5.923   1.497  0.4291 -0.0124  0.3298
 2455SOL    HW1 7654   1.888   5.833   1.453 -0.1241 -0.5434  1.3233
 2455SOL    HW2 7655   1.816   5.919   1.572 -0.1585  1.4216 -0.0838
 2456SOL     OW 7656   4.313   0.706   1.867 -0.6669  0.0230 -0.3693
 2456SOL    HW1 7657   4.236   0.680   1.925 -1.9580  0.9829 -1.5689
 2456SOL    HW2 7658   4.283   0.775   1.801  1.1982  0.3037 -0.9932
 2457SOL     OW 7659   2.588   2.082   0.997 -0.0938 -0.3539 -0.1112
 2457SOL    HW1 7660   2.648   2.108   1.071 -0.4325  0.3405 -0.0745
 2457SOL    HW2 7661   2.641   2.070   0.913  0.2505 -0.8849  0.1788
 2458SOL     OW 7662   2.839   5.708   2.802 -0.4889 -0.3681  0.4836
 2458SOL    HW1 7663   2.764   5.736   2.862 -0.1123 -0.2019  0.8780
 2458SOL    HW2 7664   2.926   5.735   2.842 -0.2621  0.3773 -0.4880
 2459SOL     OW 7665   2.894   1.569   2.089  0.5000 -0.0819  0.0693
 2459SOL    HW1 7666   2.941   1.485   2.116 -1.4187 -1.5513 -0.9367
 2459SOL    HW2 7667   2.822   1.547   2.023 -2.4716  1.8416  2.4207
 2460SOL     OW 7668   2.903   1.185   2.615 -0.0599 -0.1881  0.1883
 2460SOL    HW1 7669   2.944   1.105   2.570  1.2938  0.4735  0.2135
 2460SOL    HW2 7670   2.963   1.217   2.688 -1.4115 -0.1683  1.3309
 2461SOL     OW 7671   4.121   0.488   3.346  0.3576  0.4719 -0.5537
 2461SOL    HW1 7672   4.206   0.513   3.392 -0.6437  1.6208  0.7663
 2461SOL    HW2 7673   4.131   0.398   3.303  1.8883  0.1188  0.4710
 2462SOL     OW 7674   1.264   0.726   4.024 -0.5995 -0.1326 -0.3972
 2462SOL    HW1 7675   1.186   0.780   3.994 -0.9609 -0.6206 -0.3584
 2462SOL    HW2 7676   1.343   0.785   4.037 -0.5634  0.1616 -1.8266
 2463SOL     OW 7677   2.403   1.574   1.289  0.3255  0.1575  0.0806
 2463SOL    HW1 7678   2.422   1.668   1.318 -1.3672  0.3392  0.7131
 2463SOL    HW2 7679   2.342   1.531   1.356 -0.7027 -0.6639 -1.3527
 2464SOL     OW 7680   3.404   1.337   2.192 -0.3728 -0.2282  0.2052
 2464SOL    HW1 7681   3.434   1.425   2.154  0.5344  0.7676  2.9926
 2464SOL    HW2 7682   3.346   1.353   2.272  1.8215 -2.0409  2.2987
 2465SOL     OW 7683   1.240   0.517   5.525 -0.0489 -0.2068  0.0076
 2465SOL    HW1 7684   1.211   0.434   5.478  1.1734 -0.9970  0.6031
 2465SOL    HW2 7685   1.340   0.523   5.524 -0.0967  1.0032  0.4180
 2466SOL     OW 7686   3.359   2.407   2.008 -0.5748 -0.5581  0.4141
 2466SOL    HW1 7687   3.359   2.411   1.908 -1.8995 -0.5328  0.3898
 2466SOL    HW2 7688   3.301   2.331   2.037 -0.6932 -0.1854  1.1663
 2467SOL     OW 7689   3.076   1.613   3.926  0.3036 -1.1436 -0.6059
 2467SOL    HW1 7690   3.116   1.622   3.835  0.7640  1.6348 -0.2240
 2467SOL    HW2 7691   3.002   1.679   3.937 -0.4651 -2.1669  0.6873
 2468SOL     OW 7692   1.376   0.627   1.101 -0.1527  0.1054 -0.5284
 2468SOL    HW1 7693   1.424   0.673   1.027 -0.1836 -1.1577 -1.3611
 2468SOL    HW2 7694   1.277   0.641   1.092 -0.1681 -0.1840 -0.8345
 2469SOL     OW 7695   2.558  -0.015   0.965 -0.4998 -0.1640  0.1253
 2469SOL    HW1 7696   2.634   0.043   0.934 -0.7682  0.2870  0.3053
 2469SOL    HW2 7697   2.472   0.032   0.947 -0.7426 -0.7215 -0.1750
 2470SOL     OW 7698   3.772   1.703   3.605 -0.1435  0.2670  0.7275
 2470SOL    HW1 7699   3.801   1.645   3.681  0.4723  1.1192  1.1520
 2470SOL    HW2 7700   3.851   1.723   3.547 -0.6304 -0.4796 -0.2255
 2471SOL     OW 7701   4.632   0.072   3.358  0.1132  0.4062 -0.1286
 2471SOL    HW1 7702   4.724   0.102   3.381  0.5092  1.8471 -3.1153
 2471SOL    HW2 7703   4.635   0.017   3.274 -1.5842 -0.9901  0.6670
 2472SOL     OW 7704   4.273   5.514   5.303 -0.2479 -0.2213 -0.0591
 2472SOL    HW1 7705   4.342   5.580   5.273  0.6642 -1.4116 -0.6538
 2472SOL    HW2 7706   4.193   5.520   5.243  0.2948 -0.4248 -0.8169
 2473SOL     OW 7707   1.358   4.703   3.238 -0.5719 -0.5168  0.1335
 2473SOL    HW1 7708   1.338   4.663   3.149 -2.7304  0.2510  0.2094
 2473SOL    HW2 7709   1.303   4.786   3.250  1.2980  0.6329  1.3201
 2474SOL     OW 7710   3.584   0.289   2.800  0.5516  0.0070 -0.3077
 2474SOL    HW1 7711   3.515   0.328   2.861  1.4815  1.5859 -0.2269
 2474SOL    HW2 7712   3.542   0.268   2.711  0.2160  2.1339 -0.6853
 2475SOL     OW 7713   1.560   1.009   4.611  0.9589  0.0445 -0.0381
 2475SOL    HW1 7714   1.461   1.019   4.601  0.9767  0.2119 -0.0424
 2475SOL    HW2 7715   1.592   1.062   4.689  1.2530  1.1880 -0.9096
 2476SOL     OW 7716   1.563   5.808   3.224  0.5770  0.0508  0.2218
 2476SOL    HW1 7717   1.474   5.849   3.246  0.7096  0.2713  0.3533
 2476SOL    HW2 7718   1.567   5.715   3.259  0.0169 -0.3220 -0.6653
 2477SOL     OW 7719   1.804   2.742   5.316 -0.5801 -0.4525  0.5103
 2477SOL    HW1 7720   1.839   2.819   5.263 -2.0049  0.4491  0.8246
 2477SOL    HW2 7721   1.729   2.699   5.266  0.2539 -1.6928  0.3076
 2478SOL     OW 7722   1.333   5.317   1.584  0.0312  0.2226 -0.0762
 2478SOL    HW1 7723   1.336   5.286   1.678 -0.1363  0.8225  0.1312
 2478SOL    HW2 7724   1.276   5.399   1.577 -1.6471 -0.9853 -1.0546
 2479SOL     OW 7725   2.083   2.039   4.565  0.2215 -0.2403  0.1916
 2479SOL    HW1 7726   2.002   2.031   4.624 -0.1561 -1.1086 -0.4099
 2479SOL    HW2 7727   2.074   2.120   4.507 -0.8506 -0.9817 -0.7498
 2480SOL     OW 7728   4.508   2.840   2.234 -0.1380 -0.6808 -0.3525
 2480SOL    HW1 7729   4.549   2.826   2.323 -0.8001 -0.3351  0.0133
 2480SOL    HW2 7730   4.501   2.753   2.186  1.6620 -0.6659 -0.7259
 2481SOL     OW 7731   3.396   5.271   3.427  0.3493 -0.5942  0.1061
 2481SOL    HW1 7732   3.313   5.321   3.402  0.7235  0.5053  0.9749
 2481SOL    HW2 7733   3.373   5.194   3.485 -0.0848 -0.4269  0.1571
 2482SOL     OW 7734   1.989   1.351   1.428 -0.4368  0.5463 -0.7577
 2482SOL    HW1 7735   1.908   1.390   1.472  0.0410  0.7301 -0.0259
 2482SOL    HW2 7736   1.997   1.387   1.335 -0.6860  1.2360 -0.5183
 2483SOL     OW 7737   0.967   1.954   3.606 -0.6500 -0.9908  0.2002
 2483SOL    HW1 7738   0.927   1.993   3.523  1.8032  1.7601  0.1314
 2483SOL    HW2 7739   1.015   1.870   3.583 -1.8693 -1.4678 -0.7040
 2484SOL     OW 7740   3.219   1.389   3.108  0.5246 -0.7849 -0.1634
 2484SOL    HW1 7741   3.128   1.406   3.144  0.8232  2.4204 -0.6678
 2484SOL    HW2 7742   3.284   1.381   3.184  0.3178  0.3867  0.1474
 2485SOL     OW 7743   3.957   5.804   3.153 -0.2460  0.2423  0.6577
 2485SOL    HW1 7744   3.870   5.818   3.201  0.7664  1.2323  2.3000
 2485SOL    HW2 7745   4.000   5.893   3.137  0.7007 -0.2669  0.3394
 2486SOL     OW 7746   0.173   0.154   1.307  0.3833 -0.3223 -0.9344
 2486SOL    HW1 7747   0.253   0.180   1.253 -0.4135 -0.7089 -2.3407
 2486SOL    HW2 7748   0.091   0.197   1.269  0.0980  1.6010  1.6000
 2487SOL     OW 7749   1.964   5.795   1.161 -0.1375  0.1366 -0.1692
 2487SOL    HW1 7750   1.978   5.894   1.167 -0.7730  0.2571 -0.6105
 2487SOL    HW2 7751   1.987   5.753   1.249 -0.2081  0.7149  0.1315
 2488SOL     OW 7752   1.758   4.982   3.062  0.4145  0.2115 -0.0493
 2488SOL    HW1 7753   1.814   4.900   3.074 -0.4527 -0.3038  0.6248
 2488SOL    HW2 7754   1.757   5.008   2.965 -1.6673 -2.3327 -0.8335
 2489SOL     OW 7755   1.954   1.735   1.577 -0.0375 -0.2466  0.0806
 2489SOL    HW1 7756   1.957   1.669   1.653  0.3685  0.3565  0.5979
 2489SOL    HW2 7757   1.876   1.797   1.590  1.7810  1.8236  1.7027
 2490SOL     OW 7758   1.617   0.373   5.044  0.2229 -0.1292 -0.2880
 2490SOL    HW1 7759   1.605   0.302   5.114 -0.4051  2.0205  1.8975
 2490SOL    HW2 7760   1.715   0.391   5.031  0.5111 -2.3906 -2.0667
 2491SOL     OW 7761   3.770   1.463   2.114 -0.0292 -0.3381  0.5231
 2491SOL    HW1 7762   3.742   1.488   2.207 -0.3920  0.6662  0.1572
 2491SOL    HW2 7763   3.722   1.520   2.048  1.5529  0.2066 -0.2083
 2492SOL     OW 7764   2.656   5.844   1.721 -0.4552  0.4818  0.3122
 2492SOL    HW1 7765   2.578   5.904   1.702 -0.3862  0.6243  0.4657
 2492SOL    HW2 7766   2.644   5.757   1.674  0.0165  1.0488 -0.9064
 2493SOL     OW 7767   4.208   2.270   2.212 -0.8863 -0.1649 -0.3694
 2493SOL    HW1 7768   4.215   2.256   2.310  2.3494  1.6002 -0.2062
 2493SOL    HW2 7769   4.125   2.321   2.191 -1.0239  0.4942  1.6077
 2494SOL     OW 7770   1.958   0.958   3.626  0.2114 -0.1398 -0.1317
 2494SOL    HW1 7771   1.991   1.039   3.674  1.2211 -1.3699  1.3219
 2494SOL    HW2 7772   1.904   0.986   3.547  2.2564  1.9481 -0.8856
 2495SOL     OW 7773   4.296   2.479   1.809  0.4220  0.2943  0.3186
 2495SOL    HW1 7774   4.289   2.564   1.862 -1.4342 -1.0499  2.3970
 2495SOL    HW2 7775   4.224   2.478   1.739  0.9185  0.7050 -0.2181
 2496SOL     OW 7776   5.408   1.022   0.420  0.2287 -0.2469 -0.2198
 2496SOL    HW1 7777   5.416   1.004   0.322 -0.3380  1.0048 -0.5131
 2496SOL    HW2 7778   5.408   0.935   0.470 -0.7165 -0.9719 -1.4250
 2497SOL     OW 7779   2.564   0.804   4.341  0.6601 -0.8937  0.0354
 2497SOL    HW1 7780   2.652   0.770   4.308  0.6633  0.1006 -1.0393
 2497SOL    HW2 7781   2.517   0.854   4.268  0.0783  0.2497  1.1382
 2498SOL     OW 7782   3.691   4.617   0.488  0.0360  0.3246 -0.2013
 2498SOL    HW1 7783   3.602   4.657   0.470  0.8635  1.5058 -1.9291
 2498SOL    HW2 7784   3.756   4.646   0.418  1.5564 -1.2919  0.4517
 2499SOL     OW 7785   1.820   0.102   3.410  0.3435  0.0321  0.1098
 2499SOL    HW1 7786   1.726   0.109   3.376  1.1733  0.1957 -2.2674
 2499SOL    HW2 7787   1.867   0.189   3.397  1.5278 -0.7428 -0.9824
 2500SOL     OW 7788   3.079   1.893   3.169 -0.2978  0.6679 -0.6334
 2500SOL    HW1 7789   2.990   1.928   3.140 -0.7855 -1.9237 -2.6868
 2500SOL    HW2 7790   3.066   1.808   3.219  0.9964  0.3236 -0.8437
 2501SOL     OW 7791   3.970   1.968   4.289 -0.1468  0.6146  0.1650
 2501SOL    HW1 7792   3.872   1.977   4.305 -0.7207 -0.5883 -2.2241
 2501SOL    HW2 7793   3.989   1.881   4.243  2.0276  0.9059  0.3984
 2502SOL     OW 7794   0.637   1.595   2.498 -0.2741 -0.6354  0.0172
 2502SOL    HW1 7795   0.601   1.519   2.444  1.0020 -0.4509 -1.1473
 2502SOL    HW2 7796   0.633   1.572   2.595  1.1902 -2.7124 -0.3633
 2503SOL     OW 7797   2.434   0.877   2.559 -0.4682 -0.2356 -0.0481
 2503SOL    HW1 7798   2.423   0.970   2.593 -0.3664  0.2748 -1.3555
 2503SOL    HW2 7799   2.430   0.877   2.459  0.7139 -1.4730 -0.1266
 2504SOL     OW 7800   2.384   4.976   1.829 -0.2156 -0.0674  0.2851
 2504SOL    HW1 7801   2.327   4.943   1.904 -0.5011  2.9342  1.5520
 2504SOL    HW2 7802   2.333   4.971   1.743 -0.1835 -2.7805  0.3475
 2505SOL     OW 7803   4.055   2.066   1.880 -0.0469 -0.8621 -0.4647
 2505SOL    HW1 7804   4.106   2.143   1.918 -1.7462 -1.2385  2.9288
 2505SOL    HW2 7805   4.113   1.985   1.879  1.1439 -0.0457 -2.2416
 2506SOL     OW 7806   0.416   5.631   0.760 -0.0834 -0.5565 -0.1831
 2506SOL    HW1 7807   0.458   5.717   0.788  1.2294 -1.1123 -0.3522
 2506SOL    HW2 7808   0.321   5.647   0.732  0.3340  0.9276 -0.8174
 2507SOL     OW 7809   1.324   0.244   1.845 -0.3087 -0.0378  0.0519
 2507SOL    HW1 7810   1.328   0.263   1.747 -1.1268  0.2412  0.0603
 2507SOL    HW2 7811   1.243   0.188   1.864  0.9947 -1.9646  0.2892
 2508SOL     OW 7812   2.950   1.714   2.531 -0.0929  0.4252 -0.1269
 2508SOL    HW1 7813   2.854   1.695   2.549 -0.0439 -0.0871 -0.3746
 2508SOL    HW2 7814   2.999   1.727   2.617 -0.8969  3.4861 -0.0003
 2509SOL     OW 7815   1.776   1.006   2.250  0.2121  0.0236 -0.1777
 2509SOL    HW1 7816   1.771   1.024   2.348  2.2361 -2.3517  0.4960
 2509SOL    HW2 7817   1.687   0.977   2.217  0.0257 -1.8241  1.6764
 2510SOL     OW 7818   1.587   1.223   0.885  0.0474 -0.3051  0.0175
 2510SOL    HW1 7819   1.492   1.194   0.879  0.6753 -2.6325  0.2267
 2510SOL    HW2 7820   1.634   1.204   0.798  0.9490 -1.8347  0.7927
 2511SOL     OW 7821   4.857   1.186   2.912  0.5374  0.2638  0.1797
 2511SOL    HW1 7822   4.833   1.282   2.903  0.7500  0.3171  0.1794
 2511SOL    HW2 7823   4.774   1.132   2.926  0.4271  0.4582  0.2835
 2512SOL     OW 7824   2.308   0.426   3.705 -0.0216  0.2197 -0.2719
 2512SOL    HW1 7825   2.294   0.427   3.804 -1.4650  1.5688 -0.4438
 2512SOL    HW2 7826   2.267   0.344   3.666  0.3530 -0.2070  0.2288
 2513SOL     OW 7827   1.692   1.355   2.822 -0.0088  0.0021  0.0044
 2513SOL    HW1 7828   1.717   1.287   2.891  1.6586  1.7789  1.2314
 2513SOL    HW2 7829   1.770   1.373   2.762 -0.3129  1.1044 -0.0765
 2514SOL     OW 7830   2.938   0.516   2.370  0.1001  0.3220 -0.1164
 2514SOL    HW1 7831   2.907   0.608   2.343 -0.0790  0.0741 -0.7684
 2514SOL    HW2 7832   2.935   0.508   2.470 -2.7979  0.0288 -0.1357
 2515SOL     OW 7833   2.745   5.820   2.291 -0.3020  0.0882 -0.0172
 2515SOL    HW1 7834   2.679   5.895   2.282 -1.6409 -1.0877 -0.5019
 2515SOL    HW2 7835   2.738   5.781   2.382  0.8969  0.9696  0.4750
 2516SOL     OW 7836   0.600   0.250   0.496 -0.1997  0.3726 -0.5053
 2516SOL    HW1 7837   0.633   0.179   0.559 -0.7426  0.4516 -0.1201
 2516SOL    HW2 7838   0.670   0.320   0.486  0.2309 -0.0739 -0.6668
 2517SOL     OW 7839   2.829   2.108   2.561  0.1843 -0.5551  0.5471
 2517SOL    HW1 7840   2.882   2.046   2.503 -1.5961 -0.0968 -1.7120
 2517SOL    HW2 7841   2.833   2.200   2.523 -1.7084 -0.3994  0.6395
 2518SOL     OW 7842   1.958   1.587   3.217 -0.3372 -0.2032 -0.0157
 2518SOL    HW1 7843   1.897   1.666   3.213 -0.7925 -0.6239 -2.5458
 2518SOL    HW2 7844   1.912   1.512   3.265 -0.6949  0.3693  0.5648
 2519SOL     OW 7845   4.034   0.614   3.142  0.1778 -0.1455  0.4916
 2519SOL    HW1 7846   4.064   0.564   3.224  0.8012  1.6329  1.4007
 2519SOL    HW2 7847   3.934   0.623   3.144  0.0609 -1.2168  0.3616
 2520SOL     OW 7848   2.151   0.782   2.148  0.2955  0.0831  0.4931
 2520SOL    HW1 7849   2.238   0.805   2.104  0.1508  0.3442  0.3412
 2520SOL    HW2 7850   2.137   0.683   2.145  0.4175  0.0759  0.1979
 2521SOL     OW 7851   5.190   0.273   1.222  0.3195 -0.1699 -0.1435
 2521SOL    HW1 7852   5.117   0.340   1.213 -0.9724 -1.2740  1.5297
 2521SOL    HW2 7853   5.210   0.258   1.319  1.6390 -1.1041 -0.5253
 2522SOL     OW 7854   2.726   2.218   2.179  0.0775  0.2286  0.1187
 2522SOL    HW1 7855   2.712   2.124   2.212  1.5530  0.1858  0.7123
 2522SOL    HW2 7856   2.650   2.244   2.121  0.7331 -2.2001 -2.0196
 2523SOL     OW 7857   1.862   5.631   3.030  0.3505  0.1452 -0.0332
 2523SOL    HW1 7858   1.848   5.534   3.010 -0.5631  0.2952 -0.1971
 2523SOL    HW2 7859   1.878   5.680   2.945  0.2540  0.2214 -0.0072
 2524SOL     OW 7860   5.049   0.718   3.911  0.3079 -0.4025 -0.2544
 2524SOL    HW1 7861   5.143   0.742   3.937  0.2158 -0.7890  0.4595
 2524SOL    HW2 7862   5.007   0.663   3.984 -1.2129  1.5364  0.4127
 2525SOL     OW 7863   2.503   0.588   3.624  0.0326 -0.4152 -0.1091
 2525SOL    HW1 7864   2.579   0.566   3.686 -1.3389 -0.2334  1.7340
 2525SOL    HW2 7865   2.426   0.527   3.644 -1.6005  1.7707  0.6876
 2526SOL     OW 7866   3.801   2.540   2.802  0.1982  0.3087  1.1376
 2526SOL    HW1 7867   3.901   2.549   2.805  0.2340 -0.0646  1.1219
 2526SOL    HW2 7868   3.763   2.612   2.745  0.6720 -1.0379 -1.0187
 2527SOL     OW 7869   2.834   1.971   3.036  0.0406  0.0143 -0.3449
 2527SOL    HW1 7870   2.764   2.039   3.055 -0.7692 -0.7297 -0.6294
 2527SOL    HW2 7871   2.867   1.981   2.942  0.3079  0.3388 -0.2223
 2528SOL     OW 7872   3.005   1.199   1.589  0.7722 -0.2126 -0.2553
 2528SOL    HW1 7873   3.066   1.129   1.553  1.0081  0.2780 -0.8195
 2528SOL    HW2 7874   3.019   1.208   1.688  1.8199  0.0975 -0.4221
 2529SOL     OW 7875   2.875   0.764   2.314  0.6888  0.1508 -0.7284
 2529SOL    HW1 7876   2.959   0.808   2.283  0.7934  0.5603  0.1162
 2529SOL    HW2 7877   2.798   0.799   2.260  0.7160  1.6807  0.1730
 2530SOL     OW 7878   3.055   5.609   3.504  0.1338  0.6446  0.1514
 2530SOL    HW1 7879   3.034   5.666   3.583 -0.4619  0.1733  0.3462
 2530SOL    HW2 7880   3.031   5.514   3.524 -0.7747  0.6285 -0.8582
 2531SOL     OW 7881   3.518   1.170   3.082 -0.3351 -0.3927 -0.2026
 2531SOL    HW1 7882   3.542   1.185   2.987 -0.0238 -2.9280 -0.5998
 2531SOL    HW2 7883   3.597   1.191   3.140  0.7239 -2.2506 -0.8868
 2532SOL     OW 7884   1.976   1.200   4.549  0.7604 -0.2812 -0.1060
 2532SOL    HW1 7885   1.882   1.234   4.545  0.5120 -0.9095  0.2355
 2532SOL    HW2 7886   1.996   1.167   4.641  0.9568 -1.1497 -0.4499
 2533SOL     OW 7887   3.847   2.213   1.287 -0.3774 -0.2905  0.4263
 2533SOL    HW1 7888   3.770   2.167   1.331  0.3549 -2.0696 -0.0859
 2533SOL    HW2 7889   3.815   2.260   1.205 -0.5704 -3.3865 -1.4299
 2534SOL     OW 7890   1.142   1.755   2.972 -0.4442  0.0120  0.0719
 2534SOL    HW1 7891   1.154   1.835   2.913  0.2045 -1.3398 -1.7168
 2534SOL    HW2 7892   1.076   1.692   2.931 -2.5029  0.4753  2.4387
 2535SOL     OW 7893   0.827   1.873   3.088 -0.1009 -0.3225 -0.0297
 2535SOL    HW1 7894   0.871   1.785   3.067  1.4038  0.4725 -0.4261
 2535SOL    HW2 7895   0.739   1.857   3.132  0.4809 -2.0195  0.6116
 2536SOL     OW 7896   2.955   0.936   2.854  0.6805 -0.9333  0.5289
 2536SOL    HW1 7897   2.949   0.941   2.755 -0.1296 -1.8224  0.5184
 2536SOL    HW2 7898   3.034   0.989   2.886  1.3344 -1.1710 -0.6406
 2537SOL     OW 7899   1.539   2.519   2.844 -0.7055  0.5318 -0.2132
 2537SOL    HW1 7900   1.461   2.504   2.784  0.5050 -2.6630 -1.1742
 2537SOL    HW2 7901   1.560   2.435   2.894  2.3528  1.1071 -0.3108
 2538SOL     OW 7902   1.779   1.614   3.697 -0.2262  0.1035 -0.6692
 2538SOL    HW1 7903   1.869   1.620   3.654 -0.3591  0.6321 -0.8820
 2538SOL    HW2 7904   1.718   1.683   3.657 -1.2388 -1.3232 -1.7239
 2539SOL     OW 7905   3.316   0.228   2.928  0.6509  0.1089 -0.0448
 2539SOL    HW1 7906   3.235   0.192   2.975 -0.9639  0.5563 -2.3047
 2539SOL    HW2 7907   3.357   0.155   2.872 -1.6866  1.0827 -3.3746
 2540SOL     OW 7908   1.970   5.615   0.564 -0.5315  0.1288 -0.1517
 2540SOL    HW1 7909   1.909   5.540   0.536 -0.0324 -1.0854  1.8024
 2540SOL    HW2 7910   2.059   5.577   0.590 -0.7047  1.1903  2.1901
 2541SOL     OW 7911   3.733   0.350   3.466  0.5982  0.3806  0.0529
 2541SOL    HW1 7912   3.721   0.394   3.378 -1.0510  0.8042  0.4530
 2541SOL    HW2 7913   3.813   0.388   3.512  0.3059  1.6020 -0.4120
 2542SOL     OW 7914   4.618   1.046   2.915 -0.0148 -0.1665 -0.5376
 2542SOL    HW1 7915   4.579   1.071   3.004  0.5040  0.0662 -0.3735
 2542SOL    HW2 7916   4.603   0.949   2.898  1.0072 -0.4954  0.3813
 2543SOL     OW 7917   3.838   0.269   2.559  0.1617 -0.1253  0.8975
 2543SOL    HW1 7918   3.872   0.301   2.647  0.5084 -0.6595  0.9622
 2543SOL    HW2 7919   3.908   0.282   2.489  0.3553 -0.8491  0.9503
 2544SOL     OW 7920   2.566   0.031   4.493  0.1115  0.0683 -0.4092
 2544SOL    HW1 7921   2.638   0.048   4.561  0.0197  2.3986 -0.8137
 2544SOL    HW2 7922   2.599   0.061   4.403 -1.8369  2.7700 -0.3538
 2545SOL     OW 7923   3.092   1.384   3.632  0.5516 -0.2513  0.7973
 2545SOL    HW1 7924   3.048   1.295   3.625  0.1381 -0.2529  2.8160
 2545SOL    HW2 7925   3.027   1.455   3.603  0.2066 -0.4617  1.0447
 2546SOL     OW 7926   2.387   0.582   2.280 -0.2601  0.5215  0.1687
 2546SOL    HW1 7927   2.471   0.543   2.316 -0.3175  0.5163  0.2974
 2546SOL    HW2 7928   2.318   0.585   2.352 -0.2986  0.7342  0.1237
 2547SOL     OW 7929   2.788   0.909   3.286  0.4489 -0.0274  0.3964
 2547SOL    HW1 7930   2.870   0.865   3.322 -0.1580 -2.1276 -0.6408
 2547SOL    HW2 7931   2.707   0.864   3.323 -0.1912 -0.8909 -1.9249
 2548SOL     OW 7932   2.935   5.280   4.559  0.0058  1.0244  0.1870
 2548SOL    HW1 7933   2.840   5.304   4.580  0.2655  1.4951  0.8839
 2548SOL    HW2 7934   2.984   5.363   4.532  0.6855  1.1623  1.7116
 2549SOL     OW 7935   2.223   1.138   2.275  0.1739 -1.0561 -0.2863
 2549SOL    HW1 7936   2.319   1.143   2.300  0.0639 -0.7406  0.0760
 2549SOL    HW2 7937   2.175   1.073   2.334 -0.1451 -0.0963  0.5264
 2550SOL     OW 7938   2.514   5.455   1.771  0.6326 -0.6746  0.2974
 2550SOL    HW1 7939   2.514   5.380   1.836 -2.4731 -1.3638 -0.3393
 2550SOL    HW2 7940   2.542   5.540   1.817  1.4337 -1.6867  1.7288
 2551SOL     OW 7941   3.219   1.066   5.852 -0.4596 -0.0963  0.0143
 2551SOL    HW1 7942   3.270   1.006   5.912  1.3883  1.0844 -0.3050
 2551SOL    HW2 7943   3.189   1.015   5.771 -1.4993 -1.2672  1.1024
 2552SOL     OW 7944   2.473   1.127   2.368  0.0142  0.8593 -0.7610
 2552SOL    HW1 7945   2.497   1.030   2.364 -0.6910  0.5544  1.3856
 2552SOL    HW2 7946   2.553   1.180   2.395  0.2401  0.8258 -1.3378
 2553SOL     OW 7947   3.998   4.846   2.162 -0.0690 -0.2605  0.0766
 2553SOL    HW1 7948   4.070   4.857   2.093  2.0348 -0.9214  2.0767
 2553SOL    HW2 7949   4.016   4.906   2.239 -2.1946  0.1971  0.2710
 2554SOL     OW 7950   1.703   1.328   4.009 -0.1695 -0.4431  0.8247
 2554SOL    HW1 7951   1.685   1.307   3.913  0.9406  0.7364  0.3292
 2554SOL    HW2 7952   1.733   1.245   4.056  2.4476 -0.4403 -0.6613
 2555SOL     OW 7953   3.356   1.535   2.639 -0.1944 -0.2093  0.2145
 2555SOL    HW1 7954   3.423   1.461   2.628  0.3648 -0.0870  2.3282
 2555SOL    HW2 7955   3.325   1.538   2.735 -1.0704  1.5775 -0.0795
 2556SOL     OW 7956   0.255   2.590   3.274 -0.0445 -0.0535 -0.1215
 2556SOL    HW1 7957   0.169   2.541   3.288 -0.0171 -0.4217 -1.1414
 2556SOL    HW2 7958   0.292   2.567   3.184  1.0274  0.2484  0.2284
 2557SOL     OW 7959   2.712   0.092   3.284 -0.5285 -0.3182  0.4671
 2557SOL    HW1 7960   2.683   0.103   3.379  0.6239  0.3260  0.7700
 2557SOL    HW2 7961   2.778   0.164   3.262 -0.3438 -0.8177 -0.6407
 2558SOL     OW 7962   1.664   0.394   2.574 -0.0191 -0.0749 -0.1651
 2558SOL    HW1 7963   1.660   0.339   2.490 -0.2774 -0.0317 -0.1804
 2558SOL    HW2 7964   1.656   0.333   2.653 -0.8190 -0.0157 -0.1889
 2559SOL     OW 7965   1.096   0.740   3.719 -0.4476  0.0868  0.5089
 2559SOL    HW1 7966   1.036   0.813   3.687  0.7096  1.5156  1.4668
 2559SOL    HW2 7967   1.086   0.730   3.818  1.3179  0.7907  0.7876
 2560SOL     OW 7968   1.741   0.291   3.092 -0.4544  0.2256  0.5659
 2560SOL    HW1 7969   1.705   0.227   3.160 -1.5232  1.7951  1.5398
 2560SOL    HW2 7970   1.665   0.332   3.041  0.1858  0.8993  0.1393
 2561SOL     OW 7971   1.424   1.224   3.087  0.5749 -0.1184 -0.3270
 2561SOL    HW1 7972   1.416   1.198   2.991 -0.0671 -1.3777  0.0452
 2561SOL    HW2 7973   1.417   1.323   3.096 -2.7238 -0.1287 -1.3056
 2562SOL     OW 7974   2.368   4.698   3.324 -0.0562  0.1122  0.9905
 2562SOL    HW1 7975   2.335   4.739   3.409 -0.7195  0.1839  0.7053
 2562SOL    HW2 7976   2.297   4.639   3.286 -0.0248  0.5865  0.1560
 2563SOL     OW 7977   2.087   1.014   5.545 -0.5994 -0.0724  0.4189
 2563SOL    HW1 7978   2.007   0.956   5.536 -0.8389  0.2542  0.4268
 2563SOL    HW2 7979   2.137   1.016   5.459  1.4093 -3.1426  1.3331
 2564SOL     OW 7980   2.491   4.880   4.590 -0.1568 -0.2093 -0.0962
 2564SOL    HW1 7981   2.482   4.818   4.667  0.0287 -0.5327 -0.3327
 2564SOL    HW2 7982   2.408   4.879   4.536 -0.6546  0.7208  0.6084
 2565SOL     OW 7983   2.171   1.084   2.004  0.3383 -0.2312 -0.6045
 2565SOL    HW1 7984   2.203   1.108   2.096  0.3605  1.2669 -0.9850
 2565SOL    HW2 7985   2.087   1.031   2.011 -0.5534  1.2554  0.2563
 2566SOL     OW 7986   2.505   2.838   2.161  0.3397 -0.5556  0.3009
 2566SOL    HW1 7987   2.585   2.890   2.193  0.2767 -0.8549  0.9461
 2566SOL    HW2 7988   2.517   2.817   2.064  0.9188 -0.3566  0.3225
 2567SOL     OW 7989   1.212   0.938   2.456  0.1702 -0.4558 -0.2865
 2567SOL    HW1 7990   1.159   0.926   2.372 -0.6591 -1.9124  0.4061
 2567SOL    HW2 7991   1.228   0.849   2.498  1.6996  0.1313  0.4415
 2568SOL     OW 7992   2.553   5.670   1.918 -0.0446 -0.1467 -0.1711
 2568SOL    HW1 7993   2.586   5.743   1.858  0.9913 -1.1203 -0.8292
 2568SOL    HW2 7994   2.475   5.703   1.972 -0.3965  1.0484 -1.3605
 2569SOL     OW 7995   1.634   5.223   1.829  0.0014  0.2365  0.4243
 2569SOL    HW1 7996   1.657   5.276   1.747  0.7858 -0.5352  0.1266
 2569SOL    HW2 7997   1.637   5.126   1.808 -0.4694  0.0433  1.2070
 2570SOL     OW 7998   1.509   0.954   2.232  0.5656  0.5713  0.2677
 2570SOL    HW1 7999   1.478   0.862   2.207 -2.5383  1.7470 -0.6266
 2570SOL    HW2 8000   1.464   0.982   2.317  1.5165  1.2697  0.5497
 2571SOL     OW 8001   3.383   1.671   4.007  0.0033  0.6420  0.0369
 2571SOL    HW1 8002   3.356   1.636   3.917 -2.5584  3.1309 -0.2975
 2571SOL    HW2 8003   3.319   1.636   4.076 -0.8848  2.3180  0.1129
 2572SOL     OW 8004   3.458   0.551   1.856  0.6950  0.7303  0.1369
 2572SOL    HW1 8005   3.367   0.586   1.836  0.8169  1.0436  0.1187
 2572SOL    HW2 8006   3.467   0.535   1.954  0.7904  1.1933  0.2061
 2573SOL     OW 8007   5.000   2.336   3.716  0.4422 -0.2560 -0.1634
 2573SOL    HW1 8008   4.943   2.382   3.785  0.8492 -1.3007  0.8902
 2573SOL    HW2 8009   5.052   2.263   3.759  0.6039 -1.0295 -1.6190
 2574SOL     OW 8010   2.758   1.679   3.278 -0.2855 -0.2159 -0.4175
 2574SOL    HW1 8011   2.707   1.599   3.310  1.2517 -1.5077 -1.0641
 2574SOL    HW2 8012   2.706   1.725   3.206 -1.8405  0.2489  0.9411
 2575SOL     OW 8013   3.136   1.090   2.368  0.0772 -0.0051  0.5774
 2575SOL    HW1 8014   3.183   1.009   2.404 -1.9049 -0.5033  2.2593
 2575SOL    HW2 8015   3.183   1.172   2.398  1.5608 -0.4836 -0.3328
 2576SOL     OW 8016   1.987   2.423   2.351 -0.2075 -0.5549  0.7021
 2576SOL    HW1 8017   2.075   2.381   2.331  0.2282  1.1272 -1.2504
 2576SOL    HW2 8018   2.001   2.519   2.377 -1.4282 -0.4712  1.1495
 2577SOL     OW 8019   1.697   5.167   2.439 -0.0081 -0.5940  0.1727
 2577SOL    HW1 8020   1.716   5.146   2.342 -0.5888  0.5559 -0.2040
 2577SOL    HW2 8021   1.650   5.089   2.480 -0.0433 -0.9717 -0.5519
 2578SOL     OW 8022   1.198   2.449   4.854  0.6353  0.2794 -0.2061
 2578SOL    HW1 8023   1.181   2.529   4.796  0.8981 -0.4077 -1.2651
 2578SOL    HW2 8024   1.296   2.439   4.870  0.4683  1.8305  2.4119
 2579SOL     OW 8025   3.889   0.328   1.741  0.2159 -0.2365 -0.3767
 2579SOL    HW1 8026   3.967   0.361   1.794  1.4327 -0.9096 -1.7137
 2579SOL    HW2 8027   3.875   0.387   1.662  0.0488 -0.7515 -0.7344
 2580SOL     OW 8028   1.946   0.703   3.072  0.0993  0.2776 -0.7724
 2580SOL    HW1 8029   1.872   0.682   3.137 -0.6005  2.3671 -0.8248
 2580SOL    HW2 8030   1.924   0.665   2.983  1.7471 -3.9283  0.3949
 2581SOL     OW 8031   4.967   2.207   4.534  0.4134 -0.2265  1.0820
 2581SOL    HW1 8032   4.871   2.178   4.526  0.3844 -0.0935  0.9443
 2581SOL    HW2 8033   4.976   2.301   4.501  0.8369 -0.7022 -0.2045
 2582SOL     OW 8034   1.013   1.235   0.784  0.3892 -0.4772  0.1007
 2582SOL    HW1 8035   1.000   1.181   0.867  1.4687 -0.9287 -0.0047
 2582SOL    HW2 8036   1.074   1.312   0.804  0.1353 -0.2186 -0.1209
 2583SOL     OW 8037   0.618   0.175   3.060  0.2189  0.3942 -0.4450
 2583SOL    HW1 8038   0.597   0.249   3.123  1.4686  1.8461 -1.6775
 2583SOL    HW2 8039   0.714   0.148   3.069  0.5866  1.0451 -2.1059
 2584SOL     OW 8040   2.154   2.071   3.080 -0.1966 -0.4900  0.3272
 2584SOL    HW1 8041   2.129   1.974   3.074  2.2672 -1.2311  0.7255
 2584SOL    HW2 8042   2.235   2.088   3.023 -1.9801  1.9306 -1.7081
 2585SOL     OW 8043   3.913   0.138   1.959  0.1603 -0.1734 -0.2776
 2585SOL    HW1 8044   3.875   0.185   1.880  2.6971 -0.3444 -1.6862
 2585SOL    HW2 8045   3.901   0.039   1.948 -0.0832 -0.1640 -0.1069
 2586SOL     OW 8046   4.356   5.837   2.349 -0.6156  0.1445  0.6012
 2586SOL    HW1 8047   4.412   5.757   2.331 -0.5837  0.1709  0.5816
 2586SOL    HW2 8048   4.272   5.809   2.396 -0.3854  0.1554  1.0218
 2587SOL     OW 8049   1.722   2.634   2.204  0.6274  0.4152  0.2391
 2587SOL    HW1 8050   1.737   2.535   2.202 -1.6160  0.0017 -1.9506
 2587SOL    HW2 8051   1.776   2.678   2.132 -1.2864  0.1561 -1.4576
 2588SOL     OW 8052   3.037   5.436   1.233 -0.2528  0.0704 -0.4060
 2588SOL    HW1 8053   3.135   5.432   1.213 -0.4302 -1.8756 -1.0606
 2588SOL    HW2 8054   2.986   5.390   1.160 -1.6638  0.9231 -0.0050
 2589SOL     OW 8055   3.333   2.883   2.141  0.4757 -0.2278  0.3183
 2589SOL    HW1 8056   3.305   2.919   2.052 -0.1400 -0.3596  0.4590
 2589SOL    HW2 8057   3.262   2.902   2.209  0.0562 -1.8365  0.3667
 2590SOL     OW 8058   3.181   0.576   1.236  0.4565 -0.1471  0.0948
 2590SOL    HW1 8059   3.129   0.651   1.276  0.7177 -0.6866  1.4832
 2590SOL    HW2 8060   3.125   0.493   1.235  0.9677 -0.5019  0.7251
 2591SOL     OW 8061   2.530   1.674   3.895 -0.3330  0.3925 -0.4691
 2591SOL    HW1 8062   2.542   1.606   3.822 -0.3620 -0.3399  0.1995
 2591SOL    HW2 8063   2.444   1.656   3.944  0.6206 -0.3306  1.0000
 2592SOL     OW 8064   2.980   1.145   3.604 -0.1488 -0.0200  1.0413
 2592SOL    HW1 8065   2.889   1.110   3.581  0.0541  1.0445 -1.8197
 2592SOL    HW2 8066   3.000   1.125   3.700 -2.9120 -1.2670  1.4669
 2593SOL     OW 8067   1.735   4.129   0.886  0.5970  0.2305  0.0991
 2593SOL    HW1 8068   1.779   4.155   0.800  0.9948 -0.3293  0.1287
 2593SOL    HW2 8069   1.775   4.044   0.919 -0.4161 -0.2038  0.2152
 2594SOL     OW 8070   3.275   0.761   1.584  0.3956 -0.1345  0.4134
 2594SOL    HW1 8071   3.330   0.689   1.541 -2.3652 -1.6014 -0.9214
 2594SOL    HW2 8072   3.295   0.849   1.540  0.9490 -0.7902 -0.6858
 2595SOL     OW 8073   1.246   1.364   2.691 -0.0762  0.3443  0.2531
 2595SOL    HW1 8074   1.208   1.276   2.721 -0.9914  0.0942 -1.5291
 2595SOL    HW2 8075   1.172   1.425   2.663  0.6832  0.7880 -0.8568
 2596SOL     OW 8076   2.378   0.902   1.977  0.3331 -0.0937  0.3359
 2596SOL    HW1 8077   2.306   0.971   1.979  0.1361 -0.3126  1.3743
 2596SOL    HW2 8078   2.452   0.932   1.916 -1.2267 -0.4781 -1.8523
 2597SOL     OW 8079   1.813   1.913   2.596 -0.0614 -0.1474 -0.4407
 2597SOL    HW1 8080   1.752   1.843   2.634 -1.6540  0.8509 -1.0387
 2597SOL    HW2 8081   1.816   1.991   2.659  2.0090 -0.8610  0.4125
 2598SOL     OW 8082   0.981   0.634   2.693  0.3300  0.4423 -0.5002
 2598SOL    HW1 8083   1.003   0.628   2.596 -1.2265 -2.2400 -0.7870
 2598SOL    HW2 8084   0.881   0.638   2.704  0.3836 -1.2958  0.9908
 2599SOL     OW 8085   3.715   5.734   2.580  0.0234  0.2255  0.0175
 2599SOL    HW1 8086   3.765   5.813   2.545  2.1333 -0.8135  0.5053
 2599SOL    HW2 8087   3.712   5.662   2.510  0.1522 -0.1031  0.3414
 2600SOL     OW 8088   0.874   0.934   4.613  0.1862  0.7268  0.3193
 2600SOL    HW1 8089   0.888   0.968   4.706  0.2050  0.6592  0.3411
 2600SOL    HW2 8090   0.783   0.960   4.581  1.0514  2.9446 -0.5701
 2601SOL     OW 8091   2.337   0.532   4.759 -0.4514 -0.9862  0.2020
 2601SOL    HW1 8092   2.423   0.481   4.752 -0.2000 -0.4559 -0.7998
 2601SOL    HW2 8093   2.303   0.553   4.667 -0.1603  1.2777  0.5448
 2602SOL     OW 8094   4.064   2.451   1.653 -0.0114 -0.1024  0.4126
 2602SOL    HW1 8095   3.984   2.435   1.709 -0.3886 -1.9587 -0.5800
 2602SOL    HW2 8096   4.072   2.378   1.584  1.8330  0.7083 -0.2982
 2603SOL     OW 8097   2.647   1.454   3.425 -0.6060  0.0169  0.3337
 2603SOL    HW1 8098   2.654   1.365   3.469 -0.4150 -0.7611 -1.1794
 2603SOL    HW2 8099   2.557   1.493   3.444 -1.0678 -0.9522  0.2455
 2604SOL     OW 8100   1.628   0.203   0.464  0.1243 -0.3756  0.0375
 2604SOL    HW1 8101   1.660   0.119   0.420 -1.3776 -1.1038  0.2737
 2604SOL    HW2 8102   1.549   0.182   0.521 -1.3679  1.4582 -1.2263
 2605SOL     OW 8103   0.928   1.540   3.294  0.1653  0.1952 -0.0596
 2605SOL    HW1 8104   0.961   1.633   3.281  1.4106  0.0343  1.5969
 2605SOL    HW2 8105   0.954   1.484   3.216  2.6300  0.4312  0.5174
 2606SOL     OW 8106   2.381   4.290   2.589  0.0687  0.0733  0.0392
 2606SOL    HW1 8107   2.446   4.365   2.577  0.3653  0.2291  2.2123
 2606SOL    HW2 8108   2.290   4.320   2.559 -0.1084  1.8524  2.0472
 2607SOL     OW 8109   1.208   2.451   3.288  0.3577  0.4014 -0.7646
 2607SOL    HW1 8110   1.235   2.356   3.269  0.1391  0.3403 -0.7823
 2607SOL    HW2 8111   1.259   2.513   3.229  0.4442  0.2888 -0.8100
 2608SOL     OW 8112   3.059   2.399   1.820 -0.1550  0.0353 -0.2237
 2608SOL    HW1 8113   3.022   2.335   1.888  1.8933 -1.4718 -0.4226
 2608SOL    HW2 8114   3.069   2.352   1.733  1.2811  0.6627 -0.4145
 2609SOL     OW 8115   2.156   0.162   2.916 -0.1537 -0.5150 -0.4716
 2609SOL    HW1 8116   2.227   0.230   2.934 -0.1854 -0.8633  1.0878
 2609SOL    HW2 8117   2.066   0.201   2.936 -0.3210 -0.4810 -1.2372
 2610SOL     OW 8118   1.876   1.435   0.368 -0.4500  0.5980  0.1161
 2610SOL    HW1 8119   1.965   1.391   0.379 -0.6864 -0.0431 -0.4583
 2610SOL    HW2 8120   1.803   1.367   0.378 -0.9028  1.2120  1.1186
 2611SOL     OW 8121   2.348   0.125   2.698 -0.2082  0.2417  0.1135
 2611SOL    HW1 8122   2.258   0.128   2.741 -0.7222 -0.4720 -0.8734
 2611SOL    HW2 8123   2.342   0.159   2.604  0.4148 -0.4140 -0.1726
 2612SOL     OW 8124   3.869   1.137   3.672 -0.2434  0.6921 -0.0059
 2612SOL    HW1 8125   3.805   1.179   3.608 -1.4825 -0.3230  0.5351
 2612SOL    HW2 8126   3.868   1.189   3.758  0.1105  1.0262 -0.2022
 2613SOL     OW 8127   2.072   5.823   1.995  0.0907  0.2112  0.3093
 2613SOL    HW1 8128   1.983   5.781   1.977  0.8256 -0.9864 -0.6742
 2613SOL    HW2 8129   2.145   5.757   1.976  1.2537  1.5728 -0.1619
 2614SOL     OW 8130   4.230   1.808   2.922  0.2540 -0.5864  0.1379
 2614SOL    HW1 8131   4.169   1.735   2.952  0.7246 -1.2175 -0.4203
 2614SOL    HW2 8132   4.181   1.896   2.924 -0.3869 -0.9519  0.5716
 2615SOL     OW 8133   2.658   2.149   3.271  0.6841  0.1498 -0.3607
 2615SOL    HW1 8134   2.732   2.216   3.260  0.4753  0.2730 -1.0628
 2615SOL    HW2 8135   2.575   2.185   3.229  0.1285  0.1574  0.7232
 2616SOL     OW 8136   4.170   0.488   3.775  0.3645  0.2058  0.1862
 2616SOL    HW1 8137   4.266   0.511   3.757  0.3127 -0.5006 -1.1350
 2616SOL    HW2 8138   4.123   0.568   3.813  1.4857  0.5303  0.9582
 2617SOL     OW 8139   3.537   5.508   2.930 -0.0660  0.5253  0.1519
 2617SOL    HW1 8140   3.522   5.532   2.834  0.8217  2.4774  0.4640
 2617SOL    HW2 8141   3.616   5.558   2.965  0.4151 -1.1175  1.5827
 2618SOL     OW 8142   0.996   1.074   2.034 -0.2811 -0.1511  0.2731
 2618SOL    HW1 8143   1.070   1.064   1.968 -0.0838 -0.1657  0.4962
 2618SOL    HW2 8144   1.020   1.144   2.102 -0.5043 -0.0991  0.3015
 2619SOL     OW 8145   3.332   0.977   1.886  0.0702  0.0324 -0.1866
 2619SOL    HW1 8146   3.323   0.887   1.843 -2.3407  0.0309  0.1925
 2619SOL    HW2 8147   3.399   0.972   1.961  0.6699 -1.1746 -0.7789
 2620SOL     OW 8148   2.828   0.262   3.998  0.6112  0.1455 -0.9067
 2620SOL    HW1 8149   2.849   0.222   3.908 -0.6906 -1.0348 -0.7086
 2620SOL    HW2 8150   2.825   0.189   4.066  0.4337  0.8979 -0.1082
 2621SOL     OW 8151   1.990   5.092   1.606 -0.0132 -0.2001 -0.2677
 2621SOL    HW1 8152   1.913   5.032   1.584 -0.6892  0.3036  0.6420
 2621SOL    HW2 8153   2.047   5.048   1.676 -1.5762  0.9382  1.8567
 2622SOL     OW 8154   2.635   1.214   2.739  0.4443 -0.3657 -0.2137
 2622SOL    HW1 8155   2.728   1.210   2.702  0.5054 -0.4093 -0.0557
 2622SOL    HW2 8156   2.618   1.133   2.795  0.7223  0.2161  0.7239
 2623SOL     OW 8157   2.221   0.298   1.519  0.6069  0.0076 -0.1284
 2623SOL    HW1 8158   2.318   0.305   1.496  0.3795 -0.4001 -1.2985
 2623SOL    HW2 8159   2.183   0.390   1.531  1.6857  0.1663  3.0259
 2624SOL     OW 8160   1.518   1.594   1.762  0.3882  0.6836 -0.5384
 2624SOL    HW1 8161   1.462   1.595   1.845  0.1570  1.4114 -0.6975
 2624SOL    HW2 8162   1.588   1.523   1.770  0.5658  0.9511  0.4146
 2625SOL     OW 8163   4.019   0.624   2.465  0.2331 -0.5088 -0.2067
 2625SOL    HW1 8164   3.960   0.644   2.542  0.6576  0.0293 -0.0187
 2625SOL    HW2 8165   4.019   0.525   2.448  1.1022 -0.7932  1.2736
 2626SOL     OW 8166   3.749   2.242   2.076  0.4805 -0.6933 -0.4382
 2626SOL    HW1 8167   3.670   2.247   2.137  0.5777 -1.7300 -0.2053
 2626SOL    HW2 8168   3.749   2.154   2.029  2.1847 -1.2691  0.5310
 2627SOL     OW 8169   1.354   0.954   1.077 -0.2044  0.3308  0.2801
 2627SOL    HW1 8170   1.408   0.880   1.037 -1.0567 -0.4682  0.5824
 2627SOL    HW2 8171   1.410   1.002   1.146  1.6397  2.3589 -2.3874
 2628SOL     OW 8172   3.122   1.772   2.736 -0.3849 -0.1158 -0.1364
 2628SOL    HW1 8173   3.169   1.858   2.757 -1.2356  0.4840 -0.6455
 2628SOL    HW2 8174   3.148   1.703   2.804  0.0860  0.6230  0.4532
 2629SOL     OW 8175   3.475   3.914   1.110  0.4137  0.0359  0.3114
 2629SOL    HW1 8176   3.490   3.987   1.043  0.5798  0.5430  0.8921
 2629SOL    HW2 8177   3.478   3.826   1.064 -0.1106  0.4070 -0.4532
 2630SOL     OW 8178   3.565   5.113   1.831  0.2228  0.0589 -0.0261
 2630SOL    HW1 8179   3.493   5.176   1.802  1.1673  0.0554 -2.6727
 2630SOL    HW2 8180   3.525   5.038   1.884 -0.8985  2.9295  3.6743
 2631SOL     OW 8181   4.665   2.556   5.120  0.2971 -0.2092 -0.7325
 2631SOL    HW1 8182   4.715   2.524   5.039  0.2075  0.5795 -1.1179
 2631SOL    HW2 8183   4.702   2.645   5.148  0.1859 -0.3833 -0.0264
 2632SOL     OW 8184   2.584   0.139   2.265  0.3803  0.4769  0.4387
 2632SOL    HW1 8185   2.675   0.171   2.241 -0.0859  1.5086  0.0051
 2632SOL    HW2 8186   2.521   0.160   2.190 -0.0389 -1.0889  0.3127
 2633SOL     OW 8187   1.674   0.514   4.078  0.1590  0.0094 -0.3348
 2633SOL    HW1 8188   1.614   0.527   4.157 -1.6961  0.3940 -1.7115
 2633SOL    HW2 8189   1.656   0.424   4.038  0.0152  0.3955 -1.1513
 2634SOL     OW 8190   3.786   0.667   3.208  0.2794 -0.2683 -0.0421
 2634SOL    HW1 8191   3.730   0.584   3.208  3.0061 -2.2559  1.5953
 2634SOL    HW2 8192   3.751   0.730   3.277  0.0318 -1.4878  0.9855
 2635SOL     OW 8193   3.785   5.400   1.983 -0.5529  0.4414 -0.2350
 2635SOL    HW1 8194   3.746   5.323   2.034 -0.2572  1.3309  1.4055
 2635SOL    HW2 8195   3.775   5.383   1.885  1.1239 -2.5468 -0.0329
 2636SOL     OW 8196   1.050   0.407   1.682 -0.4559  0.1130 -1.2821
 2636SOL    HW1 8197   1.121   0.409   1.752 -0.7379  0.2812 -1.0004
 2636SOL    HW2 8198   1.090   0.430   1.593  0.0608 -0.8795 -1.3209
 2637SOL     OW 8199   1.993   1.741   1.305 -0.6374 -0.0054 -0.0547
 2637SOL    HW1 8200   1.986   1.720   1.403 -0.8954  1.8574  0.3700
 2637SOL    HW2 8201   1.907   1.782   1.275 -0.4374 -0.2714 -0.9933
 2638SOL     OW 8202   3.568   0.001   1.803 -0.5979  0.2963  0.4067
 2638SOL    HW1 8203   3.567   0.101   1.799 -2.9531  0.2869 -1.3650
 2638SOL    HW2 8204   3.628  -0.035   1.731 -0.6910  0.4411  0.2558
 2639SOL     OW 8205   2.120   0.644   3.635  0.2245  0.2102 -0.3405
 2639SOL    HW1 8206   2.162   0.563   3.676 -1.0012 -1.1808 -1.7307
 2639SOL    HW2 8207   2.039   0.669   3.688 -0.3104 -0.4615 -0.8331
 2640SOL     OW 8208   2.957   0.745   1.266 -0.4052 -0.2210 -0.1794
 2640SOL    HW1 8209   2.913   0.679   1.327  1.5538 -1.6195 -0.1860
 2640SOL    HW2 8210   2.993   0.821   1.320  0.9957 -1.2692  0.4558
 2641SOL     OW 8211   4.781   0.376   2.118 -0.2452  0.3568 -0.3405
 2641SOL    HW1 8212   4.715   0.370   2.043 -0.9137  1.1203  0.1710
 2641SOL    HW2 8213   4.759   0.306   2.187 -0.2603  0.3322 -0.3704
 2642SOL     OW 8214   2.658   1.426   1.629  0.0308 -0.6874 -0.1818
 2642SOL    HW1 8215   2.569   1.427   1.674 -0.8684 -0.2703 -1.9044
 2642SOL    HW2 8216   2.647   1.406   1.532  1.6657  0.8084 -0.7372
 2643SOL     OW 8217   3.831   1.199   4.733 -0.3115 -0.3652 -0.5097
 2643SOL    HW1 8218   3.873   1.110   4.748 -1.3603 -0.7112  0.5145
 2643SOL    HW2 8219   3.885   1.269   4.781  0.4795 -0.4380 -1.2668
 2644SOL     OW 8220   0.936   3.994   4.628  0.0327 -0.7791 -0.0758
 2644SOL    HW1 8221   0.854   3.999   4.685  1.6562 -2.2228  2.5902
 2644SOL    HW2 8222   0.931   3.913   4.569 -0.9176 -0.1979 -0.8365
 2645SOL     OW 8223   2.102   1.206   3.398 -0.0040 -0.7886  0.1464
 2645SOL    HW1 8224   2.095   1.225   3.300  2.7476 -2.4487 -0.4636
 2645SOL    HW2 8225   2.141   1.286   3.444  1.6981 -1.0869 -0.6908
 2646SOL     OW 8226   2.483   0.817   0.467  0.3121 -0.2760 -0.6150
 2646SOL    HW1 8227   2.546   0.891   0.445  0.0635  0.0643 -0.1985
 2646SOL    HW2 8228   2.463   0.764   0.384  1.1439 -0.3915 -0.7443
 2647SOL     OW 8229   4.820   2.521   3.420  0.1044 -0.1496  0.1430
 2647SOL    HW1 8230   4.841   2.544   3.325  0.6499 -2.5964 -0.3997
 2647SOL    HW2 8231   4.725   2.546   3.440  0.1633  0.9248 -0.8517
 2648SOL     OW 8232   1.964   5.791   3.454  0.1038 -0.3906  0.1856
 2648SOL    HW1 8233   1.950   5.723   3.382 -0.1189  0.2676 -0.4054
 2648SOL    HW2 8234   1.908   5.872   3.434  2.1034  0.9168 -0.3658
 2649SOL     OW 8235   4.091   5.442   4.362  0.3690 -0.3252  0.2680
 2649SOL    HW1 8236   4.156   5.461   4.289  0.5245  0.8868  0.7119
 2649SOL    HW2 8237   4.129   5.371   4.423  1.4607  0.6253  0.7363
 2650SOL     OW 8238   1.288   3.143   5.397 -0.3043 -0.0191 -0.5530
 2650SOL    HW1 8239   1.321   3.209   5.465  0.7102  1.0001 -1.9743
 2650SOL    HW2 8240   1.193   3.121   5.416 -0.4767  1.3497  0.3647
 2651SOL     OW 8241   2.984   1.532   4.724  0.6483  0.0323  0.1838
 2651SOL    HW1 8242   2.950   1.461   4.662 -0.1778  0.3647  0.2414
 2651SOL    HW2 8243   2.947   1.516   4.815  2.2329 -0.7256  0.7301
 2652SOL     OW 8244   2.245   0.941   5.776 -0.2931 -0.0283  0.5596
 2652SOL    HW1 8245   2.186   0.970   5.701 -0.5597 -0.5215  0.5777
 2652SOL    HW2 8246   2.334   0.984   5.767 -0.2875 -0.1825 -0.1038
 2653SOL     OW 8247   4.490   2.520   0.231  0.5486  0.2509  0.1551
 2653SOL    HW1 8248   4.520   2.503   0.325 -0.9113 -2.0178  0.2832
 2653SOL    HW2 8249   4.528   2.449   0.171 -1.9853 -0.9533 -0.1675
 2654SOL     OW 8250   1.395   2.245   5.200  0.4081  0.5169  0.3863
 2654SOL    HW1 8251   1.474   2.272   5.147 -0.5675 -0.6453 -1.7954
 2654SOL    HW2 8252   1.316   2.300   5.173 -0.6656 -1.6794 -1.2507
 2655SOL     OW 8253   3.207   3.032   5.692  0.2126 -0.3666 -0.7278
 2655SOL    HW1 8254   3.223   3.085   5.608  1.4350  1.4232  0.5688
 2655SOL    HW2 8255   3.267   2.953   5.693 -0.0760 -0.6199 -1.6874
 2656SOL     OW 8256   1.128   5.290   3.895 -0.0833 -0.1569 -0.0016
 2656SOL    HW1 8257   1.063   5.296   3.819  0.6901  0.3055 -0.6385
 2656SOL    HW2 8258   1.197   5.221   3.874  0.4632  0.3779  0.0170
 2657SOL     OW 8259   4.005   1.406   4.842 -0.5650  0.2100 -0.4163
 2657SOL    HW1 8260   3.966   1.493   4.871  1.1421  1.0228 -0.4485
 2657SOL    HW2 8261   4.101   1.402   4.868 -1.1530 -2.7240  1.9120
 2658SOL     OW 8262   3.367   3.422   4.663  0.4853 -0.3589  0.1028
 2658SOL    HW1 8263   3.295   3.368   4.620 -0.2120 -0.7825  1.7380
 2658SOL    HW2 8264   3.346   3.520   4.653  0.2587 -0.4536 -0.3622
 2659SOL     OW 8265   3.187   1.680   4.781 -0.3465 -0.2109  0.0759
 2659SOL    HW1 8266   3.163   1.777   4.783 -2.1917 -0.6054 -0.7977
 2659SOL    HW2 8267   3.104   1.625   4.767  0.7323 -1.8826 -0.0663
 2660SOL     OW 8268   3.695   2.467   5.436 -0.5578  0.2372  0.2780
 2660SOL    HW1 8269   3.748   2.446   5.354 -0.2027 -0.2621  0.6250
 2660SOL    HW2 8270   3.748   2.529   5.495 -0.9309  0.8285  0.0066
 2661SOL     OW 8271   0.700   1.762   4.355  0.2180 -0.2413  0.2423
 2661SOL    HW1 8272   0.739   1.843   4.311  0.9928  0.4801  2.1430
 2661SOL    HW2 8273   0.674   1.695   4.286  1.0361  0.9746 -1.2916
 2662SOL     OW 8274   2.805   2.701   5.428 -0.6713  0.3951 -0.0811
 2662SOL    HW1 8275   2.883   2.701   5.491 -0.9045 -0.3945  0.2160
 2662SOL    HW2 8276   2.800   2.789   5.382  1.4908 -0.1253 -1.4519
 2663SOL     OW 8277   4.321   2.487   3.642  0.4711 -0.2987  0.2282
 2663SOL    HW1 8278   4.263   2.416   3.682 -0.1713  0.6489  1.0140
 2663SOL    HW2 8279   4.293   2.504   3.547 -0.1188 -0.3076  0.3980
 2664SOL     OW 8280   5.302   5.875   5.598  0.2261  0.2897 -0.2214
 2664SOL    HW1 8281   5.297   5.822   5.683  1.3209 -0.1911 -0.4368
 2664SOL    HW2 8282   5.220   5.859   5.544  0.4009 -0.9523 -0.1382
 2665SOL     OW 8283   2.034   1.605   4.089  0.5011 -0.4108 -0.6477
 2665SOL    HW1 8284   2.096   1.660   4.145  0.2948  0.8332 -1.5990
 2665SOL    HW2 8285   2.082   1.523   4.058  1.4999  0.2467 -0.8973
 2666SOL     OW 8286   3.208   1.940   2.241 -0.0475 -0.3962  0.3051
 2666SOL    HW1 8287   3.294   1.952   2.292 -1.3130 -1.0200  2.7489
 2666SOL    HW2 8288   3.194   1.844   2.221 -0.0181 -0.2523 -0.4316
 2667SOL     OW 8289   2.080   0.929   3.113  0.0785  0.5779  0.6481
 2667SOL    HW1 8290   2.125   0.914   3.201 -0.5026  0.1340  0.8766
 2667SOL    HW2 8291   2.018   0.853   3.094  0.8491  0.2267 -0.5682
 2668SOL     OW 8292   3.377   0.850   3.518  0.4799 -0.0260  0.3039
 2668SOL    HW1 8293   3.451   0.880   3.579  0.7374 -0.7665  0.3615
 2668SOL    HW2 8294   3.379   0.751   3.510 -0.1370 -0.0014 -0.1786
 2669SOL     OW 8295   4.444   1.647   4.818  0.0611 -0.1164 -0.1764
 2669SOL    HW1 8296   4.431   1.725   4.879  1.6489  0.4283 -0.4777
 2669SOL    HW2 8297   4.509   1.583   4.860  0.3266 -0.2664 -0.8033
 2670SOL     OW 8298   1.899   5.556   5.589 -0.6353 -0.0038 -0.3604
 2670SOL    HW1 8299   1.905   5.478   5.527  0.2662 -0.1223 -0.1291
 2670SOL    HW2 8300   1.896   5.641   5.536 -2.5689 -0.2034 -0.6559
 2671SOL     OW 8301   1.521   1.071   3.927  0.0589  0.1095 -0.6038
 2671SOL    HW1 8302   1.434   1.119   3.917 -0.0624 -0.1277 -0.7023
 2671SOL    HW2 8303   1.591   1.117   3.872 -0.4146 -0.7096 -1.9537
 2672SOL     OW 8304   2.639   1.892   4.383  0.1879 -1.0584  0.1729
 2672SOL    HW1 8305   2.676   1.944   4.459  0.2295  0.6604 -0.9753
 2672SOL    HW2 8306   2.705   1.822   4.355  0.9162 -0.5371  0.5645
 2673SOL     OW 8307   3.437   0.380   4.390  0.7512  0.5844  0.6006
 2673SOL    HW1 8308   3.503   0.454   4.399  0.0456  1.3084 -0.0051
 2673SOL    HW2 8309   3.415   0.343   4.480  1.7859  0.4987  0.8264
 2674SOL     OW 8310   0.894   5.487   1.108 -0.0719 -0.8332  0.0587
 2674SOL    HW1 8311   0.840   5.527   1.034 -0.6341 -1.6920 -0.0109
 2674SOL    HW2 8312   0.838   5.421   1.158  0.8850 -1.6723  0.0457
 2675SOL     OW 8313   2.732   1.639   4.369 -0.1365  0.0942 -0.1275
 2675SOL    HW1 8314   2.656   1.594   4.416  0.4813 -0.9289 -0.0860
 2675SOL    HW2 8315   2.737   1.606   4.275  0.3443  0.0363 -0.0840
 2676SOL     OW 8316   2.057   1.129   5.961 -0.2074  0.0006  0.1372
 2676SOL    HW1 8317   2.067   1.205   5.897  0.6549  0.1569  0.4460
 2676SOL    HW2 8318   2.132   1.064   5.947 -0.6364 -0.5262  0.2389
 2677SOL     OW 8319   1.612   0.918   5.781  0.0038  0.6340 -0.4636
 2677SOL    HW1 8320   1.668   1.000   5.771  0.2212  0.5595  0.0816
 2677SOL    HW2 8321   1.590   0.881   5.691 -1.8461  2.4566 -0.8491
 2678SOL     OW 8322   2.833   0.981   5.035  0.3166 -0.1112 -0.1068
 2678SOL    HW1 8323   2.863   1.070   5.000  1.9401 -0.1730  1.0124
 2678SOL    HW2 8324   2.779   0.934   4.965 -1.3743  2.0927 -0.4073
 2679SOL     OW 8325   3.462   2.192   3.979 -0.0297 -0.2928 -0.1841
 2679SOL    HW1 8326   3.445   2.230   4.070 -0.5337 -2.4604  0.6833
 2679SOL    HW2 8327   3.375   2.170   3.935  0.2254 -2.3961  0.2565
 2680SOL     OW 8328   2.944   5.851   1.774  0.0954  0.2446 -0.8461
 2680SOL    HW1 8329   2.982   5.770   1.819  1.0165  0.5828 -0.9864
 2680SOL    HW2 8330   2.851   5.831   1.742  0.1421 -0.6060 -0.4806
 2681SOL     OW 8331   4.056   2.395   0.061 -0.2875 -0.5337  0.3119
 2681SOL    HW1 8332   4.114   2.458   0.112 -2.1590  1.0665  0.5868
 2681SOL    HW2 8333   4.083   2.301   0.082  0.3661  0.1001  2.6534
 2682SOL     OW 8334   1.628   0.284   1.645  0.1174 -0.0550  0.0587
 2682SOL    HW1 8335   1.541   0.297   1.693  0.7164 -2.1393  1.8758
 2682SOL    HW2 8336   1.614   0.295   1.547 -1.7059  1.8246  0.4640
 2683SOL     OW 8337   1.535   0.748   0.050 -0.2300 -0.0860  0.4737
 2683SOL    HW1 8338   1.609   0.735   0.116  0.0428 -0.6211  0.0610
 2683SOL    HW2 8339   1.561   0.818  -0.016  0.1290 -0.6375  0.0188
 2684SOL     OW 8340   3.810   5.924   5.924 -0.0147  0.5533 -0.2538
 2684SOL    HW1 8341   3.874   5.885   5.990  0.2355  0.0515 -0.7814
 2684SOL    HW2 8342   3.789   5.856   5.854 -1.9300  0.3626  0.4668
 2685SOL     OW 8343   2.958   1.781   5.221  0.7984 -0.5791 -0.4827
 2685SOL    HW1 8344   2.900   1.833   5.158  0.0782 -1.5317 -0.6277
 2685SOL    HW2 8345   2.919   1.786   5.313  1.4661  0.2312 -0.2310
 2686SOL     OW 8346   3.382   5.843   5.376 -0.3868  0.0067 -0.1537
 2686SOL    HW1 8347   3.469   5.871   5.335  0.7702 -1.4199  1.1809
 2686SOL    HW2 8348   3.399   5.768   5.441 -2.7002 -0.6868 -0.2763
 2687SOL     OW 8349   3.571   3.320   4.533  0.5278 -0.2776 -0.5087
 2687SOL    HW1 8350   3.653   3.344   4.585  0.5464 -1.6446  0.1211
 2687SOL    HW2 8351   3.491   3.355   4.580  0.6759  0.1942 -0.6006
 2688SOL     OW 8352   2.345   0.606   2.889 -0.0494  0.1395  0.4106
 2688SOL    HW1 8353   2.288   0.564   2.959 -0.6097  1.0269  0.4953
 2688SOL    HW2 8354   2.414   0.664   2.932  1.4504 -1.5147  0.3548
 2689SOL     OW 8355   2.105   1.705   4.908 -0.3841  0.5206  0.6819
 2689SOL    HW1 8356   2.075   1.799   4.921 -0.7089  0.4327  0.5802
 2689SOL    HW2 8357   2.063   1.667   4.825 -0.6677  0.1195  1.0056
 2690SOL     OW 8358   1.929   0.815   4.226 -0.7792  0.3557  0.1984
 2690SOL    HW1 8359   1.982   0.877   4.284 -1.6833  1.2692  0.0668
 2690SOL    HW2 8360   1.845   0.788   4.274 -2.9982  3.3901 -1.6542
 2691SOL     OW 8361   3.553   1.161   4.234 -0.1979 -0.0262 -0.3842
 2691SOL    HW1 8362   3.653   1.156   4.234 -0.1486  0.9079  0.5600
 2691SOL    HW2 8363   3.522   1.211   4.153  0.0209 -1.2463 -1.2637
 2692SOL     OW 8364   4.371   3.126   4.803  0.0141  0.3419 -0.3145
 2692SOL    HW1 8365   4.415   3.047   4.844  0.2093 -0.0366 -1.2261
 2692SOL    HW2 8366   4.401   3.210   4.849 -1.7366 -0.2215  2.0237
 2693SOL     OW 8367   3.360   5.673   4.341 -0.1895 -0.7754  0.2047
 2693SOL    HW1 8368   3.455   5.642   4.346 -0.0905 -0.3178  2.1072
 2693SOL    HW2 8369   3.357   5.771   4.359 -0.8470 -0.2955 -2.1393
 2694SOL     OW 8370   3.368   2.341   5.133  0.9165  0.4977 -0.0862
 2694SOL    HW1 8371   3.389   2.416   5.070  0.7770  0.5370 -0.0855
 2694SOL    HW2 8372   3.287   2.363   5.187  1.0646  0.4834  0.1428
 2695SOL     OW 8373   2.417   0.057   3.431  0.0602 -0.1713 -0.3622
 2695SOL    HW1 8374   2.339  -0.006   3.428 -0.4443  0.4365 -0.1797
 2695SOL    HW2 8375   2.445   0.079   3.337  0.4236 -0.8825 -0.4273
 2696SOL     OW 8376   1.872   1.058   3.391 -0.0626  0.5056 -0.5389
 2696SOL    HW1 8377   1.792   1.107   3.356 -0.2411  0.3511 -0.3484
 2696SOL    HW2 8378   1.954   1.112   3.374 -0.2228  0.7282 -0.6112
 2697SOL     OW 8379   2.516   0.192   4.989  0.1741 -0.0456 -0.9734
 2697SOL    HW1 8380   2.426   0.156   4.965  0.0970 -0.1482 -0.5299
 2697SOL    HW2 8381   2.586   0.124   4.967  0.1646  0.0958 -1.4693
 2698SOL     OW 8382   1.225   0.849   2.129 -0.3700  0.0888 -0.0923
 2698SOL    HW1 8383   1.282   0.766   2.132 -0.5136  0.0022  1.7352
 2698SOL    HW2 8384   1.142   0.834   2.183 -0.1842  1.5577  0.6611
 2699SOL     OW 8385   3.058   1.677   4.207  0.2631 -0.2128  0.1730
 2699SOL    HW1 8386   3.041   1.775   4.205  2.2670  0.2103  1.1636
 2699SOL    HW2 8387   3.083   1.646   4.115  0.0650  0.2863 -0.0522
 2700SOL     OW 8388   1.989   2.256   5.425 -0.3752 -0.2349 -0.6124
 2700SOL    HW1 8389   1.974   2.355   5.425 -0.0513 -0.1600  1.0518
 2700SOL    HW2 8390   1.903   2.209   5.439 -0.5745 -0.2140 -1.7007
 2701SOL     OW 8391   5.153   1.719   2.812 -0.7648 -0.5066 -0.1323
 2701SOL    HW1 8392   5.085   1.670   2.868 -0.3585 -1.0074 -0.0742
 2701SOL    HW2 8393   5.210   1.776   2.871  0.7399 -2.2949  0.1900
 2702SOL     OW 8394   3.169   0.606   5.883 -0.2746 -0.1812  0.0563
 2702SOL    HW1 8395   3.104   0.531   5.871 -0.4140 -0.0929  0.2752
 2702SOL    HW2 8396   3.121   0.690   5.906 -0.0272 -0.2857  0.9755
 2703SOL     OW 8397   4.588   1.116   4.367  0.9368  0.6176 -0.0721
 2703SOL    HW1 8398   4.611   1.081   4.458 -0.8274  2.8777  1.3614
 2703SOL    HW2 8399   4.598   1.216   4.367  0.5920  0.6986 -2.3034
 2704SOL     OW 8400   3.871   1.208   3.974  0.3866  0.5858 -0.2436
 2704SOL    HW1 8401   3.821   1.295   3.981  1.1126  0.9473  0.6884
 2704SOL    HW2 8402   3.962   1.224   3.937  0.9867  0.4259  1.1113
 2705SOL     OW 8403   1.891   0.581   5.645 -0.1473  0.0376  0.2491
 2705SOL    HW1 8404   1.806   0.584   5.697 -0.0762 -1.0090  0.4352
 2705SOL    HW2 8405   1.874   0.543   5.554  0.2686 -1.0050  0.5961
 2706SOL     OW 8406   2.262   1.584   4.482 -0.3482 -0.1365 -0.6975
 2706SOL    HW1 8407   2.207   1.506   4.512 -0.6127 -0.2324 -1.3911
 2706SOL    HW2 8408   2.206   1.666   4.481  0.1537  0.2528  0.8519
 2707SOL     OW 8409   2.160   2.775   5.564  0.3626  0.2026 -0.3063
 2707SOL    HW1 8410   2.123   2.866   5.546 -0.9172 -0.1833  0.2354
 2707SOL    HW2 8411   2.178   2.729   5.477  0.6436  0.8213 -0.5827
 2708SOL     OW 8412   1.336   0.286   3.909  0.1758  0.1802 -0.8187
 2708SOL    HW1 8413   1.259   0.260   3.851 -0.6376  0.1910  0.2403
 2708SOL    HW2 8414   1.303   0.339   3.987  1.3473  0.8798 -0.7646
 2709SOL     OW 8415   3.393   1.554   0.135 -0.2514 -0.6891 -0.0178
 2709SOL    HW1 8416   3.293   1.553   0.144 -0.3101 -0.2866 -0.5396
 2709SOL    HW2 8417   3.435   1.554   0.225 -0.7289 -0.6035  0.2072
 2710SOL     OW 8418   3.174   2.219   2.099  0.1028  0.2103  0.0339
 2710SOL    HW1 8419   3.200   2.129   2.134  0.5525 -0.7518 -2.5386
 2710SOL    HW2 8420   3.081   2.215   2.061 -0.2402  1.1154  0.7238
 2711SOL     OW 8421   1.875   4.936   0.173  0.5236 -0.0514  0.1272
 2711SOL    HW1 8422   1.792   4.986   0.199  0.7411  0.6303 -0.4439
 2711SOL    HW2 8423   1.873   4.844   0.212  0.0413  0.3527  1.0627
 2712SOL     OW 8424   3.644   2.745   5.758 -0.2749  0.2060 -0.0286
 2712SOL    HW1 8425   3.711   2.690   5.709 -1.4526 -2.2569  0.9698
 2712SOL    HW2 8426   3.686   2.783   5.841  0.4211  0.4652 -0.4877
 2713SOL     OW 8427   3.606   3.828   5.419  0.6402 -0.5214  0.1610
 2713SOL    HW1 8428   3.623   3.818   5.321  1.2903 -0.1031  0.2227
 2713SOL    HW2 8429   3.508   3.833   5.436  0.5442  0.5360 -0.5857
 2714SOL     OW 8430   1.456   1.717   4.179 -0.5005 -0.3564  0.2341
 2714SOL    HW1 8431   1.478   1.728   4.276  0.1883  0.5599 -0.0183
 2714SOL    HW2 8432   1.520   1.652   4.137 -0.7516 -0.6951  0.3699
 2715SOL     OW 8433   2.247   1.716   3.734  0.3008 -0.4615  0.1131
 2715SOL    HW1 8434   2.277   1.717   3.830  1.0604 -0.2927 -0.1147
 2715SOL    HW2 8435   2.327   1.708   3.675 -0.1979 -0.9847 -0.4994
 2716SOL     OW 8436   3.965   1.142   1.559 -0.3171  0.1025  0.5484
 2716SOL    HW1 8437   3.903   1.220   1.550 -0.3154  0.2002  1.2999
 2716SOL    HW2 8438   4.019   1.152   1.642  0.9817  0.1964 -0.2785
 2717SOL     OW 8439   3.043   0.067   3.671 -0.2104 -0.4266  0.3316
 2717SOL    HW1 8440   3.057   0.078   3.573  1.0480 -1.4799  0.3771
 2717SOL    HW2 8441   3.120   0.107   3.721 -0.6050 -0.3287  0.8757
 2718SOL     OW 8442   2.502   0.634   5.197 -0.2177 -0.0468 -0.3231
 2718SOL    HW1 8443   2.491   0.674   5.107 -1.5154 -1.1704 -0.7116
 2718SOL    HW2 8444   2.462   0.542   5.198 -0.2145 -0.0759  1.3787
 2719SOL     OW 8445   1.157   0.335   0.069  0.1166  0.0423  0.0070
 2719SOL    HW1 8446   1.140   0.360  -0.026 -1.4764 -1.1455 -0.0587
 2719SOL    HW2 8447   1.081   0.281   0.103  0.8103  0.1780  1.8791
 2720SOL     OW 8448   2.766   4.728   5.095 -0.9838  0.4384 -0.1981
 2720SOL    HW1 8449   2.780   4.797   5.024 -0.3043 -0.9550 -1.4782
 2720SOL    HW2 8450   2.685   4.674   5.074 -1.4819  0.7964  0.7643
 2721SOL     OW 8451   2.121   0.548   1.460 -0.3628 -0.5796  0.9415
 2721SOL    HW1 8452   2.196   0.613   1.450 -0.5150 -0.6523 -1.2297
 2721SOL    HW2 8453   2.038   0.597   1.486 -0.9949  0.5761 -2.7216
 2722SOL     OW 8454   3.198   0.856   5.684 -0.2207 -0.4260 -0.0786
 2722SOL    HW1 8455   3.236   0.813   5.602 -0.7766  1.2137 -1.2505
 2722SOL    HW2 8456   3.232   0.809   5.765 -0.6830 -2.9563 -1.2464
 2723SOL     OW 8457   3.516   2.530   3.972  0.2793  0.1009  0.1618
 2723SOL    HW1 8458   3.585   2.496   3.907  0.6725  0.6609  0.2754
 2723SOL    HW2 8459   3.561   2.550   4.060 -0.3610 -1.3146  0.8530
 2724SOL     OW 8460   2.900   0.453   3.647 -0.3110 -0.1407  0.5205
 2724SOL    HW1 8461   2.852   0.487   3.567  1.6861  0.8382 -0.3330
 2724SOL    HW2 8462   2.879   0.357   3.661 -2.3377  0.2075  0.1135
 2725SOL     OW 8463   3.575   0.754   1.705 -0.6657 -0.2531 -0.2618
 2725SOL    HW1 8464   3.539   0.670   1.745 -0.8198 -0.2889 -0.4753
 2725SOL    HW2 8465   3.584   0.742   1.606 -1.9351  0.4282 -0.4755
 2726SOL     OW 8466   2.757   1.239   4.296  0.3973  0.7087 -0.4712
 2726SOL    HW1 8467   2.828   1.304   4.266  1.6472 -0.3304  0.1216
 2726SOL    HW2 8468   2.737   1.176   4.221  0.4087  0.7495 -0.5089
 2727SOL     OW 8469   3.325   0.853   3.916 -0.4035  0.1523  0.2102
 2727SOL    HW1 8470   3.420   0.840   3.945 -0.4572  0.1652  0.3958
 2727SOL    HW2 8471   3.265   0.798   3.975 -0.7429  2.0487  1.7401
 2728SOL     OW 8472   0.916   4.697   0.216 -0.2646 -0.4764 -0.5359
 2728SOL    HW1 8473   0.875   4.784   0.187  0.6298 -0.1074 -0.7429
 2728SOL    HW2 8474   0.945   4.646   0.136 -1.4854 -1.3413 -0.4542
 2729SOL     OW 8475   1.187   0.669   4.778  0.6623  0.2314 -0.1563
 2729SOL    HW1 8476   1.275   0.622   4.778  0.5750  0.0521 -0.7761
 2729SOL    HW2 8477   1.202   0.767   4.786  0.9486  0.2330 -0.6327
 2730SOL     OW 8478   3.767   5.682   0.205 -0.2032 -0.2032 -0.1126
 2730SOL    HW1 8479   3.785   5.624   0.284  2.3328 -0.6990 -0.9615
 2730SOL    HW2 8480   3.852   5.701   0.157 -1.7557 -1.1778 -3.6285
 2731SOL     OW 8481   2.896   1.061   5.901  0.4614  0.4206 -0.5876
 2731SOL    HW1 8482   2.924   1.124   5.828  0.8233  0.4442 -0.4279
 2731SOL    HW2 8483   2.851   1.113   5.974 -2.4734  0.1068 -2.0168
 2732SOL     OW 8484   2.203   1.417   3.523  0.3263 -0.5264 -0.0460
 2732SOL    HW1 8485   2.269   1.390   3.594  1.3902  1.1834 -0.3207
 2732SOL    HW2 8486   2.158   1.502   3.550  0.1624 -0.2764 -1.0583
 2733SOL     OW 8487   3.106   1.863   3.488  0.3799 -0.0823 -0.3425
 2733SOL    HW1 8488   3.097   1.782   3.430  0.0377  0.3736 -0.9343
 2733SOL    HW2 8489   3.181   1.848   3.553  0.3761 -0.8393 -0.4965
 2734SOL     OW 8490   2.907   5.707   2.119 -0.1920 -0.2606  0.5606
 2734SOL    HW1 8491   2.834   5.725   2.184  0.2099  0.1554  0.9033
 2734SOL    HW2 8492   2.903   5.611   2.090 -0.8386 -0.2514  0.6089
 2735SOL     OW 8493   2.432   5.703   3.708  0.1202  0.0334  0.1029
 2735SOL    HW1 8494   2.487   5.625   3.679  0.2863  0.1327  0.1506
 2735SOL    HW2 8495   2.361   5.721   3.639 -0.9283 -1.1354  0.8230
 2736SOL     OW 8496   4.496   1.934   0.078  0.2299 -0.4683  0.5959
 2736SOL    HW1 8497   4.418   1.956   0.020  0.3931 -0.3451  0.4209
 2736SOL    HW2 8498   4.544   2.018   0.103  2.6320 -0.7368 -2.5576
 2737SOL     OW 8499   3.340   0.515   5.645 -0.0534  0.0375 -0.5302
 2737SOL    HW1 8500   3.391   0.537   5.728  0.0223  0.1324 -0.6012
 2737SOL    HW2 8501   3.376   0.431   5.605 -0.2162 -0.1133 -0.3627
 2738SOL     OW 8502   4.901   2.739   3.865 -0.0807 -0.2062  0.1139
 2738SOL    HW1 8503   4.977   2.803   3.877  0.6179 -1.1211  0.6571
 2738SOL    HW2 8504   4.870   2.742   3.770 -1.1409  2.1132  0.4791
 2739SOL     OW 8505   4.132   2.024   5.028  0.2471  0.4947 -0.2403
 2739SOL    HW1 8506   4.048   1.997   4.981  0.5241  1.1079 -1.1311
 2739SOL    HW2 8507   4.182   1.942   5.058 -0.2684  0.1085 -0.4257
 2740SOL     OW 8508   4.821   1.609   5.464  0.2811 -0.5629 -0.2984
 2740SOL    HW1 8509   4.815   1.511   5.445 -0.6177 -0.2240 -1.9302
 2740SOL    HW2 8510   4.776   1.629   5.551 -2.1614 -1.2442 -1.3218
 2741SOL     OW 8511   4.557   4.996   0.006  0.6238  0.2409  0.9281
 2741SOL    HW1 8512   4.477   5.034   0.051  0.3785 -0.4611  1.0876
 2741SOL    HW2 8513   4.609   5.070  -0.038 -0.5995  0.6022  0.0411
 2742SOL     OW 8514   2.847   2.590   0.726  0.0977 -0.3203 -0.4721
 2742SOL    HW1 8515   2.890   2.667   0.773 -1.2284  0.3153 -0.2700
 2742SOL    HW2 8516   2.907   2.559   0.652  1.0175  0.3605 -0.0289
 2743SOL     OW 8517   1.311   1.383   2.420  0.2669  0.4408 -0.0568
 2743SOL    HW1 8518   1.360   1.469   2.409 -2.0005  1.7166 -0.8670
 2743SOL    HW2 8519   1.286   1.370   2.516  1.2624  0.2823  0.1906
 2744SOL     OW 8520   1.341   5.443   0.024  0.4804  0.0813 -0.5758
 2744SOL    HW1 8521   1.414   5.376   0.039  1.3720  1.3702  1.3131
 2744SOL    HW2 8522   1.360   5.525   0.079 -1.3021  1.3187 -1.7054
 2745SOL     OW 8523   4.666   3.063   0.141  0.1413  0.4214 -0.9197
 2745SOL    HW1 8524   4.682   2.975   0.186 -0.4715  0.9854  0.4741
 2745SOL    HW2 8525   4.567   3.081   0.140  0.3273  1.5190 -0.3115
 2746SOL     OW 8526   2.825   2.511   5.237  0.5396 -0.1851 -0.0146
 2746SOL    HW1 8527   2.918   2.476   5.229  0.1395 -1.7366  1.4599
 2746SOL    HW2 8528   2.821   2.584   5.305  0.7492  0.2107 -0.4236
 2747SOL     OW 8529   3.384   1.710   4.350  0.1346  0.5918 -0.3028
 2747SOL    HW1 8530   3.310   1.755   4.399  1.1552  1.8749  0.0970
 2747SOL    HW2 8531   3.448   1.670   4.416  0.1495  0.0640 -0.6323
 2748SOL     OW 8532   3.049   1.661   3.327  0.1515  0.0047 -0.2031
 2748SOL    HW1 8533   2.954   1.695   3.331 -0.9133 -2.5096 -1.7989
 2748SOL    HW2 8534   3.048   1.561   3.322  2.9776 -0.1308  0.4699
 2749SOL     OW 8535   1.680   1.224   3.755 -0.2741 -0.0195 -0.4157
 2749SOL    HW1 8536   1.760   1.245   3.700 -0.4745 -0.1911 -0.7773
 2749SOL    HW2 8537   1.610   1.182   3.697  0.2734 -2.1225  0.3647
 2750SOL     OW 8538   3.246   1.222   0.271  0.0440  0.1269 -0.5266
 2750SOL    HW1 8539   3.230   1.232   0.173 -0.9929 -0.0811 -0.3964
 2750SOL    HW2 8540   3.182   1.280   0.321  0.0528 -0.3392  0.0411
 2751SOL     OW 8541   2.703   1.035   4.131 -0.9584 -0.5530 -0.0154
 2751SOL    HW1 8542   2.755   0.955   4.160  0.9078  0.2405 -1.0010
 2751SOL    HW2 8543   2.677   1.025   4.035  0.4147  0.5302 -0.5349
 2752SOL     OW 8544   5.875   1.988   5.794  0.1702 -0.3431 -0.2251
 2752SOL    HW1 8545   5.815   2.038   5.731  0.1036 -1.1257 -0.7909
 2752SOL    HW2 8546   5.843   1.894   5.803 -0.3634 -0.0290  1.6957
 2753SOL     OW 8547   1.640   0.587   5.780  0.3580 -0.4973  0.2537
 2753SOL    HW1 8548   1.584   0.634   5.848  0.4888 -1.4635  1.0540
 2753SOL    HW2 8549   1.587   0.573   5.697 -0.3363 -0.7155  0.7302
 2754SOL     OW 8550   4.307   0.935   4.967 -0.0735  0.1006 -0.1613
 2754SOL    HW1 8551   4.285   1.010   4.905 -0.5489  0.1349  0.0447
 2754SOL    HW2 8552   4.406   0.919   4.966 -0.0338  0.3421 -0.6470
 2755SOL     OW 8553   4.256   1.962   5.875 -0.1732  0.6067 -0.2092
 2755SOL    HW1 8554   4.201   2.018   5.937  0.0391  0.1812  0.3708
 2755SOL    HW2 8555   4.197   1.894   5.832  0.1132 -0.7157  1.4162
 2756SOL     OW 8556   2.011   5.718   4.239  0.0694 -0.2459 -0.3011
 2756SOL    HW1 8557   2.003   5.810   4.277 -1.0929 -0.3098 -0.3755
 2756SOL    HW2 8558   1.944   5.705   4.166  0.2470 -1.1431 -0.3225
 2757SOL     OW 8559   0.614   2.064   5.034 -0.1331 -0.1182  0.1442
 2757SOL    HW1 8560   0.611   1.996   5.106 -0.9430 -1.3115 -0.9691
 2757SOL    HW2 8561   0.573   2.149   5.067 -2.3720 -1.2660  0.4881
 2758SOL     OW 8562   2.444   1.581   5.480 -0.5528 -0.0026  0.1082
 2758SOL    HW1 8563   2.454   1.572   5.381 -1.6962  1.3105 -0.1492
 2758SOL    HW2 8564   2.522   1.538   5.525 -0.0131 -0.6159 -1.3542
 2759SOL     OW 8565   3.520   5.200   4.731 -0.3159 -0.3966  0.4656
 2759SOL    HW1 8566   3.504   5.292   4.694 -1.0030 -0.8612 -0.4263
 2759SOL    HW2 8567   3.473   5.191   4.819  2.8270  1.3435  2.5688
 2760SOL     OW 8568   3.690   1.879   4.164  0.0470  0.8480 -0.4449
 2760SOL    HW1 8569   3.694   1.896   4.263  1.0057  0.9568 -0.4891
 2760SOL    HW2 8570   3.666   1.783   4.148 -1.0517  1.0564 -0.1291
 2761SOL     OW 8571   1.106   0.518   3.421 -0.0998  0.2110  0.0919
 2761SOL    HW1 8572   1.179   0.540   3.486  0.3320 -1.0299  0.0572
 2761SOL    HW2 8573   1.126   0.560   3.333  0.9177 -0.6306 -0.0944
 2762SOL     OW 8574   2.635   0.339   4.404  0.6957 -0.4728 -0.0821
 2762SOL    HW1 8575   2.573   0.321   4.481  1.0603  0.5383  0.4633
 2762SOL    HW2 8576   2.602   0.290   4.323 -2.4383  2.1612 -0.5999
 2763SOL     OW 8577   1.945   5.494   0.999 -0.0682 -0.1313 -0.1013
 2763SOL    HW1 8578   1.915   5.584   0.966  0.0615  0.1844  0.6337
 2763SOL    HW2 8579   1.988   5.444   0.923 -0.0868  0.4470 -0.5019
 2764SOL     OW 8580   3.318   5.564   0.601 -0.4226  0.3900  0.4048
 2764SOL    HW1 8581   3.387   5.625   0.561 -0.6800  0.3261 -0.1522
 2764SOL    HW2 8582   3.239   5.618   0.630 -1.1343  0.2177 -1.1310
 2765SOL     OW 8583   3.525   2.286   3.575  0.0300  0.3951 -0.2424
 2765SOL    HW1 8584   3.578   2.263   3.656 -0.5980 -0.3436 -0.0277
 2765SOL    HW2 8585   3.577   2.262   3.493 -0.2585 -1.0274 -0.0292
 2766SOL     OW 8586   2.045   1.189   3.137 -0.2812  0.4599 -0.4979
 2766SOL    HW1 8587   2.086   1.219   3.051  0.6690 -0.6083 -0.4396
 2766SOL    HW2 8588   2.067   1.093   3.153 -1.9165  0.1574  0.0855
 2767SOL     OW 8589   4.803   2.619   0.496  0.2721 -0.4437  0.8570
 2767SOL    HW1 8590   4.851   2.689   0.549  0.7309  0.4404 -0.6570
 2767SOL    HW2 8591   4.860   2.538   0.488  1.1689  0.2550 -0.1389
 2768SOL     OW 8592   4.854   1.837   0.667  0.4066 -0.1469 -0.0365
 2768SOL    HW1 8593   4.905   1.914   0.707  0.2904  1.3868 -2.6498
 2768SOL    HW2 8594   4.758   1.845   0.691  0.5312 -0.0036  0.4384
 2769SOL     OW 8595   5.444   2.005   4.506 -0.3108  0.2935  0.3994
 2769SOL    HW1 8596   5.350   1.982   4.479 -0.5607  0.7232  0.8756
 2769SOL    HW2 8597   5.496   2.033   4.426 -0.3253 -0.8053 -0.0189
 2770SOL     OW 8598   4.720   0.198   2.305 -0.0738  0.6882 -0.1837
 2770SOL    HW1 8599   4.752   0.104   2.308 -0.0535  0.6687 -0.9538
 2770SOL    HW2 8600   4.624   0.202   2.334  0.2756  0.5995  1.0225
 2771SOL     OW 8601   2.596   0.930   4.600  0.1072 -0.1708  0.1744
 2771SOL    HW1 8602   2.641   0.865   4.661 -0.3703 -0.1524  0.5501
 2771SOL    HW2 8603   2.580   0.887   4.511  0.7190 -0.2280  0.0831
 2772SOL     OW 8604   2.379   1.936   4.409 -0.0787 -0.2286  0.1283
 2772SOL    HW1 8605   2.363   2.000   4.484  0.6000  0.5271 -0.3509
 2772SOL    HW2 8606   2.471   1.897   4.417 -1.0181 -2.3386  1.2619
 2773SOL     OW 8607   3.426   2.802   4.723 -0.0597 -0.2397  0.2227
 2773SOL    HW1 8608   3.377   2.755   4.796  1.3690 -1.4549  0.4369
 2773SOL    HW2 8609   3.498   2.859   4.763  1.0949 -1.3383 -0.2147
 2774SOL     OW 8610   3.257   0.656   5.202  0.3734 -0.1071 -0.7431
 2774SOL    HW1 8611   3.193   0.725   5.168  1.3242  1.1799 -0.0426
 2774SOL    HW2 8612   3.260   0.579   5.139 -0.7009  0.5089 -1.5841
 2775SOL     OW 8613   2.838   0.617   4.616 -0.4181  0.3547  0.5427
 2775SOL    HW1 8614   2.799   0.603   4.707 -1.3459 -2.6054 -0.1790
 2775SOL    HW2 8615   2.771   0.588   4.547  1.1209  0.2449 -0.9752
 2776SOL     OW 8616   1.824   4.875   0.657  0.3922  0.2499  0.2875
 2776SOL    HW1 8617   1.760   4.893   0.583  0.9566 -1.8170 -0.7841
 2776SOL    HW2 8618   1.918   4.885   0.623  0.6565 -0.6544  0.7180
 2777SOL     OW 8619   2.375   1.814   3.315  0.6328 -0.3391 -0.6887
 2777SOL    HW1 8620   2.405   1.821   3.410  0.7928  2.9625 -0.8714
 2777SOL    HW2 8621   2.453   1.828   3.254  0.1394 -0.0831 -1.2748
 2778SOL     OW 8622   3.391   1.820   1.551  0.2911 -0.2086  0.3622
 2778SOL    HW1 8623   3.364   1.895   1.491 -1.9682  0.0475  1.5884
 2778SOL    HW2 8624   3.480   1.841   1.592  0.6930  0.7642 -0.9322
 2779SOL     OW 8625   2.305   2.044   4.709 -0.0402  0.2210 -0.3187
 2779SOL    HW1 8626   2.329   1.951   4.735 -2.8051  0.2351  3.0450
 2779SOL    HW2 8627   2.214   2.045   4.667  0.1700  1.3546 -0.7886
 2780SOL     OW 8628   4.183   5.839   5.882 -0.3002 -0.1283 -0.1740
 2780SOL    HW1 8629   4.168   5.741   5.868  0.9620 -0.2445 -0.8283
 2780SOL    HW2 8630   4.164   5.888   5.798 -0.1060  0.0793 -0.0978
 2781SOL     OW 8631   1.162   1.153   5.149 -0.1341 -0.4398  0.2652
 2781SOL    HW1 8632   1.169   1.219   5.225  0.4624  0.2524 -0.3769
 2781SOL    HW2 8633   1.066   1.130   5.134 -0.4560  1.0719 -0.1466
 2782SOL     OW 8634   3.120   1.831   0.744  0.2379 -0.0579 -0.3150
 2782SOL    HW1 8635   3.091   1.826   0.839 -1.6492 -0.8496 -0.8765
 2782SOL    HW2 8636   3.220   1.839   0.739  0.4857 -1.3086  1.6906
 2783SOL     OW 8637   3.223   1.734   5.616 -0.3438  0.6090 -0.4465
 2783SOL    HW1 8638   3.152   1.705   5.552  0.4981 -0.2385 -1.0287
 2783SOL    HW2 8639   3.229   1.667   5.690 -1.2065  1.5045  0.4677
 2784SOL     OW 8640   2.761   0.614   3.803 -0.3220 -0.7671  0.1465
 2784SOL    HW1 8641   2.829   0.682   3.828 -1.2364  0.8697 -1.5338
 2784SOL    HW2 8642   2.806   0.539   3.754  0.6907 -1.4176  1.9824
 2785SOL     OW 8643   2.414   0.650   4.053  0.0665  0.8385 -0.0893
 2785SOL    HW1 8644   2.407   0.732   4.111  0.3982  0.4526  0.5083
 2785SOL    HW2 8645   2.505   0.609   4.065 -1.1358 -1.4320  2.0917
 2786SOL     OW 8646   1.653   1.939   0.473 -0.4189  0.2431 -0.0795
 2786SOL    HW1 8647   1.590   1.963   0.399 -0.3361  0.4508 -0.0846
 2786SOL    HW2 8648   1.680   2.023   0.522  0.1692  0.2054 -0.3302
 2787SOL     OW 8649   1.132   0.511   5.789 -0.1437 -0.8084  0.3917
 2787SOL    HW1 8650   1.158   0.514   5.692  0.4182  0.8617  0.5706
 2787SOL    HW2 8651   1.202   0.557   5.844 -2.1736  1.5580  1.1711
 2788SOL     OW 8652   2.133   1.785   5.323 -0.3533 -0.1705  0.6252
 2788SOL    HW1 8653   2.226   1.807   5.292  0.0939  1.2391  2.7351
 2788SOL    HW2 8654   2.136   1.701   5.378 -0.0779  0.5457  1.7270
 2789SOL     OW 8655   1.019   5.905   4.043  0.2007 -0.1946  0.0840
 2789SOL    HW1 8656   1.015   5.921   4.142 -0.7650 -0.3286  0.0819
 2789SOL    HW2 8657   0.947   5.958   3.998  1.6866  1.2075 -0.7622
 2790SOL     OW 8658   0.900   1.915   0.693 -0.4066 -0.0564  0.5455
 2790SOL    HW1 8659   0.834   1.939   0.764 -2.1657 -2.0995 -0.2802
 2790SOL    HW2 8660   0.874   1.958   0.607 -0.7064 -0.8861  0.2117
 2791SOL     OW 8661   3.791   2.015   0.110 -0.6991 -0.4327 -0.3665
 2791SOL    HW1 8662   3.838   1.954   0.174  0.2189  2.2079  1.6756
 2791SOL    HW2 8663   3.839   2.016   0.023  0.6220 -0.9003  0.3282
 2792SOL     OW 8664   4.667   0.481   4.185 -0.0839 -0.0144 -0.1544
 2792SOL    HW1 8665   4.613   0.515   4.262  0.0677 -0.4115  0.1309
 2792SOL    HW2 8666   4.607   0.440   4.117 -0.1868  0.0227 -0.0864
 2793SOL     OW 8667   3.113   2.118   4.519  0.0177  0.2949 -0.4862
 2793SOL    HW1 8668   3.179   2.159   4.582  0.0421  2.1661 -1.6456
 2793SOL    HW2 8669   3.078   2.189   4.458 -0.0673 -1.4328 -2.5371
 2794SOL     OW 8670   3.414   1.919   4.192 -0.4033 -0.0192  0.1742
 2794SOL    HW1 8671   3.393   1.832   4.237  0.6867  0.3038  1.3811
 2794SOL    HW2 8672   3.513   1.927   4.182 -0.5370  0.8004 -0.5091
 2795SOL     OW 8673   1.609   2.299   2.982 -0.0825 -0.2336 -0.0561
 2795SOL    HW1 8674   1.697   2.251   2.989 -1.1860 -2.1712  1.1723
 2795SOL    HW2 8675   1.534   2.235   2.993 -1.6720  1.6102  0.4798
 2796SOL     OW 8676   2.628   2.295   5.200 -0.5743  0.4795 -0.5537
 2796SOL    HW1 8677   2.675   2.378   5.230  0.7175 -0.9421  1.6272
 2796SOL    HW2 8678   2.666   2.264   5.113  3.5361 -1.1536  1.5292
 2797SOL     OW 8679   3.586   1.545   4.955  0.1025 -0.5334  0.3853
 2797SOL    HW1 8680   3.685   1.541   4.938  0.3599 -1.8281  1.9764
 2797SOL    HW2 8681   3.543   1.462   4.918 -0.0989 -0.8476  1.2988
 2798SOL     OW 8682   4.739   5.188   4.004  0.0871 -0.4750  0.1302
 2798SOL    HW1 8683   4.760   5.119   3.935  0.9505 -0.3357  0.2358
 2798SOL    HW2 8684   4.820   5.244   4.021 -0.8208  1.1496 -0.5945
 2799SOL     OW 8685   0.857   1.809   0.147 -0.1784  0.1781 -0.1037
 2799SOL    HW1 8686   0.917   1.748   0.095 -1.7366 -0.5447 -1.1104
 2799SOL    HW2 8687   0.820   1.760   0.226  0.3784  0.5763  0.4239
 2800SOL     OW 8688   5.164   3.064   4.766  0.2632 -0.6447  0.3695
 2800SOL    HW1 8689   5.237   3.091   4.704 -0.3823 -1.1298 -0.6302
 2800SOL    HW2 8690   5.199   3.060   4.859  1.7924 -1.8551 -0.2095
 2801SOL     OW 8691   1.356   5.600   5.647 -0.5515  0.3193  0.2588
 2801SOL    HW1 8692   1.372   5.691   5.686 -0.5730  0.4729 -0.0827
 2801SOL    HW2 8693   1.305   5.544   5.712  0.4838  0.1618  0.9487
 2802SOL     OW 8694   4.184   1.910   3.252 -0.0936  0.0279 -0.4628
 2802SOL    HW1 8695   4.237   1.982   3.298  0.2263  0.1242 -0.9722
 2802SOL    HW2 8696   4.247   1.847   3.207 -0.4212  0.6651 -1.8643
 2803SOL     OW 8697   4.376   1.886   5.622 -0.1991 -0.3396  0.3413
 2803SOL    HW1 8698   4.472   1.907   5.606 -0.4736  0.0268 -0.9844
 2803SOL    HW2 8699   4.351   1.912   5.715  0.9331 -0.2653  0.6406
 2804SOL     OW 8700   4.479   0.306   1.314  0.1841 -0.1882 -0.3852
 2804SOL    HW1 8701   4.457   0.219   1.358  0.7550 -0.2701 -0.2497
 2804SOL    HW2 8702   4.448   0.381   1.373  1.3414 -0.2921  0.4029
 2805SOL     OW 8703   2.946   0.752   5.659 -0.2181  0.2367 -0.2592
 2805SOL    HW1 8704   3.030   0.802   5.678 -0.4904  0.5217  0.2130
 2805SOL    HW2 8705   2.968   0.666   5.612  0.4042 -0.1141  0.6576
 2806SOL     OW 8706   1.588   1.520   4.492  0.2921 -0.4826  0.7059
 2806SOL    HW1 8707   1.604   1.490   4.398  0.0784  0.2810  0.4176
 2806SOL    HW2 8708   1.535   1.605   4.491  2.1317  0.7425  1.4205
 2807SOL     OW 8709   2.659   2.044   5.285 -0.3226  0.2518  0.4534
 2807SOL    HW1 8710   2.669   2.139   5.254  1.4691 -0.4493 -1.3021
 2807SOL    HW2 8711   2.701   2.033   5.375  0.3287  0.9265  0.2392
 2808SOL     OW 8712   3.366   1.010   5.421 -0.3694  0.4779 -0.1893
 2808SOL    HW1 8713   3.459   1.008   5.385 -1.2220  2.4480 -2.8141
 2808SOL    HW2 8714   3.309   0.945   5.370 -1.0349  1.4077 -0.6638
 2809SOL     OW 8715   3.312   1.390   4.875  0.0492 -0.0926  0.2736
 2809SOL    HW1 8716   3.401   1.351   4.851 -0.3891 -1.0998  0.2014
 2809SOL    HW2 8717   3.292   1.467   4.815  0.6112 -0.2309 -0.1025
 2810SOL     OW 8718   0.737   1.070   4.145 -0.4802 -0.0886 -0.4403
 2810SOL    HW1 8719   0.753   0.997   4.211  1.2522 -0.9297 -1.6940
 2810SOL    HW2 8720   0.665   1.131   4.178  0.3997 -0.3953  2.2611
 2811SOL     OW 8721   3.905   1.332   5.434 -0.4376  0.1097  0.0299
 2811SOL    HW1 8722   3.971   1.376   5.495  0.4986  0.9756 -1.5498
 2811SOL    HW2 8723   3.820   1.385   5.434  0.8554  2.4277 -2.2717
 2812SOL     OW 8724   5.119   1.330   3.220 -0.6114  0.1541 -0.1389
 2812SOL    HW1 8725   5.130   1.296   3.313 -1.5278 -1.3838 -0.5601
 2812SOL    HW2 8726   5.094   1.254   3.160 -2.0986  1.4721 -1.2578
 2813SOL     OW 8727   2.565   0.374   4.800 -0.1558 -0.5749  0.3705
 2813SOL    HW1 8728   2.550   0.337   4.709 -0.9052  0.9509 -0.1463
 2813SOL    HW2 8729   2.538   0.306   4.868  0.3348 -1.6963 -0.5118
 2814SOL     OW 8730   3.766   2.910   5.548  0.2528 -0.4903  0.5430
 2814SOL    HW1 8731   3.705   2.865   5.612  0.7470 -1.2973  0.4617
 2814SOL    HW2 8732   3.860   2.881   5.564  0.7142  1.1480  1.0248
 2815SOL     OW 8733   3.816   5.564   5.474 -0.4414 -0.1645 -0.3192
 2815SOL    HW1 8734   3.869   5.481   5.455  1.1983  0.9316 -0.6697
 2815SOL    HW2 8735   3.833   5.632   5.404 -3.4990 -0.2418 -1.2932
 2816SOL     OW 8736   2.709   2.480   2.661  0.3513  0.4648 -0.2945
 2816SOL    HW1 8737   2.612   2.507   2.655 -0.1343 -1.2555 -0.6028
 2816SOL    HW2 8738   2.763   2.560   2.688 -1.2958  1.2154  1.0286
 2817SOL     OW 8739   2.380   5.801   4.403  0.0325  0.5012 -0.4115
 2817SOL    HW1 8740   2.391   5.769   4.309 -1.4215  0.6721 -0.6581
 2817SOL    HW2 8741   2.457   5.860   4.428  2.1714 -2.1148 -0.3584
 2818SOL     OW 8742   2.359   0.883   4.153  0.5621  0.1447 -0.3010
 2818SOL    HW1 8743   2.346   0.952   4.224 -0.7144  0.7951 -1.1292
 2818SOL    HW2 8744   2.277   0.877   4.098  1.3487 -0.7083 -1.4187
 2819SOL     OW 8745   5.585   1.082   2.639  0.1330 -0.5476  0.3359
 2819SOL    HW1 8746   5.581   1.138   2.722  0.2448 -1.0127  0.6572
 2819SOL    HW2 8747   5.492   1.060   2.609  0.0390  0.9553 -0.5830
 2820SOL     OW 8748   3.791   3.296   5.348 -0.2300  0.1031  0.1458
 2820SOL    HW1 8749   3.729   3.240   5.404 -1.0727  0.4842 -0.3922
 2820SOL    HW2 8750   3.881   3.252   5.345 -0.3048 -0.1755  1.3897
 2821SOL     OW 8751   1.148   5.765   5.248  0.4331  0.1216 -0.3436
 2821SOL    HW1 8752   1.235   5.775   5.200  0.5316 -1.2159 -0.4654
 2821SOL    HW2 8753   1.092   5.696   5.202 -0.4356  0.5037  0.1116
 2822SOL     OW 8754   4.009   1.522   5.180 -0.0088 -0.0046 -0.2753
 2822SOL    HW1 8755   4.103   1.489   5.182  0.2092  0.6198  0.5442
 2822SOL    HW2 8756   3.946   1.444   5.173  0.5441 -0.4788 -0.0284
 2823SOL     OW 8757   2.974   1.090   4.402 -0.2521  0.1181  0.6330
 2823SOL    HW1 8758   2.970   1.026   4.480 -1.7308  0.5606  0.9423
 2823SOL    HW2 8759   2.882   1.119   4.378  0.4125  2.6240  0.8830
 2824SOL     OW 8760   2.912   1.436   4.219  0.4129  0.1041 -0.4095
 2824SOL    HW1 8761   2.971   1.517   4.221 -0.8369  1.0942 -1.6116
 2824SOL    HW2 8762   2.847   1.444   4.144  0.2826 -2.0744 -0.5915
 2825SOL     OW 8763   3.147   0.102   4.204  0.2713 -0.1611  0.2550
 2825SOL    HW1 8764   3.053   0.069   4.198  0.7325 -1.5878  0.5106
 2825SOL    HW2 8765   3.149   0.190   4.252 -0.8443 -0.5247  0.9929
 2826SOL     OW 8766   1.776   2.608   0.613 -0.4065  0.6634  0.0903
 2826SOL    HW1 8767   1.727   2.549   0.677  0.6474  0.5482  0.8087
 2826SOL    HW2 8768   1.822   2.681   0.664 -1.0588  1.6592 -0.7151
 2827SOL     OW 8769   1.391   5.564   0.417  0.3313  0.2793 -0.1809
 2827SOL    HW1 8770   1.293   5.554   0.400  0.0964  0.5147  0.9488
 2827SOL    HW2 8771   1.416   5.518   0.502  0.3881  3.6013  1.7924
 2828SOL     OW 8772   4.114   1.753   5.267  0.0073  0.1729 -0.5516
 2828SOL    HW1 8773   4.079   1.666   5.231 -0.5995  0.8881 -1.7224
 2828SOL    HW2 8774   4.201   1.775   5.223  0.1649  0.1698 -0.2487
 2829SOL     OW 8775   4.351   0.618   3.475 -0.0273 -0.4401 -0.0463
 2829SOL    HW1 8776   4.408   0.553   3.424 -0.1505 -0.7296  0.1793
 2829SOL    HW2 8777   4.378   0.617   3.572 -0.2980 -0.4515  0.0299
 2830SOL     OW 8778   2.872   1.845   3.639  0.3172  0.1920  0.7238
 2830SOL    HW1 8779   2.944   1.873   3.576  1.8647  1.5263  2.9636
 2830SOL    HW2 8780   2.789   1.898   3.621  0.5217  0.1078 -0.5523
 2831SOL     OW 8781   4.363   0.528   5.476 -0.7336  0.0530 -0.1560
 2831SOL    HW1 8782   4.389   0.432   5.461 -1.7432 -0.2079 -0.3340
 2831SOL    HW2 8783   4.291   0.553   5.411  2.1398  2.1338 -2.8466
 2832SOL     OW 8784   3.588   0.472   4.110  0.1177 -0.0238  0.0285
 2832SOL    HW1 8785   3.540   0.534   4.048 -2.1015 -1.3255  0.3529
 2832SOL    HW2 8786   3.672   0.439   4.065  0.1177  1.3654 -1.0560
 2833SOL     OW 8787   2.458   1.436   3.111  0.0273  0.0843  0.2164
 2833SOL    HW1 8788   2.553   1.407   3.123 -0.2903 -0.7989  0.6768
 2833SOL    HW2 8789   2.422   1.471   3.197 -0.5213 -1.0081  0.4506
 2834SOL     OW 8790   2.303   0.250   4.152 -0.1175  0.0873 -0.3936
 2834SOL    HW1 8791   2.266   0.319   4.089 -0.1713  0.2592 -0.1768
 2834SOL    HW2 8792   2.398   0.230   4.128  0.4271  1.4363  0.5298
 2835SOL     OW 8793   1.228   0.693   5.234  1.0127 -0.2456 -0.2289
 2835SOL    HW1 8794   1.305   0.636   5.262  0.9635 -0.0800  0.2572
 2835SOL    HW2 8795   1.260   0.768   5.176  1.0424 -0.9122 -1.0980
 2836SOL     OW 8796   1.494   1.553   3.678 -0.3316  0.1728  0.1680
 2836SOL    HW1 8797   1.442   1.480   3.635 -1.9938 -0.0766  2.4271
 2836SOL    HW2 8798   1.589   1.523   3.691 -1.0256 -1.7123  1.2411
 2837SOL     OW 8799   3.824   1.137   4.265  0.0830  0.4046  0.2675
 2837SOL    HW1 8800   3.864   1.153   4.175  0.7539 -0.6320  0.3705
 2837SOL    HW2 8801   3.834   1.041   4.289  2.0693  1.0663  2.4668
 2838SOL     OW 8802   2.319   0.713   1.389  0.4946  0.3244 -0.2114
 2838SOL    HW1 8803   2.273   0.778   1.329 -1.7689  0.0378  1.1024
 2838SOL    HW2 8804   2.402   0.755   1.425 -0.1020  1.9219 -0.5855
 2839SOL     OW 8805   2.314   1.494   5.839 -0.2872 -0.0723  0.6884
 2839SOL    HW1 8806   2.271   1.584   5.844  0.1939  0.2127  0.0022
 2839SOL    HW2 8807   2.407   1.500   5.875  1.7220  1.0467 -3.8597
 2840SOL     OW 8808   2.475   1.488   5.195  0.4571 -0.1469 -0.7007
 2840SOL    HW1 8809   2.568   1.525   5.203  0.3681 -0.2407  1.1429
 2840SOL    HW2 8810   2.480   1.393   5.166  0.9616 -0.2522 -0.2859
 2841SOL     OW 8811   4.746   0.802   4.766 -0.0988  0.2197 -0.3299
 2841SOL    HW1 8812   4.831   0.750   4.754 -0.1191 -0.3283  1.5490
 2841SOL    HW2 8813   4.743   0.877   4.701  1.2706 -0.4580 -1.2150
 2842SOL     OW 8814   2.217   0.053   4.554 -0.1008  0.4563  0.8286
 2842SOL    HW1 8815   2.258  -0.018   4.496 -0.4262 -1.2863  2.6171
 2842SOL    HW2 8816   2.209   0.138   4.502 -0.7483 -1.0993 -1.7805
 2843SOL     OW 8817   4.056   2.704   4.473 -0.3595 -0.1895 -0.2092
 2843SOL    HW1 8818   4.056   2.804   4.480 -1.6130 -0.0017 -2.1050
 2843SOL    HW2 8819   3.982   2.667   4.529 -1.5905  0.1969 -1.5077
 2844SOL     OW 8820   1.729   1.897   4.747  0.3998 -0.2986  0.0840
 2844SOL    HW1 8821   1.671   1.912   4.667 -0.1369 -0.6540  0.3972
 2844SOL    HW2 8822   1.717   1.803   4.780 -2.6551  0.9544  3.1103
 2845SOL     OW 8823   4.332   2.711   4.519 -0.3115  0.1137  0.0823
 2845SOL    HW1 8824   4.239   2.735   4.491  0.7811  1.3468 -2.8480
 2845SOL    HW2 8825   4.380   2.793   4.549  0.4869 -0.1402 -0.4781
 2846SOL     OW 8826   3.697   5.898   4.373  0.3672 -0.0772 -0.5356
 2846SOL    HW1 8827   3.773   5.874   4.433  0.5238 -0.1472 -0.7635
 2846SOL    HW2 8828   3.617   5.921   4.429  0.7536  0.6731 -0.2855
 2847SOL     OW 8829   1.836   0.939   4.751 -0.0294 -0.0782 -0.5732
 2847SOL    HW1 8830   1.894   1.016   4.779  0.8743 -0.9852  0.1348
 2847SOL    HW2 8831   1.797   0.958   4.661  0.5900  0.9829 -0.6369
 2848SOL     OW 8832   3.694   2.538   3.739  0.3614 -0.5249 -0.2641
 2848SOL    HW1 8833   3.603   2.535   3.696 -0.3481  0.0578  1.1178
 2848SOL    HW2 8834   3.719   2.447   3.769 -0.3068 -0.4980  0.3983
 2849SOL     OW 8835   2.274   2.532   4.539 -0.4111 -0.4105  0.2576
 2849SOL    HW1 8836   2.373   2.519   4.532 -0.5166 -0.9069 -0.4339
 2849SOL    HW2 8837   2.250   2.623   4.505 -0.3154 -0.7467 -0.7372
 2850SOL     OW 8838   2.240   0.450   3.989  0.0637 -0.1534 -0.0988
 2850SOL    HW1 8839   2.309   0.519   4.008  0.5634 -0.7285  0.2029
 2850SOL    HW2 8840   2.151   0.494   3.979  0.5384  0.6562 -0.9843
 2851SOL     OW 8841   3.421   2.276   4.232  0.2162  0.3571 -0.4202
 2851SOL    HW1 8842   3.492   2.264   4.301  0.0455 -0.6055 -0.3869
 2851SOL    HW2 8843   3.345   2.214   4.252 -0.7154  1.4939 -0.3627
 2852SOL     OW 8844   3.605   0.748   5.519 -0.5835 -0.2516  1.1173
 2852SOL    HW1 8845   3.632   0.736   5.614 -2.1530  1.0428  1.7700
 2852SOL    HW2 8846   3.603   0.846   5.496  0.2277 -0.5503 -0.4037
 2853SOL     OW 8847   1.416   0.255   0.157  0.0477  0.6371  0.5888
 2853SOL    HW1 8848   1.372   0.221   0.240  1.0833  0.9971  1.3014
 2853SOL    HW2 8849   1.346   0.282   0.091 -0.7875  0.1482  1.2536
 2854SOL     OW 8850   3.943   2.394   3.574  0.1581 -0.0692  0.0204
 2854SOL    HW1 8851   3.920   2.306   3.615  0.4923  0.5845  1.6900
 2854SOL    HW2 8852   3.994   2.450   3.640  1.6162  0.6729 -1.6387
 2855SOL     OW 8853   1.126   1.286   4.634 -0.2029 -0.1453  0.3708
 2855SOL    HW1 8854   1.043   1.250   4.592  0.1241 -0.5312  0.0454
 2855SOL    HW2 8855   1.204   1.269   4.574 -0.1049  1.5976 -0.0609
 2856SOL     OW 8856   3.132   0.569   3.714  0.3147 -0.0528 -0.1810
 2856SOL    HW1 8857   3.052   0.514   3.691  0.6598 -0.3247 -0.7600
 2856SOL    HW2 8858   3.119   0.662   3.681  0.9086 -0.4988 -1.7816
 2857SOL     OW 8859   1.268   1.400   0.839  0.6865 -0.4815 -0.3516
 2857SOL    HW1 8860   1.311   1.437   0.757  0.5159 -0.6651 -0.5237
 2857SOL    HW2 8861   1.316   1.317   0.868  1.9613  0.6452  0.8528
 2858SOL     OW 8862   3.618   0.011   5.301  0.0485  0.3229 -0.2145
 2858SOL    HW1 8863   3.644   0.070   5.225 -0.1617 -2.5331 -2.6847
 2858SOL    HW2 8864   3.697  -0.043   5.329 -0.3812 -0.1218  0.1584
 2859SOL     OW 8865   3.938   0.956   0.236 -0.4259 -0.7599  0.7847
 2859SOL    HW1 8866   4.003   0.883   0.217  0.3961 -0.1958  1.3671
 2859SOL    HW2 8867   3.972   1.013   0.310  0.5359  2.0990 -1.6451
 2860SOL     OW 8868   1.961   1.621   4.708  0.0844 -0.0008  0.2411
 2860SOL    HW1 8869   2.022   1.549   4.672 -0.3132  0.7499 -2.1308
 2860SOL    HW2 8870   1.870   1.583   4.723 -0.1320 -0.0361 -1.0362
 2861SOL     OW 8871   3.149   1.511   1.865 -0.0197  0.0088  0.3027
 2861SOL    HW1 8872   3.052   1.515   1.844  0.3731  2.0859 -1.4661
 2861SOL    HW2 8873   3.164   1.547   1.958 -0.8618  0.5575  0.2387
 2862SOL     OW 8874   3.671   1.007   1.782  0.0541 -0.0766 -0.2733
 2862SOL    HW1 8875   3.681   1.077   1.712 -0.7176 -0.4823 -0.8191
 2862SOL    HW2 8876   3.635   0.923   1.739  0.2951 -0.5742  0.4819
 2863SOL     OW 8877   3.802   1.507   0.450  0.1785  0.0176 -0.0438
 2863SOL    HW1 8878   3.842   1.454   0.376 -0.3088 -1.3364  0.6128
 2863SOL    HW2 8879   3.770   1.444   0.522  1.7369  1.2917  1.8931
 2864SOL     OW 8880   3.040   1.626   1.634  0.3703 -0.1548 -0.1530
 2864SOL    HW1 8881   3.135   1.608   1.611  0.3206  0.5496 -0.9605
 2864SOL    HW2 8882   2.980   1.569   1.578  0.3007 -0.2206 -0.0134
 2865SOL     OW 8883   2.599   5.100   0.257  0.2492 -0.3744 -0.1277
 2865SOL    HW1 8884   2.601   5.062   0.350 -0.3524  0.4680  0.2349
 2865SOL    HW2 8885   2.511   5.143   0.240  1.3421  2.0954 -0.0145
 2866SOL     OW 8886   2.350   0.127   5.570 -0.1720  0.1064  0.0036
 2866SOL    HW1 8887   2.284   0.105   5.498 -1.5812  1.2253  0.8945
 2866SOL    HW2 8888   2.395   0.214   5.548 -0.3984  0.3065  0.3229
 2867SOL     OW 8889   0.929   3.156   5.158  0.4369 -0.1094 -0.1728
 2867SOL    HW1 8890   0.944   3.228   5.226  2.0120 -1.9535  1.5630
 2867SOL    HW2 8891   0.994   3.082   5.174 -1.5508 -2.2444 -1.4368
 2868SOL     OW 8892   1.823   0.960   5.530  0.4988  0.3353  0.2119
 2868SOL    HW1 8893   1.770   0.875   5.521  2.6317 -0.9854 -0.4993
 2868SOL    HW2 8894   1.800   1.022   5.454 -2.1100  1.0965  1.4870
 2869SOL     OW 8895   1.938   1.749   0.884  0.0053 -0.5999  0.7277
 2869SOL    HW1 8896   1.854   1.790   0.849  0.9228 -0.4207 -1.4369
 2869SOL    HW2 8897   1.921   1.654   0.908 -0.3669 -1.2523 -1.8585
 2870SOL     OW 8898   0.994   4.181   3.757  0.6969  0.5866 -0.1872
 2870SOL    HW1 8899   0.946   4.258   3.799 -0.5290 -0.7504  0.9751
 2870SOL    HW2 8900   1.092   4.203   3.750  0.4962  1.9523  0.8003
 2871SOL     OW 8901   2.932   1.760   5.910  0.2334  0.3712  0.2974
 2871SOL    HW1 8902   2.905   1.776   6.005 -0.7314 -1.4612  0.3564
 2871SOL    HW2 8903   3.002   1.827   5.885  0.6419  0.7988  2.3394
 2872SOL     OW 8904   1.642   4.329   4.498  0.2606  0.3357 -0.8096
 2872SOL    HW1 8905   1.738   4.313   4.519 -0.0343 -1.0998 -0.4096
 2872SOL    HW2 8906   1.597   4.242   4.479 -1.1100  0.8963 -0.3127
 2873SOL     OW 8907   2.141   5.298   5.277 -0.0943 -0.1614  0.0788
 2873SOL    HW1 8908   2.177   5.381   5.234 -0.2503 -0.2294 -0.1874
 2873SOL    HW2 8909   2.187   5.283   5.364 -0.9117  0.8648  0.7155
 2874SOL     OW 8910   3.790   1.270   5.671 -0.1466  0.1439  0.2041
 2874SOL    HW1 8911   3.726   1.319   5.612  0.5284  0.4316 -0.3009
 2874SOL    HW2 8912   3.744   1.191   5.711 -0.7162  0.1457 -0.4278
 2875SOL     OW 8913   2.941   1.256   4.938 -0.1895  0.3537  0.7483
 2875SOL    HW1 8914   3.018   1.222   4.884 -0.7624 -0.1547  0.2391
 2875SOL    HW2 8915   2.872   1.295   4.877  0.1542  1.8396  1.2756
 2876SOL     OW 8916   3.709   3.356   1.420  0.1113  0.2202 -0.2383
 2876SOL    HW1 8917   3.623   3.364   1.370  0.1033 -1.8795 -0.6561
 2876SOL    HW2 8918   3.763   3.439   1.406 -0.6436  0.4348 -2.3137
 2877SOL     OW 8919   2.854   1.488   0.849  0.0235 -0.4601 -0.9025
 2877SOL    HW1 8920   2.783   1.427   0.814  1.1790 -2.4836  0.1018
 2877SOL    HW2 8921   2.884   1.549   0.776 -3.4607  1.3283 -1.0940
 2878SOL     OW 8922   3.502   5.898   4.572  0.4310 -0.3486 -0.5041
 2878SOL    HW1 8923   3.459   5.819   4.615  0.9410  0.0137  0.7414
 2878SOL    HW2 8924   3.439   5.939   4.507 -0.5769 -0.6446  0.2534
 2879SOL     OW 8925   1.915   1.060   5.058  0.1679 -0.5211  0.5007
 2879SOL    HW1 8926   1.962   1.142   5.025  0.9641 -0.9330  0.5791
 2879SOL    HW2 8927   1.861   1.083   5.138  0.0531  0.0120  0.2770
 2880SOL     OW 8928   2.815   3.835   0.526  0.1695 -0.5430 -0.3665
 2880SOL    HW1 8929   2.757   3.788   0.460 -1.0226 -0.9292  0.9099
 2880SOL    HW2 8930   2.865   3.909   0.480 -3.3527  1.6378 -1.0883
 2881SOL     OW 8931   2.955   0.570   5.304 -0.2643  0.2173  0.1626
 2881SOL    HW1 8932   3.015   0.584   5.383 -0.6424 -0.5945  0.6089
 2881SOL    HW2 8933   2.861   0.593   5.329 -0.1069  1.8582 -0.6451
 2882SOL     OW 8934   0.628   5.631   5.251  0.5335 -0.0331  0.4648
 2882SOL    HW1 8935   0.533   5.658   5.269  0.7956  0.5853  0.9762
 2882SOL    HW2 8936   0.642   5.537   5.281 -0.6327 -1.1430 -2.1456
 2883SOL     OW 8937   2.209   0.865   0.253 -0.7616  0.2712 -0.2188
 2883SOL    HW1 8938   2.294   0.824   0.218  0.7424  2.1959  0.9846
 2883SOL    HW2 8939   2.162   0.799   0.312  1.3352  0.0455  1.3011
 2884SOL     OW 8940   1.092   0.894   1.060 -0.5487 -0.5710  0.0071
 2884SOL    HW1 8941   1.081   0.796   1.073  1.8122 -0.8794  0.1691
 2884SOL    HW2 8942   1.188   0.914   1.040 -0.8249  1.7833  0.7451
 2885SOL     OW 8943   2.172   0.560   5.615 -0.0815  0.1118 -0.6388
 2885SOL    HW1 8944   2.078   0.593   5.622  0.0920  1.0156 -2.1501
 2885SOL    HW2 8945   2.192   0.499   5.693 -1.2627  1.4528  0.7828
 2886SOL     OW 8946   2.881   5.189   5.648  0.2595  0.7505  0.1801
 2886SOL    HW1 8947   2.863   5.215   5.742 -0.6131  2.1080 -0.3219
 2886SOL    HW2 8948   2.980   5.190   5.631  0.5882 -1.6289  1.6060
 2887SOL     OW 8949   0.976   2.016   5.010 -0.8957 -0.0427  0.5528
 2887SOL    HW1 8950   0.989   2.065   4.924 -0.9663 -1.1902 -0.1312
 2887SOL    HW2 8951   1.065   1.987   5.045 -0.9693 -0.7978  0.1265
 2888SOL     OW 8952   3.687   2.361   5.708 -0.1126 -0.1305  0.2198
 2888SOL    HW1 8953   3.706   2.341   5.612 -0.5760  0.9774 -0.1247
 2888SOL    HW2 8954   3.595   2.401   5.716  0.9209  2.3560  0.7165
 2889SOL     OW 8955   3.916   5.720   5.013  0.8130 -0.5026  0.1730
 2889SOL    HW1 8956   3.830   5.713   4.962  0.1775  1.0994  0.9758
 2889SOL    HW2 8957   3.992   5.725   4.948  0.1455  0.0196 -0.5893
 2890SOL     OW 8958   2.973   2.139   5.232 -0.1190 -0.6059  0.4897
 2890SOL    HW1 8959   2.973   2.194   5.315  0.9742  2.1403 -1.1865
 2890SOL    HW2 8960   2.887   2.154   5.182 -0.0335 -0.8633  0.2629
 2891SOL     OW 8961   2.580   1.158   1.150  0.2806  0.3096  0.3706
 2891SOL    HW1 8962   2.503   1.180   1.090 -0.7868  1.0958  1.9757
 2891SOL    HW2 8963   2.622   1.073   1.119 -0.3757  0.5640 -1.3391
 2892SOL     OW 8964   2.848   1.218   0.176  0.0664  0.1584  0.0361
 2892SOL    HW1 8965   2.754   1.251   0.182  0.8970  2.8104 -0.5926
 2892SOL    HW2 8966   2.887   1.210   0.268 -0.6186 -0.5406  0.2716
 2893SOL     OW 8967   2.566   4.164   3.511  0.1309  0.1325 -0.3253
 2893SOL    HW1 8968   2.605   4.219   3.585  0.4388  0.3234 -0.6194
 2893SOL    HW2 8969   2.468   4.183   3.503  0.0492 -0.0687  0.1841
 2894SOL     OW 8970   3.304   4.691   3.853 -0.9190  0.0945 -0.6249
 2894SOL    HW1 8971   3.330   4.784   3.880 -1.1588 -0.1338  0.4467
 2894SOL    HW2 8972   3.385   4.632   3.856 -0.7829  0.2507 -1.2246
 2895SOL     OW 8973   3.074   0.298   0.276  0.3417 -0.1624  0.4134
 2895SOL    HW1 8974   3.116   0.382   0.309 -0.6690  0.8865 -0.8153
 2895SOL    HW2 8975   3.058   0.236   0.352 -0.6933  1.5816  1.6871
 2896SOL     OW 8976   3.152   0.584   0.413 -0.1328 -0.4074  0.1401
 2896SOL    HW1 8977   3.247   0.613   0.399  0.0760 -0.8051  0.6782
 2896SOL    HW2 8978   3.091   0.642   0.360  0.4780 -0.6897 -0.9077
 2897SOL     OW 8979   3.420   1.905   3.887  0.2145 -0.2381 -0.2315
 2897SOL    HW1 8980   3.469   1.963   3.952  1.3835 -1.3015 -0.1107
 2897SOL    HW2 8981   3.391   1.821   3.934  0.2091 -0.5752 -0.8346
 2898SOL     OW 8982   3.907   2.443   0.361  0.0061  0.1842  0.0741
 2898SOL    HW1 8983   3.992   2.393   0.348 -0.0396  0.0876  0.1445
 2898SOL    HW2 8984   3.865   2.460   0.272  1.4329  2.5892 -0.2143
 2899SOL     OW 8985   4.392   5.885   4.236  0.1973  0.2511 -0.2210
 2899SOL    HW1 8986   4.305   5.935   4.239 -0.0018 -0.0929 -0.1751
 2899SOL    HW2 8987   4.399   5.836   4.149 -0.5293 -1.2579  0.5339
 2900SOL     OW 8988   1.970   5.026   4.503  0.3159 -0.3534 -0.1231
 2900SOL    HW1 8989   1.918   4.989   4.425 -0.1276  1.2692 -0.6339
 2900SOL    HW2 8990   1.996   5.120   4.484 -1.0621  0.5914  2.2999
 2901SOL     OW 8991   2.451   3.010   5.901  0.1675 -0.1684  0.4100
 2901SOL    HW1 8992   2.536   2.968   5.868  0.3385 -1.2120  2.0498
 2901SOL    HW2 8993   2.418   3.076   5.833  0.1480 -2.5691 -2.0661
 2902SOL     OW 8994   1.399   2.510   0.653 -0.4423  0.3264 -0.2549
 2902SOL    HW1 8995   1.354   2.485   0.568 -3.2955 -0.2462  1.2697
 2902SOL    HW2 8996   1.338   2.571   0.706  0.4435 -0.6824  2.0692
 2903SOL     OW 8997   2.153   3.475   1.920 -0.0950  0.0459  0.3532
 2903SOL    HW1 8998   2.113   3.471   2.012  0.6238  1.2436  0.7458
 2903SOL    HW2 8999   2.136   3.566   1.881  0.1749 -0.2393 -0.4293
 2904SOL     OW 9000   2.456   0.136   0.321  0.3008 -0.4190 -0.3974
 2904SOL    HW1 9001   2.460   0.223   0.272 -1.4243  0.2700  0.5653
 2904SOL    HW2 9002   2.369   0.090   0.301 -0.2726 -0.3225  1.6022
 2905SOL     OW 9003   1.924   2.381   1.145  0.1417 -0.1055  0.4518
 2905SOL    HW1 9004   2.003   2.321   1.162  0.2910  0.2840  1.1676
 2905SOL    HW2 9005   1.853   2.329   1.098  0.0018 -1.0410  1.6366
 2906SOL     OW 9006   2.818   2.994   5.415  0.1586 -0.1692  0.1353
 2906SOL    HW1 9007   2.800   2.999   5.316 -1.0660 -1.8804  0.2417
 2906SOL    HW2 9008   2.897   3.051   5.436  0.6371  0.0075 -1.8816
 2907SOL     OW 9009   3.275   3.340   1.902 -1.5296  0.0703  0.2690
 2907SOL    HW1 9010   3.370   3.364   1.922 -1.3714 -0.2834 -0.0404
 2907SOL    HW2 9011   3.229   3.416   1.855 -1.6377  0.5532  1.1425
 2908SOL     OW 9012   4.683   2.468   5.595 -0.3229  0.8629 -0.0227
 2908SOL    HW1 9013   4.650   2.563   5.598 -1.6320  0.4310  0.0820
 2908SOL    HW2 9014   4.751   2.454   5.667 -0.2137  1.6876  0.0468
 2909SOL     OW 9015   1.815   1.341   2.440  0.3068 -0.3404 -0.2944
 2909SOL    HW1 9016   1.744   1.272   2.450  0.5452 -0.9058 -2.1632
 2909SOL    HW2 9017   1.856   1.361   2.529  0.3604 -2.7385  0.2708
 2910SOL     OW 9018   4.569   4.014   1.836  0.2317 -0.1953  0.5253
 2910SOL    HW1 9019   4.570   4.006   1.935  1.7363 -0.0352  0.5472
 2910SOL    HW2 9020   4.644   3.961   1.797 -0.1913 -0.0648 -0.5162
 2911SOL     OW 9021   2.719   2.021   0.773 -0.3032  0.3418  0.6817
 2911SOL    HW1 9022   2.819   2.024   0.770 -0.2162 -0.4782  1.9543
 2911SOL    HW2 9023   2.688   1.926   0.781 -1.3176  0.3662 -2.0793
 2912SOL     OW 9024   3.173   3.581   2.660 -0.2856  0.2914 -0.4554
 2912SOL    HW1 9025   3.124   3.624   2.736 -0.3785 -1.2653  0.4181
 2912SOL    HW2 9026   3.237   3.513   2.696 -0.6631 -0.8111 -1.7869
 2913SOL     OW 9027   1.608   2.565   1.536 -1.2234 -0.9670  0.0545
 2913SOL    HW1 9028   1.572   2.487   1.487 -1.6746 -0.1018 -1.0305
 2913SOL    HW2 9029   1.631   2.638   1.472  0.1204 -0.5663  0.9501
 2914SOL     OW 9030   3.129   2.479   0.908  0.3062  0.1728 -0.2347
 2914SOL    HW1 9031   3.055   2.545   0.923 -0.1865 -0.4647  0.2194
 2914SOL    HW2 9032   3.101   2.413   0.838 -0.3340 -1.1737  1.2271
 2915SOL     OW 9033   2.846   3.092   1.019  0.2173  0.3278 -0.3026
 2915SOL    HW1 9034   2.788   3.083   1.099 -0.0822 -0.6830 -0.6204
 2915SOL    HW2 9035   2.876   3.187   1.010 -0.3423  0.5987  0.5776
 2916SOL     OW 9036   3.330   3.271   0.278  0.4434  0.3169  0.1411
 2916SOL    HW1 9037   3.301   3.267   0.373 -0.8349 -2.8295 -0.2504
 2916SOL    HW2 9038   3.422   3.233   0.269  1.1590  1.9654  0.2620
 2917SOL     OW 9039   0.978   3.047   5.940 -0.2218 -0.7263  0.3895
 2917SOL    HW1 9040   0.954   3.143   5.949  2.1465 -0.2198  2.4101
 2917SOL    HW2 9041   1.054   3.038   5.875  0.1632 -1.1144  0.8918
 2918SOL     OW 9042   3.046   1.325   2.801  0.0252 -0.4843 -0.6136
 2918SOL    HW1 9043   3.101   1.407   2.784  0.5404 -1.1240 -2.1159
 2918SOL    HW2 9044   2.961   1.352   2.847  0.2647  0.8637 -0.9042
 2919SOL     OW 9045   2.888   2.264   0.433  0.2098 -0.6600  0.3735
 2919SOL    HW1 9046   2.973   2.308   0.407 -0.5969  0.9959  0.4062
 2919SOL    HW2 9047   2.855   2.302   0.519 -1.6777  0.3928 -0.7461
 2920SOL     OW 9048   2.219   3.225  -0.006  0.2062  0.1892  0.2970
 2920SOL    HW1 9049   2.126   3.256  -0.025  0.2879  0.3775  0.2057
 2920SOL    HW2 9050   2.218   3.163   0.072 -0.0144  0.0850  0.2133
 2921SOL     OW 9051   3.710   5.005   5.272  0.0614 -0.3729  0.0988
 2921SOL    HW1 9052   3.682   4.923   5.223  0.8851 -0.9086  0.5124
 2921SOL    HW2 9053   3.808   5.019   5.260  0.2014 -0.2856  1.2481
 2922SOL     OW 9054   2.247   3.828   0.319  0.0230  0.3223  0.0351
 2922SOL    HW1 9055   2.294   3.872   0.395  0.2162  0.1916 -0.0071
 2922SOL    HW2 9056   2.315   3.790   0.255 -0.0280 -3.0831  1.7992
 2923SOL     OW 9057   3.974   2.862   1.948 -0.1424  0.3552  0.5321
 2923SOL    HW1 9058   3.995   2.956   1.976  1.3013 -0.3116  1.8914
 2923SOL    HW2 9059   3.966   2.857   1.849 -0.4551  1.9391  0.4536
 2924SOL     OW 9060   2.185   2.462   0.909  0.2574  0.0755  0.1643
 2924SOL    HW1 9061   2.088   2.449   0.886 -0.1949 -3.1121  3.1496
 2924SOL    HW2 9062   2.241   2.395   0.861  0.6681  0.2074  0.4514
 2925SOL     OW 9063   3.768   3.207   5.847  0.3527  0.1950 -0.5393
 2925SOL    HW1 9064   3.839   3.154   5.892  0.6071 -0.1276 -1.3080
 2925SOL    HW2 9065   3.776   3.303   5.873  0.6831  0.0606 -0.1424
 2926SOL     OW 9066   0.022   2.592   5.374 -0.2080  0.1378 -0.8444
 2926SOL    HW1 9067  -0.046   2.614   5.444 -0.2843 -1.1592 -0.4837
 2926SOL    HW2 9068   0.089   2.529   5.411  0.1309 -0.0569 -1.7550
 2927SOL     OW 9069   4.522   2.928   4.895 -0.3852  0.7298 -0.1253
 2927SOL    HW1 9070   4.601   2.929   4.956  0.7952  0.7771 -1.6085
 2927SOL    HW2 9071   4.481   2.837   4.897 -0.0557  0.5814  0.3424
 2928SOL     OW 9072   4.156   2.785   0.285 -0.1175  0.2629  0.3411
 2928SOL    HW1 9073   4.058   2.803   0.290 -0.6013 -1.6555 -1.1172
 2928SOL    HW2 9074   4.199   2.848   0.220 -0.6699  0.0777 -0.2039
 2929SOL     OW 9075   2.794   5.413   1.402 -0.1901 -0.0957  0.0784
 2929SOL    HW1 9076   2.879   5.432   1.352  1.1020 -0.7452  1.9489
 2929SOL    HW2 9077   2.753   5.329   1.367 -0.4249  0.5364 -1.2433
 2930SOL     OW 9078   2.189   3.279   1.163  0.1709  0.2520 -0.5540
 2930SOL    HW1 9079   2.135   3.268   1.246 -1.0123 -3.5439 -1.6122
 2930SOL    HW2 9080   2.152   3.353   1.109 -0.8617  0.9085  0.9766
 2931SOL     OW 9081   2.812   1.417   2.906 -0.5941 -0.0831 -0.6524
 2931SOL    HW1 9082   2.767   1.504   2.889 -0.5994 -0.1414 -0.9336
 2931SOL    HW2 9083   2.781   1.380   2.994 -0.2334  0.4236 -0.3101
 2932SOL     OW 9084   3.372   1.716   4.993 -0.3718  0.1731  0.2613
 2932SOL    HW1 9085   3.300   1.711   4.924  0.9202  0.3489 -1.1341
 2932SOL    HW2 9086   3.447   1.656   4.968  1.5019  2.5429 -0.1813
 2933SOL     OW 9087   1.911   2.631   1.046 -0.7679  0.3055 -0.1298
 2933SOL    HW1 9088   1.968   2.618   0.965 -1.7548  0.3363 -0.8558
 2933SOL    HW2 9089   1.917   2.551   1.104  0.2779  0.4529 -0.0099
 2934SOL     OW 9090   4.516   2.398   1.657 -0.1595  0.3007 -0.8806
 2934SOL    HW1 9091   4.477   2.315   1.615  0.8395 -0.7868  0.2527
 2934SOL    HW2 9092   4.445   2.447   1.706 -0.2239 -1.6374  1.1364
 2935SOL     OW 9093   0.743   1.361   0.736 -0.9306  0.2569 -0.1087
 2935SOL    HW1 9094   0.813   1.294   0.761 -1.5460 -0.1939  0.4436
 2935SOL    HW2 9095   0.712   1.344   0.642 -1.9935 -1.0500  0.4623
 2936SOL     OW 9096   1.990   3.002   2.284 -0.3805  0.3317  0.9449
 2936SOL    HW1 9097   2.006   3.078   2.348  0.4327 -0.9379  2.3111
 2936SOL    HW2 9098   2.077   2.973   2.245 -0.6047 -0.3098  0.9153
 2937SOL     OW 9099   2.971   1.114   3.866  0.3773  0.1035  0.0172
 2937SOL    HW1 9100   2.915   1.197   3.865  0.3087  0.0845 -1.5916
 2937SOL    HW2 9101   3.004   1.097   3.958 -0.8307  1.0889  0.6677
 2938SOL     OW 9102   3.470   4.089   0.386  0.5558  0.4368  0.3644
 2938SOL    HW1 9103   3.563   4.079   0.351  0.4868 -1.6498  0.6418
 2938SOL    HW2 9104   3.431   4.175   0.354  1.5781  0.0602 -2.0822
 2939SOL     OW 9105   3.358   2.406   5.750 -0.0118 -0.4584 -0.0222
 2939SOL    HW1 9106   3.376   2.481   5.686 -4.4676  0.8841 -0.0182
 2939SOL    HW2 9107   3.362   2.319   5.701 -0.6883  0.3101 -1.5121
 2940SOL     OW 9108   3.517   2.094   2.244 -0.0138 -0.5066 -0.1554
 2940SOL    HW1 9109   3.479   2.060   2.158 -2.3076 -0.0049  0.6015
 2940SOL    HW2 9110   3.472   2.179   2.269  2.3004  0.6464  0.3918
 2941SOL     OW 9111   1.096   1.888   1.049  0.2653  0.3940 -0.4427
 2941SOL    HW1 9112   1.009   1.907   1.094  0.0992  0.2316 -0.6996
 2941SOL    HW2 9113   1.125   1.969   0.998  0.5174  0.6252  0.0520
 2942SOL     OW 9114   0.905   2.517   1.649  0.3136 -0.2091 -0.4459
 2942SOL    HW1 9115   0.838   2.467   1.593 -0.7925  0.7489 -0.0236
 2942SOL    HW2 9116   0.981   2.546   1.591  0.7750 -1.9893 -0.7815
 2943SOL     OW 9117   2.591   3.310   1.763 -0.1514 -0.0380  0.5956
 2943SOL    HW1 9118   2.615   3.244   1.692 -0.9220  0.2507  0.0425
 2943SOL    HW2 9119   2.672   3.362   1.790  0.0249  0.3087 -0.5612
 2944SOL     OW 9120   0.920   2.734   2.043 -0.1877  0.0104  0.3288
 2944SOL    HW1 9121   0.920   2.634   2.039 -1.8785 -0.1612  2.6245
 2944SOL    HW2 9122   0.884   2.772   1.958  0.7223 -1.2932 -0.6670
 2945SOL     OW 9123   2.706   0.995   0.460 -0.1271  0.2635 -0.3806
 2945SOL    HW1 9124   2.774   1.062   0.431  0.7922 -1.0418 -1.3383
 2945SOL    HW2 9125   2.751   0.914   0.496 -1.2012 -0.1774  0.0160
 2946SOL     OW 9126   1.797   3.500   0.930  0.6698 -0.1177 -0.1538
 2946SOL    HW1 9127   1.824   3.573   0.994 -1.5763 -1.2313  2.2810
 2946SOL    HW2 9128   1.698   3.486   0.936  0.8895 -2.6846 -1.2919
 2947SOL     OW 9129   0.785   3.526   1.523  0.2714  0.4144 -0.1376
 2947SOL    HW1 9130   0.827   3.452   1.470  0.5106  1.1098 -0.9470
 2947SOL    HW2 9131   0.722   3.577   1.464 -2.7733 -1.3640  1.3385
 2948SOL     OW 9132   2.700   3.116   1.257  0.1837 -0.1351 -0.1928
 2948SOL    HW1 9133   2.666   3.053   1.327  1.2448 -1.4267 -0.7814
 2948SOL    HW2 9134   2.628   3.135   1.191 -0.6689  0.6737  0.9498
 2949SOL     OW 9135   1.777   1.433   1.571  0.3463  0.4922 -0.0490
 2949SOL    HW1 9136   1.698   1.478   1.530  0.4625  0.6087 -0.1458
 2949SOL    HW2 9137   1.761   1.420   1.669 -0.1794 -0.3181 -0.2299
 2950SOL     OW 9138   4.183   1.660   2.004  0.1698  0.6885  0.2984
 2950SOL    HW1 9139   4.187   1.754   1.972 -2.1116  1.8194  2.9432
 2950SOL    HW2 9140   4.176   1.599   1.925  2.5820  2.5576 -1.5233
 2951SOL     OW 9141   1.911   2.493   0.423 -0.0660  0.3759 -0.4484
 2951SOL    HW1 9142   1.848   2.471   0.349 -1.0358 -1.0481  0.7265
 2951SOL    HW2 9143   1.863   2.544   0.494 -0.0457 -1.0098  0.6123
 2952SOL     OW 9144   2.553   2.456   4.455 -0.8453 -0.3568  0.3273
 2952SOL    HW1 9145   2.566   2.496   4.364  0.1705 -1.4085 -0.0160
 2952SOL    HW2 9146   2.531   2.359   4.446 -1.2087 -0.3684  1.2029
 2953SOL     OW 9147   1.592   2.399   5.815  0.1956  0.2268  0.5250
 2953SOL    HW1 9148   1.643   2.322   5.777  0.2208 -0.1361  1.2721
 2953SOL    HW2 9149   1.650   2.450   5.878  0.2077  0.9207 -0.0377
 2954SOL     OW 9150   1.931   4.294   5.225  0.1741  0.3693 -0.0664
 2954SOL    HW1 9151   1.875   4.300   5.308 -0.0312  0.8582 -0.2365
 2954SOL    HW2 9152   1.931   4.382   5.178  0.7654  0.2593 -0.2822
 2955SOL     OW 9153   4.856   1.878   2.557 -0.7204  0.3905 -0.1845
 2955SOL    HW1 9154   4.868   1.970   2.594 -1.2317  0.0193  0.9300
 2955SOL    HW2 9155   4.943   1.828   2.563 -0.8700  0.2338  0.8229
 2956SOL     OW 9156   2.863   3.884   1.735  0.4882  0.0078  0.2001
 2956SOL    HW1 9157   2.955   3.892   1.774  0.1891  1.8198  0.6471
 2956SOL    HW2 9158   2.825   3.795   1.759  0.8785  0.4690  2.9040
 2957SOL     OW 9159   3.314   2.118   0.726  0.7334 -0.3073 -0.4544
 2957SOL    HW1 9160   3.235   2.178   0.719 -0.4019 -1.6943 -0.0219
 2957SOL    HW2 9161   3.363   2.117   0.639  0.9524  1.4390 -0.3767
 2958SOL     OW 9162   2.070   2.144   1.181  0.5015  0.3869  0.4430
 2958SOL    HW1 9163   2.146   2.165   1.243 -0.8653  1.1558  1.9395
 2958SOL    HW2 9164   2.079   2.049   1.150  0.6655 -0.4277  2.7489
 2959SOL     OW 9165   4.332   4.209   1.301  0.1625 -0.2740  0.2156
 2959SOL    HW1 9166   4.291   4.195   1.391  0.0592  0.3985  0.2801
 2959SOL    HW2 9167   4.371   4.301   1.297  0.0844 -0.2667 -0.4592
 2960SOL     OW 9168   4.861   1.153   1.545  0.1020  0.1736 -0.4483
 2960SOL    HW1 9169   4.859   1.130   1.448 -1.6753  2.0739 -0.9298
 2960SOL    HW2 9170   4.913   1.237   1.558 -0.5756  0.5077  0.1053
 2961SOL     OW 9171   2.413   1.556   1.812  0.3221  0.1403 -1.0004
 2961SOL    HW1 9172   2.319   1.521   1.803  0.4889  0.1141 -2.9795
 2961SOL    HW2 9173   2.448   1.534   1.903 -0.7558 -1.9216 -1.0285
 2962SOL     OW 9174   4.012   2.839   5.594  0.2197  0.1650  0.2375
 2962SOL    HW1 9175   4.066   2.904   5.541 -0.6670  0.4665 -0.3207
 2962SOL    HW2 9176   4.050   2.831   5.686  0.9847  0.6460 -0.0272
 2963SOL     OW 9177   0.398   1.484   5.914 -0.6810  0.5469 -0.5004
 2963SOL    HW1 9178   0.337   1.561   5.893  0.8427  1.2282 -2.8700
 2963SOL    HW2 9179   0.475   1.517   5.968 -2.1249 -0.2592  2.2443
 2964SOL     OW 9180   4.311   2.722   5.544  0.2709  0.0864  0.7655
 2964SOL    HW1 9181   4.362   2.639   5.565 -0.8657 -0.9011 -0.2585
 2964SOL    HW2 9182   4.281   2.720   5.449  0.9761  2.0966  0.4611
 2965SOL     OW 9183   3.569   3.042   0.513 -0.1990 -0.0286 -0.3865
 2965SOL    HW1 9184   3.662   3.018   0.543  0.6185  2.3175 -0.8727
 2965SOL    HW2 9185   3.508   2.965   0.531  1.4569 -0.9729  1.6344
 2966SOL     OW 9186   2.288   2.614   1.634 -0.2951 -0.1728 -0.5390
 2966SOL    HW1 9187   2.350   2.536   1.627 -0.8501 -0.9049  1.6916
 2966SOL    HW2 9188   2.337   2.692   1.673 -0.7927 -0.9228  1.7699
 2967SOL     OW 9189   3.052   1.790   0.989 -0.0695  0.4825  0.8100
 2967SOL    HW1 9190   3.000   1.711   1.022 -0.6143  1.0190  1.2453
 2967SOL    HW2 9191   3.101   1.832   1.066 -0.2104  0.8931  0.6749
 2968SOL     OW 9192   4.399   0.743   2.132  0.2621 -0.0728  0.4313
 2968SOL    HW1 9193   4.303   0.750   2.107  0.1758 -1.1139  0.4143
 2968SOL    HW2 9194   4.454   0.730   2.050  0.2749 -0.6892  0.5276
 2969SOL     OW 9195   2.221   2.567   1.163 -0.5691  0.2833 -0.6455
 2969SOL    HW1 9196   2.202   2.664   1.146 -0.5793  0.2487 -0.8326
 2969SOL    HW2 9197   2.213   2.516   1.077 -1.0169  0.0458 -0.4661
 2970SOL     OW 9198   2.668   0.755   2.662 -0.3960  0.2285  0.1679
 2970SOL    HW1 9199   2.586   0.806   2.633 -0.2378 -0.5223 -1.7357
 2970SOL    HW2 9200   2.748   0.813   2.653 -0.2897 -0.1324 -1.4424
 2971SOL     OW 9201   2.096   4.353   2.595  0.0928  0.0156  0.1153
 2971SOL    HW1 9202   2.022   4.288   2.581  0.3500 -0.2202 -0.1615
 2971SOL    HW2 9203   2.061   4.447   2.591 -0.1088 -0.0845 -0.4834
 2972SOL     OW 9204   2.956   3.060   1.789  0.3451  0.5609 -0.3418
 2972SOL    HW1 9205   2.866   3.024   1.764 -0.0573 -0.3952  2.2296
 2972SOL    HW2 9206   2.981   3.132   1.725 -1.8569  0.2858 -1.6376
 2973SOL     OW 9207   2.486   1.667   2.281  0.2331  0.0550  0.5706
 2973SOL    HW1 9208   2.448   1.720   2.205  1.0265 -0.2518 -0.0529
 2973SOL    HW2 9209   2.462   1.570   2.268 -0.1722  0.0861  1.0582
 2974SOL     OW 9210   4.640   1.973   1.686 -0.3843 -0.1167 -0.4479
 2974SOL    HW1 9211   4.557   2.018   1.718 -0.9900 -0.0159 -2.0900
 2974SOL    HW2 9212   4.716   2.039   1.687 -1.5128  1.4718 -3.9580
 2975SOL     OW 9213   2.418   1.462   1.031  0.3187 -0.3174 -0.0287
 2975SOL    HW1 9214   2.414   1.495   1.125  0.2528  0.2689 -0.2356
 2975SOL    HW2 9215   2.369   1.375   1.024 -0.5512  0.1400  0.2635
 2976SOL     OW 9216   2.037   5.336   0.756 -0.5542 -0.2583 -0.2492
 2976SOL    HW1 9217   2.117   5.367   0.703 -0.3393 -1.3244 -0.5584
 2976SOL    HW2 9218   2.046   5.239   0.776 -1.2418 -0.1369  0.6944
 2977SOL     OW 9219   2.071   2.212   5.772 -0.4117 -0.6986  0.7395
 2977SOL    HW1 9220   2.166   2.194   5.745 -0.7333  0.2354 -1.1658
 2977SOL    HW2 9221   2.022   2.253   5.696 -2.6261 -1.9894  1.3764
 2978SOL     OW 9222   1.873   2.860   1.242  0.7822  0.1426 -0.0434
 2978SOL    HW1 9223   1.957   2.873   1.295  0.8244 -0.3588  0.0191
 2978SOL    HW2 9224   1.888   2.792   1.171  0.1779 -0.6429  0.5589
 2979SOL     OW 9225   4.257   2.207   5.387 -0.2168  0.1519 -0.0537
 2979SOL    HW1 9226   4.279   2.229   5.482  2.9931  0.4564 -0.7409
 2979SOL    HW2 9227   4.203   2.123   5.384  0.3976 -0.3710  2.0337
 2980SOL     OW 9228   3.164   3.625   1.060 -0.0583  0.3725 -0.1733
 2980SOL    HW1 9229   3.189   3.719   1.036  0.2589 -0.0675 -1.7306
 2980SOL    HW2 9230   3.169   3.568   0.978 -0.1975 -1.0201  0.7538
 2981SOL     OW 9231   4.859   2.842   1.331  0.5726 -0.2213 -0.5561
 2981SOL    HW1 9232   4.866   2.932   1.375 -0.5549 -1.1193  1.5661
 2981SOL    HW2 9233   4.766   2.828   1.298  0.7547 -0.6088 -0.9151
 2982SOL     OW 9234   3.641   1.857   0.904 -0.0629  0.5585  0.2360
 2982SOL    HW1 9235   3.571   1.908   0.954 -0.8136  1.0457 -1.2384
 2982SOL    HW2 9236   3.729   1.901   0.915  0.1174 -0.1953  2.3223
 2983SOL     OW 9237   1.374   1.776   1.607 -0.1873  0.1204  0.2573
 2983SOL    HW1 9238   1.380   1.867   1.647 -0.4013  0.6407 -0.8504
 2983SOL    HW2 9239   1.413   1.709   1.670 -1.3747  0.7630  1.7256
 2984SOL     OW 9240   1.427   5.837   5.808  0.2514 -0.1191  0.4427
 2984SOL    HW1 9241   1.338   5.876   5.783  0.1661  0.2917  1.3330
 2984SOL    HW2 9242   1.477   5.903   5.864  0.6008 -0.8346  0.9902
 2985SOL     OW 9243   3.056   2.939   0.339  0.1046  0.3539 -0.0131
 2985SOL    HW1 9244   3.013   3.021   0.377  0.5941  0.2072  0.8848
 2985SOL    HW2 9245   3.036   2.933   0.241 -1.4623  0.5739  0.2608
 2986SOL     OW 9246   1.563   0.262   1.375 -0.7393  0.3201 -0.4163
 2986SOL    HW1 9247   1.656   0.230   1.358  0.0779  1.6143  1.3770
 2986SOL    HW2 9248   1.541   0.335   1.309  0.6982  2.1222  0.9930
 2987SOL     OW 9249   3.770   2.278   0.858 -0.3799  0.5725  0.0798
 2987SOL    HW1 9250   3.825   2.326   0.789  0.0828 -1.0786 -0.7784
 2987SOL    HW2 9251   3.673   2.293   0.841 -0.2502  0.8194 -0.4480
 2988SOL     OW 9252   2.857   3.375   1.794  0.0899  0.0645 -0.6208
 2988SOL    HW1 9253   2.898   3.307   1.854 -1.0070  0.3637  0.5129
 2988SOL    HW2 9254   2.889   3.361   1.700  3.2807  0.6728  0.2371
 2989SOL     OW 9255   3.725   2.733   0.569  0.1774  0.0947  0.3428
 2989SOL    HW1 9256   3.731   2.709   0.666  1.8845 -1.3393 -0.0641
 2989SOL    HW2 9257   3.663   2.669   0.524 -2.3119  2.0418  0.7887
 2990SOL     OW 9258   3.487   3.677   0.243 -0.5400 -0.2673 -0.0361
 2990SOL    HW1 9259   3.526   3.718   0.160  0.1227  0.2745  0.5380
 2990SOL    HW2 9260   3.551   3.688   0.319 -0.6852 -1.6695  0.3198
 2991SOL     OW 9261   3.973   4.107   0.803 -0.0983 -0.5934 -0.0884
 2991SOL    HW1 9262   4.051   4.169   0.790 -0.8026  0.2682 -0.2580
 2991SOL    HW2 9263   3.996   4.017   0.766  0.9205 -0.4359  0.1179
 2992SOL     OW 9264   3.209   2.802   0.943  0.0887 -0.4869 -0.0508
 2992SOL    HW1 9265   3.263   2.877   0.903  0.2458 -0.1876  0.6985
 2992SOL    HW2 9266   3.175   2.743   0.870 -0.9400  0.9132 -0.7565
 2993SOL     OW 9267   1.774   0.773   0.205 -0.3393  0.1031 -0.2647
 2993SOL    HW1 9268   1.816   0.819   0.127 -1.7675 -1.0203 -1.7702
 2993SOL    HW2 9269   1.825   0.690   0.227  0.2558  0.5940  0.2224
 2994SOL     OW 9270   2.608   4.297   1.190  0.0133 -0.0123 -0.4902
 2994SOL    HW1 9271   2.556   4.284   1.106  1.3378  1.3414 -1.5848
 2994SOL    HW2 9272   2.680   4.365   1.174  2.2453 -1.9048  0.8776
 2995SOL     OW 9273   1.886   1.957   3.493 -0.5076  0.0811  0.3986
 2995SOL    HW1 9274   1.957   1.913   3.438 -3.4508 -3.3064 -1.1259
 2995SOL    HW2 9275   1.844   2.031   3.440 -1.0560 -0.9151 -0.6116
 2996SOL     OW 9276   3.284   1.562   2.897 -0.1052 -0.2022  0.3409
 2996SOL    HW1 9277   3.286   1.662   2.906  0.9794 -0.1009 -0.7204
 2996SOL    HW2 9278   3.259   1.522   2.985 -1.0281  1.0104  0.6664
 2997SOL     OW 9279   4.252   2.939   0.070  0.4307  0.5973 -0.3011
 2997SOL    HW1 9280   4.306   3.023   0.072  0.8094  0.3861  1.9791
 2997SOL    HW2 9281   4.160   2.959   0.035  0.9206  1.6751 -1.0163
 2998SOL     OW 9282   4.405   3.149   0.076  0.0079  0.0948  0.4919
 2998SOL    HW1 9283   4.448   3.195  -0.002  0.6101  1.7958  1.7433
 2998SOL    HW2 9284   4.374   3.218   0.142 -2.9967 -1.1516  0.5388
 2999SOL     OW 9285   2.953   1.155   0.467  0.3306 -0.6470  0.1438
 2999SOL    HW1 9286   3.007   1.239   0.455 -0.2799 -0.1949  0.5234
 2999SOL    HW2 9287   3.015   1.078   0.482  0.9815 -0.5671 -1.8587
 3000SOL     OW 9288   3.027   3.224   1.972  0.3687  0.5353  0.0156
 3000SOL    HW1 9289   3.124   3.239   1.950  0.3447  2.0147  0.7374
 3000SOL    HW2 9290   2.996   3.139   1.930  1.7751  0.4174 -0.8710
 3001SOL     OW 9291   2.085   3.249   5.294 -0.6473  0.2607 -0.2375
 3001SOL    HW1 9292   2.065   3.251   5.196  0.2504  0.3453 -0.4333
 3001SOL    HW2 9293   2.174   3.292   5.310  0.5342 -2.2015  0.2662
 3002SOL     OW 9294   2.074   1.371   0.772 -0.3164 -0.1944  0.2151
 3002SOL    HW1 9295   2.126   1.286   0.782 -0.7334 -0.2456  2.7893
 3002SOL    HW2 9296   2.127   1.436   0.718  1.3989 -1.0367  0.8006
 3003SOL     OW 9297   4.099   2.205   2.465 -0.6028  0.1036  0.3971
 3003SOL    HW1 9298   4.020   2.183   2.408  0.4514 -0.6511 -0.8038
 3003SOL    HW2 9299   4.096   2.150   2.549 -1.0227 -0.3662  0.0759
 3004SOL     OW 9300   2.855   4.747   4.701 -0.1106 -0.0713 -0.3623
 3004SOL    HW1 9301   2.942   4.718   4.739 -0.3997 -0.2536  0.1762
 3004SOL    HW2 9302   2.833   4.840   4.733  0.5085  0.5061 -1.5658
 3005SOL     OW 9303   0.401   2.541   2.601 -0.1506 -0.1916 -0.7479
 3005SOL    HW1 9304   0.492   2.517   2.634  0.3329  1.2442 -0.9628
 3005SOL    HW2 9305   0.359   2.607   2.664 -2.0097 -2.4965  0.5873
 3006SOL     OW 9306   4.176   2.347   0.442  0.3401  0.2887 -0.4428
 3006SOL    HW1 9307   4.159   2.421   0.507 -1.4880 -1.4431  1.1845
 3006SOL    HW2 9308   4.227   2.274   0.487 -0.3955 -0.6799 -1.1403
 3007SOL     OW 9309   2.645   4.439   0.019  0.3048  0.5315  0.2097
 3007SOL    HW1 9310   2.664   4.521   0.072  0.0959  0.0279  1.0795
 3007SOL    HW2 9311   2.553   4.444  -0.019 -0.2018  0.1512  1.3331
 3008SOL     OW 9312   3.250   3.558   0.276  0.9527  0.6236 -0.6315
 3008SOL    HW1 9313   3.266   3.460   0.276 -0.3168  0.3957 -0.4969
 3008SOL    HW2 9314   3.333   3.606   0.249  1.4310 -0.5148 -1.2309
 3009SOL     OW 9315   5.817   2.883   1.522  0.0243 -0.0587  0.2930
 3009SOL    HW1 9316   5.859   2.841   1.603 -1.8143  0.1410  1.4139
 3009SOL    HW2 9317   5.856   2.974   1.508  1.5100 -0.7169 -0.0425
 3010SOL     OW 9318   2.301   3.472   1.676 -0.2764 -0.2880  0.2185
 3010SOL    HW1 9319   2.261   3.560   1.703  2.0070  1.2057 -0.9757
 3010SOL    HW2 9320   2.351   3.433   1.753  1.1704  0.9603 -0.0610
 3011SOL     OW 9321   3.224   2.089   0.241 -0.2357 -0.1018  0.5096
 3011SOL    HW1 9322   3.324   2.087   0.248  0.0254  3.2578 -0.4779
 3011SOL    HW2 9323   3.193   2.015   0.181  1.5749 -1.4676  1.1710
 3012SOL     OW 9324   2.316   2.958   1.542 -0.3747  0.0990  1.0267
 3012SOL    HW1 9325   2.293   3.054   1.558 -0.4112  0.2131  0.3182
 3012SOL    HW2 9326   2.362   2.921   1.623  2.5553  1.6165  0.2210
 3013SOL     OW 9327   2.524   1.478   2.683  0.1716  0.4046  0.0056
 3013SOL    HW1 9328   2.536   1.388   2.726 -0.7038  0.5197  0.4984
 3013SOL    HW2 9329   2.576   1.546   2.734  1.5376  0.0594 -0.8618
 3014SOL     OW 9330   1.026   1.068   0.554  0.0730 -0.0400  0.5158
 3014SOL    HW1 9331   1.043   1.137   0.625  2.8923 -0.6264  0.5349
 3014SOL    HW2 9332   1.074   1.094   0.471 -0.0194 -1.2803  0.0625
 3015SOL     OW 9333   0.429   1.208   1.412  0.4690  0.2689  0.0512
 3015SOL    HW1 9334   0.483   1.278   1.458 -1.5882  1.9828  0.0226
 3015SOL    HW2 9335   0.336   1.208   1.449 -0.1033 -1.1795 -1.2686
 3016SOL     OW 9336   2.051   2.690   2.344 -0.4013 -0.4822 -0.3838
 3016SOL    HW1 9337   1.981   2.755   2.318 -0.1653  0.4016  1.0723
 3016SOL    HW2 9338   2.035   2.658   2.437  0.6045 -0.9816 -0.3581
 3017SOL     OW 9339   4.485   3.256   1.390  0.0342  0.1145  0.1178
 3017SOL    HW1 9340   4.504   3.269   1.488  1.2660  0.0923 -0.0931
 3017SOL    HW2 9341   4.523   3.333   1.338 -1.1403  0.4272 -0.3067
 3018SOL     OW 9342   1.039   4.606   1.229  0.5044  0.5215  0.2581
 3018SOL    HW1 9343   0.986   4.674   1.281 -0.6295 -0.2644  0.1720
 3018SOL    HW2 9344   1.038   4.631   1.132  1.3009  1.1435  0.4014
 3019SOL     OW 9345   0.123   4.024   0.561  0.2663  0.6960 -0.4868
 3019SOL    HW1 9346   0.100   4.078   0.642 -0.2919  0.1278 -0.2610
 3019SOL    HW2 9347   0.186   3.951   0.587  1.7197  1.7264 -0.9479
 3020SOL     OW 9348   3.426   2.368   1.343  0.4601 -0.0469 -0.0594
 3020SOL    HW1 9349   3.437   2.453   1.394 -1.9277  0.7160 -0.6848
 3020SOL    HW2 9350   3.366   2.384   1.265  2.4079 -1.6398 -2.0080
 3021SOL     OW 9351   4.774   3.355   2.742 -0.2869  0.2268  0.0721
 3021SOL    HW1 9352   4.818   3.430   2.694  0.9944 -0.8060 -0.3951
 3021SOL    HW2 9353   4.690   3.388   2.786 -0.1649  1.7296 -0.7936
 3022SOL     OW 9354   1.227   1.674   1.169 -0.0926 -0.1770 -0.2190
 3022SOL    HW1 9355   1.220   1.663   1.268  1.1672 -1.2540 -0.2243
 3022SOL    HW2 9356   1.177   1.756   1.141 -1.6149 -0.5974  1.1254
 3023SOL     OW 9357   4.149   0.773   0.166 -0.0780 -0.4598  0.0289
 3023SOL    HW1 9358   4.111   0.729   0.084 -3.0329  1.4576  0.1959
 3023SOL    HW2 9359   4.248   0.781   0.157 -0.1577 -1.5257 -2.7422
 3024SOL     OW 9360   4.171   1.942   1.238 -0.1333  0.6273 -0.3561
 3024SOL    HW1 9361   4.077   1.908   1.241  0.3580 -1.0007 -1.6815
 3024SOL    HW2 9362   4.194   1.983   1.326 -1.4825 -0.6698  0.6609
 3025SOL     OW 9363   3.632   2.181   2.558 -0.3438 -0.0558  0.4167
 3025SOL    HW1 9364   3.646   2.160   2.462 -2.6557 -0.7261  0.1691
 3025SOL    HW2 9365   3.556   2.245   2.568  0.0634  0.2669  1.7907
 3026SOL     OW 9366   3.004   2.401   1.395 -0.4407 -0.5233 -0.2055
 3026SOL    HW1 9367   3.021   2.377   1.299  1.4284 -0.7584  0.1497
 3026SOL    HW2 9368   3.088   2.437   1.435 -1.5537  0.8371  0.9926
 3027SOL     OW 9369   3.926   4.123   1.605  0.1547 -0.1814  0.1504
 3027SOL    HW1 9370   3.861   4.068   1.552 -3.2936  2.0693  1.6500
 3027SOL    HW2 9371   3.954   4.071   1.686 -2.8826 -0.0311  1.4533
 3028SOL     OW 9372   3.993   0.487   1.317 -0.7661 -0.5690  0.3544
 3028SOL    HW1 9373   3.991   0.393   1.283 -0.2615  0.1213 -1.7404
 3028SOL    HW2 9374   4.066   0.496   1.385 -0.3707 -1.5474  0.0870
 3029SOL     OW 9375   2.229   2.677   5.964  0.1214  0.1475  0.2331
 3029SOL    HW1 9376   2.321   2.651   5.934  0.5728  0.8805  0.9527
 3029SOL    HW2 9377   2.190   2.743   5.899  0.6103  0.8092  0.6162
 3030SOL     OW 9378   2.726   3.433   2.320  0.1971  0.0122 -0.1869
 3030SOL    HW1 9379   2.635   3.456   2.287 -0.3720 -0.5548  0.8933
 3030SOL    HW2 9380   2.731   3.450   2.419  1.4400  0.5480 -0.3262
 3031SOL     OW 9381   4.161   3.390   1.259  0.3146 -0.2446 -0.0439
 3031SOL    HW1 9382   4.129   3.436   1.342  1.0375  0.1330  0.0301
 3031SOL    HW2 9383   4.242   3.336   1.280  0.8239  0.2857 -0.6182
 3032SOL     OW 9384   3.109   1.511   0.146 -0.4516  0.7567  0.1921
 3032SOL    HW1 9385   3.017   1.551   0.145 -0.7523  0.1927 -2.1367
 3032SOL    HW2 9386   3.104   1.416   0.116  1.0280  1.1713 -1.5334
 3033SOL     OW 9387   1.157   2.008   0.325 -0.1389 -0.3829  0.9702
 3033SOL    HW1 9388   1.149   1.920   0.373  3.7918 -1.8183 -0.6737
 3033SOL    HW2 9389   1.211   2.071   0.380 -0.0013 -0.2250  0.6565
 3034SOL     OW 9390   1.801   5.698   2.024  0.7689 -0.1516 -0.5090
 3034SOL    HW1 9391   1.763   5.754   2.097  1.5091 -1.4162  0.9200
 3034SOL    HW2 9392   1.728   5.666   1.964 -0.1930 -0.8460  0.9656
 3035SOL     OW 9393   0.305   4.896   1.731 -0.3255 -0.3760  0.1680
 3035SOL    HW1 9394   0.319   4.902   1.830  0.2245 -0.9390  0.1299
 3035SOL    HW2 9395   0.225   4.840   1.712 -0.3154 -0.4298  0.2872
 3036SOL     OW 9396   3.141   2.344   0.368 -0.1814 -0.4604  0.8566
 3036SOL    HW1 9397   3.169   2.430   0.325 -1.0158 -1.1593 -1.2274
 3036SOL    HW2 9398   3.183   2.268   0.319 -0.0570 -1.2903  2.2010
 3037SOL     OW 9399   2.260   4.103   1.152 -0.0738  0.0031 -0.0649
 3037SOL    HW1 9400   2.264   4.113   1.252 -0.1953  1.1073 -0.1619
 3037SOL    HW2 9401   2.329   4.161   1.110  0.7769 -1.3352 -0.5993
 3038SOL     OW 9402   2.499   4.594   1.442 -0.4309  0.5450 -0.6750
 3038SOL    HW1 9403   2.434   4.634   1.507 -0.0338 -0.5079  0.4096
 3038SOL    HW2 9404   2.558   4.665   1.406 -0.3746  1.0994  0.4655
 3039SOL     OW 9405   0.707   0.946   3.003 -0.1887  0.5030  0.9738
 3039SOL    HW1 9406   0.796   0.991   3.002 -0.3655  0.8611  1.0369
 3039SOL    HW2 9407   0.671   0.944   2.909 -1.0015  2.1719  1.2119
 3040SOL     OW 9408   3.188   3.292   1.067 -0.1714  0.3420 -0.0099
 3040SOL    HW1 9409   3.243   3.343   1.001  0.2770 -2.2994 -1.8152
 3040SOL    HW2 9410   3.092   3.296   1.040  0.0496 -1.0247 -1.1226
 3041SOL     OW 9411   5.150   2.956   0.511 -0.1252 -0.2033 -0.2430
 3041SOL    HW1 9412   5.193   2.993   0.428 -2.3903  1.2770 -0.8425
 3041SOL    HW2 9413   5.189   3.002   0.591  0.4012  0.0866 -0.6511
 3042SOL     OW 9414   4.280   1.917   2.202  1.0610  0.0466  0.2041
 3042SOL    HW1 9415   4.253   1.838   2.257  0.8925 -0.6102 -0.7985
 3042SOL    HW2 9416   4.316   1.988   2.262 -1.6038  0.4484  1.5023
 3043SOL     OW 9417   1.715   3.864   0.267  0.6981 -0.4367 -0.0259
 3043SOL    HW1 9418   1.626   3.827   0.295  1.5575 -3.0844 -0.4779
 3043SOL    HW2 9419   1.701   3.937   0.200 -1.1425 -0.1358  0.6252
 3044SOL     OW 9420   1.872   3.908   2.198  0.6222  0.0565 -0.7235
 3044SOL    HW1 9421   1.791   3.868   2.155  0.8105  0.1515 -1.1675
 3044SOL    HW2 9422   1.852   4.003   2.224  0.9145  0.4182 -1.7731
 3045SOL     OW 9423   3.245   2.783   1.309  0.5198 -0.2636 -0.5694
 3045SOL    HW1 9424   3.197   2.828   1.386  0.6611  0.4262 -0.8776
 3045SOL    HW2 9425   3.209   2.819   1.223  0.6165 -0.7779 -0.8253
 3046SOL     OW 9426   2.515   1.176   4.955  0.8107 -0.0253 -0.2227
 3046SOL    HW1 9427   2.592   1.221   4.909  1.2291  1.9210  2.2060
 3046SOL    HW2 9428   2.530   1.175   5.053 -0.6885 -2.8235  0.0899
 3047SOL     OW 9429   1.516   3.966   1.126  0.8408  0.3294 -0.1150
 3047SOL    HW1 9430   1.434   4.017   1.099  1.1321  0.6525 -0.3974
 3047SOL    HW2 9431   1.536   3.896   1.057 -0.7895 -1.6467  1.2991
 3048SOL     OW 9432   4.905   3.044   2.340  0.5040 -0.2446  0.0556
 3048SOL    HW1 9433   5.003   3.057   2.325  0.5854  0.3233  1.0048
 3048SOL    HW2 9434   4.854   3.087   2.265  0.9875 -1.9720 -1.3455
 3049SOL     OW 9435   3.679   1.362   1.235  0.2718 -0.5735 -0.2975
 3049SOL    HW1 9436   3.724   1.382   1.148 -1.0748  0.9942 -0.6821
 3049SOL    HW2 9437   3.605   1.297   1.219 -1.2074  1.1270 -0.7434
 3050SOL     OW 9438   3.504   4.027   5.166  0.0075  0.7770  0.8266
 3050SOL    HW1 9439   3.421   4.051   5.218 -0.0264  0.6846  0.8152
 3050SOL    HW2 9440   3.568   4.103   5.170 -0.2836  1.0446  0.4219
 3051SOL     OW 9441   2.183   3.053   0.724 -0.4342  0.2105  0.1240
 3051SOL    HW1 9442   2.099   3.072   0.673  0.0435  0.4401 -0.5825
 3051SOL    HW2 9443   2.243   2.995   0.669  1.0151  2.1879 -0.4765
 3052SOL     OW 9444   0.791   4.125   0.010 -0.1595  0.1198  0.0536
 3052SOL    HW1 9445   0.869   4.186  -0.005 -0.6719  1.1816  1.4840
 3052SOL    HW2 9446   0.784   4.104   0.108  0.6601 -3.1836 -0.4953
 3053SOL     OW 9447   2.803   3.651   1.867  0.2131 -0.4129  0.3679
 3053SOL    HW1 9448   2.866   3.677   1.940  2.7334  2.8190 -2.5963
 3053SOL    HW2 9449   2.830   3.563   1.828  0.7870 -0.6599  1.3083
 3054SOL     OW 9450   3.394   2.552   0.938 -0.0504  0.2961  0.4559
 3054SOL    HW1 9451   3.297   2.539   0.919  0.3630 -1.0534 -0.9059
 3054SOL    HW2 9452   3.405   2.595   1.028 -1.8989  0.8357  0.4625
 3055SOL     OW 9453   2.637   0.674   1.278  0.0127  0.0830  0.1134
 3055SOL    HW1 9454   2.636   0.758   1.331  0.8955 -0.3790  0.8803
 3055SOL    HW2 9455   2.694   0.686   1.197  3.6303 -0.9393  2.2792
 3056SOL     OW 9456   5.190   3.123   3.361 -0.3085  0.0981 -0.0107
 3056SOL    HW1 9457   5.216   3.032   3.392 -1.5075  0.5721  2.6200
 3056SOL    HW2 9458   5.271   3.182   3.361  0.3136 -0.7050 -0.9573
 3057SOL     OW 9459   2.946   4.018   2.028 -0.7983 -0.3414  0.6931
 3057SOL    HW1 9460   2.956   4.003   2.127  0.4470 -0.8748  0.5025
 3057SOL    HW2 9461   2.849   4.020   2.005 -1.1057 -0.5487  1.8810
 3058SOL     OW 9462   4.720   1.564   0.925 -0.2282 -0.1887  0.8492
 3058SOL    HW1 9463   4.661   1.624   0.978 -0.3176  1.0898 -0.6253
 3058SOL    HW2 9464   4.814   1.599   0.926 -0.2226 -0.1721  0.2036
 3059SOL     OW 9465   4.362   4.138   0.997 -0.3528 -0.5586  0.1079
 3059SOL    HW1 9466   4.403   4.064   0.944  0.8725  0.1137  0.0616
 3059SOL    HW2 9467   4.435   4.194   1.037 -1.2367 -0.4596  1.6720
 3060SOL     OW 9468   2.030   1.882   5.666 -0.1173 -0.3271 -0.0881
 3060SOL    HW1 9469   2.023   1.935   5.750  0.2378 -0.0413 -0.2346
 3060SOL    HW2 9470   2.123   1.888   5.631 -0.7942  1.5648 -1.7885
 3061SOL     OW 9471   3.956   3.503   0.733  0.2909  0.3568 -0.1633
 3061SOL    HW1 9472   4.038   3.504   0.675  0.1526  0.2286 -0.3631
 3061SOL    HW2 9473   3.940   3.411   0.768  0.5673  0.5032  0.3602
 3062SOL     OW 9474   3.693   2.443   1.479 -0.8966  0.0479 -0.3934
 3062SOL    HW1 9475   3.783   2.482   1.459 -0.9114 -0.8350 -2.4249
 3062SOL    HW2 9476   3.624   2.516   1.475 -0.9644  0.0075 -4.3568
 3063SOL     OW 9477   2.492   0.370   0.093  0.1081  0.0451 -0.0196
 3063SOL    HW1 9478   2.536   0.348   0.006  0.4140  0.6633 -0.0261
 3063SOL    HW2 9479   2.392   0.368   0.081  0.1487  0.3345 -0.4402
 3064SOL     OW 9480   3.268   3.822   5.267  0.0852 -0.5621 -0.0711
 3064SOL    HW1 9481   3.359   3.790   5.242  0.4614 -0.5448  1.2533
 3064SOL    HW2 9482   3.207   3.743   5.278  0.1305 -0.6145 -0.1909
 3065SOL     OW 9483   5.358   2.010   1.433 -0.3842 -0.1916 -0.1709
 3065SOL    HW1 9484   5.436   2.043   1.380 -0.4544  0.9795  0.4232
 3065SOL    HW2 9485   5.354   1.910   1.428  0.7125 -0.2175 -0.8089
 3066SOL     OW 9486   3.469   4.738   0.418  0.0434 -0.3483  0.0502
 3066SOL    HW1 9487   3.418   4.817   0.452 -0.0347  0.0164 -0.8812
 3066SOL    HW2 9488   3.496   4.754   0.324  0.8460 -1.0474  0.1479
 3067SOL     OW 9489   4.708   3.880   5.313  0.2442 -0.1540 -0.2026
 3067SOL    HW1 9490   4.611   3.864   5.331  0.2153  0.2160 -0.0105
 3067SOL    HW2 9491   4.736   3.966   5.355  1.3803 -1.6685  2.4624
 3068SOL     OW 9492   3.350   4.637   1.975  0.1775  0.3826 -0.1070
 3068SOL    HW1 9493   3.350   4.544   1.936 -0.9326  1.0832 -1.9509
 3068SOL    HW2 9494   3.260   4.655   2.015  0.5047  0.5491  0.5473
 3069SOL     OW 9495   3.070   3.447   5.734 -0.3343 -0.0302 -0.1097
 3069SOL    HW1 9496   2.979   3.412   5.712 -0.4826  0.1943  0.1431
 3069SOL    HW2 9497   3.116   3.475   5.649 -0.5431 -0.0433 -0.2282
 3070SOL     OW 9498   1.428   3.318   5.573  0.0682 -0.0846  0.3396
 3070SOL    HW1 9499   1.487   3.264   5.633 -1.0427 -1.1623  0.4999
 3070SOL    HW2 9500   1.482   3.355   5.497  1.1381 -0.1756  1.0414
 3071SOL     OW 9501   3.454   1.909   5.902 -0.1199  0.1763 -0.3693
 3071SOL    HW1 9502   3.461   1.937   5.806  1.9119  0.5662 -0.1453
 3071SOL    HW2 9503   3.489   1.816   5.912 -2.1075 -0.6220 -0.2628
 3072SOL     OW 9504   0.238   2.932   5.030 -0.2711 -0.1841 -0.3902
 3072SOL    HW1 9505   0.187   2.893   4.954 -1.0532 -0.1641  0.1105
 3072SOL    HW2 9506   0.232   2.870   5.109  2.3216 -1.2807 -0.9470
 3073SOL     OW 9507   1.489   1.748   1.057  0.3601  0.0998 -0.7273
 3073SOL    HW1 9508   1.520   1.704   0.973  0.4425 -0.0247 -0.6329
 3073SOL    HW2 9509   1.398   1.713   1.081 -0.0613  0.8002 -1.2504
 3074SOL     OW 9510   2.010   1.518   5.092  0.1892 -0.0895 -0.4555
 3074SOL    HW1 9511   2.050   1.602   5.055  0.5459 -0.4161 -0.8331
 3074SOL    HW2 9512   2.008   1.523   5.192 -2.4587  1.5677 -0.5130
 3075SOL     OW 9513   2.338   3.855   1.034  0.5806 -0.0079  0.0597
 3075SOL    HW1 9514   2.319   3.933   1.093 -2.1777  0.8828 -1.8028
 3075SOL    HW2 9515   2.415   3.876   0.974  0.4975  0.8913  0.2569
 3076SOL     OW 9516   1.533   2.377   1.716 -0.4069 -0.2878 -0.4103
 3076SOL    HW1 9517   1.567   2.454   1.662 -0.7557 -0.2202 -0.5360
 3076SOL    HW2 9518   1.601   2.304   1.717  1.2472  1.1527  2.1712
 3077SOL     OW 9519   2.392   1.633   4.971  0.7772  0.4123  0.8020
 3077SOL    HW1 9520   2.391   1.559   5.039 -1.9133  0.9275  1.4478
 3077SOL    HW2 9521   2.298   1.652   4.941  1.7457  1.1648 -2.0757
 3078SOL     OW 9522   3.712   5.633   0.815  0.1727 -0.4366  0.1632
 3078SOL    HW1 9523   3.631   5.575   0.813 -1.1214  1.2967  0.0338
 3078SOL    HW2 9524   3.710   5.696   0.737  0.3535  1.2448  1.4409
 3079SOL     OW 9525   2.966   0.309   1.088 -0.2026  0.9319  0.0107
 3079SOL    HW1 9526   2.918   0.353   1.012 -1.3605 -0.8720 -0.3854
 3079SOL    HW2 9527   2.951   0.360   1.172 -1.2586  1.4310 -0.4681
 3080SOL     OW 9528   3.174   3.593   5.532 -0.0376 -0.1368  0.2519
 3080SOL    HW1 9529   3.255   3.535   5.543 -0.1035 -0.2292  0.2586
 3080SOL    HW2 9530   3.132   3.576   5.443 -1.0003 -1.3250  0.8987
 3081SOL     OW 9531   2.425   1.887   2.959  0.4137 -0.2049 -0.2240
 3081SOL    HW1 9532   2.447   1.919   2.867 -0.7695  0.7530 -0.2056
 3081SOL    HW2 9533   2.403   1.790   2.957  1.5649 -0.4687 -0.7345
 3082SOL     OW 9534   4.993   2.679   1.883  0.2750 -0.2833 -0.1635
 3082SOL    HW1 9535   4.897   2.655   1.869 -0.2260  0.6901  1.3395
 3082SOL    HW2 9536   5.010   2.693   1.980  1.4623  1.4624 -0.5718
 3083SOL     OW 9537   3.809   2.822   1.211 -0.4645  0.9672 -0.0657
 3083SOL    HW1 9538   3.837   2.917   1.223 -0.6265  0.9713  0.2886
 3083SOL    HW2 9539   3.710   2.818   1.198 -0.4528  0.8488 -0.1179
 3084SOL     OW 9540   2.688   0.490   2.610  0.2723 -0.1262  0.0196
 3084SOL    HW1 9541   2.681   0.589   2.620  1.5787 -0.1016  0.8799
 3084SOL    HW2 9542   2.629   0.445   2.678  1.8211  0.0825  1.5715
 3085SOL     OW 9543   1.430   2.378   1.410 -0.0766  0.2249 -0.1971
 3085SOL    HW1 9544   1.467   2.295   1.451 -0.5650  0.4508  0.7359
 3085SOL    HW2 9545   1.341   2.400   1.452 -1.1911 -0.1778 -2.1929
 3086SOL     OW 9546   2.971   3.650   2.065 -0.0760  0.2741  0.0645
 3086SOL    HW1 9547   2.967   3.552   2.082  0.0858  0.4410  1.1287
 3086SOL    HW2 9548   2.977   3.699   2.152  1.5879  1.1443 -0.4895
 3087SOL     OW 9549   4.302   1.346   0.061 -0.0866  0.7496 -0.1394
 3087SOL    HW1 9550   4.204   1.340   0.041  0.1793 -1.5551 -1.0736
 3087SOL    HW2 9551   4.354   1.330  -0.023  1.1475  3.3420  0.0397
 3088SOL     OW 9552   4.030   1.555   1.361  0.0060 -0.0600 -0.3690
 3088SOL    HW1 9553   3.989   1.606   1.437  0.0891  0.3981 -0.6331
 3088SOL    HW2 9554   4.074   1.473   1.397  0.7649  0.5796  0.1918
 3089SOL     OW 9555   2.981   1.858   1.419 -0.2932 -0.3514  0.3862
 3089SOL    HW1 9556   2.978   1.870   1.519 -0.0341 -1.0311  0.4784
 3089SOL    HW2 9557   2.981   1.761   1.397 -0.2065 -0.2052 -0.2820
 3090SOL     OW 9558   2.582   3.106   1.572  0.0535 -0.4545 -0.7175
 3090SOL    HW1 9559   2.598   3.045   1.494  0.0680 -1.0876 -0.2293
 3090SOL    HW2 9560   2.492   3.149   1.563 -0.7196 -1.8838 -0.2169
 3091SOL     OW 9561   2.120   1.883   1.074 -0.0183  0.0325  0.1142
 3091SOL    HW1 9562   2.064   1.825   1.014  1.7832 -2.7570  0.8961
 3091SOL    HW2 9563   2.113   1.850   1.168  1.1076  1.0825  0.5958
 3092SOL     OW 9564   2.112   4.376   0.277 -0.1069  0.2708  0.4187
 3092SOL    HW1 9565   2.121   4.365   0.376 -4.1046  0.3554  0.9850
 3092SOL    HW2 9566   2.183   4.323   0.230  0.9495 -1.0649  3.3280
 3093SOL     OW 9567   1.617   1.431   2.130  0.3160 -0.2769  0.6295
 3093SOL    HW1 9568   1.564   1.515   2.138 -1.0542 -1.0620  0.1593
 3093SOL    HW2 9569   1.712   1.453   2.107 -0.6061  1.0808 -2.3307
 3094SOL     OW 9570   3.037   2.169   0.015  0.1785  0.1223 -0.1155
 3094SOL    HW1 9571   3.074   2.245   0.068 -1.7581  1.0054  0.0638
 3094SOL    HW2 9572   2.940   2.158   0.036  0.2007 -1.8627 -0.7985
 3095SOL     OW 9573   4.508   4.803   1.186  0.1246 -0.2400 -0.5467
 3095SOL    HW1 9574   4.552   4.718   1.159 -0.4991  0.0280 -2.6120
 3095SOL    HW2 9575   4.445   4.832   1.113  0.5583  2.1505 -0.0460
 3096SOL     OW 9576   2.157   1.474   1.797 -0.1697  0.3354  0.4631
 3096SOL    HW1 9577   2.159   1.374   1.804  0.6932  0.2874 -0.3706
 3096SOL    HW2 9578   2.130   1.512   1.886 -0.2114 -0.6202  0.8784
 3097SOL     OW 9579   3.087   2.303   0.708 -0.0667 -0.0443 -0.0393
 3097SOL    HW1 9580   3.020   2.229   0.716  0.9735 -1.1256 -0.9966
 3097SOL    HW2 9581   3.109   2.318   0.612  0.4358  0.8855  0.2099
 3098SOL     OW 9582   1.450   4.328   5.367  0.4200 -0.0852 -0.0040
 3098SOL    HW1 9583   1.544   4.356   5.346  0.4695 -0.5525 -0.4276
 3098SOL    HW2 9584   1.415   4.270   5.293  0.8424 -2.4334  1.5192
 3099SOL     OW 9585   2.488   1.783   3.599 -0.8451 -0.2351  0.4957
 3099SOL    HW1 9586   2.558   1.771   3.529  0.2642 -0.0035  1.5327
 3099SOL    HW2 9587   2.512   1.861   3.657 -0.1509 -2.0952  2.9243
 3100SOL     OW 9588   1.792   1.153   5.303  0.9950  0.0531 -0.0143
 3100SOL    HW1 9589   1.855   1.196   5.367  1.4128  0.7944 -0.9046
 3100SOL    HW2 9590   1.717   1.217   5.283  0.3380 -0.5430  0.4697
 3101SOL     OW 9591   3.322   3.632   0.551  0.4891 -0.0036 -0.0872
 3101SOL    HW1 9592   3.229   3.666   0.567  0.6642  0.2887  0.3023
 3101SOL    HW2 9593   3.322   3.576   0.468 -0.2058 -0.6898  0.3524
 3102SOL     OW 9594   2.607   1.996   1.480  0.5217  0.2012  0.0258
 3102SOL    HW1 9595   2.669   1.925   1.514 -0.0719 -0.9548 -1.2201
 3102SOL    HW2 9596   2.595   2.066   1.550  0.8724 -1.0981  1.4408
 3103SOL     OW 9597   2.587   3.142   4.546  0.5304 -0.4888  0.0617
 3103SOL    HW1 9598   2.667   3.107   4.497 -0.3435 -1.0398 -1.0299
 3103SOL    HW2 9599   2.504   3.103   4.506 -0.3810  1.2927  0.1038
 3104SOL     OW 9600   2.544   2.064   5.902  0.1252 -0.1158 -0.1884
 3104SOL    HW1 9601   2.632   2.092   5.942  1.0391 -1.3901 -1.1990
 3104SOL    HW2 9602   2.521   1.972   5.933 -2.5946  1.3718  2.6988
 3105SOL     OW 9603   1.306   0.964   0.651  0.0006 -0.4091 -0.1337
 3105SOL    HW1 9604   1.255   0.924   0.575 -0.0308 -1.8800  0.6313
 3105SOL    HW2 9605   1.401   0.978   0.624 -0.2142 -0.0672 -0.7323
 3106SOL     OW 9606   1.743   2.513   4.834  0.6132 -0.2505 -0.3079
 3106SOL    HW1 9607   1.718   2.603   4.801 -0.3458  0.0712  1.1788
 3106SOL    HW2 9608   1.772   2.456   4.758 -0.0543  0.8907 -1.4511
 3107SOL     OW 9609   1.179   4.900   0.754  0.4506  0.2395  0.2100
 3107SOL    HW1 9610   1.088   4.898   0.712  0.7417 -1.0847 -0.3932
 3107SOL    HW2 9611   1.171   4.882   0.852  0.0768 -0.0716  0.1274
 3108SOL     OW 9612   5.036   0.944   5.052  0.2954 -0.1065  0.9264
 3108SOL    HW1 9613   5.114   0.951   4.990  1.9998 -0.9802  2.8479
 3108SOL    HW2 9614   4.972   0.874   5.019  0.8425 -0.1201 -0.1287
 3109SOL     OW 9615   5.041   1.618   0.692 -0.5049  0.5123 -0.0125
 3109SOL    HW1 9616   5.071   1.651   0.782 -1.6481 -0.5942  0.8075
 3109SOL    HW2 9617   4.951   1.655   0.671 -0.5146  0.2597 -0.4221
 3110SOL     OW 9618   3.155   3.553   1.756 -0.3373  0.5802  0.0954
 3110SOL    HW1 9619   3.057   3.539   1.766 -0.6608  0.1736 -2.7604
 3110SOL    HW2 9620   3.171   3.640   1.708  0.6089  0.0324 -0.6144
 3111SOL     OW 9621   1.752   2.137   5.417 -0.1267  0.4862 -0.4915
 3111SOL    HW1 9622   1.781   2.071   5.348 -0.4232 -1.0192  0.7565
 3111SOL    HW2 9623   1.655   2.158   5.405 -0.0505  0.6566 -0.8390
 3112SOL     OW 9624   3.865   2.976   0.572 -0.2571 -0.0320 -0.2948
 3112SOL    HW1 9625   3.825   2.885   0.571  0.0452 -0.1838 -2.2442
 3112SOL    HW2 9626   3.956   2.973   0.613 -0.4223 -0.5027  0.0446
 3113SOL     OW 9627   1.061   1.565   2.662 -0.0526 -0.0617  0.1022
 3113SOL    HW1 9628   1.013   1.580   2.576 -0.8209 -0.4187  0.4672
 3113SOL    HW2 9629   1.069   1.652   2.711 -3.7908 -0.5019  1.8379
 3114SOL     OW 9630   2.584   3.612   1.211  0.1634 -0.6816  0.2473
 3114SOL    HW1 9631   2.507   3.675   1.205 -0.0148 -0.8519  0.7466
 3114SOL    HW2 9632   2.577   3.558   1.295 -0.0705 -1.8678 -0.5108
 3115SOL     OW 9633   2.978   1.599   1.316 -0.0538 -0.1289 -0.3942
 3115SOL    HW1 9634   2.914   1.613   1.241  0.1434 -2.8029 -1.1630
 3115SOL    HW2 9635   2.936   1.540   1.385  1.2349 -1.1691 -0.4667
 3116SOL     OW 9636   2.996   2.840   1.089 -0.0148  0.0161 -0.4400
 3116SOL    HW1 9637   2.958   2.931   1.102 -0.7926 -0.3196 -0.2798
 3116SOL    HW2 9638   3.079   2.846   1.035  0.7311  0.9628  0.7500
 3117SOL     OW 9639   2.981   1.772   0.270 -0.2145  0.0827  0.2490
 3117SOL    HW1 9640   2.945   1.863   0.288  0.7645  0.1103  2.3885
 3117SOL    HW2 9641   3.079   1.778   0.249 -0.5383 -0.3365 -1.5589
 3118SOL     OW 9642   2.020   3.940   1.551 -0.1593  0.3244 -0.7961
 3118SOL    HW1 9643   1.969   3.978   1.474 -0.5513 -0.3286 -0.8686
 3118SOL    HW2 9644   2.096   3.885   1.516  1.7376  2.7098 -0.6960
 3119SOL     OW 9645   0.924   2.881   0.209 -0.6045 -0.0725  0.1657
 3119SOL    HW1 9646   0.837   2.894   0.161 -0.9800 -0.9486  0.5898
 3119SOL    HW2 9647   0.996   2.933   0.163 -1.4862  1.2542  0.2229
 3120SOL     OW 9648   3.727   2.799   3.695  0.6942  0.3858  0.0038
 3120SOL    HW1 9649   3.654   2.835   3.637  0.6926 -0.2684 -0.4177
 3120SOL    HW2 9650   3.700   2.709   3.730  0.9411  0.5171  0.5489
 3121SOL     OW 9651   3.564   1.614   3.167  0.2707 -0.2535 -0.0027
 3121SOL    HW1 9652   3.581   1.713   3.167 -0.8465 -0.0385  1.4261
 3121SOL    HW2 9653   3.518   1.588   3.251  0.0781 -1.9329 -0.5945
 3122SOL     OW 9654   3.881   3.652   4.238 -0.2316 -0.1259 -0.0988
 3122SOL    HW1 9655   3.863   3.558   4.269  1.0016 -0.1095  0.7792
 3122SOL    HW2 9656   3.878   3.714   4.316 -2.2711  0.8056 -0.8543
 3123SOL     OW 9657   2.010   3.953   1.233 -0.0870 -0.5054  0.2855
 3123SOL    HW1 9658   2.096   4.000   1.250  0.3394 -0.9632 -0.5339
 3123SOL    HW2 9659   1.935   4.004   1.276  0.6373 -0.3517  1.3877
 3124SOL     OW 9660   1.396   2.173   2.001  0.0084  0.2476 -0.1911
 3124SOL    HW1 9661   1.346   2.231   1.938  0.3789 -0.0657 -0.7898
 3124SOL    HW2 9662   1.494   2.183   1.985  0.0807 -0.4346 -0.2115
 3125SOL     OW 9663   3.242   3.209   4.883 -0.8381 -0.1989 -0.9999
 3125SOL    HW1 9664   3.183   3.169   4.814 -1.9025 -0.3939  0.0008
 3125SOL    HW2 9665   3.232   3.159   4.969  0.3048  0.1677 -0.6292
 3126SOL     OW 9666   1.312   2.949   3.435 -0.1034  0.1243 -0.1344
 3126SOL    HW1 9667   1.218   2.959   3.402 -0.6330  1.0573  1.5400
 3126SOL    HW2 9668   1.353   3.039   3.446  0.4499 -0.2028  0.5929
 3127SOL     OW 9669   4.007   3.520   4.575 -0.0299 -1.4467  0.6911
 3127SOL    HW1 9670   4.001   3.618   4.554 -1.6033 -1.6363  0.1465
 3127SOL    HW2 9671   4.091   3.503   4.625  0.5150  0.1127  0.3915
 3128SOL     OW 9672   2.557   2.311   1.340 -0.0524  0.1092 -0.3420
 3128SOL    HW1 9673   2.609   2.238   1.296 -1.2422  0.1441 -1.9068
 3128SOL    HW2 9674   2.555   2.391   1.279 -0.2364  0.8211  0.5814
 3129SOL     OW 9675   0.536   2.871   5.784  0.3372  0.2532 -0.9337
 3129SOL    HW1 9676   0.481   2.951   5.760  0.4021  0.8728  0.8697
 3129SOL    HW2 9677   0.525   2.802   5.712 -1.6652  0.9022 -1.3393
 3130SOL     OW 9678   1.587   3.160   1.788 -0.0329  0.4581 -0.1187
 3130SOL    HW1 9679   1.651   3.154   1.711 -1.3996  1.4162 -1.3743
 3130SOL    HW2 9680   1.499   3.121   1.760  0.1438 -1.5139  1.8108
 3131SOL     OW 9681   1.899   1.107   1.358 -0.0682 -0.1881  0.0775
 3131SOL    HW1 9682   1.806   1.108   1.320  0.2193 -0.4045 -0.6387
 3131SOL    HW2 9683   1.925   1.200   1.385 -1.4633 -0.4625  2.7206
 3132SOL     OW 9684   2.473   2.630   2.644  0.2965 -0.1737  0.3597
 3132SOL    HW1 9685   2.401   2.640   2.712 -1.5435  2.3362 -1.7640
 3132SOL    HW2 9686   2.482   2.714   2.591  1.3736 -2.0543 -2.7660
 3133SOL     OW 9687   3.611   3.653   5.665  0.9491 -0.1464 -0.4391
 3133SOL    HW1 9688   3.624   3.719   5.591  2.2490  1.1822  0.9042
 3133SOL    HW2 9689   3.657   3.686   5.747 -2.3332 -0.4435  1.6686
 3134SOL     OW 9690   1.584   3.260   1.119  0.3399 -0.5064  0.8729
 3134SOL    HW1 9691   1.679   3.235   1.139 -0.0056 -1.8984  0.8732
 3134SOL    HW2 9692   1.542   3.190   1.061  0.5581  2.1770 -2.8080
 3135SOL     OW 9693   2.916   1.964   2.776 -0.0368  0.8693 -0.3468
 3135SOL    HW1 9694   3.000   1.919   2.743 -0.6532 -1.6649  1.2784
 3135SOL    HW2 9695   2.878   2.021   2.703  2.2321  0.8624 -1.6376
 3136SOL     OW 9696   2.264   5.095   3.069  0.3674  0.2256  0.2315
 3136SOL    HW1 9697   2.311   5.018   3.111 -0.1690 -0.5745 -0.5845
 3136SOL    HW2 9698   2.258   5.080   2.970  2.1492  2.3507 -0.2661
 3137SOL     OW 9699   3.622   2.352   3.305  0.2711 -0.4253  0.1085
 3137SOL    HW1 9700   3.549   2.421   3.309 -0.4142 -0.9084 -2.2908
 3137SOL    HW2 9701   3.710   2.397   3.319 -0.3564  0.4025  1.6745
 3138SOL     OW 9702   3.111   2.104   3.914 -0.1973  0.4673  0.4229
 3138SOL    HW1 9703   3.110   2.005   3.929 -2.4662  0.4269  0.3269
 3138SOL    HW2 9704   3.116   2.123   3.816  3.6840  0.5929  0.4698
 3139SOL     OW 9705   1.933   3.484   1.661 -0.1052  0.0230 -0.7056
 3139SOL    HW1 9706   1.899   3.544   1.734  1.0018 -0.3735  0.1725
 3139SOL    HW2 9707   1.971   3.401   1.702  1.7512  0.3710 -1.6493
 3140SOL     OW 9708   0.981   5.115   2.967  0.0006  0.2428  0.3831
 3140SOL    HW1 9709   0.980   5.020   2.998  2.0254  0.0065 -0.1437
 3140SOL    HW2 9710   0.970   5.118   2.868  3.5034  0.1896 -0.1369
 3141SOL     OW 9711   1.264   4.089   3.258  0.6117  0.2630  0.2488
 3141SOL    HW1 9712   1.179   4.112   3.210  0.9341  0.6891 -0.1272
 3141SOL    HW2 9713   1.320   4.030   3.200 -0.2914 -1.6825  1.2793
 3142SOL     OW 9714   3.684   2.523   2.071 -0.0862 -0.2622 -0.0302
 3142SOL    HW1 9715   3.614   2.595   2.077  0.6105  0.5215 -0.8907
 3142SOL    HW2 9716   3.648   2.438   2.108 -0.7962  0.6296  1.3989
 3143SOL     OW 9717   3.950   2.304   5.297 -0.1249  0.6432  0.3233
 3143SOL    HW1 9718   3.887   2.246   5.348  0.5195  0.6432  1.1412
 3143SOL    HW2 9719   4.034   2.317   5.350  0.9779 -0.1497 -1.1574
 3144SOL     OW 9720   3.721   1.571   2.365 -0.1430 -0.2674 -0.3313
 3144SOL    HW1 9721   3.645   1.617   2.320 -0.3082 -0.4744 -0.2609
 3144SOL    HW2 9722   3.725   1.598   2.461 -1.1019 -1.4784  0.0711
 3145SOL     OW 9723   3.468   2.011   2.943 -0.7260 -0.4989 -0.0382
 3145SOL    HW1 9724   3.551   1.956   2.933 -0.7319 -0.4532 -0.3387
 3145SOL    HW2 9725   3.492   2.108   2.948 -0.6768 -0.5537  0.9820
 3146SOL     OW 9726   2.805   3.979   2.307  1.0254 -0.4107  0.2651
 3146SOL    HW1 9727   2.726   3.943   2.258  1.2391  0.4081 -0.7203
 3146SOL    HW2 9728   2.774   4.048   2.372  0.9463  0.2172 -0.4207
 3147SOL     OW 9729   1.073   4.425   1.739 -0.0712  0.7784  0.0436
 3147SOL    HW1 9730   1.080   4.514   1.784 -1.6915  1.3403 -0.7217
 3147SOL    HW2 9731   1.144   4.364   1.774 -0.2454  1.6897  2.1276
 3148SOL     OW 9732   3.341   2.740   4.067 -0.2481  0.0482 -0.8267
 3148SOL    HW1 9733   3.306   2.797   4.141 -0.2113  0.7962 -1.3805
 3148SOL    HW2 9734   3.324   2.644   4.089  1.7756  0.0483  1.2465
 3149SOL     OW 9735   2.377   2.658   1.358 -0.5881  0.1497  0.3489
 3149SOL    HW1 9736   2.312   2.637   1.285 -0.4509  0.8238  0.0259
 3149SOL    HW2 9737   2.327   2.677   1.443 -0.8080  0.5191  0.1382
 3150SOL     OW 9738   3.883   0.001   2.439 -0.1168 -0.6090 -0.8284
 3150SOL    HW1 9739   3.872   0.068   2.513  0.0805  0.0844 -1.4166
 3150SOL    HW2 9740   3.851   0.041   2.353  0.0942 -1.2392 -1.2036
 3151SOL     OW 9741   1.640   3.686   1.440 -0.0234  0.5900  1.2010
 3151SOL    HW1 9742   1.688   3.612   1.487  1.5715  1.6802  1.3912
 3151SOL    HW2 9743   1.670   3.689   1.344  1.2017  1.9534  1.5808
 3152SOL     OW 9744   2.118   1.565   2.057 -0.4054 -0.2752  0.6635
 3152SOL    HW1 9745   2.182   1.635   2.026 -1.0253  0.3107  0.6893
 3152SOL    HW2 9746   2.155   1.519   2.138  0.2313 -0.3235  0.3457
 3153SOL     OW 9747   2.091   4.596   1.989  1.0243 -0.2192 -0.3010
 3153SOL    HW1 9748   2.134   4.618   2.077  0.2447  1.9397 -0.4083
 3153SOL    HW2 9749   2.161   4.590   1.918  1.9691 -4.2642  0.7421
 3154SOL     OW 9750   2.141   0.930   2.424  0.4018 -1.0089  0.4939
 3154SOL    HW1 9751   2.069   0.861   2.429 -0.2577 -0.4995 -1.3835
 3154SOL    HW2 9752   2.219   0.894   2.372 -0.0642 -0.2808 -0.7517
 3155SOL     OW 9753   2.308   4.109   1.414 -0.3729  0.4076 -0.2011
 3155SOL    HW1 9754   2.394   4.144   1.453  0.7285 -0.4348 -1.7786
 3155SOL    HW2 9755   2.293   4.016   1.445 -1.1645  0.8366  0.7286
 3156SOL     OW 9756   2.013   2.829   1.759  0.0106  0.2964 -0.2303
 3156SOL    HW1 9757   2.056   2.815   1.848 -1.1564  0.3088  0.3457
 3156SOL    HW2 9758   2.012   2.743   1.709 -0.8026 -0.0971  0.4416
 3157SOL     OW 9759   2.117   0.943   1.393 -0.3015  0.1425 -0.2689
 3157SOL    HW1 9760   2.198   0.991   1.361 -0.9187  1.3521 -0.0603
 3157SOL    HW2 9761   2.036   0.999   1.376 -0.8130  0.2473  2.1116
 3158SOL     OW 9762   3.147   2.241   2.608 -0.4037 -0.2109 -0.5240
 3158SOL    HW1 9763   3.114   2.267   2.517  0.4611 -1.9682 -1.3711
 3158SOL    HW2 9764   3.075   2.259   2.675 -0.8214  1.7224 -1.4272
 3159SOL     OW 9765   0.913   3.552   2.635 -0.2279  0.1930 -0.4438
 3159SOL    HW1 9766   0.980   3.511   2.572  1.1431 -0.4207  1.3109
 3159SOL    HW2 9767   0.925   3.651   2.636  1.5915  0.0292  0.7116
 3160SOL     OW 9768   2.285   2.054   3.999 -0.4667  0.0216 -0.5531
 3160SOL    HW1 9769   2.240   2.095   4.079 -0.3643  1.4047 -1.1674
 3160SOL    HW2 9770   2.371   2.012   4.028 -0.4649  0.4447  0.0917
 3161SOL     OW 9771   2.598   3.092   3.368 -0.8555 -0.4609  0.0384
 3161SOL    HW1 9772   2.571   3.137   3.453 -0.3625 -0.4783  0.2092
 3161SOL    HW2 9773   2.611   2.994   3.385  0.1538 -0.3180  0.1714
 3162SOL     OW 9774   3.557   1.887   3.212 -0.4892 -0.0337  0.5598
 3162SOL    HW1 9775   3.476   1.935   3.178  0.1989  0.6627 -0.1443
 3162SOL    HW2 9776   3.617   1.953   3.258  0.1990 -0.3283  0.0961
 3163SOL     OW 9777   2.960   3.411   2.153 -0.3602  0.0556  0.0981
 3163SOL    HW1 9778   2.869   3.390   2.189 -0.0648 -0.8487  0.3348
 3163SOL    HW2 9779   2.993   3.333   2.099  0.6799 -0.0205  0.8218
 3164SOL     OW 9780   4.012   2.034   2.839 -0.4498  0.2987 -0.3502
 3164SOL    HW1 9781   4.082   2.092   2.798  0.6144 -1.5754 -1.2802
 3164SOL    HW2 9782   3.931   2.032   2.780 -0.8651  1.5125  0.1403
 3165SOL     OW 9783   3.938   3.670   1.666 -0.6172 -0.3100 -0.1857
 3165SOL    HW1 9784   3.929   3.766   1.638  1.2411  0.4235  1.5424
 3165SOL    HW2 9785   3.882   3.654   1.747  0.3642 -0.2226  0.5204
 3166SOL     OW 9786   1.922   3.005   3.155  0.5213 -0.4716  0.0090
 3166SOL    HW1 9787   1.938   2.910   3.182  1.6718  0.1522  1.7634
 3166SOL    HW2 9788   1.860   3.048   3.221 -2.1216 -0.6390 -2.2193
 3167SOL     OW 9789   2.231   2.331   2.243  0.3469  0.6917 -0.4435
 3167SOL    HW1 9790   2.287   2.348   2.163  0.3363  2.9099 -0.0262
 3167SOL    HW2 9791   2.289   2.329   2.325  0.0356  1.2732 -0.2037
 3168SOL     OW 9792   1.787   3.744   2.865  0.1522 -0.1883 -0.4682
 3168SOL    HW1 9793   1.782   3.798   2.781  0.3258  0.9100  0.1947
 3168SOL    HW2 9794   1.746   3.655   2.850  0.8791 -0.3177 -1.9444
 3169SOL     OW 9795   3.529   3.583   3.587  0.2568  0.6140 -0.2198
 3169SOL    HW1 9796   3.519   3.682   3.600 -0.9332  0.4836  0.0133
 3169SOL    HW2 9797   3.601   3.548   3.647 -0.2901  1.1295  0.7586
 3170SOL     OW 9798   1.488   3.662   1.672 -0.0280 -0.2986  0.2224
 3170SOL    HW1 9799   1.480   3.564   1.690  2.2652 -0.5524  0.1508
 3170SOL    HW2 9800   1.525   3.677   1.580 -0.4895  0.6644  0.1725
 3171SOL     OW 9801   1.992   2.645   2.591 -0.2917  1.1391 -0.1227
 3171SOL    HW1 9802   2.063   2.693   2.643  1.5275 -0.4950 -0.9516
 3171SOL    HW2 9803   1.968   2.561   2.639  0.1146  0.4980 -1.0189
 3172SOL     OW 9804   3.079   2.154   3.653 -0.1717 -0.8994  0.4876
 3172SOL    HW1 9805   3.144   2.227   3.633 -1.0230 -0.5310 -1.1035
 3172SOL    HW2 9806   3.070   2.094   3.573 -2.2381 -0.5649  0.4164
 3173SOL     OW 9807   2.292   3.009   1.963 -0.0573  0.1610 -0.5264
 3173SOL    HW1 9808   2.274   3.097   1.919  2.0676  1.4111  0.9311
 3173SOL    HW2 9809   2.282   3.018   2.062 -1.7564 -1.8052 -0.4515
 3174SOL     OW 9810   0.922   4.908   0.612 -0.1044 -0.5571 -0.3204
 3174SOL    HW1 9811   0.902   4.816   0.580 -0.8290 -0.3627 -0.4396
 3174SOL    HW2 9812   0.956   4.963   0.536  0.4425 -0.7529 -0.2234
 3175SOL     OW 9813   3.172   2.112   1.670 -0.2804  0.3251 -0.3593
 3175SOL    HW1 9814   3.254   2.136   1.722  0.2581 -0.2435 -0.9247
 3175SOL    HW2 9815   3.112   2.056   1.727  0.5309 -0.7020 -0.4909
 3176SOL     OW 9816   2.404   1.410   2.238 -0.6309 -0.2214  0.9750
 3176SOL    HW1 9817   2.469   1.346   2.278 -1.6702 -0.4673  2.3238
 3176SOL    HW2 9818   2.378   1.378   2.146  2.0608  0.5593 -0.1516
 3177SOL     OW 9819   3.733   2.101   3.270  0.5549 -0.1845  0.0475
 3177SOL    HW1 9820   3.815   2.117   3.214 -0.7762  0.4552 -1.8176
 3177SOL    HW2 9821   3.683   2.186   3.282  0.0469 -0.6043  0.9815
 3178SOL     OW 9822   1.954   2.063   2.144 -0.0054 -0.0454  0.2597
 3178SOL    HW1 9823   1.867   2.059   2.191 -1.4861  3.2260 -1.8160
 3178SOL    HW2 9824   1.994   2.154   2.155  2.1365 -0.8195 -0.5358
 3179SOL     OW 9825   2.551   3.738   2.407  0.3255 -0.7315  0.0535
 3179SOL    HW1 9826   2.477   3.673   2.422  1.0660 -1.3630  1.0572
 3179SOL    HW2 9827   2.597   3.716   2.321  1.8332 -2.8387  1.3097
 3180SOL     OW 9828   4.352   1.192   4.239  0.5147  0.0860 -0.1530
 3180SOL    HW1 9829   4.273   1.214   4.296  0.4505 -0.5058 -0.0149
 3180SOL    HW2 9830   4.424   1.152   4.295  0.6681  0.0263 -0.3911
 3181SOL     OW 9831   0.303   2.706   2.797 -0.3514 -0.2014 -0.0093
 3181SOL    HW1 9832   0.258   2.646   2.863 -0.6218  0.4257  0.3801
 3181SOL    HW2 9833   0.367   2.766   2.844 -0.5761  0.2804 -0.3076
 3182SOL     OW 9834   2.273   2.659   2.850 -0.0238  0.0563 -0.1207
 3182SOL    HW1 9835   2.230   2.739   2.808 -1.9390  0.3101  2.0871
 3182SOL    HW2 9836   2.285   2.676   2.948  2.1230 -1.3481 -0.0861
 3183SOL     OW 9837   3.785   0.669   1.978  0.5437 -0.0724 -0.0453
 3183SOL    HW1 9838   3.757   0.584   1.934 -1.7717 -0.4165  1.8582
 3183SOL    HW2 9839   3.725   0.687   2.056  2.1869  2.3365  0.7728
 3184SOL     OW 9840   1.566   4.429   3.190 -0.1986 -0.2229 -0.5108
 3184SOL    HW1 9841   1.547   4.332   3.198  0.2889 -0.2381  0.9513
 3184SOL    HW2 9842   1.567   4.470   3.282  3.3975  0.3779 -0.6655
 3185SOL     OW 9843   4.672   2.248   3.099 -0.3741  0.3470  0.3888
 3185SOL    HW1 9844   4.724   2.256   3.014 -0.2730  0.3325  0.4489
 3185SOL    HW2 9845   4.719   2.185   3.161  0.4558  1.6586  1.1280
 3186SOL     OW 9846   2.220   1.561   0.615  0.5764  1.3712  0.7529
 3186SOL    HW1 9847   2.314   1.530   0.635  0.3085 -0.5203 -0.6280
 3186SOL    HW2 9848   2.223   1.653   0.576  2.1313  0.5191 -1.3625
 3187SOL     OW 9849   1.698   3.696   2.538 -0.1233 -0.9530  0.6259
 3187SOL    HW1 9850   1.658   3.767   2.479 -0.0788 -0.7821  0.8005
 3187SOL    HW2 9851   1.626   3.652   2.591 -0.2633 -1.6043 -0.0782
 3188SOL     OW 9852   2.924   3.302   0.667 -0.1262 -0.0900  0.0268
 3188SOL    HW1 9853   2.856   3.325   0.737 -1.8910 -1.2695 -1.2063
 3188SOL    HW2 9854   2.994   3.243   0.707  0.5417  1.5681  1.4558
 3189SOL     OW 9855   1.764   1.808   3.196 -0.1490 -0.1833  0.3703
 3189SOL    HW1 9856   1.797   1.899   3.218 -2.3944  0.2603  2.3164
 3189SOL    HW2 9857   1.741   1.803   3.099 -1.2364  1.7955  0.4751
 3190SOL     OW 9858   1.026   2.542   2.802 -0.2165  0.1924  0.1245
 3190SOL    HW1 9859   1.065   2.627   2.837 -0.1173  0.4923 -0.7010
 3190SOL    HW2 9860   0.963   2.562   2.727 -0.1335 -0.4714 -0.1302
 3191SOL     OW 9861   4.052   2.551   2.802  0.1151 -0.2632 -0.3478
 3191SOL    HW1 9862   4.076   2.539   2.706 -1.4534 -0.8336 -0.7001
 3191SOL    HW2 9863   4.112   2.496   2.859 -0.0391 -1.2750 -1.1455
 3192SOL     OW 9864   1.909   1.562   2.927 -0.0898  0.0423  0.4728
 3192SOL    HW1 9865   1.953   1.534   3.012  1.4049 -0.4946 -0.4446
 3192SOL    HW2 9866   1.824   1.611   2.948 -0.5069 -1.3168  2.2282
 3193SOL     OW 9867   3.760   2.852   2.399  0.0305  0.6570  0.2748
 3193SOL    HW1 9868   3.838   2.797   2.368 -0.3486  0.0968  0.2900
 3193SOL    HW2 9869   3.693   2.859   2.325 -0.2065  0.5632  0.4762
 3194SOL     OW 9870   3.105   3.938   5.024  0.3319 -0.5995  0.2120
 3194SOL    HW1 9871   3.088   3.973   5.116  0.1393  1.4273 -0.5414
 3194SOL    HW2 9872   3.085   3.840   5.021 -0.3488 -0.5561  2.1313
 3195SOL     OW 9873   3.926   2.417   4.051  0.4451  0.4039  0.7712
 3195SOL    HW1 9874   3.884   2.502   4.019  2.7512  0.9353 -1.1221
 3195SOL    HW2 9875   3.958   2.429   4.145 -1.7714  0.6252  1.5373
 3196SOL     OW 9876   3.059   1.156   3.325 -0.8215 -0.5144 -0.3868
 3196SOL    HW1 9877   3.144   1.105   3.310 -0.0774  0.5387  0.1348
 3196SOL    HW2 9878   3.039   1.159   3.423 -1.5029 -0.7869 -0.5065
 3197SOL     OW 9879   4.270   1.909   1.929  0.9765  0.6139  0.1823
 3197SOL    HW1 9880   4.330   1.978   1.888 -0.9329  2.6532  0.6292
 3197SOL    HW2 9881   4.275   1.914   2.028 -1.5381  2.5133  0.3340
 3198SOL     OW 9882   2.150   3.787   2.478  0.0063 -0.0393  0.2459
 3198SOL    HW1 9883   2.062   3.740   2.466  0.7765 -0.8534 -3.0801
 3198SOL    HW2 9884   2.184   3.817   2.390  3.2901 -0.0997  1.3645
 3199SOL     OW 9885   1.123   1.744   3.542  0.2343 -0.1461 -0.0069
 3199SOL    HW1 9886   1.103   1.646   3.542 -0.9926  0.0578  1.7344
 3199SOL    HW2 9887   1.164   1.770   3.454 -0.7215 -1.9458 -1.0397
 3200SOL     OW 9888   3.066   0.519   5.585  0.9545  0.0017 -0.0090
 3200SOL    HW1 9889   3.034   0.455   5.655  1.8008 -0.2590  0.1435
 3200SOL    HW2 9890   3.164   0.533   5.594  0.6967  1.8083  0.3538
 3201SOL     OW 9891   2.248   2.150   4.269  0.4253  0.6621  0.2167
 3201SOL    HW1 9892   2.177   2.201   4.317 -0.9132  1.1811 -2.1300
 3201SOL    HW2 9893   2.252   2.057   4.306 -1.9465  0.4185  0.0679
 3202SOL     OW 9894   2.747   3.418   2.602  0.2405 -0.1103 -0.0064
 3202SOL    HW1 9895   2.814   3.492   2.606 -0.1700  0.3221 -0.9672
 3202SOL    HW2 9896   2.708   3.404   2.693  1.9081 -0.6433  0.6736
 3203SOL     OW 9897   5.251   2.481   2.007 -0.0497  0.0407 -0.2866
 3203SOL    HW1 9898   5.251   2.483   1.908  0.7904  0.4706 -0.2929
 3203SOL    HW2 9899   5.273   2.572   2.042  0.8080 -0.3587  0.2652
 3204SOL     OW 9900   1.216   3.577   1.953 -0.3436  0.6263 -0.4886
 3204SOL    HW1 9901   1.269   3.543   2.031 -0.3196 -0.2277 -0.8680
 3204SOL    HW2 9902   1.209   3.506   1.883 -0.6410  1.2686 -1.1349
 3205SOL     OW 9903   3.261   2.018   2.704  0.5140 -0.0763 -0.0662
 3205SOL    HW1 9904   3.217   2.093   2.655  2.8038  0.1553 -1.9854
 3205SOL    HW2 9905   3.301   2.051   2.789  0.3478  0.5768 -0.2408
 3206SOL     OW 9906   5.855   0.935   0.738  0.4181  0.2401  0.3300
 3206SOL    HW1 9907   5.784   0.889   0.793 -0.4094  0.7958 -0.2468
 3206SOL    HW2 9908   5.861   0.890   0.649 -1.3796  2.0459 -0.7702
 3207SOL     OW 9909   5.078   2.820   3.210  0.3277  0.0293  0.0988
 3207SOL    HW1 9910   5.158   2.766   3.182 -0.3247 -0.4995 -0.8115
 3207SOL    HW2 9911   5.010   2.818   3.137 -0.4709  0.5877  0.8110
 3208SOL     OW 9912   3.179   3.364   4.278  0.3600 -0.2135  0.2365
 3208SOL    HW1 9913   3.100   3.303   4.272 -0.2547  0.7405 -2.6099
 3208SOL    HW2 9914   3.254   3.326   4.225  0.7115  0.4739  0.2369
 3209SOL     OW 9915   2.823   2.807   3.664 -0.5482 -0.0378  0.4109
 3209SOL    HW1 9916   2.750   2.743   3.689 -1.2568  0.5270 -0.1530
 3209SOL    HW2 9917   2.788   2.901   3.671 -0.4725  0.1782 -1.6797
 3210SOL     OW 9918   2.147   2.847   2.720 -0.1189  0.4120 -0.0428
 3210SOL    HW1 9919   2.192   2.865   2.633  0.9839  1.1206  0.6432
 3210SOL    HW2 9920   2.090   2.926   2.745 -0.6195  0.1139 -0.2198
 3211SOL     OW 9921   3.218   3.538   3.460 -0.3123  1.0703 -0.1305
 3211SOL    HW1 9922   3.199   3.462   3.397 -1.7736  1.0515  0.2962
 3211SOL    HW2 9923   3.316   3.539   3.482  0.0668  0.5101 -1.6522
 3212SOL     OW 9924   3.968   1.895   2.539  0.2213  0.3378 -0.2285
 3212SOL    HW1 9925   3.885   1.932   2.581  0.2961  0.5535 -0.2693
 3212SOL    HW2 9926   3.986   1.804   2.575  0.1185  0.4005 -0.0187
 3213SOL     OW 9927   0.248   0.827   2.993  0.6301 -0.8006 -0.3973
 3213SOL    HW1 9928   0.318   0.811   2.923  2.6353 -0.1430  1.3262
 3213SOL    HW2 9929   0.163   0.858   2.950  2.7376  2.9041 -2.4485
 3214SOL     OW 9930   2.304   3.631   3.054  0.0949 -0.1372  0.5413
 3214SOL    HW1 9931   2.345   3.719   3.029 -1.1933  0.6991  1.2902
 3214SOL    HW2 9932   2.206   3.633   3.036 -0.0579 -1.1971  1.1722
 3215SOL     OW 9933   3.532   1.043   2.687 -0.1835 -0.2421  0.2086
 3215SOL    HW1 9934   3.451   1.006   2.733 -0.9661 -1.0973 -1.7492
 3215SOL    HW2 9935   3.605   0.975   2.688 -0.6577 -0.7853 -0.9359
 3216SOL     OW 9936   1.141   3.320   4.030  0.0378  0.5904  0.0988
 3216SOL    HW1 9937   1.144   3.381   3.950  0.1770  0.9084  0.3448
 3216SOL    HW2 9938   1.224   3.332   4.084  1.6513 -2.1370 -1.5164
 3217SOL     OW 9939   1.918   4.033   3.522 -0.0316 -0.4824  0.2472
 3217SOL    HW1 9940   1.865   4.050   3.439  0.3315  0.1378  0.1381
 3217SOL    HW2 9941   1.916   4.114   3.581  1.3998 -0.1674 -0.0956
 3218SOL     OW 9942   5.633   1.595   0.368 -0.1358 -0.0482  0.3030
 3218SOL    HW1 9943   5.582   1.532   0.426 -0.9133 -0.1705 -0.4955
 3218SOL    HW2 9944   5.699   1.543   0.313  0.2173  0.0066  0.6681
 3219SOL     OW 9945   4.186   4.563   3.180  0.3050  0.0423 -0.4564
 3219SOL    HW1 9946   4.225   4.593   3.267 -0.8138  0.2957 -0.0193
 3219SOL    HW2 9947   4.259   4.531   3.120  1.2109  0.8607  0.1758
 3220SOL     OW 9948   3.244   1.392   4.090  0.6055  0.1208 -0.1339
 3220SOL    HW1 9949   3.203   1.309   4.127 -1.0443  1.1024  0.3444
 3220SOL    HW2 9950   3.172   1.454   4.058  1.8066  1.2183 -0.8518
 3221SOL     OW 9951   1.163   4.172   1.387  0.3073 -0.4214  0.5510
 3221SOL    HW1 9952   1.102   4.094   1.378 -1.1895  0.6209  1.2210
 3221SOL    HW2 9953   1.254   4.140   1.413 -0.3258 -1.9259  1.0376
 3222SOL     OW 9954   2.275   3.832   1.463 -0.2184  0.3599  0.2888
 3222SOL    HW1 9955   2.259   3.743   1.421 -0.6363  1.3884 -1.8736
 3222SOL    HW2 9956   2.368   3.835   1.501 -0.6106 -1.3612  1.5213
 3223SOL     OW 9957   4.408   2.067   3.054 -0.2668  0.1132  0.0353
 3223SOL    HW1 9958   4.507   2.052   3.060 -0.5803 -1.9964  0.9894
 3223SOL    HW2 9959   4.368   2.002   2.990 -1.1908 -0.0024  0.7037
 3224SOL     OW 9960   3.927   2.118   0.527 -0.0532  0.3095 -0.0038
 3224SOL    HW1 9961   3.933   2.068   0.613  0.4968 -0.3171 -0.4035
 3224SOL    HW2 9962   3.927   2.217   0.546 -1.3083  0.1788  0.7950
 3225SOL     OW 9963   1.854   2.969   2.887  0.7926 -0.4401 -0.1385
 3225SOL    HW1 9964   1.851   2.957   2.986 -1.7193  1.1002  0.0621
 3225SOL    HW2 9965   1.832   2.881   2.843 -0.5095 -0.6031  0.7641
 3226SOL     OW 9966   1.780   0.931   2.663  0.3935 -0.5384  0.5599
 3226SOL    HW1 9967   1.788   0.835   2.636  2.1711 -0.2320 -0.1836
 3226SOL    HW2 9968   1.859   0.955   2.721  0.9508  0.9030 -0.7409
 3227SOL     OW 9969   2.569   0.965   2.945  0.3406 -0.3489  0.0936
 3227SOL    HW1 9970   2.607   0.939   3.034 -0.8729 -3.1388 -0.0858
 3227SOL    HW2 9971   2.470   0.957   2.947  0.2694 -0.1159 -1.4188
 3228SOL     OW 9972   3.285   2.057   3.311  0.1340  0.0480  0.0618
 3228SOL    HW1 9973   3.346   2.026   3.383  0.5555 -1.3968 -0.8716
 3228SOL    HW2 9974   3.199   2.006   3.315  0.1287  0.0155 -0.3917
 3229SOL     OW 9975   3.472   3.315   1.627  0.0474  0.3877 -0.2443
 3229SOL    HW1 9976   3.473   3.345   1.722  0.5008  1.7269 -0.6527
 3229SOL    HW2 9977   3.542   3.363   1.575 -0.0520 -0.4754 -1.2268
 3230SOL     OW 9978   2.147   3.218   3.345  0.4121  0.1041 -0.0059
 3230SOL    HW1 9979   2.134   3.119   3.337  0.1443  0.1204  0.2105
 3230SOL    HW2 9980   2.245   3.240   3.338  0.5528 -0.2524  0.7013
 3231SOL     OW 9981   2.821   2.187   3.694 -0.1322  0.4334 -0.7398
 3231SOL    HW1 9982   2.820   2.279   3.735 -0.4809  0.1557 -0.0996
 3231SOL    HW2 9983   2.915   2.158   3.681 -0.0098  0.5877 -0.2454
 3232SOL     OW 9984   3.201   0.625   3.292 -0.4800  0.4398 -0.8586
 3232SOL    HW1 9985   3.260   0.659   3.219  0.8342  3.0852  1.2609
 3232SOL    HW2 9986   3.256   0.611   3.375 -2.3577  0.1006  0.3856
 3233SOL     OW 9987   1.549   0.391   2.099  0.1119 -0.1247  0.5643
 3233SOL    HW1 9988   1.617   0.443   2.046  2.1855 -2.1120  1.1160
 3233SOL    HW2 9989   1.459   0.431   2.086  0.8913  0.8467 -2.6090
 3234SOL     OW 9990   3.618   4.560   2.329 -0.8091  0.1726  0.2913
 3234SOL    HW1 9991   3.692   4.587   2.390  0.1725 -0.6673 -0.5022
 3234SOL    HW2 9992   3.542   4.624   2.340  0.0872  1.1589  1.0012
 3235SOL     OW 9993   3.647   4.494   2.729 -0.5154 -0.1472 -0.0188
 3235SOL    HW1 9994   3.645   4.394   2.726 -0.1645 -0.1244 -1.4339
 3235SOL    HW2 9995   3.731   4.528   2.686  0.2376  0.7311  1.9891
 3236SOL     OW 9996   3.816   1.391   4.443  0.3665  0.1159  0.8092
 3236SOL    HW1 9997   3.770   1.308   4.410 -1.1046  1.3364 -0.4270
 3236SOL    HW2 9998   3.876   1.368   4.519 -0.2756 -2.0106  0.7524
 3237SOL     OW 9999   2.866   2.745   4.212 -0.0744  0.1499 -0.0224
 3237SOL    HW110000   2.904   2.816   4.153  0.1510 -0.3908 -0.5410
 3237SOL    HW210001   2.888   2.766   4.307 -2.0648  2.0583  0.1105
 3238SOL     OW10002   3.576   2.658   3.075 -0.2335 -0.0847 -0.0723
 3238SOL    HW110003   3.598   2.752   3.099 -0.3937  0.3709 -1.6057
 3238SOL    HW210004   3.526   2.615   3.150 -4.0559  2.4104 -0.9063
 3239SOL     OW10005   3.293   2.268   3.108  0.2025  0.2122  0.1860
 3239SOL    HW110006   3.286   2.195   3.175  0.7958  0.8726  0.9906
 3239SOL    HW210007   3.386   2.274   3.074 -0.0370  0.0482 -0.5199
 3240SOL     OW10008   1.306   2.827   3.110  0.2717  0.0134  0.4029
 3240SOL    HW110009   1.257   2.827   3.197  1.5051 -0.9824  1.1342
 3240SOL    HW210010   1.336   2.919   3.087  0.7113  0.1525  1.4994
 3241SOL     OW10011   1.849   0.586   2.836  0.1550  0.0665  0.1625
 3241SOL    HW110012   1.871   0.628   2.748  0.6614  1.2913  0.8364
 3241SOL    HW210013   1.760   0.620   2.867 -0.2327 -0.7160 -0.0828
 3242SOL     OW10014   4.298   1.726   2.655  0.5597 -0.3115 -0.5920
 3242SOL    HW110015   4.200   1.711   2.642  0.7597 -1.9406 -0.3350
 3242SOL    HW210016   4.314   1.769   2.744  0.1490 -1.1537 -0.0976
 3243SOL     OW10017   3.673   4.082   3.073  0.0230  0.8703 -0.1576
 3243SOL    HW110018   3.711   4.169   3.107  0.4291  0.5475  0.2305
 3243SOL    HW210019   3.598   4.053   3.132  0.3076  0.6351  0.0918
 3244SOL     OW10020   2.490   4.165   1.763  0.3378 -0.0245 -0.2962
 3244SOL    HW110021   2.489   4.213   1.675 -0.3450  0.2007 -0.1687
 3244SOL    HW210022   2.437   4.216   1.830  0.8898 -0.1732  0.2699
 3245SOL     OW10023   1.906   1.448   2.676  0.1377 -0.3081  0.7628
 3245SOL    HW110024   1.978   1.481   2.615 -2.5434  2.4578 -1.2145
 3245SOL    HW210025   1.920   1.486   2.767  0.2168  1.8609 -0.0807
 3246SOL     OW10026   1.821   3.489   2.773 -0.2553 -0.2884  0.0758
 3246SOL    HW110027   1.915   3.523   2.767 -0.3456 -0.0385  0.0573
 3246SOL    HW210028   1.801   3.431   2.695  0.0590 -0.7821  0.3575
 3247SOL     OW10029   3.118   3.879   1.450  0.2359 -0.0035 -0.2557
 3247SOL    HW110030   3.173   3.799   1.429 -0.7781 -0.8204  0.1282
 3247SOL    HW210031   3.049   3.893   1.379  1.6778  1.7572 -1.4043
 3248SOL     OW10032   3.765   4.209   4.428  0.2435 -0.0443 -0.2223
 3248SOL    HW110033   3.700   4.228   4.355  1.6099  1.9770 -0.9969
 3248SOL    HW210034   3.750   4.271   4.505  0.2542 -0.6621  0.2979
 3249SOL     OW10035   4.487   2.166   4.654 -0.2585 -0.1735 -0.2457
 3249SOL    HW110036   4.567   2.156   4.594 -1.8210 -1.5350 -2.2362
 3249SOL    HW210037   4.518   2.191   4.746  2.4946 -1.3093 -0.7456
 3250SOL     OW10038   2.989   2.058   1.248 -0.0492  0.1875 -0.2024
 3250SOL    HW110039   2.990   1.980   1.310  1.3601  0.2719 -0.0823
 3250SOL    HW210040   3.037   2.034   1.163 -2.9117 -0.3011 -1.8042
 3251SOL     OW10041   1.272   3.220   0.849 -0.1294 -0.5318  0.3388
 3251SOL    HW110042   1.332   3.157   0.899 -0.6774 -0.9900  0.4199
 3251SOL    HW210043   1.281   3.311   0.888 -0.6340 -0.9081  1.3543
 3252SOL     OW10044   3.580   1.250   4.814 -0.3403 -0.5272 -0.2859
 3252SOL    HW110045   3.676   1.240   4.788 -0.4634  0.5692 -1.2563
 3252SOL    HW210046   3.522   1.210   4.743 -0.6217 -0.0136 -0.3511
 3253SOL     OW10047   3.615   1.608   4.150 -0.0542  0.7448 -0.2833
 3253SOL    HW110048   3.613   1.629   4.248  1.1252  1.0339 -0.3088
 3253SOL    HW210049   3.524   1.623   4.112 -0.4172  1.0894  0.6758
 3254SOL     OW10050   2.874   4.208   2.753  0.2268 -0.8481 -0.1277
 3254SOL    HW110051   2.898   4.304   2.737 -0.6022 -0.8574 -1.5862
 3254SOL    HW210052   2.797   4.203   2.817 -1.1323 -0.3938 -1.6588
 3255SOL     OW10053   3.875   0.966   2.989  0.0140 -0.1042  0.6251
 3255SOL    HW110054   3.864   0.960   3.088 -2.5872 -1.0768  0.3528
 3255SOL    HW210055   3.947   0.903   2.959 -0.1623 -0.8667  1.7507
 3256SOL     OW10056   2.247   2.852   2.454 -0.2621  0.1766 -0.4203
 3256SOL    HW110057   2.276   2.918   2.385  0.6061  1.0861  0.7488
 3256SOL    HW210058   2.172   2.796   2.419 -1.1124  1.8654 -1.4196
 3257SOL     OW10059   4.128   1.325   1.437 -0.6407  0.0075  0.5575
 3257SOL    HW110060   4.167   1.328   1.529 -1.1532  0.2579  0.7654
 3257SOL    HW210061   4.093   1.234   1.418 -0.1523 -0.1604  0.4505
 3258SOL     OW10062   2.013   4.888   1.021  0.5209  0.4191  0.2853
 3258SOL    HW110063   2.035   4.836   1.104  0.1839 -0.9904 -0.4747
 3258SOL    HW210064   1.989   4.825   0.948 -2.1323  1.7109 -0.0698
 3259SOL     OW10065   3.161   4.816   1.371  0.6880 -0.0643 -0.0875
 3259SOL    HW110066   3.087   4.767   1.326  0.9294  0.1371 -0.7055
 3259SOL    HW210067   3.152   4.805   1.470  0.6227 -1.1935 -0.2036
 3260SOL     OW10068   2.186   1.573   5.557  0.2103 -0.2884 -0.0980
 3260SOL    HW110069   2.198   1.622   5.643 -0.5651  2.4273 -1.4282
 3260SOL    HW210070   2.273   1.572   5.507  0.6696 -1.8952  0.6615
 3261SOL     OW10071   1.181   3.611   5.113 -0.5284 -0.5122  0.4492
 3261SOL    HW110072   1.102   3.594   5.171 -1.9855  0.5783 -1.1015
 3261SOL    HW210073   1.153   3.609   5.017  1.4549 -0.6586 -0.1808
 3262SOL     OW10074   4.901   5.108   0.870 -0.4261 -0.4586  0.3755
 3262SOL    HW110075   4.979   5.153   0.913  1.2620 -2.0182 -0.9518
 3262SOL    HW210076   4.903   5.010   0.891 -1.1143 -0.7896 -1.0107
 3263SOL     OW10077   3.404   2.537   3.272  0.0315  0.0168 -0.3208
 3263SOL    HW110078   3.357   2.624   3.287 -0.6569 -0.6696  1.8145
 3263SOL    HW210079   3.341   2.473   3.228 -0.1716 -0.0766  0.1044
 3264SOL     OW10080   3.494   5.449   4.597 -0.3443  0.5493  0.0045
 3264SOL    HW110081   3.490   5.425   4.500 -1.2421  0.0856  0.1429
 3264SOL    HW210082   3.574   5.506   4.614 -0.7321  1.4829 -1.1977
 3265SOL     OW10083   0.778   2.896   4.564  0.1561 -0.3254  0.3215
 3265SOL    HW110084   0.714   2.972   4.581 -0.7978 -1.1765  0.6268
 3265SOL    HW210085   0.785   2.840   4.646  1.2586 -0.2865  0.2608
 3266SOL     OW10086   2.381   2.449   5.748  0.5759  0.0112  0.7290
 3266SOL    HW110087   2.441   2.489   5.817 -0.5117  0.1843  1.6026
 3266SOL    HW210088   2.380   2.349   5.758  0.5080  0.0283  0.8956
 3267SOL     OW10089   3.462   3.737   4.257 -0.1527 -0.6910 -0.1324
 3267SOL    HW110090   3.495   3.803   4.324  0.7283 -1.5435  0.3034
 3267SOL    HW210091   3.528   3.731   4.182 -0.7364 -0.3359 -0.6803
 3268SOL     OW10092   0.949   2.240   0.458  0.1210  0.4534 -0.1163
 3268SOL    HW110093   1.044   2.238   0.490  0.1097  1.2893  0.0056
 3268SOL    HW210094   0.917   2.147   0.442  0.9327  0.1585 -0.0729
 3269SOL     OW10095   0.917   3.195   2.389 -0.1420 -0.1794  0.2280
 3269SOL    HW110096   0.831   3.241   2.411 -1.6610 -3.4651  1.8417
 3269SOL    HW210097   0.925   3.112   2.444  3.9674 -0.2178 -0.1084
 3270SOL     OW10098   3.683   3.767   4.062 -0.2042 -0.1696  0.7362
 3270SOL    HW110099   3.698   3.673   4.032  4.3753  1.1373 -1.9335
 3270SOL    HW210100   3.762   3.799   4.114 -0.3220  2.9243 -0.7256
 3271SOL     OW10101   1.557   2.875   5.677  0.0792 -0.0030  0.3922
 3271SOL    HW110102   1.638   2.828   5.641  0.4381  0.5062  0.5102
 3271SOL    HW210103   1.546   2.853   5.774 -0.5953 -0.9777  0.1013
 3272SOL     OW10104   4.376   2.512   3.943 -0.1618 -0.7698  0.1113
 3272SOL    HW110105   4.351   2.478   3.853  0.0613  0.5809 -0.4852
 3272SOL    HW210106   4.305   2.575   3.975  0.8074  0.4547 -0.1032
 3273SOL     OW10107   2.609   2.811   4.323 -0.5261 -0.1011  0.0110
 3273SOL    HW110108   2.691   2.852   4.285 -0.4766 -1.6646 -1.7430
 3273SOL    HW210109   2.616   2.808   4.423  1.2458  0.3741 -0.0674
 3274SOL     OW10110   3.381   2.864   0.621  0.6500  0.3789 -0.0162
 3274SOL    HW110111   3.421   2.796   0.682 -1.9367  0.0183  1.3872
 3274SOL    HW210112   3.320   2.820   0.556  1.6842  1.0259 -1.4984
 3275SOL     OW10113   3.119   3.894   3.915  0.1372 -0.1596  0.0721
 3275SOL    HW110114   3.090   3.836   3.991  0.9217  0.0321  0.5285
 3275SOL    HW210115   3.218   3.891   3.907  0.1699  0.8800 -0.0882
 3276SOL     OW10116   2.337   0.974   4.640 -0.3137 -0.5529 -0.1282
 3276SOL    HW110117   2.428   0.932   4.635 -0.0812 -0.0596 -0.1644
 3276SOL    HW210118   2.322   1.009   4.733  0.0751  0.5240 -0.4486
 3277SOL     OW10119   2.993   3.756   4.111  0.3048 -0.2311  0.3789
 3277SOL    HW110120   2.969   3.837   4.164  1.0194  0.1206  0.1765
 3277SOL    HW210121   3.063   3.704   4.160  0.1216 -0.5232  0.3303
 3278SOL     OW10122   3.076   3.501   3.933 -0.2916 -0.2022 -0.4535
 3278SOL    HW110123   3.163   3.544   3.959  0.8915 -2.2046 -0.8698
 3278SOL    HW210124   3.007   3.521   4.002  0.8655  0.3461  0.5804
 3279SOL     OW10125   3.363   2.983   1.626  0.2567 -0.1014  0.3039
 3279SOL    HW110126   3.365   3.083   1.634  2.5072 -0.1741  1.2468
 3279SOL    HW210127   3.424   2.954   1.552  0.2660 -0.8095  0.5763
 3280SOL     OW10128   1.284   0.278   4.525  0.3801  0.1737 -0.0316
 3280SOL    HW110129   1.232   0.203   4.564  0.6144 -0.1784 -0.3800
 3280SOL    HW210130   1.223   0.339   4.475  0.0972  0.5621  0.7719
 3281SOL     OW10131   5.794   2.589   3.950 -0.0476  0.1853  0.2031
 3281SOL    HW110132   5.804   2.666   4.013 -1.4685  1.4037 -0.9839
 3281SOL    HW210133   5.883   2.546   3.936  0.4605  0.4352  2.2851
 3282SOL     OW10134   1.567   2.722   4.499  0.5671 -0.3251  0.1424
 3282SOL    HW110135   1.640   2.744   4.563  1.6276  0.1690 -1.1801
 3282SOL    HW210136   1.499   2.796   4.500  0.9494  0.0326  0.1808
 3283SOL     OW10137   2.543   3.188   3.988 -0.2126  0.0924  0.4397
 3283SOL    HW110138   2.517   3.111   4.046  0.9708 -1.3493 -0.8443
 3283SOL    HW210139   2.469   3.207   3.923 -0.0346 -0.7962 -0.0402
 3284SOL     OW10140   3.350   3.207   3.417 -0.3715 -0.1115 -0.1187
 3284SOL    HW110141   3.411   3.134   3.385 -1.4886 -0.8883 -0.5742
 3284SOL    HW210142   3.306   3.250   3.338  2.1963  2.9161 -0.0925
 3285SOL     OW10143   3.002   3.508   3.638 -0.0993 -0.6116 -0.4341
 3285SOL    HW110144   3.056   3.472   3.715  0.8027 -0.5624 -1.0337
 3285SOL    HW210145   3.062   3.526   3.561 -0.8145  0.4893 -0.7560
 3286SOL     OW10146   2.183   3.571   5.657  0.1910  0.5374 -0.0373
 3286SOL    HW110147   2.242   3.547   5.734  0.7267  0.4765 -0.4597
 3286SOL    HW210148   2.112   3.502   5.647  0.2078  0.4650  0.3088
 3287SOL     OW10149   4.847   3.872   4.827  0.3346 -0.1081  0.2651
 3287SOL    HW110150   4.946   3.860   4.818  0.2711 -1.3883  1.0655
 3287SOL    HW210151   4.809   3.798   4.881 -1.3579 -0.7286 -1.6416
 3288SOL     OW10152   2.295   1.671   3.996 -0.2553 -0.3065 -0.3464
 3288SOL    HW110153   2.239   1.590   3.981 -0.6962 -0.0905  0.1084
 3288SOL    HW210154   2.257   1.725   4.071 -0.7670  1.0439 -1.5398
 3289SOL     OW10155   2.022   4.095   2.801  0.3217 -0.1325 -0.0417
 3289SOL    HW110156   2.008   4.077   2.703  2.5195 -0.9720 -0.2685
 3289SOL    HW210157   1.936   4.124   2.842 -0.7177  0.0310 -2.1723
 3290SOL     OW10158   4.576   2.713   3.089  0.4813 -0.3809 -0.0541
 3290SOL    HW110159   4.578   2.777   3.166  1.2639  0.9136 -1.1049
 3290SOL    HW210160   4.524   2.632   3.115 -2.4980  1.5911  0.6566
 3291SOL     OW10161   3.735   3.482   4.747 -0.2428  0.4852 -0.0973
 3291SOL    HW110162   3.810   3.509   4.687 -0.5848  0.1490 -0.6779
 3291SOL    HW210163   3.663   3.551   4.742 -1.0997 -0.4706 -1.5499
 3292SOL     OW10164   1.692   1.257   0.489 -0.1059  0.1851 -0.0852
 3292SOL    HW110165   1.707   1.338   0.546  2.3486  0.6592 -1.2777
 3292SOL    HW210166   1.701   1.175   0.546 -0.2906  0.6727  0.6736
 3293SOL     OW10167   4.236   4.208   4.231 -0.1819 -0.1482 -0.4496
 3293SOL    HW110168   4.211   4.296   4.271 -0.1695 -0.0805 -0.5871
 3293SOL    HW210169   4.268   4.223   4.137  1.5022 -0.0898  0.1031
 3294SOL     OW10170   3.882   4.005   4.012 -0.0283  0.3510 -0.3872
 3294SOL    HW110171   3.906   4.041   4.103 -1.4227  2.5215 -0.8107
 3294SOL    HW210172   3.864   4.081   3.950  0.8569 -1.0970 -2.5235
 3295SOL     OW10173   2.466   2.707   5.205  0.1766  0.1127 -0.2754
 3295SOL    HW110174   2.544   2.769   5.203 -0.3328  0.8033  0.6405
 3295SOL    HW210175   2.484   2.629   5.145  1.1716  0.7253 -0.8019
 3296SOL     OW10176   4.485   3.830   4.425 -0.1449 -0.2788  0.1346
 3296SOL    HW110177   4.478   3.786   4.336 -0.8224  2.1807 -1.1198
 3296SOL    HW210178   4.525   3.766   4.491 -0.4050 -2.4481 -1.6876
 3297SOL     OW10179   2.808   3.067   4.410  0.5312  0.5200  0.8275
 3297SOL    HW110180   2.860   3.110   4.337  0.5611  1.3072  1.3019
 3297SOL    HW210181   2.854   2.983   4.439  2.8289  2.3356  2.7779
 3298SOL     OW10182   3.012   2.695   5.594  0.0366 -0.1266 -0.6350
 3298SOL    HW110183   3.039   2.614   5.646 -2.5637 -1.0520 -0.5321
 3298SOL    HW210184   3.001   2.772   5.656  0.2601 -0.3226 -0.3496
 3299SOL     OW10185   4.855   3.346   5.460  0.2998  0.3384  0.4686
 3299SOL    HW110186   4.787   3.419   5.470 -1.8930 -1.1433 -2.1918
 3299SOL    HW210187   4.907   3.361   5.377 -0.6234 -1.3694 -0.4703
 3300SOL     OW10188   2.713   1.314   4.807  0.2284 -0.1390 -0.1173
 3300SOL    HW110189   2.703   1.282   4.712  1.8345 -0.3936 -0.2300
 3300SOL    HW210190   2.694   1.412   4.812  0.0363 -0.1437 -0.6793
 3301SOL     OW10191   1.157   5.092   4.936 -0.5649 -0.1963  0.2518
 3301SOL    HW110192   1.143   5.008   4.988 -1.5380  0.4952  1.1382
 3301SOL    HW210193   1.080   5.105   4.873 -1.0738  0.6754  1.0357
 3302SOL     OW10194   2.566   3.118   5.258  0.4923 -0.2303  0.1984
 3302SOL    HW110195   2.487   3.061   5.282 -1.3994  1.8832 -0.6192
 3302SOL    HW210196   2.573   3.194   5.324  1.5183 -0.0866 -0.0644
 3303SOL     OW10197   1.044   3.014   5.488 -0.4496 -0.1485  0.0657
 3303SOL    HW110198   0.963   3.066   5.514  0.8100  1.6213  0.6565
 3303SOL    HW210199   1.062   2.943   5.557 -0.5555  0.5534  0.8266
 3304SOL     OW10200   3.499   0.699   4.408  0.1704 -0.6542  0.3782
 3304SOL    HW110201   3.410   0.725   4.370  0.9863 -0.7166 -1.6919
 3304SOL    HW210202   3.516   0.753   4.491  0.6095  3.7836 -2.2300
 3305SOL     OW10203   3.480   1.842   5.301  0.4435  0.5556 -0.2358
 3305SOL    HW110204   3.387   1.858   5.266 -0.5117 -1.3858  1.2046
 3305SOL    HW210205   3.488   1.881   5.393  0.8353  0.1627 -0.1013
 3306SOL     OW10206   2.906   1.930   4.957 -0.0375  0.2726  0.1815
 3306SOL    HW110207   2.991   1.965   4.995 -0.2661 -0.2763  1.2252
 3306SOL    HW210208   2.906   1.944   4.858  0.3948  2.0797  0.4018
 3307SOL     OW10209   1.232   0.924   4.811 -0.0825  0.1873 -0.2463
 3307SOL    HW110210   1.246   0.940   4.714 -2.3943  0.9977 -0.5017
 3307SOL    HW210211   1.189   1.004   4.853  2.6433  0.6735  1.9349
 3308SOL     OW10212   3.713   2.958   3.924  0.1650 -0.2571 -0.0131
 3308SOL    HW110213   3.713   2.889   3.851  1.8221 -1.3273  0.9259
 3308SOL    HW210214   3.738   3.047   3.885  1.1967 -0.8410 -0.7466
 3309SOL     OW10215   2.739   3.541   4.681 -0.3559  0.2106 -0.6981
 3309SOL    HW110216   2.689   3.613   4.730 -1.7074 -0.3201 -1.2324
 3309SOL    HW210217   2.698   3.452   4.703  0.7116 -0.3102 -0.7497
 3310SOL     OW10218   1.987   3.358   5.828  0.0403 -0.5473  0.7004
 3310SOL    HW110219   1.947   3.285   5.883 -0.6373 -0.8846 -0.2150
 3310SOL    HW210220   1.992   3.330   5.732 -0.5600  0.7164  0.2696
 3311SOL     OW10221   3.944   3.820   5.571 -0.1191 -0.2968  0.5819
 3311SOL    HW110222   3.921   3.743   5.512 -2.1578  0.3140  0.5296
 3311SOL    HW210223   3.933   3.906   5.521 -0.2732  0.1433  1.3549
 3312SOL     OW10224   3.390   3.844   3.602  0.1893  0.1125  0.2981
 3312SOL    HW110225   3.404   3.904   3.523  1.4770  0.9084  1.1114
 3312SOL    HW210226   3.312   3.784   3.584 -0.8003  1.6413 -0.7542
 3313SOL     OW10227   1.701   1.845   0.757  0.2626  0.2844 -0.1269
 3313SOL    HW110228   1.613   1.799   0.744  1.7768 -2.9880 -0.0682
 3313SOL    HW210229   1.722   1.900   0.676 -0.7304 -0.9583 -1.2859
 3314SOL     OW10230   0.203   2.678   5.708 -0.0354  0.1797  0.0242
 3314SOL    HW110231   0.206   2.590   5.755 -1.2858  0.2779  0.3456
 3314SOL    HW210232   0.295   2.704   5.679  0.3337 -1.3141 -0.2535
 3315SOL     OW10233   3.162   4.537   4.061 -0.5452 -0.0529  0.3122
 3315SOL    HW110234   3.192   4.627   4.028 -0.4345 -0.7369 -1.5751
 3315SOL    HW210235   3.066   4.523   4.038 -0.2593 -0.8591 -0.4270
 3316SOL     OW10236   1.722   1.295   4.601 -0.1377 -0.2868  1.3246
 3316SOL    HW110237   1.700   1.385   4.564  0.2732 -1.0028 -0.7967
 3316SOL    HW210238   1.660   1.275   4.677 -2.0103  0.7351  0.1751
 3317SOL     OW10239   3.698   1.953   3.732  0.5776 -0.3383 -0.1958
 3317SOL    HW110240   3.606   1.934   3.766  0.1761  1.1607 -0.3354
 3317SOL    HW210241   3.739   1.870   3.696 -0.5623 -1.1150  0.2564
 3318SOL     OW10242   4.004   3.821   5.845  0.0161  0.4182  0.2212
 3318SOL    HW110243   3.970   3.808   5.752  0.3650 -1.5922  0.3159
 3318SOL    HW210244   4.053   3.908   5.851  0.7140  0.2184 -1.7201
 3319SOL     OW10245   3.483   1.974   4.840  0.3741 -0.0345 -0.6782
 3319SOL    HW110246   3.463   1.912   4.915 -1.0254  0.3635 -0.6856
 3319SOL    HW210247   3.524   2.058   4.876 -0.0747  0.0599 -0.3775
 3320SOL     OW10248   2.580   3.029   4.947  0.6517  0.4373 -0.1661
 3320SOL    HW110249   2.580   2.991   5.040  1.3787  2.1370  0.5778
 3320SOL    HW210250   2.510   2.984   4.892 -0.4214  0.0202  1.4848
 3321SOL     OW10251   1.990   3.635   3.889 -0.7086 -0.3020 -0.3676
 3321SOL    HW110252   1.979   3.718   3.944  1.6537 -0.5166  0.5690
 3321SOL    HW210253   2.050   3.654   3.812  3.5630 -1.9132  2.2325
 3322SOL     OW10254   3.452   1.615   2.146 -0.3378  0.0255  0.2559
 3322SOL    HW110255   3.483   1.682   2.215 -0.2594  0.6613 -0.3888
 3322SOL    HW210256   3.462   1.655   2.055  2.1898 -1.7926 -0.3722
 3323SOL     OW10257   2.419   5.083   3.450  0.3521  0.7187 -0.3783
 3323SOL    HW110258   2.504   5.062   3.500 -0.6808 -1.2266  0.6821
 3323SOL    HW210259   2.437   5.081   3.352  0.9902 -2.6972 -0.2989
 3324SOL     OW10260   0.938   3.931   3.858  0.1690  0.2045 -0.0161
 3324SOL    HW110261   0.848   3.919   3.819  0.9205 -2.3096 -1.1498
 3324SOL    HW210262   0.978   4.017   3.825 -0.9976  0.3504 -1.0942
 3325SOL     OW10263   2.156   4.654   3.647  0.4031  0.0067 -0.0452
 3325SOL    HW110264   2.233   4.706   3.612 -0.1028  0.9457  0.1997
 3325SOL    HW210265   2.072   4.681   3.599  0.0324 -0.1160  0.5160
 3326SOL     OW10266   2.744   1.799   0.488  0.0295  0.4759 -0.0850
 3326SOL    HW110267   2.663   1.744   0.470  0.3800  0.4621 -1.7403
 3326SOL    HW210268   2.773   1.786   0.583 -2.7531  1.6294  1.0334
 3327SOL     OW10269   2.049   3.010   5.436 -0.3192  0.5619  0.0782
 3327SOL    HW110270   2.078   3.091   5.386  1.1118  1.2690  1.9205
 3327SOL    HW210271   1.949   3.003   5.434 -0.5427  2.8854  0.6186
 3328SOL     OW10272   3.321   1.254   5.124  0.2939 -0.0758 -0.0379
 3328SOL    HW110273   3.302   1.315   5.047  0.4552 -1.3171 -1.0842
 3328SOL    HW210274   3.419   1.255   5.143 -0.0776  3.0422  2.6001
 3329SOL     OW10275   2.229   5.013   4.183  0.6974  0.1243  0.1474
 3329SOL    HW110276   2.131   5.002   4.168  0.8811  0.1345 -1.2367
 3329SOL    HW210277   2.268   4.925   4.212  0.6028 -0.4740 -1.4093
 3330SOL     OW10278   4.551   2.539   3.435  0.0799  0.3625 -0.4858
 3330SOL    HW110279   4.524   2.628   3.472  2.3774  0.0926  2.2563
 3330SOL    HW210280   4.518   2.466   3.495  1.3063 -0.3356 -0.6048
 3331SOL     OW10281   2.437   1.926   2.687 -0.2640 -0.1841  0.4385
 3331SOL    HW110282   2.394   1.856   2.630 -1.2238  1.4173 -0.8792
 3331SOL    HW210283   2.481   1.995   2.629 -0.2038  0.8506  1.6708
 3332SOL     OW10284   2.163   1.207   1.742 -0.3395  0.3322 -0.3586
 3332SOL    HW110285   2.156   1.179   1.647  0.8704  1.4817 -0.8129
 3332SOL    HW210286   2.149   1.128   1.802 -4.0914  0.0798 -1.3507
 3333SOL     OW10287   4.668   2.646   4.699  0.1738  0.4980 -0.1265
 3333SOL    HW110288   4.598   2.679   4.762 -0.3118 -0.4123 -0.1789
 3333SOL    HW210289   4.644   2.671   4.606  0.5505  1.2522 -0.0318
 3334SOL     OW10290   3.897   0.878   4.381 -0.0342 -0.5992 -0.1808
 3334SOL    HW110291   3.900   0.819   4.462  0.8044 -0.3280 -0.0037
 3334SOL    HW210292   3.980   0.864   4.327 -0.4423 -0.5384 -0.8309
 3335SOL     OW10293   1.690   2.749   0.127  0.2529 -0.0491 -0.5900
 3335SOL    HW110294   1.750   2.772   0.050 -0.4599 -1.0736 -1.4798
 3335SOL    HW210295   1.682   2.828   0.187  2.0539  0.2914 -0.7251
 3336SOL     OW10296   5.518   4.632   4.060  0.1732 -0.2743 -0.1652
 3336SOL    HW110297   5.615   4.639   4.035  0.3810  0.9552  0.8800
 3336SOL    HW210298   5.474   4.720   4.045 -0.3174 -0.2624  1.2023
 3337SOL     OW10299   3.642   2.723   3.361 -0.6155 -0.3116 -0.6093
 3337SOL    HW110300   3.645   2.807   3.307  0.2755 -0.2317 -0.4583
 3337SOL    HW210301   3.547   2.694   3.373 -1.1062  1.6405  0.8091
 3338SOL     OW10302   1.312   1.224   4.405 -0.0217  0.4991  0.1068
 3338SOL    HW110303   1.246   1.293   4.377  0.1114  0.2984 -0.7287
 3338SOL    HW210304   1.397   1.237   4.354  0.8060  1.1111  1.5702
 3339SOL     OW10305   2.152   2.303   0.107 -0.1981 -0.1418 -0.3217
 3339SOL    HW110306   2.171   2.283   0.011  0.2536  2.3720 -0.8078
 3339SOL    HW210307   2.236   2.294   0.160  0.1747  1.1039 -0.6738
 3340SOL     OW10308   2.547   1.620   0.395 -0.2933  0.4892 -0.5288
 3340SOL    HW110309   2.526   1.582   0.486  1.5924 -0.5974 -0.4982
 3340SOL    HW210310   2.483   1.583   0.328 -1.1796  0.6445  0.2108
 3341SOL     OW10311   4.167   0.673   5.345 -0.5149  0.4460  0.2248
 3341SOL    HW110312   4.089   0.705   5.398  0.8720  1.1586  1.9145
 3341SOL    HW210313   4.214   0.751   5.305  1.1942  0.3741  1.9540
 3342SOL     OW10314   4.266   1.882   4.406  0.0976 -0.2175 -0.0339
 3342SOL    HW110315   4.246   1.980   4.414  1.6261  0.0609  0.7268
 3342SOL    HW210316   4.286   1.860   4.310 -1.3401 -0.0375 -0.4007
 3343SOL     OW10317   2.223   2.708   5.317 -0.4376  0.0962 -0.5465
 3343SOL    HW110318   2.323   2.703   5.309 -0.2733  1.8412 -0.1259
 3343SOL    HW210319   2.181   2.648   5.249  0.8767 -1.9320  0.3349
 3344SOL     OW10320   4.280   2.291   5.637  0.2403 -0.1532 -0.7479
 3344SOL    HW110321   4.322   2.254   5.721 -1.1086 -0.6361 -0.2674
 3344SOL    HW210322   4.340   2.362   5.600 -0.5760  2.4824  2.4616
 3345SOL     OW10323   1.644   2.751   2.897  0.2584  0.4191 -0.6205
 3345SOL    HW110324   1.645   2.755   2.997  0.2010 -1.7241 -0.4814
 3345SOL    HW210325   1.604   2.665   2.867 -0.3376  1.3020 -2.5342
 3346SOL     OW10326   3.182   1.839   4.494 -0.1869 -0.3038  0.4138
 3346SOL    HW110327   3.089   1.803   4.488 -0.8483  1.5505 -1.5445
 3346SOL    HW210328   3.178   1.934   4.526  0.8310  0.3581 -1.3054
 3347SOL     OW10329   3.337   2.582   3.776 -0.3962  0.1873  0.8213
 3347SOL    HW110330   3.330   2.678   3.748  0.2905  0.1225  0.4193
 3347SOL    HW210331   3.396   2.575   3.857  1.1848 -0.0927 -0.3069
 3348SOL     OW10332   2.358   1.738   2.516 -0.1153 -0.4420  0.3605
 3348SOL    HW110333   2.392   1.721   2.423  0.4216 -1.7206  0.7688
 3348SOL    HW210334   2.262   1.710   2.522  0.5934 -2.9112  0.8649
 3349SOL     OW10335   1.450   2.332   4.909  0.1380  0.2859  0.9485
 3349SOL    HW110336   1.421   2.238   4.920  0.2337  0.1783  0.2872
 3349SOL    HW210337   1.545   2.341   4.939  0.2002  0.1300  0.7938
 3350SOL     OW10338   2.385   3.380   5.004  0.4215  0.4310  0.1182
 3350SOL    HW110339   2.329   3.298   5.002 -0.7935  1.2098  1.0032
 3350SOL    HW210340   2.468   3.366   4.949  1.2809 -2.0892  1.8913
 3351SOL     OW10341   3.761   2.761   4.752  0.7676 -0.1195 -0.1235
 3351SOL    HW110342   3.746   2.842   4.695 -0.5654 -1.9523 -2.6055
 3351SOL    HW210343   3.792   2.685   4.694 -1.3712 -2.3258  1.4313
 3352SOL     OW10344   2.578   2.802   4.590  0.3124  0.0832  0.4928
 3352SOL    HW110345   2.600   2.707   4.613  0.1498  0.0965  0.7015
 3352SOL    HW210346   2.534   2.846   4.668 -1.9597 -0.4200 -0.4092
 3353SOL     OW10347   3.995   1.422   4.196  0.6087 -0.2686  0.6728
 3353SOL    HW110348   3.990   1.521   4.193 -1.3524 -0.3515 -1.6903
 3353SOL    HW210349   3.908   1.385   4.231  1.0101 -1.1781  0.7520
 3354SOL     OW10350   2.583   1.010   0.074 -0.5331  0.2836 -0.8695
 3354SOL    HW110351   2.643   0.937   0.106 -0.4899  0.6903  0.0005
 3354SOL    HW210352   2.525   1.041   0.149  0.2084  1.8816 -0.9082
 3355SOL     OW10353   2.121   1.322   0.389 -0.4120  0.0783 -0.5127
 3355SOL    HW110354   2.151   1.320   0.485  0.1110  1.9683 -0.5908
 3355SOL    HW210355   2.080   1.234   0.365 -0.0319 -0.6337  1.2714
 3356SOL     OW10356   2.600   2.654   3.762  0.0971 -0.2512  0.4647
 3356SOL    HW110357   2.613   2.607   3.849 -0.4026 -2.4290 -0.5825
 3356SOL    HW210358   2.539   2.601   3.704  0.1739  1.3072 -1.1288
 3357SOL     OW10359   0.519   3.480   2.975 -0.1270 -0.1625  0.1603
 3357SOL    HW110360   0.613   3.506   2.954 -0.1145 -0.5190 -0.2346
 3357SOL    HW210361   0.471   3.558   3.015 -0.0745  0.4496 -0.9467
 3358SOL     OW10362   4.360   2.207   5.124 -0.0912  0.0049  0.5321
 3358SOL    HW110363   4.287   2.160   5.074  3.1887 -2.5639 -2.3229
 3358SOL    HW210364   4.340   2.203   5.222 -2.6576 -2.6928  0.0647
 3359SOL     OW10365   2.124   3.696   3.679 -0.1698  0.7459  0.2517
 3359SOL    HW110366   2.125   3.794   3.657 -0.6591  0.4588 -1.1731
 3359SOL    HW210367   2.202   3.652   3.634 -0.7496  0.2669 -0.3059
 3360SOL     OW10368   1.966   3.242   3.016  0.0937  0.8803 -0.1594
 3360SOL    HW110369   1.941   3.147   3.036 -1.3620  1.0239 -1.1492
 3360SOL    HW210370   1.952   3.297   3.099 -0.7109  0.5249 -0.0440
 3361SOL     OW10371   2.288   1.043   4.935 -0.2686  0.4756  0.2182
 3361SOL    HW110372   2.370   1.101   4.935 -0.3322  0.5712  0.5821
 3361SOL    HW210373   2.315   0.948   4.950 -0.2569  0.5644  0.7853
 3362SOL     OW10374   5.334   3.747   5.580 -0.8557 -0.3572 -0.0930
 3362SOL    HW110375   5.413   3.763   5.522  1.0196 -1.0869  2.1109
 3362SOL    HW210376   5.308   3.650   5.575 -0.8557 -0.3667  0.0780
 3363SOL     OW10377   1.463   2.457   5.564 -0.2612  0.3618  0.0410
 3363SOL    HW110378   1.526   2.460   5.642  2.5173 -2.0587 -1.8752
 3363SOL    HW210379   1.497   2.517   5.491 -0.0407 -1.0332 -1.0527
 3364SOL     OW10380   3.327   0.926   2.821 -0.5062  0.4546 -0.1971
 3364SOL    HW110381   3.293   0.832   2.818 -0.5215  0.4877 -1.4362
 3364SOL    HW210382   3.268   0.980   2.881 -0.9263 -0.1584 -0.0450
 3365SOL     OW10383   2.341   2.755   4.355 -0.0904  0.8604 -0.3961
 3365SOL    HW110384   2.420   2.726   4.302  0.4225  1.2966  0.1195
 3365SOL    HW210385   2.362   2.839   4.404  0.5068 -0.9528  2.7916
 3366SOL     OW10386   4.447   2.958   4.510  0.0088 -0.6575  0.5142
 3366SOL    HW110387   4.439   3.032   4.576  0.0720 -0.3382  0.1657
 3366SOL    HW210388   4.395   2.981   4.428  0.0796 -0.9713  0.3800
 3367SOL     OW10389   2.326   3.376   5.376  0.2219 -0.3873  0.4030
 3367SOL    HW110390   2.347   3.395   5.472  1.4682 -1.2076  0.3142
 3367SOL    HW210391   2.410   3.383   5.322 -0.1679 -1.4656 -0.3699
 3368SOL     OW10392   2.311   1.264   5.680 -0.6508 -0.1533  0.3488
 3368SOL    HW110393   2.332   1.360   5.699  0.6467 -0.4088  0.3026
 3368SOL    HW210394   2.379   1.206   5.726 -1.6507 -1.0728  0.7073
 3369SOL     OW10395   4.604   2.713   5.671 -0.6181  0.2831  0.0389
 3369SOL    HW110396   4.553   2.799   5.663  1.2064  1.3864 -0.3277
 3369SOL    HW210397   4.672   2.722   5.743 -1.8304 -1.6647  1.5080
 3370SOL     OW10398   3.643   3.481   3.954 -0.0064  0.1647  0.0425
 3370SOL    HW110399   3.655   3.413   4.027  0.2835  1.2352  1.0196
 3370SOL    HW210400   3.692   3.451   3.872 -0.2191 -0.9920  0.3175
 3371SOL     OW10401   3.806   3.315   4.119  0.0202  0.5810 -0.4379
 3371SOL    HW110402   3.855   3.304   4.033 -0.7615  0.0947 -0.8342
 3371SOL    HW210403   3.862   3.367   4.183  0.1257  2.0464 -1.6493
 3372SOL     OW10404   3.068   2.689   3.530  0.3557  0.2353 -0.4722
 3372SOL    HW110405   3.062   2.593   3.504 -0.3783 -0.2608  1.3851
 3372SOL    HW210406   2.993   2.712   3.592  0.9108  1.8378 -0.3313
 3373SOL     OW10407   2.484   1.090   5.789 -1.0682 -0.5087  0.0465
 3373SOL    HW110408   2.530   1.071   5.875 -0.3531 -0.5356 -0.3298
 3373SOL    HW210409   2.550   1.087   5.714 -1.3646  1.0771 -0.3240
 3374SOL     OW10410   1.205   1.963   5.811 -0.3312  0.2350 -0.2946
 3374SOL    HW110411   1.158   2.012   5.738 -1.2142 -1.3331 -0.8237
 3374SOL    HW210412   1.160   1.982   5.898 -1.2227 -0.3044 -0.6225
 3375SOL     OW10413   3.395   1.517   4.608 -0.3379  0.2015 -0.0878
 3375SOL    HW110414   3.427   1.438   4.557 -1.4439 -0.9978  1.0213
 3375SOL    HW210415   3.303   1.542   4.577 -1.3634 -1.0469  1.8064
 3376SOL     OW10416   3.461   2.682   0.329 -0.0063  0.0248 -0.3009
 3376SOL    HW110417   3.503   2.741   0.259 -0.3134 -0.3757 -0.8297
 3376SOL    HW210418   3.490   2.588   0.314  1.1087  0.1279  1.0088
 3377SOL     OW10419   2.271   1.039   3.521  0.1977  0.2257 -0.0764
 3377SOL    HW110420   2.269   1.067   3.617  1.2725 -1.2627  0.4142
 3377SOL    HW210421   2.200   1.088   3.471 -0.3042  1.1254  1.4398
 3378SOL     OW10422   3.288   2.812   3.641 -0.3710  0.3482 -0.0400
 3378SOL    HW110423   3.222   2.750   3.598 -0.6804  0.8171 -0.2572
 3378SOL    HW210424   3.240   2.873   3.704 -0.0244  0.1668  0.3972
 3379SOL     OW10425   0.377   2.523   5.246 -0.1638 -0.1892  0.2647
 3379SOL    HW110426   0.305   2.544   5.312  0.2817 -1.5712  1.2477
 3379SOL    HW210427   0.466   2.526   5.293  0.3905  0.9705 -0.8044
 3380SOL     OW10428   2.518   5.135   4.971 -0.0088 -0.1055  0.0156
 3380SOL    HW110429   2.552   5.086   4.891  0.9421 -3.3128  2.2015
 3380SOL    HW210430   2.418   5.140   4.967  0.0007 -0.5064 -1.2008
 3381SOL     OW10431   4.208   3.666   5.711  0.7067 -0.2128  0.0791
 3381SOL    HW110432   4.141   3.735   5.739 -0.5024 -1.0634 -0.5951
 3381SOL    HW210433   4.292   3.677   5.764 -0.8677 -0.7391  2.8974
 3382SOL     OW10434   2.028   2.873   5.158  0.0306  0.0400  0.1484
 3382SOL    HW110435   2.021   2.774   5.140  3.8012 -0.1086 -1.3025
 3382SOL    HW210436   2.058   2.887   5.252  1.7350 -0.3986 -0.2901
 3383SOL     OW10437   2.886   2.369   3.954 -0.2710 -0.2391  0.0025
 3383SOL    HW110438   2.933   2.395   4.039  0.7704  0.2379 -0.7045
 3383SOL    HW210439   2.948   2.381   3.877 -1.5275  0.2931 -0.9519
 3384SOL     OW10440   3.976   3.393   3.603 -0.0040  0.2430  0.2555
 3384SOL    HW110441   3.961   3.309   3.551  0.2445 -0.6695  1.6145
 3384SOL    HW210442   4.071   3.396   3.635 -0.1106  0.8566  0.5382
 3385SOL     OW10443   2.965   2.987   5.151  0.1298 -0.2269  0.0327
 3385SOL    HW110444   2.971   2.934   5.066 -0.7326  1.7758 -1.3706
 3385SOL    HW210445   3.052   3.032   5.169 -0.0745  0.3842 -0.5110
 3386SOL     OW10446   1.583   1.029   0.603  0.5765  0.2739 -0.0072
 3386SOL    HW110447   1.645   0.987   0.537  0.2691  0.7918 -0.6372
 3386SOL    HW210448   1.598   0.988   0.693 -0.8963 -2.4802 -0.8694
 3387SOL     OW10449   1.094   2.658   5.188 -0.4126  0.0714 -0.0388
 3387SOL    HW110450   1.143   2.596   5.128 -0.7764  0.0261 -0.2933
 3387SOL    HW210451   1.133   2.654   5.280  0.0048 -0.0205 -0.2176
 3388SOL     OW10452   2.629   1.465   5.621  0.1882  0.4196 -0.5554
 3388SOL    HW110453   2.696   1.508   5.681 -2.0307  0.0669  2.4029
 3388SOL    HW210454   2.640   1.366   5.624  0.7899  0.4312 -1.7311
 3389SOL     OW10455   1.920   1.259   5.497  0.6268 -0.4093 -0.2808
 3389SOL    HW110456   1.977   1.194   5.548 -1.6886 -2.0526  0.4002
 3389SOL    HW210457   1.903   1.339   5.554 -1.5369 -2.0109  1.5481
 3390SOL     OW10458   2.369   3.355   2.659  0.8597  0.1061 -0.5813
 3390SOL    HW110459   2.300   3.338   2.730  0.9821 -1.2846 -0.7598
 3390SOL    HW210460   2.366   3.451   2.631 -0.5717  0.2154 -0.1300
 3391SOL     OW10461   2.116   3.173   3.959  0.2639  0.4565  0.0484
 3391SOL    HW110462   2.182   3.166   3.884 -0.5613  3.2557 -1.0688
 3391SOL    HW210463   2.121   3.264   3.999 -1.4008 -0.0103  1.4440
 3392SOL     OW10464   3.564   4.231   4.228 -0.0346  0.0085  0.2357
 3392SOL    HW110465   3.505   4.304   4.193  1.7790  1.0432 -0.8307
 3392SOL    HW210466   3.556   4.150   4.170 -2.7225 -1.0711  1.9228
 3393SOL     OW10467   4.560   2.254   3.508 -0.3833 -0.3593 -0.8268
 3393SOL    HW110468   4.541   2.240   3.605 -0.0315 -1.5766 -0.9101
 3393SOL    HW210469   4.650   2.217   3.487  0.5544  1.9853 -1.1718
 3394SOL     OW10470   1.218   2.366   0.166 -0.3398  0.3656 -0.2206
 3394SOL    HW110471   1.296   2.327   0.118  0.4219  2.0709 -0.4610
 3394SOL    HW210472   1.140   2.304   0.161  0.0651 -0.0329 -2.6689
 3395SOL     OW10473   1.369   1.161   5.913  0.0190 -0.6727  0.0716
 3395SOL    HW110474   1.374   1.216   5.997 -2.1490 -0.1522 -0.0842
 3395SOL    HW210475   1.457   1.165   5.866  0.5041  1.1351  1.0196
 3396SOL     OW10476   4.222   1.087   4.758 -0.6549  0.2406 -0.0500
 3396SOL    HW110477   4.250   1.183   4.763 -2.1942  0.6759  0.7618
 3396SOL    HW210478   4.122   1.081   4.758 -0.6257 -1.4399  2.0405
 3397SOL     OW10479   3.043   0.480   3.150  0.0860 -0.4020 -0.1739
 3397SOL    HW110480   3.092   0.530   3.221  0.2012 -0.8570  0.0734
 3397SOL    HW210481   2.983   0.543   3.101  0.5699  0.0687 -0.1754
 3398SOL     OW10482   4.265   2.571   0.121  0.0342 -0.7004  0.6807
 3398SOL    HW110483   4.341   2.521   0.161 -0.6514 -1.8072  0.6424
 3398SOL    HW210484   4.216   2.621   0.192 -0.0260 -1.1129  0.9346
 3399SOL     OW10485   2.771   3.721   4.481  0.4878 -0.1104  0.4852
 3399SOL    HW110486   2.740   3.685   4.569 -1.6800 -0.9413 -0.5388
 3399SOL    HW210487   2.798   3.646   4.422 -1.0954  0.1217 -0.6049
 3400SOL     OW10488   1.419   2.209   4.504  0.3864 -0.9521  0.1014
 3400SOL    HW110489   1.415   2.245   4.411  0.9866 -1.6893 -0.2160
 3400SOL    HW210490   1.456   2.279   4.565  2.4460 -1.3078 -0.6677
 3401SOL     OW10491   2.933   3.157   4.175  0.6465 -0.0336  0.0674
 3401SOL    HW110492   2.892   3.219   4.108  1.3830  0.3209 -0.0521
 3401SOL    HW210493   2.948   3.068   4.132 -1.2194 -0.6013  0.4773
 3402SOL     OW10494   1.523   2.269   0.664  0.1285 -0.5969  0.5693
 3402SOL    HW110495   1.485   2.361   0.663 -0.4673 -0.7640 -2.3999
 3402SOL    HW210496   1.485   2.218   0.741 -0.1615  1.3503  1.7877
 3403SOL     OW10497   2.396   2.039   0.671  0.2519  0.0933 -0.2803
 3403SOL    HW110498   2.342   2.057   0.753 -1.1941 -1.3137 -0.8611
 3403SOL    HW210499   2.492   2.026   0.696  0.1928  1.6818  0.8983
 3404SOL     OW10500   3.681   0.885   4.883  0.6677 -0.0513  0.0743
 3404SOL    HW110501   3.720   0.820   4.949  2.9752  0.6398 -0.5195
 3404SOL    HW210502   3.741   0.965   4.876 -0.9648  1.1295 -0.8667
 3405SOL     OW10503   2.959   0.133   0.032 -0.2946 -0.2158 -0.2235
 3405SOL    HW110504   2.926   0.212   0.084  2.3259  1.0258 -0.3007
 3405SOL    HW210505   2.974   0.056   0.095 -2.0424 -0.4293 -0.0190
 3406SOL     OW10506   3.259   2.930   3.886  0.3793 -0.1021 -0.3097
 3406SOL    HW110507   3.283   2.857   3.951  1.1747  0.1663 -0.2937
 3406SOL    HW210508   3.326   3.004   3.893 -0.5285  0.7193 -0.1989
 3407SOL     OW10509   1.272   2.808   4.029 -0.2553 -0.1488 -0.0258
 3407SOL    HW110510   1.214   2.816   4.110 -0.1770 -0.6966  0.0815
 3407SOL    HW210511   1.224   2.850   3.951 -0.0083  1.0693  0.4497
 3408SOL     OW10512   4.229   3.864   0.591 -0.1479  0.7228  0.0464
 3408SOL    HW110513   4.133   3.870   0.621 -0.6978 -1.1644 -1.1870
 3408SOL    HW210514   4.287   3.842   0.670 -1.0165 -0.1708  0.4666
 3409SOL     OW10515   3.710   2.332   3.909  0.1072  0.3012 -0.7100
 3409SOL    HW110516   3.638   2.285   3.959  0.6689  0.6292  0.4456
 3409SOL    HW210517   3.792   2.339   3.967  1.0267  0.0514 -1.9378
 3410SOL     OW10518   4.757   3.222   2.194 -0.3115  0.6123 -0.3713
 3410SOL    HW110519   4.667   3.249   2.161 -0.7498 -0.3720 -0.0212
 3410SOL    HW210520   4.822   3.297   2.178 -0.7172  0.5858 -2.4976
 3411SOL     OW10521   1.337   2.725   4.899 -0.6615 -0.2109  0.0313
 3411SOL    HW110522   1.383   2.664   4.962  0.4521  1.6178  1.0702
 3411SOL    HW210523   1.303   2.805   4.948 -2.3012 -0.0729 -1.2359
 3412SOL     OW10524   3.219   2.096   4.202  0.4741 -1.0607  0.0905
 3412SOL    HW110525   3.185   2.136   4.117  0.4552 -0.1109  0.5314
 3412SOL    HW210526   3.293   2.032   4.181  1.3165  0.0829 -0.5716
 3413SOL     OW10527   2.509   1.564   0.653  0.0809  0.5473  0.4027
 3413SOL    HW110528   2.564   1.643   0.680 -1.0605  1.0035  1.4294
 3413SOL    HW210529   2.518   1.492   0.721 -0.7571  0.7033  0.6800
 3414SOL     OW10530   2.250   3.428   3.726 -0.5920  0.1926 -0.1762
 3414SOL    HW110531   2.221   3.332   3.719 -0.7369  0.2351 -0.1430
 3414SOL    HW210532   2.255   3.454   3.823  1.0143 -0.2703 -0.0956
 3415SOL     OW10533   3.401   3.235   1.231 -0.4615  0.0868  0.5031
 3415SOL    HW110534   3.317   3.242   1.179  0.1671 -1.4532 -0.7997
 3415SOL    HW210535   3.445   3.325   1.236 -1.6026  0.6732  0.2302
 3416SOL     OW10536   4.013   3.018   0.874 -0.3602  0.7420 -0.1249
 3416SOL    HW110537   4.038   3.095   0.933  1.6179 -1.2233  1.8015
 3416SOL    HW210538   4.060   3.028   0.786  2.8882  0.0786  1.3729
 3417SOL     OW10539   0.828   2.007   0.449  0.2816 -0.5236  0.3928
 3417SOL    HW110540   0.731   2.027   0.439  0.0560 -0.4500  2.4111
 3417SOL    HW210541   0.855   1.939   0.380 -0.6769  0.9152 -1.5185
 3418SOL     OW10542   1.926   2.361   0.852 -0.2820  0.4372  0.2438
 3418SOL    HW110543   1.851   2.312   0.897 -0.4482 -0.7010 -1.2088
 3418SOL    HW210544   1.895   2.394   0.762  1.0223 -0.2789 -0.4964
 3419SOL     OW10545   2.356   3.168   3.782  0.4667  0.2708  0.8537
 3419SOL    HW110546   2.322   3.090   3.730  0.1345  1.3364 -0.5804
 3419SOL    HW210547   2.395   3.236   3.720 -0.8104  2.0304  1.8858
 3420SOL     OW10548   2.631   3.305   4.786 -0.1526 -0.1143  0.0386
 3420SOL    HW110549   2.623   3.245   4.707 -1.0655  0.2455 -0.1507
 3420SOL    HW210550   2.641   3.249   4.869 -1.8476 -0.5846 -0.0305
 3421SOL     OW10551   2.771   2.251   4.251 -0.2463  0.0480  0.0590
 3421SOL    HW110552   2.792   2.217   4.343  0.9244 -2.9695 -1.1956
 3421SOL    HW210553   2.678   2.287   4.249 -0.5652 -0.5253  2.2287
 3422SOL     OW10554   3.119   2.436   5.262 -0.1298 -0.4539  0.1040
 3422SOL    HW110555   3.057   2.380   5.318 -2.5281  0.8538 -1.1192
 3422SOL    HW210556   3.154   2.511   5.317  0.1235 -1.0007  0.7091
 3423SOL     OW10557   2.750   4.265   0.415 -0.3160  0.6584  0.0404
 3423SOL    HW110558   2.778   4.221   0.330  0.0144  2.3382 -0.7732
 3423SOL    HW210559   2.746   4.364   0.401  0.0100  1.0017  2.0680
 3424SOL     OW10560   3.870   2.804   0.036 -0.2646  0.1819 -0.2418
 3424SOL    HW110561   3.939   2.740   0.003 -1.5038 -0.7459 -1.1107
 3424SOL    HW210562   3.879   2.815   0.135 -0.4347 -1.8512  0.0355
 3425SOL     OW10563   2.387   3.544   4.032  0.1209  0.5468 -0.4653
 3425SOL    HW110564   2.421   3.637   4.043  0.0953  0.4328  0.6864
 3425SOL    HW210565   2.433   3.501   3.954 -1.7180  2.3448 -2.6799
 3426SOL     OW10566   4.972   3.224   4.444  0.0351 -0.4816 -0.1360
 3426SOL    HW110567   5.045   3.260   4.502 -0.4616 -1.1192  0.9194
 3426SOL    HW210568   5.009   3.155   4.382  0.9302  1.5254 -1.9358
 3427SOL     OW10569   2.060   2.739   4.572  0.0243 -0.0531  0.0055
 3427SOL    HW110570   2.080   2.758   4.476  2.6798  2.3812  0.8958
 3427SOL    HW210571   2.091   2.646   4.595  2.4628  0.4919 -0.8100
 3428SOL     OW10572   1.695   1.470   0.068 -0.1673 -0.2620 -0.1684
 3428SOL    HW110573   1.662   1.539   0.003 -0.4028  1.0898  1.3159
 3428SOL    HW210574   1.771   1.508   0.121 -1.4511 -0.4571  1.9147
 3429SOL     OW10575   1.835   1.116   5.767 -0.1093 -0.0855  0.7846
 3429SOL    HW110576   1.847   1.059   5.685 -0.2748  0.3757  0.4373
 3429SOL    HW210577   1.924   1.148   5.799 -0.0015 -0.6634  1.0726
 3430SOL     OW10578   3.419   2.550   5.529 -0.4319  0.2243 -0.1690
 3430SOL    HW110579   3.349   2.580   5.464 -0.7893 -1.9399 -0.8335
 3430SOL    HW210580   3.503   2.528   5.480  0.3140  1.4750  0.4813
 3431SOL     OW10581   0.733   2.934   3.748  0.7255 -0.3578 -0.0238
 3431SOL    HW110582   0.644   2.920   3.704  0.3126 -0.7087  0.8908
 3431SOL    HW210583   0.756   2.853   3.802  2.2405 -0.8389 -1.3099
 3432SOL     OW10584   3.606   3.235   4.273  0.9080 -0.4121 -0.1423
 3432SOL    HW110585   3.623   3.271   4.365  0.7818  1.1271 -0.7002
 3432SOL    HW210586   3.682   3.261   4.213  0.6665 -0.8353 -0.6335
 3433SOL     OW10587   2.043   0.957   4.412  0.0744 -0.0800  0.1683
 3433SOL    HW110588   2.026   1.034   4.474 -0.9140 -1.0348  1.1224
 3433SOL    HW210589   2.131   0.915   4.435 -0.7714 -1.0984  1.6985
 3434SOL     OW10590   4.286   3.224   0.502 -0.2961 -0.4615 -0.4414
 3434SOL    HW110591   4.372   3.176   0.519 -0.5963 -0.7569  0.3012
 3434SOL    HW210592   4.288   3.265   0.412  0.4784 -0.7850 -0.5796
 3435SOL     OW10593   3.544   3.403   5.295 -0.0769  0.2536 -0.2640
 3435SOL    HW110594   3.638   3.368   5.299 -0.5102 -1.0588 -0.9433
 3435SOL    HW210595   3.546   3.498   5.264  0.9433 -0.2562 -1.9034
 3436SOL     OW10596   3.228   2.503   4.188 -0.0380  0.0515  0.0396
 3436SOL    HW110597   3.285   2.434   4.232 -0.4397  0.0657  0.5934
 3436SOL    HW210598   3.134   2.470   4.182 -0.4004  0.8513  1.0237
 3437SOL     OW10599   2.235   0.987   5.319  0.7436  0.2610 -0.2421
 3437SOL    HW110600   2.289   0.904   5.321 -0.2476 -0.4192 -0.7580
 3437SOL    HW210601   2.191   0.997   5.229  0.0968  0.8380  0.1173
 3438SOL     OW10602   1.744   1.593   5.080  0.0550 -0.6023 -0.0350
 3438SOL    HW110603   1.705   1.586   5.172  0.7954 -0.1086  0.3217
 3438SOL    HW210604   1.836   1.553   5.080  0.0420 -0.6281 -0.5696
 3439SOL     OW10605   4.612   1.658   5.113  0.0875 -0.5761  0.0446
 3439SOL    HW110606   4.560   1.672   5.197  2.8714 -3.2952  2.5137
 3439SOL    HW210607   4.633   1.561   5.103  2.0278 -0.0114 -2.4498
 3440SOL     OW10608   1.585   4.524   4.252 -0.1744 -0.2135  0.0338
 3440SOL    HW110609   1.556   4.480   4.337 -0.8495 -2.8521 -1.4684
 3440SOL    HW210610   1.546   4.616   4.247  2.7487  1.5697  4.1576
 3441SOL     OW10611   1.991   2.842   3.436 -0.3376  0.1207 -0.4117
 3441SOL    HW110612   2.070   2.902   3.449 -0.7112  0.5864 -0.2751
 3441SOL    HW210613   2.021   2.746   3.443  0.3254  0.2733 -0.9821
 3442SOL     OW10614   3.690   4.820   3.972  0.6377  0.4465  0.4030
 3442SOL    HW110615   3.692   4.912   3.932  0.6447 -0.1572 -1.0427
 3442SOL    HW210616   3.782   4.782   3.974  0.3907 -0.3146 -0.9811
 3443SOL     OW10617   1.962   2.906   4.744  0.0915 -0.3461  0.1277
 3443SOL    HW110618   1.999   2.997   4.761  0.8819 -0.6229 -0.0534
 3443SOL    HW210619   2.009   2.865   4.666  0.1439 -1.1236  0.5555
 3444SOL     OW10620   4.070   3.311   3.288  0.0375  0.0531  0.0824
 3444SOL    HW110621   4.064   3.316   3.188  1.0924  0.2592  0.0196
 3444SOL    HW210622   3.979   3.297   3.326 -0.6204  1.5356 -0.8326
 3445SOL     OW10623   2.676   3.627   5.049 -0.1902 -0.0916  0.3377
 3445SOL    HW110624   2.663   3.724   5.072 -3.5077 -0.8792  2.6551
 3445SOL    HW210625   2.633   3.609   4.960 -0.5270  0.4040  0.3888
 3446SOL     OW10626   1.177   2.641   0.079 -0.3362  0.5934  0.1399
 3446SOL    HW110627   1.081   2.669   0.083 -0.4964  0.0659  0.1295
 3446SOL    HW210628   1.182   2.541   0.084  0.1951  0.6031 -0.1326
 3447SOL     OW10629   2.191   4.026   5.896  0.0222  0.4012 -0.2897
 3447SOL    HW110630   2.161   3.948   5.952  1.5010  0.3107  0.4188
 3447SOL    HW210631   2.228   3.992   5.809  0.7249  0.2897  0.0453
 3448SOL     OW10632   2.570   1.939   3.860  0.2501  0.6830  0.1196
 3448SOL    HW110633   2.568   1.977   3.953 -1.1604  1.3682 -0.1552
 3448SOL    HW210634   2.569   1.839   3.865  1.4659  0.6900  0.8419
 3449SOL     OW10635   4.661   1.736   4.053 -0.2442  0.0605 -0.6048
 3449SOL    HW110636   4.597   1.810   4.070 -0.7285 -0.2290 -1.1603
 3449SOL    HW210637   4.729   1.765   3.986 -0.4744 -0.0215 -0.8734
 3450SOL     OW10638   2.965   2.472   0.083  0.1839 -0.0999  0.7292
 3450SOL    HW110639   2.886   2.425   0.121  0.3861  0.1382  1.4752
 3450SOL    HW210640   3.029   2.494   0.157  0.0524  1.4201  0.4335
 3451SOL     OW10641   2.115   2.310   4.446  0.0020  0.2177 -0.3896
 3451SOL    HW110642   2.054   2.367   4.391 -0.6538  1.1457  1.2134
 3451SOL    HW210643   2.191   2.366   4.480  0.4135 -0.3424 -0.3755
 3452SOL     OW10644   2.851   4.237   3.232 -0.2870 -0.1520 -0.7657
 3452SOL    HW110645   2.894   4.300   3.168  0.5018 -0.6823 -0.7669
 3452SOL    HW210646   2.896   4.148   3.227 -0.0783 -0.1483  0.6614
 3453SOL     OW10647   4.289   2.218   0.245  0.2430  0.4605  0.6086
 3453SOL    HW110648   4.256   2.280   0.316 -1.7783  0.2950 -0.1301
 3453SOL    HW210649   4.387   2.204   0.257  0.4753  2.5721  1.7150
 3454SOL     OW10650   4.104   2.123   0.085  0.0092  0.3174 -0.0563
 3454SOL    HW110651   4.045   2.069   0.146  0.3247  0.2682  0.2080
 3454SOL    HW210652   4.176   2.166   0.139  0.3407  0.2068 -0.4103
 3455SOL     OW10653   4.287   3.675   4.794 -0.3522  0.2292 -0.2198
 3455SOL    HW110654   4.337   3.693   4.879  0.0683 -0.8690 -0.2209
 3455SOL    HW210655   4.351   3.646   4.723 -0.9356 -0.9129 -0.3001
 3456SOL     OW10656   2.586   4.548   5.020 -0.0126  0.1560  0.3856
 3456SOL    HW110657   2.500   4.527   5.068  0.7931 -0.3256  1.6586
 3456SOL    HW210658   2.643   4.467   5.018  0.6432  0.6203  0.0001
 3457SOL     OW10659   3.725   4.209   3.895  0.2552  0.2873 -0.2248
 3457SOL    HW110660   3.699   4.176   3.804 -0.1369 -0.8450  0.2728
 3457SOL    HW210661   3.728   4.309   3.895 -1.0515  0.3555 -1.1455
 3458SOL     OW10662   3.836   2.115   3.551  0.0429 -0.6806 -0.5820
 3458SOL    HW110663   3.778   2.068   3.618  1.0780 -1.0998  0.0311
 3458SOL    HW210664   3.836   2.064   3.465 -0.5753 -0.6198 -0.6235
 3459SOL     OW10665   2.287   1.750   5.830 -0.9195 -0.3862  0.1631
 3459SOL    HW110666   2.381   1.760   5.861 -0.1730  1.5335 -2.3199
 3459SOL    HW210667   2.225   1.757   5.908  0.9238 -3.6501  2.1735
 3460SOL     OW10668   3.483   4.524   4.389  0.4308 -0.4085 -0.1925
 3460SOL    HW110669   3.448   4.459   4.457  0.7802 -0.2205  0.1734
 3460SOL    HW210670   3.468   4.487   4.297 -0.5118 -0.4374 -0.0396
 3461SOL     OW10671   2.079   1.263   1.100 -0.3923  0.1200  0.4893
 3461SOL    HW110672   2.083   1.362   1.110 -1.1270  0.3394 -1.0784
 3461SOL    HW210673   1.983   1.234   1.088 -0.0221 -0.4383 -1.6914
 3462SOL     OW10674   2.771   2.132   4.531 -0.1186 -0.2421  0.0200
 3462SOL    HW110675   2.851   2.093   4.577  0.6309  0.8954 -0.2842
 3462SOL    HW210676   2.698   2.147   4.598  0.4883  0.1829  0.5965
 3463SOL     OW10677   3.203   3.821   5.671 -0.4498  0.4421  0.4136
 3463SOL    HW110678   3.218   3.746   5.607  0.4762  1.4551 -0.6108
 3463SOL    HW210679   3.191   3.785   5.763 -1.5884 -1.0438 -0.2782
 3464SOL     OW10680   1.854   1.937   5.257  0.7395 -0.4026  0.2236
 3464SOL    HW110681   1.901   1.878   5.323  1.1613  1.1648  1.3965
 3464SOL    HW210682   1.920   2.000   5.215 -0.0306  0.8473  0.8096
 3465SOL     OW10683   4.350   2.915   5.728  0.2092  0.2672 -0.1918
 3465SOL    HW110684   4.302   2.914   5.816  0.2463  1.2818 -0.1546
 3465SOL    HW210685   4.313   2.842   5.670  1.2605 -1.4771  1.2022
 3466SOL     OW10686   3.736   4.597   5.735  0.2742  0.6957 -0.0305
 3466SOL    HW110687   3.810   4.646   5.689 -0.6729  2.0838 -0.1529
 3466SOL    HW210688   3.716   4.643   5.822  0.9219 -0.9031  0.9995
 3467SOL     OW10689   3.006   3.185   5.483 -0.0731  0.0255  0.1114
 3467SOL    HW110690   3.104   3.173   5.469 -0.1226 -0.5135  0.1856
 3467SOL    HW210691   2.972   3.257   5.422 -0.1899 -1.8989 -2.2434
 3468SOL     OW10692   4.278   4.177   4.564 -0.0741  0.5676 -0.2450
 3468SOL    HW110693   4.312   4.172   4.659 -2.6551 -2.2803  0.7002
 3468SOL    HW210694   4.209   4.248   4.557 -0.8586 -0.1053  0.4310
 3469SOL     OW10695   3.578   3.159   0.258  0.2539 -0.0902 -0.4489
 3469SOL    HW110696   3.661   3.215   0.253  0.0211  0.3108  0.0480
 3469SOL    HW210697   3.586   3.093   0.332 -0.5001  1.0254  0.6632
 3470SOL     OW10698   2.314   1.216   0.985  0.1332 -0.2858  0.1598
 3470SOL    HW110699   2.224   1.234   1.022  0.0544 -0.2876 -0.0291
 3470SOL    HW210700   2.306   1.178   0.893  0.3170 -0.5746  0.2593
 3471SOL     OW10701   5.752   1.074   0.411 -0.4124 -0.0207  0.3026
 3471SOL    HW110702   5.743   0.986   0.364  2.0563  0.6527 -1.6350
 3471SOL    HW210703   5.848   1.096   0.423 -0.7501  3.7735 -2.1489
 3472SOL     OW10704   0.173   1.603   1.809  0.2865 -0.7834  0.1371
 3472SOL    HW110705   0.247   1.655   1.767 -0.5014  0.3366  0.1205
 3472SOL    HW210706   0.112   1.568   1.738 -0.2215 -0.1379  0.2458
 3473SOL     OW10707   4.316   4.781   5.782 -0.4427  0.2783  0.1263
 3473SOL    HW110708   4.416   4.770   5.779 -0.4958 -0.3227  0.4172
 3473SOL    HW210709   4.273   4.708   5.729 -0.7514  0.1137  0.6030
 3474SOL     OW10710   1.257   3.914   0.290  0.2733  0.0302  0.3525
 3474SOL    HW110711   1.237   3.903   0.387  2.0573 -0.8178  0.6664
 3474SOL    HW210712   1.305   4.000   0.276  2.3552 -1.0118  0.6777
 3475SOL     OW10713   3.311   3.355   5.166 -0.3019  0.3611  0.3489
 3475SOL    HW110714   3.355   3.373   5.078 -1.2112 -1.3123 -0.4721
 3475SOL    HW210715   3.378   3.370   5.239  0.8928  0.3644 -0.7079
 3476SOL     OW10716   3.594   1.100   1.092  0.3114 -0.3070 -0.1828
 3476SOL    HW110717   3.619   1.058   1.005  0.0696  0.7712 -0.7953
 3476SOL    HW210718   3.495   1.113   1.096  0.3131 -0.4118  0.2884
 3477SOL     OW10719   3.377   2.781   5.715  0.4635 -0.3263 -0.4894
 3477SOL    HW110720   3.374   2.698   5.659  0.4287 -0.1705 -0.7189
 3477SOL    HW210721   3.473   2.802   5.738  0.4340 -0.7154 -0.0028
 3478SOL     OW10722   1.581   0.762   5.495 -0.5976 -0.0638 -0.1632
 3478SOL    HW110723   1.558   0.665   5.489 -1.3059 -0.0594  1.7052
 3478SOL    HW210724   1.585   0.802   5.403  0.3435 -1.9810 -0.9990
 3479SOL     OW10725   2.328   3.687   5.231  0.1224 -0.2373  0.3311
 3479SOL    HW110726   2.412   3.634   5.247  0.0613 -0.4533 -0.0518
 3479SOL    HW210727   2.318   3.705   5.133  1.2448  2.3140  0.6173
 3480SOL     OW10728   3.398   2.483   1.748  0.3697  0.3944  0.4875
 3480SOL    HW110729   3.315   2.540   1.742  0.7339  0.9122  0.2706
 3480SOL    HW210730   3.478   2.541   1.735  0.7185 -0.3269 -0.6138
 3481SOL     OW10731   1.264   1.424   5.229 -0.0450 -0.0994  0.3538
 3481SOL    HW110732   1.255   1.469   5.140 -1.1279 -0.8446  0.0663
 3481SOL    HW210733   1.243   1.490   5.301  1.2561  0.6255  0.0905
 3482SOL     OW10734   3.025   4.029   5.641  0.0611  0.1688  0.1899
 3482SOL    HW110735   2.947   4.013   5.581  0.5186  1.6584 -0.8945
 3482SOL    HW210736   3.078   3.945   5.651 -0.3671 -0.2680 -1.0351
 3483SOL     OW10737   4.605   4.332   5.345 -0.2266 -0.8374  0.3849
 3483SOL    HW110738   4.560   4.378   5.422 -0.0342  0.5438 -0.2952
 3483SOL    HW210739   4.540   4.321   5.271  0.3725  0.6737 -0.3997
 3484SOL     OW10740   3.502   2.099   0.148  0.0249 -0.5625 -0.0040
 3484SOL    HW110741   3.492   2.034   0.073  1.8440 -0.4913 -0.3461
 3484SOL    HW210742   3.599   2.107   0.173 -0.2158  1.4923  0.4826
 3485SOL     OW10743   2.747   2.368   0.228 -0.8252 -0.1890  0.6276
 3485SOL    HW110744   2.705   2.455   0.252  0.4316  0.8918 -0.8715
 3485SOL    HW210745   2.786   2.326   0.310  0.3534  1.6898  1.0910
 3486SOL     OW10746   2.789   3.312   3.992  0.2009 -0.0715 -0.4400
 3486SOL    HW110747   2.780   3.412   3.998  1.0896  0.2727 -3.3553
 3486SOL    HW210748   2.698   3.271   3.989 -0.1753  0.6987  0.0462
 3487SOL     OW10749   3.792   3.297   1.093  0.1563  0.2533 -0.2305
 3487SOL    HW110750   3.887   3.315   1.067  0.5345 -1.3490 -0.1272
 3487SOL    HW210751   3.761   3.213   1.047 -1.1741  0.6935 -0.1638
 3488SOL     OW10752   3.347   5.488   1.923 -0.7168  0.7057  0.6446
 3488SOL    HW110753   3.442   5.504   1.896 -1.4034  3.0472 -0.7046
 3488SOL    HW210754   3.314   5.564   1.978 -1.6732 -0.3363  1.5611
 3489SOL     OW10755   3.479   2.271   5.363  0.7423 -0.4727 -0.3342
 3489SOL    HW110756   3.557   2.332   5.377 -1.4802  2.3116  0.8395
 3489SOL    HW210757   3.441   2.285   5.272 -0.1724  0.5108  0.1667
 3490SOL     OW10758   2.456   5.302   0.787 -0.4269  0.3390  0.1395
 3490SOL    HW110759   2.416   5.341   0.870  1.9148  0.0415  1.4909
 3490SOL    HW210760   2.394   5.317   0.710 -2.3036  1.3584  1.7528
 3491SOL     OW10761   2.769   2.217   4.988 -0.2025  0.1859  0.1412
 3491SOL    HW110762   2.703   2.222   4.913 -1.7411 -1.4292  1.3038
 3491SOL    HW210763   2.848   2.163   4.958 -1.2215 -1.2556 -0.1007
 3492SOL     OW10764   1.832   1.437   5.684 -0.5263  0.2905 -0.1364
 3492SOL    HW110765   1.792   1.525   5.711 -1.3272  0.5058 -1.8611
 3492SOL    HW210766   1.766   1.364   5.702 -0.8305  0.3640 -0.9018
 3493SOL     OW10767   4.584   2.036   3.988 -0.3555 -0.6819  0.3530
 3493SOL    HW110768   4.644   2.058   4.065 -0.0727  1.5844 -0.4524
 3493SOL    HW210769   4.489   2.057   4.012 -0.4270 -1.1316  0.4812
 3494SOL     OW10770   2.839   1.628   4.959  0.2485 -0.0594  0.4075
 3494SOL    HW110771   2.799   1.575   5.034 -0.0997 -1.3410 -0.6460
 3494SOL    HW210772   2.907   1.691   4.996 -1.1035  0.5587  1.9856
 3495SOL     OW10773   3.052   4.876   0.225  0.2975 -0.1577 -0.2613
 3495SOL    HW110774   3.077   4.783   0.253  1.2798 -0.0272 -0.6787
 3495SOL    HW210775   2.982   4.872   0.153 -0.8332 -0.5286  0.8331
 3496SOL     OW10776   2.110   1.748   0.097 -0.1097 -0.0634  0.5810
 3496SOL    HW110777   2.122   1.816   0.169 -2.4558  0.0771  0.9116
 3496SOL    HW210778   2.018   1.710   0.101 -0.2387 -0.2793 -2.1436
 3497SOL     OW10779   3.959   3.378   4.337 -0.2190 -0.1185 -0.3416
 3497SOL    HW110780   3.965   3.427   4.424 -1.1257 -0.5842  0.0008
 3497SOL    HW210781   4.007   3.290   4.345 -0.2030 -0.1098 -0.3424
 3498SOL     OW10782   1.758   2.719   5.595 -0.1129 -0.2599  0.4849
 3498SOL    HW110783   1.770   2.727   5.496  0.8032  1.0396  0.6740
 3498SOL    HW210784   1.790   2.629   5.625  2.7797  0.4920 -0.0188
 3499SOL     OW10785   2.172   2.609   0.291 -0.3594  0.4249  0.5658
 3499SOL    HW110786   2.182   2.626   0.193  2.2322 -1.9444  0.2867
 3499SOL    HW210787   2.077   2.584   0.311 -1.2805  2.3602 -1.0004
 3500SOL     OW10788   2.758   2.630   4.970  0.3553  0.3107 -0.0209
 3500SOL    HW110789   2.671   2.595   4.934  1.2835 -0.1336 -2.0073
 3500SOL    HW210790   2.783   2.579   5.052  0.3948 -1.9759 -1.3814
 3501SOL     OW10791   2.595   1.370   0.819 -0.2467 -0.8355  0.6247
 3501SOL    HW110792   2.531   1.409   0.884  0.5038 -0.0752  0.9259
 3501SOL    HW210793   2.583   1.271   0.815  0.7972 -1.1221  3.1632
 3502SOL     OW10794   3.003   3.590   0.195 -0.3098  0.2843  0.5371
 3502SOL    HW110795   2.944   3.608   0.273  1.1159  0.4203  1.6220
 3502SOL    HW210796   3.095   3.568   0.227 -0.0401 -1.1332 -1.0550
 3503SOL     OW10797   3.381   4.272   4.563  0.6620 -0.5327 -0.0561
 3503SOL    HW110798   3.302   4.330   4.579  1.7133  0.4033  2.1148
 3503SOL    HW210799   3.362   4.210   4.487 -1.8451  0.1410 -0.0563
 3504SOL     OW10800   0.779   1.896   1.083  0.9770  0.0946 -0.0438
 3504SOL    HW110801   0.728   1.909   0.998 -1.3872 -0.0366  1.2622
 3504SOL    HW210802   0.791   1.984   1.128 -0.4162 -0.1341  0.8546
 3505SOL     OW10803   2.798   2.973   4.728  0.0132 -0.3953 -0.0153
 3505SOL    HW110804   2.750   2.988   4.815 -0.9078  2.0154 -0.8619
 3505SOL    HW210805   2.733   2.978   4.652  1.2801  1.4787 -1.0776
 3506SOL     OW10806   3.969   1.041   5.914 -0.1323  0.6462  0.5273
 3506SOL    HW110807   4.054   1.001   5.880  0.0523  0.2973  1.3751
 3506SOL    HW210808   3.944   0.998   6.001 -1.5467  0.2377 -0.0387
 3507SOL     OW10809   0.168   2.781   4.834 -0.0434 -0.1473  0.3229
 3507SOL    HW110810   0.111   2.704   4.863 -2.6062  1.4460 -0.1441
 3507SOL    HW210811   0.253   2.747   4.795 -0.6854 -2.6742  0.9360
 3508SOL     OW10812   4.825   4.981   0.211 -0.0186  0.2011 -0.0740
 3508SOL    HW110813   4.841   5.060   0.151  1.7011 -1.0087 -1.2885
 3508SOL    HW210814   4.784   5.013   0.297 -0.2587  2.2830 -0.8837
 3509SOL     OW10815   3.812   4.488   1.334  0.1352  0.1628 -0.1661
 3509SOL    HW110816   3.770   4.489   1.425 -1.2532  3.8995 -0.6494
 3509SOL    HW210817   3.877   4.413   1.328 -0.1663 -0.6186  3.6742
 3510SOL     OW10818   2.644   4.906   1.960  0.0443  0.1122  0.0373
 3510SOL    HW110819   2.616   4.814   1.988 -0.8307  0.3327 -0.0699
 3510SOL    HW210820   2.584   4.938   1.886 -0.0878  1.0261  0.5215
 3511SOL     OW10821   2.596   5.300   1.243  0.0129  0.3337  0.2454
 3511SOL    HW110822   2.548   5.387   1.252 -1.1985  0.0460 -2.3375
 3511SOL    HW210823   2.602   5.255   1.332 -0.4526  2.4498  1.4158
 3512SOL     OW10824   1.531   4.513   0.148  0.7845 -0.0831 -0.0242
 3512SOL    HW110825   1.564   4.558   0.065  0.8629 -0.6738 -0.3251
 3512SOL    HW210826   1.507   4.418   0.126 -1.0439  0.2950  0.1964
 3513SOL     OW10827   3.143   0.654   0.965 -0.1604 -0.4014 -0.3518
 3513SOL    HW110828   3.158   0.605   1.052 -0.5428  0.2454  0.0860
 3513SOL    HW210829   3.160   0.751   0.979  2.1031 -0.5525 -1.5885
 3514SOL     OW10830   2.455   3.672   0.136 -0.9265 -0.1355  0.2606
 3514SOL    HW110831   2.492   3.699   0.046  2.3319  0.0614  1.5130
 3514SOL    HW210832   2.404   3.587   0.127 -0.2783 -0.3757 -1.7347
 3515SOL     OW10833   4.058   2.782   5.222 -0.2501 -0.3730  0.0739
 3515SOL    HW110834   4.144   2.732   5.231  0.3068  0.5998  0.3908
 3515SOL    HW210835   4.030   2.784   5.126 -0.7629 -2.0465  0.1728
 3516SOL     OW10836   2.976   0.563   4.976  0.4923 -0.1996 -0.3714
 3516SOL    HW110837   2.969   0.579   5.075  1.9468 -1.6509  0.0088
 3516SOL    HW210838   3.014   0.644   4.932  1.5725 -0.1833  0.5446
 3517SOL     OW10839   3.018   3.239   1.573  0.0955 -0.3317  0.2837
 3517SOL    HW110840   3.115   3.243   1.551  0.0342 -0.4847 -0.0356
 3517SOL    HW210841   2.965   3.282   1.499  0.0888  2.6678  1.8974
 3518SOL     OW10842   1.851   0.536   0.302 -0.2826  0.0237 -0.3742
 3518SOL    HW110843   1.763   0.490   0.301 -0.2529 -0.0405 -1.3339
 3518SOL    HW210844   1.924   0.467   0.303 -0.1906  0.0467  2.4226
 3519SOL     OW10845   3.233   5.169   2.661 -0.6202 -0.3955 -0.2572
 3519SOL    HW110846   3.241   5.141   2.757 -0.6446  0.9645  0.1640
 3519SOL    HW210847   3.254   5.266   2.653 -2.0763 -0.1300 -1.3978
 3520SOL     OW10848   0.621   4.298   0.351 -0.4809 -0.3249 -0.2584
 3520SOL    HW110849   0.568   4.348   0.283 -2.1781 -0.9233  0.5753
 3520SOL    HW210850   0.670   4.223   0.307 -1.6842 -0.8011 -0.8166
 3521SOL     OW10851   4.355   4.245   2.393 -0.4171  0.6257  0.5256
 3521SOL    HW110852   4.304   4.236   2.479 -0.2497 -1.4177  0.4599
 3521SOL    HW210853   4.293   4.236   2.316 -0.5149  2.1386  0.3856
 3522SOL     OW10854   3.161   4.145   2.622 -0.0390  0.1599 -0.3248
 3522SOL    HW110855   3.202   4.054   2.625 -0.8951 -0.3162 -1.9130
 3522SOL    HW210856   3.082   4.148   2.683 -0.0439 -0.1906 -0.3106
 3523SOL     OW10857   5.343   4.519   0.501 -0.1860 -0.2916  0.1057
 3523SOL    HW110858   5.338   4.555   0.594 -3.8836  1.4544 -0.5829
 3523SOL    HW210859   5.381   4.588   0.440 -1.1252 -0.0251 -0.1961
 3524SOL     OW10860   4.164   1.419   5.577 -0.1102 -0.1011 -0.2663
 3524SOL    HW110861   4.118   1.450   5.661  3.8719  0.6030  1.9202
 3524SOL    HW210862   4.162   1.319   5.572 -0.1168 -0.1726  0.9109
 3525SOL     OW10863   4.089   5.112   2.787 -0.1481 -0.4094 -0.0828
 3525SOL    HW110864   4.000   5.123   2.829 -0.0785  0.7488 -0.2108
 3525SOL    HW210865   4.153   5.179   2.825  0.9992 -1.9402  0.8388
 3526SOL     OW10866   2.310   3.455   0.811  0.7012 -0.0836  0.5192
 3526SOL    HW110867   2.215   3.424   0.810  0.7481 -0.3114  2.0503
 3526SOL    HW210868   2.353   3.432   0.723 -0.4256 -0.6722  0.1054
 3527SOL     OW10869   0.264   4.937   2.024  0.8571  0.3922 -0.3620
 3527SOL    HW110870   0.263   4.837   2.013  0.4589  0.4836 -1.2487
 3527SOL    HW210871   0.348   4.964   2.071  0.2700 -0.4803  1.2536
 3528SOL     OW10872   0.101   5.745   0.087 -0.1606 -0.0951  0.4935
 3528SOL    HW110873   0.199   5.727   0.090  0.3023  1.7722 -1.1152
 3528SOL    HW210874   0.079   5.820   0.150  0.1777  2.0622 -1.8128
 3529SOL     OW10875   1.740   5.838   5.098  0.1893  0.0721  0.1744
 3529SOL    HW110876   1.751   5.744   5.130 -1.1257 -0.6804 -1.4707
 3529SOL    HW210877   1.698   5.893   5.171 -1.3092 -1.2136  0.3195
 3530SOL     OW10878   3.741   3.665   0.657 -0.0990 -0.3162  0.1369
 3530SOL    HW110879   3.644   3.661   0.682  0.1360  0.0460  1.1562
 3530SOL    HW210880   3.796   3.620   0.728  0.6188  1.0380  0.4783
 3531SOL     OW10881   2.335   0.056   5.823 -0.8230 -0.2875 -0.1975
 3531SOL    HW110882   2.337   0.093   5.730  0.7596  0.4623  0.1032
 3531SOL    HW210883   2.267  -0.017   5.828 -0.6498 -0.6294 -2.0499
 3532SOL     OW10884   3.642   5.024   5.889  0.1379  0.1127 -0.3160
 3532SOL    HW110885   3.634   4.978   5.978 -0.8198 -0.0436 -0.4664
 3532SOL    HW210886   3.630   5.123   5.902 -0.8650  0.0133 -0.3552
 3533SOL     OW10887   2.742   4.316   4.844  0.0054 -0.3379  0.0609
 3533SOL    HW110888   2.800   4.377   4.899 -0.8631  0.6479 -0.0671
 3533SOL    HW210889   2.747   4.223   4.879  0.4894  0.0293  0.9855
 3534SOL     OW10890   1.273   4.261   5.880  0.8791 -0.2817 -0.2445
 3534SOL    HW110891   1.318   4.235   5.965 -1.2520 -3.8683 -0.0107
 3534SOL    HW210892   1.329   4.231   5.803  1.7729  1.0367 -0.1578
 3535SOL     OW10893   2.334   5.769   1.516  0.0478 -0.3655 -0.7399
 3535SOL    HW110894   2.421   5.731   1.484  1.5959  2.0300  0.3104
 3535SOL    HW210895   2.334   5.868   1.502 -1.8773 -0.1041  0.7311
 3536SOL     OW10896   3.618   3.925   1.340  0.0188 -0.3238  0.5494
 3536SOL    HW110897   3.568   3.917   1.254  0.4970 -2.5527  0.4041
 3536SOL    HW210898   3.660   4.015   1.347 -1.6542  0.5896 -0.6222
 3537SOL     OW10899   1.245   0.579   0.229  0.0938 -0.0246  0.6277
 3537SOL    HW110900   1.205   0.492   0.199  0.6315 -0.4132  0.9926
 3537SOL    HW210901   1.236   0.647   0.157  1.2762 -0.9026 -0.3899
 3538SOL     OW10902   3.311   4.752   0.797 -0.0086 -0.9701  0.0177
 3538SOL    HW110903   3.390   4.694   0.813  0.2547 -1.2125 -1.8695
 3538SOL    HW210904   3.342   4.844   0.771 -0.3099 -1.1093 -0.8807
 3539SOL     OW10905   2.716   2.914   1.728 -0.1516  0.1767  0.0135
 3539SOL    HW110906   2.661   2.973   1.668 -0.7457  0.3763  0.7520
 3539SOL    HW210907   2.776   2.857   1.671 -2.2597 -1.2378 -0.9114
 3540SOL     OW10908   3.379   4.261   5.870  0.2180 -0.6508 -0.1584
 3540SOL    HW110909   3.443   4.216   5.807  1.2343 -1.9512  1.7112
 3540SOL    HW210910   3.329   4.192   5.922  0.2317  0.3558  1.2608
 3541SOL     OW10911   2.762   3.660   0.001 -0.0618 -0.3674 -0.1409
 3541SOL    HW110912   2.839   3.710   0.041 -0.2994 -0.7409  0.8163
 3541SOL    HW210913   2.719   3.603   0.071  0.0942 -1.8006 -1.1487
 3542SOL     OW10914   2.335   4.523   1.846 -0.0003 -0.1377  0.0340
 3542SOL    HW110915   2.325   4.560   1.753 -3.6310  2.4365  1.2216
 3542SOL    HW210916   2.413   4.567   1.890  0.3691  0.3687 -1.0736
 3543SOL     OW10917   1.285   3.778   3.170 -0.6608 -0.4537 -0.5738
 3543SOL    HW110918   1.365   3.719   3.182 -0.9261 -0.5656  0.7762
 3543SOL    HW210919   1.211   3.746   3.230 -0.3342  2.0927  1.3513
 3544SOL     OW10920   2.928   0.076   2.407 -0.1892 -0.4051 -0.4902
 3544SOL    HW110921   2.884   0.143   2.348 -1.2581  0.0253  0.7324
 3544SOL    HW210922   2.862   0.003   2.429  0.9188 -1.8562 -1.7261
 3545SOL     OW10923   4.887   0.746   0.724  0.1364  0.0653  0.1312
 3545SOL    HW110924   4.860   0.730   0.820 -0.8011  0.4905 -0.0471
 3545SOL    HW210925   4.959   0.681   0.699 -0.8346 -1.2440  0.5946
 3546SOL     OW10926   1.954   5.227   5.843  0.0874  0.1518 -0.1624
 3546SOL    HW110927   1.881   5.211   5.776  0.5326 -0.5626 -0.4832
 3546SOL    HW210928   2.000   5.141   5.864 -0.6221  0.1839  1.7506
 3547SOL     OW10929   3.979   4.252   2.246 -0.0255  0.1295  0.3050
 3547SOL    HW110930   3.933   4.317   2.185 -2.9159 -2.1012 -0.0810
 3547SOL    HW210931   4.072   4.235   2.213 -0.5109  1.1848 -1.7547
 3548SOL     OW10932   4.339   3.090   2.446  0.2808 -0.0321  0.1615
 3548SOL    HW110933   4.303   3.034   2.372  1.8288  0.0283 -0.7003
 3548SOL    HW210934   4.436   3.110   2.427  0.0888  1.9167  1.0406
 3549SOL     OW10935   1.086   5.702   0.762  0.3122  0.6546 -0.3549
 3549SOL    HW110936   1.123   5.610   0.756 -2.0787 -0.4628  0.5949
 3549SOL    HW210937   1.098   5.738   0.854 -1.8879 -0.2605  0.3781
 3550SOL     OW10938   3.325   4.919   1.963  0.4458  0.3222 -0.0348
 3550SOL    HW110939   3.234   4.948   1.932  0.6434  0.8967 -0.0894
 3550SOL    HW210940   3.325   4.820   1.977  0.2196  0.1112 -1.3934
 3551SOL     OW10941   2.936   3.597   2.518  0.0465 -0.1005  0.4803
 3551SOL    HW110942   3.020   3.594   2.571  0.3170  0.0956  0.0714
 3551SOL    HW210943   2.955   3.637   2.428 -0.4882 -0.0204  0.3982
 3552SOL     OW10944   3.179   2.633   1.764  0.2619 -0.0801 -0.2053
 3552SOL    HW110945   3.113   2.563   1.791 -1.1424  1.1360 -0.3265
 3552SOL    HW210946   3.170   2.712   1.825 -0.0221  1.0194 -1.6028
 3553SOL     OW10947   2.712   0.088   0.335  0.1147 -0.1244 -0.1285
 3553SOL    HW110948   2.721   0.011   0.272  1.4139  1.4163 -1.9256
 3553SOL    HW210949   2.618   0.123   0.331 -0.7002 -1.9550  1.2407
 3554SOL     OW10950   0.611   5.403   1.389  0.3471 -0.1603 -0.0853
 3554SOL    HW110951   0.553   5.350   1.451  1.1395 -0.5023  0.3775
 3554SOL    HW210952   0.562   5.485   1.360 -0.2569 -0.2903  0.5359
 3555SOL     OW10953   1.533   0.738   0.424  0.3600  0.3997  0.2254
 3555SOL    HW110954   1.436   0.715   0.422  0.3095  0.4819  1.1941
 3555SOL    HW210955   1.568   0.744   0.330 -0.5498  0.3159 -0.1305
 3556SOL     OW10956   4.826   3.120   1.420  0.0618 -0.9615  0.3663
 3556SOL    HW110957   4.778   3.102   1.334  1.2273 -2.0350 -0.0810
 3556SOL    HW210958   4.836   3.219   1.433 -0.2861 -0.7901 -0.6288
 3557SOL     OW10959   2.861   3.483   0.448 -0.7611 -0.2937 -0.3737
 3557SOL    HW110960   2.768   3.457   0.424 -0.9752 -0.5593  0.6844
 3557SOL    HW210961   2.897   3.418   0.516 -0.5374  0.9349  0.7219
 3558SOL     OW10962   3.145   4.654   0.362 -0.1312  0.5343 -0.1499
 3558SOL    HW110963   3.225   4.612   0.405  0.8809  1.7778 -0.7775
 3558SOL    HW210964   3.077   4.674   0.432 -0.6595 -2.0717  0.1928
 3559SOL     OW10965   2.955   2.613   0.470  0.1844 -0.0466 -0.0373
 3559SOL    HW110966   2.893   2.691   0.473  1.3598  0.9313 -0.2936
 3559SOL    HW210967   3.048   2.645   0.452  0.6525 -1.5400 -0.4429
 3560SOL     OW10968   3.681   3.888   3.653 -0.3094 -0.0896  0.1142
 3560SOL    HW110969   3.626   3.966   3.680  0.2543  0.0972  0.7312
 3560SOL    HW210970   3.753   3.872   3.720  0.1731 -0.5523 -0.4945
 3561SOL     OW10971   1.689   0.070   0.971 -0.4407  0.1964  0.6041
 3561SOL    HW110972   1.670  -0.027   0.955  1.0648  0.0325 -0.3935
 3561SOL    HW210973   1.610   0.125   0.944 -1.0356 -0.7027  0.4968
 3562SOL     OW10974   4.306   4.244   0.145 -0.5857 -0.0434  0.1123
 3562SOL    HW110975   4.222   4.193   0.130 -0.2791 -0.2555 -0.9705
 3562SOL    HW210976   4.331   4.293   0.061  0.9667 -0.8839  0.0480
 3563SOL     OW10977   4.441   1.628   0.759  0.1258 -0.0123 -0.2939
 3563SOL    HW110978   4.412   1.600   0.850 -0.9250 -1.0742 -0.9186
 3563SOL    HW210979   4.436   1.550   0.697 -0.3951  0.9626 -1.5317
 3564SOL     OW10980   1.779   5.198   5.638 -0.1322 -1.0741  0.7908
 3564SOL    HW110981   1.713   5.250   5.584  0.1594 -0.0185  1.4338
 3564SOL    HW210982   1.816   5.123   5.583 -0.4336 -0.5046 -0.2028
 3565SOL     OW10983   4.655   4.281   0.985  0.1454  0.4172 -0.9755
 3565SOL    HW110984   4.677   4.261   0.889  0.3692 -2.1265 -0.4483
 3565SOL    HW210985   4.740   4.299   1.035  0.4369 -1.8792 -0.5423
 3566SOL     OW10986   3.132   4.270   2.134 -1.2287 -0.7397 -0.3086
 3566SOL    HW110987   3.070   4.232   2.065 -1.8002  1.5040 -1.0869
 3566SOL    HW210988   3.087   4.269   2.223 -1.2926 -1.6818 -0.3383
 3567SOL     OW10989   2.630   3.986   0.652 -0.3108  0.1738  0.5026
 3567SOL    HW110990   2.703   3.933   0.610 -0.0705  0.4273  0.6005
 3567SOL    HW210991   2.655   4.083   0.654 -1.7388  0.6810 -1.8858
 3568SOL     OW10992   3.509   3.491   1.272 -0.0806  0.1765  0.2118
 3568SOL    HW110993   3.564   3.490   1.188  0.9198  0.3884  0.8518
 3568SOL    HW210994   3.506   3.584   1.309  0.1435 -0.0576  0.8295
 3569SOL     OW10995   3.292   4.596   1.657  0.1247  0.2183  0.7187
 3569SOL    HW110996   3.265   4.502   1.675 -1.7906  0.6948  0.5323
 3569SOL    HW210997   3.370   4.597   1.594  0.0060 -1.2255  0.5240
 3570SOL     OW10998   3.322   0.060   5.755 -0.1710 -0.0581 -0.0271
 3570SOL    HW110999   3.313   0.101   5.664  0.4095  0.4981  0.1547
 3570SOL    HW211000   3.398  -0.005   5.755 -2.4566 -2.9212 -0.9229
 3571SOL     OW11001   2.496   5.513   5.265 -0.1055 -0.3068 -0.6254
 3571SOL    HW111002   2.500   5.427   5.316 -0.1064  0.2783  0.4018
 3571SOL    HW211003   2.548   5.583   5.314 -0.7554  0.4810 -1.0318
 3572SOL     OW11004   1.805   4.932   2.132 -0.5365 -0.1218 -0.1184
 3572SOL    HW111005   1.819   4.858   2.067  0.2214  1.3130 -1.6728
 3572SOL    HW211006   1.759   4.897   2.214 -0.0425 -2.3009 -0.7207
 3573SOL     OW11007   5.717   5.345   1.857  0.1100  0.0004 -0.1025
 3573SOL    HW111008   5.798   5.353   1.915 -0.1235 -0.2017  0.2533
 3573SOL    HW211009   5.643   5.399   1.896 -0.4103 -1.0674  0.4254
 3574SOL     OW11010   5.866   4.605   2.539  0.2577  0.0633 -0.4611
 3574SOL    HW111011   5.860   4.645   2.447  1.0790  3.1474  0.6818
 3574SOL    HW211012   5.825   4.668   2.605  2.5018 -0.5226  1.6364
 3575SOL     OW11013   2.843   3.179  -0.003  0.3103 -0.6049 -0.0527
 3575SOL    HW111014   2.901   3.202   0.075  0.6304  0.2931 -0.5374
 3575SOL    HW211015   2.813   3.084   0.004  0.2629 -0.5123  1.2033
 3576SOL     OW11016   4.341   4.604   0.231  0.2102 -0.5626 -0.3322
 3576SOL    HW111017   4.430   4.589   0.187  0.5865 -1.2184  0.6218
 3576SOL    HW211018   4.345   4.573   0.326 -0.9457 -0.2868 -0.1793
 3577SOL     OW11019   2.396   3.644   2.051  0.1374  0.2985 -0.2219
 3577SOL    HW111020   2.490   3.678   2.047  0.7376 -1.0943  0.9862
 3577SOL    HW211021   2.357   3.643   1.959  1.7895 -0.3695 -0.9595
 3578SOL     OW11022   2.903   4.838   1.918 -0.2859  0.5353 -0.4404
 3578SOL    HW111023   2.809   4.863   1.939 -0.7964 -2.0888  0.8670
 3578SOL    HW211024   2.904   4.778   1.838  0.1242 -0.2227  0.1183
 3579SOL     OW11025   3.563   4.010   1.794 -0.2548  0.1215  0.3340
 3579SOL    HW111026   3.494   4.024   1.865  0.4916 -0.1511  1.1332
 3579SOL    HW211027   3.618   4.093   1.784  0.6017 -0.3308  1.1499
 3580SOL     OW11028   1.981   5.468   1.274 -0.2620  0.0828 -0.4119
 3580SOL    HW111029   1.962   5.454   1.177  0.5373 -2.1758 -0.3119
 3580SOL    HW211030   1.920   5.410   1.328  1.8503 -1.6838  0.2078
 3581SOL     OW11031   2.598   4.002   0.255  0.3307 -0.4616 -0.2791
 3581SOL    HW111032   2.521   4.009   0.319 -0.0432 -2.2735 -0.4897
 3581SOL    HW211033   2.578   4.057   0.174 -0.6838 -0.7662 -0.2500
 3582SOL     OW11034   2.108   2.851   5.811 -0.3120 -0.2647 -0.7638
 3582SOL    HW111035   2.124   2.798   5.728  1.8115 -2.2577  0.7916
 3582SOL    HW211036   2.146   2.943   5.800  0.1379 -0.5661 -1.9072
 3583SOL     OW11037   1.334   2.844   5.556  0.5332  0.1184  0.0066
 3583SOL    HW111038   1.306   2.938   5.537 -0.7237 -0.4704 -1.2219
 3583SOL    HW211039   1.404   2.844   5.627  1.6133  2.0719 -0.9944
 3584SOL     OW11040   3.075   2.777   0.686 -0.3776 -0.2592  0.1458
 3584SOL    HW111041   2.995   2.807   0.636  0.4414  1.1904 -0.3449
 3584SOL    HW211042   3.131   2.718   0.627  0.3178  1.0167 -0.5078
 3585SOL     OW11043   2.379   5.287   1.589 -0.5009  0.2289  0.3009
 3585SOL    HW111044   2.292   5.336   1.585 -0.6849  0.1237  2.0862
 3585SOL    HW211045   2.434   5.325   1.664  1.1390  0.5142 -1.0114
 3586SOL     OW11046   2.012   0.094   0.069 -0.4187 -0.0495 -0.2248
 3586SOL    HW111047   1.948   0.017   0.070 -1.6515  0.8832 -1.9000
 3586SOL    HW211048   1.962   0.179   0.085  0.8124  0.4931  0.9084
 3587SOL     OW11049   1.032   4.335   0.759 -0.3294  0.0898 -0.3405
 3587SOL    HW111050   1.107   4.344   0.824 -1.3400  0.6801  0.7909
 3587SOL    HW211051   1.035   4.412   0.694  0.0897  0.0537 -0.3684
 3588SOL     OW11052   2.898   5.160   0.672 -0.6495 -0.1748  0.1336
 3588SOL    HW111053   2.989   5.150   0.632 -1.5859 -0.6971 -2.0090
 3588SOL    HW211054   2.878   5.257   0.685  0.4127 -0.0677  1.2306
 3589SOL     OW11055   2.241   3.114   4.692  0.5509 -0.2268  0.8463
 3589SOL    HW111056   2.194   3.189   4.644 -0.7459 -1.4999  0.0193
 3589SOL    HW211057   2.236   3.129   4.790 -0.2375  0.4768  0.7136
 3590SOL     OW11058   3.712   4.120   0.699  0.5623 -0.0507 -0.6129
 3590SOL    HW111059   3.776   4.057   0.744  1.7343 -0.4083 -2.6713
 3590SOL    HW211060   3.754   4.210   0.690 -0.1505  0.3672  0.0781
 3591SOL     OW11061   3.518   3.296   0.634  0.0851 -0.4740 -0.0692
 3591SOL    HW111062   3.606   3.323   0.672  0.4775  1.4685 -2.1328
 3591SOL    HW211063   3.531   3.218   0.572  0.7255  0.8150 -1.6398
 3592SOL     OW11064   3.496   5.008   1.436 -0.0765 -0.2929 -0.1304
 3592SOL    HW111065   3.447   5.001   1.349 -1.9145 -2.1055  0.9644
 3592SOL    HW211066   3.582   5.056   1.422 -0.4096 -0.3604 -2.8996
 3593SOL     OW11067   4.444   4.363   0.381  0.4157  0.2640 -0.7441
 3593SOL    HW111068   4.392   4.307   0.318 -1.2422  0.0595  0.7349
 3593SOL    HW211069   4.540   4.366   0.352  0.5496 -3.1404 -0.9815
 3594SOL     OW11070   2.519   4.751   3.717 -0.2655  0.2852  0.0781
 3594SOL    HW111071   2.552   4.837   3.757 -2.0223  1.2366 -0.4279
 3594SOL    HW211072   2.512   4.682   3.789 -2.8896  1.8177  1.4668
 3595SOL     OW11073   3.381   2.995   0.853 -0.0225  0.7502 -0.3582
 3595SOL    HW111074   3.385   2.960   0.759 -0.3325  0.3658 -0.2273
 3595SOL    HW211075   3.463   2.966   0.903 -0.5728 -0.3320 -0.0637
 3596SOL     OW11076   4.201   3.206   1.846  0.1433 -0.2112 -0.3089
 3596SOL    HW111077   4.186   3.305   1.849  1.6858  0.1800 -2.5088
 3596SOL    HW211078   4.300   3.188   1.843  0.1822 -2.0952  4.1130
 3597SOL     OW11079   2.246   4.257   2.840 -0.4460 -0.3001  0.2501
 3597SOL    HW111080   2.156   4.213   2.834 -1.0928  0.8009  1.4962
 3597SOL    HW211081   2.286   4.262   2.748 -2.9495  1.7582 -0.8547
 3598SOL     OW11082   1.396   4.713   0.737  0.1105  0.1832 -0.4576
 3598SOL    HW111083   1.370   4.635   0.680 -1.4321 -0.4127  0.9625
 3598SOL    HW211084   1.316   4.773   0.749  0.0952 -0.1822  1.7435
 3599SOL     OW11085   1.642   5.667   5.742  0.0313 -0.1944  0.1260
 3599SOL    HW111086   1.670   5.584   5.789 -1.1522 -0.6216  0.1082
 3599SOL    HW211087   1.557   5.701   5.781 -0.6503 -0.2127 -1.2753
 3600SOL     OW11088   2.530   4.660   2.012  1.2891  0.4754 -0.2120
 3600SOL    HW111089   2.577   4.573   2.003 -3.1588 -2.1497 -0.9263
 3600SOL    HW211090   2.502   4.673   2.107 -1.0374 -0.7970 -0.6444
 3601SOL     OW11091   4.173   3.455   1.976 -0.1760  0.1491 -0.0503
 3601SOL    HW111092   4.202   3.549   1.996 -0.5086  0.3936 -0.6973
 3601SOL    HW211093   4.112   3.424   2.049 -3.8274  2.1252 -1.9876
 3602SOL     OW11094   2.744   4.917   1.021 -0.3127 -0.3279 -0.0285
 3602SOL    HW111095   2.726   4.826   1.059 -1.3335 -0.6200 -1.1334
 3602SOL    HW211096   2.680   4.983   1.061 -0.9076 -0.5010 -0.6546
 3603SOL     OW11097   4.520   5.747   3.342 -0.1213 -0.2397 -0.3988
 3603SOL    HW111098   4.565   5.827   3.381 -0.6895 -0.3148  0.4479
 3603SOL    HW211099   4.434   5.773   3.298 -0.2258 -0.3553 -0.2672
 3604SOL     OW11100   4.396   3.843   1.414 -0.3669  0.0801  0.0415
 3604SOL    HW111101   4.332   3.882   1.481  0.7161  1.4701  0.3143
 3604SOL    HW211102   4.411   3.746   1.435 -1.3111  0.0746  0.7946
 3605SOL     OW11103   4.992   3.211   1.771 -0.0359 -0.2533 -0.0379
 3605SOL    HW111104   4.974   3.112   1.764  1.1521 -0.4369 -0.7447
 3605SOL    HW211105   4.917   3.261   1.728 -0.1350 -0.8798 -0.6128
 3606SOL     OW11106   4.868   3.139   2.618 -0.1203  0.4113  0.1045
 3606SOL    HW111107   4.819   3.116   2.534  0.1113  0.3405 -0.0128
 3606SOL    HW211108   4.822   3.216   2.664 -0.1871  0.5168 -0.1388
 3607SOL     OW11109   2.067   5.685   1.437  0.9071 -0.8399 -0.2946
 3607SOL    HW111110   2.078   5.603   1.380  1.3702  0.2617 -1.8586
 3607SOL    HW211111   2.157   5.720   1.461  0.7093 -0.5681  0.0439
 3608SOL     OW11112   3.498   5.470   0.802 -0.3636 -0.1144  0.0966
 3608SOL    HW111113   3.439   5.527   0.859 -0.4546  1.4155 -1.4481
 3608SOL    HW211114   3.459   5.465   0.710  0.2872 -1.7164 -0.1145
 3609SOL     OW11115   2.464   0.571   1.881  0.1981  0.1199 -0.1659
 3609SOL    HW111116   2.426   0.598   1.970  1.0258  0.7541  0.0032
 3609SOL    HW211117   2.559   0.601   1.875 -0.0899  0.8405 -1.5853
 3610SOL     OW11118   4.512   3.045   0.516 -0.3379 -0.7963  0.7933
 3610SOL    HW111119   4.593   3.017   0.568  0.4350 -1.3003 -0.6497
 3610SOL    HW211120   4.469   2.964   0.475 -1.4333 -0.5007  1.3248
 3611SOL     OW11121   2.382   5.604   2.222 -0.2819 -0.3070  0.3476
 3611SOL    HW111122   2.392   5.506   2.240 -2.1536 -0.5168  0.4283
 3611SOL    HW211123   2.319   5.618   2.145 -0.7967  0.8341  0.9517
 3612SOL     OW11124   3.124   3.543   5.268  0.2484 -0.4598  0.2450
 3612SOL    HW111125   3.182   3.478   5.220  1.2025  1.5157 -1.4555
 3612SOL    HW211126   3.060   3.586   5.204  0.5898  1.2484  0.9811
 3613SOL     OW11127   3.084   0.288   5.397 -0.0549  0.3230  0.1579
 3613SOL    HW111128   3.014   0.243   5.451  0.0712  1.8350  1.6723
 3613SOL    HW211129   3.065   0.386   5.393  1.1533  0.5482 -0.7016
 3614SOL     OW11130   4.043   4.312   0.470  0.2095  0.1175  0.1844
 3614SOL    HW111131   4.135   4.319   0.507  0.3529  1.6839 -0.3861
 3614SOL    HW211132   3.980   4.362   0.529  0.1177  0.9742 -0.6155
 3615SOL     OW11133   2.268   0.004   1.173 -0.3077 -0.3539  0.5431
 3615SOL    HW111134   2.331   0.078   1.149  0.8349 -1.3774  0.2525
 3615SOL    HW211135   2.231   0.019   1.264  0.5433  0.1646  0.8159
 3616SOL     OW11136   4.464   3.524   0.500  0.3610 -0.7024 -0.6454
 3616SOL    HW111137   4.543   3.581   0.521 -0.7060  0.1105  1.3521
 3616SOL    HW211138   4.495   3.431   0.477  1.9658  0.0600 -1.7481
 3617SOL     OW11139   2.351   5.151   0.178  0.2523 -0.1705 -0.5921
 3617SOL    HW111140   2.285   5.211   0.223  1.7749  0.2568  1.1860
 3617SOL    HW211141   2.306   5.102   0.103 -1.9296  0.4418  0.2494
 3618SOL     OW11142   3.201   3.908   1.091  0.3310  0.3282 -0.4349
 3618SOL    HW111143   3.177   3.969   1.015  0.7745 -0.4799 -1.2538
 3618SOL    HW211144   3.299   3.916   1.111  0.3500  0.0403 -0.4083
 3619SOL     OW11145   2.699   5.328   2.025  0.3363  0.3375 -0.0580
 3619SOL    HW111146   2.672   5.409   2.077  0.2761  0.1180  0.2535
 3619SOL    HW211147   2.618   5.285   1.986  0.3387  0.2644  0.0169
 3620SOL     OW11148   3.298   3.224   5.508 -0.2156 -0.0360 -0.1658
 3620SOL    HW111149   3.336   3.316   5.517 -1.5313  0.4814  0.4423
 3620SOL    HW211150   3.366   3.163   5.469  1.1398  0.8781  0.7012
 3621SOL     OW11151   2.547   4.215   3.214 -0.0832  0.4986 -0.2661
 3621SOL    HW111152   2.639   4.181   3.194 -0.8583 -0.5585 -2.4452
 3621SOL    HW211153   2.523   4.193   3.309  0.8492 -1.9070 -0.4984
 3622SOL     OW11154   5.479   4.699   1.568 -0.1249  0.1905  0.4040
 3622SOL    HW111155   5.568   4.658   1.547 -0.6376 -1.7295  1.6622
 3622SOL    HW211156   5.481   4.737   1.661 -0.2900  1.1981  0.0056
 3623SOL     OW11157   0.711   4.292   0.810  0.2009 -0.3219  0.4509
 3623SOL    HW111158   0.810   4.289   0.800  0.3331 -0.4143  1.6632
 3623SOL    HW211159   0.687   4.335   0.897 -0.9087  2.5886 -1.1236
 3624SOL     OW11160   1.843   2.797   5.865  0.0524  0.1304  0.4016
 3624SOL    HW111161   1.940   2.824   5.864  0.8394 -2.2564  2.0727
 3624SOL    HW211162   1.817   2.763   5.774  0.5563  1.3944 -0.2432
 3625SOL     OW11163   1.861   3.827   1.729  0.2454 -0.0035  0.9696
 3625SOL    HW111164   1.784   3.887   1.748 -0.0315  0.7050 -1.9647
 3625SOL    HW211165   1.917   3.866   1.656  1.3595 -2.2288  0.5467
 3626SOL     OW11166   3.389   0.523   1.408  0.0567  0.3906  0.3792
 3626SOL    HW111167   3.300   0.552   1.371  1.7550  3.4225 -1.7178
 3626SOL    HW211168   3.407   0.429   1.378 -0.6196  1.1940 -2.9770
 3627SOL     OW11169   2.279   3.590   1.069  0.3503 -0.1753 -0.0335
 3627SOL    HW111170   2.308   3.533   0.992 -2.0222  0.3869 -1.4447
 3627SOL    HW211171   2.302   3.685   1.051  0.4153 -0.1323  0.2734
 3628SOL     OW11172   3.839   3.893   2.960 -0.0194  0.0746 -0.0670
 3628SOL    HW111173   3.790   3.963   3.012 -0.4739 -2.3468  3.1238
 3628SOL    HW211174   3.780   3.859   2.887 -0.9431  0.9684  0.2283
 3629SOL     OW11175   0.870   3.062   4.901  0.3073 -0.0614 -0.1788
 3629SOL    HW111176   0.902   3.135   4.840  0.7833 -1.4218 -1.6153
 3629SOL    HW211177   0.900   3.082   4.994 -0.3830  2.0325 -0.3465
 3630SOL     OW11178   4.461   4.627   1.505 -0.2327  0.6552  0.2118
 3630SOL    HW111179   4.417   4.565   1.570  1.2373 -0.1345  0.5020
 3630SOL    HW211180   4.392   4.682   1.459 -1.6790 -1.5616 -0.4362
 3631SOL     OW11181   1.427   5.153   0.510  0.0743 -0.1869 -0.5610
 3631SOL    HW111182   1.509   5.208   0.526  0.6782 -1.3837  0.6689
 3631SOL    HW211183   1.353   5.212   0.478  0.6270  1.3628  0.8866
 3632SOL     OW11184   1.745   4.443   0.882 -0.0179  0.2304  0.4746
 3632SOL    HW111185   1.805   4.384   0.936 -1.1355 -1.4210 -0.0117
 3632SOL    HW211186   1.739   4.408   0.789 -1.1408  0.7900  0.3207
 3633SOL     OW11187   4.818   4.771   2.450 -0.3336  0.1502 -0.4284
 3633SOL    HW111188   4.734   4.737   2.492 -0.3316 -0.7648 -1.1243
 3633SOL    HW211189   4.895   4.714   2.478 -0.4263 -0.8513 -2.1040
 3634SOL     OW11190   3.172   5.645   2.206 -0.4889  0.8680 -0.4704
 3634SOL    HW111191   3.116   5.584   2.262  1.5780  0.4048  1.1869
 3634SOL    HW211192   3.112   5.700   2.148 -2.5203 -2.0142 -1.3724
 3635SOL     OW11193   3.946   4.051   0.405  0.0894 -0.4311  0.6707
 3635SOL    HW111194   4.010   4.001   0.347 -0.1161  0.7415 -0.6286
 3635SOL    HW211195   3.987   4.138   0.433 -0.4066 -0.2924  0.9759
 3636SOL     OW11196   4.170   4.772   0.513  0.3305 -0.0786 -0.1045
 3636SOL    HW111197   4.112   4.804   0.438  1.6040 -0.6187 -1.3585
 3636SOL    HW211198   4.119   4.709   0.571 -0.7863  0.6409 -0.2806
 3637SOL     OW11199   2.601   5.774   0.565  0.2120 -0.3413  0.0760
 3637SOL    HW111200   2.583   5.759   0.467 -1.5519 -1.5495  0.5319
 3637SOL    HW211201   2.561   5.861   0.593  1.0776  0.2048 -0.3463
 3638SOL     OW11202   1.889   4.888   5.636 -0.1476  0.0538 -0.0260
 3638SOL    HW111203   1.917   4.902   5.732 -1.4531  3.0905  0.0262
 3638SOL    HW211204   1.958   4.928   5.576  0.8701 -2.2042 -0.4645
 3639SOL     OW11205   4.064   4.188   5.453 -0.2193  0.9589  0.7295
 3639SOL    HW111206   4.141   4.125   5.445 -1.0730  0.0872 -1.2258
 3639SOL    HW211207   3.979   4.137   5.447 -1.0128  1.8890  2.9538
 3640SOL     OW11208   3.188   4.120   1.498 -0.1330  0.0226 -0.5609
 3640SOL    HW111209   3.288   4.113   1.499 -0.1763 -0.6711 -0.7321
 3640SOL    HW211210   3.148   4.033   1.469 -0.7520  0.6491 -1.6991
 3641SOL     OW11211   2.196   3.074   5.705 -0.0782  0.4974  0.0434
 3641SOL    HW111212   2.220   3.143   5.773  0.1276  0.6237 -0.1564
 3641SOL    HW211213   2.272   3.062   5.642 -1.2128  2.3335 -1.8110
 3642SOL     OW11214   3.519   0.219   1.483  0.2923 -0.5292 -0.2377
 3642SOL    HW111215   3.475   0.131   1.463 -1.1185  0.2170 -0.5880
 3642SOL    HW211216   3.520   0.233   1.582 -0.4915 -0.4676 -0.2278
 3643SOL     OW11217   0.704   5.385   2.150  0.4603  0.6067  0.3832
 3643SOL    HW111218   0.783   5.358   2.095  1.0783 -0.3374  1.6786
 3643SOL    HW211219   0.619   5.360   2.101  0.9897 -0.7758  0.1134
 3644SOL     OW11220   2.898   2.333   1.113  0.0271 -0.3140  0.1914
 3644SOL    HW111221   2.836   2.286   1.177 -0.1766 -0.9655 -0.4676
 3644SOL    HW211222   2.847   2.357   1.030  0.2812  0.5586  0.2796
 3645SOL     OW11223   2.081   5.087   0.844  0.2341 -0.6458  0.1458
 3645SOL    HW111224   2.095   5.058   0.749  0.8327  0.3237 -0.0736
 3645SOL    HW211225   2.074   5.006   0.902  0.2970 -1.2495 -0.6577
 3646SOL     OW11226   2.284   4.237   0.138  0.2722  0.0578  0.3739
 3646SOL    HW111227   2.383   4.233   0.152  0.0870 -2.5981  1.7157
 3646SOL    HW211228   2.253   4.151   0.097 -1.2854  1.6881 -2.1506
 3647SOL     OW11229   1.599   3.683   0.673  0.0020 -0.3026 -0.3601
 3647SOL    HW111230   1.684   3.708   0.625  0.4377 -0.3684  0.3599
 3647SOL    HW211231   1.529   3.660   0.606  0.1080  1.1773 -1.0094
 3648SOL     OW11232   3.565   4.416   0.087 -0.2157 -0.2798 -0.3529
 3648SOL    HW111233   3.595   4.511   0.073  0.5707 -0.5446 -0.4963
 3648SOL    HW211234   3.477   4.403   0.041  0.1193  0.1273 -1.1387
 3649SOL     OW11235   2.678   2.814   1.131  0.3167  0.0562  0.5290
 3649SOL    HW111236   2.755   2.867   1.165  1.5710 -0.5759 -1.1885
 3649SOL    HW211237   2.708   2.721   1.110 -1.1044 -0.4293  0.5386
 3650SOL     OW11238   0.638   4.447   2.485 -0.5616  0.4350 -0.1327
 3650SOL    HW111239   0.624   4.521   2.419 -1.8297 -0.5308 -0.9782
 3650SOL    HW211240   0.648   4.360   2.437 -0.7339 -0.1862  0.9215
 3651SOL     OW11241   2.311   0.442   0.343  0.0689  0.7269 -0.0099
 3651SOL    HW111242   2.340   0.535   0.320  1.2650  0.0922 -1.2176
 3651SOL    HW211243   2.361   0.412   0.424  1.1995  0.4408 -0.7903
 3652SOL     OW11244   3.098   5.558   0.069  0.7109 -0.2268  0.4180
 3652SOL    HW111245   3.073   5.477   0.122  0.0274 -0.9612 -0.9782
 3652SOL    HW211246   3.115   5.532  -0.026  0.9076  1.2148  0.0349
 3653SOL     OW11247   2.493   4.855   5.912  0.9224  0.4154  0.1208
 3653SOL    HW111248   2.544   4.938   5.935  1.3892 -0.0117  0.6538
 3653SOL    HW211249   2.549   4.797   5.853  0.6465  0.4242 -0.1481
 3654SOL     OW11250   2.115   4.871   1.807  0.1012 -0.2375 -0.4517
 3654SOL    HW111251   2.178   4.841   1.879  1.0029 -0.8080 -1.4469
 3654SOL    HW211252   2.094   4.794   1.747 -1.9244 -0.1668  0.0894
 3655SOL     OW11253   2.959   4.223   1.522 -0.2267 -0.7184 -0.1085
 3655SOL    HW111254   3.052   4.198   1.494 -1.1012 -1.6019 -2.5452
 3655SOL    HW211255   2.921   4.151   1.581 -0.2710 -1.7345 -1.3331
 3656SOL     OW11256   2.771   4.868   0.344  0.4109 -0.1554  0.1982
 3656SOL    HW111257   2.806   4.926   0.271  1.7704 -1.2131 -0.0227
 3656SOL    HW211258   2.711   4.922   0.404 -1.5726  0.5063 -2.2224
 3657SOL     OW11259   3.739   4.949   2.068  0.4669  0.8871  0.0325
 3657SOL    HW111260   3.776   4.967   1.977 -0.8839  1.5107 -0.4147
 3657SOL    HW211261   3.813   4.921   2.129  1.0889 -1.9391 -1.8438
 3658SOL     OW11262   2.934   5.260   5.912 -0.1954  0.2891 -0.2277
 3658SOL    HW111263   2.936   5.347   5.864 -0.2575  1.1693  1.2939
 3658SOL    HW211264   2.966   5.273   6.006  3.8447 -2.0825 -1.0480
 3659SOL     OW11265   2.295   3.257   1.856  0.1877  0.6048 -0.4506
 3659SOL    HW111266   2.393   3.270   1.840  0.3325  0.2907  0.1579
 3659SOL    HW211267   2.251   3.346   1.870  0.1966  0.8361 -1.7182
 3660SOL     OW11268   2.358   5.923   2.322  0.3055  0.0460 -0.6762
 3660SOL    HW111269   2.403   5.862   2.257  1.4638 -1.6148  1.5410
 3660SOL    HW211270   2.416   6.003   2.337 -0.6920  1.2514 -2.7376
 3661SOL     OW11271   3.457   2.674   1.157 -0.2372 -0.1621 -0.0670
 3661SOL    HW111272   3.401   2.743   1.203 -0.5379 -0.0578 -0.5759
 3661SOL    HW211273   3.495   2.610   1.224  1.8011  1.7188  0.6780
 3662SOL     OW11274   1.936   4.288   4.591  0.0034 -0.0122  0.1077
 3662SOL    HW111275   1.971   4.201   4.556 -1.0895 -0.3381 -0.1907
 3662SOL    HW211276   1.984   4.363   4.547 -0.2258 -0.4397 -0.8847
 3663SOL     OW11277   1.993   1.523   5.377 -0.6957 -0.6175  0.0043
 3663SOL    HW111278   1.946   1.436   5.385  0.8196 -1.4295  0.3463
 3663SOL    HW211279   2.064   1.530   5.448  0.6959 -0.0729 -1.3968
 3664SOL     OW11280   1.449   3.014   1.987 -0.4824 -0.2069 -0.4794
 3664SOL    HW111281   1.534   3.067   1.991 -0.6902  0.0656  0.6740
 3664SOL    HW211282   1.371   3.076   1.985 -0.6691 -0.4600 -1.0490
 3665SOL     OW11283   2.701   0.263   5.435  0.0397 -0.2519  0.4049
 3665SOL    HW111284   2.747   0.270   5.346  0.6015 -0.9428  0.6348
 3665SOL    HW211285   2.764   0.224   5.502 -0.6666 -0.5707  0.8916
 3666SOL     OW11286   2.524   5.088   1.070 -0.3168 -0.0811 -0.0564
 3666SOL    HW111287   2.543   5.155   1.141 -0.0642  0.1875 -0.3771
 3666SOL    HW211288   2.431   5.101   1.037 -0.5627 -0.4400  0.4736
 3667SOL     OW11289   3.469   0.714   0.399 -0.2231 -0.1003  0.2507
 3667SOL    HW111290   3.473   0.635   0.338  1.3851 -1.2214  1.7178
 3667SOL    HW211291   3.558   0.759   0.401  0.1393 -0.8088  2.6134
 3668SOL     OW11292   5.181   4.552   1.756 -0.5325  0.2298 -0.7463
 3668SOL    HW111293   5.267   4.503   1.741  0.0758  0.8918  0.3931
 3668SOL    HW211294   5.114   4.490   1.796 -0.1921 -0.0023 -0.5289
 3669SOL     OW11295   3.350   4.787   2.829  0.2224  0.1294  0.3857
 3669SOL    HW111296   3.280   4.723   2.798 -0.1075 -0.0604  1.4769
 3669SOL    HW211297   3.433   4.737   2.852  0.8424  0.3873 -1.2085
 3670SOL     OW11298   3.252   4.189   0.672  0.2037 -0.3529 -0.0676
 3670SOL    HW111299   3.328   4.127   0.657  0.1634  0.1463 -2.8367
 3670SOL    HW211300   3.202   4.203   0.586 -1.9969  0.6642  1.2719
 3671SOL     OW11301   3.232   3.925   0.374  0.1679 -0.2633 -0.2392
 3671SOL    HW111302   3.322   3.969   0.370  0.3319 -0.6651 -1.1620
 3671SOL    HW211303   3.243   3.826   0.368 -0.1132 -0.5925  2.8374
 3672SOL     OW11304   1.117   0.322   5.116  0.3633 -0.0943 -0.1062
 3672SOL    HW111305   1.138   0.225   5.121  1.6222  0.2127  1.6675
 3672SOL    HW211306   1.117   0.352   5.020 -3.1550 -2.4108 -0.9871
 3673SOL     OW11307   2.908   3.924   4.569 -0.7879  0.6474  0.5376
 3673SOL    HW111308   2.843   3.856   4.535 -1.5203  1.0568  1.0651
 3673SOL    HW211309   2.993   3.880   4.595 -0.2305  0.2940 -1.6722
 3674SOL     OW11310   2.684   4.715   5.739 -0.1025  0.0990  0.0172
 3674SOL    HW111311   2.663   4.653   5.663 -1.2093 -0.3528  0.6764
 3674SOL    HW211312   2.737   4.793   5.704 -0.6624 -0.0538 -1.2390
 3675SOL     OW11313   2.108   4.716   1.261 -0.2513  0.2013  0.5867
 3675SOL    HW111314   2.095   4.740   1.357 -0.7011  1.1180  0.3057
 3675SOL    HW211315   2.202   4.738   1.234 -0.5268  1.2399  0.4535
 3676SOL     OW11316   4.243   4.158   1.556  0.2298  0.1078  0.8679
 3676SOL    HW111317   4.274   4.070   1.594 -0.4536 -0.0208  1.1471
 3676SOL    HW211318   4.220   4.220   1.631  0.3955  0.4088  0.6687
 3677SOL     OW11319   2.639   5.098   2.714 -0.0549 -0.0369  0.0416
 3677SOL    HW111320   2.590   5.173   2.756 -0.5655 -1.0729  1.3578
 3677SOL    HW211321   2.619   5.095   2.616 -2.1372 -0.0523  0.4341
 3678SOL     OW11322   1.764   4.328   1.339 -0.2934 -0.1852 -0.3870
 3678SOL    HW111323   1.697   4.319   1.265  0.0355 -0.4355 -0.6554
 3678SOL    HW211324   1.822   4.408   1.321 -0.4889  0.0081 -0.1746
 3679SOL     OW11325   1.477   5.416   1.358  0.2340 -0.5880  0.4702
 3679SOL    HW111326   1.394   5.451   1.314  0.7968  2.4123  1.5537
 3679SOL    HW211327   1.453   5.376   1.446 -0.1143  0.1184  0.7072
 3680SOL     OW11328   2.431   4.765   1.007 -0.6939  0.1481  0.4984
 3680SOL    HW111329   2.379   4.681   1.022 -0.7643  0.2114  0.6099
 3680SOL    HW211330   2.394   4.837   1.064  0.6541 -0.2702  1.9614
 3681SOL     OW11331   2.207   5.474   5.031 -0.1513 -0.3883  0.1562
 3681SOL    HW111332   2.282   5.529   4.995  1.2578 -1.2713  1.6116
 3681SOL    HW211333   2.148   5.531   5.088  1.4700 -0.3501  1.9085
 3682SOL     OW11334   3.027   0.326   1.559 -0.3457  0.2488  0.2168
 3682SOL    HW111335   3.102   0.366   1.612  1.2435  0.5737 -2.1367
 3682SOL    HW211336   3.018   0.229   1.581  0.6250  0.2525  0.6537
 3683SOL     OW11337   2.657   3.723   0.317  0.0608 -0.0882  0.0770
 3683SOL    HW111338   2.678   3.819   0.296  2.1494 -0.3942  0.5038
 3683SOL    HW211339   2.584   3.691   0.257 -0.6369  1.7326 -0.1290
 3684SOL     OW11340   1.961   2.515   0.055  0.4186  0.4473 -0.2017
 3684SOL    HW111341   1.987   2.612   0.058 -0.9204  0.8156  1.2577
 3684SOL    HW211342   2.043   2.458   0.062  1.0963  1.5097  1.1270
 3685SOL     OW11343   2.449   3.100   5.589  0.3814 -0.1207 -0.3621
 3685SOL    HW111344   2.478   3.194   5.571  0.0244  0.2487  0.8882
 3685SOL    HW211345   2.529   3.042   5.602  0.6025  0.0312 -1.0032
 3686SOL     OW11346   2.284   1.142   1.271  0.0721  0.3582 -0.1065
 3686SOL    HW111347   2.350   1.125   1.198 -1.0582  0.4262 -1.1839
 3686SOL    HW211348   2.205   1.192   1.233 -0.9602 -0.4106  0.9613
 3687SOL     OW11349   1.991   3.389   4.855  0.0034  0.4695  0.0652
 3687SOL    HW111350   1.908   3.333   4.859  0.3781 -0.0631  0.4419
 3687SOL    HW211351   2.034   3.391   4.945  1.9234 -1.5612 -0.7302
 3688SOL     OW11352   1.658   5.186   2.129 -0.3961 -0.4975  0.0347
 3688SOL    HW111353   1.637   5.231   2.043  1.3814  0.7668  0.2203
 3688SOL    HW211354   1.748   5.214   2.160 -0.2821 -2.2753  1.4478
 3689SOL     OW11355   3.853   4.919   5.756 -0.0735 -0.0769 -0.3566
 3689SOL    HW111356   3.827   4.873   5.671  1.5808 -0.5698 -0.6302
 3689SOL    HW211357   3.771   4.953   5.802 -1.1463 -1.2962 -1.2955
 3690SOL     OW11358   3.710   0.127   0.504 -0.5348 -0.5173  0.6711
 3690SOL    HW111359   3.633   0.191   0.510  0.0800  0.2359  0.7345
 3690SOL    HW211360   3.782   0.168   0.449  0.6411 -0.3435  2.2624
 3691SOL     OW11361   1.654   5.574   1.832  0.1024 -0.3351  0.2587
 3691SOL    HW111362   1.682   5.481   1.857  1.6802 -0.0570 -0.3579
 3691SOL    HW211363   1.654   5.583   1.733  1.5171  0.7438  0.3225
 3692SOL     OW11364   2.635   5.063  -0.017  0.1254 -0.2778  0.4583
 3692SOL    HW111365   2.726   5.021  -0.025  0.0185 -1.1308  3.0084
 3692SOL    HW211366   2.622   5.097   0.076 -2.8148 -1.7640  0.7039
 3693SOL     OW11367   3.984   4.505   2.921 -0.5173 -0.1155 -0.7932
 3693SOL    HW111368   3.996   4.604   2.917  1.5828 -0.3107 -0.7308
 3693SOL    HW211369   3.966   4.477   3.015  2.3813 -0.0367 -0.1221
 3694SOL     OW11370   2.906   3.151   0.437 -0.6883 -0.1110 -0.1213
 3694SOL    HW111371   2.898   3.210   0.517  0.5703  0.4644 -0.4036
 3694SOL    HW211372   2.930   3.205   0.357 -2.4631 -0.5980 -1.0528
 3695SOL     OW11373   0.115   5.278   0.663 -0.2375  0.3394  0.1659
 3695SOL    HW111374   0.131   5.207   0.732  1.3084 -0.6716 -1.1705
 3695SOL    HW211375   0.026   5.321   0.681  1.0165  1.7277  4.1022
 3696SOL     OW11376   3.065   4.115   0.458  0.1122  0.2208 -0.0699
 3696SOL    HW111377   3.018   4.140   0.373 -2.1069 -0.9108  0.7618
 3696SOL    HW211378   3.136   4.047   0.438 -0.8440 -0.5485 -0.9448
 3697SOL     OW11379   3.639   4.218   2.778  0.2736  0.3931 -0.1789
 3697SOL    HW111380   3.579   4.145   2.811 -2.1515  0.7949 -3.1840
 3697SOL    HW211381   3.703   4.180   2.711  0.8151  0.5768  0.2375
 3698SOL     OW11382   3.215   4.535   0.690 -0.5010  0.3036 -0.2394
 3698SOL    HW111383   3.238   4.615   0.745  0.9383  0.3034 -0.7834
 3698SOL    HW211384   3.116   4.523   0.688 -0.6347  0.7605  1.6625
 3699SOL     OW11385   1.140   4.837   0.267 -0.2046  0.2227 -0.3920
 3699SOL    HW111386   1.068   4.771   0.248  0.8226 -0.6363 -1.4685
 3699SOL    HW211387   1.224   4.789   0.291  0.1859  1.1844  0.2174
 3700SOL     OW11388   3.069   3.079   4.672  0.5828  1.0378  0.6159
 3700SOL    HW111389   3.048   3.169   4.634 -0.0933  0.1200 -1.3310
 3700SOL    HW211390   2.984   3.026   4.682  1.0373  0.3782  1.1190
 3701SOL     OW11391   4.584   4.604   0.127  0.5777 -0.0118 -0.1656
 3701SOL    HW111392   4.598   4.662   0.208 -1.0258  1.7737 -1.0822
 3701SOL    HW211393   4.669   4.555   0.107  2.4431  2.8341  0.0763
 3702SOL     OW11394   2.664   4.904   2.969 -0.2384  0.2744  0.2339
 3702SOL    HW111395   2.734   4.911   2.898  1.1807  1.5944  1.6725
 3702SOL    HW211396   2.607   4.986   2.969 -0.3021  0.2314  0.5445
 3703SOL     OW11397   1.550   4.464   2.752 -0.6674 -0.1285  0.0554
 3703SOL    HW111398   1.506   4.490   2.838  0.7451 -0.1551  0.8087
 3703SOL    HW211399   1.509   4.379   2.718 -1.3314 -0.0462  0.6368
 3704SOL     OW11400   1.797   4.292   4.277  0.5460 -0.3723 -0.2490
 3704SOL    HW111401   1.726   4.302   4.347 -0.7673  0.3756 -1.6288
 3704SOL    HW211402   1.846   4.378   4.267 -0.2910  0.0050 -1.2735
 3705SOL     OW11403   3.812   0.661   0.741 -0.0654 -0.0362 -0.2015
 3705SOL    HW111404   3.841   0.737   0.682  2.8964 -1.0934 -0.2865
 3705SOL    HW211405   3.797   0.695   0.834  0.9927  0.7291 -0.2846
 3706SOL     OW11406   3.330   4.328   0.891  0.1440  0.2912  0.2003
 3706SOL    HW111407   3.285   4.301   0.806  0.7312 -0.6765  0.1769
 3706SOL    HW211408   3.406   4.266   0.909  0.7473  1.1934  0.8365
 3707SOL     OW11409   2.642   4.662   0.188  0.4266 -0.0037 -0.3738
 3707SOL    HW111410   2.674   4.731   0.252 -1.6546  1.0174 -0.3646
 3707SOL    HW211411   2.543   4.653   0.195  0.5229 -2.2847 -1.1081
 3708SOL     OW11412   3.555   3.712   0.991 -0.5659  0.2787  0.1190
 3708SOL    HW111413   3.636   3.661   1.017 -1.6029 -0.8838  1.2166
 3708SOL    HW211414   3.551   3.719   0.891  0.4756 -0.3167  0.0233
 3709SOL     OW11415   1.830   5.480   0.355 -0.2153  0.1304  0.0938
 3709SOL    HW111416   1.753   5.471   0.293  0.2296  0.4483 -0.5188
 3709SOL    HW211417   1.916   5.477   0.303  0.1463  1.1668  0.5906
 3710SOL     OW11418   2.627   5.029   0.546 -0.1454 -0.2869  0.1077
 3710SOL    HW111419   2.591   5.050   0.637  0.7773  1.2850  0.1536
 3710SOL    HW211420   2.725   5.048   0.544 -0.0473 -0.8300 -1.0704
 3711SOL     OW11421   5.155   3.558   1.239  0.0126 -0.0235 -0.0631
 3711SOL    HW111422   5.246   3.529   1.207 -0.4861 -0.4581 -1.1379
 3711SOL    HW211423   5.090   3.550   1.164 -0.6525  1.5659  0.3089
 3712SOL     OW11424   5.853   1.892   0.525  0.7448  0.1310 -0.0636
 3712SOL    HW111425   5.805   1.971   0.563 -0.4192 -0.4265 -0.3293
 3712SOL    HW211426   5.822   1.808   0.571  1.4985 -0.2414 -0.2154
 3713SOL     OW11427   2.134   0.160   0.449 -0.5113  0.5055  0.0639
 3713SOL    HW111428   2.129   0.248   0.496 -1.5306 -0.8040  2.5812
 3713SOL    HW211429   2.078   0.163   0.366  1.7062  3.0210 -1.5217
 3714SOL     OW11430   5.588   5.419   0.180  0.2574 -0.0047  0.5863
 3714SOL    HW111431   5.674   5.471   0.174  0.0427  0.2484 -0.4222
 3714SOL    HW211432   5.580   5.357   0.102  0.1153 -0.9665  1.3494
 3715SOL     OW11433   5.102   5.359   5.266  0.0337  0.0465  1.0987
 3715SOL    HW111434   5.042   5.313   5.333  0.0734 -1.8009 -0.0697
 3715SOL    HW211435   5.048   5.423   5.212 -0.2818  0.5472  1.9930
 3716SOL     OW11436   2.178   3.712   1.797  0.1783 -0.1448  0.5618
 3716SOL    HW111437   2.106   3.754   1.742 -0.1740 -1.2849  0.1244
 3716SOL    HW211438   2.259   3.771   1.795 -0.6866  1.1103  0.9838
 3717SOL     OW11439   4.012   4.324   1.403  0.0866 -0.3573  0.4921
 3717SOL    HW111440   4.089   4.384   1.422  0.6471 -1.2739  1.2061
 3717SOL    HW211441   4.001   4.259   1.478 -0.7819 -0.8582 -0.0529
 3718SOL     OW11442   0.912   0.232   1.044 -0.0108  0.2011 -0.1860
 3718SOL    HW111443   0.931   0.260   1.138 -0.9696  0.0393  0.0586
 3718SOL    HW211444   0.888   0.312   0.990  1.7258  0.4829 -0.6165
 3719SOL     OW11445   2.925   5.502   0.486  0.7067 -0.5014 -0.3084
 3719SOL    HW111446   2.867   5.428   0.451  0.0350 -0.6424  1.0332
 3719SOL    HW211447   2.994   5.464   0.548  0.4878 -0.0320  0.2284
 3720SOL     OW11448   2.182   4.340   1.452  0.3107  0.1551 -0.4894
 3720SOL    HW111449   2.164   4.377   1.361  1.9014  0.6863 -0.6244
 3720SOL    HW211450   2.221   4.248   1.442  1.3593  0.5709 -0.4269
 3721SOL     OW11451   1.210   2.561   1.861  0.6220 -0.1182 -0.0013
 3721SOL    HW111452   1.281   2.632   1.860  0.9154 -0.3523 -2.3061
 3721SOL    HW211453   1.241   2.483   1.806 -1.0014 -0.6422 -0.2154
 3722SOL     OW11454   1.444   2.925   2.236 -0.1225  0.0313  0.4429
 3722SOL    HW111455   1.472   2.951   2.143  1.8179 -0.1225  0.9313
 3722SOL    HW211456   1.456   2.827   2.248  1.2296  0.2656  1.3051
 3723SOL     OW11457   0.873   5.864   2.334  0.4439  0.5371  0.0025
 3723SOL    HW111458   0.826   5.791   2.285 -1.1282  2.1227 -0.9782
 3723SOL    HW211459   0.972   5.849   2.331  0.1600 -1.6974  0.1474
 3724SOL     OW11460   4.538   4.594   2.774 -0.6973 -0.4666  0.1475
 3724SOL    HW111461   4.511   4.642   2.857 -1.9771 -1.0025  0.0633
 3724SOL    HW211462   4.605   4.523   2.797 -0.5138 -0.1463  0.6114
 3725SOL     OW11463   3.731   3.400   3.717  0.3783  0.4450 -0.0889
 3725SOL    HW111464   3.813   3.415   3.661  0.1655 -0.0183 -0.5302
 3725SOL    HW211465   3.689   3.313   3.691 -0.8003  1.1368 -0.5539
 3726SOL     OW11466   4.195   3.696   1.760 -0.5180 -0.4075 -0.2687
 3726SOL    HW111467   4.218   3.736   1.849 -1.0654  0.5150 -0.5221
 3726SOL    HW211468   4.097   3.674   1.758 -0.4827 -0.5360 -0.5968
 3727SOL     OW11469   2.974   5.789   3.035 -1.0025  0.0482  0.1021
 3727SOL    HW111470   3.072   5.803   3.017 -0.9906 -0.2282 -0.0543
 3727SOL    HW211471   2.930   5.878   3.047 -0.5612  0.1557  1.1005
 3728SOL     OW11472   2.170   5.346   3.718 -0.3221  0.1786  0.4290
 3728SOL    HW111473   2.087   5.309   3.759 -0.6207  0.9673  0.5615
 3728SOL    HW211474   2.190   5.436   3.759 -0.7011  1.0544 -1.2315
 3729SOL     OW11475   3.127   3.870   1.908  0.3472 -1.3260 -0.1090
 3729SOL    HW111476   3.048   3.909   1.956  1.2741  2.1471 -1.1017
 3729SOL    HW211477   3.167   3.797   1.963 -1.9282 -1.3557  1.6571
 3730SOL     OW11478   3.010   4.399   3.572  0.2947  0.0996  0.8846
 3730SOL    HW111479   3.014   4.463   3.649 -0.1272 -1.0753  1.9180
 3730SOL    HW211480   2.922   4.411   3.525  0.2780  0.3793  0.9793
 3731SOL     OW11481   3.937   4.875   2.612  0.5120  0.4610  0.2435
 3731SOL    HW111482   3.863   4.907   2.673  0.6164  1.8319 -0.3052
 3731SOL    HW211483   4.020   4.860   2.665  0.1889  0.1770  0.6713
 3732SOL     OW11484   4.924   0.599   4.115  0.5302 -0.2326 -0.0853
 3732SOL    HW111485   5.006   0.543   4.126  0.4363 -0.8239 -2.0612
 3732SOL    HW211486   4.842   0.543   4.129  0.4454 -0.4644 -1.3952
 3733SOL     OW11487   1.221   4.864   3.059 -0.0237  0.0138 -0.3622
 3733SOL    HW111488   1.245   4.865   2.962 -0.7712 -0.3354 -0.5595
 3733SOL    HW211489   1.128   4.831   3.070  0.5925 -1.4957  0.6012
 3734SOL     OW11490   3.791   5.159   2.621  0.1290  0.0238  0.2779
 3734SOL    HW111491   3.759   5.067   2.643  0.6398  0.5297  3.8269
 3734SOL    HW211492   3.833   5.200   2.703 -1.5579  4.0141 -0.6099
 3735SOL     OW11493   1.916   5.138   2.608  0.3809 -0.1344 -0.5782
 3735SOL    HW111494   1.848   5.166   2.540 -0.0989  0.2235  0.0343
 3735SOL    HW211495   2.006   5.172   2.580  0.0277  0.8563 -0.5473
 3736SOL     OW11496   1.880   1.293   3.568  0.6170  0.4184 -0.4876
 3736SOL    HW111497   1.952   1.266   3.504  1.4354  2.4684 -0.5043
 3736SOL    HW211498   1.831   1.372   3.531 -0.8731 -0.2000  0.0881
 3737SOL     OW11499   1.007   5.744   1.935  0.1999 -0.1511  0.7639
 3737SOL    HW111500   1.019   5.649   1.965  0.9805 -0.8279 -1.4523
 3737SOL    HW211501   1.090   5.774   1.889 -1.3077  0.2889 -1.8437
 3738SOL     OW11502   1.312   4.496   3.464 -0.5582 -0.3331 -0.0081
 3738SOL    HW111503   1.287   4.538   3.377 -0.2466 -0.8194 -0.3385
 3738SOL    HW211504   1.269   4.406   3.471 -1.5429  0.1786  0.8662
 3739SOL     OW11505   2.389   5.870   2.011  0.2066 -0.2941 -0.1217
 3739SOL    HW111506   2.472   5.924   1.996 -1.1037  1.2640 -2.3109
 3739SOL    HW211507   2.362   5.825   1.926 -1.8204  0.1893  0.2023
 3740SOL     OW11508   2.538   3.610   1.809 -0.2631  0.2547  0.3672
 3740SOL    HW111509   2.634   3.637   1.817 -0.1045 -0.3619  0.6182
 3740SOL    HW211510   2.501   3.643   1.722  0.3577 -0.0497 -0.0211
 3741SOL     OW11511   3.385   4.681   2.246 -0.0650  0.7647 -0.1719
 3741SOL    HW111512   3.372   4.647   2.153 -0.7179  0.6288 -0.0367
 3741SOL    HW211513   3.296   4.693   2.290  0.2617 -0.1762  0.7961
 3742SOL     OW11514   1.409   4.786   1.122 -0.4927 -0.1461  0.3192
 3742SOL    HW111515   1.363   4.712   1.171 -1.2704 -0.5529 -0.9565
 3742SOL    HW211516   1.476   4.747   1.059 -1.4180  0.1581 -0.8857
 3743SOL     OW11517   4.878   5.584   1.759 -0.8062 -0.5723 -0.0946
 3743SOL    HW111518   4.831   5.500   1.788 -1.0367  0.4434  2.8604
 3743SOL    HW211519   4.848   5.660   1.817  1.6563  0.9101 -0.6262
 3744SOL     OW11520   3.102   4.898   0.913  0.0437  0.5015  0.2129
 3744SOL    HW111521   3.171   4.845   0.864  0.6700  1.3592  0.1458
 3744SOL    HW211522   3.021   4.909   0.855 -0.3469 -0.9086  0.4706
 3745SOL     OW11523   2.607   4.502   2.752 -0.0506  0.2751  0.0746
 3745SOL    HW111524   2.531   4.567   2.746  0.3363  0.7268 -0.0125
 3745SOL    HW211525   2.613   4.466   2.845  1.4365  2.4763  0.9164
 3746SOL     OW11526   2.874   5.744   0.622 -0.6333 -0.0849 -0.3147
 3746SOL    HW111527   2.880   5.692   0.537 -1.2495  0.1492 -0.5056
 3746SOL    HW211528   2.779   5.761   0.644 -0.5033 -0.6076  0.7173
 3747SOL     OW11529   2.491   3.439   3.098 -0.2521  0.0187  0.2569
 3747SOL    HW111530   2.566   3.471   3.156 -1.6359 -0.6396  2.4978
 3747SOL    HW211531   2.427   3.514   3.083  0.4359  0.3851 -1.0946
 3748SOL     OW11532   1.492   3.946   3.130  0.0114 -0.7645  0.3980
 3748SOL    HW111533   1.583   3.906   3.121 -0.5251 -2.4265  1.7275
 3748SOL    HW211534   1.424   3.873   3.132 -1.1162  0.2627  2.0490
 3749SOL     OW11535   3.296   3.665   2.076  0.3743  0.3327 -0.6016
 3749SOL    HW111536   3.376   3.651   2.135 -0.6166  0.9824  0.9758
 3749SOL    HW211537   3.218   3.613   2.113 -1.1060  3.1183  0.5490
 3750SOL     OW11538   2.614   4.191   2.161  0.2441 -0.2552  0.0784
 3750SOL    HW111539   2.649   4.271   2.211 -1.8520  0.8995 -0.1905
 3750SOL    HW211540   2.526   4.164   2.200  0.7718 -2.2811 -0.0490
 3751SOL     OW11541   3.579   3.774   3.261  0.3845 -0.1508  0.2154
 3751SOL    HW111542   3.515   3.845   3.288  0.1662 -0.3455  0.2179
 3751SOL    HW211543   3.659   3.775   3.322  1.1478  1.1230 -0.7523
 3752SOL     OW11544   3.067   4.756   2.603 -0.3001 -0.3698 -0.1416
 3752SOL    HW111545   3.141   4.820   2.582  0.4901 -1.4855 -0.8953
 3752SOL    HW211546   3.090   4.703   2.684 -0.8599  0.1395  0.3609
 3753SOL     OW11547   1.749   5.691   1.357  0.0141 -0.1533 -0.1828
 3753SOL    HW111548   1.685   5.764   1.333 -0.7240 -0.8906 -0.5050
 3753SOL    HW211549   1.813   5.676   1.282  0.9134  0.9215  0.3329
 3754SOL     OW11550   3.002   4.229   4.320  0.2764  0.1765 -0.2578
 3754SOL    HW111551   3.021   4.327   4.320 -0.8469  0.4106 -1.3049
 3754SOL    HW211552   2.951   4.205   4.402  1.3042  0.2927  0.4367
 3755SOL     OW11553   4.285   5.804   3.209 -0.1410  0.2888 -0.2847
 3755SOL    HW111554   4.250   5.711   3.200 -0.2615 -0.0444  2.5768
 3755SOL    HW211555   4.241   5.848   3.288 -0.4345  2.9786 -1.8276
 3756SOL     OW11556   3.454   4.857   3.345 -0.1406  0.4809 -0.0234
 3756SOL    HW111557   3.548   4.868   3.377  0.0529  1.1626 -0.7824
 3756SOL    HW211558   3.400   4.810   3.415  1.3522 -2.2339 -0.5625
 3757SOL     OW11559   1.648   4.954   1.781  0.0765 -0.3213 -0.3092
 3757SOL    HW111560   1.662   4.929   1.876  0.0709 -0.9417 -0.4665
 3757SOL    HW211561   1.551   4.973   1.766  0.2410  0.9210  0.0649
 3758SOL     OW11562   3.435   4.976   4.578  0.0997 -0.3257 -0.6259
 3758SOL    HW111563   3.378   4.997   4.499 -1.3161  1.2753  0.7512
 3758SOL    HW211564   3.463   5.061   4.623  2.6791 -1.0982 -0.5780
 3759SOL     OW11565   3.614   0.028   2.996 -0.4070 -0.0802 -0.0565
 3759SOL    HW111566   3.650   0.119   3.015 -0.6887  0.1167 -0.4623
 3759SOL    HW211567   3.636  -0.033   3.073  0.1510  0.2183  0.0235
 3760SOL     OW11568   2.643   5.071   4.064 -0.2479  0.1164  0.3445
 3760SOL    HW111569   2.735   5.102   4.086 -0.0768  0.0452 -0.2380
 3760SOL    HW211570   2.616   4.998   4.126  0.5390 -0.6497 -0.1863
 3761SOL     OW11571   4.462   0.530   2.329 -0.1551 -0.0821  0.3204
 3761SOL    HW111572   4.447   0.595   2.255 -0.7405 -1.6226 -0.9727
 3761SOL    HW211573   4.395   0.547   2.402 -0.2009  0.8220  0.0861
 3762SOL     OW11574   2.644   5.088   4.724 -0.5065  0.0580 -0.0006
 3762SOL    HW111575   2.605   5.014   4.669  0.1359  1.0282 -1.8579
 3762SOL    HW211576   2.706   5.142   4.667  0.2578  1.0853  1.7398
 3763SOL     OW11577   4.296   1.063   3.343 -0.1468  0.0456 -0.0622
 3763SOL    HW111578   4.291   1.162   3.352  1.6060  0.1883 -0.2813
 3763SOL    HW211579   4.371   1.039   3.282  0.0735 -1.4436  0.7501
 3764SOL     OW11580   1.497   4.852   3.430  0.1374 -0.1600  0.1217
 3764SOL    HW111581   1.491   4.797   3.346 -0.0278 -1.6797  1.0795
 3764SOL    HW211582   1.591   4.879   3.446  0.6741 -2.2509  0.8507
 3765SOL     OW11583   2.822   5.336   2.647 -0.7100 -0.1015  0.1650
 3765SOL    HW111584   2.916   5.319   2.677 -0.1734 -0.0416 -1.4207
 3765SOL    HW211585   2.763   5.263   2.681  0.1095 -0.7638  0.2175
 3766SOL     OW11586   3.500   4.485   3.599 -0.7252  0.1160 -0.0835
 3766SOL    HW111587   3.438   4.423   3.648  0.7382 -0.9200  0.5121
 3766SOL    HW211588   3.580   4.435   3.568 -0.3203  1.3619 -1.1585
 3767SOL     OW11589   3.688   4.676   0.067  0.1888 -0.4294  0.2902
 3767SOL    HW111590   3.758   4.657   0.136  0.6671  1.1090  0.2664
 3767SOL    HW211591   3.637   4.758   0.094 -1.3269 -1.2872  0.0860
 3768SOL     OW11592   3.718   3.437   5.005 -0.2453  0.3106  0.0131
 3768SOL    HW111593   3.626   3.402   5.021 -0.8671  1.9439  0.2292
 3768SOL    HW211594   3.721   3.484   4.916  0.2750  0.5500  0.1529
 3769SOL     OW11595   2.595   4.417   3.016 -0.2672  0.0703  0.2531
 3769SOL    HW111596   2.561   4.355   3.088  0.2998 -1.2779 -0.5884
 3769SOL    HW211597   2.621   4.504   3.057  2.4491 -1.4759  2.1983
 3770SOL     OW11598   1.930   3.646   1.208 -0.3864 -0.1574  0.3303
 3770SOL    HW111599   1.956   3.602   1.294  0.0361 -0.8725 -0.1550
 3770SOL    HW211600   1.988   3.726   1.192  0.9193 -1.1940 -0.2779
 3771SOL     OW11601   3.564   0.984   2.019  0.1749  0.7926  0.3791
 3771SOL    HW111602   3.587   1.065   2.073 -1.3535  0.9992  0.7791
 3771SOL    HW211603   3.613   0.986   1.932  1.4880  1.2470  1.1078
 3772SOL     OW11604   3.935   5.009   3.351 -0.1044 -1.2638  0.2957
 3772SOL    HW111605   4.012   4.980   3.408 -0.1054 -0.6414  0.6163
 3772SOL    HW211606   3.850   4.976   3.391 -0.3647  1.4825  2.2277
 3773SOL     OW11607   3.631   4.761   1.438  0.6216  0.1850  0.2742
 3773SOL    HW111608   3.589   4.852   1.446  0.1137 -0.0642  0.4970
 3773SOL    HW211609   3.723   4.764   1.476 -0.2485  0.0481  2.5855
 3774SOL     OW11610   2.896   5.387   3.589 -0.6500  0.2250  0.0140
 3774SOL    HW111611   2.859   5.357   3.501  0.2130  0.3256 -0.3949
 3774SOL    HW211612   2.901   5.310   3.651  0.2742 -0.2094 -0.5790
 3775SOL     OW11613   2.880   4.476   2.732 -0.1644 -0.1375 -0.7091
 3775SOL    HW111614   2.923   4.558   2.771 -1.8808  0.2963  0.3399
 3775SOL    HW211615   2.781   4.480   2.746 -0.5063 -1.4754 -2.3889
 3776SOL     OW11616   4.428   3.007   3.113  0.2849 -0.6751  0.2975
 3776SOL    HW111617   4.461   2.995   3.206  0.1524 -0.5500  0.3612
 3776SOL    HW211618   4.328   3.011   3.113  0.3137  1.6641  0.4478
 3777SOL     OW11619   3.359   0.041   4.358  0.3138 -0.4473  0.2180
 3777SOL    HW111620   3.272   0.050   4.310  0.0571 -0.0856  0.7316
 3777SOL    HW211621   3.431   0.089   4.308 -0.0140  0.1899  0.3475
 3778SOL     OW11622   3.215   3.648   1.330 -0.6001 -0.4384 -0.2121
 3778SOL    HW111623   3.303   3.628   1.373 -0.7465 -1.3694 -0.3111
 3778SOL    HW211624   3.223   3.635   1.231  0.2116  3.3673 -0.7809
 3779SOL     OW11625   3.259   5.612   4.937  0.0598 -0.3092  0.0225
 3779SOL    HW111626   3.295   5.690   4.989 -0.8046 -0.0669  0.2751
 3779SOL    HW211627   3.276   5.527   4.988 -0.9836 -0.0500  0.8280
 3780SOL     OW11628   2.269   5.700   0.562 -0.6704 -0.5279 -0.4875
 3780SOL    HW111629   2.364   5.700   0.528  0.8303  0.5103  3.1998
 3780SOL    HW211630   2.248   5.790   0.600 -2.4092 -1.3565  0.6137
 3781SOL     OW11631   2.466   4.956   2.241 -0.0473 -0.0543 -0.0383
 3781SOL    HW111632   2.522   4.886   2.285  1.2713 -1.1759 -3.1979
 3781SOL    HW211633   2.525   5.028   2.205 -0.7759 -0.3145 -1.8287
 3782SOL     OW11634   0.452   0.122   2.348 -0.2826  0.3620  0.1605
 3782SOL    HW111635   0.545   0.108   2.315 -0.5612  0.6295 -0.7723
 3782SOL    HW211636   0.455   0.154   2.443  0.5147 -1.1024  0.6604
 3783SOL     OW11637   1.214   0.570   2.826 -0.2510 -0.2246 -0.2874
 3783SOL    HW111638   1.256   0.648   2.874  0.0615 -1.1720  1.0306
 3783SOL    HW211639   1.119   0.592   2.803 -0.2676  0.4287  0.3670
 3784SOL     OW11640   3.079   4.138   5.874  0.0338 -0.0203  0.0788
 3784SOL    HW111641   3.055   4.095   5.787 -1.0889 -1.6338  1.1222
 3784SOL    HW211642   3.030   4.225   5.882  0.4375  0.3293 -1.0390
 3785SOL     OW11643   3.728   4.636   4.402 -0.2224  0.4500  0.6938
 3785SOL    HW111644   3.715   4.730   4.432  0.7426  0.5130  0.9575
 3785SOL    HW211645   3.640   4.595   4.379 -0.6420  1.4239  0.5471
 3786SOL     OW11646   1.003   4.087   3.086  0.2247 -0.1997 -0.2995
 3786SOL    HW111647   1.072   4.143   3.041  0.8920  0.8519  1.9067
 3786SOL    HW211648   0.998   3.998   3.040  2.9959 -0.2833 -0.6035
 3787SOL     OW11649   3.273   3.744   3.054  0.5013 -0.1182 -0.3381
 3787SOL    HW111650   3.196   3.756   2.992 -1.0228 -1.4038  1.2116
 3787SOL    HW211651   3.352   3.794   3.019 -0.8767  0.8605 -2.2160
 3788SOL     OW11652   2.466   5.666   4.178  0.2205 -0.3325 -0.0475
 3788SOL    HW111653   2.392   5.607   4.146 -1.4646  1.5390  0.1684
 3788SOL    HW211654   2.511   5.709   4.099 -1.2406  1.1498 -0.1226
 3789SOL     OW11655   3.499   3.709   1.446  0.0689 -0.1251  0.0673
 3789SOL    HW111656   3.554   3.773   1.392 -0.9513  1.8732  1.2320
 3789SOL    HW211657   3.532   3.708   1.540 -0.9770  0.0257  0.4574
 3790SOL     OW11658   1.450   3.172   2.330  0.2221  0.3893 -0.0498
 3790SOL    HW111659   1.495   3.147   2.416 -0.7738  0.5856  0.5408
 3790SOL    HW211660   1.423   3.089   2.281  1.0272  0.2721 -0.3168
 3791SOL     OW11661   2.593   3.992   0.929 -0.7022  0.2589 -0.1262
 3791SOL    HW111662   2.621   3.997   0.833 -0.1292  0.6793  0.0526
 3791SOL    HW211663   2.659   3.937   0.980 -2.0730 -1.6521 -0.3317
 3792SOL     OW11664   2.393   3.899   1.858 -0.1251 -0.0571  0.2552
 3792SOL    HW111665   2.420   3.971   1.794  0.6574  0.1691  0.8302
 3792SOL    HW211666   2.357   3.940   1.942 -2.1585 -0.3467 -0.4235
 3793SOL     OW11667   3.164   0.825   3.661  0.4260 -0.3458 -0.1539
 3793SOL    HW111668   3.192   0.830   3.757 -0.9655  2.1764  0.2244
 3793SOL    HW211669   3.243   0.841   3.602  1.2959 -1.9024  0.5437
 3794SOL     OW11670   1.241   3.945   1.945 -0.6944 -0.3884 -0.4844
 3794SOL    HW111671   1.200   3.940   1.854  0.4417 -3.1219 -0.9134
 3794SOL    HW211672   1.188   3.888   2.009 -1.8095  1.9189  0.8045
 3795SOL     OW11673   1.241   4.240   1.847 -0.1057 -0.2654  0.1556
 3795SOL    HW111674   1.227   4.157   1.792  0.5684  0.1944 -0.7436
 3795SOL    HW211675   1.333   4.275   1.830 -0.7215  1.2150 -0.2360
 3796SOL     OW11676   4.326   5.807   2.641  0.3223 -0.2985  0.2604
 3796SOL    HW111677   4.257   5.785   2.571 -0.0747 -0.6124  0.7416
 3796SOL    HW211678   4.300   5.764   2.728  0.8930 -0.0420  0.5626
 3797SOL     OW11679   2.492   5.301   2.818 -0.2201  0.3941  0.0616
 3797SOL    HW111680   2.530   5.282   2.908 -0.5579 -0.9057 -0.0413
 3797SOL    HW211681   2.400   5.338   2.828  0.3055  1.6973  0.2647
 3798SOL     OW11682   1.068   5.564   2.405  0.0635 -0.3811  0.5235
 3798SOL    HW111683   0.973   5.533   2.405  0.4698 -1.7005 -0.7827
 3798SOL    HW211684   1.119   5.514   2.475 -0.1219  0.1047  1.0126
 3799SOL     OW11685   1.246   5.475   1.245  0.6507  0.5238  0.0320
 3799SOL    HW111686   1.185   5.449   1.319  0.9670  1.2204  0.5457
 3799SOL    HW211687   1.195   5.472   1.158 -0.0176  0.7516  0.4069
 3800SOL     OW11688   1.507   4.246   0.111  0.1292 -0.4567 -0.1973
 3800SOL    HW111689   1.480   4.215   0.202  1.2063  1.1886  0.7379
 3800SOL    HW211690   1.588   4.197   0.081  1.2560  0.6890  0.8516
 3801SOL     OW11691   3.397   3.964   3.351  0.1778  0.5033 -0.1735
 3801SOL    HW111692   3.372   4.058   3.326 -1.6870  1.2219  3.6339
 3801SOL    HW211693   3.321   3.903   3.333  0.5170  0.1582 -0.4523
 3802SOL     OW11694   1.995   3.201   2.474 -0.4079 -0.0079  0.1649
 3802SOL    HW111695   2.066   3.271   2.472 -0.0028 -0.4099  0.3117
 3802SOL    HW211696   1.996   3.155   2.562 -0.4827 -0.3928 -0.0345
 3803SOL     OW11697   0.951   5.420   3.299 -0.0888 -0.5900  0.4358
 3803SOL    HW111698   0.931   5.511   3.264 -0.2623 -1.2461 -1.2418
 3803SOL    HW211699   0.887   5.354   3.260  2.6706 -2.1142 -1.9234
 3804SOL     OW11700   2.988   3.993   3.545 -0.0434 -0.1262 -0.5243
 3804SOL    HW111701   3.031   3.903   3.544 -2.1966 -1.2082 -0.0244
 3804SOL    HW211702   2.889   3.984   3.532 -0.3818  2.1360 -0.0309
 3805SOL     OW11703   2.977   0.045   1.497  0.2500 -0.2941 -0.3613
 3805SOL    HW111704   2.896  -0.009   1.473 -0.5515  0.8789 -0.3802
 3805SOL    HW211705   3.045  -0.015   1.541 -0.5714 -1.3177 -0.4329
 3806SOL     OW11706   2.374   4.103   3.042 -0.1140  0.2492  0.0833
 3806SOL    HW111707   2.339   4.178   2.985 -1.4233  1.9688  2.9181
 3806SOL    HW211708   2.442   4.139   3.106  0.9428 -1.5104  0.0164
 3807SOL     OW11709   3.965   5.148   3.829  0.5183 -0.1337  0.3899
 3807SOL    HW111710   3.964   5.233   3.882 -0.4977 -1.5088  2.7409
 3807SOL    HW211711   3.872   5.117   3.814  0.8669 -2.1720  1.9784
 3808SOL     OW11712   2.228   0.012   0.661  0.2231  0.0405  0.3416
 3808SOL    HW111713   2.179   0.061   0.588  0.5182  1.6427  1.1857
 3808SOL    HW211714   2.161  -0.028   0.724 -0.0225  0.4632  0.3550
 3809SOL     OW11715   3.477   4.554   0.938 -0.1228 -0.7620  0.3180
 3809SOL    HW111716   3.410   4.487   0.904 -0.8795 -0.5304  1.3281
 3809SOL    HW211717   3.437   4.606   1.013  1.4812 -1.1756  1.4963
 3810SOL     OW11718   2.558   3.218   2.545  0.4810 -0.2658  0.4913
 3810SOL    HW111719   2.645   3.261   2.568  1.1543 -0.9791 -0.5788
 3810SOL    HW211720   2.483   3.269   2.587  1.1456  2.4266 -1.3287
 3811SOL     OW11721   2.797   4.149   1.735  0.0696  0.3164  0.1148
 3811SOL    HW111722   2.700   4.175   1.729 -0.5173 -1.4118  1.3515
 3811SOL    HW211723   2.806   4.050   1.729  1.9855  0.5228 -1.7933
 3812SOL     OW11724   1.518   4.725   2.366  0.2964  0.5222  0.1494
 3812SOL    HW111725   1.555   4.632   2.369  0.7237  0.6208 -1.3770
 3812SOL    HW211726   1.427   4.726   2.407  1.0631 -0.1477  1.9936
 3813SOL     OW11727   3.029   5.311   4.066  0.0943  0.2057 -0.2616
 3813SOL    HW111728   2.962   5.384   4.080  0.0520  0.2355 -0.6208
 3813SOL    HW211729   3.016   5.240   4.136  0.0065  0.4455 -0.0362
 3814SOL     OW11730   4.585   4.391   2.430  0.1931 -0.4697 -0.4236
 3814SOL    HW111731   4.488   4.367   2.439  0.0764  0.3247  0.7960
 3814SOL    HW211732   4.602   4.430   2.340 -0.8539  0.3012 -0.3082
 3815SOL     OW11733   3.281   1.557   3.767 -0.6740 -0.4817  0.3923
 3815SOL    HW111734   3.250   1.465   3.743  0.3097 -0.6828 -0.1637
 3815SOL    HW211735   3.340   1.593   3.694 -0.1383  0.1335  1.1079
 3816SOL     OW11736   4.509   5.201   2.963 -0.9867 -0.1695 -0.5863
 3816SOL    HW111737   4.414   5.210   2.933 -0.4852  1.0735 -1.8730
 3816SOL    HW211738   4.512   5.140   3.043 -2.6635 -1.4776 -1.4492
 3817SOL     OW11739   3.357   4.231   3.292  0.2998 -0.4440  0.3220
 3817SOL    HW111740   3.422   4.303   3.268  0.0185  0.1886  1.3663
 3817SOL    HW211741   3.323   4.247   3.385 -1.9299 -0.2845 -0.4501
 3818SOL     OW11742   2.527   3.443   3.843  0.1208  0.4669  0.6749
 3818SOL    HW111743   2.582   3.367   3.806 -1.2803 -0.8233  1.1621
 3818SOL    HW211744   2.557   3.529   3.801  0.3171 -0.6193 -1.5466
 3819SOL     OW11745   3.660   5.316   0.120  0.0351  0.0008 -0.1946
 3819SOL    HW111746   3.616   5.366   0.045 -1.7889  0.5639  1.1767
 3819SOL    HW211747   3.600   5.318   0.200  1.5184 -1.3878  0.9949
 3820SOL     OW11748   2.424   5.470   0.180 -0.3865  0.0086 -0.4136
 3820SOL    HW111749   2.414   5.374   0.205 -0.3362  0.0290 -0.3117
 3820SOL    HW211750   2.521   5.492   0.171 -0.3891  0.1045 -0.2173
 3821SOL     OW11751   2.483   5.049   5.232  0.2331 -0.1661  0.0442
 3821SOL    HW111752   2.385   5.031   5.240  0.3696 -0.8070  0.3445
 3821SOL    HW211753   2.507   5.060   5.136 -0.2414  0.6605  0.0080
 3822SOL     OW11754   1.728   4.826   3.664 -0.1735 -0.3459  0.1146
 3822SOL    HW111755   1.729   4.902   3.599 -1.0946  1.0057  1.6044
 3822SOL    HW211756   1.761   4.858   3.752  0.9937 -2.1253  0.3782
 3823SOL     OW11757   3.185   5.078   0.629  0.3649  0.4293  0.0014
 3823SOL    HW111758   3.171   4.992   0.579 -0.5217  1.4131 -1.5129
 3823SOL    HW211759   3.259   5.066   0.695 -0.8706 -2.0068  1.0872
 3824SOL     OW11760   3.820   0.618   2.640 -0.2298 -0.2955 -0.5070
 3824SOL    HW111761   3.749   0.567   2.593 -0.3910 -1.3713  0.8205
 3824SOL    HW211762   3.865   0.558   2.707  1.3209  0.6079 -0.6950
 3825SOL     OW11763   2.593   4.467   0.885  0.0675  0.6349 -0.2736
 3825SOL    HW111764   2.500   4.502   0.887 -0.2357 -0.1443  2.0605
 3825SOL    HW211765   2.644   4.503   0.963  1.0574 -0.6438 -0.2941
 3826SOL     OW11766   3.984   1.049   3.252 -0.6610  0.4066  0.0580
 3826SOL    HW111767   4.055   1.016   3.314  0.2839  0.2437 -1.0904
 3826SOL    HW211768   4.023   1.065   3.162 -2.3126 -0.8039 -0.9292
 3827SOL     OW11769   1.043   2.828   3.537 -0.2570  0.3703 -0.7204
 3827SOL    HW111770   1.035   2.892   3.461 -1.4502  1.0855 -0.0163
 3827SOL    HW211771   1.010   2.738   3.509 -3.4279  1.2892 -0.2866
 3828SOL     OW11772   2.021   4.408   3.009  0.2082  0.1187  0.1505
 3828SOL    HW111773   2.103   4.379   2.960 -0.1178 -0.5365 -0.0253
 3828SOL    HW211774   1.943   4.406   2.947 -0.1908 -0.6250  0.6600
 3829SOL     OW11775   2.821   4.466   1.136  0.4921 -0.5983  0.7479
 3829SOL    HW111776   2.779   4.556   1.129 -0.7756 -1.0455  1.9702
 3829SOL    HW211777   2.909   4.466   1.089 -0.5311  0.5962 -1.3189
 3830SOL     OW11778   3.061   3.731   2.883 -0.2826  0.6116  0.2385
 3830SOL    HW111779   2.985   3.682   2.925 -0.3026 -0.5909 -1.1177
 3830SOL    HW211780   3.027   3.796   2.815 -0.1116  0.1639 -0.2801
 3831SOL     OW11781   2.792   3.998   1.465 -0.1748  0.2512 -0.3853
 3831SOL    HW111782   2.863   3.969   1.401  2.2185  1.8265  1.3479
 3831SOL    HW211783   2.805   3.951   1.552 -1.9353 -0.1536 -0.3088
 3832SOL     OW11784   4.565   5.177   2.688  0.0892 -0.1824  0.3133
 3832SOL    HW111785   4.563   5.187   2.787 -0.8180  0.8638  0.2107
 3832SOL    HW211786   4.521   5.091   2.662 -2.5235  0.9279  0.7077
 3833SOL     OW11787   3.025   4.991   3.830  0.0690  0.5948 -0.5142
 3833SOL    HW111788   3.072   5.073   3.797  2.4418 -0.8171 -0.9002
 3833SOL    HW211789   3.011   4.928   3.754 -0.5783  0.1059  0.0010
 3834SOL     OW11790   2.213   5.805   2.940 -0.6572 -0.2416 -0.7744
 3834SOL    HW111791   2.148   5.739   2.901 -0.0776 -0.0599 -2.1087
 3834SOL    HW211792   2.179   5.898   2.922 -1.1905 -0.1441  0.6096
 3835SOL     OW11793   2.994   3.800   2.290 -0.0322  0.1101 -0.2816
 3835SOL    HW111794   3.063   3.800   2.362 -0.6610 -2.3711  0.4207
 3835SOL    HW211795   2.919   3.860   2.315 -0.3682 -0.9212  1.3011
 3836SOL     OW11796   3.706   4.073   0.260  0.1813 -0.4531 -0.5270
 3836SOL    HW111797   3.782   4.067   0.325  1.1444 -2.0777 -1.7254
 3836SOL    HW211798   3.726   4.142   0.191 -0.1903  0.2549  0.0581
 3837SOL     OW11799   2.136   5.083   3.493 -0.2669  0.0746  0.1647
 3837SOL    HW111800   2.088   5.083   3.405 -0.5305  1.5878  0.2799
 3837SOL    HW211801   2.235   5.078   3.478 -0.0409  3.5505 -0.4935
 3838SOL     OW11802   2.500   0.370   2.751 -0.0976 -0.2584  0.1243
 3838SOL    HW111803   2.426   0.303   2.744  0.5887 -1.3126  2.1363
 3838SOL    HW211804   2.475   0.441   2.817 -0.6183  1.2521 -1.6356
 3839SOL     OW11805   1.472   3.256   4.065 -0.2587 -0.1328  1.1470
 3839SOL    HW111806   1.426   3.257   3.976  1.3371 -1.4594  0.2653
 3839SOL    HW211807   1.426   3.320   4.126 -1.0384  1.2681 -0.8004
 3840SOL     OW11808   3.211   4.489   4.604 -0.1782  1.1431 -0.4307
 3840SOL    HW111809   3.231   4.587   4.610 -1.2256  1.4639 -1.7600
 3840SOL    HW211810   3.141   4.473   4.535  0.1229 -0.5837 -0.3855
 3841SOL     OW11811   3.414   4.625   2.603 -0.9107 -0.1275  0.1220
 3841SOL    HW111812   3.483   4.570   2.650 -0.8636 -1.2004 -1.1322
 3841SOL    HW211813   3.437   4.722   2.610  0.0986 -0.3974  0.6906
 3842SOL     OW11814   1.373   4.695   3.648 -0.1355  0.2284  0.5787
 3842SOL    HW111815   1.350   4.602   3.619 -0.5218  0.3938  0.3300
 3842SOL    HW211816   1.411   4.745   3.570  1.6642 -0.2185  1.1403
 3843SOL     OW11817   3.122   5.256   2.417  0.7113 -0.2342  0.2865
 3843SOL    HW111818   3.178   5.223   2.493  2.0856  0.6998 -0.2761
 3843SOL    HW211819   3.148   5.208   2.333 -0.6382 -1.0953  0.3294
 3844SOL     OW11820   1.169   4.460   2.633  0.1103  0.5722  0.1874
 3844SOL    HW111821   1.184   4.557   2.650 -1.6169  0.8753  0.1350
 3844SOL    HW211822   1.100   4.425   2.697  1.9444 -1.0690  1.4053
 3845SOL     OW11823   3.710   4.925   3.471 -0.3196 -0.3921  0.0925
 3845SOL    HW111824   3.677   4.837   3.506 -0.5635 -0.2625  0.1876
 3845SOL    HW211825   3.681   4.998   3.533  0.1483 -0.2780  0.1819
 3846SOL     OW11826   2.197   5.568   4.124  0.5217  0.1962  0.4116
 3846SOL    HW111827   2.206   5.475   4.159  0.5995 -0.2257 -0.6933
 3846SOL    HW211828   2.130   5.619   4.179  2.0476  0.1816  2.3756
 3847SOL     OW11829   1.939   3.102   0.329 -0.0062 -0.2523 -0.7796
 3847SOL    HW111830   1.962   3.178   0.390  0.4875 -1.3848  0.4922
 3847SOL    HW211831   1.987   3.020   0.359 -0.2991 -1.0164 -2.3050
 3848SOL     OW11832   4.410   2.799   3.515  0.3334  0.1935 -0.1765
 3848SOL    HW111833   4.466   2.848   3.582 -0.6337 -0.6552  1.3100
 3848SOL    HW211834   4.314   2.825   3.528  0.1668  0.3123 -1.5226
 3849SOL     OW11835   3.507   2.947   3.568  0.3266 -0.1411 -0.2497
 3849SOL    HW111836   3.421   2.907   3.600  0.5021  0.1397  0.5876
 3849SOL    HW211837   3.502   2.962   3.469 -1.1927  1.3428  0.0194
 3850SOL     OW11838   3.239   3.742   2.453 -0.4297  0.0657 -0.2476
 3850SOL    HW111839   3.279   3.677   2.388 -0.2690  0.2650 -0.3470
 3850SOL    HW211840   3.210   3.693   2.535 -1.7013 -0.3904 -0.9282
 3851SOL     OW11841   3.252   4.509   1.321 -0.1845 -0.2000 -0.1684
 3851SOL    HW111842   3.245   4.438   1.251  0.1856  0.4849 -0.9214
 3851SOL    HW211843   3.167   4.562   1.323  0.2116  0.4816 -0.8877
 3852SOL     OW11844   3.589   5.875   4.046 -0.3612  0.0111  0.1004
 3852SOL    HW111845   3.621   5.931   4.122 -0.8708 -1.7716  1.7124
 3852SOL    HW211846   3.498   5.907   4.017 -0.5980  0.1096  0.9285
 3853SOL     OW11847   3.735   4.383   0.875 -0.4191  0.1745 -0.3830
 3853SOL    HW111848   3.662   4.433   0.922  1.6515  1.8319  1.2291
 3853SOL    HW211849   3.802   4.350   0.942  0.9528 -0.2625 -1.9000
 3854SOL     OW11850   2.686   5.919   4.974 -0.1073  0.3315 -0.5069
 3854SOL    HW111851   2.763   5.923   5.037  0.8352 -0.3964 -1.5552
 3854SOL    HW211852   2.715   5.953   4.884 -1.7377  2.4710 -0.2870
 3855SOL     OW11853   2.629   3.692   3.430  0.3401 -0.2686  0.0968
 3855SOL    HW111854   2.663   3.784   3.448 -1.6471  0.9383 -1.7817
 3855SOL    HW211855   2.551   3.697   3.368  1.1225 -3.3290 -1.3565
 3856SOL     OW11856   2.664   4.143   2.926  0.4864 -0.0084  0.1382
 3856SOL    HW111857   2.656   4.044   2.915 -1.8084  0.1012  0.2560
 3856SOL    HW211858   2.586   4.177   2.979  1.8345  1.7322  1.0991
 3857SOL     OW11859   3.332   4.973   3.854  0.0200 -0.0882  0.0477
 3857SOL    HW111860   3.372   5.041   3.915  1.0681  1.2210 -1.9860
 3857SOL    HW211861   3.232   4.978   3.859  0.0830  0.2696  1.2999
 3858SOL     OW11862   4.562   4.741   4.317 -0.7739  0.4796 -0.2791
 3858SOL    HW111863   4.637   4.785   4.366 -0.2370 -0.1463 -0.5170
 3858SOL    HW211864   4.540   4.793   4.234 -1.0674  1.0376  0.1459
 3859SOL     OW11865   2.653   4.298   3.948 -0.3307 -0.0585  0.3491
 3859SOL    HW111866   2.724   4.264   4.009 -0.7013  0.8323  1.3073
 3859SOL    HW211867   2.687   4.301   3.855  0.1725 -1.6728  0.4524
 3860SOL     OW11868   2.747   4.290   3.700  0.8196  0.2049 -0.2937
 3860SOL    HW111869   2.772   4.355   3.629 -0.9829  2.2274  0.8130
 3860SOL    HW211870   2.827   4.236   3.726  1.2990 -1.6848 -4.7388
 3861SOL     OW11871   1.347   5.098   4.122 -0.3163 -0.1457  0.2821
 3861SOL    HW111872   1.384   5.134   4.208  1.2967 -0.3187 -0.3109
 3861SOL    HW211873   1.340   4.998   4.128  0.8134 -0.2611 -0.1470
 3862SOL     OW11874   2.335   4.898   1.192  0.2127 -0.3070 -0.6678
 3862SOL    HW111875   2.357   4.931   1.283 -1.6124  0.1187 -0.3427
 3862SOL    HW211876   2.276   4.964   1.145  1.3778 -0.3648 -2.2985
 3863SOL     OW11877   1.760   0.753   3.989  0.0798  0.0263  0.2694
 3863SOL    HW111878   1.698   0.683   4.025  1.6529 -0.3075  2.5619
 3863SOL    HW211879   1.825   0.779   4.060  0.8682  2.3311 -1.1962
 3864SOL     OW11880   2.204   5.005   2.816  0.4494 -0.5132 -0.3109
 3864SOL    HW111881   2.160   4.924   2.854 -0.8699  0.3278  0.0151
 3864SOL    HW211882   2.269   4.977   2.745  0.2236 -1.8612 -0.0151
 3865SOL     OW11883   1.325   3.471   0.949 -0.2171 -0.4309 -0.2524
 3865SOL    HW111884   1.383   3.500   1.025  1.8941 -0.4712 -1.7658
 3865SOL    HW211885   1.237   3.518   0.954  0.4353  0.6913  1.3536
 3866SOL     OW11886   3.386   5.683   0.915  0.2102 -0.0296  0.1052
 3866SOL    HW111887   3.383   5.781   0.899  1.7031  0.4619  2.3952
 3866SOL    HW211888   3.293   5.648   0.926 -0.2818  1.3967  0.6776
 3867SOL     OW11889   3.491   5.628   2.702  0.6392  0.2789  0.1688
 3867SOL    HW111890   3.448   5.556   2.647 -1.5312  0.4443  1.5169
 3867SOL    HW211891   3.560   5.675   2.648  0.6997 -1.4817 -1.3965
 3868SOL     OW11892   2.487   4.926   3.174  0.0427  0.1618 -0.0116
 3868SOL    HW111893   2.451   4.842   3.215  0.6869  0.3862  1.0455
 3868SOL    HW211894   2.565   4.903   3.115 -0.5208 -0.1012 -0.6626
 3869SOL     OW11895   1.924   5.919   2.600  0.0174 -0.0551  0.0514
 3869SOL    HW111896   2.013   5.875   2.588  0.9533  1.2358  1.8922
 3869SOL    HW211897   1.855   5.868   2.549  1.6208 -1.6484 -0.6303
 3870SOL     OW11898   4.292   5.554   3.620 -0.2313  0.0174 -0.3215
 3870SOL    HW111899   4.364   5.485   3.624 -1.4843 -1.2797  1.7342
 3870SOL    HW211900   4.209   5.512   3.584 -0.3125  1.1966 -1.5736
 3871SOL     OW11901   0.193   4.464   3.236  0.0101  0.5310  0.5868
 3871SOL    HW111902   0.229   4.371   3.244 -0.1004  0.5211  1.0349
 3871SOL    HW211903   0.166   4.482   3.142 -0.1176  0.0506  0.5305
 3872SOL     OW11904   2.472   5.219   1.899  0.3964 -0.1498  0.6672
 3872SOL    HW111905   2.386   5.268   1.915  0.5055 -0.4508  2.3830
 3872SOL    HW211906   2.452   5.129   1.862  0.0532  0.2465 -0.1342
 3873SOL     OW11907   2.824   4.881   2.484  0.7616  0.3090 -0.4185
 3873SOL    HW111908   2.836   4.980   2.478  0.3279  0.3009 -1.6643
 3873SOL    HW211909   2.910   4.838   2.509  0.2994  1.2106  3.3688
 3874SOL     OW11910   1.775   4.899   1.567 -0.0381  0.3073  0.1640
 3874SOL    HW111911   1.741   4.908   1.661 -1.6297  2.6973 -0.5498
 3874SOL    HW211912   1.700   4.914   1.503  1.4676  1.1077 -1.5020
 3875SOL     OW11913   3.514   5.588   1.488 -0.8006 -0.7611 -0.5730
 3875SOL    HW111914   3.598   5.556   1.444  0.5282 -0.2215  1.4599
 3875SOL    HW211915   3.437   5.532   1.456  0.4582 -1.9409 -1.7107
 3876SOL     OW11916   0.273   3.885   1.610  0.2228  0.3514 -0.4206
 3876SOL    HW111917   0.230   3.894   1.700  1.6481  0.4383  0.2829
 3876SOL    HW211918   0.344   3.815   1.614  0.1596  0.1998 -1.5523
 3877SOL     OW11919   3.288   5.354   1.169 -0.5265 -0.4914 -0.1107
 3877SOL    HW111920   3.381   5.390   1.169 -1.1034  1.0612 -0.1431
 3877SOL    HW211921   3.279   5.286   1.096  0.4149 -0.2274 -0.4844
 3878SOL     OW11922   3.286   5.382   4.075  0.3431 -0.1276 -0.2679
 3878SOL    HW111923   3.189   5.365   4.063  0.3138 -0.1237 -0.0363
 3878SOL    HW211924   3.308   5.475   4.046 -0.3322  1.1311  2.8069
 3879SOL     OW11925   2.724   3.951   3.422 -0.0367  0.1471  0.1071
 3879SOL    HW111926   2.746   3.964   3.325 -1.0982  1.0586 -0.0243
 3879SOL    HW211927   2.661   4.022   3.452 -0.4152 -0.6390  1.2482
 3880SOL     OW11928   2.732   4.660   3.077  0.0146  0.2978 -0.8840
 3880SOL    HW111929   2.827   4.643   3.048  0.5435  3.0909 -1.0535
 3880SOL    HW211930   2.700   4.746   3.037 -1.4722  1.0781  1.7765
 3881SOL     OW11931   3.144   4.899   5.055  0.1478  0.0048 -0.1115
 3881SOL    HW111932   3.097   4.944   5.131 -1.8700 -3.2517  0.7702
 3881SOL    HW211933   3.123   4.949   4.970  0.1804  2.1331  1.0546
 3882SOL     OW11934   3.098   5.629   0.960  0.1746  0.0482  0.2281
 3882SOL    HW111935   3.087   5.530   0.955  3.0888 -0.3092 -1.7218
 3882SOL    HW211936   3.104   5.657   1.056  1.3849 -1.9973  0.8073
 3883SOL     OW11937   3.040   5.660   1.362 -0.2082  0.1661 -0.2495
 3883SOL    HW111938   3.025   5.564   1.337 -1.3480  0.7818 -2.1630
 3883SOL    HW211939   2.952   5.702   1.385  0.2553  0.8258  0.3536
 3884SOL     OW11940   2.800   3.271   3.351  0.0477  0.2135 -0.2136
 3884SOL    HW111941   2.722   3.217   3.321 -1.0151  1.1928  0.6969
 3884SOL    HW211942   2.795   3.362   3.309  0.8566  0.2031 -0.3509
 3885SOL     OW11943   1.753   5.365   1.628  0.4224  0.3557  0.4915
 3885SOL    HW111944   1.763   5.350   1.529 -2.5245  2.9136 -0.3548
 3885SOL    HW211945   1.816   5.437   1.656  1.2088 -0.3173  0.4909
 3886SOL     OW11946   2.770   3.930   3.157 -0.0754 -0.1277 -0.1736
 3886SOL    HW111947   2.739   3.892   3.070 -0.4341 -1.5784  0.5555
 3886SOL    HW211948   2.863   3.966   3.146 -0.4406  0.5224 -1.3529
 3887SOL     OW11949   3.111   0.118   1.244 -0.4591 -0.0978  0.3986
 3887SOL    HW111950   3.083   0.197   1.190  1.7839  1.7618  1.7353
 3887SOL    HW211951   3.033   0.086   1.299 -1.2835  1.6215  0.3086
 3888SOL     OW11952   3.281   5.495   3.045  0.2985  0.0626  0.1981
 3888SOL    HW111953   3.376   5.511   3.017  0.4099 -1.7193 -0.5709
 3888SOL    HW211954   3.221   5.504   2.965  0.1694 -1.4755  0.0972
 3889SOL     OW11955   3.089   4.686   4.875 -0.1731 -0.2355 -0.2128
 3889SOL    HW111956   3.114   4.756   4.942  1.5330 -0.1605 -0.8559
 3889SOL    HW211957   3.116   4.596   4.910 -0.4966 -0.3424 -0.2397
 3890SOL     OW11958   3.309   3.267   0.798 -0.3948 -0.4576  0.0124
 3890SOL    HW111959   3.320   3.177   0.839 -1.3558 -0.5829  0.0152
 3890SOL    HW211960   3.388   3.287   0.740 -0.7707 -1.8618 -1.0471
 3891SOL     OW11961   1.387   3.466   2.886  0.4261 -0.3097 -0.2199
 3891SOL    HW111962   1.378   3.420   2.974 -0.3706 -0.7843 -0.5398
 3891SOL    HW211963   1.298   3.472   2.841  0.8280 -0.1482 -1.0332
 3892SOL     OW11964   4.602   5.632   5.886  0.5868  0.2106  0.4141
 3892SOL    HW111965   4.509   5.597   5.898  0.6470  0.7316  2.9557
 3892SOL    HW211966   4.599   5.722   5.842 -0.0036 -0.2083 -0.4352
 3893SOL     OW11967   4.647   4.565   1.122  0.3291  0.1949 -0.9486
 3893SOL    HW111968   4.683   4.530   1.035 -0.5584 -1.9642 -0.5008
 3893SOL    HW211969   4.713   4.546   1.195  0.3329  0.4920 -0.8721
 3894SOL     OW11970   4.005   4.778   2.951 -0.5490  0.4152  0.1798
 3894SOL    HW111971   4.095   4.802   2.988  0.0148 -0.0737 -0.8148
 3894SOL    HW211972   3.951   4.861   2.938 -0.3178  0.6958  0.9553
 3895SOL     OW11973   2.840   1.462   1.846  0.2135  0.3461  0.0136
 3895SOL    HW111974   2.760   1.465   1.786  0.2070  0.0883  0.0071
 3895SOL    HW211975   2.884   1.373   1.838 -0.5756 -0.2010  1.4154
 3896SOL     OW11976   2.703   3.056   3.730  0.2147 -0.1049  0.4606
 3896SOL    HW111977   2.642   3.135   3.721 -0.0439 -0.4208 -0.9445
 3896SOL    HW211978   2.670   2.996   3.803 -0.8622  0.0032  0.0828
 3897SOL     OW11979   3.436   4.494   3.215  0.0455  0.2091 -0.0737
 3897SOL    HW111980   3.427   4.482   3.117  0.5154  0.4681 -0.1563
 3897SOL    HW211981   3.359   4.547   3.250 -0.4939 -0.5051 -0.1823
 3898SOL     OW11982   1.208   4.643   4.086 -0.5542  0.0079  0.6671
 3898SOL    HW111983   1.212   4.547   4.060 -3.9958 -0.3452  1.0533
 3898SOL    HW211984   1.186   4.651   4.183 -0.3668  1.2223  0.6318
 3899SOL     OW11985   4.014   4.238   3.688 -0.0221 -0.5620  0.2920
 3899SOL    HW111986   4.007   4.282   3.777  0.1546  1.0485 -0.4322
 3899SOL    HW211987   4.036   4.141   3.699  0.7856 -0.2231  1.9624
 3900SOL     OW11988   2.508   3.276   3.555  0.6163  0.6333  0.4817
 3900SOL    HW111989   2.590   3.333   3.560  2.2190 -1.3616 -1.1666
 3900SOL    HW211990   2.449   3.308   3.481 -0.5229  2.4557  2.0612
 3901SOL     OW11991   2.712   3.505   3.240 -0.0865  0.0821 -0.3138
 3901SOL    HW111992   2.753   3.563   3.169  1.5539 -0.6416 -0.0060
 3901SOL    HW211993   2.690   3.560   3.320  3.3910  0.1159  0.8130
 3902SOL     OW11994   3.906   3.600   5.409  0.6652  0.4006 -0.0523
 3902SOL    HW111995   3.908   3.582   5.311 -0.6435  1.3857 -0.2955
 3902SOL    HW211996   3.894   3.515   5.459 -2.6353  0.1674 -0.9943
 3903SOL     OW11997   2.115   0.943   4.067  0.2250  0.6724  0.2901
 3903SOL    HW111998   2.038   0.892   4.105  1.4289  1.0628  3.6271
 3903SOL    HW211999   2.085   0.993   3.986 -1.8699 -2.4646 -1.0940
 3904SOL     OW12000   2.933   5.430   2.070  0.3962 -0.0029  0.7827
 3904SOL    HW112001   2.844   5.388   2.052  0.8159 -0.9519  0.8721
 3904SOL    HW212002   3.003   5.359   2.077  1.6702  0.8241 -2.0779
 3905SOL     OW12003   1.400   1.114   2.461  0.4655 -0.6497  0.1732
 3905SOL    HW112004   1.317   1.058   2.468  0.4876 -0.5757  1.2441
 3905SOL    HW212005   1.379   1.200   2.415 -0.1740 -0.4266  0.8632
 3906SOL     OW12006   1.207   4.941   2.799 -0.1310 -0.1827 -0.2349
 3906SOL    HW112007   1.162   5.000   2.866 -0.0214 -0.5197  0.1372
 3906SOL    HW212008   1.187   4.975   2.706  1.7278  1.7703 -0.0013
 3907SOL     OW12009   3.474   4.498   2.937 -0.2752 -0.1292  0.0458
 3907SOL    HW112010   3.554   4.505   2.878  1.8692 -2.6846  2.3934
 3907SOL    HW212011   3.397   4.460   2.885  0.0301  1.9883 -2.1448
 3908SOL     OW12012   3.987   0.416   3.582  0.0390  0.3217 -0.1175
 3908SOL    HW112013   4.055   0.447   3.648  0.3721  2.8985 -1.5443
 3908SOL    HW212014   4.025   0.423   3.490 -0.5106 -2.9093 -0.7071
 3909SOL     OW12015   2.406   3.271   3.283  0.1329  0.0235  0.1420
 3909SOL    HW112016   2.433   3.337   3.214  0.6814 -0.8116 -0.4628
 3909SOL    HW212017   2.470   3.194   3.283 -0.5005 -0.5278  0.8112
 3910SOL     OW12018   2.590   4.394   1.595 -0.0750 -0.2917  0.1156
 3910SOL    HW112019   2.558   4.324   1.531 -0.0933  0.1002 -0.3133
 3910SOL    HW212020   2.578   4.485   1.554 -1.3268  0.0615  1.2034
 3911SOL     OW12021   5.844   5.532   2.778 -0.2034 -0.2357  0.4320
 3911SOL    HW112022   5.817   5.621   2.814 -0.9146  0.1794 -1.0636
 3911SOL    HW212023   5.882   5.477   2.852 -2.1942  0.3336  1.9778
 3912SOL     OW12024   2.985   4.884   2.201 -0.1412  0.0652 -0.1381
 3912SOL    HW112025   2.940   4.904   2.288  0.1007  0.0763 -0.0158
 3912SOL    HW212026   2.919   4.892   2.127 -0.1097  1.0650 -0.0692
 3913SOL     OW12027   2.723   4.418   2.273  0.0505 -0.4656  0.4126
 3913SOL    HW112028   2.782   4.391   2.350 -1.2036  1.1364  2.0362
 3913SOL    HW212029   2.780   4.449   2.197  1.3383 -1.2028  1.0357
 3914SOL     OW12030   4.230   4.661   3.766  0.1861 -0.2843  0.0886
 3914SOL    HW112031   4.146   4.713   3.752  0.4450  0.0292 -0.3039
 3914SOL    HW212032   4.273   4.642   3.678  1.2044  0.6873  0.3528
 3915SOL     OW12033   2.684   2.887   5.191  0.4313 -0.3064  0.2226
 3915SOL    HW112034   2.642   2.966   5.237 -1.5334 -1.3586  0.3265
 3915SOL    HW212035   2.761   2.919   5.135  0.1338  1.5776  0.7982
 3916SOL     OW12036   2.318   0.340   3.050  0.7425 -0.3052  0.0257
 3916SOL    HW112037   2.413   0.365   3.033  1.5390 -0.7987  3.1054
 3916SOL    HW212038   2.268   0.419   3.085 -0.0719 -0.0197 -1.6797
 3917SOL     OW12039   0.789   0.109   3.959 -0.5878  0.0182 -0.5110
 3917SOL    HW112040   0.751   0.045   3.892 -0.6297  1.6718 -2.1347
 3917SOL    HW212041   0.715   0.148   4.014 -1.0454  1.4693 -2.0852
 3918SOL     OW12042   2.667   3.762   2.132  0.7967  0.3020  0.9335
 3918SOL    HW112043   2.674   3.837   2.067 -0.3660 -1.1696 -1.0168
 3918SOL    HW212044   2.741   3.697   2.117  0.0293 -0.4881  0.4108
 3919SOL     OW12045   4.255   4.503   1.043  0.5281 -0.1155 -0.1902
 3919SOL    HW112046   4.199   4.425   1.016 -2.5264  1.1072  2.0917
 3919SOL    HW212047   4.279   4.495   1.140 -0.6508  2.1405  0.3548
 3920SOL     OW12048   1.809   5.552   3.781  0.0426  0.0544 -0.0366
 3920SOL    HW112049   1.877   5.612   3.741 -0.0630 -0.5873 -1.2260
 3920SOL    HW212050   1.742   5.526   3.712 -1.4928  0.7501  1.1241
 3921SOL     OW12051   3.441   4.021   2.866  0.0815  0.2139  0.0206
 3921SOL    HW112052   3.486   3.943   2.909 -1.8662 -0.2679  1.3364
 3921SOL    HW212053   3.397   3.991   2.780  2.4606  0.7728 -1.4731
 3922SOL     OW12054   2.205   5.536   1.985 -0.0459 -0.0644 -0.0305
 3922SOL    HW112055   2.184   5.438   1.983  2.4337 -0.8423  3.1952
 3922SOL    HW212056   2.247   5.563   1.898 -3.7146 -0.9076 -2.3028
 3923SOL     OW12057   2.926   3.914   2.723 -0.4790  0.5729 -0.0854
 3923SOL    HW112058   2.845   3.904   2.665 -1.5334  1.6152  1.1517
 3923SOL    HW212059   2.947   4.011   2.735  0.5697  0.3284  0.1329
 3924SOL     OW12060   5.878   5.219   2.426 -0.0868  0.1652  0.9861
 3924SOL    HW112061   5.849   5.308   2.460 -1.5291 -0.4589  1.4625
 3924SOL    HW212062   5.801   5.156   2.428  0.3174 -0.5163 -1.4019
 3925SOL     OW12063   2.979   5.075   3.023 -0.0582  0.0265 -0.4526
 3925SOL    HW112064   2.934   5.015   2.956  1.2747 -0.5268 -0.8854
 3925SOL    HW212065   3.075   5.049   3.031 -0.0800  0.4024  1.3435
 3926SOL     OW12066   1.283   4.285   4.413 -0.2235  0.2585  0.1612
 3926SOL    HW112067   1.304   4.381   4.396 -1.3175  0.4542 -0.1319
 3926SOL    HW212068   1.248   4.275   4.506  1.4463 -0.1276  0.7908
 3927SOL     OW12069   2.594   4.460   4.231  0.0073  0.0157 -0.0883
 3927SOL    HW112070   2.636   4.390   4.288  1.4829 -1.2293 -2.5069
 3927SOL    HW212071   2.666   4.512   4.183 -1.0588 -0.9265 -2.9479
 3928SOL     OW12072   0.386   3.954   2.279 -0.1037  0.7489 -0.3029
 3928SOL    HW112073   0.307   4.013   2.264 -0.7190  0.0898  0.2492
 3928SOL    HW212074   0.446   3.956   2.199 -2.4594 -1.4515 -2.2751
 3929SOL     OW12075   2.942   2.813   4.472 -0.2391  0.7967  0.0114
 3929SOL    HW112076   2.917   2.758   4.553  0.4787  0.2452 -0.1324
 3929SOL    HW212077   3.032   2.784   4.439  0.7575  2.9529  0.6958
 3930SOL     OW12078   0.302   4.361   0.361  0.1023  0.7335  0.1397
 3930SOL    HW112079   0.354   4.430   0.311  0.9022 -0.8200 -1.2658
 3930SOL    HW212080   0.355   4.330   0.440  1.1781 -0.5302 -1.0412
 3931SOL     OW12081   1.904   4.685   3.458 -0.2647 -0.3945  0.6641
 3931SOL    HW112082   1.874   4.720   3.547  1.7891 -0.5587  1.4607
 3931SOL    HW212083   1.892   4.586   3.455 -2.4256 -0.1729 -0.1404
 3932SOL     OW12084   2.579   5.525   3.586  0.3924  0.4455  0.1814
 3932SOL    HW112085   2.637   5.594   3.542  0.0572  0.3561 -0.4092
 3932SOL    HW212086   2.531   5.472   3.516  1.0380 -0.7425  0.5935
 3933SOL     OW12087   1.880   4.189   5.724  0.0154  0.4419  0.7967
 3933SOL    HW112088   1.895   4.099   5.764 -1.5416 -0.3680 -0.3449
 3933SOL    HW212089   1.807   4.236   5.775 -0.2227  0.4295  0.4709
 3934SOL     OW12090   2.926   5.315   5.236  0.0550 -0.1239  0.0517
 3934SOL    HW112091   2.924   5.368   5.151  1.2924 -2.7742 -1.7690
 3934SOL    HW212092   3.021   5.302   5.265 -0.3260  0.2745  1.5771
 3935SOL     OW12093   3.799   0.351   4.028 -0.0174 -0.2155  0.4543
 3935SOL    HW112094   3.856   0.430   4.049  2.5073 -1.2672 -1.7512
 3935SOL    HW212095   3.816   0.279   4.096  0.3009 -0.0804  0.5187
 3936SOL     OW12096   3.889   4.722   5.147  0.4009 -0.1797  0.3913
 3936SOL    HW112097   3.844   4.665   5.216 -0.2250 -0.2310 -0.0449
 3936SOL    HW212098   3.930   4.802   5.191 -0.7682  0.2557  0.7296
 3937SOL     OW12099   3.501   3.973   4.429 -0.1093  0.3499  0.2242
 3937SOL    HW112100   3.401   3.982   4.430 -0.2180 -0.6783  1.3256
 3937SOL    HW212101   3.541   4.051   4.381 -1.4239  0.9364  0.0311
 3938SOL     OW12102   4.842   4.999   5.728 -0.0660  0.0684  0.5153
 3938SOL    HW112103   4.919   5.058   5.753  0.4773 -0.7081  0.6993
 3938SOL    HW212104   4.857   4.907   5.764 -0.4078 -0.4628 -0.6507
 3939SOL     OW12105   0.967   1.562   5.085 -0.3800 -0.1451  0.0207
 3939SOL    HW112106   1.062   1.572   5.056 -0.2750 -0.7770  0.1334
 3939SOL    HW212107   0.945   1.633   5.151  0.1310 -0.2276  0.2853
 3940SOL     OW12108   2.484   4.090   5.738 -0.3193 -0.1215  0.0129
 3940SOL    HW112109   2.565   4.035   5.717  0.9391  1.3628  0.7515
 3940SOL    HW212110   2.402   4.033   5.732  0.8949 -1.9978  0.4799
 3941SOL     OW12111   3.535   4.678   4.696 -0.8500  0.4509 -0.0578
 3941SOL    HW112112   3.477   4.664   4.615 -0.9584 -2.0193  0.3685
 3941SOL    HW212113   3.477   4.693   4.776 -1.0282 -2.3117  0.4213
 3942SOL     OW12114   2.819   0.326   5.194  0.0175 -0.7151 -0.0886
 3942SOL    HW112115   2.838   0.423   5.208  0.7686 -0.8349 -0.2418
 3942SOL    HW212116   2.838   0.301   5.099  1.6138 -1.4006  0.3725
 3943SOL     OW12117   2.149   3.826   4.929  0.7951 -0.4631 -0.2576
 3943SOL    HW112118   2.196   3.910   4.957  0.7956  0.2919 -2.3307
 3943SOL    HW212119   2.209   3.748   4.944  1.1753  0.0055  0.7868
 3944SOL     OW12120   4.341   3.906   5.847 -0.6109  1.0264 -0.1077
 3944SOL    HW112121   4.273   3.975   5.871 -0.8189  0.8797 -0.2724
 3944SOL    HW212122   4.330   3.825   5.905  0.1817  1.4554  0.6743
 3945SOL     OW12123   2.565   5.880   5.579 -0.0843  0.6293  0.0902
 3945SOL    HW112124   2.510   5.960   5.599  0.2171  0.7278  0.5288
 3945SOL    HW212125   2.550   5.810   5.650 -1.4153 -0.2701 -1.0127
 3946SOL     OW12126   1.506   4.842   2.935 -0.1570  0.5445 -0.1336
 3946SOL    HW112127   1.476   4.756   2.977  1.0562 -0.5282 -1.3960
 3946SOL    HW212128   1.577   4.883   2.991  0.9489 -0.5172 -0.7129
 3947SOL     OW12129   2.867   4.436   5.452  0.4411 -0.2239 -0.1779
 3947SOL    HW112130   2.851   4.338   5.442 -1.7858  0.1808 -1.2683
 3947SOL    HW212131   2.894   4.456   5.546 -0.4222 -1.7181  0.4172
 3948SOL     OW12132   2.714   4.703   4.057  0.3071  0.2736  0.1880
 3948SOL    HW112133   2.636   4.671   4.002  0.1415 -2.0788  1.6333
 3948SOL    HW212134   2.682   4.769   4.124 -0.3070 -0.0844  0.2567
 3949SOL     OW12135   2.687   1.526   4.056  0.1230 -0.0661 -0.0688
 3949SOL    HW112136   2.609   1.464   4.048 -1.1357  1.4460 -0.0348
 3949SOL    HW212137   2.676   1.601   3.990 -0.2777  2.0492  2.2656
 3950SOL     OW12138   2.099   3.791   0.083  0.4690 -0.3456 -0.3292
 3950SOL    HW112139   2.092   3.692   0.073  0.6831 -0.4642  0.5806
 3950SOL    HW212140   2.136   3.812   0.173 -1.4751  0.5987  0.3097
 3951SOL     OW12141   4.186   4.952   4.046 -0.1798 -0.1065  0.1370
 3951SOL    HW112142   4.153   4.908   3.963 -1.5234 -0.6333  0.9109
 3951SOL    HW212143   4.111   4.958   4.112  1.0713 -0.5284  1.6480
 3952SOL     OW12144   2.816   5.161   3.718  0.5783  0.1656  0.0087
 3952SOL    HW112145   2.750   5.115   3.659 -1.4935  1.1512  1.4358
 3952SOL    HW212146   2.875   5.093   3.762 -0.7714 -0.9463  0.1663
 3953SOL     OW12147   3.220   4.336   1.712 -0.0696  0.2615 -0.0589
 3953SOL    HW112148   3.169   4.297   1.635 -0.9784 -0.0675  0.7045
 3953SOL    HW212149   3.309   4.289   1.719 -1.1594 -1.7772  0.8717
 3954SOL     OW12150   0.447   0.055   5.187  0.5085 -0.6897  0.3943
 3954SOL    HW112151   0.355   0.094   5.184  0.8471  0.1291  0.5281
 3954SOL    HW212152   0.504   0.109   5.249  1.4306 -0.4262 -0.6574
 3955SOL     OW12153   1.798   0.489   5.392  0.1829 -0.4566  0.2231
 3955SOL    HW112154   1.857   0.412   5.369  1.0047 -0.3832  1.9069
 3955SOL    HW212155   1.791   0.551   5.314  0.9672 -1.3226 -0.5565
 3956SOL     OW12156   3.186   3.376   3.244  0.7032  0.2714  0.1614
 3956SOL    HW112157   3.098   3.354   3.203  0.4410 -0.9392  1.3157
 3956SOL    HW212158   3.245   3.419   3.175 -0.2522 -0.2791 -1.0382
 3957SOL     OW12159   2.610   3.845   5.370  0.4751  0.1082 -0.6685
 3957SOL    HW112160   2.517   3.873   5.394  0.2678 -0.0288 -1.2835
 3957SOL    HW212161   2.621   3.850   5.270  0.1916 -2.6965 -0.8968
 3958SOL     OW12162   4.723   4.350   3.273 -0.0810  0.0748  0.8102
 3958SOL    HW112163   4.763   4.416   3.210  0.6434  0.0394  1.2273
 3958SOL    HW212164   4.754   4.369   3.366 -0.0344 -0.7178  0.9658
 3959SOL     OW12165   2.249   0.382   5.819 -0.1736  0.1720  0.1083
 3959SOL    HW112166   2.163   0.387   5.870  0.1509  0.1696  0.6661
 3959SOL    HW212167   2.265   0.288   5.790 -0.2446  0.1267  0.2141
 3960SOL     OW12168   2.383   4.293   3.975  0.5569  0.3017 -0.6552
 3960SOL    HW112169   2.477   4.261   3.961 -0.6914 -4.7269  0.2341
 3960SOL    HW212170   2.373   4.325   4.069  1.1122 -0.6698 -0.2368
 3961SOL     OW12171   0.559   4.464   4.001  0.3903  0.0437  0.0891
 3961SOL    HW112172   0.482   4.526   3.985  0.5772  0.0931 -0.6353
 3961SOL    HW212173   0.579   4.462   4.099 -0.3670  0.2260  0.2575
 3962SOL     OW12174   3.665   5.189   4.256 -0.2441  0.2344 -0.2320
 3962SOL    HW112175   3.696   5.245   4.179  0.0020  1.6771  0.8789
 3962SOL    HW212176   3.591   5.236   4.304 -0.3111 -0.5850  0.4923
 3963SOL     OW12177   0.491   2.347   4.145 -0.1651 -0.2392 -0.1419
 3963SOL    HW112178   0.534   2.391   4.224 -0.6636 -0.6175  0.3446
 3963SOL    HW212179   0.507   2.403   4.063  0.9466 -0.1960  0.0847
 3964SOL     OW12180   3.574   4.122   3.700  0.6549 -0.7505 -0.3972
 3964SOL    HW112181   3.611   4.149   3.611 -0.5821 -0.9691 -0.9965
 3964SOL    HW212182   3.494   4.178   3.722  0.6117 -1.0767  0.3195
 3965SOL     OW12183   3.831   5.296   5.116  0.0097 -0.1259  0.3859
 3965SOL    HW112184   3.841   5.356   5.037 -1.0457  0.8007  0.9278
 3965SOL    HW212185   3.906   5.312   5.180  0.8403 -0.8441 -0.3827
 3966SOL     OW12186   1.842   5.473   5.839  0.2751  0.2820  0.1024
 3966SOL    HW112187   1.864   5.516   5.751 -2.4593  0.2521 -0.6812
 3966SOL    HW212188   1.876   5.379   5.839 -0.3038  0.0413 -1.2479
 3967SOL     OW12189   2.821   3.287   5.682 -0.2034 -0.4104  0.0512
 3967SOL    HW112190   2.875   3.231   5.619 -0.9107  0.2073 -1.1297
 3967SOL    HW212191   2.830   3.250   5.775  0.6379 -1.4999 -0.4401
 3968SOL     OW12192   1.921   5.435   5.327 -0.4739 -0.5185 -0.2550
 3968SOL    HW112193   1.845   5.465   5.269 -0.0670 -1.8789 -1.5688
 3968SOL    HW212194   1.988   5.386   5.271  1.2729  0.4249  0.9275
 3969SOL     OW12195   3.636   3.142   5.510  0.1824 -0.0910  0.7762
 3969SOL    HW112196   3.685   3.055   5.507 -0.1918 -0.2896 -2.4089
 3969SOL    HW212197   3.593   3.152   5.600 -0.2866 -3.4783  1.0722
 3970SOL     OW12198   3.460   4.335   4.852  0.2966 -0.3839 -0.0081
 3970SOL    HW112199   3.449   4.278   4.771  2.7567  0.1542 -0.7984
 3970SOL    HW212200   3.428   4.428   4.832  2.8455  0.3298 -1.1995
 3971SOL     OW12201   1.296   4.059   4.884  0.3826 -0.5339 -0.1172
 3971SOL    HW112202   1.241   4.019   4.958  0.4389  1.3733  1.0127
 3971SOL    HW212203   1.391   4.029   4.894  0.6092  0.5523  1.2732
 3972SOL     OW12204   1.638   5.030   4.541 -0.0362 -0.0668  0.3566
 3972SOL    HW112205   1.678   4.941   4.518  0.7422  0.1561  0.8001
 3972SOL    HW212206   1.575   5.058   4.469  0.9119 -0.2581 -0.5779
 3973SOL     OW12207   3.242   5.516   4.679  0.1553  0.3384 -0.0265
 3973SOL    HW112208   3.333   5.476   4.666 -0.2141 -0.7045  0.4435
 3973SOL    HW212209   3.238   5.560   4.769 -0.0886 -0.4510  0.3554
 3974SOL     OW12210   2.084   4.928   0.589 -0.5239 -0.1724 -0.5306
 3974SOL    HW112211   2.058   4.995   0.519  0.5202  0.0353 -0.7444
 3974SOL    HW212212   2.173   4.889   0.565 -0.1473 -0.1022  0.6792
 3975SOL     OW12213   2.555   3.512   5.272  0.0245  0.3539  0.0854
 3975SOL    HW112214   2.614   3.525   5.193  0.6952  0.4697  0.5966
 3975SOL    HW212215   2.604   3.538   5.355  0.1286 -1.8894  0.7773
 3976SOL     OW12216   3.049   3.390   4.931 -0.3546  0.4356 -0.1546
 3976SOL    HW112217   2.974   3.355   4.987 -0.4229  1.7338  0.6196
 3976SOL    HW212218   3.107   3.315   4.901 -1.4607 -0.4948 -0.0203
 3977SOL     OW12219   2.640   1.141   3.393 -0.2653  0.1658 -0.0444
 3977SOL    HW112220   2.545   1.119   3.366  0.1267 -2.4016  0.4153
 3977SOL    HW212221   2.703   1.086   3.338  0.9407  1.1844  0.2859
 3978SOL     OW12222   2.356   4.717   5.526 -0.3036 -0.3258  0.0670
 3978SOL    HW112223   2.325   4.624   5.548 -1.3698 -0.0219 -0.0856
 3978SOL    HW212224   2.455   4.717   5.515 -0.1612 -1.2388  1.1143
 3979SOL     OW12225   3.634   5.239   5.385  0.2726  0.2875  0.0941
 3979SOL    HW112226   3.599   5.294   5.308 -0.7786  0.8637  0.9585
 3979SOL    HW212227   3.666   5.151   5.351  0.4860  0.8059 -1.1028
 3980SOL     OW12228   2.949   3.893   0.263  0.0366  0.7078 -0.1855
 3980SOL    HW112229   2.925   3.868   0.169 -1.1597  0.3872  0.1974
 3980SOL    HW212230   3.048   3.906   0.269  0.3591 -1.0350 -1.0712
 3981SOL     OW12231   2.427   4.253   4.476 -0.6814  0.1951 -0.2115
 3981SOL    HW112232   2.410   4.284   4.570 -0.6671  0.9955 -0.4658
 3981SOL    HW212233   2.404   4.156   4.468 -0.9842  0.1996  0.5348
 3982SOL     OW12234   3.354   5.065   2.901  0.7174 -0.1847  0.0588
 3982SOL    HW112235   3.359   4.970   2.868 -1.8493 -0.2230 -0.3830
 3982SOL    HW212236   3.335   5.065   2.999 -1.9376 -0.2315 -0.3928
 3983SOL     OW12237   1.927   4.244   3.698 -0.0705  0.1789 -0.5514
 3983SOL    HW112238   2.004   4.287   3.746  0.9828 -1.7560 -0.3958
 3983SOL    HW212239   1.848   4.239   3.760  0.7908 -0.8960  0.5057
 3984SOL     OW12240   2.454   0.377   5.489  0.0160  0.2964 -0.0491
 3984SOL    HW112241   2.455   0.476   5.500 -0.8461  0.6608 -2.5559
 3984SOL    HW212242   2.546   0.345   5.467  0.1769  0.6177  0.1514
 3985SOL     OW12243   0.153   2.709   0.198  0.0951 -0.7008  0.2678
 3985SOL    HW112244   0.185   2.617   0.174  0.0482 -0.4455 -0.8036
 3985SOL    HW212245   0.208   2.777   0.150  0.3455 -0.1420  1.3141
 3986SOL     OW12246   1.510   0.125   4.925 -0.3372 -0.1600 -0.0211
 3986SOL    HW112247   1.546   0.181   4.999  0.2035  0.9354 -1.0846
 3986SOL    HW212248   1.585   0.092   4.868 -0.8018 -0.3480 -0.5356
 3987SOL     OW12249   2.283   5.278   4.178 -0.2177  0.4985 -0.0072
 3987SOL    HW112250   2.253   5.183   4.180 -2.1917  1.0801  0.6436
 3987SOL    HW212251   2.351   5.290   4.105  0.7862 -1.5667  0.5153
 3988SOL     OW12252   4.135   5.745   4.862 -0.1986 -0.4551 -0.2107
 3988SOL    HW112253   4.193   5.818   4.825  0.1677 -0.5002  0.2731
 3988SOL    HW212254   4.179   5.656   4.846 -0.2204 -0.5031 -0.0012
 3989SOL     OW12255   2.101   4.464   4.453  0.2507 -0.0741 -0.0165
 3989SOL    HW112256   2.059   4.493   4.367 -1.1631  1.0010  0.9781
 3989SOL    HW212257   2.200   4.469   4.445  0.1256  0.9245 -1.2875
 3990SOL     OW12258   0.733   4.022   2.696 -0.0717  0.1868 -0.1729
 3990SOL    HW112259   0.683   4.007   2.610 -0.3808  0.7137 -0.0893
 3990SOL    HW212260   0.744   4.120   2.712 -0.4320  0.1075  0.6247
 3991SOL     OW12261   0.771   5.563   2.949  0.2560 -0.4459  0.3870
 3991SOL    HW112262   0.682   5.519   2.953  0.1300 -0.0722  2.2173
 3991SOL    HW212263   0.843   5.494   2.961  0.0542 -0.2443  3.4743
 3992SOL     OW12264   4.889   4.789  -0.001 -0.5361 -0.1704  0.0030
 3992SOL    HW112265   4.842   4.831   0.076 -0.5178  1.2544 -0.7422
 3992SOL    HW212266   4.982   4.825  -0.008 -0.5813 -0.1850 -0.7682
 3993SOL     OW12267   1.980   1.932   4.894 -0.0751 -0.8207  0.0827
 3993SOL    HW112268   1.883   1.954   4.885  0.1500 -0.3256 -1.6484
 3993SOL    HW212269   2.014   1.965   4.982 -1.2908 -0.2848  0.3769
 3994SOL     OW12270   0.822   3.335   0.343 -0.1519 -0.0554 -0.1356
 3994SOL    HW112271   0.877   3.311   0.263 -1.5436  0.6316 -1.3355
 3994SOL    HW212272   0.769   3.255   0.372  0.1315 -0.2217 -0.0704
 3995SOL     OW12273   2.849   4.554   4.503 -0.1032 -0.2101 -0.5254
 3995SOL    HW112274   2.764   4.514   4.469 -0.4504  2.6401 -3.4831
 3995SOL    HW212275   2.828   4.618   4.577 -0.3509 -0.5639 -0.2877
 3996SOL     OW12276   2.289   2.863   5.048  0.0360  0.1186 -0.1679
 3996SOL    HW112277   2.194   2.852   5.076  0.5304 -1.8757  0.9975
 3996SOL    HW212278   2.348   2.810   5.110  1.7408 -0.1214 -1.8809
 3997SOL     OW12279   1.538   5.894   5.363  0.0936  0.0088 -0.3812
 3997SOL    HW112280   1.487   5.807   5.361 -0.5615  0.3041  1.3889
 3997SOL    HW212281   1.607   5.890   5.434  0.6968  0.6182 -0.9258
 3998SOL     OW12282   2.900   4.189   4.581 -0.4503  0.2319 -0.3347
 3998SOL    HW112283   2.930   4.094   4.591 -0.8541  0.1134 -0.2075
 3998SOL    HW212284   2.912   4.237   4.668 -0.3799  0.2549 -0.3579
 3999SOL     OW12285   1.872   0.440   5.014 -0.6047  0.0030 -0.0652
 3999SOL    HW112286   1.954   0.467   4.964  1.4534  2.0780  3.9701
 3999SOL    HW212287   1.812   0.520   5.024  0.0186  0.2603  2.2802
 4000SOL     OW12288   3.821   4.309   3.001  0.2077  0.5119 -0.7253
 4000SOL    HW112289   3.867   4.376   2.944 -0.1007  0.2216 -1.3277
 4000SOL    HW212290   3.769   4.246   2.943 -1.6917  1.3793 -0.0409
 4001SOL     OW12291   4.010   3.797   5.123  0.0920  0.2010  0.4143
 4001SOL    HW112292   4.051   3.805   5.031  0.4715  1.1250  0.6467
 4001SOL    HW212293   3.957   3.713   5.129  0.6550 -0.2284 -0.4261
 4002SOL     OW12294   4.160   3.693   4.123  0.0806  0.3275 -0.2566
 4002SOL    HW112295   4.176   3.792   4.133  0.3168  0.1146  2.1033
 4002SOL    HW212296   4.067   3.672   4.155 -0.3619 -0.1028 -1.7666
 4003SOL     OW12297   2.722   3.817   1.086 -0.2104 -0.3907 -0.7306
 4003SOL    HW112298   2.681   3.735   1.125 -1.7459  1.2492  1.3337
 4003SOL    HW212299   2.807   3.838   1.132 -0.1939 -0.4213 -0.7476
 4004SOL     OW12300   1.261   0.368   2.365 -0.2014  0.0946  0.6595
 4004SOL    HW112301   1.273   0.269   2.369 -0.5973  0.0074 -0.0495
 4004SOL    HW212302   1.233   0.394   2.272  1.4859  1.0610  0.3921
 4005SOL     OW12303   1.824   4.761   5.102  0.1621 -0.2693  0.4475
 4005SOL    HW112304   1.867   4.790   5.188  1.4210 -1.8088  0.3720
 4005SOL    HW212305   1.730   4.797   5.099 -0.1472 -0.6956  2.7487
 4006SOL     OW12306   2.863   5.759   5.694  0.6122  0.2694 -0.1056
 4006SOL    HW112307   2.944   5.815   5.707 -0.8163  2.2010  1.0006
 4006SOL    HW212308   2.790   5.815   5.654 -0.9753 -0.7094  1.3013
 4007SOL     OW12309   4.480   5.412   4.938 -0.0510  0.2463 -0.3488
 4007SOL    HW112310   4.504   5.339   4.874  1.6229 -0.6399  1.2053
 4007SOL    HW212311   4.534   5.402   5.021 -3.4081  0.2700  1.9958
 4008SOL     OW12312   2.817   4.017   5.476 -0.0104 -0.0919 -0.0561
 4008SOL    HW112313   2.748   3.949   5.453 -0.1872 -1.1758  3.1315
 4008SOL    HW212314   2.843   4.068   5.394 -1.2228 -2.7096 -2.2206
 4009SOL     OW12315   3.727   4.534   5.274 -0.8914 -0.6536 -0.5128
 4009SOL    HW112316   3.793   4.465   5.304  0.4183 -0.6632 -3.1595
 4009SOL    HW212317   3.639   4.489   5.253 -1.4274 -0.8177  1.8381
 4010SOL     OW12318   2.811   3.615   2.953 -0.4649 -0.4437 -0.0174
 4010SOL    HW112319   2.770   3.527   2.929  0.6082 -0.6309 -1.2714
 4010SOL    HW212320   2.745   3.688   2.935 -0.9090 -0.8859 -0.2111
 4011SOL     OW12321   4.213   5.231   5.000 -0.2637  0.3736 -0.1297
 4011SOL    HW112322   4.160   5.299   4.950 -1.0391  0.5437  0.8691
 4011SOL    HW212323   4.217   5.147   4.947 -1.6585  0.3172 -0.1960
 4012SOL     OW12324   2.992   4.527   5.684  0.1627 -0.1716  0.2844
 4012SOL    HW112325   2.980   4.625   5.700  0.8648 -0.0319  0.0063
 4012SOL    HW212326   3.089   4.503   5.696  0.0090 -0.8185  0.2775
 4013SOL     OW12327   3.652   3.825   5.102 -0.2233 -0.5368 -0.0152
 4013SOL    HW112328   3.707   3.829   5.019 -0.6840 -0.8306 -0.3407
 4013SOL    HW212329   3.606   3.913   5.116  0.2800 -0.3120  0.2244
 4014SOL     OW12330   3.536   5.823   3.761 -0.1344 -0.3314 -0.5815
 4014SOL    HW112331   3.502   5.828   3.855 -2.9417 -1.5203 -1.4231
 4014SOL    HW212332   3.560   5.915   3.729 -2.0373  0.5336  0.3425
 4015SOL     OW12333   1.873   5.278   3.113  0.4462 -0.1092  0.1481
 4015SOL    HW112334   1.780   5.295   3.081  0.2998 -0.1953  0.5199
 4015SOL    HW212335   1.934   5.264   3.035 -0.4927 -3.6508 -0.1134
 4016SOL     OW12336   3.871   5.422   4.878 -0.2997  0.2220 -0.7534
 4016SOL    HW112337   3.940   5.404   4.807  1.1130  1.7214  0.1636
 4016SOL    HW212338   3.810   5.495   4.847  0.8467  1.4862 -0.1620
 4017SOL     OW12339   3.570   4.062   5.755  0.2113 -0.1913  0.4140
 4017SOL    HW112340   3.595   4.002   5.831 -0.4103  0.2931  1.0195
 4017SOL    HW212341   3.647   4.124   5.736  0.0490  0.2815  1.2538
 4018SOL     OW12342   3.064   4.501   4.374  0.3672 -0.4471  0.3695
 4018SOL    HW112343   2.978   4.521   4.423 -0.5658  0.6392 -1.6053
 4018SOL    HW212344   3.101   4.586   4.336  1.1955 -1.2187 -0.6011
 4019SOL     OW12345   2.593   4.275   5.146  0.0761 -0.0183 -0.4564
 4019SOL    HW112346   2.542   4.195   5.112 -0.2180  0.2810 -0.7258
 4019SOL    HW212347   2.548   4.310   5.228  0.3618 -0.2930 -0.1810
 4020SOL     OW12348   2.351   3.602   3.564 -0.0893  0.1920  0.3931
 4020SOL    HW112349   2.325   3.531   3.630 -1.9999  0.1611 -0.3234
 4020SOL    HW212350   2.449   3.621   3.572 -0.0625 -0.5414  2.5093
 4021SOL     OW12351   5.048   3.862   0.725  0.7027 -0.3189  0.3908
 4021SOL    HW112352   4.966   3.915   0.750  0.8229 -0.4743  1.1336
 4021SOL    HW212353   5.055   3.858   0.626  0.7537  1.1742  0.3006
 4022SOL     OW12354   3.853   5.835   4.585  0.4214  0.4249  0.8910
 4022SOL    HW112355   3.869   5.909   4.650 -0.2330  3.2768 -1.9782
 4022SOL    HW212356   3.935   5.822   4.528 -0.0147 -0.0169  0.3506
 4023SOL     OW12357   3.830   0.509   0.199 -0.2610 -0.4067  0.1591
 4023SOL    HW112358   3.905   0.511   0.265  0.8253  0.5099 -1.0646
 4023SOL    HW212359   3.746   0.484   0.246  0.5631 -0.2289  1.8090
 4024SOL     OW12360   2.226   3.141   4.971  0.4321 -0.5040  0.0462
 4024SOL    HW112361   2.126   3.143   4.975  0.4396 -0.0417  0.0215
 4024SOL    HW212362   2.259   3.051   5.001 -0.0024 -0.7612 -0.2373
 4025SOL     OW12363   2.270   3.804   4.350  0.0872  0.0526 -0.2944
 4025SOL    HW112364   2.171   3.796   4.361  0.1484 -0.5742 -0.1339
 4025SOL    HW212365   2.315   3.734   4.406  0.6307  0.5292 -0.1291
 4026SOL     OW12366   3.831   2.262   4.699  0.1133  0.0535 -0.2544
 4026SOL    HW112367   3.769   2.197   4.655  0.5853 -0.0147 -0.8302
 4026SOL    HW212368   3.924   2.226   4.697  0.1775  0.1488  0.6181
 4027SOL     OW12369   2.511   3.611   0.511 -0.0700  0.1447 -0.5320
 4027SOL    HW112370   2.561   3.615   0.598 -0.0152  0.3157 -0.5700
 4027SOL    HW212371   2.565   3.657   0.440  0.4458 -1.0365 -0.9320
 4028SOL     OW12372   2.919   2.614   4.672 -0.6143  0.0218 -0.3733
 4028SOL    HW112373   2.967   2.568   4.747  1.0722 -1.1731 -2.0994
 4028SOL    HW212374   2.820   2.602   4.684 -0.3458 -1.0850  1.0580
 4029SOL     OW12375   1.075   4.924   5.233  0.3254  0.2765  0.2496
 4029SOL    HW112376   1.109   4.890   5.145  0.8423  1.1223  0.1134
 4029SOL    HW212377   1.126   4.881   5.307 -0.4917 -0.8694  0.1778
 4030SOL     OW12378   3.298   5.818   5.095  0.0361  0.0525 -0.3253
 4030SOL    HW112379   3.304   5.835   5.193  1.6833 -0.1264 -0.3784
 4030SOL    HW212380   3.280   5.904   5.047 -0.4094  0.1972  0.0956
 4031SOL     OW12381   1.945   2.493   4.327  0.0762  0.0526  0.1897
 4031SOL    HW112382   1.904   2.477   4.237 -1.7794  0.1266  0.9867
 4031SOL    HW212383   1.977   2.587   4.333 -1.8909  0.7565  0.3549
 4032SOL     OW12384   3.910   0.221   3.830  0.0403  0.5547  0.7672
 4032SOL    HW112385   3.942   0.289   3.765 -2.4392 -0.8715 -2.1877
 4032SOL    HW212386   3.877   0.268   3.913  2.1036  2.5156  0.5874
 4033SOL     OW12387   2.656   5.740   5.364 -0.0639 -0.2163  0.4197
 4033SOL    HW112388   2.611   5.785   5.441  2.2198  2.0688  0.5665
 4033SOL    HW212389   2.742   5.699   5.396 -0.0423 -0.9540 -0.5565
 4034SOL     OW12390   2.616   4.415   1.938  0.3402  0.3878  0.1094
 4034SOL    HW112391   2.625   4.408   1.839  1.3402 -0.9830  0.2612
 4034SOL    HW212392   2.596   4.324   1.976  1.5341  0.5878  1.2928
 4035SOL     OW12393   4.370   5.010   5.653  0.2948  0.3099  0.4617
 4035SOL    HW112394   4.417   4.960   5.580  0.6622  2.1357 -0.6119
 4035SOL    HW212395   4.360   4.951   5.733  0.9573 -1.3606 -0.6415
 4036SOL     OW12396   3.965   3.742   0.239 -0.3032 -0.2376  0.5136
 4036SOL    HW112397   4.050   3.793   0.256 -0.4517  0.2095 -0.0559
 4036SOL    HW212398   3.921   3.720   0.327  0.6713 -0.9533  0.8421
 4037SOL     OW12399   4.496   4.521   4.703  0.0903 -0.0438  0.2525
 4037SOL    HW112400   4.462   4.587   4.770  0.0934 -0.5081  0.7123
 4037SOL    HW212401   4.477   4.555   4.611  1.5870  1.4389  0.4167
 4038SOL     OW12402   3.368   3.732   4.648 -0.2716 -0.3209  0.1233
 4038SOL    HW112403   3.433   3.760   4.578  0.2937 -1.1383  0.3094
 4038SOL    HW212404   3.275   3.750   4.615  0.0228  0.5776 -0.2641
 4039SOL     OW12405   3.131   3.326   4.556 -0.1834 -0.4985  0.4255
 4039SOL    HW112406   3.082   3.402   4.599 -1.7070 -1.3144  0.2221
 4039SOL    HW212407   3.132   3.338   4.457 -1.6126 -1.3694  0.2795
 4040SOL     OW12408   4.860   3.056   5.891 -0.0920  0.1849 -0.3896
 4040SOL    HW112409   4.774   3.065   5.942 -0.5083 -1.9298 -0.6299
 4040SOL    HW212410   4.927   3.006   5.946  0.4368  0.3942 -0.8262
 4041SOL     OW12411   3.105   3.759   3.667 -0.0359 -0.1768 -0.5409
 4041SOL    HW112412   3.082   3.809   3.751  0.4847 -2.3025  0.9341
 4041SOL    HW212413   3.040   3.684   3.655  0.4879 -0.4748 -1.5254
 4042SOL     OW12414   2.575   3.772   4.077  0.0977  0.0086  0.5752
 4042SOL    HW112415   2.580   3.825   4.162 -1.9401  1.0473  0.1104
 4042SOL    HW212416   2.548   3.832   4.002 -1.4613 -1.5022 -0.1420
 4043SOL     OW12417   3.477   2.390   4.716 -0.3151 -0.0875 -0.2725
 4043SOL    HW112418   3.529   2.456   4.662 -0.0494 -0.3442 -0.3311
 4043SOL    HW212419   3.484   2.412   4.813  1.6170 -1.3082 -0.0885
 4044SOL     OW12420   0.364   4.235   4.863 -0.2884 -0.5611  0.0566
 4044SOL    HW112421   0.319   4.311   4.818 -0.3033 -0.9557 -0.6019
 4044SOL    HW212422   0.394   4.168   4.795  0.1531 -0.9136  0.5873
 4045SOL     OW12423   4.061   3.444   5.775  0.1939 -0.0838  0.6997
 4045SOL    HW112424   3.983   3.457   5.714 -0.2908 -2.6680  0.6712
 4045SOL    HW212425   4.129   3.516   5.757 -1.1042  0.8079 -0.9611
 4046SOL     OW12426   3.339   5.241   5.908 -0.2439  0.1023  0.1105
 4046SOL    HW112427   3.288   5.155   5.912 -0.4202  0.0789 -1.7285
 4046SOL    HW212428   3.421   5.228   5.852 -0.8985  1.3888 -1.2215
 4047SOL     OW12429   2.401   3.336   4.480 -0.2874 -0.3846  0.0908
 4047SOL    HW112430   2.469   3.299   4.544  0.0158 -2.0595 -1.1243
 4047SOL    HW212431   2.444   3.351   4.391 -0.4926  2.7060  0.3896
 4048SOL     OW12432   3.000   3.494   4.695  0.7084 -0.2156  0.1898
 4048SOL    HW112433   3.005   3.465   4.791  1.6453  2.4561  1.0097
 4048SOL    HW212434   2.905   3.513   4.672  0.7812  3.1008  1.9784
 4049SOL     OW12435   2.572   4.881   4.255 -0.2503  0.4400 -0.2600
 4049SOL    HW112436   2.612   4.962   4.297  0.1207  0.6047 -0.9212
 4049SOL    HW212437   2.486   4.858   4.301  0.5994  0.0636  1.1912
 4050SOL     OW12438   3.821   4.357   1.638 -0.5610 -0.5065 -0.3456
 4050SOL    HW112439   3.869   4.271   1.619 -1.4480 -1.1421  0.2209
 4050SOL    HW212440   3.751   4.341   1.707 -1.3537  0.4766 -0.8962
 4051SOL     OW12441   4.573   4.733   5.798  0.1246 -0.2068 -0.1842
 4051SOL    HW112442   4.611   4.675   5.870  3.7115  0.3239 -1.4616
 4051SOL    HW212443   4.598   4.828   5.815  1.1482 -0.0809 -2.1111
 4052SOL     OW12444   2.444   2.976   4.132  0.3836 -0.0425  0.0729
 4052SOL    HW112445   2.479   2.924   4.210 -0.4427  0.1666  0.5943
 4052SOL    HW212446   2.357   3.018   4.157  1.9345  3.2637  0.3733
 4053SOL     OW12447   1.753   3.294   4.120  0.0882  0.2526 -0.6095
 4053SOL    HW112448   1.653   3.296   4.117  0.0523  1.8310  0.4391
 4053SOL    HW212449   1.790   3.354   4.048  0.3778 -1.8016 -2.2801
 4054SOL     OW12450   1.682   3.999   2.667 -0.6469  1.0153  0.4285
 4054SOL    HW112451   1.715   4.002   2.761  1.1536  0.5890 -0.1417
 4054SOL    HW212452   1.745   4.050   2.608  0.0897 -1.3935 -1.0088
 4055SOL     OW12453   2.863   5.524   4.107 -0.0480  0.4617 -0.4296
 4055SOL    HW112454   2.784   5.522   4.168 -0.1680  1.7658 -0.5106
 4055SOL    HW212455   2.945   5.549   4.159 -0.2792  2.3217 -0.8851
 4056SOL     OW12456   2.855   3.502   4.337  0.3759  0.2522 -0.0458
 4056SOL    HW112457   2.787   3.434   4.365  0.1952  0.5340  0.1968
 4056SOL    HW212458   2.847   3.520   4.239  0.1317  0.2521 -0.0257
 4057SOL     OW12459   2.150   3.889   3.397 -0.6868 -0.0581  0.5588
 4057SOL    HW112460   2.061   3.907   3.439  0.0790 -1.8488  3.2496
 4057SOL    HW212461   2.219   3.947   3.440 -0.3256  0.3604 -0.5608
 4058SOL     OW12462   4.287   5.776   5.543 -0.1800 -0.1266  0.2079
 4058SOL    HW112463   4.278   5.676   5.549  1.3623 -0.1991  2.3016
 4058SOL    HW212464   4.210   5.819   5.591 -0.6484 -0.3048 -0.3756
 4059SOL     OW12465   3.354   4.792   4.296  0.1248  0.0914 -0.0652
 4059SOL    HW112466   3.381   4.703   4.332  0.0315  0.5154  1.1197
 4059SOL    HW212467   3.435   4.841   4.262  0.5220  0.3983  1.2634
 4060SOL     OW12468   2.207   4.746   5.173 -0.1913 -0.4495  0.3137
 4060SOL    HW112469   2.241   4.748   5.079 -0.2638 -2.3825  0.2197
 4060SOL    HW212470   2.209   4.839   5.210  0.2002  0.2992 -1.4495
 4061SOL     OW12471   2.972   4.159   3.796  0.0594  0.0200 -0.5877
 4061SOL    HW112472   3.059   4.184   3.839  0.8500  0.1964 -2.1897
 4061SOL    HW212473   2.989   4.092   3.724 -1.2061 -0.2600 -0.6471
 4062SOL     OW12474   2.550   5.049   0.784  0.5181  0.1997 -0.7823
 4062SOL    HW112475   2.519   5.142   0.768  0.6174  0.2698 -0.5656
 4062SOL    HW212476   2.580   5.039   0.879 -0.2214 -0.2592 -0.5923
 4063SOL     OW12477   2.779   3.585   4.072  0.0771 -0.1145  0.0508
 4063SOL    HW112478   2.840   3.655   4.111 -0.6938  0.6603 -0.1049
 4063SOL    HW212479   2.701   3.630   4.028 -0.1533 -1.0629 -0.5291
 4064SOL     OW12480   2.396   2.708   5.656 -0.7771 -0.5318 -0.1298
 4064SOL    HW112481   2.381   2.610   5.666 -3.7324 -0.5307 -2.6830
 4064SOL    HW212482   2.323   2.747   5.598 -0.7205  3.4767  2.0838
 4065SOL     OW12483   3.058   3.073   0.745 -0.0190 -0.0938 -0.0259
 4065SOL    HW112484   3.059   2.973   0.731  1.0476 -0.0511 -0.3589
 4065SOL    HW212485   3.088   3.094   0.838  0.9412 -0.0549 -0.3261
 4066SOL     OW12486   3.348   3.958   4.922  0.2547 -0.2398  0.0652
 4066SOL    HW112487   3.257   3.943   4.961 -0.3861 -0.8181 -1.5894
 4066SOL    HW212488   3.411   3.982   4.996 -0.8491 -1.4740  1.4957
 4067SOL     OW12489   3.710   3.110   3.658  0.1913  0.3083  0.3258
 4067SOL    HW112490   3.788   3.069   3.612 -0.5408 -0.9531  0.1521
 4067SOL    HW212491   3.627   3.060   3.633 -0.5725  1.1943  1.0333
 4068SOL     OW12492   3.981   0.404   2.772  0.1153  0.2161  0.0654
 4068SOL    HW112493   4.074   0.367   2.777 -0.0092 -0.0482  0.4326
 4068SOL    HW212494   3.965   0.464   2.851 -0.2001 -0.1435  0.2763
 4069SOL     OW12495   3.381   3.868   3.870 -0.0502 -0.1985  0.0981
 4069SOL    HW112496   3.382   3.886   3.771  1.6079  1.1037  0.3160
 4069SOL    HW212497   3.463   3.905   3.912 -0.9471 -0.3091  2.0714
 4070SOL     OW12498   2.071   3.524   5.113 -0.5436  0.6875  0.5557
 4070SOL    HW112499   2.048   3.569   5.200 -1.0845  1.3115  0.1008
 4070SOL    HW212500   2.168   3.500   5.113 -0.3346  1.4867  0.9840
 4071SOL     OW12501   1.379   4.533   0.530 -0.3954  0.2932 -0.6142
 4071SOL    HW112502   1.478   4.536   0.544 -0.3906 -1.9144  0.2007
 4071SOL    HW212503   1.351   4.439   0.510 -2.4190  0.7546 -0.1855
 4072SOL     OW12504   3.317   5.426   3.715  0.2318  0.0504  0.3489
 4072SOL    HW112505   3.303   5.524   3.721 -3.0854 -0.1272 -1.7631
 4072SOL    HW212506   3.350   5.402   3.623  0.7064 -0.8506  0.7379
 4073SOL     OW12507   2.392   3.982   0.482 -0.2182 -0.0987  0.3114
 4073SOL    HW112508   2.379   4.079   0.459  1.9432 -0.0280 -0.8754
 4073SOL    HW212509   2.450   3.974   0.562  2.7118 -0.3033 -1.6674
 4074SOL     OW12510   3.112   3.675   5.889 -0.1410 -0.2465 -0.1338
 4074SOL    HW112511   3.096   3.594   5.833 -1.2961 -0.8165  0.9614
 4074SOL    HW212512   3.090   3.654   5.985 -1.2146  1.5415  0.0576
 4075SOL     OW12513   1.774   5.387   3.376  0.0701  0.1540 -0.0201
 4075SOL    HW112514   1.789   5.351   3.468 -1.6621  2.1489  1.1358
 4075SOL    HW212515   1.752   5.312   3.313 -1.8223 -0.9941  1.8970
 4076SOL     OW12516   2.947   4.857   4.058 -0.4159 -0.4250 -0.3935
 4076SOL    HW112517   2.974   4.919   3.984 -2.4595 -1.6598 -2.3238
 4076SOL    HW212518   2.871   4.800   4.026 -0.3127 -2.1297  2.1821
 4077SOL     OW12519   3.072   4.380   3.096 -0.1161  0.4164  0.2994
 4077SOL    HW112520   3.118   4.397   3.183  0.3831  0.6403 -0.0019
 4077SOL    HW212521   3.105   4.294   3.057 -2.2633 -1.0905  1.5738
 4078SOL     OW12522   1.425   3.356   5.851  0.2253 -0.0243 -0.0880
 4078SOL    HW112523   1.479   3.388   5.773  0.4247 -1.0073 -0.3694
 4078SOL    HW212524   1.349   3.420   5.866  1.2759  1.2126  0.1390
 4079SOL     OW12525   3.679   5.766   1.619  0.0426  0.4234 -0.3042
 4079SOL    HW112526   3.769   5.770   1.576 -0.3921 -0.4850 -1.3519
 4079SOL    HW212527   3.625   5.694   1.576 -0.7920  0.1841  1.0871
 4080SOL     OW12528   4.248   4.734   3.433 -0.2382  0.1467 -0.2502
 4080SOL    HW112529   4.342   4.708   3.458 -1.6628 -2.5058  3.0896
 4080SOL    HW212530   4.233   4.830   3.455  1.1236  0.0607  1.2468
 4081SOL     OW12531   3.443   5.216   3.909  0.5797 -0.2617 -0.2874
 4081SOL    HW112532   3.401   5.262   3.988  1.1508 -0.6825  0.2782
 4081SOL    HW212533   3.395   5.242   3.826  0.1584  0.4423  0.1624
 4082SOL     OW12534   1.635   3.942   3.792 -0.0911  0.1133  0.4951
 4082SOL    HW112535   1.641   4.041   3.784 -1.0190  0.1143 -0.4144
 4082SOL    HW212536   1.558   3.917   3.850  1.1527 -0.0675  2.1219
 4083SOL     OW12537   2.809   4.962   4.923  0.1909  0.1079 -0.2882
 4083SOL    HW112538   2.731   4.999   4.873 -0.6393 -0.3755  0.5927
 4083SOL    HW212539   2.848   5.032   4.982 -2.0654 -0.5309  2.2187
 4084SOL     OW12540   3.519   0.396   5.213 -0.3962  0.6126 -0.5600
 4084SOL    HW112541   3.463   0.449   5.277 -0.7358 -0.1571 -0.1990
 4084SOL    HW212542   3.613   0.389   5.248 -0.8618 -0.8332  0.5193
 4085SOL     OW12543   2.220   5.373   3.046  1.0483  0.5867  0.2016
 4085SOL    HW112544   2.200   5.397   3.141  0.7981  0.5744  0.1540
 4085SOL    HW212545   2.244   5.277   3.040 -1.3442 -0.0587 -0.0677
 4086SOL     OW12546   4.000   5.814   0.145 -0.6239  0.3408 -0.2326
 4086SOL    HW112547   4.084   5.813   0.090 -1.0710  0.9663 -0.9641
 4086SOL    HW212548   4.023   5.825   0.241  0.1165  1.2480 -0.4976
 4087SOL     OW12549   2.658   1.926   5.022 -0.5956  0.1460  0.3247
 4087SOL    HW112550   2.640   1.943   5.119 -0.0188 -0.7348  0.5948
 4087SOL    HW212551   2.756   1.932   5.005 -0.4643 -1.6709  0.2192
 4088SOL     OW12552   1.136   3.718   3.385 -0.1789  0.1074 -0.6044
 4088SOL    HW112553   1.112   3.650   3.454  0.1578  0.7251  0.1446
 4088SOL    HW212554   1.057   3.776   3.366  0.5329  1.9885  1.6835
 4089SOL     OW12555   2.852   4.307   2.486  0.3258  0.0940 -0.4355
 4089SOL    HW112556   2.945   4.280   2.462  0.3060 -0.8727  0.4997
 4089SOL    HW212557   2.839   4.296   2.585 -1.2097 -1.1212 -0.7483
 4090SOL     OW12558   2.281   5.035   5.876  0.2445 -0.1272  0.5030
 4090SOL    HW112559   2.331   4.949   5.865  1.1294  0.4847 -0.5079
 4090SOL    HW212560   2.342   5.111   5.854 -1.0163  0.6686 -0.3739
 4091SOL     OW12561   4.117   4.080   5.907 -0.2506  0.4120  0.6248
 4091SOL    HW112562   4.080   4.109   5.995  1.1636  3.8023  0.2343
 4091SOL    HW212563   4.095   4.148   5.837  1.8940 -0.2765 -0.8178
 4092SOL     OW12564   4.096   0.711   2.067 -0.0351  0.1292 -0.3000
 4092SOL    HW112565   4.015   0.750   2.023 -0.2540  0.4653  0.3805
 4092SOL    HW212566   4.079   0.703   2.165  1.0691  1.0147 -0.0148
 4093SOL     OW12567   3.011   4.481   0.959 -1.0389  0.0576 -0.0719
 4093SOL    HW112568   2.977   4.494   0.865 -0.5938  1.3049 -0.0828
 4093SOL    HW212569   3.061   4.395   0.965 -1.5542 -0.3080 -0.8375
 4094SOL     OW12570   4.218   0.129   4.152 -0.6670 -0.8679 -0.8870
 4094SOL    HW112571   4.127   0.090   4.168 -1.5139  1.1945 -0.4244
 4094SOL    HW212572   4.232   0.142   4.054 -1.9584  1.1132 -0.8750
 4095SOL     OW12573   3.578   0.062   4.838  0.1597 -0.9081  0.2289
 4095SOL    HW112574   3.541   0.024   4.753  2.7399 -0.9082 -0.9626
 4095SOL    HW212575   3.629   0.146   4.818  0.5132 -0.6995  1.8426
 4096SOL     OW12576   3.980   4.114   4.241 -0.2464 -0.1911  0.5191
 4096SOL    HW112577   4.075   4.147   4.238 -0.0855 -0.5582  1.2162
 4096SOL    HW212578   3.934   4.154   4.321 -1.9037  3.0921 -1.8537
 4097SOL     OW12579   1.336   5.781   4.774  0.5091  0.4786  0.4257
 4097SOL    HW112580   1.403   5.725   4.823  0.1612 -0.3039  0.0135
 4097SOL    HW212581   1.384   5.843   4.712  0.8617  0.2035  0.4223
 4098SOL     OW12582   2.978   5.013   5.254  0.3085 -0.0374  0.3315
 4098SOL    HW112583   2.968   5.113   5.254 -0.9198 -0.1337 -0.4506
 4098SOL    HW212584   2.888   4.971   5.261  0.7126 -1.0914 -0.5057
 4099SOL     OW12585   3.292   4.044   0.076 -0.2699  0.5177  0.0168
 4099SOL    HW112586   3.216   4.079   0.021 -0.5241  1.4103  0.8918
 4099SOL    HW212587   3.282   4.078   0.170  0.0276 -1.1526  0.6718
 4100SOL     OW12588   2.496   4.359   5.633 -0.0791  0.2818 -0.3016
 4100SOL    HW112589   2.518   4.263   5.653  4.8872  1.3861  0.6976
 4100SOL    HW212590   2.462   4.403   5.716  0.6071  0.0881  0.0889
 4101SOL     OW12591   2.097   2.010   5.137 -0.3751  0.2334 -0.7282
 4101SOL    HW112592   2.116   1.940   5.205 -1.9353  1.1217  0.7113
 4101SOL    HW212593   2.177   2.069   5.125 -0.8167  1.6442  2.3621
 4102SOL     OW12594   1.454   1.495   3.174  0.2551  0.1901  0.2687
 4102SOL    HW112595   1.477   1.565   3.241 -0.1281  1.0323 -0.4634
 4102SOL    HW212596   1.468   1.531   3.081  0.2094 -0.7547 -0.1164
 4103SOL     OW12597   2.883   5.635   5.441 -0.1463  0.2014 -1.2891
 4103SOL    HW112598   2.904   5.538   5.424 -1.3767 -0.1365 -0.9997
 4103SOL    HW212599   2.878   5.651   5.539  0.7674  0.7299 -1.3269
 4104SOL     OW12600   1.560   2.490   3.314  0.2270  0.2902  0.0488
 4104SOL    HW112601   1.546   2.570   3.373  2.0414  0.6611  0.0450
 4104SOL    HW212602   1.491   2.489   3.242 -0.1704  1.5355  0.3837
 4105SOL     OW12603   2.650   5.549   4.779  0.2567 -0.0318  0.8287
 4105SOL    HW112604   2.564   5.592   4.806 -0.1397 -0.8004  0.8254
 4105SOL    HW212605   2.710   5.540   4.859 -0.4780 -1.3078  1.2749
 4106SOL     OW12606   3.105   4.263   5.533 -0.1370 -0.6572  0.6402
 4106SOL    HW112607   3.148   4.322   5.602 -0.9416  0.3989  0.2634
 4106SOL    HW212608   3.096   4.170   5.570  1.7258 -0.7334  1.0124
 4107SOL     OW12609   3.235   0.805   4.336  0.5288 -0.0996  0.0781
 4107SOL    HW112610   3.261   0.898   4.311 -0.3740  0.6418  1.7062
 4107SOL    HW212611   3.159   0.808   4.401 -1.2806 -2.0608 -1.7742
 4108SOL     OW12612   3.289   4.050   4.092 -0.2169 -0.1774 -0.0640
 4108SOL    HW112613   3.383   4.017   4.077 -1.2284 -3.8447  0.7432
 4108SOL    HW212614   3.227   4.005   4.028 -1.7604  0.2510  1.0765
 4109SOL     OW12615   3.501   5.734   0.498 -0.3828  0.0893 -0.4738
 4109SOL    HW112616   3.588   5.762   0.539  0.0951  0.1877 -1.5260
 4109SOL    HW212617   3.492   5.775   0.408 -0.8512 -1.1084 -0.9951
 4110SOL     OW12618   2.074   3.619   4.715 -0.3476 -0.3998  0.1470
 4110SOL    HW112619   2.109   3.680   4.787  0.6229 -0.7912  0.0195
 4110SOL    HW212620   2.038   3.536   4.757  1.1489 -1.0773  0.1420
 4111SOL     OW12621   3.993   1.018   5.155  0.1819 -0.0717  0.2396
 4111SOL    HW112622   4.040   0.958   5.090 -0.5750 -2.3650  1.7205
 4111SOL    HW212623   4.059   1.054   5.220  0.6254  0.6746 -0.5967
 4112SOL     OW12624   3.552   4.027   4.717  0.1582  0.3071 -0.2556
 4112SOL    HW112625   3.509   4.005   4.629 -1.7436 -0.5952  0.8275
 4112SOL    HW212626   3.487   4.009   4.791  0.6773  3.7382  1.2247
 4113SOL     OW12627   1.835   3.063   4.250  0.3148  0.3235 -0.0817
 4113SOL    HW112628   1.786   3.139   4.205 -0.3170 -0.3213 -0.5097
 4113SOL    HW212629   1.803   3.056   4.344 -0.2605  0.0568 -0.2897
 4114SOL     OW12630   5.112   3.495   5.640 -0.6447  0.0809 -0.2536
 4114SOL    HW112631   5.074   3.473   5.730  0.0684 -2.7202 -0.5259
 4114SOL    HW212632   5.038   3.522   5.578 -1.3109  0.8071  0.8324
 4115SOL     OW12633   3.122   5.029   4.816 -0.3886  0.5150  0.1719
 4115SOL    HW112634   3.141   5.036   4.718 -0.0550 -0.9553  0.1104
 4115SOL    HW212635   3.063   5.105   4.844 -0.4545  0.9760 -1.1603
 4116SOL     OW12636   2.954   4.819   3.609 -0.3744  0.5900  0.0343
 4116SOL    HW112637   2.858   4.820   3.580 -0.9361  1.6979  1.7568
 4116SOL    HW212638   2.979   4.727   3.639 -0.6363  0.0999 -1.2275
 4117SOL     OW12639   2.686   4.611   0.683 -0.2549 -0.6186 -0.3203
 4117SOL    HW112640   2.651   4.549   0.754  0.2660 -0.6644 -0.0952
 4117SOL    HW212641   2.639   4.698   0.690 -0.8546 -0.9239 -0.5111
 4118SOL     OW12642   2.223   0.205   4.935 -0.6997 -0.1376 -0.7899
 4118SOL    HW112643   2.174   0.153   5.005  0.0963  0.0337 -0.0871
 4118SOL    HW212644   2.181   0.295   4.925 -2.5845 -1.1252 -2.5768
 4119SOL     OW12645   3.877   3.799   3.830  0.9569 -0.3321 -0.1221
 4119SOL    HW112646   3.861   3.839   3.920 -0.5539 -2.5423  0.6999
 4119SOL    HW212647   3.903   3.703   3.841 -1.2111 -1.2349 -2.0549
 4120SOL     OW12648   4.725   0.268   0.161  0.0838  0.5595  0.4464
 4120SOL    HW112649   4.659   0.343   0.155 -1.4771 -0.8518 -1.3990
 4120SOL    HW212650   4.750   0.239   0.068  2.3080  0.1623  1.1268
 4121SOL     OW12651   1.721   3.701   3.651  0.1505 -0.5132  0.6170
 4121SOL    HW112652   1.809   3.665   3.620  0.5063  0.2744  0.7031
 4121SOL    HW212653   1.735   3.781   3.708 -0.5943 -0.8246  1.2655
 4122SOL     OW12654   3.414   0.295   4.644 -0.5243 -0.0339  0.8884
 4122SOL    HW112655   3.497   0.313   4.699 -0.8979 -0.1285  1.4949
 4122SOL    HW212656   3.342   0.259   4.704 -1.0362  0.1406  0.3839
 4123SOL     OW12657   1.960   5.756   4.720  0.1994  0.7402 -0.4062
 4123SOL    HW112658   1.955   5.794   4.627  3.7879 -0.7675 -1.3819
 4123SOL    HW212659   2.045   5.787   4.763 -0.2339 -0.5551  1.4639
 4124SOL     OW12660   4.530   4.106   0.197  0.0959 -0.2914  0.1292
 4124SOL    HW112661   4.595   4.111   0.122 -0.1217 -0.7367 -0.0877
 4124SOL    HW212662   4.448   4.158   0.173 -0.6909 -1.8271 -0.6670
 4125SOL     OW12663   2.661   3.918   4.292  0.3404 -0.1221 -0.4021
 4125SOL    HW112664   2.751   3.955   4.272 -0.2135  0.9622 -0.9166
 4125SOL    HW212665   2.671   3.843   4.358  1.5034  0.7525  0.4681
 4126SOL     OW12666   3.094   1.421   5.586 -0.5640 -0.4192  0.3650
 4126SOL    HW112667   3.127   1.349   5.524  2.2122 -0.4004  1.6472
 4126SOL    HW212668   3.091   1.508   5.537  1.8800 -0.3401  0.2354
 4127SOL     OW12669   2.195   3.754   5.459  0.2844  0.3254  0.5089
 4127SOL    HW112670   2.189   3.682   5.528 -0.2985  0.0067  0.1303
 4127SOL    HW212671   2.242   3.719   5.378  0.9582  0.6957  0.7319
 4128SOL     OW12672   2.039   0.118   4.082  0.2987  0.3586 -0.2790
 4128SOL    HW112673   2.135   0.107   4.108 -0.9545 -1.8489  4.5617
 4128SOL    HW212674   2.009   0.211   4.101  1.1681  0.7668 -0.8411
 4129SOL     OW12675   1.608   2.855   4.914 -0.4468  0.2919 -0.3858
 4129SOL    HW112676   1.612   2.948   4.950 -0.4085 -0.0912  0.6536
 4129SOL    HW212677   1.525   2.810   4.948 -1.6948  0.6776 -2.7726
 4130SOL     OW12678   2.158   4.543   4.135  0.4450 -0.1596 -0.5498
 4130SOL    HW112679   2.197   4.452   4.153 -1.2943 -1.0277 -1.0083
 4130SOL    HW212680   2.166   4.565   4.038  2.1508  0.8508 -0.2342
 4131SOL     OW12681   2.752   3.406   3.597  0.5188  0.2579 -0.2184
 4131SOL    HW112682   2.759   3.349   3.515  0.6077 -0.9158  0.5765
 4131SOL    HW212683   2.843   3.432   3.628  0.6249 -0.9598  0.5965
 4132SOL     OW12684   1.016   5.452   4.127  0.1036 -0.4389 -0.1656
 4132SOL    HW112685   1.073   5.406   4.060  0.6271  0.2078 -0.1718
 4132SOL    HW212686   1.074   5.501   4.192 -0.4224  2.9214 -2.0397
 4133SOL     OW12687   2.095   0.090   2.206  0.1328  0.7447 -0.4240
 4133SOL    HW112688   2.100   0.031   2.125 -1.1675 -0.8749  0.6317
 4133SOL    HW212689   2.176   0.076   2.262  0.4268  0.9337 -0.7908
 4134SOL     OW12690   2.692   5.169   4.322  0.0891  0.2604 -0.6254
 4134SOL    HW112691   2.789   5.169   4.297  0.3364  2.0484  0.2205
 4134SOL    HW212692   2.676   5.234   4.396 -1.2692 -2.1825  1.3725
 4135SOL     OW12693   4.055   4.890   3.800 -0.2883  0.5861 -0.1731
 4135SOL    HW112694   3.985   4.821   3.820  0.5260 -0.0689  0.5213
 4135SOL    HW212695   4.017   4.981   3.814 -1.1549  0.2530 -0.3147
 4136SOL     OW12696   1.083   4.472   3.770  0.2130 -0.3784  0.0029
 4136SOL    HW112697   1.107   4.569   3.761  0.1528 -0.4277 -0.7608
 4136SOL    HW212698   1.136   4.431   3.845  2.3636 -0.4194 -1.4501
 4137SOL     OW12699   5.087   0.029   3.150  0.1859  0.1734 -0.1936
 4137SOL    HW112700   5.022   0.059   3.220 -0.3329 -0.2146 -0.5054
 4137SOL    HW212701   5.069   0.079   3.065 -1.1350 -1.4732 -0.9246
 4138SOL     OW12702   0.942   3.321   0.036  0.0519  0.3355 -0.3758
 4138SOL    HW112703   0.964   3.387  -0.036  2.6797 -0.9800 -0.8720
 4138SOL    HW212704   0.996   3.342   0.118 -1.4765  0.6451  0.6025
 4139SOL     OW12705   3.930   5.157   0.417 -0.2428  0.2229  0.2132
 4139SOL    HW112706   4.003   5.216   0.452  1.2153  0.5195 -2.9861
 4139SOL    HW212707   3.930   5.071   0.467  2.1862  0.3141  0.4897
 4140SOL     OW12708   2.135   4.282   5.729 -0.0113 -0.2725 -0.2465
 4140SOL    HW112709   2.046   4.236   5.732  0.7911 -1.8982 -0.6050
 4140SOL    HW212710   2.187   4.260   5.811 -0.5408  2.0880  0.8401
 4141SOL     OW12711   1.630   3.158   5.690 -0.0884 -0.1690  0.0966
 4141SOL    HW112712   1.638   3.060   5.671  1.1943  0.1831 -1.3756
 4141SOL    HW212713   1.665   3.176   5.782  0.9536 -0.9305 -0.1253
 4142SOL     OW12714   5.154   5.201   5.588 -0.1242 -0.2135 -0.4519
 4142SOL    HW112715   5.075   5.174   5.534  0.0417  0.6700 -1.1642
 4142SOL    HW212716   5.212   5.121   5.605  0.6239 -0.2733 -2.9356
 4143SOL     OW12717   1.329   4.534   4.435 -0.2411 -0.3378  0.3165
 4143SOL    HW112718   1.388   4.614   4.418  1.0088 -1.4069 -0.5451
 4143SOL    HW212719   1.323   4.518   4.533  1.5012 -0.5910  0.4219
 4144SOL     OW12720   2.352   2.925   0.540 -0.7745  0.0494 -0.9677
 4144SOL    HW112721   2.382   3.020   0.552  0.0383 -0.3772  0.7940
 4144SOL    HW212722   2.433   2.865   0.540 -1.3132 -0.6846 -1.4864
 4145SOL     OW12723   4.381   3.760   1.098  0.5254  0.6691  0.0233
 4145SOL    HW112724   4.305   3.797   1.044  0.5506  0.7826  0.0656
 4145SOL    HW212725   4.376   3.793   1.192  1.6377  2.1565 -0.4049
 4146SOL     OW12726   1.902   3.165   0.054  0.6031 -0.5174  0.1779
 4146SOL    HW112727   1.805   3.184   0.065  0.6988  0.3768 -0.4094
 4146SOL    HW212728   1.939   3.130   0.140 -0.3219 -1.2642  0.2773
 4147SOL     OW12729   3.341   4.288   0.274 -0.2376  0.1443 -0.8409
 4147SOL    HW112730   3.382   4.351   0.208  0.5728 -1.4736 -1.9351
 4147SOL    HW212731   3.301   4.341   0.349  0.2129  1.9604 -1.8128
 4148SOL     OW12732   2.388   4.368   5.362  0.8700  0.1139 -0.1391
 4148SOL    HW112733   2.305   4.312   5.362  1.8183 -1.3552 -0.3607
 4148SOL    HW212734   2.431   4.364   5.452  1.7146 -0.7616 -0.5549
 4149SOL     OW12735   1.948   5.563   1.685 -0.2336  0.5656 -0.4834
 4149SOL    HW112736   1.973   5.621   1.608 -2.5579  0.4770 -1.3559
 4149SOL    HW212737   1.903   5.619   1.755  0.1995  0.3193 -0.0037
 4150SOL     OW12738   2.944   0.126   0.452  0.3986 -0.4105  0.2089
 4150SOL    HW112739   2.862   0.096   0.402  0.8797 -0.9085 -0.2847
 4150SOL    HW212740   2.937   0.097   0.548 -0.2361 -0.0009  0.2950
 4151SOL     OW12741   4.334   3.495   1.068 -0.3651 -0.8311  0.5440
 4151SOL    HW112742   4.354   3.593   1.061 -1.8656 -0.5054  0.4258
 4151SOL    HW212743   4.256   3.481   1.129 -0.9656 -1.8263 -0.4166
 4152SOL     OW12744   2.947   5.148   4.285  0.0091 -0.6259  0.3313
 4152SOL    HW112745   2.960   5.198   4.371 -1.0508 -0.2283  0.2758
 4152SOL    HW212746   2.999   5.063   4.288  2.8559  0.9509 -0.0463
 4153SOL     OW12747   2.733   4.028   4.903 -0.4666 -0.0920  0.0271
 4153SOL    HW112748   2.677   4.024   4.820 -0.7160 -1.1499  0.2300
 4153SOL    HW212749   2.829   4.041   4.877 -0.6027  0.1182 -0.3941
 4154SOL     OW12750   3.134   5.200   5.566 -0.0313 -0.2266 -0.2807
 4154SOL    HW112751   3.175   5.109   5.561  1.4143  0.4377 -1.2937
 4154SOL    HW212752   3.205   5.269   5.556 -1.3411  1.0032 -1.8050
 4155SOL     OW12753   2.820   2.006   0.342 -0.0539  0.2320 -0.3152
 4155SOL    HW112754   2.865   2.087   0.380  1.7709 -0.7072 -0.4095
 4155SOL    HW212755   2.790   1.947   0.417  2.9315 -1.2851 -0.1971
 4156SOL     OW12756   4.428   0.516   4.277  0.7882 -0.6772 -0.6469
 4156SOL    HW112757   4.391   0.570   4.201  2.3553 -0.9701 -1.6727
 4156SOL    HW212758   4.367   0.439   4.296 -0.7167  0.6033 -0.1404
 4157SOL     OW12759   4.675   3.680   0.554  0.3439 -0.0118  0.3191
 4157SOL    HW112760   4.759   3.628   0.563  0.0495 -0.7723 -1.0643
 4157SOL    HW212761   4.687   3.752   0.486 -0.5595 -1.1517 -1.1163
 4158SOL     OW12762   1.514   3.613   3.190 -0.2153 -0.0548  0.0322
 4158SOL    HW112763   1.561   3.666   3.260  0.0710  0.3277 -0.4428
 4158SOL    HW212764   1.581   3.578   3.124 -0.5531  0.1995 -0.4525
 4159SOL     OW12765   4.912   4.818   0.612  0.6385  0.0578  0.7657
 4159SOL    HW112766   4.909   4.729   0.566 -0.2178  0.2023  0.5119
 4159SOL    HW212767   4.869   4.810   0.702 -0.0981  0.3604  0.4546
 4160SOL     OW12768   3.013   0.181   4.675 -0.2527  0.0302  0.2591
 4160SOL    HW112769   3.003   0.276   4.647 -1.9539  0.0618  0.8429
 4160SOL    HW212770   3.090   0.172   4.738  0.5323  0.8275 -0.5673
 4161SOL     OW12771   3.838   2.913   5.276 -0.0151  0.5541  0.1050
 4161SOL    HW112772   3.936   2.892   5.278  0.3763  2.2809  0.7597
 4161SOL    HW212773   3.800   2.903   5.369 -0.7911 -1.3586 -0.3605
 4162SOL     OW12774   2.589   0.092   1.949 -0.0146  0.4531 -0.0949
 4162SOL    HW112775   2.688   0.077   1.942  0.3989  1.5110  2.4930
 4162SOL    HW212776   2.562   0.163   1.884  0.4070 -1.5204 -2.5841
 4163SOL     OW12777   3.132   0.280   5.111 -0.1066 -0.3261  0.3213
 4163SOL    HW112778   3.065   0.212   5.080 -0.4079 -0.1770  0.6342
 4163SOL    HW212779   3.115   0.301   5.207 -1.0226  1.3738 -0.1776
 4164SOL     OW12780   2.934   4.503   0.705 -0.1389  0.3675  0.7697
 4164SOL    HW112781   2.899   4.426   0.651  1.2675  0.7465 -0.7969
 4164SOL    HW212782   2.880   4.585   0.685 -0.3195  0.2561  0.8009
 4165SOL     OW12783   2.704   4.261   0.677 -0.2770 -0.3551 -0.1532
 4165SOL    HW112784   2.659   4.333   0.730 -1.5964 -0.7149 -0.7448
 4165SOL    HW212785   2.694   4.280   0.580  0.6568 -0.5749 -0.2972
 4166SOL     OW12786   5.259   4.508   5.290  0.1488 -0.0990  0.3379
 4166SOL    HW112787   5.304   4.596   5.304  1.6830 -1.2177  3.3355
 4166SOL    HW212788   5.298   4.463   5.210 -0.2931  1.6663 -0.9328
 4167SOL     OW12789   1.373   3.630   5.351  0.0237  0.4782  0.2648
 4167SOL    HW112790   1.428   3.551   5.377 -2.0072 -0.3148  2.5588
 4167SOL    HW212791   1.323   3.610   5.267 -0.1391 -0.5026  0.5850
 4168SOL     OW12792   3.820   4.664   1.953 -0.0681  0.3029  0.4272
 4168SOL    HW112793   3.739   4.670   1.896  1.7996  2.4126 -2.2332
 4168SOL    HW212794   3.825   4.744   2.013  0.8491  1.1274 -0.6944
 4169SOL     OW12795   4.363   4.640   4.887 -0.1971  0.0850 -0.4697
 4169SOL    HW112796   4.291   4.615   4.823 -1.4019 -0.9497  1.2221
 4169SOL    HW212797   4.325   4.694   4.962  0.6331 -0.9771  0.7649
 4170SOL     OW12798   2.090   4.649   0.700  0.1158  0.4445 -0.0414
 4170SOL    HW112799   2.130   4.734   0.666  1.0836  0.2609  0.5815
 4170SOL    HW212800   2.017   4.670   0.765 -1.9426  0.8010 -2.3439
 4171SOL     OW12801   2.744   2.947   0.045 -0.1980  0.0999 -0.5518
 4171SOL    HW112802   2.710   2.943   0.139 -0.0853  2.3354 -0.3747
 4171SOL    HW212803   2.754   2.854   0.010  0.5991 -0.8520  1.9349
 4172SOL     OW12804   2.026   4.753   1.553 -0.3189  0.2460 -0.0978
 4172SOL    HW112805   1.969   4.835   1.550  0.2471  0.6144 -2.1174
 4172SOL    HW212806   1.976   4.676   1.512  0.7423  0.7024 -2.3998
 4173SOL     OW12807   2.496   3.705   4.773  0.4384 -0.0898  0.3754
 4173SOL    HW112808   2.444   3.656   4.703  2.4071 -0.4457 -0.9192
 4173SOL    HW212809   2.507   3.800   4.745 -0.6298  0.3364  1.3215
 4174SOL     OW12810   4.099   3.493   1.526 -0.4799  0.1166 -0.3009
 4174SOL    HW112811   4.192   3.484   1.561 -0.8532  0.8550  0.9607
 4174SOL    HW212812   4.054   3.571   1.571 -1.2718  0.6010 -1.8619
 4175SOL     OW12813   2.300   3.883   5.709  0.3349  0.3296  0.7656
 4175SOL    HW112814   2.346   3.796   5.728 -0.0049 -0.2463 -0.8552
 4175SOL    HW212815   2.264   3.881   5.616 -0.8787  1.6970  1.1811
 4176SOL     OW12816   2.015   4.248   0.711 -0.3461  0.2567 -0.3740
 4176SOL    HW112817   2.092   4.307   0.685  0.0067 -0.8505 -1.9884
 4176SOL    HW212818   2.040   4.194   0.791 -0.6556  2.1899  1.1208
 4177SOL     OW12819   2.474   3.392   5.612  0.5942  0.3298 -0.5249
 4177SOL    HW112820   2.556   3.449   5.624 -1.2200  2.7958  1.2567
 4177SOL    HW212821   2.437   3.368   5.701 -1.6636  0.9160 -1.2423
 4178SOL     OW12822   1.285   2.183   1.184 -0.7698  0.9690  0.2194
 4178SOL    HW112823   1.315   2.098   1.227 -0.2353  0.8586 -0.3648
 4178SOL    HW212824   1.351   2.256   1.204  0.2710  0.5764 -1.5907
 4179SOL     OW12825   3.426   1.120   0.695 -0.1512  0.3036  0.0703
 4179SOL    HW112826   3.430   1.195   0.629  0.8602 -0.1325 -0.3974
 4179SOL    HW212827   3.414   1.034   0.645  2.2136 -0.2138  0.2631
 4180SOL     OW12828   2.725   3.532   5.710  1.6014  0.2245  0.5094
 4180SOL    HW112829   2.738   3.565   5.803  0.4932  2.0404  0.0566
 4180SOL    HW212830   2.753   3.436   5.705 -0.5320 -0.6631  3.2896
 4181SOL     OW12831   1.647   5.066   0.231 -0.5296  0.0434 -0.0333
 4181SOL    HW112832   1.560   5.020   0.214  0.2991 -1.7209  0.3086
 4181SOL    HW212833   1.643   5.113   0.319 -0.5009 -1.7570  0.9828
 4182SOL     OW12834   1.730   3.662   5.522 -0.1035 -0.2780  0.1389
 4182SOL    HW112835   1.820   3.679   5.563  0.2385 -0.2701 -0.6047
 4182SOL    HW212836   1.702   3.742   5.469 -1.2667  0.3497  1.6296
 4183SOL     OW12837   2.424   3.367   5.874  0.1256  0.2474 -0.4494
 4183SOL    HW112838   2.341   3.317   5.899 -0.1850  0.2445 -1.4415
 4183SOL    HW212839   2.499   3.340   5.934 -0.1792 -0.9829 -0.6061
 4184SOL     OW12840   5.697   4.027   3.503 -0.3230  0.2334  0.5256
 4184SOL    HW112841   5.613   4.073   3.475 -0.5987  0.3335  1.4514
 4184SOL    HW212842   5.776   4.085   3.482 -0.5622  0.5352  0.4469
 4185SOL     OW12843   1.780   5.099   1.120  0.1424  0.6545  0.1306
 4185SOL    HW112844   1.695   5.050   1.101  0.7289 -0.8996  1.3507
 4185SOL    HW212845   1.857   5.047   1.085  0.9644 -0.5351  3.3728
 4186SOL     OW12846   2.060   1.292   5.739  0.5967 -0.0389  0.2178
 4186SOL    HW112847   2.159   1.288   5.725  0.2817 -0.1780 -2.6325
 4186SOL    HW212848   2.025   1.378   5.702 -0.5548 -0.8858 -0.7420
 4187SOL     OW12849   2.019   5.823   5.537 -0.6683  0.2606 -0.5607
 4187SOL    HW112850   2.043   5.883   5.461  2.1539  2.1425  1.5958
 4187SOL    HW212851   2.080   5.743   5.538 -0.3922  0.4712 -0.0566
 4188SOL     OW12852   0.937   0.593   0.639 -0.0195  0.3269 -0.2493
 4188SOL    HW112853   0.936   0.682   0.685 -1.4751  1.7691 -2.8603
 4188SOL    HW212854   0.967   0.604   0.545 -2.0405 -1.5868 -1.2244
 4189SOL     OW12855   2.622   0.135   2.995 -0.2624  0.2240 -0.4858
 4189SOL    HW112856   2.574   0.100   3.076  0.4366 -0.4064 -0.3366
 4189SOL    HW212857   2.599   0.078   2.916 -0.5235  0.5164 -0.6230
 4190SOL     OW12858   3.062   1.377   2.210 -0.7890  0.5121 -0.3013
 4190SOL    HW112859   3.086   1.405   2.304 -0.1609  0.9261 -0.5782
 4190SOL    HW212860   3.097   1.285   2.193 -1.1118  0.3397 -0.0556
 4191SOL     OW12861   3.464   0.720   1.110  0.2350 -0.0213 -0.0506
 4191SOL    HW112862   3.470   0.621   1.099 -1.2192 -0.3848  1.8675
 4191SOL    HW212863   3.368   0.748   1.102  0.0372  0.6339  3.1068
 4192SOL     OW12864   4.078   1.141   5.628  0.0497 -0.2448 -0.1971
 4192SOL    HW112865   4.141   1.068   5.654 -0.1003  0.3338  1.9874
 4192SOL    HW212866   3.983   1.108   5.635  0.0165 -0.1529 -0.2032
 4193SOL     OW12867   1.338   5.128   0.764  0.4987  0.6071 -0.1233
 4193SOL    HW112868   1.277   5.048   0.768 -0.5893  1.4493  0.6844
 4193SOL    HW212869   1.375   5.136   0.671 -1.4178  0.6292 -0.9366
 4194SOL     OW12870   3.213   1.191   2.011  0.2290  0.1372 -0.2022
 4194SOL    HW112871   3.296   1.242   2.035  0.8802 -0.3302 -1.3287
 4194SOL    HW212872   3.239   1.101   1.974 -0.8027 -0.1396 -0.2871
 4195SOL     OW12873   0.438   5.974   0.999  0.1334  0.2115 -0.4191
 4195SOL    HW112874   0.412   5.899   1.059 -2.1198  0.0376 -1.5030
 4195SOL    HW212875   0.466   5.938   0.910  1.1858  0.5779 -0.2497
 4196SOL     OW12876   1.718   0.553   1.942 -0.0803  0.2227  0.7709
 4196SOL    HW112877   1.761   0.483   1.885 -0.3507  0.2048  0.5863
 4196SOL    HW212878   1.734   0.643   1.902  2.4634  0.5744  2.3281
 4197SOL     OW12879   4.234   0.424   5.872  0.8424  0.6072  0.0389
 4197SOL    HW112880   4.271   0.351   5.816  0.0676  0.1922  0.0524
 4197SOL    HW212881   4.135   0.427   5.862  0.9354  2.2201 -0.6301
 4198SOL     OW12882   2.882   4.227   0.184  0.2196 -0.1730  0.2946
 4198SOL    HW112883   2.894   4.296   0.113  0.1998 -0.1061  0.3558
 4198SOL    HW212884   2.815   4.159   0.154 -0.4892  0.3642  0.6190
 4199SOL     OW12885   2.711   4.903   5.284 -0.0599 -0.4099 -0.2930
 4199SOL    HW112886   2.706   4.825   5.221 -1.3565 -0.7880  0.2509
 4199SOL    HW212887   2.632   4.963   5.269  0.4524  0.3252 -0.0876
 4200SOL     OW12888   3.129   5.371   0.648 -0.0169  0.0927  0.5102
 4200SOL    HW112889   3.140   5.281   0.607  0.3174  0.4510 -0.1973
 4200SOL    HW212890   3.209   5.427   0.628 -1.7161  1.7955 -2.2427
 4201SOL     OW12891   2.187   4.448   0.548 -0.0106 -0.1127 -0.6515
 4201SOL    HW112892   2.274   4.474   0.507  0.9406 -0.1306  1.2533
 4201SOL    HW212893   2.147   4.526   0.597 -0.3420 -0.4795 -0.3178
 4202SOL     OW12894   3.484   5.380   5.549 -0.2068 -0.2573  0.1147
 4202SOL    HW112895   3.518   5.309   5.488 -2.1149  0.4353 -1.8527
 4202SOL    HW212896   3.389   5.402   5.527 -1.1530 -0.1738  3.5792
 4203SOL     OW12897   2.807   1.959   5.522 -0.6799  0.1489 -0.1524
 4203SOL    HW112898   2.754   2.023   5.578  0.1812  0.9271 -0.1976
 4203SOL    HW212899   2.905   1.974   5.539 -0.4147  0.1445 -1.5764
 4204SOL     OW12900   0.815   1.223   1.858  0.3728  0.0849  0.6524
 4204SOL    HW112901   0.876   1.170   1.917  1.3780  1.2372  0.6884
 4204SOL    HW212902   0.857   1.232   1.768  0.6650  1.5856  0.9209
 4205SOL     OW12903   2.943   1.222   5.670  0.1819  0.4442 -0.1240
 4205SOL    HW112904   2.971   1.150   5.607  0.2378  0.2025  0.1719
 4205SOL    HW212905   2.987   1.308   5.645  0.3016  0.3202 -0.3375
 4206SOL     OW12906   4.705   2.594   2.821  0.7546  0.4264  0.6182
 4206SOL    HW112907   4.669   2.679   2.859 -2.5312 -0.5604  0.0554
 4206SOL    HW212908   4.714   2.604   2.722 -1.5284 -0.3718  0.2714
 4207SOL     OW12909   2.760   5.106   2.149 -0.2318  0.0743  0.2701
 4207SOL    HW112910   2.737   5.191   2.102 -2.1570 -0.0796  0.8438
 4207SOL    HW212911   2.716   5.029   2.103 -1.8015 -0.1242  1.9579
 4208SOL     OW12912   1.620   5.679   0.458 -0.7069  0.1463  0.1961
 4208SOL    HW112913   1.524   5.654   0.444 -0.1972 -1.8780 -0.0935
 4208SOL    HW212914   1.675   5.595   0.464  1.1663  1.2782 -0.4705
 4209SOL     OW12915   1.590   5.629   1.559  0.1598 -0.5248  0.9338
 4209SOL    HW112916   1.555   5.543   1.520  0.8783  0.4824 -2.1824
 4209SOL    HW212917   1.661   5.666   1.499 -1.8278  3.5180  0.7663
 4210SOL     OW12918   2.977   0.667   0.744  0.2857  0.3847  0.5880
 4210SOL    HW112919   3.046   0.684   0.814  0.1175  0.7366  0.6698
 4210SOL    HW212920   2.991   0.575   0.705 -0.7267 -0.5784  2.3681
 4211SOL     OW12921   2.285   0.908   2.878 -0.3937  0.6112  0.1593
 4211SOL    HW112922   2.210   0.933   2.939  0.3033  1.2463  0.7588
 4211SOL    HW212923   2.247   0.874   2.791 -1.3836 -0.2618  0.9091
 4212SOL     OW12924   3.174   5.923   0.409  0.5120 -0.0295 -0.1372
 4212SOL    HW112925   3.234   5.906   0.488  2.0559  2.1181 -0.7430
 4212SOL    HW212926   3.087   5.960   0.441  0.3579 -1.0016  0.6374
 4213SOL     OW12927   4.571   5.621   4.773  0.1992  0.0122 -0.1791
 4213SOL    HW112928   4.588   5.690   4.843  3.1729 -0.6455 -0.1403
 4213SOL    HW212929   4.517   5.546   4.813 -1.6270  1.4616  0.2116
 4214SOL     OW12930   1.696   4.126   5.397  0.8332  0.2427 -0.0028
 4214SOL    HW112931   1.635   4.106   5.474  1.4823  0.6393  0.6266
 4214SOL    HW212932   1.733   4.218   5.407  0.6745  0.4238 -0.9728
 4215SOL     OW12933   2.404   0.697   0.201 -0.2104  0.2783 -0.4197
 4215SOL    HW112934   2.377   0.666   0.110 -1.3557 -2.6858  0.8124
 4215SOL    HW212935   2.504   0.707   0.204  0.3274 -3.3340 -1.0948
 4216SOL     OW12936   1.219   5.322   0.427  0.0379 -0.5288  0.1386
 4216SOL    HW112937   1.172   5.281   0.348 -0.1549  0.0434 -0.0495
 4216SOL    HW212938   1.173   5.407   0.452  0.7322 -0.1683  0.2081
 4217SOL     OW12939   4.289   2.008   0.955  0.7115 -0.1309 -0.3693
 4217SOL    HW112940   4.302   2.102   0.984  1.1017  0.1354 -1.3967
 4217SOL    HW212941   4.286   1.949   1.036 -2.4957  1.0677  0.5275
 4218SOL     OW12942   2.835   0.339   0.139  0.4034  0.0588  0.3623
 4218SOL    HW112943   2.924   0.328   0.183  0.9663  1.0862 -0.4502
 4218SOL    HW212944   2.773   0.388   0.200  0.9695  0.8864  0.3004
 4219SOL     OW12945   3.030   5.803   0.167 -0.0590 -0.0352 -0.6530
 4219SOL    HW112946   3.035   5.707   0.139 -1.5196 -0.9821  1.9289
 4219SOL    HW212947   3.096   5.820   0.241 -1.6140  0.1454  0.7678
 4220SOL     OW12948   3.549   3.959   0.062 -0.0874 -0.6304  0.6635
 4220SOL    HW112949   3.453   3.985   0.059 -0.0294 -0.0594  2.5749
 4220SOL    HW212950   3.594   4.004   0.139  2.2594  0.8765 -1.3953
 4221SOL     OW12951   3.239   3.094   5.165 -0.4299  0.4033  0.1938
 4221SOL    HW112952   3.285   3.179   5.189  1.9367 -0.3432 -1.4205
 4221SOL    HW212953   3.296   3.016   5.189 -1.9519 -0.7233  0.3606
 4222SOL     OW12954   1.529   5.619   4.915  0.1628  0.2967 -0.2126
 4222SOL    HW112955   1.628   5.631   4.907  0.3928 -0.8645  0.6207
 4222SOL    HW212956   1.509   5.541   4.974 -1.2421 -0.1847 -1.2495
 4223SOL     OW12957   3.374   5.123   5.401 -0.3447 -0.5312 -0.1370
 4223SOL    HW112958   3.393   5.057   5.328  1.4666  1.1756 -1.2985
 4223SOL    HW212959   3.443   5.115   5.472  0.7328  0.9808 -0.9620
 4224SOL     OW12960   2.374   5.421   1.016  0.2462  0.4009 -0.2640
 4224SOL    HW112961   2.354   5.514   0.986  1.3863  0.3277 -1.3314
 4224SOL    HW212962   2.435   5.424   1.096 -0.1658  0.5663  0.0471
 4225SOL     OW12963   2.098   4.134   0.934  0.6826 -0.0461  0.0455
 4225SOL    HW112964   2.133   4.127   1.027 -1.0596 -0.1577  0.7175
 4225SOL    HW212965   2.101   4.044   0.891 -0.6206 -0.4847  0.8150
 4226SOL     OW12966   1.614  -0.014   1.251  0.8293 -0.4882 -0.2489
 4226SOL    HW112967   1.687   0.023   1.193  0.8884  0.1371  0.2118
 4226SOL    HW212968   1.579   0.058   1.310 -1.3063 -0.3366 -1.6006
 4227SOL     OW12969   3.743   3.752   5.914  0.0804 -0.3364  0.2554
 4227SOL    HW112970   3.841   3.766   5.903 -0.2548  0.5803 -2.1147
 4227SOL    HW212971   3.703   3.831   5.959 -0.0574  1.1857 -2.3235
 4228SOL     OW12972   1.541   4.890   1.421 -0.3489  0.2374  0.3730
 4228SOL    HW112973   1.455   4.928   1.456 -0.1090  0.8874  0.2643
 4228SOL    HW212974   1.553   4.916   1.326  0.2388  0.6251  0.5466
 4229SOL     OW12975   3.716   1.017   0.099 -0.1917 -0.4295 -0.0553
 4229SOL    HW112976   3.754   1.047   0.011 -1.4323  0.7113 -0.2452
 4229SOL    HW212977   3.789   1.003   0.165  0.6217  0.8092 -0.6585
 4230SOL     OW12978   3.337   0.219   0.494  0.3044  0.0278  0.0819
 4230SOL    HW112979   3.329   0.207   0.395  1.6040 -0.2642 -0.0128
 4230SOL    HW212980   3.367   0.133   0.536  1.3726  0.5807  0.5029
 4231SOL     OW12981   2.364   1.230   1.521 -0.4516 -1.0336 -0.7198
 4231SOL    HW112982   2.315   1.317   1.532  0.0419 -0.8797  0.3978
 4231SOL    HW212983   2.355   1.199   1.426 -1.4908 -0.2859 -0.8915
 4232SOL     OW12984   3.489   3.729   0.732 -0.5814  0.0513 -0.5147
 4232SOL    HW112985   3.491   3.826   0.710 -0.5174  0.1245 -0.1891
 4232SOL    HW212986   3.437   3.680   0.662  1.2719  0.0041 -1.9383
 4233SOL     OW12987   3.209   0.432   2.188 -0.1706 -0.7055 -0.1946
 4233SOL    HW112988   3.162   0.384   2.114  0.1646 -0.5340 -0.5196
 4233SOL    HW212989   3.158   0.419   2.273  0.3162 -2.2669 -0.1118
 4234SOL     OW12990   2.360   1.344   4.355  0.1792  0.2246 -0.3077
 4234SOL    HW112991   2.453   1.339   4.391 -1.5515 -0.8644  4.9108
 4234SOL    HW212992   2.316   1.428   4.388 -1.8174 -1.2109  0.9243
 4235SOL     OW12993   3.057   0.903   2.178 -0.1221  0.0453  0.5841
 4235SOL    HW112994   3.114   0.969   2.228 -0.9016  1.0078  0.2522
 4235SOL    HW212995   3.028   0.944   2.092 -0.6657 -0.7261  0.3919
 4236SOL     OW12996   3.272   0.494   4.996 -0.3968 -0.1522 -0.2332
 4236SOL    HW112997   3.361   0.456   5.021 -1.1356 -1.5733  0.3439
 4236SOL    HW212998   3.201   0.425   5.011 -1.5326  0.7650 -1.2140
 4237SOL     OW12999   2.862   0.091   1.953  0.3279 -0.5981 -0.9823
 4237SOL    HW113000   2.918   0.066   2.031 -1.2667  1.4066  0.9139
 4237SOL    HW213001   2.892   0.039   1.873  1.9578 -2.8096  0.9234
 4238SOL     OW13002   3.830   1.249   5.186 -0.3957  0.0485 -0.6228
 4238SOL    HW113003   3.877   1.271   5.272 -0.8000  1.4924 -0.7536
 4238SOL    HW213004   3.860   1.159   5.154  0.2434 -0.2284  0.6939
 4239SOL     OW13005   3.633   5.369   2.539  0.0012 -0.3680 -0.5851
 4239SOL    HW113006   3.541   5.331   2.551 -0.4940  0.5229 -1.4413
 4239SOL    HW213007   3.700   5.308   2.581 -0.8010 -1.9515 -1.5493
 4240SOL     OW13008   3.027   5.517   2.399  0.0918 -0.8312 -0.8489
 4240SOL    HW113009   2.930   5.518   2.423  0.2733  0.0550 -0.1101
 4240SOL    HW213010   3.060   5.422   2.396 -0.7762 -1.1290 -1.0503
 4241SOL     OW13011   4.113   5.791   2.451 -0.2033  0.0274  0.0954
 4241SOL    HW113012   4.039   5.858   2.456 -0.5981 -0.3833 -0.1701
 4241SOL    HW213013   4.080   5.708   2.406 -0.6886 -1.5791  3.0989
 4242SOL     OW13014   1.562   5.574   3.388 -0.9670  0.2776 -0.3161
 4242SOL    HW113015   1.643   5.520   3.365 -0.8841  0.4789 -0.4981
 4242SOL    HW213016   1.545   5.569   3.486  0.5364  2.0036  0.0853
 4243SOL     OW13017   3.058   5.501   1.843 -0.1086 -0.5737  0.1436
 4243SOL    HW113018   3.157   5.495   1.853 -0.1451 -0.4558  0.6187
 4243SOL    HW213019   3.015   5.495   1.934 -0.3808  2.3625  0.2799
 4244SOL     OW13020   2.804   1.110   2.212 -0.1771  0.4047 -0.1232
 4244SOL    HW113021   2.899   1.102   2.242 -0.3251  1.4664  0.7157
 4244SOL    HW213022   2.772   1.204   2.229 -0.8686  0.5318 -1.9154
 4245SOL     OW13023   3.168   5.447   5.760 -0.3053  0.3573  0.5104
 4245SOL    HW113024   3.212   5.364   5.793  0.9354  0.8714  0.1825
 4245SOL    HW213025   3.233   5.502   5.707 -1.7816  0.3680 -1.3964
 4246SOL     OW13026   2.575   0.785   3.445  0.2398 -0.1200  0.4390
 4246SOL    HW113027   2.562   0.710   3.509  0.9063 -0.9126 -0.3382
 4246SOL    HW213028   2.486   0.826   3.424 -0.5284 -2.4093 -1.1555
 4247SOL     OW13029   4.179   2.713   4.020 -0.6520 -0.1919  0.1138
 4247SOL    HW113030   4.145   2.639   3.962  1.4338 -1.4317  0.3776
 4247SOL    HW213031   4.164   2.801   3.975 -1.1480 -0.9438 -1.2450
 4248SOL     OW13032   3.085   0.687   2.649 -0.3065  0.1018 -0.4152
 4248SOL    HW113033   3.125   0.689   2.740  0.1323 -1.1130 -0.5529
 4248SOL    HW213034   3.019   0.611   2.644  0.4550 -0.5150 -1.4089
 4249SOL     OW13035   1.561   4.850   0.555 -0.2265 -0.1469 -0.2240
 4249SOL    HW113036   1.508   4.920   0.506 -1.0717 -0.2600  0.4941
 4249SOL    HW213037   1.511   4.824   0.638  0.8613 -0.4240  0.3561
 4250SOL     OW13038   3.010   5.946   2.152  0.0180 -0.1234 -0.1151
 4250SOL    HW113039   2.968   5.856   2.145 -0.9526  0.3568 -0.6199
 4250SOL    HW213040   3.011   5.974   2.248  0.6604 -0.8158  0.0892
 4251SOL     OW13041   3.824   4.650   3.709 -0.0666 -0.3889 -0.1052
 4251SOL    HW113042   3.881   4.672   3.630 -1.0747 -0.8852 -0.9914
 4251SOL    HW213043   3.733   4.690   3.697 -0.0771  0.0062  1.0802
 4252SOL     OW13044   2.682   4.000   1.978 -0.7232  0.0359 -0.2778
 4252SOL    HW113045   2.620   4.001   1.901 -1.0155  1.0379 -0.0354
 4252SOL    HW213046   2.655   4.070   2.044 -0.9365 -1.2943  1.0989
 4253SOL     OW13047   1.880   1.103   1.635 -0.1604  0.5627  0.6249
 4253SOL    HW113048   1.886   1.090   1.536  0.3091  0.7076  0.6343
 4253SOL    HW213049   1.918   1.191   1.659 -0.7120  0.7340  0.8868
 4254SOL     OW13050   3.577   4.740   3.643 -0.0195  0.1833  0.0711
 4254SOL    HW113051   3.503   4.787   3.692  0.2089  0.4710  0.1460
 4254SOL    HW213052   3.549   4.646   3.622 -1.5111  1.0771 -2.3383
 4255SOL     OW13053   3.873   5.260   2.386 -0.0987  0.5504 -0.3944
 4255SOL    HW113054   3.851   5.219   2.475 -1.2912  2.5357  0.3209
 4255SOL    HW213055   3.895   5.357   2.399 -1.1823  1.1133 -2.3429
 4256SOL     OW13056   1.100   4.760   3.681  0.2522  0.6737 -0.0558
 4256SOL    HW113057   1.200   4.751   3.682  0.1706 -0.5709 -0.3599
 4256SOL    HW213058   1.070   4.808   3.763  0.9871 -0.6984  1.0836
 4257SOL     OW13059   2.650   1.083   3.857  0.1884  0.0656  0.2239
 4257SOL    HW113060   2.703   1.165   3.834  0.6981 -0.1299  0.6765
 4257SOL    HW213061   2.662   1.015   3.784 -1.0861  0.7708 -0.6802
 4258SOL     OW13062   3.326   0.413   2.720 -0.0908  0.5975  0.4734
 4258SOL    HW113063   3.255   0.483   2.720 -0.9204 -0.2198 -0.3307
 4258SOL    HW213064   3.303   0.342   2.786 -0.5053 -0.1336 -0.4400
 4259SOL     OW13065   3.059   0.118   3.408  0.5019 -0.2439  0.5046
 4259SOL    HW113066   2.993   0.193   3.413  1.5464  0.6732  0.9785
 4259SOL    HW213067   3.111   0.126   3.323  0.2162 -0.7874  0.2748
 4260SOL     OW13068   2.323   0.331   2.173  0.0723  0.1048 -0.4323
 4260SOL    HW113069   2.355   0.281   2.254 -1.5960  0.7728  0.6865
 4260SOL    HW213070   2.319   0.429   2.193 -3.4990  0.0387 -0.0659
 4261SOL     OW13071   2.879   0.324   3.304  0.4241 -0.0493  0.1545
 4261SOL    HW113072   2.924   0.385   3.240 -1.1410  0.2276 -0.7457
 4261SOL    HW213073   2.832   0.379   3.374  0.5148 -0.2871  0.4033
 4262SOL     OW13074   2.882   0.106   3.017 -0.5574  0.3532 -0.2537
 4262SOL    HW113075   2.903   0.151   2.930 -1.0861  0.0629 -0.5417
 4262SOL    HW213076   2.790   0.131   3.046 -0.9789 -0.7646 -0.5787
 4263SOL     OW13077   4.618   0.084   0.951  0.4133  0.7838  0.7288
 4263SOL    HW113078   4.638   0.099   0.854  0.5554 -3.5650 -0.0938
 4263SOL    HW213079   4.539   0.140   0.978  0.7497  2.5460 -1.6812
 4264SOL     OW13080   4.956   5.623   3.327  0.8052  0.7638  0.2062
 4264SOL    HW113081   5.024   5.656   3.262  1.3980 -0.2583  0.2901
 4264SOL    HW213082   4.865   5.656   3.301  1.4699  3.4043  0.9084
 4265SOL     OW13083   2.249   5.414   0.598 -0.0434 -0.4139 -0.2877
 4265SOL    HW113084   2.232   5.361   0.515  0.0804  0.5163 -0.9231
 4265SOL    HW213085   2.281   5.506   0.573 -1.6896  0.4844  0.7483
 4266SOL     OW13086   1.891   5.233   3.568  0.1892  0.0889  0.3471
 4266SOL    HW113087   1.904   5.265   3.662  1.3212  2.1731 -0.4756
 4266SOL    HW213088   1.977   5.196   3.533  0.1395  0.6133 -0.3337
 4267SOL     OW13089   1.047   5.223   2.261 -0.1392  0.0120 -0.0786
 4267SOL    HW113090   0.974   5.279   2.300 -0.1435 -0.2176  0.2481
 4267SOL    HW213091   1.133   5.273   2.264 -0.2596  0.2409 -0.3643
 4268SOL     OW13092   2.501   4.797   0.747 -0.0794  0.0525  0.7518
 4268SOL    HW113093   2.530   4.891   0.763 -1.6059  0.5944  0.4502
 4268SOL    HW213094   2.477   4.755   0.834 -0.6066  0.3623  0.7603
 4269SOL     OW13095   1.143   5.806   2.329  0.3316  0.1988 -0.6273
 4269SOL    HW113096   1.125   5.715   2.365  0.1494 -0.5600 -2.5178
 4269SOL    HW213097   1.182   5.799   2.237  0.4579  2.0224 -0.7545
 4270SOL     OW13098   3.223   5.840   4.808 -0.0368 -0.4774  0.0042
 4270SOL    HW113099   3.175   5.818   4.723 -0.1568 -0.7982  0.1505
 4270SOL    HW213100   3.241   5.756   4.859  1.1082 -0.4033 -0.2670
 4271SOL     OW13101   4.062   0.361   2.396 -0.2686 -0.4647  0.1157
 4271SOL    HW113102   4.128   0.314   2.455 -0.9827 -0.6939  0.7547
 4271SOL    HW213103   4.085   0.345   2.300  2.8430  2.5314  0.1669
 4272SOL     OW13104   4.763   0.805   4.073  0.3818 -0.1040  0.0533
 4272SOL    HW113105   4.819   0.730   4.106  0.5186  0.1463  0.3974
 4272SOL    HW213106   4.738   0.864   4.149  3.0934  2.1130 -0.6320
 4273SOL     OW13107   3.109   4.613   2.063  0.2772 -0.5454 -0.3634
 4273SOL    HW113108   3.076   4.527   2.102 -0.8087 -1.0986 -2.3518
 4273SOL    HW213109   3.039   4.684   2.076  0.2146 -0.5527 -0.6472
 4274SOL     OW13110   2.715   5.772   2.573 -0.2659  0.0773 -0.0137
 4274SOL    HW113111   2.777   5.733   2.640  1.3695 -0.6435 -1.8498
 4274SOL    HW213112   2.656   5.840   2.617 -0.8642 -1.9713  2.5788
 4275SOL     OW13113   2.074   4.656   2.273 -0.3087 -0.4219  0.1127
 4275SOL    HW113114   1.981   4.619   2.280 -0.9495  1.1179  0.1024
 4275SOL    HW213115   2.073   4.753   2.298  1.2961 -0.3640  0.0424
 4276SOL     OW13116   3.300   5.438   2.608 -0.0044  0.1856  0.0863
 4276SOL    HW113117   3.222   5.500   2.618  0.4407  0.7437  0.1435
 4276SOL    HW213118   3.334   5.443   2.514  0.5533  0.6584  0.3101
 4277SOL     OW13119   2.884   5.954   4.145 -0.1090  0.2171  0.5232
 4277SOL    HW113120   2.895   5.893   4.223 -0.1856  1.4217  1.5106
 4277SOL    HW213121   2.855   5.902   4.065  2.1323 -1.4178  0.6794
 4278SOL     OW13122   1.894   5.302   3.832 -0.6269 -0.5379  0.2749
 4278SOL    HW113123   1.861   5.269   3.920  2.1315  1.3858  2.2379
 4278SOL    HW213124   1.869   5.398   3.822  2.7929  0.6146  1.2586
 4279SOL     OW13125   3.303   0.990   4.992 -0.4095 -0.5263  0.2157
 4279SOL    HW113126   3.286   1.076   4.945  0.0874 -1.3945 -1.6406
 4279SOL    HW213127   3.344   1.008   5.081  1.0232  1.1087 -0.7235
 4280SOL     OW13128   2.683   2.158   5.681  0.0970 -0.2328 -0.1855
 4280SOL    HW113129   2.706   2.255   5.692 -2.6587  0.5928 -0.9571
 4280SOL    HW213130   2.653   2.121   5.769  0.6344 -0.2572 -0.0071
 4281SOL     OW13131   2.508   0.151   3.986  1.0322  0.3227  0.2718
 4281SOL    HW113132   2.587   0.195   3.945  1.3857 -1.0735 -0.5981
 4281SOL    HW213133   2.436   0.140   3.918  1.3367 -1.3305  0.1824
 4282SOL     OW13134   3.417   5.288   4.301  0.1349 -0.4949  0.5246
 4282SOL    HW113135   3.341   5.273   4.365 -0.7583 -0.7221 -0.5584
 4282SOL    HW213136   3.380   5.318   4.213  1.1375 -2.5728 -0.6642
 4283SOL     OW13137   0.657   4.471   4.255 -0.2914  0.1894  0.1172
 4283SOL    HW113138   0.718   4.549   4.243 -0.5523  0.0200 -3.1479
 4283SOL    HW213139   0.712   4.388   4.268  0.1593  0.2786 -1.0988
 4284SOL     OW13140   0.743   3.728   0.153 -0.1554 -0.1877 -0.3549
 4284SOL    HW113141   0.842   3.717   0.165  0.1475  1.7718 -0.6980
 4284SOL    HW213142   0.695   3.670   0.219  1.2911  1.0410  1.9302
 4285SOL     OW13143   1.120   0.055   5.056  0.3341 -0.7532 -0.6032
 4285SOL    HW113144   1.166  -0.017   5.108 -0.0303 -0.4568  0.1395
 4285SOL    HW213145   1.164   0.064   4.966  1.9235 -0.3077  0.1658
 4286SOL     OW13146   4.001   4.663   5.844 -0.1350 -0.2891  0.8330
 4286SOL    HW113147   3.939   4.742   5.840 -1.2567 -1.1328  1.1054
 4286SOL    HW213148   3.977   4.606   5.923  1.4330 -0.2920  1.3414
 4287SOL     OW13149   3.190   5.262   5.241  0.0152 -0.2486 -0.0303
 4287SOL    HW113150   3.237   5.310   5.167 -0.2098  1.7463  1.0537
 4287SOL    HW213151   3.256   5.212   5.297  0.3946 -0.3455 -0.5609
 4288SOL     OW13152   1.695   4.559   3.746  0.3981  0.4320  0.1158
 4288SOL    HW113153   1.677   4.655   3.724  2.2871  0.5627 -1.0988
 4288SOL    HW213154   1.650   4.500   3.679 -0.2072  0.4918  0.4661
 4289SOL     OW13155   4.168   4.976   3.540  0.4358  0.3266  0.2798
 4289SOL    HW113156   4.207   5.068   3.528  1.4168 -0.2377 -1.1084
 4289SOL    HW213157   4.109   4.975   3.621  1.9969  1.6501  1.4923
 4290SOL     OW13158   4.674   0.129   0.414 -0.1286  0.2245  0.2327
 4290SOL    HW113159   4.613   0.051   0.404 -0.8696  0.8588 -0.3613
 4290SOL    HW213160   4.698   0.164   0.324  1.3353 -0.1691  0.4529
 4291SOL     OW13161   3.228   5.667   3.781  0.3039 -0.5062  0.2784
 4291SOL    HW113162   3.128   5.657   3.780 -0.0497  2.1186 -1.0346
 4291SOL    HW213163   3.263   5.647   3.872 -1.7122  0.4438  1.3262
 4292SOL     OW13164   4.939   4.348   0.854  0.3099 -0.2792  0.2606
 4292SOL    HW113165   4.917   4.437   0.894 -2.0129 -0.3063 -0.8289
 4292SOL    HW213166   4.918   4.349   0.757  1.0425 -1.7779  0.0584
 4293SOL     OW13167   2.712   0.328   0.495  0.3979 -0.4530  0.2773
 4293SOL    HW113168   2.750   0.238   0.475 -0.7710 -0.8365 -0.2948
 4293SOL    HW213169   2.782   0.385   0.539  1.6521 -1.0967 -0.8144
 4294SOL     OW13170   0.300   4.485   2.444 -1.0555 -0.2310  0.1469
 4294SOL    HW113171   0.350   4.546   2.505 -1.8657  2.0414 -1.3322
 4294SOL    HW213172   0.355   4.404   2.425  0.7400  0.7404  0.9696
 4295SOL     OW13173   1.476   4.236   0.823  0.4715  0.5435  0.1276
 4295SOL    HW113174   1.568   4.212   0.855  1.4862  2.6099 -1.0614
 4295SOL    HW213175   1.469   4.220   0.725 -0.6042  0.0636  0.2620
 4296SOL     OW13176   1.834   0.183   4.578 -0.0863  0.2171  0.3484
 4296SOL    HW113177   1.851   0.199   4.676  1.1261 -0.2873  0.2352
 4296SOL    HW213178   1.736   0.195   4.559 -0.4957 -0.5727  1.8006
 4297SOL     OW13179   3.305   0.140   5.486  0.2748  0.5307 -0.1085
 4297SOL    HW113180   3.239   0.187   5.427 -2.1502 -1.4779  0.8284
 4297SOL    HW213181   3.324   0.049   5.448 -0.9876 -0.6242  1.8684
 4298SOL     OW13182   1.776   5.138   5.058  1.0228 -0.1603 -0.0501
 4298SOL    HW113183   1.684   5.141   5.020  0.6732  0.6585  0.8108
 4298SOL    HW213184   1.843   5.155   4.985  0.5131 -0.9742 -0.7159
 4299SOL     OW13185   2.357   5.417   3.464  0.1313 -0.1168  0.6751
 4299SOL    HW113186   2.285   5.442   3.399  0.6616  0.2919  0.2290
 4299SOL    HW213187   2.316   5.389   3.550 -0.5629  0.1463  0.4376
 4300SOL     OW13188   3.548   1.593   0.357  0.4244 -0.2659  0.8532
 4300SOL    HW113189   3.632   1.549   0.388  1.0006  0.6382  0.6155
 4300SOL    HW213190   3.564   1.691   0.346 -0.1908 -0.3192 -0.8051
 4301SOL     OW13191   4.950   4.892   4.125 -0.4634  0.1517 -0.1793
 4301SOL    HW113192   4.916   4.918   4.035  0.8929 -0.5808 -0.9297
 4301SOL    HW213193   4.874   4.858   4.181 -1.0636 -0.9901 -1.6366
 4302SOL     OW13194   0.968   5.881   1.182  0.1552 -0.0746 -0.9245
 4302SOL    HW113195   0.873   5.906   1.162  0.2827  2.1325  0.8761
 4302SOL    HW213196   0.971   5.826   1.265  0.4636  0.4818 -0.5557
 4303SOL     OW13197   2.711   0.572   4.893 -0.3578 -0.2481 -0.4434
 4303SOL    HW113198   2.791   0.542   4.944  0.8877 -0.2811 -2.3098
 4303SOL    HW213199   2.655   0.493   4.868 -0.1084 -0.4082 -0.5006
 4304SOL     OW13200   2.375   0.733   4.950  0.4221 -0.2952  0.0973
 4304SOL    HW113201   2.319   0.718   5.031 -0.5755  0.0963 -0.4944
 4304SOL    HW213202   2.354   0.662   4.882 -0.7010  0.8599 -0.8151
 4305SOL     OW13203   2.572   1.206   5.215 -0.2425  0.4241  0.0572
 4305SOL    HW113204   2.514   1.226   5.294  0.0645 -1.0798  0.6975
 4305SOL    HW213205   2.642   1.140   5.241 -0.4209 -0.4613 -1.5885
 4306SOL     OW13206   3.603   0.937   3.654 -0.2161 -0.1293  0.0276
 4306SOL    HW113207   3.591   1.035   3.672 -0.6687 -0.3902  1.2379
 4306SOL    HW213208   3.649   0.894   3.732 -1.1938 -1.1055  0.0928
 4307SOL     OW13209   2.954   3.886   5.929 -0.0286 -0.1017  0.0173
 4307SOL    HW113210   3.011   3.968   5.922 -1.2867  0.6848 -3.1993
 4307SOL    HW213211   3.008   3.806   5.902  0.8315 -0.2033  1.8742
 4308SOL     OW13212   2.206   5.859   4.803  0.0831  0.1180 -0.0373
 4308SOL    HW113213   2.155   5.928   4.854  0.1794 -0.0580  0.3011
 4308SOL    HW213214   2.240   5.899   4.718 -1.5448 -0.0592 -0.8143
 4309SOL     OW13215   5.049   5.305   4.697 -0.3442 -0.2911  0.5603
 4309SOL    HW113216   4.953   5.323   4.719  0.1025  1.0150  1.5466
 4309SOL    HW213217   5.077   5.218   4.739 -0.3444  0.6912  2.7380
 4310SOL     OW13218   2.976   5.748   3.722  0.2131  0.0857  0.2829
 4310SOL    HW113219   2.999   5.844   3.705 -2.4733  0.7494 -0.0500
 4310SOL    HW213220   2.920   5.742   3.804  0.5464 -1.2502  0.4247
 4311SOL     OW13221   3.705   0.858   3.397  0.2084 -0.1582 -0.1127
 4311SOL    HW113222   3.795   0.891   3.425 -0.1965  1.0299 -0.1242
 4311SOL    HW213223   3.641   0.867   3.474 -0.2124  0.3245 -0.5064
 4312SOL     OW13224   4.580   0.061   5.806  0.5348 -0.0711 -0.0351
 4312SOL    HW113225   4.536   0.139   5.763 -0.0448 -0.1470  0.4052
 4312SOL    HW213226   4.643   0.093   5.877 -0.0148 -0.0200  0.4290
 4313SOL     OW13227   2.084   1.285   5.003  0.3579  0.4181  0.0171
 4313SOL    HW113228   2.183   1.281   5.017  0.4145  1.2542 -0.1067
 4313SOL    HW213229   2.050   1.376   5.030 -0.3394  0.2210 -0.1736
 4314SOL     OW13230   2.308   4.932   3.898  0.3145 -0.2037 -0.2595
 4314SOL    HW113231   2.284   4.972   3.987 -0.6600  0.3740 -0.7617
 4314SOL    HW213232   2.386   4.981   3.860  0.0189  0.3039 -0.2245
 4315SOL     OW13233   3.406   4.432   4.123  0.0409 -0.0675  0.4465
 4315SOL    HW113234   3.320   4.483   4.120 -0.8218 -1.4590  0.9127
 4315SOL    HW213235   3.464   4.460   4.046 -1.3139  0.0346 -0.5663
 4316SOL     OW13236   2.716   0.708   5.374 -0.0041  0.0730 -0.1801
 4316SOL    HW113237   2.688   0.792   5.421 -0.4478 -0.0258 -0.2640
 4316SOL    HW213238   2.649   0.684   5.305  0.4263 -0.0277 -0.5670
 4317SOL     OW13239   4.669   5.758   5.034 -0.3489  0.2866 -0.4758
 4317SOL    HW113240   4.735   5.694   4.994  1.2731  1.5330  0.1051
 4317SOL    HW213241   4.716   5.841   5.061 -2.0802  0.9669  0.5702
 4318SOL     OW13242   2.169   5.311   0.358 -0.5548 -0.0031  0.0125
 4318SOL    HW113243   2.092   5.248   0.363 -0.3615 -0.1236  3.7204
 4318SOL    HW213244   2.141   5.393   0.308 -2.2811 -0.9906 -0.7557
 4319SOL     OW13245   3.363   5.734   1.731  0.1173 -1.0182  0.2552
 4319SOL    HW113246   3.447   5.773   1.769 -0.9232  1.9487 -0.1837
 4319SOL    HW213247   3.385   5.675   1.653  1.7832  0.2199 -0.2752
 4320SOL     OW13248   1.591   0.667   3.769  0.0843 -0.0731  0.1952
 4320SOL    HW113249   1.612   0.719   3.853 -0.6866 -0.4511  0.6260
 4320SOL    HW213250   1.644   0.582   3.769 -1.6196 -1.2046  1.4633
 4321SOL     OW13251   2.885   0.332   4.908 -0.3629  0.1180 -0.0694
 4321SOL    HW113252   2.932   0.420   4.901  1.7597 -1.0050 -0.8110
 4321SOL    HW213253   2.918   0.271   4.836 -1.9729 -1.2325  0.2718
 4322SOL     OW13254   4.360   5.946   5.355 -0.0033 -0.3715  0.1189
 4322SOL    HW113255   4.333   5.889   5.432 -0.6079 -0.4258 -0.1251
 4322SOL    HW213256   4.386   5.888   5.278  0.7279 -0.3184  0.3137
 4323SOL     OW13257   3.380   0.251   1.152 -0.2045  0.3288  0.5277
 4323SOL    HW113258   3.285   0.226   1.166  0.3680 -2.0456  0.5489
 4323SOL    HW213259   3.439   0.179   1.188  1.5890  1.1528 -0.6212
 4324SOL     OW13260   3.035   0.768   1.726 -0.7742 -0.7216  0.1523
 4324SOL    HW113261   3.047   0.697   1.795  1.1745  0.2343  0.8578
 4324SOL    HW213262   3.119   0.778   1.672 -0.5098  1.8509  0.8894
 4325SOL     OW13263   2.821   5.697   4.622 -0.2019 -0.1185  0.1270
 4325SOL    HW113264   2.884   5.630   4.583 -1.1475 -1.3300  0.5904
 4325SOL    HW213265   2.755   5.650   4.681  0.4031  1.4914  2.1968
 4326SOL     OW13266   4.048   5.122   5.872 -0.2673  0.7791 -0.1454
 4326SOL    HW113267   4.002   5.040   5.836 -0.6519 -0.0666  2.1362
 4326SOL    HW213268   4.007   5.147   5.960  1.2309  2.2071  0.1841
 4327SOL     OW13269   1.706   5.848   4.811  0.3036 -0.1608 -0.3449
 4327SOL    HW113270   1.788   5.795   4.790  0.9433  0.5146  0.4158
 4327SOL    HW213271   1.694   5.856   4.910 -0.1959  0.4824 -0.4445
 4328SOL     OW13272   2.187   0.200   3.597 -0.2684  0.1112 -0.0489
 4328SOL    HW113273   2.108   0.156   3.639 -2.5611  2.6977 -1.3282
 4328SOL    HW213274   2.173   0.207   3.498  1.3113  1.1320 -0.2356
 4329SOL     OW13275   2.340   0.162   0.906 -0.5000 -0.1971  0.4438
 4329SOL    HW113276   2.307   0.224   0.976  0.5279 -0.0056  0.7646
 4329SOL    HW213277   2.270   0.153   0.835 -1.3826 -0.0806  1.2755
 4330SOL     OW13278   3.835   5.614   2.804  0.0719 -0.5834  0.0711
 4330SOL    HW113279   3.895   5.548   2.759  1.5557  0.1653  0.8665
 4330SOL    HW213280   3.783   5.665   2.735  0.2068 -1.3825 -0.6299
 4331SOL     OW13281   1.949   0.306   5.254  0.0606 -0.2231 -0.0483
 4331SOL    HW113282   2.042   0.337   5.271  0.3191 -0.9088 -0.1731
 4331SOL    HW213283   1.922   0.331   5.161  0.2075 -0.2289 -0.0926
 4332SOL     OW13284   2.052   5.514   0.215  0.1365 -0.1206  0.4674
 4332SOL    HW113285   2.046   5.603   0.260 -0.1788  0.2447 -0.2885
 4332SOL    HW213286   2.078   5.526   0.119 -1.2492 -0.7268 -0.0103
 4333SOL     OW13287   3.310   0.753   4.836  0.0952  0.3115 -0.4454
 4333SOL    HW113288   3.300   0.686   4.909  0.8181 -2.0471 -2.3878
 4333SOL    HW213289   3.312   0.845   4.875 -0.8038 -0.7554  2.3370
 4334SOL     OW13290   0.808   5.624   0.800  0.0267  0.4058  0.1443
 4334SOL    HW113291   0.757   5.650   0.881 -1.1955 -0.6787 -0.2426
 4334SOL    HW213292   0.892   5.679   0.793  0.2241  0.4158  2.1852
 4335SOL     OW13293   2.289   4.178   3.500 -0.0994 -0.2135 -0.3816
 4335SOL    HW113294   2.228   4.117   3.552  1.3190  0.9795  2.9324
 4335SOL    HW213295   2.235   4.252   3.460 -1.2759 -1.3162 -0.9282
 4336SOL     OW13296   3.542   1.637   5.843  0.6086 -0.2973  0.4926
 4336SOL    HW113297   3.505   1.629   5.750 -1.4155  1.0285  1.1247
 4336SOL    HW213298   3.486   1.583   5.906  0.5586  0.6359  1.2775
 4337SOL     OW13299   3.343   1.277   5.742  0.4514 -0.7068  0.2219
 4337SOL    HW113300   3.321   1.366   5.783  0.5379  0.5000 -2.1175
 4337SOL    HW213301   3.278   1.208   5.774 -1.9154  1.0201 -0.5567
 4338SOL     OW13302   3.848   5.405   0.937  0.2449 -0.3781 -0.0340
 4338SOL    HW113303   3.878   5.483   0.882  0.3964 -1.4040 -1.4644
 4338SOL    HW213304   3.776   5.356   0.889 -0.0566 -0.9615  0.9801
 4339SOL     OW13305   5.322   2.218   0.814  0.1100 -0.1788  0.6090
 4339SOL    HW113306   5.300   2.297   0.756  3.2978  0.8477  0.6108
 4339SOL    HW213307   5.322   2.135   0.759 -1.2821  0.0707  0.1786
 4340SOL     OW13308   5.954   5.660   1.586 -0.3750 -0.3777 -0.2597
 4340SOL    HW113309   5.877   5.597   1.594 -0.1427 -0.7269 -0.7524
 4340SOL    HW213310   5.920   5.754   1.578 -0.7326 -0.0153  3.4457
 4341SOL     OW13311   4.437   3.300   5.525  0.3907 -0.2230  0.5311
 4341SOL    HW113312   4.357   3.295   5.465  0.3516 -1.4054  0.6512
 4341SOL    HW213313   4.472   3.207   5.542  1.2141  0.2009  1.2448
 4342SOL     OW13314   0.356   5.486   5.122  0.0144  0.2998  0.5498
 4342SOL    HW113315   0.311   5.533   5.046  0.8545 -1.1413 -0.9181
 4342SOL    HW213316   0.446   5.527   5.137  0.4167 -0.2798 -0.1917
 4343SOL     OW13317   2.307   2.269   1.741 -0.2168 -0.6816  0.3534
 4343SOL    HW113318   2.265   2.327   1.812  0.1009 -0.0617  0.0402
 4343SOL    HW213319   2.358   2.326   1.678 -0.5574 -1.2288 -0.4277
 4344SOL     OW13320   4.602   0.939   1.240  0.5581 -0.0156 -0.1763
 4344SOL    HW113321   4.547   0.975   1.315 -0.2931 -1.2982 -0.1502
 4344SOL    HW213322   4.614   1.010   1.171  0.6042  0.9090  0.7512
 4345SOL     OW13323   3.939   1.696   0.605  0.2938  0.2303 -0.4153
 4345SOL    HW113324   4.014   1.648   0.651 -0.4033 -0.5371 -0.0691
 4345SOL    HW213325   3.893   1.634   0.542  0.4945  0.9468 -1.2936
 4346SOL     OW13326   4.151   0.643   0.846  0.2054 -0.1704  0.0132
 4346SOL    HW113327   4.066   0.594   0.827  0.1546 -0.3316  0.6502
 4346SOL    HW213328   4.142   0.738   0.818 -0.4908  0.0268  0.8972
 4347SOL     OW13329   5.266   5.693   0.964 -0.1963 -0.3812 -0.0732
 4347SOL    HW113330   5.198   5.621   0.982  1.0396 -1.2564  1.3859
 4347SOL    HW213331   5.334   5.658   0.900 -0.5008  0.0970 -0.6631
 4348SOL     OW13332   5.081   0.329   0.685 -0.3420 -0.1645  0.1732
 4348SOL    HW113333   5.171   0.288   0.702  0.4836  1.3929 -0.1423
 4348SOL    HW213334   5.044   0.295   0.599  1.0173  0.7972 -0.8509
 4349SOL     OW13335   3.630   0.979   1.346 -0.2740  0.4573 -0.2925
 4349SOL    HW113336   3.588   1.005   1.259  0.3038  0.5192 -0.5587
 4349SOL    HW213337   3.729   0.972   1.334 -0.1339  0.9990  0.4995
 4350SOL     OW13338   4.434   1.028   5.906 -0.0312 -0.4939  0.6644
 4350SOL    HW113339   4.400   1.021   6.000 -0.8931 -2.1902  0.2631
 4350SOL    HW213340   4.443   1.124   5.881  0.1483 -0.0119  2.4536
 4351SOL     OW13341   2.371   2.837   1.763 -0.0479 -0.2882 -0.1738
 4351SOL    HW113342   2.467   2.817   1.786 -0.0885 -0.0089  0.2444
 4351SOL    HW213343   2.331   2.893   1.835 -0.9887 -1.6938  0.4363
 4352SOL     OW13344   4.068   1.548   2.206  0.7551 -0.4055  0.2133
 4352SOL    HW113345   4.129   1.584   2.135  0.9003 -0.8877  0.0946
 4352SOL    HW213346   3.976   1.582   2.190  0.8940 -0.0736  0.1072
 4353SOL     OW13347   5.547   0.029   0.742  0.4032 -0.8535  0.0397
 4353SOL    HW113348   5.517   0.034   0.837  0.4265  0.7109 -0.0129
 4353SOL    HW213349   5.507  -0.052   0.699  0.0862 -1.3752  1.2646
 4354SOL     OW13350   3.279   2.060   1.391  0.0171  0.4480  0.7771
 4354SOL    HW113351   3.216   2.092   1.461  0.6439  0.1081  1.5150
 4354SOL    HW213352   3.353   2.126   1.379 -0.4125  0.8014 -0.0167
 4355SOL     OW13353   4.676   1.784   2.397  0.5141 -0.0114  0.2420
 4355SOL    HW113354   4.747   1.843   2.436  0.1148  1.2043 -0.7770
 4355SOL    HW213355   4.637   1.726   2.469  1.1433  0.7379  1.2152
 4356SOL     OW13356   5.213   4.368   5.808  0.4398  0.3590  0.1721
 4356SOL    HW113357   5.248   4.278   5.831  0.8010  0.1816 -0.9931
 4356SOL    HW213358   5.152   4.400   5.881  1.2247 -0.3084  1.1397
 4357SOL     OW13359   3.891   1.119   1.121  0.4665 -0.0544 -0.2485
 4357SOL    HW113360   3.949   1.054   1.071  1.1542 -0.1218  0.6134
 4357SOL    HW213361   3.801   1.122   1.079  1.3339  0.6970 -2.1502
 4358SOL     OW13362   3.631   5.647   5.208  0.1610  0.1110  0.2178
 4358SOL    HW113363   3.724   5.674   5.231  0.1197 -0.0394  0.5738
 4358SOL    HW213364   3.580   5.627   5.292 -0.3244  0.6123  0.0573
 4359SOL     OW13365   4.602   1.233   1.536 -0.2285  0.4215 -0.0215
 4359SOL    HW113366   4.590   1.305   1.604 -0.3721  1.4918 -1.1577
 4359SOL    HW213367   4.692   1.190   1.548 -0.4354  0.2781  1.1168
 4360SOL     OW13368   2.673   2.290   0.693  0.2296  0.0181 -0.2488
 4360SOL    HW113369   2.714   2.201   0.711  0.2972  0.1793  0.4348
 4360SOL    HW213370   2.685   2.349   0.773 -0.4825  0.3906 -0.4065
 4361SOL     OW13371   4.222   5.565   1.478 -0.4274 -0.3379 -0.1870
 4361SOL    HW113372   4.169   5.550   1.395  0.1828 -2.0347 -0.3215
 4361SOL    HW213373   4.180   5.513   1.553 -0.7990  0.9357  0.5067
 4362SOL     OW13374   1.445   3.385   1.693 -0.1001  0.2378 -0.4247
 4362SOL    HW113375   1.508   3.316   1.728 -0.1369  0.7221  0.6412
 4362SOL    HW213376   1.351   3.359   1.716 -0.2424 -0.0762 -1.3063
 4363SOL     OW13377   2.386   1.162   2.661 -0.3965 -0.6581 -0.9083
 4363SOL    HW113378   2.478   1.187   2.690 -0.5904 -0.2682 -0.6118
 4363SOL    HW213379   2.336   1.245   2.634 -1.0711 -0.6970  0.1545
 4364SOL     OW13380   4.625   0.692   5.904 -0.2495  0.7855  0.2328
 4364SOL    HW113381   4.641   0.788   5.882  0.4929  0.9158  1.2551
 4364SOL    HW213382   4.712   0.642   5.898 -0.4050  0.4299  0.8783
 4365SOL     OW13383   0.977   0.120   1.700 -0.7726  0.4540  0.4274
 4365SOL    HW113384   0.995   0.080   1.610 -0.0372  0.9210  0.3646
 4365SOL    HW213385   1.000   0.217   1.699 -3.3278  1.1253  0.3359
 4366SOL     OW13386   5.336   0.150   0.183 -0.1377 -0.3260  0.0742
 4366SOL    HW113387   5.359   0.053   0.193  0.5627 -0.0563  1.3344
 4366SOL    HW213388   5.315   0.189   0.273 -1.6854  0.4034 -0.5596
 4367SOL     OW13389   3.859   1.907   2.278  0.3786 -0.3188 -0.1120
 4367SOL    HW113390   3.922   1.879   2.351 -1.4126  0.7883  1.9689
 4367SOL    HW213391   3.789   1.836   2.266 -0.8854  0.6251  1.2261
 4368SOL     OW13392   0.072   1.415   0.421  0.3492  0.2926  0.2670
 4368SOL    HW113393   0.105   1.487   0.360  1.2099 -1.4330 -1.3679
 4368SOL    HW213394  -0.007   1.369   0.379  1.7139 -1.7347 -0.2098
 4369SOL     OW13395   4.993   3.181   5.650 -0.0952 -0.1012  0.2955
 4369SOL    HW113396   4.916   3.118   5.654 -0.5332  0.4408  0.6573
 4369SOL    HW213397   4.975   3.252   5.582  1.8799 -2.2207 -2.6792
 4370SOL     OW13398   3.933   0.441   0.795 -0.2496  0.1528 -0.4026
 4370SOL    HW113399   3.866   0.513   0.777 -0.9250  0.4616  2.7056
 4370SOL    HW213400   3.904   0.387   0.875  1.1914 -2.3937 -1.4613
 4371SOL     OW13401   3.413   2.021   1.983  0.0971 -0.0917 -0.0406
 4371SOL    HW113402   3.348   1.955   1.944  1.2326 -0.9171 -0.5959
 4371SOL    HW213403   3.429   2.095   1.917  0.7056 -0.5769 -0.4430
 4372SOL     OW13404   5.922   2.213   0.261  0.3345  0.0359  0.1969
 4372SOL    HW113405   5.831   2.181   0.288  0.6523 -0.2414  0.9559
 4372SOL    HW213406   5.919   2.242   0.166  0.3231 -3.5139 -1.0450
 4373SOL     OW13407   3.475   1.340   0.503 -0.0370 -0.3718  0.4991
 4373SOL    HW113408   3.469   1.256   0.449  0.8307 -1.3276  1.8409
 4373SOL    HW213409   3.488   1.418   0.442 -2.2581 -0.9834 -0.8961
 4374SOL     OW13410   5.395   0.441   0.650 -0.4056 -0.2603  0.2505
 4374SOL    HW113411   5.468   0.376   0.629 -0.1345  0.8987 -2.9990
 4374SOL    HW213412   5.427   0.534   0.633 -2.6403  0.2734 -1.7522
 4375SOL     OW13413   5.185   5.696   4.257  0.3501  0.2399 -0.4722
 4375SOL    HW113414   5.235   5.720   4.174  0.5765  1.7683  0.0809
 4375SOL    HW213415   5.223   5.612   4.295  1.5607  0.6035 -0.8373
 4376SOL     OW13416   4.628   1.855   3.644 -0.1434 -0.6176 -0.3047
 4376SOL    HW113417   4.610   1.769   3.691  0.1454  0.1435  1.2841
 4376SOL    HW213418   4.558   1.870   3.574 -0.7950 -1.6337  0.1088
 4377SOL     OW13419   4.659   1.958   2.966 -0.0421 -0.9233 -0.3370
 4377SOL    HW113420   4.678   1.882   2.905  1.1901 -0.6335 -0.3409
 4377SOL    HW213421   4.745   2.000   2.995 -0.6241 -0.7022  1.1465
 4378SOL     OW13422   3.658   1.011   0.841 -0.0579 -0.4079  0.2147
 4378SOL    HW113423   3.735   0.985   0.782 -0.2287  1.9673 -1.2072
 4378SOL    HW213424   3.597   1.073   0.791 -1.7550 -0.5143  2.0198
 4379SOL     OW13425   4.153   5.293   0.513  0.1458 -0.2078 -0.4001
 4379SOL    HW113426   4.178   5.375   0.461 -2.0648  1.7200  1.2928
 4379SOL    HW213427   4.163   5.312   0.611 -1.3376 -1.6115  0.0722
 4380SOL     OW13428   3.803   3.110   1.534 -0.2600 -0.1493  0.3052
 4380SOL    HW113429   3.756   3.184   1.487 -0.3958 -0.7296 -0.4948
 4380SOL    HW213430   3.886   3.144   1.577  0.6995  0.1094 -1.6715
 4381SOL     OW13431   2.800   5.792   1.419 -0.3818 -0.2400 -0.3253
 4381SOL    HW113432   2.764   5.794   1.325 -1.1377 -0.5791 -0.0487
 4381SOL    HW213433   2.745   5.730   1.474  1.8313 -2.4166 -0.3742
 4382SOL     OW13434   2.948   5.232   4.847  0.1672 -0.1379  0.1213
 4382SOL    HW113435   2.956   5.317   4.899 -0.5485  0.3719 -0.5831
 4382SOL    HW213436   2.960   5.251   4.749 -2.5047 -0.3891 -0.3294
 4383SOL     OW13437   4.691   3.305   3.863 -0.1819  0.3649 -0.5890
 4383SOL    HW113438   4.787   3.285   3.846  0.3848  1.6795  0.7762
 4383SOL    HW213439   4.641   3.221   3.883  0.6005 -0.3621 -1.6455
 4384SOL     OW13440   4.347   5.547  -0.002 -0.0726 -0.6040  0.6264
 4384SOL    HW113441   4.265   5.541  -0.059 -1.0317  0.4199  1.8493
 4384SOL    HW213442   4.322   5.580   0.089  1.7644  0.1398  0.8981
 4385SOL     OW13443   4.708   1.062   0.353 -0.2444 -0.2720  0.2742
 4385SOL    HW113444   4.778   1.050   0.424 -0.3943  0.1235  0.4963
 4385SOL    HW213445   4.642   0.987   0.357  1.1324 -1.6247 -1.0844
 4386SOL     OW13446   5.144   5.619   0.094 -0.2417 -0.0264  0.3611
 4386SOL    HW113447   5.214   5.617   0.166  0.1887  0.9738 -0.0164
 4386SOL    HW213448   5.054   5.634   0.136 -0.0156  0.3909  0.7039
 4387SOL     OW13449   4.095  -0.008   0.357 -0.4762 -0.0627 -0.2322
 4387SOL    HW113450   4.043   0.075   0.336  1.2857  0.9453 -0.7659
 4387SOL    HW213451   4.178  -0.011   0.302  1.1828 -0.4793  2.1143
 4388SOL     OW13452   2.356   1.314   1.988 -0.3207 -0.7518 -0.5402
 4388SOL    HW113453   2.268   1.276   2.017 -1.4875  0.2838 -2.5218
 4388SOL    HW213454   2.392   1.261   1.912  0.4962 -0.8122 -0.1211
 4389SOL     OW13455   4.640   2.571   0.746 -0.1813 -0.6582  0.0993
 4389SOL    HW113456   4.646   2.635   0.823 -2.1193 -1.3775  0.9324
 4389SOL    HW213457   4.718   2.584   0.685  0.5146  1.1106  1.2825
 4390SOL     OW13458   3.710   1.348   0.649 -0.2113 -0.2517  0.2481
 4390SOL    HW113459   3.785   1.334   0.713 -1.5788 -1.2614  1.7375
 4390SOL    HW213460   3.630   1.384   0.698 -0.6144  1.1566 -1.3454
 4391SOL     OW13461   0.952   5.343   4.990 -0.4676 -0.0222 -0.0127
 4391SOL    HW113462   0.965   5.295   5.077 -0.7163  0.9606  0.5911
 4391SOL    HW213463   0.950   5.277   4.915 -1.4864 -1.0280  0.8469
 4392SOL     OW13464   3.714   1.496   1.676  0.4309 -0.2598 -0.1749
 4392SOL    HW113465   3.768   1.507   1.759  0.8590  3.0742 -0.7539
 4392SOL    HW213466   3.619   1.480   1.700  0.9311 -1.9865  0.8688
 4393SOL     OW13467   4.396   1.906   4.659  0.5098 -0.1395 -0.2637
 4393SOL    HW113468   4.465   1.974   4.634 -0.0975 -0.2577 -2.4899
 4393SOL    HW213469   4.360   1.863   4.576 -0.9292 -1.4000  0.9452
 4394SOL     OW13470   3.834   5.548   0.432  0.2455 -0.3973 -0.2936
 4394SOL    HW113471   3.859   5.569   0.526  1.0129 -0.8776 -0.3757
 4394SOL    HW213472   3.781   5.464   0.429  0.2450 -0.3971 -0.2914
 4395SOL     OW13473   1.154   1.141   0.325 -0.9754 -0.9166  0.3293
 4395SOL    HW113474   1.208   1.065   0.289 -1.2698 -1.6980  1.5047
 4395SOL    HW213475   1.112   1.191   0.249  0.5263 -0.9228 -0.5502
 4396SOL     OW13476   0.282   1.430   1.972  0.6870  0.0128 -0.2414
 4396SOL    HW113477   0.370   1.461   2.009 -0.5291  2.9498  0.4291
 4396SOL    HW213478   0.254   1.491   1.897 -0.9038 -0.7128 -0.2696
 4397SOL     OW13479   4.470   3.580   0.231  0.6172 -0.0844  0.5869
 4397SOL    HW113480   4.553   3.627   0.203  0.2495 -0.1049 -0.5721
 4397SOL    HW213481   4.473   3.562   0.330  2.6212 -1.3471  0.3459
 4398SOL     OW13482   3.209   2.590   1.488 -0.1756  0.6068 -0.6402
 4398SOL    HW113483   3.191   2.669   1.430  0.5003  0.8278 -0.5578
 4398SOL    HW213484   3.182   2.611   1.582  2.9494  1.9801  0.0728
 4399SOL     OW13485   4.693   3.075   4.724 -0.5967 -0.2785 -0.1055
 4399SOL    HW113486   4.775   3.030   4.758 -0.7996 -2.1636 -1.8725
 4399SOL    HW213487   4.613   3.044   4.776 -0.3156  0.9845  1.1254
 4400SOL     OW13488   4.726   5.361   1.802 -0.4200  0.0831  0.1505
 4400SOL    HW113489   4.783   5.318   1.731 -0.8248  1.2341 -0.8954
 4400SOL    HW213490   4.661   5.294   1.838 -0.8847 -0.2692 -1.2925
 4401SOL     OW13491   4.455   0.087   2.945  0.3765 -0.1717  0.4122
 4401SOL    HW113492   4.413  -0.004   2.952 -1.9058  0.8480  0.6686
 4401SOL    HW213493   4.473   0.108   2.849 -0.5853 -0.2600  0.2035
 4402SOL     OW13494   3.587   4.678   1.803 -0.3477  0.1362  0.0728
 4402SOL    HW113495   3.558   4.695   1.708 -1.5353  0.3846  0.4632
 4402SOL    HW213496   3.507   4.658   1.859  0.3915 -0.4457  0.9476
 4403SOL     OW13497   1.540   5.272   0.060  0.1782 -0.1370 -0.5065
 4403SOL    HW113498   1.581   5.187   0.092  0.2837 -0.1335 -0.6309
 4403SOL    HW213499   1.596   5.350   0.089 -1.2664  0.1055  1.8775
 4404SOL     OW13500   5.297   0.434   1.918 -0.0439  0.5641 -0.5595
 4404SOL    HW113501   5.220   0.371   1.927 -0.2256  0.8865  0.2496
 4404SOL    HW213502   5.306   0.463   1.823 -1.0898  0.7169 -0.6219
 4405SOL     OW13503   4.601  -0.012   2.106  0.2697 -0.3967  0.0510
 4405SOL    HW113504   4.618   0.030   2.017  1.8451 -0.1970  0.4193
 4405SOL    HW213505   4.510   0.015   2.139 -0.0963 -0.0135 -1.2190
 4406SOL     OW13506   4.331   1.815   5.100 -0.1963  0.1601  0.1657
 4406SOL    HW113507   4.397   1.868   5.046  0.4697 -0.7996  0.0055
 4406SOL    HW213508   4.380   1.743   5.150 -1.0073  0.0592  0.8300
 4407SOL     OW13509   3.212   0.096   1.758  0.7078  0.6755 -0.4774
 4407SOL    HW113510   3.120   0.061   1.739 -0.1303  2.4527  0.0888
 4407SOL    HW213511   3.278   0.022   1.748 -0.6626 -0.4443 -1.8044
 4408SOL     OW13512   4.440   0.246   1.055  0.0050 -0.5164  0.1183
 4408SOL    HW113513   4.477   0.247   1.148 -0.7548 -1.0339  0.4425
 4408SOL    HW213514   4.344   0.216   1.058  0.1194 -1.0241 -0.8784
 4409SOL     OW13515   0.347   5.476   0.018 -0.1745 -0.1330  0.4756
 4409SOL    HW113516   0.399   5.550   0.061 -1.5286  0.4977  1.0842
 4409SOL    HW213517   0.325   5.503  -0.076  1.8754 -1.0669 -0.3453
 4410SOL     OW13518   4.961   4.273   1.215  0.3909  0.3275 -0.1250
 4410SOL    HW113519   4.959   4.204   1.142 -1.3238  1.6793 -1.4196
 4410SOL    HW213520   5.050   4.320   1.213  0.1611  0.7489 -1.7567
 4411SOL     OW13521   0.341   5.249   4.212 -0.1576 -0.2836  0.1603
 4411SOL    HW113522   0.296   5.335   4.236  0.5970 -0.1030  0.9708
 4411SOL    HW213523   0.298   5.210   4.131 -2.3199 -0.5279  1.3500
 4412SOL     OW13524   4.072   0.298   2.117 -0.2031  0.0182 -0.2096
 4412SOL    HW113525   4.109   0.352   2.041 -1.2383  0.2185 -0.5896
 4412SOL    HW213526   4.017   0.223   2.080  0.4893 -0.7765  0.3309
 4413SOL     OW13527   0.098   4.654   1.915 -0.7464 -0.3042 -0.3528
 4413SOL    HW113528   0.084   4.693   1.824 -0.1700  0.2287 -0.2221
 4413SOL    HW213529   0.010   4.639   1.959 -1.0257  2.3960  0.2186
 4414SOL     OW13530   3.575   0.203   2.504  0.2044  0.5158 -0.2272
 4414SOL    HW113531   3.556   0.200   2.406  0.3153 -1.9325 -0.2362
 4414SOL    HW213532   3.671   0.225   2.520  0.2095  0.8118 -0.6595
 4415SOL     OW13533   4.668   1.674   0.384  0.3714 -0.3500  0.0271
 4415SOL    HW113534   4.586   1.632   0.345  0.9968 -1.2026 -0.4187
 4415SOL    HW213535   4.679   1.645   0.479 -0.0576  0.0928  0.2145
 4416SOL     OW13536   3.594   2.193   4.962 -0.2588  0.3541 -0.0916
 4416SOL    HW113537   3.669   2.259   4.965 -0.4997  0.6190  0.0651
 4416SOL    HW213538   3.539   2.201   5.045 -1.2414  1.0692 -0.7868
 4417SOL     OW13539   3.180   0.931   1.029 -0.0466  0.1592 -0.1042
 4417SOL    HW113540   3.095   0.970   0.993 -1.2120 -0.1460  2.1290
 4417SOL    HW213541   3.217   0.992   1.099  0.2269 -0.8576  0.6632
 4418SOL     OW13542   2.647   0.480   0.278 -0.4383 -0.3106  0.2801
 4418SOL    HW113543   2.580   0.441   0.215  1.3324 -0.2306 -1.7997
 4418SOL    HW213544   2.666   0.416   0.352 -0.7870 -1.5029 -0.6375
 4419SOL     OW13545   4.493   0.309   0.529  0.3653 -0.8214  0.5300
 4419SOL    HW113546   4.530   0.227   0.485 -0.0452 -1.0537  0.6094
 4419SOL    HW213547   4.408   0.285   0.577  1.6829 -0.9797  2.9423
 4420SOL     OW13548   4.482   4.469   0.873 -0.1982  0.2302 -0.0061
 4420SOL    HW113549   4.402   4.481   0.933 -0.6293  0.4473 -0.6212
 4420SOL    HW213550   4.536   4.392   0.906  1.4307  2.3516  2.7218
 4421SOL     OW13551   5.157   0.639   1.400 -0.4195 -0.0433  0.6990
 4421SOL    HW113552   5.257   0.636   1.389 -0.2712 -1.6470  1.9353
 4421SOL    HW213553   5.134   0.698   1.478 -0.6166  1.8713 -0.7467
 4422SOL     OW13554   3.698   0.176   0.116  0.2488  0.0333  0.0959
 4422SOL    HW113555   3.669   0.247   0.051  1.5560  1.9484  1.5094
 4422SOL    HW213556   3.743   0.102   0.066  0.1806  0.8902 -1.2972
 4423SOL     OW13557   0.622   2.551   0.338 -0.4035 -0.9372 -0.2879
 4423SOL    HW113558   0.555   2.513   0.402 -1.6330  2.3746  0.5955
 4423SOL    HW213559   0.713   2.520   0.363 -0.9523 -0.5703  2.5098
 4424SOL     OW13560   4.233   5.342   0.753 -0.0462 -0.1129  0.1592
 4424SOL    HW113561   4.325   5.301   0.750  0.6889  1.2881  1.6325
 4424SOL    HW213562   4.195   5.331   0.845 -0.4320  1.2003  0.1735
 4425SOL     OW13563   3.794   1.353   1.481  0.9045  0.2066  0.3839
 4425SOL    HW113564   3.757   1.366   1.389  3.0499  0.7514 -0.4582
 4425SOL    HW213565   3.761   1.427   1.540 -3.3551 -1.9855  1.1496
 4426SOL     OW13566   5.913   0.196   5.047 -0.4045  0.3073  0.2770
 4426SOL    HW113567   5.894   0.230   4.955 -1.4152  0.2737  0.4630
 4426SOL    HW213568   5.886   0.100   5.053  1.8928 -0.4315 -0.0777
 4427SOL     OW13569   3.986   2.061   5.673 -0.6849  0.3075 -0.0674
 4427SOL    HW113570   4.025   2.027   5.587  1.4979  0.2408  0.8936
 4427SOL    HW213571   4.056   2.111   5.724 -1.8578  0.1236  1.8023
 4428SOL     OW13572   5.193   1.270   1.365  0.0755 -0.2934 -0.1004
 4428SOL    HW113573   5.107   1.264   1.416 -0.8081  0.5729 -1.4259
 4428SOL    HW213574   5.218   1.179   1.331 -0.7379 -0.4270 -0.3642
 4429SOL     OW13575   4.385   2.950   1.857  0.1628  0.1603  0.3372
 4429SOL    HW113576   4.415   3.040   1.889 -0.1882 -0.6308  3.2051
 4429SOL    HW213577   4.465   2.891   1.846  0.2005 -0.1848  2.0751
 4430SOL     OW13578   5.453   1.304   1.300  0.7616 -0.5359 -0.0530
 4430SOL    HW113579   5.473   1.225   1.241 -0.1829 -1.1486  0.4235
 4430SOL    HW213580   5.356   1.304   1.324  1.1772 -0.4977  1.7771
 4431SOL     OW13581   3.529   0.451   1.065  0.4680 -0.0044  0.1570
 4431SOL    HW113582   3.452   0.388   1.073 -0.5651  1.3496  1.3116
 4431SOL    HW213583   3.598   0.428   1.133 -0.6045  1.0093  1.6369
 4432SOL     OW13584   4.873   2.011   1.183 -0.4010 -0.5037 -0.2384
 4432SOL    HW113585   4.879   2.055   1.273 -0.4173 -1.5969  0.3171
 4432SOL    HW213586   4.780   2.018   1.148 -0.2344  0.5698 -0.5323
 4433SOL     OW13587   0.612   1.043   4.592  0.0419  0.0928  0.3296
 4433SOL    HW113588   0.542   0.973   4.606 -0.2271  0.6882  2.1494
 4433SOL    HW213589   0.568   1.131   4.577  0.4033  0.1274 -0.6151
 4434SOL     OW13590   4.212   2.176   2.706  0.0486  0.0831  0.4697
 4434SOL    HW113591   4.267   2.122   2.643 -0.0400 -1.1216  1.3931
 4434SOL    HW213592   4.272   2.230   2.765  0.2639 -1.1612  1.4150
 4435SOL     OW13593   5.579   0.310   1.003  0.1828  0.2166 -0.6861
 4435SOL    HW113594   5.606   0.227   1.051  0.0905  0.5515 -0.0498
 4435SOL    HW213595   5.480   0.308   0.986  0.1431  0.2940 -0.4711
 4436SOL     OW13596   4.592   1.174   2.643 -0.2605 -0.3931  0.1623
 4436SOL    HW113597   4.624   1.096   2.697  1.0914  0.4752  0.6465
 4436SOL    HW213598   4.545   1.239   2.704  2.8424  1.4702  0.7690
 4437SOL     OW13599   2.238   5.695   1.080 -0.0144  0.1568  0.3239
 4437SOL    HW113600   2.144   5.672   1.056 -0.7095  1.8393  1.2646
 4437SOL    HW213601   2.249   5.795   1.083  2.2891  0.0338 -1.5245
 4438SOL     OW13602   4.295   5.480   1.057  0.1443 -0.2753  0.2274
 4438SOL    HW113603   4.392   5.476   1.032 -0.2738 -0.0340 -1.6336
 4438SOL    HW213604   4.247   5.538   0.991 -1.2329 -0.1706  1.2769
 4439SOL     OW13605   3.109   0.154   0.891 -0.4939 -0.5855  0.3455
 4439SOL    HW113606   3.054   0.206   0.955  1.2140  0.3797  1.1117
 4439SOL    HW213607   3.143   0.215   0.818  1.4468 -0.5605  1.1981
 4440SOL     OW13608   4.290   5.053   0.577  0.7838 -0.2376  0.1401
 4440SOL    HW113609   4.273   4.969   0.525  0.6111  0.0527 -0.2794
 4440SOL    HW213610   4.218   5.119   0.557  0.7473 -0.1018  0.7107
 4441SOL     OW13611   4.197   4.264   0.804  0.1627 -0.1310 -0.1975
 4441SOL    HW113612   4.260   4.217   0.867  0.1135 -1.7342 -1.2938
 4441SOL    HW213613   4.251   4.315   0.736  0.2151  0.8077  0.5109
 4442SOL     OW13614   0.091   0.241   2.576 -0.0461  0.0464 -0.2565
 4442SOL    HW113615   0.066   0.237   2.480  1.1322 -1.6973 -0.5304
 4442SOL    HW213616   0.185   0.275   2.584 -0.0584 -0.0351  0.2725
 4443SOL     OW13617   0.220   1.954   5.743 -0.3274  0.4639  0.2170
 4443SOL    HW113618   0.246   1.885   5.811  2.7517  1.3552  0.1032
 4443SOL    HW213619   0.123   1.976   5.753 -1.1309 -2.8804  1.1062
 4444SOL     OW13620   5.486   1.438   0.543 -0.1465 -0.0917  0.5219
 4444SOL    HW113621   5.526   1.352   0.575 -1.2287 -0.4607  0.9469
 4444SOL    HW213622   5.388   1.439   0.565 -0.9770 -0.3269 -2.6713
 4445SOL     OW13623   3.035   1.215   1.299  0.0984 -0.1225 -0.0615
 4445SOL    HW113624   3.078   1.305   1.307  0.8477 -0.4197 -0.6544
 4445SOL    HW213625   2.982   1.211   1.215  1.2969 -0.7185 -0.8242
 4446SOL     OW13626   5.045   5.632   2.387 -0.2398  0.2936 -0.3049
 4446SOL    HW113627   5.083   5.620   2.295  0.3880  0.6202 -0.0912
 4446SOL    HW213628   5.091   5.709   2.432 -0.5142  0.1057  0.2991
 4447SOL     OW13629   4.133   1.039   2.077 -0.3164  0.0488 -0.7769
 4447SOL    HW113630   4.097   0.956   2.118  0.4090 -0.7149 -1.6458
 4447SOL    HW213631   4.213   1.070   2.129  0.1941 -0.5367 -1.2029
 4448SOL     OW13632   3.570   5.871   0.218  0.2637  0.4277  0.3467
 4448SOL    HW113633   3.609   5.963   0.206  1.0559  0.1880  1.0278
 4448SOL    HW213634   3.642   5.803   0.207  0.0026 -0.0324  1.3899
 4449SOL     OW13635   3.741   0.386   2.207  0.3455  0.3060 -0.1917
 4449SOL    HW113636   3.835   0.407   2.234  0.1489 -0.7686  1.5145
 4449SOL    HW213637   3.740   0.297   2.162 -0.0235 -0.4843  1.3044
 4450SOL     OW13638   3.229   1.913   1.176  0.0208  0.3634  0.5674
 4450SOL    HW113639   3.211   1.976   1.251 -0.2794 -1.6679  2.2848
 4450SOL    HW213640   3.244   1.821   1.212 -1.2084 -0.9175 -1.9158
 4451SOL     OW13641   0.627   0.589   0.644  0.0462 -0.5925  0.1328
 4451SOL    HW113642   0.727   0.580   0.643  0.1527  0.1921  1.5843
 4451SOL    HW213643   0.591   0.564   0.554  1.4105 -2.3460  0.0113
 4452SOL     OW13644   5.609   0.728   2.757  0.5778 -0.4468  0.2941
 4452SOL    HW113645   5.561   0.799   2.706  1.8475  0.2602  0.0477
 4452SOL    HW213646   5.647   0.661   2.693  2.2917  0.5151  0.2367
 4453SOL     OW13647   3.976   1.599   1.100  0.5581  0.0222  0.5915
 4453SOL    HW113648   3.978   1.567   1.194  2.5523  1.0631  0.9536
 4453SOL    HW213649   3.979   1.699   1.098  0.3661  0.0208 -0.5703
 4454SOL     OW13650   3.501   0.789   2.399 -0.1436 -0.1069 -0.4484
 4454SOL    HW113651   3.410   0.827   2.419  0.5399  1.0865  0.5629
 4454SOL    HW213652   3.517   0.710   2.458 -0.3405 -0.0033 -0.2504
 4455SOL     OW13653   0.879   0.552   1.211 -0.0436 -0.1827 -0.0208
 4455SOL    HW113654   0.780   0.564   1.205 -0.1105 -1.3363 -1.7207
 4455SOL    HW213655   0.908   0.561   1.307 -1.4366  2.5253  0.2226
 4456SOL     OW13656   4.027   5.800   0.597 -0.4326 -0.0452 -0.2697
 4456SOL    HW113657   4.072   5.854   0.669 -0.4653  0.8792 -0.9404
 4456SOL    HW213658   4.034   5.847   0.510 -1.4082 -0.6203 -0.6713
 4457SOL     OW13659   3.191   0.333   0.719 -0.5033  0.3173 -0.1834
 4457SOL    HW113660   3.243   0.307   0.638 -0.3038  0.3725 -0.0733
 4457SOL    HW213661   3.230   0.416   0.758 -1.3803  1.0097 -0.7625
 4458SOL     OW13662   4.076   1.701   0.178 -0.3224 -0.3825  0.3580
 4458SOL    HW113663   4.130   1.779   0.210  0.1634 -1.4494  2.2528
 4458SOL    HW213664   4.113   1.668   0.091  1.3080 -0.3212  1.0089
 4459SOL     OW13665   5.572   0.484   3.555 -0.2134  0.5162  0.9739
 4459SOL    HW113666   5.635   0.552   3.592  0.2791 -0.4096  1.8955
 4459SOL    HW213667   5.548   0.509   3.461  1.4199  0.9745  0.6361
 4460SOL     OW13668   4.246   1.140   0.602 -0.2991  0.1545  0.0521
 4460SOL    HW113669   4.182   1.122   0.676 -1.6971  0.8282 -0.9251
 4460SOL    HW213670   4.312   1.066   0.595  0.0143  0.2089  2.1031
 4461SOL     OW13671   4.592   0.243   3.555 -0.1336  0.3175  0.1211
 4461SOL    HW113672   4.600   0.214   3.650  1.4574  0.6190  0.0993
 4461SOL    HW213673   4.616   0.166   3.495 -1.0173  0.1626 -0.0540
 4462SOL     OW13674   5.743   2.569   4.694  0.4077  0.2267  0.6446
 4462SOL    HW113675   5.693   2.482   4.697  0.6308 -0.0728 -2.0255
 4462SOL    HW213676   5.680   2.644   4.714 -0.4614 -0.3534  0.1416
 4463SOL     OW13677   4.719   1.732   3.124 -0.6215  0.3392  0.1418
 4463SOL    HW113678   4.687   1.820   3.089  0.1256  0.9289  0.8927
 4463SOL    HW213679   4.810   1.743   3.164 -0.4380 -0.8210  0.0734
 4464SOL     OW13680   0.174   0.942   1.315 -0.6588  0.5414  0.2356
 4464SOL    HW113681   0.258   0.910   1.359 -0.4604  0.6163 -0.0915
 4464SOL    HW213682   0.105   0.869   1.318 -0.5801  0.4755  0.4910
 4465SOL     OW13683   4.119   5.574   1.243  0.0820 -0.2477  0.3942
 4465SOL    HW113684   4.188   5.550   1.174  0.6086  1.1829  0.4059
 4465SOL    HW213685   4.030   5.583   1.200  0.2574 -0.1800  0.0459
 4466SOL     OW13686   3.225   0.369   1.721 -0.3387 -0.0750 -0.4663
 4466SOL    HW113687   3.316   0.412   1.719 -0.9848  1.3227 -2.3750
 4466SOL    HW213688   3.235   0.273   1.745  1.1641  0.9840  4.1978
 4467SOL     OW13689   4.392   1.194   1.154  0.6098  0.2300  0.4094
 4467SOL    HW113690   4.410   1.135   1.233  3.1433  2.6671  1.8323
 4467SOL    HW213691   4.295   1.216   1.151  0.1460 -1.3642  1.7404
 4468SOL     OW13692   5.180   0.791   1.640 -0.9672 -0.2749  0.0584
 4468SOL    HW113693   5.097   0.811   1.694 -2.7773  0.5231 -2.7875
 4468SOL    HW213694   5.245   0.866   1.650 -0.0663 -1.3157  3.0437
 4469SOL     OW13695   4.503   1.519   0.206  0.0794 -0.6655 -0.0661
 4469SOL    HW113696   4.522   1.588   0.136  0.3541 -1.3774 -0.7035
 4469SOL    HW213697   4.433   1.456   0.172  0.1950 -1.0032  0.3168
 4470SOL     OW13698   4.340   1.149   1.882  0.3044  0.1721 -0.3461
 4470SOL    HW113699   4.373   1.206   1.957  1.7029 -1.3488  0.2434
 4470SOL    HW213700   4.254   1.106   1.908  0.1762  0.5726 -0.0915
 4471SOL     OW13701   3.763   5.498   1.440  0.1945  0.2046  0.3878
 4471SOL    HW113702   3.766   5.464   1.534 -2.0698 -0.9329  0.1114
 4471SOL    HW213703   3.805   5.432   1.379 -0.8996 -0.4176  0.2883
 4472SOL     OW13704   4.669   1.679   5.675  0.3697  0.4571 -0.0095
 4472SOL    HW113705   4.655   1.663   5.773 -1.5695 -0.6153 -0.3888
 4472SOL    HW213706   4.662   1.777   5.655  2.7857  0.9188  1.1445
 4473SOL     OW13707   3.338   0.888   0.584  0.3190  0.0208 -0.1819
 4473SOL    HW113708   3.340   0.871   0.683  0.7069 -0.1066 -0.2112
 4473SOL    HW213709   3.374   0.808   0.536 -0.3446 -0.1231 -0.4560
 4474SOL     OW13710   5.459   5.645   0.791 -0.0845  0.2939 -0.2250
 4474SOL    HW113711   5.555   5.671   0.782 -0.2482  0.9098 -0.2288
 4474SOL    HW213712   5.442   5.563   0.737  0.3636  0.3781 -0.5025
 4475SOL     OW13713   5.053   5.825   1.165  0.2584  0.9291 -0.1442
 4475SOL    HW113714   5.138   5.874   1.184 -0.2585  0.7665  3.2664
 4475SOL    HW213715   4.986   5.888   1.127  0.2490  2.5087  2.2688
 4476SOL     OW13716   0.914   5.480   5.588  0.2055  0.4064 -0.0750
 4476SOL    HW113717   0.859   5.477   5.671 -0.3115  1.5711 -0.3553
 4476SOL    HW213718   1.001   5.525   5.608  0.3759  0.0548 -0.0129
 4477SOL     OW13719   3.842   1.923   1.995 -0.7100  0.0715 -0.4472
 4477SOL    HW113720   3.912   1.978   1.951 -0.2824 -0.8045 -0.8861
 4477SOL    HW213721   3.858   1.920   2.094  0.3390 -0.7580 -0.6265
 4478SOL     OW13722   2.489   5.588   1.198  0.5803  0.1212 -0.4134
 4478SOL    HW113723   2.409   5.632   1.156  0.6309  0.5099 -0.1082
 4478SOL    HW213724   2.568   5.648   1.190  0.8944 -0.3427 -0.8833
 4479SOL     OW13725   5.866   2.533   1.553 -0.1213  0.3416  0.1053
 4479SOL    HW113726   5.767   2.535   1.543 -0.3477  0.3113  2.0003
 4479SOL    HW213727   5.895   2.608   1.614  1.0000  0.2025 -0.2245
 4480SOL     OW13728   5.580   5.225  -0.011  0.2991 -0.1892 -0.3973
 4480SOL    HW113729   5.501   5.182   0.034  1.0591  0.8931  2.2161
 4480SOL    HW213730   5.662   5.172   0.010  0.9526  1.3657  1.2462
 4481SOL     OW13731   3.614   1.163   1.563  0.6739 -0.2037 -0.1423
 4481SOL    HW113732   3.685   1.224   1.529  2.1717 -1.0888  1.2440
 4481SOL    HW213733   3.599   1.090   1.497  1.4310 -0.2861 -0.2369
 4482SOL     OW13734   4.281   1.684   1.438  0.3296  0.2363  0.3882
 4482SOL    HW113735   4.214   1.645   1.375  1.8152 -0.4793 -0.7848
 4482SOL    HW213736   4.237   1.757   1.491 -1.7746 -1.1662  0.7148
 4483SOL     OW13737   4.029   1.649   2.685  0.0116 -0.0804  0.3528
 4483SOL    HW113738   3.947   1.651   2.742  0.3160 -0.6581  0.8138
 4483SOL    HW213739   4.044   1.556   2.651 -0.6513  0.4089 -1.3945
 4484SOL     OW13740   5.875   5.143   0.991 -0.3775  0.4857 -0.1541
 4484SOL    HW113741   5.791   5.197   0.993 -1.7245 -1.5208 -0.3245
 4484SOL    HW213742   5.861   5.057   1.040  1.6285  0.1547 -0.0886
 4485SOL     OW13743   0.239   2.516   1.291  0.1049  0.3271 -0.2420
 4485SOL    HW113744   0.245   2.518   1.391 -1.4279 -0.8512 -0.0976
 4485SOL    HW213745   0.144   2.509   1.263  0.5754 -0.2687 -1.7817
 4486SOL     OW13746   5.637   0.149   5.385 -0.0322 -0.6135 -0.4092
 4486SOL    HW113747   5.719   0.115   5.432 -0.0832  0.3175  0.3697
 4486SOL    HW213748   5.566   0.169   5.451 -0.8699 -1.3102 -1.0773
 4487SOL     OW13749   3.918   2.658   3.094  0.1935  0.2935  0.0139
 4487SOL    HW113750   3.845   2.618   3.040  0.6708  0.5785 -0.8616
 4487SOL    HW213751   3.943   2.596   3.168  1.3739 -1.3729 -1.6903
 4488SOL     OW13752   4.951   4.599   4.544 -0.4513 -0.5738 -0.4721
 4488SOL    HW113753   4.994   4.520   4.588  1.6960  0.3116 -0.8525
 4488SOL    HW213754   4.927   4.666   4.614  0.6648 -0.2277 -0.4063
 4489SOL     OW13755   3.929   5.006   1.069  0.1619  0.3844  0.1833
 4489SOL    HW113756   3.933   5.007   0.969 -1.3925  1.3939  0.0942
 4489SOL    HW213757   3.840   4.970   1.098 -0.3429  2.3114  1.1456
 4490SOL     OW13758   3.898   3.085   0.316  0.7906 -0.0410 -0.1234
 4490SOL    HW113759   3.908   3.049   0.409 -2.1715 -0.4904  0.1140
 4490SOL    HW213760   3.857   3.176   0.321  1.9557  0.5575 -0.9941
 4491SOL     OW13761   4.799   1.318   0.965  0.0271  0.7975 -0.2115
 4491SOL    HW113762   4.888   1.326   1.009 -0.0523  0.1792  0.0827
 4491SOL    HW213763   4.772   1.406   0.927 -0.2975  1.6227  1.7781
 4492SOL     OW13764   4.830   0.254   1.620  0.2892  0.3475 -0.0764
 4492SOL    HW113765   4.854   0.179   1.559  0.3565 -0.6359  1.1209
 4492SOL    HW213766   4.896   0.258   1.695 -0.9587  0.1838  1.0656
 4493SOL     OW13767   4.755   5.869   2.320  0.0825 -0.3893 -0.3915
 4493SOL    HW113768   4.700   5.879   2.238  0.2448  2.4964 -0.2671
 4493SOL    HW213769   4.722   5.792   2.374 -1.1803 -1.2148 -2.2557
 4494SOL     OW13770   3.991   1.928   0.727  0.3092 -0.5965 -0.8591
 4494SOL    HW113771   3.953   1.838   0.707  1.5773 -1.8012  1.7121
 4494SOL    HW213772   4.090   1.922   0.739  0.5671  1.3390 -1.5352
 4495SOL     OW13773   3.750   3.071   0.940 -0.8394 -0.1751  0.3424
 4495SOL    HW113774   3.842   3.045   0.912 -0.6203  1.5727 -0.7055
 4495SOL    HW213775   3.691   2.990   0.943  0.5582 -1.2194  0.4323
 4496SOL     OW13776   0.393   0.727   1.909 -0.0505 -0.0649 -0.1436
 4496SOL    HW113777   0.325   0.691   1.973 -0.6860 -0.4693 -1.0155
 4496SOL    HW213778   0.353   0.804   1.859  0.6570  0.6564  0.3890
 4497SOL     OW13779   3.455   4.040   1.528  0.3884 -0.2726 -0.3355
 4497SOL    HW113780   3.493   3.990   1.450  0.7024 -1.3594  0.4946
 4497SOL    HW213781   3.484   3.997   1.613 -1.1474 -0.0134  0.3645
 4498SOL     OW13782   5.218   2.262   0.028  0.1885 -0.2540  0.1651
 4498SOL    HW113783   5.286   2.239   0.098  0.0860 -2.0012 -0.2519
 4498SOL    HW213784   5.146   2.318   0.068  1.2881  0.6982  0.8837
 4499SOL     OW13785   4.706   1.491   2.570  0.1607 -0.6843 -0.2964
 4499SOL    HW113786   4.635   1.471   2.502  0.7842 -2.4528 -0.4881
 4499SOL    HW213787   4.791   1.447   2.543  1.0829  0.5962  0.4361
 4500SOL     OW13788   5.131   0.776   0.149  0.2616  0.7030 -0.6493
 4500SOL    HW113789   5.186   0.717   0.090  1.0885  1.1527 -0.3436
 4500SOL    HW213790   5.035   0.765   0.126  0.3429 -1.0813 -0.3277
 4501SOL     OW13791   5.568   1.344   5.380 -0.4074  0.1006  0.0005
 4501SOL    HW113792   5.503   1.408   5.341 -1.5022 -0.7011  0.4395
 4501SOL    HW213793   5.656   1.389   5.394 -0.5526  0.9242 -1.5553
 4502SOL     OW13794   4.583   0.204   3.825 -0.2320  0.0252 -0.3957
 4502SOL    HW113795   4.518   0.256   3.881 -1.7421  0.2485 -2.2352
 4502SOL    HW213796   4.599   0.114   3.865  1.4484  1.3565  2.1816
 4503SOL     OW13797   4.475   0.564   5.199 -0.0483  0.1567 -0.4453
 4503SOL    HW113798   4.506   0.474   5.231 -2.1881 -0.2994  0.5615
 4503SOL    HW213799   4.457   0.623   5.279  0.4883  1.1854 -1.0674
 4504SOL     OW13800   5.324   5.684   1.864 -0.1751 -0.4783  0.2725
 4504SOL    HW113801   5.365   5.632   1.939 -1.4196 -1.7837  0.0870
 4504SOL    HW213802   5.324   5.782   1.888  0.5888 -0.7417  1.4167
 4505SOL     OW13803   5.376   4.887   0.577  0.0646  0.3140  0.2379
 4505SOL    HW113804   5.362   4.809   0.638  1.2628 -1.0183 -1.1030
 4505SOL    HW213805   5.449   4.945   0.614  0.9834 -0.6414 -0.0150
 4506SOL     OW13806   4.939   0.268   0.454 -0.4950  0.0854 -0.3698
 4506SOL    HW113807   4.845   0.237   0.441 -0.3234 -0.2104 -0.9345
 4506SOL    HW213808   4.952   0.357   0.410 -0.9975  1.0217  1.2797
 4507SOL     OW13809   4.932   1.656   0.361  0.1631 -0.0036 -0.6755
 4507SOL    HW113810   4.970   1.686   0.449  1.5699 -2.3447 -0.3870
 4507SOL    HW213811   4.833   1.671   0.360 -0.4911 -2.7156  2.6831
 4508SOL     OW13812   4.665   0.931   5.765  0.5527 -0.4533 -0.9106
 4508SOL    HW113813   4.588   0.982   5.803  0.4318 -0.9471 -0.4863
 4508SOL    HW213814   4.654   0.924   5.666  0.1398 -0.3779 -0.8741
 4509SOL     OW13815   5.917   0.723   2.591  0.2635  0.1174  1.0132
 4509SOL    HW113816   5.868   0.805   2.560 -0.5687  0.0329  2.0321
 4509SOL    HW213817   5.850   0.653   2.617  0.9610 -0.5854  0.9455
 4510SOL     OW13818   4.178   0.377   1.594  0.0648 -0.2393 -0.2154
 4510SOL    HW113819   4.195   0.278   1.589  1.1798 -0.2423  2.1700
 4510SOL    HW213820   4.236   0.424   1.528 -1.5602 -1.2000 -2.4723
 4511SOL     OW13821   2.797   1.700   5.438 -0.4216  0.1596 -0.0603
 4511SOL    HW113822   2.737   1.646   5.498  0.0824  0.8043  1.0439
 4511SOL    HW213823   2.787   1.797   5.459 -0.5028  0.4406 -1.2926
 4512SOL     OW13824   4.278   2.238   1.945  0.0962 -0.3069 -0.2947
 4512SOL    HW113825   4.259   2.238   2.044  0.5150 -1.2964 -0.1968
 4512SOL    HW213826   4.282   2.332   1.912 -0.9782  0.0226  0.4432
 4513SOL     OW13827   3.990   0.347   5.731  0.2435  0.5713 -0.3212
 4513SOL    HW113828   3.925   0.423   5.727 -0.7308 -0.2863 -1.7218
 4513SOL    HW213829   3.948   0.265   5.692  1.7661 -0.3364 -0.1433
 4514SOL     OW13830   4.439   0.749   0.182  0.1447  0.3405 -0.3756
 4514SOL    HW113831   4.492   0.723   0.101 -0.2279 -0.0924 -0.4804
 4514SOL    HW213832   4.446   0.677   0.252 -1.7408 -0.5825 -1.0685
 4515SOL     OW13833   4.446   2.680   4.946  0.4447 -0.1866  0.0569
 4515SOL    HW113834   4.442   2.656   5.043 -0.8208 -0.6926 -0.1013
 4515SOL    HW213835   4.385   2.620   4.895 -1.2017  1.9653 -0.6606
 4516SOL     OW13836   5.434   4.637   2.316  0.1005 -0.5690  0.3338
 4516SOL    HW113837   5.419   4.631   2.415 -1.0340 -0.3560  0.1966
 4516SOL    HW213838   5.345   4.643   2.270  0.5022 -2.7337 -0.8496
 4517SOL     OW13839   4.134   0.812   2.975  0.3923  0.1103 -0.2604
 4517SOL    HW113840   4.098   0.743   3.038 -1.9449  1.3100 -0.1600
 4517SOL    HW213841   4.155   0.896   3.025  1.0615  0.2096 -0.6978
 4518SOL     OW13842   4.856   1.466   1.873  0.1061  0.4555  0.2307
 4518SOL    HW113843   4.872   1.563   1.888 -0.4065  0.3818  1.3119
 4518SOL    HW213844   4.800   1.429   1.946  0.9937 -0.8492  0.2967
 4519SOL     OW13845   4.182   0.821   1.205  0.1772 -0.6255  0.1448
 4519SOL    HW113846   4.210   0.733   1.166 -0.8683 -1.0959  0.4261
 4519SOL    HW213847   4.203   0.822   1.303  0.6217 -0.3745  0.0481
 4520SOL     OW13848   4.917   1.496   1.339 -0.3670 -0.1137  0.1624
 4520SOL    HW113849   4.909   1.593   1.320  1.2695 -0.1084 -0.7781
 4520SOL    HW213850   4.832   1.449   1.315 -0.4717  0.8048 -1.3601
 4521SOL     OW13851   4.161   0.082   1.510  0.3503 -0.1282 -0.5988
 4521SOL    HW113852   4.151   0.014   1.583  0.3335 -2.1236 -2.3461
 4521SOL    HW213853   4.254   0.076   1.472  0.7324  1.6822 -0.0461
 4522SOL     OW13854   4.305   1.111   0.215  0.1638 -0.4916 -0.4917
 4522SOL    HW113855   4.223   1.115   0.273  0.5133 -1.4187  0.0901
 4522SOL    HW213856   4.316   1.197   0.167 -1.0145 -0.2624 -0.3740
 4523SOL     OW13857   3.709   1.697   1.964 -0.3017  0.5832  0.5291
 4523SOL    HW113858   3.615   1.706   1.929  0.6650 -1.3196 -3.0952
 4523SOL    HW213859   3.755   1.785   1.958 -1.3817  1.1935  0.8744
 4524SOL     OW13860   4.694   5.639   3.164  0.2950  0.0988 -0.3275
 4524SOL    HW113861   4.620   5.660   3.229  0.9879  2.2906 -0.1595
 4524SOL    HW213862   4.664   5.565   3.104 -0.8829 -1.1033  1.5893
 4525SOL     OW13863   5.432   0.184   5.607  0.2840  0.0811 -0.0761
 4525SOL    HW113864   5.402   0.099   5.650  1.5297 -1.1271 -1.4877
 4525SOL    HW213865   5.529   0.200   5.628  0.2353  0.8092 -0.3662
 4526SOL     OW13866   3.003   2.062   0.774 -0.1048 -0.4614 -0.1922
 4526SOL    HW113867   3.050   1.983   0.735 -0.7130 -1.7643  1.5714
 4526SOL    HW213868   3.050   2.091   0.857 -0.6261  0.2150 -0.1243
 4527SOL     OW13869   4.107   1.279   2.324 -0.5027  0.0342  0.2576
 4527SOL    HW113870   4.100   1.374   2.294 -0.2759 -0.1464 -0.3851
 4527SOL    HW213871   4.170   1.229   2.264 -0.1776 -0.3859  0.9310
 4528SOL     OW13872   4.149   5.280   3.620  0.3093  0.2959  0.1130
 4528SOL    HW113873   4.076   5.292   3.552  1.8285  1.0097 -1.4404
 4528SOL    HW213874   4.120   5.320   3.706 -1.2206  0.3717 -0.3950
 4529SOL     OW13875   1.396   1.597   1.991  0.5987 -0.3552 -0.3797
 4529SOL    HW113876   1.411   1.601   2.090  0.6407 -2.1291 -0.2720
 4529SOL    HW213877   1.347   1.513   1.969 -1.0384  0.8964 -1.7116
 4530SOL     OW13878   3.111   0.199   3.093 -0.0503 -1.1482  0.5789
 4530SOL    HW113879   3.088   0.293   3.116 -0.1612 -0.5571 -1.7159
 4530SOL    HW213880   3.027   0.147   3.075  0.0480 -0.3563 -2.7633
 4531SOL     OW13881   5.275   0.116   0.655 -0.6411 -0.5695 -0.4124
 4531SOL    HW113882   5.368   0.119   0.691 -0.4490 -1.4255 -0.8208
 4531SOL    HW213883   5.217   0.063   0.717 -0.4777 -1.4302 -0.9960
 4532SOL     OW13884   3.973   1.418   3.562 -0.2406  0.4872 -0.8520
 4532SOL    HW113885   3.997   1.321   3.573  1.6566  0.8682 -1.3626
 4532SOL    HW213886   3.990   1.466   3.647 -0.2307  0.5590 -0.8948
 4533SOL     OW13887   4.884   1.020   2.434  0.0323  0.0150  0.2277
 4533SOL    HW113888   4.844   1.106   2.404 -0.6166 -0.5941 -0.7113
 4533SOL    HW213889   4.846   0.944   2.380  1.1194 -0.7839  0.5268
 4534SOL     OW13890   3.375   0.531   0.813  0.8048 -0.4573 -0.1853
 4534SOL    HW113891   3.445   0.498   0.876  0.1947 -0.5890  0.4368
 4534SOL    HW213892   3.313   0.592   0.861 -0.2833 -1.3676 -0.3804
 4535SOL     OW13893   4.883   0.976   1.763  0.3030  0.3484  0.1090
 4535SOL    HW113894   4.887   1.054   1.701 -2.6861  1.6681  1.3754
 4535SOL    HW213895   4.882   1.009   1.858 -3.2894 -0.9406  0.6517
 4536SOL     OW13896   3.246   0.892   2.533  0.2302  0.1588 -0.5906
 4536SOL    HW113897   3.295   0.921   2.616 -0.9630 -0.1715  0.2556
 4536SOL    HW213898   3.201   0.805   2.550 -0.7367  0.5033 -1.3114
 4537SOL     OW13899   2.833   2.082   4.055 -0.5368 -0.3564  0.1391
 4537SOL    HW113900   2.885   2.127   3.982  0.7660 -0.0975  1.1880
 4537SOL    HW213901   2.814   2.149   4.127  1.7719 -1.4529  1.9172
 4538SOL     OW13902   0.406   5.741   0.152 -0.2527 -0.2994  0.0977
 4538SOL    HW113903   0.380   5.710   0.244 -1.4284 -2.2993 -0.8338
 4538SOL    HW213904   0.500   5.775   0.154  0.1256 -1.3100  1.8298
 4539SOL     OW13905   0.040   5.539   5.882  0.6147 -0.0853  0.2611
 4539SOL    HW113906   0.122   5.482   5.879  0.3001 -0.4894 -1.1773
 4539SOL    HW213907   0.064   5.628   5.922  2.0430  0.2209 -1.1439
 4540SOL     OW13908   4.631   2.360   0.960  0.4976  0.0741 -0.1048
 4540SOL    HW113909   4.656   2.330   0.868  1.3491 -0.9126  0.4240
 4540SOL    HW213910   4.697   2.427   0.993 -0.7340  1.7213 -0.8184
 4541SOL     OW13911   4.298   1.704   1.139  0.0921  0.2132 -0.2127
 4541SOL    HW113912   4.315   1.649   1.220  1.4070  0.4482 -0.2988
 4541SOL    HW213913   4.258   1.792   1.166  1.9811  0.9474  0.3933
 4542SOL     OW13914   4.785   0.439   5.533  0.5109 -0.5124 -0.2710
 4542SOL    HW113915   4.734   0.354   5.521  1.0165 -1.0308  1.0408
 4542SOL    HW213916   4.757   0.483   5.618  0.4864  0.4797 -0.7737
 4543SOL     OW13917   4.380   4.842   0.944  0.0385 -0.1306 -0.2589
 4543SOL    HW113918   4.424   4.804   0.862  0.0292  0.3214 -0.4729
 4543SOL    HW213919   4.288   4.873   0.922 -0.6620 -1.6674  0.3316
 4544SOL     OW13920   3.817   1.681   0.231  0.0622 -0.2216 -0.2331
 4544SOL    HW113921   3.912   1.695   0.204  0.6175  1.0872  2.1168
 4544SOL    HW213922   3.809   1.596   0.282 -0.3873 -1.1178 -1.7212
 4545SOL     OW13923   2.489   2.294   2.000 -0.8339  0.0629  0.3356
 4545SOL    HW113924   2.444   2.233   2.064 -1.4843  0.2592  0.0718
 4545SOL    HW213925   2.450   2.283   1.909 -1.4623  1.3663  0.4161
 4546SOL     OW13926   4.297   0.268   0.708  0.1142  0.2559 -0.0007
 4546SOL    HW113927   4.215   0.267   0.651  0.3793 -0.0119 -0.3896
 4546SOL    HW213928   4.305   0.181   0.756 -0.6914  0.8815  1.3166
 4547SOL     OW13929   3.376   5.800   2.286 -0.1537  0.0834 -0.2384
 4547SOL    HW113930   3.294   5.751   2.256 -0.3324  0.4075 -0.2885
 4547SOL    HW213931   3.419   5.844   2.207 -0.9725  1.4654  0.0390
 4548SOL     OW13932   3.748   5.088   1.421 -0.3297 -0.5541 -0.2189
 4548SOL    HW113933   3.791   5.002   1.393 -0.6094 -0.7057 -0.1900
 4548SOL    HW213934   3.772   5.160   1.355  0.5105 -0.4759  0.1676
 4549SOL     OW13935   3.639   0.079   3.417 -0.3092 -0.5370  0.4150
 4549SOL    HW113936   3.675   0.172   3.422 -1.5675  0.0542 -0.7998
 4549SOL    HW213937   3.556   0.072   3.473 -0.3004 -0.8943  0.3880
 4550SOL     OW13938   4.823   1.138   3.582  0.1620 -0.1510 -0.6482
 4550SOL    HW113939   4.730   1.151   3.616  0.3099  1.8754 -0.8979
 4550SOL    HW213940   4.861   1.053   3.620 -1.2150 -0.2095  0.6891
 4551SOL     OW13941   0.638   1.566   2.797  0.1762  0.1787  0.6241
 4551SOL    HW113942   0.577   1.558   2.876 -1.4356  1.9179 -0.3877
 4551SOL    HW213943   0.659   1.474   2.762 -1.2001 -0.4934  1.4842
 4552SOL     OW13944   3.194   1.671   2.145 -0.2664  0.4123 -0.3496
 4552SOL    HW113945   3.147   1.606   2.206 -0.2314  0.5726 -0.1500
 4552SOL    HW213946   3.288   1.640   2.131 -0.6363 -0.3010 -1.3363
 4553SOL     OW13947   4.473   0.467   0.869 -0.0934  0.1907 -0.2844
 4553SOL    HW113948   4.448   0.400   0.938 -0.0787 -0.3935 -0.8377
 4553SOL    HW213949   4.395   0.483   0.808  0.1245  0.1607 -0.5720
 4554SOL     OW13950   5.633   1.103   3.087 -0.5386  0.1598  0.3517
 4554SOL    HW113951   5.731   1.082   3.091 -0.6749 -0.5393  0.0490
 4554SOL    HW213952   5.580   1.018   3.089 -1.0508  0.2877 -2.9304
 4555SOL     OW13953   5.919   1.731   4.827 -0.0043  0.1586  0.3300
 4555SOL    HW113954   5.962   1.645   4.854 -1.3360 -0.6660 -0.1011
 4555SOL    HW213955   5.822   1.716   4.809 -0.5343  2.0049  1.4119
 4556SOL     OW13956   0.979   1.560   2.392 -0.2110  0.3614 -0.1333
 4556SOL    HW113957   1.022   1.543   2.303 -0.5909  0.7588 -0.3973
 4556SOL    HW213958   0.886   1.523   2.391 -0.3377  0.6795 -0.0233
 4557SOL     OW13959   3.799   2.652   4.020 -0.4397  0.6333  0.1152
 4557SOL    HW113960   3.745   2.667   3.937  0.1873  0.1757 -0.3785
 4557SOL    HW213961   3.787   2.731   4.081 -1.1212  0.8498 -0.2810
 4558SOL     OW13962   4.441   1.292   2.843  0.0666 -0.2151  0.1478
 4558SOL    HW113963   4.344   1.306   2.822 -0.8265 -4.2380  0.7357
 4558SOL    HW213964   4.451   1.280   2.942  1.3376  0.8494  0.1710
 4559SOL     OW13965   4.505   2.957   4.189 -0.0908 -0.4719  0.2823
 4559SOL    HW113966   4.526   3.051   4.216 -0.3292 -0.4683  0.4577
 4559SOL    HW213967   4.588   2.912   4.157  0.3100 -0.6350  1.4966
 4560SOL     OW13968   4.713   1.222   2.405  0.2264 -0.5276  0.0637
 4560SOL    HW113969   4.695   1.198   2.501  1.2112  2.2099  1.0178
 4560SOL    HW213970   4.646   1.290   2.375  1.2221  0.2390 -0.4721
 4561SOL     OW13971   5.518   0.662   1.048 -0.0832 -0.7497 -0.3212
 4561SOL    HW113972   5.450   0.614   0.992 -1.2218 -1.5276  1.6243
 4561SOL    HW213973   5.537   0.608   1.131  1.7180  0.2403 -0.0345
 4562SOL     OW13974   4.026   1.043   0.768  0.5175 -0.0310 -0.3230
 4562SOL    HW113975   4.033   1.001   0.858  1.0965 -0.6376 -0.6431
 4562SOL    HW213976   3.967   0.988   0.710  1.8334 -0.8353 -0.9616
 4563SOL     OW13977   4.807   0.374   3.868 -0.4869 -0.5586  0.0768
 4563SOL    HW113978   4.886   0.358   3.928 -0.2207  1.1211  0.2224
 4563SOL    HW213979   4.748   0.294   3.869  0.6472 -1.4197  0.8477
 4564SOL     OW13980   5.223   0.212   5.165  0.1390 -0.1785  0.4334
 4564SOL    HW113981   5.170   0.140   5.210 -0.3369  0.0713  0.2789
 4564SOL    HW213982   5.312   0.175   5.136  0.0032 -0.6318  0.5874
 4565SOL     OW13983   4.575   1.339   3.518  0.3805  0.5257  0.0399
 4565SOL    HW113984   4.562   1.278   3.596  0.1126  2.2936  1.4207
 4565SOL    HW213985   4.661   1.388   3.527  0.2150  0.9564 -0.6323
 4566SOL     OW13986   4.221   3.062   3.715  0.3639 -0.7025  0.0231
 4566SOL    HW113987   4.186   2.998   3.646 -2.5793  0.3709  0.3952
 4566SOL    HW213988   4.209   3.023   3.806 -1.7310  0.4221  0.2735
 4567SOL     OW13989   4.255   2.435   3.374  0.7075 -0.7414  0.2722
 4567SOL    HW113990   4.183   2.419   3.307  0.6740 -0.2838  0.1923
 4567SOL    HW213991   4.340   2.392   3.343  0.8098 -0.1487 -0.2975
 4568SOL     OW13992   4.233   4.151   2.708  0.0936 -0.5831 -0.4378
 4568SOL    HW113993   4.150   4.204   2.726  0.5971 -0.7801  3.0006
 4568SOL    HW213994   4.307   4.182   2.768  1.9720 -1.7574 -1.9989
 4569SOL     OW13995   3.743   0.203   5.106 -0.0654 -0.5632 -0.1430
 4569SOL    HW113996   3.815   0.159   5.052  0.5886 -1.1197  1.1152
 4569SOL    HW213997   3.778   0.222   5.198 -1.4217 -0.5265  0.3900
 4570SOL     OW13998   5.390   1.255   2.249  0.0635  0.4575 -0.1979
 4570SOL    HW113999   5.401   1.168   2.202  0.1013 -0.3672  1.2769
 4570SOL    HW214000   5.339   1.241   2.334 -1.1121  2.1041 -0.5683
 4571SOL     OW14001   2.104   1.780   3.063  0.3034  0.0568  0.0067
 4571SOL    HW114002   2.060   1.701   3.105 -0.2316  0.5870  0.4621
 4571SOL    HW214003   2.168   1.749   2.993  1.5953 -0.8630  1.5340
 4572SOL     OW14004   0.020   0.751   1.210 -0.3822 -0.0784 -0.0505
 4572SOL    HW114005   0.046   0.656   1.226  0.0100 -0.2154 -1.4131
 4572SOL    HW214006  -0.017   0.760   1.117  0.0994  1.1985 -0.1292
 4573SOL     OW14007   0.499   1.175   3.154 -0.3232 -0.2712  0.1403
 4573SOL    HW114008   0.514   1.114   3.076  0.0648  0.7798 -0.6252
 4573SOL    HW214009   0.416   1.229   3.139 -1.4410 -1.5349  1.4422
 4574SOL     OW14010   2.613   5.353   3.788  0.1253 -0.4944 -0.0463
 4574SOL    HW114011   2.703   5.311   3.790  0.4966  0.1992 -1.0656
 4574SOL    HW214012   2.602   5.404   3.703 -0.6552  0.6662  0.7084
 4575SOL     OW14013   4.743   0.558   2.828  0.5661  0.7604 -0.5749
 4575SOL    HW114014   4.816   0.553   2.761  1.5420  2.3384  0.2943
 4575SOL    HW214015   4.736   0.652   2.862  0.0646  0.0427  1.4659
 4576SOL     OW14016   5.131   0.211   2.873  0.4021 -0.1279  0.0840
 4576SOL    HW114017   5.114   0.257   2.786  0.8167 -1.5243 -0.7574
 4576SOL    HW214018   5.110   0.274   2.948 -0.8137  0.8118 -0.9946
 4577SOL     OW14019   2.975   0.431   0.588 -0.3536 -0.1352 -0.5204
 4577SOL    HW114020   3.026   0.485   0.522 -0.3288 -0.9914 -1.2260
 4577SOL    HW214021   3.032   0.356   0.621  0.1151  1.0692  1.5444
 4578SOL     OW14022   2.546   2.165   2.566 -0.2621 -0.1164  0.1567
 4578SOL    HW114023   2.640   2.131   2.555  0.1363  1.3333 -1.3204
 4578SOL    HW214024   2.535   2.249   2.513 -1.9756  0.5880  1.5482
 4579SOL     OW14025   3.979   2.409   2.142  0.7935 -0.3862 -0.4555
 4579SOL    HW114026   3.972   2.508   2.133  2.7063 -0.0213  1.4091
 4579SOL    HW214027   3.893   2.367   2.111 -0.8192  1.9646  0.5562
 4580SOL     OW14028   5.491   2.586   5.046 -0.2440  0.2093  0.0121
 4580SOL    HW114029   5.558   2.651   5.011 -0.0967  0.5787  0.9468
 4580SOL    HW214030   5.492   2.588   5.146 -2.0380  0.6298  0.0437
 4581SOL     OW14031   3.852   1.768   5.348 -0.2251 -0.2482 -0.2168
 4581SOL    HW114032   3.835   1.720   5.434  0.2289 -0.7440 -0.3941
 4581SOL    HW214033   3.944   1.746   5.315  0.3872  1.5222  0.1881
 4582SOL     OW14034   5.927   2.442   2.753  0.1290 -0.2322  0.1212
 4582SOL    HW114035   5.909   2.349   2.783  0.2028  0.1105  1.3146
 4582SOL    HW214036   5.885   2.506   2.818 -2.8215  0.6263 -2.4143
 4583SOL     OW14037   4.632   0.715   1.923 -0.0176 -0.3498 -0.1673
 4583SOL    HW114038   4.705   0.705   1.990 -1.4885 -0.8150  1.4626
 4583SOL    HW214039   4.624   0.811   1.896  1.0627 -0.2761 -0.2399
 4584SOL     OW14040   4.558   5.512   3.473 -0.1875 -0.3176  0.3015
 4584SOL    HW114041   4.614   5.490   3.552  2.1026 -1.3891 -1.4914
 4584SOL    HW214042   4.568   5.609   3.450  1.2436 -0.5488 -0.1551
 4585SOL     OW14043   4.757   5.312   3.364 -0.4669  0.5517 -0.1777
 4585SOL    HW114044   4.818   5.353   3.296 -0.7871  0.1193 -0.7265
 4585SOL    HW214045   4.699   5.383   3.404 -0.9313  0.6563 -1.0314
 4586SOL     OW14046   0.891   1.388   2.805 -0.5711 -0.3273  0.0466
 4586SOL    HW114047   0.956   1.447   2.758 -0.9917 -0.3181 -0.5482
 4586SOL    HW214048   0.830   1.346   2.737 -2.7323  1.5069  0.7158
 4587SOL     OW14049   3.569   1.728   4.636 -0.0117  0.3150  0.3991
 4587SOL    HW114050   3.517   1.805   4.673  0.0121  0.1177  0.8500
 4587SOL    HW214051   3.525   1.642   4.661 -0.2412  0.1874 -0.4189
 4588SOL     OW14052   4.344   0.284   2.246  0.0802  0.4020 -0.8053
 4588SOL    HW114053   4.366   0.375   2.281 -0.8651  0.2190  0.3260
 4588SOL    HW214054   4.346   0.286   2.146  0.8898  1.4463 -0.7860
 4589SOL     OW14055   4.328   1.463   5.186 -0.7297  0.0249 -0.2803
 4589SOL    HW114056   4.412   1.424   5.147  0.0146  1.5970 -0.3406
 4589SOL    HW214057   4.328   1.449   5.285 -0.2918  0.1656 -0.2546
 4590SOL     OW14058   5.201   0.201   3.447  0.4588  0.0464  0.4616
 4590SOL    HW114059   5.296   0.227   3.430 -0.0140  0.4695 -1.8979
 4590SOL    HW214060   5.193   0.102   3.455  1.2593  0.0913  2.0138
 4591SOL     OW14061   3.711   0.096   0.815  0.7671  0.1381 -0.0641
 4591SOL    HW114062   3.617   0.092   0.847  0.7385 -1.7593 -0.2794
 4591SOL    HW214063   3.712   0.093   0.715  1.0714 -1.4410 -0.0399
 4592SOL     OW14064   5.046   2.304   2.932  0.2172  0.0769  0.3916
 4592SOL    HW114065   4.957   2.324   2.893 -0.4352  0.2805  1.8926
 4592SOL    HW214066   5.067   2.371   3.004  2.6998  1.5406 -1.5259
 4593SOL     OW14067   3.340   1.475   5.332  0.4580  0.2192  0.8320
 4593SOL    HW114068   3.333   1.392   5.387 -3.0258  0.8735  1.5823
 4593SOL    HW214069   3.436   1.488   5.305  1.0039 -4.7763 -0.6282
 4594SOL     OW14070   3.410   5.956   0.625  0.1416  0.1151  0.1116
 4594SOL    HW114071   3.461   5.878   0.590  1.1784  0.4326  0.8533
 4594SOL    HW214072   3.405   5.951   0.724  0.9466  1.3892  0.2484
 4595SOL     OW14073   5.325   0.809   4.450  0.0162 -0.5804  0.3013
 4595SOL    HW114074   5.357   0.900   4.477 -1.0333  0.0454 -0.4864
 4595SOL    HW214075   5.226   0.808   4.445  0.0074 -1.8178  0.4201
 4596SOL     OW14076   1.276   1.930   2.809 -0.2382 -0.3044  0.3024
 4596SOL    HW114077   1.239   2.022   2.793  2.8883  1.3085  1.4134
 4596SOL    HW214078   1.287   1.883   2.722 -0.3561  1.0443 -0.4752
 4597SOL     OW14079   2.718   0.384   1.624  0.3133  0.4850 -0.1976
 4597SOL    HW114080   2.735   0.480   1.602  0.6086  0.2461 -1.0285
 4597SOL    HW214081   2.805   0.334   1.623  0.3287  0.4262  1.3690
 4598SOL     OW14082   4.999   1.481   2.249 -0.2771 -0.3331  0.5978
 4598SOL    HW114083   4.914   1.529   2.228 -0.8199 -1.0854  1.0042
 4598SOL    HW214084   5.066   1.498   2.177 -0.5026  0.8838  0.6583
 4599SOL     OW14085   5.387   1.873   3.935  0.0570 -0.1114 -0.5933
 4599SOL    HW114086   5.359   1.786   3.895 -0.5141  0.5041 -1.5845
 4599SOL    HW214087   5.328   1.895   4.012  0.7722 -1.0184  0.2285
 4600SOL     OW14088   0.471   2.870   2.962  0.1710  0.0013 -0.6793
 4600SOL    HW114089   0.457   2.961   2.923 -0.0103 -0.6194 -2.1437
 4600SOL    HW214090   0.441   2.869   3.057 -0.8647  1.1673 -0.9730
 4601SOL     OW14091   2.499   2.211   4.383 -0.0402 -0.0921 -0.0610
 4601SOL    HW114092   2.446   2.205   4.298 -0.2395 -0.2073  0.0713
 4601SOL    HW214093   2.505   2.120   4.425 -0.6244  0.1052  0.4632
 4602SOL     OW14094   1.728   0.819   1.878  0.1061  0.7170  0.2876
 4602SOL    HW114095   1.782   0.867   1.947  0.9500  0.3984 -0.1299
 4602SOL    HW214096   1.704   0.882   1.804  0.8313  0.6224 -0.0419
 4603SOL     OW14097   5.671   5.410   3.118  0.1289  0.0133  0.2917
 4603SOL    HW114098   5.673   5.310   3.106  0.5831  0.1550 -0.9283
 4603SOL    HW214099   5.602   5.449   3.057  0.2669  0.4901  0.4405
 4604SOL     OW14100   4.762   1.360   3.209 -0.0476  0.1636 -0.1421
 4604SOL    HW114101   4.845   1.336   3.158  0.9183 -0.8904  1.8235
 4604SOL    HW214102   4.707   1.424   3.155  2.0414  0.9189 -1.4900
 4605SOL     OW14103   4.287   0.065   1.843 -0.1846 -0.4439 -0.1585
 4605SOL    HW114104   4.258   0.023   1.929  0.8069 -0.2551  0.2799
 4605SOL    HW214105   4.261   0.006   1.766 -0.3402 -1.0130  0.3236
 4606SOL     OW14106   2.211   5.536   2.818  0.5272 -0.3363  0.1133
 4606SOL    HW114107   2.206   5.496   2.909  0.8667 -0.2698  0.1619
 4606SOL    HW214108   2.299   5.583   2.807  0.6477 -0.6748 -0.3858
 4607SOL     OW14109   5.602   1.430   2.189 -0.1136  0.4085 -0.1888
 4607SOL    HW114110   5.533   1.375   2.235 -0.9562  0.7665 -0.9996
 4607SOL    HW214111   5.674   1.454   2.254 -0.7176 -0.0191  0.6531
 4608SOL     OW14112   5.331   5.826   3.547 -0.2453 -0.2272  0.5694
 4608SOL    HW114113   5.263   5.783   3.488  0.2423  0.0402 -0.2023
 4608SOL    HW214114   5.423   5.800   3.516  0.0063 -0.7909  1.7507
 4609SOL     OW14115   4.370   5.446   3.270 -0.4110 -0.0822  0.1179
 4609SOL    HW114116   4.284   5.497   3.271 -0.7125 -0.5878  0.0284
 4609SOL    HW214117   4.428   5.477   3.346 -0.6845  0.2376  0.1968
 4610SOL     OW14118   4.262   1.329   3.143 -0.8035  0.5568  0.5651
 4610SOL    HW114119   4.297   1.342   3.236  0.8708  3.0448 -0.2955
 4610SOL    HW214120   4.183   1.389   3.129 -1.0422  0.1984  0.3639
 4611SOL     OW14121   5.148   5.376   1.544 -0.2410  0.1058 -0.2827
 4611SOL    HW114122   5.237   5.380   1.589 -1.1550 -0.2290  1.6832
 4611SOL    HW214123   5.136   5.456   1.486  0.5222  1.2574  1.0741
 4612SOL     OW14124   4.895   0.140   3.417  0.3052  0.0984  0.4194
 4612SOL    HW114125   4.911   0.135   3.516 -0.1110  1.5699  0.5979
 4612SOL    HW214126   4.898   0.236   3.389 -1.7123 -0.0961 -0.6187
 4613SOL     OW14127   5.788   3.891   4.498 -0.3651  0.2152 -0.5399
 4613SOL    HW114128   5.758   3.859   4.588  0.4905 -1.7823 -0.9000
 4613SOL    HW214129   5.849   3.969   4.508  1.3882 -1.2387  0.8311
 4614SOL     OW14130   1.550   0.942   2.825 -0.2772  0.3476  0.5148
 4614SOL    HW114131   1.541   1.041   2.838  2.0071  0.6966  0.0062
 4614SOL    HW214132   1.617   0.924   2.752 -0.7155 -1.5772  0.5335
 4615SOL     OW14133   3.418   1.159   3.511 -0.4362  0.3535 -0.3431
 4615SOL    HW114134   3.390   1.067   3.484 -1.6848  0.9418 -1.1799
 4615SOL    HW214135   3.381   1.179   3.602  0.7548 -0.3442  0.3124
 4616SOL     OW14136   5.068   1.325   4.781 -0.4838  0.3772  0.0137
 4616SOL    HW114137   5.101   1.416   4.754 -1.2898  0.8568  0.5903
 4616SOL    HW214138   5.113   1.255   4.726  0.6397  1.0849  0.0089
 4617SOL     OW14139   5.370   0.456   2.659 -0.4543 -0.0282  0.5922
 4617SOL    HW114140   5.465   0.468   2.630 -0.6194 -1.1386 -0.5296
 4617SOL    HW214141   5.368   0.410   2.747  0.1059 -2.6591 -0.6666
 4618SOL     OW14142   0.348   1.115   3.970 -0.1206 -0.1050 -1.2433
 4618SOL    HW114143   0.298   1.128   4.055  2.3905 -0.4002  0.3750
 4618SOL    HW214144   0.317   1.181   3.902 -1.8762  0.4225  0.0147
 4619SOL     OW14145   4.841   0.211   3.059  0.0894 -0.3351  0.0963
 4619SOL    HW114146   4.769   0.279   3.047  0.8584  0.5304  0.3001
 4619SOL    HW214147   4.802   0.128   3.099 -0.9037 -0.1164 -0.3880
 4620SOL     OW14148   4.341   5.199   1.081  0.0777 -0.3167  0.6398
 4620SOL    HW114149   4.283   5.281   1.086 -1.1096 -1.1923  1.9242
 4620SOL    HW214150   4.341   5.164   0.987 -2.2190 -0.7786  0.7559
 4621SOL     OW14151   4.946   0.731   2.040 -0.5538  0.0744 -0.0560
 4621SOL    HW114152   4.964   0.712   1.944  1.1030 -1.2933  0.4776
 4621SOL    HW214153   4.996   0.814   2.068  0.8331 -0.7951  0.1405
 4622SOL     OW14154   4.431   1.416   0.588  0.8285  0.3429  0.3200
 4622SOL    HW114155   4.524   1.436   0.558  0.0384  1.3451 -1.6544
 4622SOL    HW214156   4.407   1.322   0.564  1.0823  0.3105  0.1889
 4623SOL     OW14157   4.417   4.790   2.332  0.2525  0.3711 -0.5023
 4623SOL    HW114158   4.377   4.873   2.370 -0.0413 -0.0787  0.2005
 4623SOL    HW214159   4.482   4.752   2.398  1.5754  0.8830 -1.4674
 4624SOL     OW14160   3.668   1.239   3.486 -0.8099  0.1473  0.0180
 4624SOL    HW114161   3.582   1.191   3.473 -0.6987  0.4062 -1.9547
 4624SOL    HW214162   3.655   1.315   3.550 -1.7728 -0.4538  0.5503
 4625SOL     OW14163   5.528   1.054   1.878  0.0061 -0.2555 -0.0814
 4625SOL    HW114164   5.609   0.996   1.890 -0.9152 -1.4328  0.7083
 4625SOL    HW214165   5.552   1.135   1.825  1.8416 -0.2527  0.7005
 4626SOL     OW14166   3.765   0.079   2.193  0.1703 -0.5199 -0.6854
 4626SOL    HW114167   3.668   0.102   2.194  0.3356  0.2080 -0.8423
 4626SOL    HW214168   3.794   0.059   2.100  0.5569  1.0200 -0.9256
 4627SOL     OW14169   3.834   2.512   3.323  0.1228 -0.0329  0.5468
 4627SOL    HW114170   3.883   2.481   3.404  2.9645  1.0126 -0.6348
 4627SOL    HW214171   3.785   2.596   3.343  0.2322 -0.1532  1.3445
 4628SOL     OW14172   4.134   0.799   0.522 -0.6660 -0.2628  0.1701
 4628SOL    HW114173   4.183   0.763   0.443  0.3864 -0.2068  0.7835
 4628SOL    HW214174   4.198   0.843   0.584 -1.1096 -2.1052  2.0645
 4629SOL     OW14175   5.210   0.552   3.314  0.1467 -0.1237  0.7829
 4629SOL    HW114176   5.138   0.619   3.295  0.6413  0.6603  1.5993
 4629SOL    HW214177   5.177   0.486   3.382  0.1804  0.2313  1.1521
 4630SOL     OW14178   2.814   1.346   3.860 -0.3888 -0.3723 -0.1639
 4630SOL    HW114179   2.812   1.395   3.773 -0.4215 -1.1752 -0.6272
 4630SOL    HW214180   2.761   1.396   3.928  0.8777  1.0530 -0.1704
 4631SOL     OW14181   4.678   0.905   0.872  0.0026  0.0154  0.0513
 4631SOL    HW114182   4.750   0.960   0.828 -0.2991 -0.4404 -1.0528
 4631SOL    HW214183   4.630   0.961   0.939  0.7116  0.6320  0.0656
 4632SOL     OW14184   5.798   0.371   2.855 -0.3062  0.4003 -0.4107
 4632SOL    HW114185   5.728   0.304   2.829  0.7752 -0.5907 -0.8455
 4632SOL    HW214186   5.776   0.409   2.945 -1.7098  0.5520 -0.7973
 4633SOL     OW14187   4.976   1.410   2.542 -0.3716  0.1316  0.2096
 4633SOL    HW114188   4.988   1.405   2.443  2.4340  0.7318  0.4131
 4633SOL    HW214189   5.014   1.327   2.585  0.9219  1.0261  0.8752
 4634SOL     OW14190   0.295   1.538   3.598 -1.0590  0.1650 -0.0705
 4634SOL    HW114191   0.380   1.557   3.647 -1.8450  1.1836  0.9447
 4634SOL    HW214192   0.316   1.494   3.511  0.4808  0.0739  0.3241
 4635SOL     OW14193   4.452   5.071   1.621  0.5539 -0.0029  0.2449
 4635SOL    HW114194   4.362   5.034   1.598  0.3494  0.9490 -0.5548
 4635SOL    HW214195   4.512   5.062   1.541  0.5148  1.2966  0.0420
 4636SOL     OW14196   4.569   0.454   1.942  0.0787 -0.1898 -0.5362
 4636SOL    HW114197   4.555   0.411   1.854 -0.4965  0.3221 -0.7013
 4636SOL    HW214198   4.587   0.552   1.929 -2.8153  0.5097  0.0158
 4637SOL     OW14199   4.664   5.910   3.943  0.0166 -0.1576  0.0822
 4637SOL    HW114200   4.737   5.879   3.882  1.7613 -0.1683  2.0276
 4637SOL    HW214201   4.702   5.975   4.009 -2.0951  0.9498  0.2843
 4638SOL     OW14202   0.382   0.872   1.445  0.3204  0.3274  0.4325
 4638SOL    HW114203   0.373   0.918   1.533 -0.6489  0.8253  0.0802
 4638SOL    HW214204   0.479   0.864   1.421  0.7064 -1.1331  2.2191
 4639SOL     OW14205   3.649   1.586   2.903  0.0919  0.4316 -0.3504
 4639SOL    HW114206   3.572   1.571   2.966 -1.4242 -1.7898 -2.5422
 4639SOL    HW214207   3.732   1.544   2.942 -0.4861  0.2718  0.7469
 4640SOL     OW14208   0.597   2.119   3.175  0.2715 -0.0900  0.0152
 4640SOL    HW114209   0.667   2.126   3.105 -1.1004  0.1918 -1.3763
 4640SOL    HW214210   0.587   2.023   3.203  0.0542 -0.3824 -1.0146
 4641SOL     OW14211   4.484   0.129   2.396  0.1497  0.1542 -0.1295
 4641SOL    HW114212   4.456   0.033   2.393  0.8194 -0.0378 -0.3642
 4641SOL    HW214213   4.432   0.181   2.329  1.1282 -0.4109 -1.3569
 4642SOL     OW14214   0.317   3.791   5.343 -0.1551  0.1884 -0.0928
 4642SOL    HW114215   0.307   3.693   5.331 -1.3264  0.0985  1.4351
 4642SOL    HW214216   0.239   3.838   5.301  0.1681  0.4584 -0.4078
 4643SOL     OW14217   0.722   1.839   2.742 -0.2685 -0.4369  0.8980
 4643SOL    HW114218   0.664   1.911   2.703  0.3289 -0.4169  0.0276
 4643SOL    HW214219   0.667   1.757   2.756 -0.5175 -0.4096  0.1058
 4644SOL     OW14220   0.282   2.621   2.139 -0.1329  0.4923  0.3343
 4644SOL    HW114221   0.205   2.568   2.177 -0.5316  1.6735  1.2467
 4644SOL    HW214222   0.337   2.658   2.214 -0.3033  1.9847 -0.2494
 4645SOL     OW14223   5.056   5.472   2.611 -0.1743  0.1157 -0.1082
 4645SOL    HW114224   5.045   5.546   2.544  0.8008  1.0214  0.6894
 4645SOL    HW214225   4.967   5.450   2.650 -0.4176  1.3680  0.1180
 4646SOL     OW14226   4.893   5.829   2.625  0.2198  0.2461 -0.0574
 4646SOL    HW114227   4.875   5.917   2.670 -0.3368 -0.6006  1.4565
 4646SOL    HW214228   4.911   5.759   2.694 -0.7597 -1.1503 -1.1496
 4647SOL     OW14229   1.170   1.776   2.014  0.0021  0.6405 -0.0508
 4647SOL    HW114230   1.123   1.702   2.061  0.5820 -0.3326 -0.9677
 4647SOL    HW214231   1.267   1.754   2.003  0.3019  1.7770  0.1280
 4648SOL     OW14232   4.163   0.316   5.078  0.0672  0.4896 -0.1498
 4648SOL    HW114233   4.225   0.370   5.021 -0.6485 -0.7087 -2.1667
 4648SOL    HW214234   4.141   0.367   5.161  0.7401  2.5547 -1.1759
 4649SOL     OW14235   5.308   0.214   1.451 -0.0772 -0.3490 -0.3629
 4649SOL    HW114236   5.281   0.244   1.543  2.1005  2.9907 -0.6267
 4649SOL    HW214237   5.370   0.136   1.459 -1.6020 -1.5197  0.7851
 4650SOL     OW14238   3.903   1.954   1.555  1.0301 -0.0491 -0.3077
 4650SOL    HW114239   3.886   2.047   1.588 -1.5670 -0.9141  1.0057
 4650SOL    HW214240   3.853   1.940   1.469  2.7471  0.2254 -1.3977
 4651SOL     OW14241   3.480   2.619   1.420  0.2474 -0.3243 -0.3688
 4651SOL    HW114242   3.505   2.711   1.450  0.4417  0.3813 -2.4909
 4651SOL    HW214243   3.384   2.602   1.440  0.0336  0.6195 -0.5317
 4652SOL     OW14244   4.045   2.364   3.202 -0.1357  0.2482 -0.6081
 4652SOL    HW114245   3.966   2.404   3.249 -1.9335 -0.4707 -2.8278
 4652SOL    HW214246   4.030   2.266   3.190  0.1655  0.4188 -2.7321
 4653SOL     OW14247   5.808   1.249   2.588 -0.3197  0.1238 -0.0366
 4653SOL    HW114248   5.729   1.189   2.601  0.3719 -0.7352  0.3227
 4653SOL    HW214249   5.887   1.195   2.559  0.7465  0.5795  1.8221
 4654SOL     OW14250   4.740   1.751   1.586 -0.0338  0.0670  0.2452
 4654SOL    HW114251   4.706   1.841   1.615 -0.0985  0.2422 -0.3577
 4654SOL    HW214252   4.839   1.753   1.582 -0.0765  0.4782 -0.9023
 4655SOL     OW14253   4.878   5.630   1.202  0.2621  0.5817 -0.0201
 4655SOL    HW114254   4.877   5.576   1.118 -0.9060 -0.9780  0.9327
 4655SOL    HW214255   4.922   5.718   1.185 -0.6759  0.6596 -2.4575
 4656SOL     OW14256   2.055   1.362   2.255  0.3431  0.4255 -0.2668
 4656SOL    HW114257   2.113   1.280   2.255 -0.1031  0.1050  0.2713
 4656SOL    HW214258   1.960   1.336   2.268 -0.0857  0.8600 -2.2233
 4657SOL     OW14259   5.167   0.462   4.164  0.1125 -0.2387 -0.1564
 4657SOL    HW114260   5.233   0.521   4.117 -0.6071  0.3266 -0.4941
 4657SOL    HW214261   5.201   0.439   4.255  0.3875  0.7519  0.0024
 4658SOL     OW14262   5.937   0.122   2.804 -0.1910 -0.0720  0.9284
 4658SOL    HW114263   5.978   0.150   2.717 -0.0390 -2.7860  0.0072
 4658SOL    HW214264   5.890   0.199   2.846  0.1881  1.4551 -1.3033
 4659SOL     OW14265   4.522   5.556   1.756 -0.4654  0.5350 -0.3340
 4659SOL    HW114266   4.582   5.478   1.738 -0.5398  0.4541 -0.2337
 4659SOL    HW214267   4.558   5.609   1.833 -1.3492 -0.3923  0.7490
 4660SOL     OW14268   4.029   5.318   4.673 -0.2506  0.1420 -0.2613
 4660SOL    HW114269   3.980   5.240   4.634  0.9490  0.6459 -3.0078
 4660SOL    HW214270   4.127   5.301   4.667  0.0039  1.1391  0.7811
 4661SOL     OW14271   4.663   5.914   3.102  0.4020 -0.8659 -0.3371
 4661SOL    HW114272   4.586   5.950   3.050  1.1222  1.4152  0.0573
 4661SOL    HW214273   4.678   5.818   3.078 -1.1326 -0.7191 -2.0784
 4662SOL     OW14274   1.021   0.577   2.418  0.2554  0.0273  0.3835
 4662SOL    HW114275   1.084   0.514   2.372 -0.2710  0.3484 -0.7838
 4662SOL    HW214276   1.014   0.662   2.366 -1.4228 -0.1399  0.2895
 4663SOL     OW14277   4.335   1.190   2.180  0.3844 -0.5422 -0.4983
 4663SOL    HW114278   4.367   1.140   2.260 -2.3847  0.7931  1.6105
 4663SOL    HW214279   4.377   1.281   2.179 -0.5545 -0.0860  0.2297
 4664SOL     OW14280   5.370   0.031   3.221  0.4060  0.0498  0.3867
 4664SOL    HW114281   5.401   0.112   3.270  1.1508 -0.2478  0.4260
 4664SOL    HW214282   5.271   0.032   3.215  0.3859  0.7926  0.6807
 4665SOL     OW14283   3.496   1.619   3.551 -0.1847 -0.2994 -0.3830
 4665SOL    HW114284   3.448   1.609   3.464 -0.8508 -0.6349  0.0076
 4665SOL    HW214285   3.585   1.661   3.536 -1.1975  1.7850 -0.9647
 4666SOL     OW14286   4.345   1.262   3.712  0.0659  0.5107  0.0117
 4666SOL    HW114287   4.438   1.232   3.734 -0.2157  0.1825  0.7584
 4666SOL    HW214288   4.302   1.194   3.652  0.2066  0.5261 -0.1090
 4667SOL     OW14289   0.213   0.421   5.502  0.8613 -0.0718 -0.3189
 4667SOL    HW114290   0.258   0.510   5.505  0.3393  0.2451  4.0799
 4667SOL    HW214291   0.277   0.350   5.530  0.2612 -0.5123 -0.0376
 4668SOL     OW14292   2.412   1.177   3.004  0.0352 -0.0296  0.5307
 4668SOL    HW114293   2.433   1.273   3.020 -1.2354  0.3900 -0.2321
 4668SOL    HW214294   2.491   1.133   2.961 -0.1186  1.2160 -1.1537
 4669SOL     OW14295   5.186   1.301   0.056 -0.4143  0.3029  0.3324
 4669SOL    HW114296   5.281   1.316   0.082  0.5456 -1.0840 -2.0352
 4669SOL    HW214297   5.167   1.203   0.050 -2.0408  0.5483  0.8363
 4670SOL     OW14298   5.593   0.494   1.229  0.9020  0.5160 -0.1355
 4670SOL    HW114299   5.618   0.430   1.156 -1.5215  0.0262 -0.6411
 4670SOL    HW214300   5.583   0.444   1.315 -3.4070 -0.5105 -0.9887
 4671SOL     OW14301   4.579   0.914   4.971 -0.6368  0.2891  0.1193
 4671SOL    HW114302   4.611   0.853   5.044  1.3598  1.8355  0.6407
 4671SOL    HW214303   4.636   0.901   4.890  0.0306  1.6431  0.3470
 4672SOL     OW14304   5.017   3.581   3.707 -0.5053 -0.1636 -0.5068
 4672SOL    HW114305   4.921   3.591   3.735 -0.6383  1.3964 -1.3895
 4672SOL    HW214306   5.035   3.643   3.631  1.2705 -0.2958 -0.2200
 4673SOL     OW14307   2.342   1.345   3.750 -0.1648 -0.1593  0.0401
 4673SOL    HW114308   2.339   1.247   3.770 -0.7955 -0.4803 -1.5211
 4673SOL    HW214309   2.366   1.395   3.833 -1.5435 -1.4911  1.3012
 4674SOL     OW14310   5.453   5.398   3.306  0.3179  0.6950 -0.9206
 4674SOL    HW114311   5.402   5.323   3.265  1.5094 -1.1702  0.8613
 4674SOL    HW214312   5.544   5.404   3.265 -0.0951  1.8553 -1.7392
 4675SOL     OW14313   4.069   5.802   2.856  0.0327  0.1585  0.7252
 4675SOL    HW114314   4.058   5.703   2.865  2.4233 -0.2822 -0.2798
 4675SOL    HW214315   4.081   5.844   2.946 -1.6235 -0.3494  1.2009
 4676SOL     OW14316   4.847   0.298   4.882 -0.6009  0.3076  0.1945
 4676SOL    HW114317   4.913   0.273   4.810  0.2668  0.2946  0.9802
 4676SOL    HW214318   4.755   0.300   4.843 -1.0492 -5.1365  0.1051
 4677SOL     OW14319   2.242   0.883   3.313  0.8121  0.0025 -0.0843
 4677SOL    HW114320   2.220   0.786   3.328  0.0786  0.1405 -0.2310
 4677SOL    HW214321   2.273   0.924   3.400  0.3021 -0.1532  0.1741
 4678SOL     OW14322   5.552   1.339   3.220 -0.0514  0.2671 -0.5064
 4678SOL    HW114323   5.573   1.247   3.189  0.9784  0.6853 -1.1118
 4678SOL    HW214324   5.491   1.383   3.154  1.8895  1.0474 -1.8790
 4679SOL     OW14325   4.184   0.965   2.539  0.0574  0.3753  0.2834
 4679SOL    HW114326   4.274   0.994   2.503 -0.1209  0.9843  0.3133
 4679SOL    HW214327   4.120   0.957   2.463  0.0436  0.2780  0.3049
 4680SOL     OW14328   3.839   0.673   3.668 -0.0251  0.2653  0.4169
 4680SOL    HW114329   3.870   0.744   3.604 -2.1341  0.4419 -0.5127
 4680SOL    HW214330   3.868   0.583   3.635  0.1528  0.4733 -0.0017
 4681SOL     OW14331   2.503   1.795   0.050 -0.3040  0.1212  0.3103
 4681SOL    HW114332   2.472   1.817   0.143  2.5550  0.9454  1.1584
 4681SOL    HW214333   2.571   1.722   0.054  1.1531  1.3498 -0.9287
 4682SOL     OW14334   4.883   2.806   3.008  0.3169 -0.0366 -0.2542
 4682SOL    HW114335   4.807   2.865   3.032  0.3999  0.0400 -0.1794
 4682SOL    HW214336   4.924   2.838   2.923  1.8687  1.4667  0.9862
 4683SOL     OW14337   4.262   1.406   4.868  0.5621 -0.2270 -0.1771
 4683SOL    HW114338   4.289   1.491   4.821 -0.9158  2.0998  2.8167
 4683SOL    HW214339   4.319   1.392   4.948 -0.4648 -0.9805  0.4458
 4684SOL     OW14340   5.194   1.441   4.212 -0.1361 -0.9399 -0.4391
 4684SOL    HW114341   5.179   1.377   4.138 -0.8558 -0.2618 -0.8977
 4684SOL    HW214342   5.225   1.529   4.175  0.2022 -0.8170  0.1176
 4685SOL     OW14343   2.874   1.379   4.535  0.0273  0.3114 -0.0752
 4685SOL    HW114344   2.789   1.327   4.547  0.3986 -0.1334  0.7437
 4685SOL    HW214345   2.886   1.403   4.439 -0.5090 -0.5050 -0.3502
 4686SOL     OW14346   3.064   0.433   4.061 -0.5593  0.5082 -0.0279
 4686SOL    HW114347   3.101   0.381   4.138  1.6156 -0.3658 -1.5506
 4686SOL    HW214348   2.975   0.396   4.035 -0.4079 -0.4829  0.8276
 4687SOL     OW14349   5.317   0.979   2.636 -0.0179  0.5920 -0.2229
 4687SOL    HW114350   5.354   0.889   2.613  0.7297  0.8046  0.1256
 4687SOL    HW214351   5.247   0.969   2.707  1.5693  0.4689  1.3912
 4688SOL     OW14352   4.098   5.369   1.628  0.2676 -0.0522 -0.1093
 4688SOL    HW114353   4.133   5.370   1.721  1.3842  0.0062 -0.5129
 4688SOL    HW214354   4.115   5.279   1.587  0.5315  0.1783 -0.5204
 4689SOL     OW14355   3.433   1.084   4.633 -0.2047 -0.3557 -0.0103
 4689SOL    HW114356   3.334   1.074   4.624 -0.3389 -0.3336  1.3318
 4689SOL    HW214357   3.475   0.993   4.636 -0.2931 -0.3774  0.5536
 4690SOL     OW14358   4.720   1.367   0.024 -0.0346  0.7378  0.5809
 4690SOL    HW114359   4.727   1.430   0.102 -0.6076  2.0956 -0.4261
 4690SOL    HW214360   4.796   1.384  -0.039  0.2952 -0.1920  0.7190
 4691SOL     OW14361   3.251   5.814   3.064 -0.2276 -0.1688 -1.0493
 4691SOL    HW114362   3.270   5.717   3.081  0.0533 -0.1786 -1.4031
 4691SOL    HW214363   3.315   5.849   2.995  0.3945  0.5505 -0.1346
 4692SOL     OW14364   5.395   2.307   1.348 -0.8185 -0.3513  0.1203
 4692SOL    HW114365   5.311   2.290   1.399  0.3119 -3.0369  1.2758
 4692SOL    HW214366   5.418   2.227   1.293  1.7914 -0.3565  1.0696
 4693SOL     OW14367   3.380   5.949   1.414 -0.2146 -0.0298 -0.3118
 4693SOL    HW114368   3.303   5.963   1.477  2.3441 -1.4734  3.5082
 4693SOL    HW214369   3.364   5.868   1.359 -0.9472 -1.1029  1.4020
 4694SOL     OW14370   4.586   3.204   4.252 -0.4761  0.1332 -0.0495
 4694SOL    HW114371   4.523   3.279   4.232 -1.3693 -0.6161 -0.1267
 4694SOL    HW214372   4.620   3.213   4.345 -0.0069  1.0215 -0.2945
 4695SOL     OW14373   4.861   3.422   1.278  0.3929  0.3075  0.0020
 4695SOL    HW114374   4.868   3.467   1.189  0.4423  0.6765  0.1902
 4695SOL    HW214375   4.821   3.485   1.344  0.0856 -0.0622  0.1747
 4696SOL     OW14376   3.512   0.201   2.223  0.0286 -0.5548 -0.0362
 4696SOL    HW114377   3.426   0.151   2.218  0.1871 -0.9496  1.0530
 4696SOL    HW214378   3.498   0.294   2.189 -0.6393 -0.8488 -0.5858
 4697SOL     OW14379   1.770   0.709   4.416  0.2256  0.1842  0.0745
 4697SOL    HW114380   1.851   0.669   4.458  0.1212  0.6661  0.7444
 4697SOL    HW214381   1.688   0.666   4.452  0.1895 -1.2702 -1.6003
 4698SOL     OW14382   0.320   1.559   4.462  0.2436  0.3207  0.4136
 4698SOL    HW114383   0.247   1.543   4.528  0.6511 -0.7608  0.6192
 4698SOL    HW214384   0.293   1.523   4.372 -0.2184  1.5886  0.0168
 4699SOL     OW14385   5.110   1.128   3.032 -0.7094 -0.1127  0.1608
 4699SOL    HW114386   5.115   1.033   3.063  0.0515 -0.1722 -0.1378
 4699SOL    HW214387   5.024   1.142   2.982 -2.2174  0.1002  2.6180
 4700SOL     OW14388   5.009   0.667   4.724  0.1806 -0.5508  0.4256
 4700SOL    HW114389   5.103   0.689   4.699  0.5538 -0.2025  2.0240
 4700SOL    HW214390   5.002   0.660   4.824 -1.7966  0.8358  0.4369
 4701SOL     OW14391   4.733   4.952   1.936  0.1380  0.1165 -0.0074
 4701SOL    HW114392   4.708   4.882   2.003  2.0847  1.6304  2.5297
 4701SOL    HW214393   4.763   4.909   1.851  0.8469 -2.1126  1.2958
 4702SOL     OW14394   0.617   0.484   2.257 -0.2573 -0.1287 -0.4560
 4702SOL    HW114395   0.663   0.450   2.339 -0.7957 -2.0147 -0.8823
 4702SOL    HW214396   0.528   0.439   2.248 -0.4231  0.4151 -1.8168
 4703SOL     OW14397   4.789   1.359   5.403  0.1726  0.0722 -0.2900
 4703SOL    HW114398   4.828   1.270   5.426 -0.2112 -0.0865 -0.2398
 4703SOL    HW214399   4.704   1.372   5.454 -0.0784  0.2097 -0.7348
 4704SOL     OW14400   5.733   5.507   1.611 -0.2485  0.8249  0.0329
 4704SOL    HW114401   5.725   5.461   1.699  0.1647  1.0656  0.2023
 4704SOL    HW214402   5.644   5.508   1.565 -1.0067  2.5718  1.3937
 4705SOL     OW14403   1.595   1.822   3.636  0.4414 -0.0259  0.5198
 4705SOL    HW114404   1.581   1.921   3.644 -0.5671  0.0755 -1.6013
 4705SOL    HW214405   1.513   1.774   3.667 -0.6252  0.0464 -1.9624
 4706SOL     OW14406   4.576   2.202   0.238  0.4235 -0.1420 -0.2294
 4706SOL    HW114407   4.660   2.242   0.202  0.0326  1.3424  0.4555
 4706SOL    HW214408   4.579   2.201   0.338 -0.6917  0.6565 -0.1713
 4707SOL     OW14409   5.710   3.312   2.712 -0.5356  0.5489  0.6589
 4707SOL    HW114410   5.738   3.384   2.648  1.2027 -0.6854 -0.0601
 4707SOL    HW214411   5.648   3.249   2.666 -0.3316  0.3844  0.6110
 4708SOL     OW14412   4.679   0.473   1.180 -0.3346  0.2945  0.2738
 4708SOL    HW114413   4.619   0.550   1.204 -0.4344  0.2770  0.0796
 4708SOL    HW214414   4.648   0.391   1.229  0.4230  0.6133  1.3398
 4709SOL     OW14415   2.254   5.767   1.785 -0.1768 -0.2166 -0.3801
 4709SOL    HW114416   2.183   5.837   1.784  0.2549  0.2986  1.2832
 4709SOL    HW214417   2.276   5.740   1.691 -2.3102 -0.1586 -0.9522
 4710SOL     OW14418   5.301   1.722   1.118  0.1028  0.4056  0.1847
 4710SOL    HW114419   5.255   1.694   1.202  0.0208  0.4664  0.1597
 4710SOL    HW214420   5.251   1.687   1.039 -0.1098  0.7907  0.1492
 4711SOL     OW14421   3.554   0.713   2.148  0.5030 -0.0891 -0.3121
 4711SOL    HW114422   3.524   0.738   2.241 -1.1542  0.8860 -1.0540
 4711SOL    HW214423   3.549   0.793   2.089  0.8248 -0.8670 -1.4247
 4712SOL     OW14424   4.298   2.097   0.595 -0.7289  0.1795 -0.3326
 4712SOL    HW114425   4.286   1.998   0.588  1.3149 -0.3398  2.0674
 4712SOL    HW214426   4.216   2.137   0.636 -1.9475 -0.3338 -2.1682
 4713SOL     OW14427   4.496   1.420   2.053  0.8750 -0.3926 -0.4197
 4713SOL    HW114428   4.475   1.505   2.101 -1.1339 -0.6605 -0.7055
 4713SOL    HW214429   4.498   1.436   1.955  1.0256 -0.5731 -0.4471
 4714SOL     OW14430   5.585   2.895   3.025  0.3723  0.0329 -0.4073
 4714SOL    HW114431   5.553   2.941   3.107  0.6284 -0.9083  0.2355
 4714SOL    HW214432   5.664   2.943   2.988 -0.0167  0.7152 -0.3705
 4715SOL     OW14433   1.910   1.722   2.253 -0.4512  0.6042 -0.6126
 4715SOL    HW114434   1.912   1.738   2.155 -0.4509 -0.4338 -0.7826
 4715SOL    HW214435   1.983   1.775   2.297 -0.4624  1.0794 -1.1552
 4716SOL     OW14436   4.201   5.914   2.136  0.1985  0.2093  0.0121
 4716SOL    HW114437   4.243   5.873   2.217 -0.9808 -0.4802  0.3035
 4716SOL    HW214438   4.176   6.009   2.156 -1.8487 -0.4979  1.1884
 4717SOL     OW14439   4.901   0.026   1.453 -0.1162  0.4759  0.1656
 4717SOL    HW114440   4.835  -0.049   1.458 -0.3980  0.7040 -0.0798
 4717SOL    HW214441   4.928   0.041   1.358 -0.5558  1.1059  0.1302
 4718SOL     OW14442   4.091   1.123   2.746  0.4455 -0.0486 -0.0701
 4718SOL    HW114443   4.139   1.057   2.688 -0.1815 -1.7965  1.3222
 4718SOL    HW214444   3.997   1.134   2.713  0.4861 -0.0139 -0.1748
 4719SOL     OW14445   3.850   1.411   3.017 -0.4345  0.2028  0.0616
 4719SOL    HW114446   3.816   1.334   2.964 -0.4822 -1.0318  1.8144
 4719SOL    HW214447   3.803   1.415   3.105  0.1497  1.7603  0.3461
 4720SOL     OW14448   3.262   1.832   2.972  0.4061  0.3836  0.3698
 4720SOL    HW114449   3.209   1.845   3.055  1.6720 -1.8482  1.6300
 4720SOL    HW214450   3.329   1.906   2.964  1.4065 -0.2240  2.3298
 4721SOL     OW14451   3.487   1.302   4.479  0.0117  0.4586 -0.4308
 4721SOL    HW114452   3.470   1.227   4.543  3.0855  1.2665  1.5767
 4721SOL    HW214453   3.516   1.265   4.391 -1.6079 -0.6714 -0.5292
 4722SOL     OW14454   0.299   5.839   4.292  0.7092 -0.4070 -0.1558
 4722SOL    HW114455   0.349   5.912   4.337  2.1035 -1.8674  0.7637
 4722SOL    HW214456   0.225   5.808   4.353  0.2491  0.0709 -0.4596
 4723SOL     OW14457   3.254   4.435   5.706  0.3998  0.8013 -0.1691
 4723SOL    HW114458   3.304   4.502   5.651  0.5376  0.1775 -0.8181
 4723SOL    HW214459   3.319   4.381   5.761  0.3425  0.7821 -0.1195
 4724SOL     OW14460   3.626   1.189   2.162 -0.1354 -0.4552  0.3890
 4724SOL    HW114461   3.685   1.267   2.140  0.8215 -1.1857  0.2894
 4724SOL    HW214462   3.538   1.222   2.197 -0.5135  0.6927 -1.5184
 4725SOL     OW14463   3.549   0.274   1.754  0.3852 -0.7881 -0.4627
 4725SOL    HW114464   3.631   0.298   1.702 -0.6984  0.8530 -1.5324
 4725SOL    HW214465   3.536   0.339   1.829 -0.9090  0.1895 -1.4698
 4726SOL     OW14466   5.768   4.763   2.721 -0.3589 -0.2502 -0.5995
 4726SOL    HW114467   5.707   4.733   2.795 -1.6470  1.1193 -1.0495
 4726SOL    HW214468   5.853   4.798   2.761 -0.3403 -1.0845  0.1219
 4727SOL     OW14469   0.119   4.404   4.072  0.3101 -0.2331  0.4008
 4727SOL    HW114470   0.096   4.416   4.168  1.2956 -0.0845  0.6283
 4727SOL    HW214471   0.163   4.316   4.058  0.3027 -0.1947  0.1148
 4728SOL     OW14472   5.303   1.200   2.491 -0.1121  0.0631  0.3352
 4728SOL    HW114473   5.307   1.109   2.534  2.3432 -0.5019 -0.8981
 4728SOL    HW214474   5.329   1.269   2.558 -1.7782 -0.1350  1.2250
 4729SOL     OW14475   4.594   0.380   2.693 -0.4295 -0.5138  0.2850
 4729SOL    HW114476   4.639   0.461   2.732 -0.1730 -0.1022 -0.8382
 4729SOL    HW214477   4.659   0.331   2.634 -0.4528 -1.7875  1.2793
 4730SOL     OW14478   0.474   1.978   4.069  0.0543 -0.1530  0.0640
 4730SOL    HW114479   0.532   2.060   4.064  0.0571  0.1326  2.9755
 4730SOL    HW214480   0.513   1.906   4.011  1.4685  1.0727 -0.5886
 4731SOL     OW14481   3.780   1.216   2.834 -0.2041  0.2962 -0.0902
 4731SOL    HW114482   3.791   1.132   2.889 -2.4066  0.8867  1.3826
 4731SOL    HW214483   3.708   1.202   2.766  0.5257  0.5050 -0.9140
 4732SOL     OW14484   5.847   1.461   1.131 -0.1811 -0.3405 -0.4143
 4732SOL    HW114485   5.926   1.408   1.102  0.5983  0.4172  0.2839
 4732SOL    HW214486   5.867   1.559   1.122 -0.5450 -0.1143  0.9810
 4733SOL     OW14487   4.719   5.314   2.202  0.1534 -0.2096 -0.2609
 4733SOL    HW114488   4.677   5.328   2.292 -1.6709  0.6696 -1.2034
 4733SOL    HW214489   4.772   5.395   2.177 -1.5232  0.6859 -1.0718
 4734SOL     OW14490   5.149   0.081   2.255  0.2853  0.6839 -0.2810
 4734SOL    HW114491   5.088   0.024   2.200  2.1954 -0.9453 -0.8419
 4734SOL    HW214492   5.239   0.037   2.262  0.3843  1.1093  3.5733
 4735SOL     OW14493   5.823   0.355   5.283  0.1974 -0.2236 -0.2301
 4735SOL    HW114494   5.743   0.307   5.321  1.5866  0.1379  3.5761
 4735SOL    HW214495   5.865   0.298   5.213 -0.2669 -3.0098  1.5935
 4736SOL     OW14496   0.360   0.823   2.337 -0.0630 -0.6573 -0.4023
 4736SOL    HW114497   0.293   0.881   2.289  1.2904  1.5117  0.2142
 4736SOL    HW214498   0.317   0.783   2.417 -0.8295  0.1795 -0.3705
 4737SOL     OW14499   4.463   1.650   2.201 -0.0417  0.1726  0.0213
 4737SOL    HW114500   4.397   1.663   2.276  0.2723  1.7124  0.0564
 4737SOL    HW214501   4.475   1.736   2.152  0.1099 -0.6990 -1.5359
 4738SOL     OW14502   5.900   0.804   2.855  0.5333  0.1603  0.4242
 4738SOL    HW114503   5.806   0.775   2.872  0.2826 -0.9611 -2.3371
 4738SOL    HW214504   5.931   0.767   2.768  3.3584  1.0227  0.9506
 4739SOL     OW14505   3.881   2.045   0.962  0.3823  0.5695  1.1211
 4739SOL    HW114506   3.954   2.017   0.899 -1.4677  1.3686 -1.5914
 4739SOL    HW214507   3.852   2.138   0.940 -1.3569  0.3170  2.1764
 4740SOL     OW14508   3.505   4.292   1.617  0.0230 -0.9075  0.1095
 4740SOL    HW114509   3.503   4.368   1.553  1.7065  0.0267  1.0826
 4740SOL    HW214510   3.497   4.206   1.567 -0.0212 -0.1659 -1.2081
 4741SOL     OW14511   5.087   2.062   2.295 -0.2097  0.1644 -0.4602
 4741SOL    HW114512   5.173   2.113   2.289  0.0209 -0.0938  0.5441
 4741SOL    HW214513   5.028   2.088   2.218  0.4946  0.8313 -0.7923
 4742SOL     OW14514   4.327   0.611   4.049 -0.2959 -1.0437  0.4585
 4742SOL    HW114515   4.392   0.639   3.978  1.0447  1.5643  2.5320
 4742SOL    HW214516   4.238   0.653   4.031  0.3834  0.6801  0.9130
 4743SOL     OW14517   3.173   0.686   2.891  0.6349 -0.0462 -0.2156
 4743SOL    HW114518   3.087   0.647   2.924  1.2292 -1.8749 -0.6853
 4743SOL    HW214519   3.240   0.684   2.965  0.0726  2.1846  0.4113
 4744SOL     OW14520   4.594   1.118   5.179 -0.2792  0.7071 -0.0576
 4744SOL    HW114521   4.549   1.066   5.107  0.5364 -1.4663  0.9181
 4744SOL    HW214522   4.693   1.114   5.167 -0.1848  2.1711 -0.0068
 4745SOL     OW14523   5.238   5.791   1.467 -0.1709 -0.3212 -0.4253
 4745SOL    HW114524   5.192   5.771   1.553 -1.8246  1.6132 -0.7576
 4745SOL    HW214525   5.332   5.818   1.484 -0.4006 -0.2238  0.7545
 4746SOL     OW14526   3.106   1.132   4.145  0.2319  0.3365  0.1937
 4746SOL    HW114527   3.190   1.090   4.177 -0.1207 -0.9471 -0.4837
 4746SOL    HW214528   3.034   1.120   4.213  0.6215  1.6469  0.8810
 4747SOL     OW14529   0.276   1.705   2.812 -0.5755 -0.2090  0.2055
 4747SOL    HW114530   0.311   1.630   2.868 -2.6735 -0.0220  1.8712
 4747SOL    HW214531   0.294   1.792   2.857  1.7188  0.3797 -1.6510
 4748SOL     OW14532   2.911   1.844   3.897  0.5985  0.5458 -0.8690
 4748SOL    HW114533   2.892   1.848   3.799  0.3249  0.0062 -0.8375
 4748SOL    HW214534   2.865   1.919   3.943  0.7151  0.7913 -1.1492
 4749SOL     OW14535   3.812   0.509   1.557  0.2755 -0.0135  0.3601
 4749SOL    HW114536   3.875   0.498   1.480  1.4543 -1.6470  1.4922
 4749SOL    HW214537   3.762   0.595   1.547  0.5451 -0.0754 -2.0890
 4750SOL     OW14538   5.280   1.024   4.089 -0.2432 -0.2416  0.6262
 4750SOL    HW114539   5.197   0.980   4.124 -1.0474  0.3469 -0.4876
 4750SOL    HW214540   5.256   1.111   4.045  0.9019 -0.3213 -0.1917
 4751SOL     OW14541   4.844   0.392   5.160  0.2246  0.3638  0.1195
 4751SOL    HW114542   4.940   0.409   5.182  0.6642  1.4678 -2.3094
 4751SOL    HW214543   4.834   0.379   5.061 -1.9979 -0.9016  0.4342
 4752SOL     OW14544   4.244   0.590   1.120 -0.1296 -0.5157 -0.1996
 4752SOL    HW114545   4.251   0.582   1.020 -1.5865  1.5272 -0.5332
 4752SOL    HW214546   4.166   0.537   1.152 -0.1206 -0.5584 -0.2478
 4753SOL     OW14547   0.298   5.041   3.179  0.4522 -0.2569 -0.5889
 4753SOL    HW114548   0.355   5.113   3.217  1.2567 -1.3023  0.2353
 4753SOL    HW214549   0.248   4.995   3.253  0.3742 -0.9135 -1.0437
 4754SOL     OW14550   0.028   5.502   2.553 -0.3397  0.0009 -0.1283
 4754SOL    HW114551  -0.022   5.517   2.639  1.6210 -0.5759  1.1915
 4754SOL    HW214552   0.018   5.582   2.494 -0.9651  0.8143  1.0412
 4755SOL     OW14553   4.578   1.301   3.966  0.3661 -0.6699 -0.1992
 4755SOL    HW114554   4.490   1.314   4.012  0.7812 -2.2515  1.1523
 4755SOL    HW214555   4.646   1.364   4.004 -0.6023  2.2740 -2.8649
 4756SOL     OW14556   4.243   0.332   4.339 -0.2362 -0.0520  0.2135
 4756SOL    HW114557   4.271   0.289   4.426 -0.7276  1.3348  1.0945
 4756SOL    HW214558   4.248   0.265   4.266 -0.8141 -1.5631  1.4926
 4757SOL     OW14559   2.389   4.991   1.438 -0.7756  0.7200 -0.6500
 4757SOL    HW114560   2.426   5.075   1.479 -1.1944  0.1186  1.0480
 4757SOL    HW214561   2.290   5.000   1.429 -1.0354 -0.1378  0.9963
 4758SOL     OW14562   3.512   2.373   2.215  0.0253 -0.3706  0.1593
 4758SOL    HW114563   3.446   2.388   2.141 -3.4568 -1.7478  2.7012
 4758SOL    HW214564   3.508   2.450   2.278  1.2881 -0.2385  0.0906
 4759SOL     OW14565   3.385   0.034   3.491  0.3046  0.0165  0.0862
 4759SOL    HW114566   3.372   0.041   3.392 -2.8616  0.3340  0.4170
 4759SOL    HW214567   3.349  -0.054   3.524  0.2134  0.4152  1.0961
 4760SOL     OW14568   3.091   1.271   0.038 -0.5370  0.2696 -0.6663
 4760SOL    HW114569   3.012   1.237   0.089 -1.5151  0.6818 -1.8483
 4760SOL    HW214570   3.129   1.197  -0.018 -1.9215  0.7353 -2.3159
 4761SOL     OW14571   2.777   1.046   5.297  0.1844 -0.0583  0.0733
 4761SOL    HW114572   2.844   1.012   5.363 -0.0929  0.6177  0.7099
 4761SOL    HW214573   2.807   1.021   5.204  1.3829  0.3087  0.3325
 4762SOL     OW14574   1.536   0.974   3.653  0.4167 -0.3243  0.6351
 4762SOL    HW114575   1.588   0.913   3.593  0.5367 -0.1437  0.5535
 4762SOL    HW214576   1.566   0.961   3.747 -0.1600 -1.0068  0.7353
 4763SOL     OW14577   1.694   1.880   5.061  0.1358  0.2522  0.2594
 4763SOL    HW114578   1.725   1.796   5.016 -2.2174 -1.2618  1.2533
 4763SOL    HW214579   1.742   1.891   5.148 -1.9971 -2.1397  1.8657
 4764SOL     OW14580   0.115   2.580   3.957 -0.3868 -0.1276 -0.0585
 4764SOL    HW114581   0.172   2.514   3.907 -2.0274 -0.9244 -0.9580
 4764SOL    HW214582   0.151   2.590   4.050  2.0492  0.5123 -0.9985
 4765SOL     OW14583   1.949   0.358   3.593  0.0697  0.1080  0.2948
 4765SOL    HW114584   2.038   0.358   3.548 -0.0156  0.5941  0.1189
 4765SOL    HW214585   1.933   0.269   3.635  0.5674 -0.0361  0.1884
 4766SOL     OW14586   5.164   2.088   3.731 -0.2771  0.0108  1.0582
 4766SOL    HW114587   5.261   2.105   3.746 -0.1936 -0.0665  0.6241
 4766SOL    HW214588   5.153   2.000   3.684 -0.4751  0.6133 -0.0432
 4767SOL     OW14589   4.233   0.669   5.711 -0.3504  0.6348 -0.0541
 4767SOL    HW114590   4.248   0.603   5.784  1.0628  0.1177 -0.7691
 4767SOL    HW214591   4.262   0.629   5.624  0.1707  2.0567 -0.5588
 4768SOL     OW14592   3.630   5.627   4.380  0.1015  0.0038  0.6139
 4768SOL    HW114593   3.710   5.577   4.412  1.2634  0.4981 -1.3572
 4768SOL    HW214594   3.653   5.724   4.371 -0.3301 -0.0267 -1.0843
 4769SOL     OW14595   4.307   0.002   0.196 -0.1516  0.0364  0.4924
 4769SOL    HW114596   4.314   0.101   0.183 -0.9490 -0.0846 -1.1326
 4769SOL    HW214597   4.292  -0.042   0.107 -2.0812 -1.3385  1.4264
 4770SOL     OW14598   5.376   2.580   4.655 -0.2022 -0.5364  0.2212
 4770SOL    HW114599   5.311   2.547   4.724  1.5274  1.1372  2.8396
 4770SOL    HW214600   5.434   2.504   4.625 -0.1057 -1.0735  1.6849
 4771SOL     OW14601   5.222   1.850   5.436 -0.2011  0.0227 -0.2174
 4771SOL    HW114602   5.124   1.862   5.422 -0.6202  0.7498  2.7113
 4771SOL    HW214603   5.240   1.759   5.473  0.0003  0.4199  0.7052
 4772SOL     OW14604   4.042   5.668   3.921 -0.2565 -0.3729  0.6721
 4772SOL    HW114605   4.114   5.713   3.869 -0.3741 -2.4439 -1.4604
 4772SOL    HW214606   3.985   5.736   3.966 -0.0189  1.5735 -1.7793
 4773SOL     OW14607   0.631   0.165   4.361  0.4262 -0.3447  0.1143
 4773SOL    HW114608   0.539   0.148   4.397  0.6786 -0.9800  0.4625
 4773SOL    HW214609   0.676   0.235   4.417 -0.0255  0.3303 -0.3576
 4774SOL     OW14610   5.142   3.880   0.474 -0.4283  0.4315 -0.0766
 4774SOL    HW114611   5.223   3.929   0.443 -0.0216  0.3321  0.7792
 4774SOL    HW214612   5.061   3.917   0.429 -0.0018  1.1351 -0.2795
 4775SOL     OW14613   4.360   1.543   3.717 -0.7476  0.1035 -0.2514
 4775SOL    HW114614   4.289   1.599   3.673  0.2917  0.3773 -1.6570
 4775SOL    HW214615   4.339   1.446   3.702 -0.4676  0.1900 -1.2963
 4776SOL     OW14616   0.285   1.131   4.743 -0.1764 -0.0751 -0.1290
 4776SOL    HW114617   0.344   1.057   4.711 -0.8394 -1.5405  1.8347
 4776SOL    HW214618   0.192   1.116   4.710 -0.4441 -0.5139  0.7760
 4777SOL     OW14619   4.249   5.720   0.926  0.1018 -0.1522  0.7012
 4777SOL    HW114620   4.326   5.744   0.985 -0.2680 -0.8021  1.4631
 4777SOL    HW214621   4.182   5.795   0.926 -0.8924 -0.9785  2.8118
 4778SOL     OW14622   4.212   3.345   5.375 -0.1033  0.3665  0.3504
 4778SOL    HW114623   4.135   3.292   5.338  0.2089  0.2740 -0.1873
 4778SOL    HW214624   4.178   3.428   5.419 -0.5495  0.0513  0.6038
 4779SOL     OW14625   3.738   5.606   3.066  0.1531  0.2144 -0.1283
 4779SOL    HW114626   3.787   5.609   2.978 -0.6361  2.0613 -0.5528
 4779SOL    HW214627   3.730   5.698   3.102 -1.8524 -0.1975  0.5898
 4780SOL     OW14628   4.941   0.499   0.304  0.2646 -0.3283 -0.4494
 4780SOL    HW114629   4.918   0.444   0.224  1.8660  0.3610 -1.4193
 4780SOL    HW214630   5.039   0.516   0.307  0.2822 -0.4263  1.7447
 4781SOL     OW14631   1.503   1.977   4.612  0.1239 -0.1225  0.2921
 4781SOL    HW114632   1.458   1.997   4.699 -0.5944  0.5518 -0.2262
 4781SOL    HW214633   1.500   2.058   4.554  1.0535 -0.4067 -0.1743
 4782SOL     OW14634   4.776   1.464   4.084  0.3205  0.4539 -0.2299
 4782SOL    HW114635   4.744   1.411   4.162  1.9130 -0.3241 -0.0839
 4782SOL    HW214636   4.735   1.556   4.088 -0.9996 -0.1341  0.5193
 4783SOL     OW14637   4.599   1.632   3.772  0.6173  0.3257 -0.2121
 4783SOL    HW114638   4.583   1.631   3.871 -2.2807  0.4751 -0.5804
 4783SOL    HW214639   4.522   1.586   3.726  0.8313  2.1058 -2.5051
 4784SOL     OW14640  -0.035   2.174   4.317 -0.1462 -0.5017  0.1820
 4784SOL    HW114641   0.019   2.108   4.370  1.1565  1.4415  1.4036
 4784SOL    HW214642   0.019   2.257   4.303 -1.5274  0.1242 -1.7853
 4785SOL     OW14643   0.265   1.271   3.752 -0.3929 -0.1534 -0.1912
 4785SOL    HW114644   0.210   1.200   3.708  0.5648  0.8169 -3.1692
 4785SOL    HW214645   0.285   1.344   3.686 -0.7493  2.6168  2.5167
 4786SOL     OW14646   1.946   0.782   5.058  0.0834  0.0064 -0.2852
 4786SOL    HW114647   1.944   0.729   4.973 -2.1579 -0.5589  0.0649
 4786SOL    HW214648   1.943   0.879   5.036 -1.1025 -0.1444 -0.8839
 4787SOL     OW14649   5.845   5.581   4.948  0.2296  0.3280 -0.2621
 4787SOL    HW114650   5.906   5.657   4.925  0.7026  0.1142  0.2869
 4787SOL    HW214651   5.793   5.604   5.031 -0.3146  0.4356 -0.6257
 4788SOL     OW14652   5.474   1.303   3.553 -0.0169  0.0592  0.5311
 4788SOL    HW114653   5.430   1.229   3.502  1.2888 -0.7474  0.5297
 4788SOL    HW214654   5.479   1.385   3.497 -1.6007  0.2226  0.5767
 4789SOL     OW14655   3.641   0.439   3.215 -0.1689  0.2024  0.1121
 4789SOL    HW114656   3.543   0.422   3.228 -0.0570  0.5889  1.6822
 4789SOL    HW214657   3.677   0.377   3.145 -1.3214 -0.6213  0.2258
 4790SOL     OW14658   3.622   1.008   5.316 -0.4400  0.0800  0.2560
 4790SOL    HW114659   3.655   0.923   5.276  0.5303 -0.9352  2.9536
 4790SOL    HW214660   3.622   1.080   5.247  2.6040 -1.1073 -1.1856
 4791SOL     OW14661   1.557   1.322   5.290 -0.8317 -0.2164  0.1996
 4791SOL    HW114662   1.601   1.407   5.318 -1.0707 -0.3845  1.1415
 4791SOL    HW214663   1.458   1.333   5.292 -0.8533 -0.3261 -0.2927
 4792SOL     OW14664   2.364   2.175   5.195 -0.2469  0.0054  0.4971
 4792SOL    HW114665   2.461   2.201   5.190 -0.9974  3.0186 -0.4512
 4792SOL    HW214666   2.350   2.116   5.275  2.1964  0.2193  1.1876
 4793SOL     OW14667   3.064  -0.005   5.770 -0.2816 -0.0583 -0.1545
 4793SOL    HW114668   3.033   0.033   5.857  1.7941 -0.1323  0.6812
 4793SOL    HW214669   3.161   0.017   5.757 -0.6406  0.3366 -2.6814
 4794SOL     OW14670   0.610   3.765   3.081  0.1326  0.1798 -0.1311
 4794SOL    HW114671   0.558   3.804   3.157  1.7918  0.4074  0.9351
 4794SOL    HW214672   0.671   3.835   3.044  1.7663 -0.8454  0.5463
 4795SOL     OW14673   0.961   1.375   3.077 -0.1420 -0.3451  0.1654
 4795SOL    HW114674   1.052   1.346   3.108  0.0975 -0.6037 -0.7721
 4795SOL    HW214675   0.944   1.341   2.985 -1.1813 -0.2595  0.3159
 4796SOL     OW14676   2.479   0.734   3.095 -0.0926  0.0690  0.1804
 4796SOL    HW114677   2.518   0.673   3.163  3.7238 -0.1816 -1.9811
 4796SOL    HW214678   2.420   0.802   3.141 -0.5579 -2.1557  3.1777
 4797SOL     OW14679   5.631   2.353   5.116 -0.3087 -0.2848 -0.2319
 4797SOL    HW114680   5.571   2.396   5.048 -0.0543  0.6063  0.0878
 4797SOL    HW214681   5.689   2.285   5.071  0.7087  1.1308 -1.1818
 4798SOL     OW14682   4.332   1.340   4.569  0.0081 -0.5625 -0.0233
 4798SOL    HW114683   4.311   1.438   4.571  0.9401 -0.3658  0.5691
 4798SOL    HW214684   4.288   1.299   4.489  0.8786  0.6334 -1.1531
 4799SOL     OW14685   4.143   2.048   4.695  0.3721 -0.4791 -0.3831
 4799SOL    HW114686   4.237   2.014   4.702  0.7541  0.5322 -0.3546
 4799SOL    HW214687   4.141   2.144   4.723 -0.2825  0.1244 -2.3531
 4800SOL     OW14688   5.019   0.059   5.300 -0.5904  0.1756 -0.2055
 4800SOL    HW114689   4.943   0.062   5.236 -0.8330  0.8595  0.1046
 4800SOL    HW214690   5.003   0.124   5.374  0.3467  0.4139 -0.1951
 4801SOL     OW14691   5.307   1.601   5.525 -0.0142  0.3663  0.2556
 4801SOL    HW114692   5.395   1.593   5.571 -0.8391 -2.1036  1.5804
 4801SOL    HW214693   5.313   1.558   5.435  0.1876  0.3314  0.2837
 4802SOL     OW14694   4.454   0.208   5.061 -0.1350  0.2810 -0.1527
 4802SOL    HW114695   4.497   0.243   5.144 -0.1809 -0.1603  0.0594
 4802SOL    HW214696   4.355   0.221   5.067 -0.2583 -0.8639  0.4017
 4803SOL     OW14697   5.613   0.274   3.743 -0.2353 -0.3777 -0.1206
 4803SOL    HW114698   5.595   0.341   3.671  1.1227 -0.5838 -0.6870
 4803SOL    HW214699   5.711   0.266   3.757 -0.4726  0.2036  2.3074
 4804SOL     OW14700   3.693   1.856   0.620 -0.0265  0.1169  0.4313
 4804SOL    HW114701   3.678   1.853   0.719  0.6113 -2.0576  0.5291
 4804SOL    HW214702   3.774   1.802   0.597  0.1266  0.9972 -1.2460
 4805SOL     OW14703   3.098   2.509   5.796 -0.2474 -0.2977  0.0831
 4805SOL    HW114704   3.173   2.446   5.781 -0.8427 -0.8642 -0.5822
 4805SOL    HW214705   3.067   2.503   5.891  0.7680  0.2110  0.4659
 4806SOL     OW14706   4.212   0.185   3.868  0.2497  0.4534 -0.4862
 4806SOL    HW114707   4.116   0.208   3.881  0.3366 -0.1507  1.7164
 4806SOL    HW214708   4.263   0.267   3.841 -0.5311  1.3386  0.6105
 4807SOL     OW14709   0.577   3.725   5.880  0.0049  0.1283  0.4111
 4807SOL    HW114710   0.637   3.718   5.959  0.3209  1.1348  0.2718
 4807SOL    HW214711   0.482   3.733   5.910  0.0471 -0.2780  0.6591
 4808SOL     OW14712   5.468   1.638   2.442 -0.2346  0.6944  0.5068
 4808SOL    HW114713   5.400   1.572   2.407  0.7833 -0.1385  0.0334
 4808SOL    HW214714   5.458   1.646   2.541  0.1602 -0.8312  0.6943
 4809SOL     OW14715   4.922   0.945   3.735  0.2502  0.1093 -0.1026
 4809SOL    HW114716   4.954   0.862   3.689 -1.7100 -0.7022 -0.0940
 4809SOL    HW214717   4.899   0.923   3.830  0.1320  0.7626  0.0199
 4810SOL     OW14718   5.623   1.106   3.675  0.3196 -0.0177 -0.4509
 4810SOL    HW114719   5.568   1.179   3.634 -0.3725 -1.4955 -2.2837
 4810SOL    HW214720   5.564   1.029   3.700  1.3198 -1.0008 -1.0075
 4811SOL     OW14721   3.813   1.946   4.957  0.4393 -0.0308  0.1873
 4811SOL    HW114722   3.775   2.015   4.895 -0.8409 -0.7958  0.1035
 4811SOL    HW214723   3.780   1.962   5.050  0.4198 -0.3271  0.2303
 4812SOL     OW14724   0.557   0.912   3.766  0.2062  0.1654 -0.2983
 4812SOL    HW114725   0.536   0.849   3.692 -0.8467  1.6398 -1.3094
 4812SOL    HW214726   0.473   0.957   3.797  0.8290  0.6077  0.8201
 4813SOL     OW14727   5.326   2.045   5.594  0.4645 -0.1266 -0.3525
 4813SOL    HW114728   5.299   2.035   5.690  2.2660 -1.0155  0.0909
 4813SOL    HW214729   5.282   1.974   5.540  0.8272 -0.7147  0.1180
 4814SOL     OW14730   3.909   5.323   5.428  0.0827 -0.0699  0.4129
 4814SOL    HW114731   3.974   5.269   5.482 -0.9473  0.7652  2.6332
 4814SOL    HW214732   3.824   5.270   5.417  0.5927 -0.5998 -1.2602
 4815SOL     OW14733   0.346   1.343   4.885  0.4768 -0.7366 -0.7068
 4815SOL    HW114734   0.322   1.262   4.831  1.5941 -0.3143 -1.9005
 4815SOL    HW214735   0.373   1.316   4.977 -3.0269 -1.3629  0.2867
 4816SOL     OW14736   4.917   2.261   5.275  0.3298 -0.4899  0.3220
 4816SOL    HW114737   5.007   2.234   5.310  1.5947  1.2787 -1.3924
 4816SOL    HW214738   4.903   2.220   5.185 -0.9943 -1.4329  0.9246
 4817SOL     OW14739   4.360   4.120   4.821 -0.6180 -0.8995  0.3522
 4817SOL    HW114740   4.428   4.193   4.823 -2.1858  0.6229  0.6709
 4817SOL    HW214741   4.406   4.032   4.832  1.3529 -0.0061 -0.2031
 4818SOL     OW14742   3.033   0.429   4.569 -0.5600 -0.0153  0.7066
 4818SOL    HW114743   3.113   0.475   4.609 -1.1636  0.9632  0.8229
 4818SOL    HW214744   2.956   0.493   4.566 -1.0238 -0.6089 -0.4423
 4819SOL     OW14745   1.828   2.145   4.694  0.6390  0.5832  0.7521
 4819SOL    HW114746   1.844   2.198   4.778  0.2771 -0.8847  1.7812
 4819SOL    HW214747   1.788   2.057   4.718  1.5048 -0.2907 -0.8982
 4820SOL     OW14748   5.398   3.173   3.009 -0.1834 -0.5528 -0.2399
 4820SOL    HW114749   5.305   3.163   3.042 -0.0344  0.1794  0.4169
 4820SOL    HW214750   5.420   3.097   2.947 -1.2837 -0.6005 -0.5801
 4821SOL     OW14751   3.158   4.959   3.467  0.5741  0.4126  0.1845
 4821SOL    HW114752   3.214   4.877   3.479  0.8471  0.8973  3.1974
 4821SOL    HW214753   3.062   4.932   3.457  0.5738 -0.3461  1.7886
 4822SOL     OW14754   5.105   1.035   0.050 -0.1010  0.6466  0.0830
 4822SOL    HW114755   5.130   0.946   0.088 -0.5575 -0.0998 -1.2956
 4822SOL    HW214756   5.012   1.058   0.079 -0.8684 -0.4299 -1.3687
 4823SOL     OW14757   4.935   1.745   4.460 -0.4312  0.6845  0.4489
 4823SOL    HW114758   4.974   1.654   4.475 -0.5841  0.6884  0.8639
 4823SOL    HW214759   4.856   1.758   4.519 -0.4690  1.0543  0.3199
 4824SOL     OW14760   5.388   1.368   3.836  0.4664  0.0120 -0.0481
 4824SOL    HW114761   5.422   1.348   3.744  0.7533 -0.8399  0.2285
 4824SOL    HW214762   5.452   1.331   3.904  0.3665  0.8191  0.4973
 4825SOL     OW14763   5.085   0.063   0.132  0.1643 -0.4742 -0.5708
 4825SOL    HW114764   5.106   0.037   0.038 -0.2411  1.0930 -1.1377
 4825SOL    HW214765   5.167   0.103   0.174 -0.0143  0.0465 -0.7140
 4826SOL     OW14766   4.944   0.689   5.003 -0.4479 -0.0808  0.4021
 4826SOL    HW114767   4.999   0.624   5.055 -1.6386 -1.3660  0.1288
 4826SOL    HW214768   4.849   0.684   5.033 -0.8833  0.2332 -0.8539
 4827SOL     OW14769   5.588   0.286   4.810  0.0381  0.2615 -0.6452
 4827SOL    HW114770   5.581   0.275   4.711  0.4390  1.0869 -0.7749
 4827SOL    HW214771   5.597   0.196   4.853 -0.8234 -0.1517 -1.2951
 4828SOL     OW14772   4.670   1.396   4.327  0.0067 -0.2699  0.1585
 4828SOL    HW114773   4.733   1.383   4.404  2.3072  0.9121 -1.3916
 4828SOL    HW214774   4.598   1.460   4.352  0.6945  0.0669  1.3277
 4829SOL     OW14775   3.493   5.803   5.721  0.2123  0.7973  0.0002
 4829SOL    HW114776   3.543   5.748   5.655  1.2860  0.9949  0.6188
 4829SOL    HW214777   3.555   5.830   5.795 -0.7558  1.2724  0.6561
 4830SOL     OW14778   5.190   0.323   5.655 -0.0623 -0.8556 -0.8085
 4830SOL    HW114779   5.201   0.328   5.755  0.6172  2.5144 -0.9135
 4830SOL    HW214780   5.269   0.277   5.615  0.1290 -1.3873  0.1570
 4831SOL     OW14781   5.215   1.876   3.231  0.2488 -0.2002 -0.7369
 4831SOL    HW114782   5.127   1.832   3.244  0.7485 -0.8571  0.6321
 4831SOL    HW214783   5.202   1.974   3.219 -0.6193 -0.1400  0.5142
 4832SOL     OW14784   5.002   1.382   5.185 -0.1393  0.0847 -0.0741
 4832SOL    HW114785   4.930   1.389   5.253  1.0553  1.6116  1.0954
 4832SOL    HW214786   4.993   1.456   5.118  0.7237  0.7316  0.4978
 4833SOL     OW14787   5.588   1.387   4.215  0.1334  0.4444  0.0827
 4833SOL    HW114788   5.574   1.343   4.126 -2.5785  0.1049  0.5820
 4833SOL    HW214789   5.551   1.480   4.212 -0.0654  0.3981  0.8669
 4834SOL     OW14790   2.188   0.393   5.324  0.0129 -0.4597  0.1524
 4834SOL    HW114791   2.265   0.399   5.261  0.5573  0.7697  0.8983
 4834SOL    HW214792   2.219   0.413   5.417 -1.4872  1.9117  0.2404
 4835SOL     OW14793   3.858   2.554   4.586  0.2039  0.4598  0.3536
 4835SOL    HW114794   3.885   2.485   4.653  0.4464  1.6449  1.5323
 4835SOL    HW214795   3.826   2.510   4.503  1.7140 -1.0395  0.5231
 4836SOL     OW14796   0.105   5.761   5.197  0.3225  0.1473 -0.2472
 4836SOL    HW114797   0.199   5.750   5.228  0.3590 -0.9511 -0.6950
 4836SOL    HW214798   0.045   5.698   5.247 -0.5853  2.3385  1.6084
 4837SOL     OW14799   0.264   1.952   4.842 -0.3691  0.4044  0.4524
 4837SOL    HW114800   0.361   1.972   4.824  0.0332 -0.3133  1.6935
 4837SOL    HW214801   0.255   1.860   4.880 -1.7443 -0.2002 -1.1968
 4838SOL     OW14802   3.293   5.704   3.512  0.0648 -0.0727 -0.1471
 4838SOL    HW114803   3.202   5.668   3.491  0.1670 -0.9189  0.7926
 4838SOL    HW214804   3.302   5.715   3.611  1.1680 -0.4926 -0.1903
 4839SOL     OW14805   5.122   0.375   4.446 -0.0552 -0.3955  0.3930
 4839SOL    HW114806   5.034   0.421   4.454 -0.5237 -0.9829 -1.1519
 4839SOL    HW214807   5.110   0.278   4.465  0.3249 -0.4303  0.4587
 4840SOL     OW14808   4.923   5.667   2.850  0.4416 -0.2825 -0.1707
 4840SOL    HW114809   4.931   5.681   2.949 -0.3432  1.3973 -0.3204
 4840SOL    HW214810   4.854   5.597   2.832 -0.0076 -0.0021  0.4413
 4841SOL     OW14811   3.900   5.161   0.158  0.2961  0.5595  0.2663
 4841SOL    HW114812   3.923   5.159   0.255 -1.3662 -0.3941  0.6759
 4841SOL    HW214813   3.823   5.223   0.143  0.5520  0.7113 -0.4630
 4842SOL     OW14814   4.640   0.213   4.602  0.3567  0.2391  0.7750
 4842SOL    HW114815   4.663   0.121   4.632 -0.8265 -0.2686  0.1918
 4842SOL    HW214816   4.623   0.271   4.682  1.3004  0.0174  1.1476
 4843SOL     OW14817   4.948   0.992   5.735  0.1505  0.7504  0.0732
 4843SOL    HW114818   5.001   1.011   5.818  0.7183 -2.3319  0.5504
 4843SOL    HW214819   4.852   0.977   5.760  0.1666  0.6314  0.0663
 4844SOL     OW14820   4.555   2.211   4.929 -0.1068 -0.1527 -0.8724
 4844SOL    HW114821   4.478   2.241   4.986  0.1780  1.2119 -1.1659
 4844SOL    HW214822   4.623   2.284   4.924  0.5473 -0.8004 -1.7806
 4845SOL     OW14823   5.789   1.241   4.342 -0.5729  0.1419  0.6734
 4845SOL    HW114824   5.774   1.143   4.335  1.8018 -0.2436 -0.0727
 4845SOL    HW214825   5.711   1.290   4.303 -2.0252 -1.3999  1.5195
 4846SOL     OW14826   0.639   1.281   3.483  0.4084 -0.1980 -0.6915
 4846SOL    HW114827   0.686   1.285   3.395 -1.2888  2.3585 -1.6120
 4846SOL    HW214828   0.556   1.226   3.474  0.6011 -0.5221 -0.4901
 4847SOL     OW14829   5.869   1.492   4.148 -0.1181 -0.3371 -0.5866
 4847SOL    HW114830   5.772   1.506   4.128 -0.6074 -1.4205  0.8859
 4847SOL    HW214831   5.923   1.562   4.101 -1.6628  0.7112 -0.8747
 4848SOL     OW14832   3.630   2.828   0.161 -0.5856 -0.2643 -0.0993
 4848SOL    HW114833   3.670   2.740   0.138 -0.1617 -0.6345  1.8430
 4848SOL    HW214834   3.653   2.895   0.091  1.3568 -1.0620 -0.2791
 4849SOL     OW14835   0.864   1.341   5.272  0.4792 -0.2118  0.2195
 4849SOL    HW114836   0.847   1.416   5.208 -0.2834 -0.2834  0.3277
 4849SOL    HW214837   0.864   1.254   5.223 -1.4192 -0.3956  0.4754
 4850SOL     OW14838   2.897   5.321   3.054 -0.2105 -0.0782  0.3101
 4850SOL    HW114839   2.924   5.225   3.053 -1.3175 -0.4089  0.2366
 4850SOL    HW214840   2.926   5.365   2.969 -2.0659 -1.0686 -0.9122
 4851SOL     OW14841   4.438   0.351   4.000 -0.1982 -0.0928 -0.3817
 4851SOL    HW114842   4.381   0.428   4.026  0.5792  0.3755 -0.0171
 4851SOL    HW214843   4.459   0.296   4.081  0.8460  0.4253 -0.2723
 4852SOL     OW14844   1.286   0.678   5.927  0.3841 -0.1818 -0.1234
 4852SOL    HW114845   1.236   0.759   5.894  0.3245  0.3143  1.1430
 4852SOL    HW214846   1.376   0.706   5.960  1.4062 -1.0160 -2.0357
 4853SOL     OW14847   3.155  -0.009   4.515 -0.4880 -0.0444 -0.7902
 4853SOL    HW114848   3.237   0.020   4.465 -0.9415 -0.5468 -1.8616
 4853SOL    HW214849   3.135   0.057   4.587 -0.0151  0.9101 -1.5045
 4854SOL     OW14850   4.471   1.680   1.773  0.4009  0.5071 -0.5483
 4854SOL    HW114851   4.541   1.718   1.712  0.2592  0.8640 -0.4930
 4854SOL    HW214852   4.393   1.742   1.777  0.3316  0.4006 -0.1447
 4855SOL     OW14853   3.586   1.596   5.246  0.4177 -0.1767  0.0484
 4855SOL    HW114854   3.600   1.580   5.148 -2.3908 -2.5935 -0.1093
 4855SOL    HW214855   3.549   1.688   5.259 -0.2720 -0.2244 -1.3265
 4856SOL     OW14856   5.464   2.120   4.951 -0.2367 -0.5849 -0.0644
 4856SOL    HW114857   5.441   2.212   4.920 -1.0174 -1.5902 -2.7218
 4856SOL    HW214858   5.563   2.112   4.960 -0.1348  0.4003 -0.2016
 4857SOL     OW14859   5.854   2.751   4.208  0.1401  0.4639  0.3896
 4857SOL    HW114860   5.951   2.763   4.190 -0.0065  0.3322 -0.5178
 4857SOL    HW214861   5.841   2.678   4.276  0.6049 -0.7697 -0.8036
 4858SOL     OW14862   5.667   2.659   3.728  0.3164 -0.3283 -0.0986
 4858SOL    HW114863   5.667   2.758   3.745 -4.3540 -0.4754  1.9737
 4858SOL    HW214864   5.717   2.613   3.801  3.4472  0.3165 -1.6086
 4859SOL     OW14865   5.586   0.219   4.544  0.1857 -0.0423 -0.4332
 4859SOL    HW114866   5.590   0.300   4.484 -0.6132 -0.1770 -0.6812
 4859SOL    HW214867   5.524   0.152   4.504  0.1482 -0.4023  0.2283
 4860SOL     OW14868   3.560   0.184   4.200  0.0225 -0.1487  1.0376
 4860SOL    HW114869   3.509   0.261   4.238  1.1245  1.4180 -0.4859
 4860SOL    HW214870   3.650   0.179   4.243 -0.0641 -0.6513  1.1756
 4861SOL     OW14871   5.442   5.150   5.056  0.6620 -0.1535  0.0638
 4861SOL    HW114872   5.466   5.212   4.981  1.2071  0.0368  0.3867
 4861SOL    HW214873   5.390   5.200   5.125 -2.2843 -0.9488 -1.4145
 4862SOL     OW14874   5.284   2.649   5.890  0.1109  0.3147  0.4392
 4862SOL    HW114875   5.326   2.710   5.822 -1.2195  0.8592  0.0860
 4862SOL    HW214876   5.292   2.555   5.858  1.6764  0.3249  0.7173
 4863SOL     OW14877   2.965   1.980   4.691 -0.1225 -0.6524 -0.0393
 4863SOL    HW114878   3.025   2.033   4.631  1.7833 -0.9660  1.5017
 4863SOL    HW214879   2.960   1.886   4.657  1.5818 -1.0322  0.6667
 4864SOL     OW14880   0.466   5.698   2.901  0.1883  0.7266 -0.0083
 4864SOL    HW114881   0.459   5.603   2.872 -0.8526  0.5004  0.9474
 4864SOL    HW214882   0.468   5.703   3.001 -0.4915  1.7418 -0.0268
 4865SOL     OW14883   1.451   1.444   4.725 -0.0452  0.5997  0.4781
 4865SOL    HW114884   1.353   1.458   4.712 -0.1920 -0.3011  0.5524
 4865SOL    HW214885   1.498   1.458   4.638 -0.3811 -0.0423  0.1802
 4866SOL     OW14886   5.515   3.232   4.710  0.4032  0.5988  0.1599
 4866SOL    HW114887   5.489   3.165   4.640  1.3484  0.3397  0.0462
 4866SOL    HW214888   5.614   3.244   4.710  0.5614 -0.2770  2.2286
 4867SOL     OW14889   5.553   0.706   3.938  0.3457 -0.0018 -0.3178
 4867SOL    HW114890   5.598   0.795   3.939  1.0866 -0.3241  2.0700
 4867SOL    HW214891   5.619   0.635   3.962 -0.4189 -1.1132 -1.3923
 4868SOL     OW14892   2.022   1.130   4.788  0.4870  0.2605 -0.0568
 4868SOL    HW114893   2.094   1.068   4.820 -0.3074  0.1219  1.5719
 4868SOL    HW214894   2.013   1.206   4.851  0.0375  0.9484 -0.9288
 4869SOL     OW14895   5.648   0.798   4.614 -0.3034 -0.2247  0.1939
 4869SOL    HW114896   5.624   0.716   4.562 -2.3969 -0.8971  2.0839
 4869SOL    HW214897   5.632   0.879   4.558  0.2851 -1.0120 -1.1641
 4870SOL     OW14898   0.299   4.412   4.690 -0.4424 -0.1759 -0.2057
 4870SOL    HW114899   0.358   4.435   4.613  0.7851  0.4727  0.8654
 4870SOL    HW214900   0.289   4.493   4.749 -1.1787 -0.7024  0.4200
 4871SOL     OW14901   4.567   0.477   0.132  0.1182  0.3702 -0.4457
 4871SOL    HW114902   4.576   0.546   0.060 -2.6514 -0.0674 -1.3688
 4871SOL    HW214903   4.568   0.521   0.222  2.6560  1.0386 -0.7413
 4872SOL     OW14904   4.224   0.972   4.160  0.6846  0.1843  0.5321
 4872SOL    HW114905   4.285   1.046   4.190 -0.6512  1.0681  1.2133
 4872SOL    HW214906   4.215   0.905   4.234 -0.4998  0.9659  1.1308
 4873SOL     OW14907   3.693   0.754   4.240  0.4089  0.0778  0.1658
 4873SOL    HW114908   3.627   0.711   4.302  1.5216  0.1613  1.4619
 4873SOL    HW214909   3.759   0.808   4.293  1.4523  0.0938 -1.0872
 4874SOL     OW14910   0.838   1.167   3.654 -0.1798  0.5000 -0.7300
 4874SOL    HW114911   0.811   1.091   3.713 -0.8200  1.0057 -0.3615
 4874SOL    HW214912   0.759   1.197   3.600  0.3237  0.2335 -1.6461
 4875SOL     OW14913   3.449   5.193   2.410 -0.1581  0.1762 -0.4623
 4875SOL    HW114914   3.523   5.254   2.383 -0.2171  0.1545 -0.6742
 4875SOL    HW214915   3.457   5.107   2.360  1.1518 -0.8160  1.3469
 4876SOL     OW14916   1.247   4.010   4.325 -0.2454  0.1335  0.4799
 4876SOL    HW114917   1.203   4.019   4.236  2.4401  0.8985 -0.8647
 4876SOL    HW214918   1.250   4.099   4.370 -0.5428 -0.0298  0.8358
 4877SOL     OW14919   3.850   1.600   4.984  0.1376 -0.3297 -0.4597
 4877SOL    HW114920   3.921   1.576   5.050  0.9679 -0.1992 -1.2798
 4877SOL    HW214921   3.810   1.688   5.007  0.4940 -0.2382 -0.1990
 4878SOL     OW14922   4.725   5.399   5.095  0.2742 -0.1009 -0.1823
 4878SOL    HW114923   4.730   5.432   5.189  1.8250  0.4613 -0.4366
 4878SOL    HW214924   4.756   5.305   5.090  0.5610 -0.0071 -0.1819
 4879SOL     OW14925   3.803   1.410   0.999  0.2102  0.3350  0.0707
 4879SOL    HW114926   3.862   1.489   1.014  1.1014 -0.1398 -0.8071
 4879SOL    HW214927   3.850   1.344   0.940 -0.8312 -0.4885  0.1314
 4880SOL     OW14928   3.153   1.184   4.800  0.5914 -0.2363 -0.0708
 4880SOL    HW114929   3.161   1.201   4.702  0.1620 -0.2661 -0.1125
 4880SOL    HW214930   3.211   1.249   4.850 -0.3694  0.8061 -0.2706
 4881SOL     OW14931   5.706   0.975   4.418 -0.6638 -0.0053  0.4654
 4881SOL    HW114932   5.629   0.974   4.354 -0.3998  1.2510  0.1008
 4881SOL    HW214933   5.762   0.894   4.403 -0.1364  0.6573 -1.5134
 4882SOL     OW14934   5.285   0.645   5.913  0.0405  0.1534 -0.0036
 4882SOL    HW114935   5.330   0.728   5.878  0.6952  0.0319  0.5300
 4882SOL    HW214936   5.345   0.600   5.978 -0.8573 -0.0305  0.7138
 4883SOL     OW14937   3.265   0.557   4.634  0.7305 -0.1530 -0.1974
 4883SOL    HW114938   3.287   0.617   4.711  1.8714  0.6609 -1.1100
 4883SOL    HW214939   3.344   0.499   4.614  0.4554 -0.3412 -0.7582
 4884SOL     OW14940   4.580   1.708   1.088 -0.3945 -0.2593 -0.1738
 4884SOL    HW114941   4.612   1.719   1.182 -0.9991 -1.4278  0.1948
 4884SOL    HW214942   4.480   1.704   1.088 -0.3636 -1.4556 -0.7080
 4885SOL     OW14943   4.901   0.275   0.881  0.4591 -0.7959 -0.0961
 4885SOL    HW114944   4.975   0.308   0.822 -0.0215  0.4592 -0.0343
 4885SOL    HW214945   4.813   0.294   0.838  0.1108 -0.1110  0.8834
 4886SOL     OW14946  -0.001   0.433   3.582  0.0719 -0.0776 -0.5894
 4886SOL    HW114947   0.098   0.426   3.566  0.4543 -1.4807  1.8724
 4886SOL    HW214948  -0.030   0.357   3.641 -1.2786  3.3955  3.7892
 4887SOL     OW14949   3.717   1.992   4.406  0.3162 -0.4137  0.0821
 4887SOL    HW114950   3.709   1.970   4.503  1.4685  0.2406  0.3425
 4887SOL    HW214951   3.655   2.067   4.383  0.7507  0.0945  0.5415
 4888SOL     OW14952   1.409   1.864   3.964 -0.1207 -0.1977 -0.1999
 4888SOL    HW114953   1.427   1.813   4.048 -2.6567 -1.4331 -0.2948
 4888SOL    HW214954   1.372   1.802   3.894 -0.5931  1.2664 -1.3067
 4889SOL     OW14955   5.387   0.856   5.265 -0.2458 -0.5438 -0.8361
 4889SOL    HW114956   5.419   0.790   5.197 -1.0070 -0.7441 -1.0032
 4889SOL    HW214957   5.389   0.948   5.226  0.5312 -0.4960 -0.7022
 4890SOL     OW14958   4.118   2.325   4.796  0.1797 -0.4943 -0.1197
 4890SOL    HW114959   4.102   2.310   4.894  1.1645 -0.1905  0.0939
 4890SOL    HW214960   4.183   2.399   4.784 -0.6047  0.0654 -1.0441
 4891SOL     OW14961   4.187   0.960   3.707 -0.1738 -0.5126 -0.1364
 4891SOL    HW114962   4.202   0.913   3.621  0.6201 -0.0724 -0.2534
 4891SOL    HW214963   4.090   0.958   3.731 -0.7207  0.9962 -2.0034
 4892SOL     OW14964   4.478   1.156   5.414 -0.0716 -0.1292  0.6844
 4892SOL    HW114965   4.515   1.076   5.460  1.2177 -0.2863 -0.5689
 4892SOL    HW214966   4.519   1.164   5.323 -1.1964  1.1895  0.2667
 4893SOL     OW14967   2.870   0.807   4.210 -0.3300 -0.5558  0.4377
 4893SOL    HW114968   2.832   0.722   4.245  2.1788 -1.1928  1.8695
 4893SOL    HW214969   2.965   0.794   4.184 -0.0713  1.6473  0.0241
 4894SOL     OW14970   3.671   4.376   5.008  0.1626  0.3843  0.0468
 4894SOL    HW114971   3.606   4.340   4.942  0.6961 -1.6014  0.5401
 4894SOL    HW214972   3.724   4.450   4.965 -0.6484  0.2861 -1.1796
 4895SOL     OW14973   4.360   1.608   5.541  0.0860  0.4965  0.0784
 4895SOL    HW114974   4.340   1.702   5.569 -2.4320  1.0219 -2.9293
 4895SOL    HW214975   4.279   1.551   5.554  0.7189 -0.6025 -0.6047
 4896SOL     OW14976   0.941   2.186   4.328  0.1512 -0.2607 -0.0124
 4896SOL    HW114977   0.875   2.255   4.296  0.9695  0.7172  0.3741
 4896SOL    HW214978   0.986   2.218   4.411  1.9451 -0.3989 -0.8857
 4897SOL     OW14979   2.727   1.567   5.219  0.4060  0.5417 -0.2885
 4897SOL    HW114980   2.785   1.486   5.233  2.2907  1.8182 -0.4125
 4897SOL    HW214981   2.739   1.631   5.294 -0.8700  0.8467 -0.3219
 4898SOL     OW14982   5.183   5.816   0.490 -0.0295 -0.2215 -0.3644
 4898SOL    HW114983   5.180   5.790   0.586 -0.2859 -0.0685 -0.3270
 4898SOL    HW214984   5.267   5.866   0.471  2.1894 -3.9698 -1.2170
 4899SOL     OW14985   5.597   0.034   4.918 -0.2459 -0.1081  0.4770
 4899SOL    HW114986   5.569  -0.008   4.832 -0.9606  2.0598 -0.4307
 4899SOL    HW214987   5.685  -0.004   4.947 -0.6756 -1.8864 -0.4403
 4900SOL     OW14988   5.477   0.591   4.509 -0.2422  0.0205 -0.1040
 4900SOL    HW114989   5.410   0.657   4.472  0.0549  0.3373 -0.0846
 4900SOL    HW214990   5.429   0.520   4.559 -0.6511 -0.3762 -1.0374
 4901SOL     OW14991   4.512   5.234   4.749 -0.1565 -0.4832  0.3521
 4901SOL    HW114992   4.514   5.142   4.712  0.4088 -0.2095 -0.3208
 4901SOL    HW214993   4.471   5.296   4.682  1.2108  0.0816  0.0122
 4902SOL     OW14994   5.307   5.564   0.306  0.3819  0.1375  0.6534
 4902SOL    HW114995   5.394   5.528   0.271  0.8318  0.3296  1.5406
 4902SOL    HW214996   5.250   5.487   0.335  0.9802  0.0689  1.7099
 4903SOL     OW14997   0.196   5.555   3.942  0.5669 -0.8300  0.5705
 4903SOL    HW114998   0.187   5.553   4.041  1.4766  0.4902  0.7038
 4903SOL    HW214999   0.259   5.482   3.913  1.9971  0.0924  1.2136
 4904SOL     OW15000   4.460   2.299   4.215  0.2217  0.4628  0.0938
 4904SOL    HW115001   4.538   2.308   4.152  1.6697 -0.1629  1.7156
 4904SOL    HW215002   4.431   2.389   4.245  0.1475  0.7144 -0.6995
 4905SOL     OW15003   5.047   1.835   5.110  0.7794 -0.7398 -0.2096
 4905SOL    HW115004   5.034   1.861   5.205  2.4786  1.4299 -0.5031
 4905SOL    HW215005   5.126   1.882   5.072 -0.4168 -0.7412 -3.0025
 4906SOL     OW15006   3.580   1.247   5.090  0.0997 -0.1076 -0.2171
 4906SOL    HW115007   3.579   1.230   4.992 -0.1881 -2.9010  0.2093
 4906SOL    HW215008   3.673   1.267   5.120  0.4048 -0.5880 -0.8478
 4907SOL     OW15009   0.339   5.891   4.680 -0.5261 -0.4425  0.5519
 4907SOL    HW115010   0.434   5.920   4.675 -0.8211  0.5069  0.3079
 4907SOL    HW215011   0.330   5.799   4.641  0.0040  0.1494 -1.0280
 4908SOL     OW15012   4.461   0.202   3.189 -0.4459  0.2868 -0.2973
 4908SOL    HW115013   4.461   0.168   3.095 -1.7283 -0.8996  0.0910
 4908SOL    HW215014   4.545   0.173   3.235  0.0128  0.5529 -0.9581
 4909SOL     OW15015   1.983   2.673   4.918  0.4271 -0.4131 -0.4288
 4909SOL    HW115016   1.988   2.760   4.868  1.0744 -0.6812 -0.8448
 4909SOL    HW215017   1.891   2.635   4.910 -0.5868  1.3149  1.6332
 4910SOL     OW15018   5.646   1.649   4.086  0.1443  0.1932 -0.3440
 4910SOL    HW115019   5.668   1.706   4.165 -0.0943  1.1282 -0.9366
 4910SOL    HW215020   5.675   1.696   4.002  1.9862 -1.5226 -0.7578
 4911SOL     OW15021   2.611   2.446   3.957  0.5829  0.4826  0.0054
 4911SOL    HW115022   2.566   2.375   3.902  0.9738 -0.2207  0.5686
 4911SOL    HW215023   2.707   2.421   3.971  0.7480  1.1771  0.1313
 4912SOL     OW15024   3.773   2.143   5.442  0.4057 -0.2484 -0.4214
 4912SOL    HW115025   3.736   2.081   5.373 -0.3804 -0.6754  0.3520
 4912SOL    HW215026   3.769   2.098   5.532  0.4634  0.6636  0.0453
 4913SOL     OW15027   5.688   0.944   4.936  0.5785  0.3896  0.0800
 4913SOL    HW115028   5.659   0.929   4.842 -0.0378 -1.2572  0.4980
 4913SOL    HW215029   5.689   0.857   4.985 -0.8016  1.4264  2.0859
 4914SOL     OW15030   0.570   1.349   5.159 -0.5405  0.3802  0.3612
 4914SOL    HW115031   0.600   1.265   5.113  2.6071  0.8589  1.3045
 4914SOL    HW215032   0.590   1.428   5.102  0.0636  0.7215  1.0241
 4915SOL     OW15033   2.925   4.233   1.230 -0.0885  0.1068  0.4287
 4915SOL    HW115034   2.933   4.227   1.330  1.7237  0.5152  0.3429
 4915SOL    HW215035   2.876   4.316   1.205 -1.4469 -0.4953  0.9719
 4916SOL     OW15036   0.264   0.749   4.245 -0.4484 -0.1047  0.4037
 4916SOL    HW115037   0.289   0.844   4.263 -1.1703  0.2357 -0.3062
 4916SOL    HW215038   0.271   0.696   4.330  1.6312  0.1695  0.4552
 4917SOL     OW15039   3.165   0.344   4.314  0.0525 -0.5266  0.9546
 4917SOL    HW115040   3.102   0.351   4.391 -1.2725 -2.3683  0.1138
 4917SOL    HW215041   3.257   0.370   4.343 -0.6920  0.2641  2.7363
 4918SOL     OW15042   2.872   2.288   3.213 -0.1072  0.7926  0.7810
 4918SOL    HW115043   2.932   2.311   3.289  0.6502  0.8875  0.1657
 4918SOL    HW215044   2.926   2.274   3.130 -0.8519  0.0251  0.4016
 4919SOL     OW15045   0.812   1.426   4.878 -0.0347  0.4255  0.3557
 4919SOL    HW115046   0.873   1.490   4.924 -0.9498  0.5656  1.4213
 4919SOL    HW215047   0.819   1.437   4.779 -0.0562  2.0629  0.5201
 4920SOL     OW15048   0.437   0.993   4.955 -0.2390 -0.1525 -0.3771
 4920SOL    HW115049   0.444   0.901   4.917 -0.7213 -0.3420 -0.0126
 4920SOL    HW215050   0.372   1.047   4.901 -0.5914 -0.2865 -0.0907
 4921SOL     OW15051   4.068   0.688   3.970  0.0547 -0.2685  0.1256
 4921SOL    HW115052   4.006   0.631   4.024 -1.9039  1.1145 -0.5307
 4921SOL    HW215053   4.048   0.785   3.988  3.2929  0.3166  1.2302
 4922SOL     OW15054   0.354   2.174   3.290  0.1186  0.0513  0.1240
 4922SOL    HW115055   0.291   2.195   3.216  1.2242  0.7752 -0.6526
 4922SOL    HW215056   0.445   2.154   3.252  1.5946  3.5908  1.3111
 4923SOL     OW15057   5.704   5.598   5.877 -1.1398  0.8103 -0.3246
 4923SOL    HW115058   5.667   5.542   5.803 -0.6655  0.1814 -0.0955
 4923SOL    HW215059   5.799   5.572   5.894 -2.1193 -1.3956  2.6890
 4924SOL     OW15060   0.199   5.725   2.820  0.3974 -0.3157  0.0243
 4924SOL    HW115061   0.121   5.771   2.863 -0.7667 -1.1571 -1.1164
 4924SOL    HW215062   0.282   5.744   2.873 -0.5433  0.6928  1.2053
 4925SOL     OW15063   1.033   1.470   3.526 -0.1913 -0.2095 -0.3669
 4925SOL    HW115064   1.081   1.384   3.544 -0.8496 -0.5931 -0.4140
 4925SOL    HW215065   0.996   1.469   3.434 -1.1382 -0.3407  0.0029
 4926SOL     OW15066   3.848   0.568   5.696  0.2791 -0.2018  0.0563
 4926SOL    HW115067   3.883   0.559   5.603  0.6727  2.6090 -0.1549
 4926SOL    HW215068   3.775   0.636   5.698  0.7916  0.3478  1.9076
 4927SOL     OW15069   4.041   2.212   4.428 -0.4740 -0.1666  0.0571
 4927SOL    HW115070   4.006   2.123   4.397  0.2092 -0.2024 -0.6268
 4927SOL    HW215071   4.140   2.209   4.434 -0.3620  0.8794 -1.0067
 4928SOL     OW15072   3.541   0.818   4.660 -0.3256 -0.3480 -0.4308
 4928SOL    HW115073   3.457   0.773   4.689 -0.1927 -1.2602 -1.4183
 4928SOL    HW215074   3.600   0.833   4.739 -1.5321  0.5983  0.3264
 4929SOL     OW15075   4.673   0.951   5.480  0.4259 -0.3252  0.3004
 4929SOL    HW115076   4.751   1.014   5.477 -0.3368  0.6265 -2.1627
 4929SOL    HW215077   4.698   0.864   5.436 -0.2390  0.5302 -1.9361
 4930SOL     OW15078   3.337   0.570   3.535  0.0899 -0.2761  0.1278
 4930SOL    HW115079   3.389   0.485   3.526 -0.4089 -0.9988  2.9797
 4930SOL    HW215080   3.267   0.558   3.606 -1.8430  1.6845 -1.3327
 4931SOL     OW15081  -0.019   0.423   3.993  0.3756  0.5886  0.1085
 4931SOL    HW115082  -0.035   0.384   3.902 -1.2695 -0.2735  0.7364
 4931SOL    HW215083   0.067   0.387   4.029  1.0053  0.8664 -1.0476
 4932SOL     OW15084   2.705   0.894   3.670  0.0647 -0.2595 -0.3063
 4932SOL    HW115085   2.677   0.860   3.580  0.2180 -0.5838 -0.2324
 4932SOL    HW215086   2.695   0.821   3.738 -1.3227  0.3550  0.2060
 4933SOL     OW15087   2.835   5.336   1.022 -0.0072 -0.0281  0.2244
 4933SOL    HW115088   2.790   5.368   0.939  0.3155  1.4883  0.6020
 4933SOL    HW215089   2.771   5.344   1.099 -0.0693 -0.7630  0.2619
 4934SOL     OW15090   0.420   0.628   5.500  0.2429  0.1917 -0.1039
 4934SOL    HW115091   0.481   0.652   5.575  2.4608  1.9999 -2.3049
 4934SOL    HW215092   0.475   0.594   5.423 -1.6301  1.0447 -1.8868
 4935SOL     OW15093   5.025   1.324   3.520 -1.0478  0.2295 -0.3409
 4935SOL    HW115094   4.974   1.238   3.523  1.8099 -1.6632 -1.6118
 4935SOL    HW215095   5.057   1.347   3.612 -0.2684 -1.1455 -0.2427
 4936SOL     OW15096   4.735   2.758   1.006 -0.0905  0.5046 -0.3200
 4936SOL    HW115097   4.686   2.736   1.090  0.4736 -1.3425 -0.4229
 4936SOL    HW215098   4.834   2.752   1.022  0.0605  1.6309 -0.7497
 4937SOL     OW15099   3.591   5.611   4.120 -0.2371  0.2895  0.0983
 4937SOL    HW115100   3.597   5.613   4.220 -1.3204 -2.0564  0.2724
 4937SOL    HW215101   3.585   5.705   4.085 -0.4763  1.1372  2.2621
 4938SOL     OW15102   4.968   1.751   3.237  0.6645 -0.1647  0.4490
 4938SOL    HW115103   4.914   1.776   3.318  1.9162  2.6985  0.5176
 4938SOL    HW215104   5.023   1.670   3.257 -0.2533 -0.4619  1.8940
 4939SOL     OW15105   4.036   1.709   3.984  0.5923 -0.6011  0.4992
 4939SOL    HW115106   3.992   1.699   4.073 -0.0429  1.8826  0.5250
 4939SOL    HW215107   4.128   1.671   3.988  0.6401 -0.3739  2.2700
 4940SOL     OW15108   5.314   1.097   3.447  0.0999 -0.7790  0.0598
 4940SOL    HW115109   5.261   1.034   3.390 -0.1647 -0.8469  0.3743
 4940SOL    HW215110   5.264   1.114   3.532 -0.5996  1.0754 -0.6612
 4941SOL     OW15111   4.109   0.532   0.577  0.3844  0.5141  0.4031
 4941SOL    HW115112   4.091   0.629   0.593 -4.2827  0.0758 -0.6246
 4941SOL    HW215113   4.104   0.483   0.664  1.3714  1.0005  0.7464
 4942SOL     OW15114   5.684   1.110   5.182 -0.3348  0.1645 -0.6756
 4942SOL    HW115115   5.713   1.082   5.273 -0.7826  0.6024 -0.3976
 4942SOL    HW215116   5.670   1.028   5.125 -0.8569 -0.1500 -0.1075
 4943SOL     OW15117   1.627   1.952   0.997  0.0110  0.3357  0.3674
 4943SOL    HW115118   1.660   1.910   0.913  1.4194 -1.3672  1.6709
 4943SOL    HW215119   1.575   1.884   1.049  0.6458  0.7969  1.6446
 4944SOL     OW15120   4.667   0.169   5.510 -0.2537 -0.2344 -0.0242
 4944SOL    HW115121   4.587   0.181   5.569 -0.7272  1.1999 -0.8867
 4944SOL    HW215122   4.719   0.089   5.539 -0.4209  0.4439  2.3698
 4945SOL     OW15123   4.942   1.024   4.573  0.4768 -0.3466 -0.9308
 4945SOL    HW115124   5.019   1.042   4.633 -0.2646 -1.2883  0.3451
 4945SOL    HW215125   4.972   0.965   4.497  1.1337 -0.2067 -0.7865
 4946SOL     OW15126   3.847   5.473   5.729 -0.6114  0.3890 -0.4134
 4946SOL    HW115127   3.842   5.505   5.635  0.6635  1.0093 -0.2852
 4946SOL    HW215128   3.789   5.530   5.787 -1.8557 -0.3493 -0.8888
 4947SOL     OW15129   5.056   0.163   4.762 -0.6672  0.2060 -0.2516
 4947SOL    HW115130   5.047   0.080   4.817 -0.9247 -0.0941 -0.7425
 4947SOL    HW215131   5.043   0.141   4.666  0.4153  0.6176 -0.5102
 4948SOL     OW15132   0.725   5.209   0.557 -0.1351 -0.2380  0.5576
 4948SOL    HW115133   0.703   5.141   0.488 -0.7574 -0.2178  0.7318
 4948SOL    HW215134   0.645   5.225   0.616 -0.8974  2.4705 -1.0366
 4949SOL     OW15135   0.733   0.454   3.514  0.1679  0.6017 -0.4029
 4949SOL    HW115136   0.829   0.474   3.537  0.5665 -2.5858  1.2040
 4949SOL    HW215137   0.673   0.498   3.580  0.7264  0.1854  0.3976
 4950SOL     OW15138   5.848   1.094   1.539  0.0681  0.4378  0.2056
 4950SOL    HW115139   5.796   1.073   1.456  0.5619 -1.2290  0.2758
 4950SOL    HW215140   5.914   1.020   1.556 -0.3038  0.5402  2.3108
 4951SOL     OW15141   4.689   0.616   3.854  0.5052 -0.0802  0.4667
 4951SOL    HW115142   4.728   0.668   3.930  0.1695  0.2310  0.4283
 4951SOL    HW215143   4.737   0.528   3.846  1.0154  0.1816  0.5894
 4952SOL     OW15144   3.373   5.920   2.528  0.6496 -0.3801 -0.4405
 4952SOL    HW115145   3.426   6.005   2.529  0.0370  0.0128 -0.5414
 4952SOL    HW215146   3.373   5.881   2.436 -0.4808  0.4341 -0.8132
 4953SOL     OW15147   0.535   2.439   5.525 -0.0753  0.0262 -0.0601
 4953SOL    HW115148   0.478   2.369   5.483  1.0148 -0.5909 -0.5532
 4953SOL    HW215149   0.592   2.483   5.455 -0.7278  1.4049  0.2442
 4954SOL     OW15150   5.555   5.746   0.447  0.1222 -0.5289 -0.6847
 4954SOL    HW115151   5.478   5.780   0.393  0.6348  0.7873 -0.6341
 4954SOL    HW215152   5.640   5.757   0.395  0.6713  1.0653  0.4489
 4955SOL     OW15153   3.192   1.973   4.923 -1.1513  0.2409  0.1572
 4955SOL    HW115154   3.243   2.004   4.843  0.4360 -2.1881  0.1254
 4955SOL    HW215155   3.158   2.053   4.973 -0.1786  1.8770 -1.6428
 4956SOL     OW15156   0.152   2.191   4.924 -0.3233 -0.4187  0.0144
 4956SOL    HW115157   0.213   2.127   4.877 -0.4917  0.4265 -1.3948
 4956SOL    HW215158   0.199   2.277   4.940 -0.0729 -0.8680  1.9773
 4957SOL     OW15159   0.540   2.412   3.667  0.2788 -0.1615  0.0313
 4957SOL    HW115160   0.505   2.414   3.573  0.6348  0.3483 -0.0940
 4957SOL    HW215161   0.639   2.395   3.665  0.0915 -1.4327  0.3724
 4958SOL     OW15162   4.889   0.514   4.475  0.1724 -0.5247 -0.0139
 4958SOL    HW115163   4.929   0.564   4.552  1.0025  0.7428 -1.2094
 4958SOL    HW215164   4.835   0.577   4.419  1.1816 -0.9297 -1.5173
 4959SOL     OW15165   5.021   0.936   4.135 -0.4226 -0.1877 -0.2605
 4959SOL    HW115166   4.963   0.858   4.109  0.4522 -1.0667  0.3675
 4959SOL    HW215167   4.968   1.020   4.126 -1.5203 -0.8797 -0.5592
 4960SOL     OW15168   2.270   0.677   5.403 -0.3361 -0.4181  0.6017
 4960SOL    HW115169   2.364   0.691   5.434 -0.2700  0.7534 -0.0651
 4960SOL    HW215170   2.213   0.651   5.481 -0.0099  1.6797  1.6307
 4961SOL     OW15171   0.213   2.704   4.171 -0.1305  0.3721 -0.4632
 4961SOL    HW115172   0.224   2.759   4.253 -0.4260  0.5738 -0.5585
 4961SOL    HW215173   0.289   2.723   4.109  0.4353 -0.2523  0.0284
 4962SOL     OW15174   1.212   1.540   4.731  0.6731 -0.0281  0.0383
 4962SOL    HW115175   1.145   1.476   4.692  1.0432  0.0594 -0.7502
 4962SOL    HW215176   1.205   1.628   4.685 -0.0604  0.6351  1.3410
 4963SOL     OW15177   3.732   0.448   4.341  0.2201 -0.1242 -0.3634
 4963SOL    HW115178   3.793   0.375   4.309 -0.6831 -1.4083  0.6973
 4963SOL    HW215179   3.656   0.458   4.278 -0.2684 -0.9507  0.0663
 4964SOL     OW15180   4.216   0.941   5.758  0.3115  0.8002  0.6142
 4964SOL    HW115181   4.217   0.842   5.740  1.1544  1.0112 -0.5960
 4964SOL    HW215182   4.302   0.967   5.803  0.5918  1.1496 -0.1083
 4965SOL     OW15183   0.107   3.178   4.606 -0.3745  0.2550 -0.0141
 4965SOL    HW115184   0.115   3.078   4.610 -0.7577  0.2513  1.6374
 4965SOL    HW215185   0.074   3.206   4.516 -3.9789 -1.4285  0.6309
 4966SOL     OW15186   3.669   5.219   2.154 -0.4288 -0.4760 -0.5160
 4966SOL    HW115187   3.746   5.250   2.209 -1.1780 -1.4075  1.1295
 4966SOL    HW215188   3.689   5.129   2.116 -0.8631 -0.9410  0.3220
 4967SOL     OW15189   0.773   5.449   4.600 -0.1097  0.3354  0.6857
 4967SOL    HW115190   0.787   5.548   4.594 -2.4909  0.8060  1.5901
 4967SOL    HW215191   0.694   5.431   4.658  0.1595 -2.1201  0.3756
 4968SOL     OW15192   0.575   5.451   4.791  0.0647 -0.0021  0.5836
 4968SOL    HW115193   0.505   5.379   4.785 -0.3223  0.4472 -0.7596
 4968SOL    HW215194   0.605   5.461   4.886 -0.2529 -1.5640  0.8714
 4969SOL     OW15195   2.572   1.998   4.119 -0.0782  0.0478  0.3433
 4969SOL    HW115196   2.590   1.993   4.217 -1.3022  0.9390  0.6369
 4969SOL    HW215197   2.650   2.040   4.073 -0.6049  2.2771  1.3451
 4970SOL     OW15198   3.962   1.844   4.714  0.0792  0.3134 -0.2152
 4970SOL    HW115199   3.906   1.856   4.796 -1.8757  1.6842 -1.6642
 4970SOL    HW215200   4.029   1.919   4.709  0.6646 -0.1528  0.4474
 4971SOL     OW15201   1.985   1.498   1.207  0.9004  0.1514  0.2680
 4971SOL    HW115202   2.006   1.592   1.234  0.1541  0.3015  0.3724
 4971SOL    HW215203   1.886   1.485   1.210  1.0458 -0.8942  1.0842
 4972SOL     OW15204   5.457   3.521   4.972 -0.4383 -0.1969 -0.2488
 4972SOL    HW115205   5.448   3.457   5.048  0.6774  0.8797  0.8403
 4972SOL    HW215206   5.412   3.483   4.891 -1.8717 -1.2730  0.9882
 4973SOL     OW15207   4.624   1.715   0.006 -0.3338  1.0477  0.2056
 4973SOL    HW115208   4.576   1.796   0.041  0.4903  3.2920 -3.3055
 4973SOL    HW215209   4.722   1.724   0.024 -0.3649  0.2398  0.8041
 4974SOL     OW15210   4.950   1.400   5.840 -0.1067 -0.1178 -0.0236
 4974SOL    HW115211   4.985   1.439   5.755 -0.7072 -0.4510 -0.4308
 4974SOL    HW215212   5.024   1.355   5.889  0.2562  0.1256 -0.3404
 4975SOL     OW15213   4.743   3.424   5.148 -0.4702  0.4305  0.1229
 4975SOL    HW115214   4.697   3.335   5.156  0.0675  0.1412  0.0293
 4975SOL    HW215215   4.675   3.497   5.154 -1.1829 -0.0275 -1.6953
 4976SOL     OW15216   3.368   3.189   4.166 -0.7708  0.7068 -0.6156
 4976SOL    HW115217   3.452   3.218   4.212 -1.6510  0.1582  1.4916
 4976SOL    HW215218   3.387   3.167   4.071  1.6494 -0.1868  0.0111
 4977SOL     OW15219   4.951   0.020   5.721  0.0987 -0.3315 -0.1820
 4977SOL    HW115220   4.903  -0.065   5.701 -2.7352  1.1018  0.1336
 4977SOL    HW215221   4.984   0.060   5.635 -1.5439 -0.0961 -0.7324
 4978SOL     OW15222   0.601   1.571   4.988  0.5007 -0.2778 -0.4182
 4978SOL    HW115223   0.545   1.640   4.942  0.5870  0.9305  1.2209
 4978SOL    HW215224   0.660   1.526   4.920 -1.0119 -0.2270 -1.8505
 4979SOL     OW15225   5.213   1.041   0.761 -0.0513 -0.2481  0.7237
 4979SOL    HW115226   5.158   1.034   0.844  0.7680  1.5059  1.4702
 4979SOL    HW215227   5.166   1.100   0.695  0.0925 -0.2373  0.6311
 4980SOL     OW15228   3.993   0.823   5.510 -0.0821 -0.2711  0.2633
 4980SOL    HW115229   4.045   0.812   5.594  0.5922  0.8226  0.0110
 4980SOL    HW215230   3.948   0.912   5.510  2.2389  1.0488 -1.7077
 4981SOL     OW15231   4.089   5.524   5.121  0.1204 -0.0590  0.8548
 4981SOL    HW115232   4.119   5.489   5.032 -0.0243 -1.6540  1.4142
 4981SOL    HW215233   4.027   5.601   5.106  0.3239 -0.1146 -0.4193
 4982SOL     OW15234   4.005   0.591   0.007  0.6613  0.4482  0.0662
 4982SOL    HW115235   3.947   0.597  -0.075  1.3787 -0.5275 -0.5340
 4982SOL    HW215236   3.951   0.557   0.084  0.1285  0.7836 -0.1525
 4983SOL     OW15237   4.560   2.199   0.520 -0.7968  0.3829 -0.5164
 4983SOL    HW115238   4.567   2.299   0.527 -0.0333  0.2272  1.7546
 4983SOL    HW215239   4.468   2.171   0.548 -1.5262  0.4909 -2.6065
 4984SOL     OW15240   4.640   1.937   5.616  0.4425  0.1205 -0.1144
 4984SOL    HW115241   4.675   2.018   5.663 -0.8149  0.0146  1.0631
 4984SOL    HW215242   4.656   1.946   5.518 -0.8207  2.4355 -0.1919
 4985SOL     OW15243   4.527   1.389   4.905  0.0661 -0.0028  0.1699
 4985SOL    HW115244   4.615   1.398   4.952 -0.3737 -0.5012  1.1255
 4985SOL    HW215245   4.543   1.369   4.808  1.0032  0.1782  0.2768
 4986SOL     OW15246   3.593   0.686   0.066  0.2249  0.0827  0.3652
 4986SOL    HW115247   3.541   0.604   0.042 -0.0299  0.2827  0.2227
 4986SOL    HW215248   3.680   0.660   0.107 -0.2490 -0.2616  1.1673
 4987SOL     OW15249   2.805   1.546   5.793 -0.9325 -0.2360  0.4486
 4987SOL    HW115250   2.865   1.467   5.806 -1.1159 -0.1561  2.0623
 4987SOL    HW215251   2.850   1.628   5.828 -1.6366 -0.0372  0.9089
 4988SOL     OW15252   2.477   5.204   5.750  0.1023  0.6820  0.4599
 4988SOL    HW115253   2.481   5.123   5.691 -0.4260 -0.9509  2.5587
 4988SOL    HW215254   2.525   5.185   5.836 -0.5885  2.3890  1.2681
 4989SOL     OW15255   2.727   0.569   4.269 -0.7109  0.0857 -0.6500
 4989SOL    HW115256   2.675   0.499   4.320 -1.2963  0.8431 -0.1895
 4989SOL    HW215257   2.708   0.559   4.171 -1.1150 -0.1458 -0.5524
 4990SOL     OW15258   0.469   2.369   0.475 -0.3184 -0.9690  0.2981
 4990SOL    HW115259   0.387   2.393   0.526  0.2300 -0.5805  1.0227
 4990SOL    HW215260   0.537   2.330   0.538  1.1617  1.4273  0.3055
 4991SOL     OW15261   4.570   0.493   5.706 -0.4171  0.9334  0.0615
 4991SOL    HW115262   4.577   0.543   5.792 -2.8648 -0.3886  1.1406
 4991SOL    HW215263   4.549   0.556   5.631  1.5024  2.0686  0.4413
 4992SOL     OW15264   5.338   0.909   5.844 -0.4832 -0.1661  0.0886
 4992SOL    HW115265   5.349   0.882   5.748 -0.7634  0.2747 -0.0722
 4992SOL    HW215266   5.252   0.960   5.854 -1.3161 -1.6567  0.8889
 4993SOL     OW15267   4.479   1.939   4.920 -0.1357 -0.2464  0.0204
 4993SOL    HW115268   4.436   1.934   4.830  1.4336 -0.1937 -0.7675
 4993SOL    HW215269   4.517   2.030   4.934 -1.9709  0.3537  1.5507
 4994SOL     OW15270   3.522   0.405   0.550  0.2737  0.0389  0.1777
 4994SOL    HW115271   3.498   0.473   0.619  1.3045 -1.5406  2.1869
 4994SOL    HW215272   3.439   0.361   0.517 -0.2664  1.1184  0.0446
 4995SOL     OW15273   3.587   0.029   1.212  0.1643  0.4939  0.0925
 4995SOL    HW115274   3.519   0.003   1.280 -0.7492  2.8352  0.1666
 4995SOL    HW215275   3.671   0.056   1.257  0.4207 -0.3164  0.1196
 4996SOL     OW15276   5.678   0.971   4.013  0.0575  0.1228  0.7515
 4996SOL    HW115277   5.771   0.963   4.049  0.1692 -1.1329  0.2332
 4996SOL    HW215278   5.612   0.958   4.088  0.2951 -0.1192  0.9222
 4997SOL     OW15279   0.188   4.575   5.092 -0.0377  0.8406  0.7063
 4997SOL    HW115280   0.114   4.613   5.147 -0.7593  0.1885  0.2052
 4997SOL    HW215281   0.232   4.501   5.143 -1.1939 -0.2697  0.1407
 4998SOL     OW15282   2.022   0.628   5.878 -0.3453  0.0237 -0.1628
 4998SOL    HW115283   1.992   0.718   5.908  1.5725  1.1984 -1.5383
 4998SOL    HW215284   1.981   0.607   5.789  1.0889  0.6809 -1.0164
 4999SOL     OW15285   3.910   0.562   4.161 -0.7732 -0.2605  0.6646
 4999SOL    HW115286   3.829   0.615   4.187 -1.2212 -1.5575  2.0882
 4999SOL    HW215287   3.955   0.527   4.244  0.6968 -0.3806 -0.1439
 5000SOL     OW15288   3.735   5.809   0.606  0.5635  0.2908  0.2255
 5000SOL    HW115289   3.735   5.908   0.593  3.2894  0.3070 -0.3216
 5000SOL    HW215290   3.827   5.773   0.590 -0.1883 -2.2671  1.0634
 5001SOL     OW15291   0.282   5.252   5.412  0.7592 -0.2870 -0.0678
 5001SOL    HW115292   0.291   5.226   5.316  0.8885  1.3077 -0.5139
 5001SOL    HW215293   0.363   5.221   5.462 -0.3795 -3.3316  0.1154
 5002SOL     OW15294   4.814   0.686   0.965  0.0659  0.3469 -0.7228
 5002SOL    HW115295   4.748   0.760   0.954  0.9061  0.9802 -1.7055
 5002SOL    HW215296   4.783   0.624   1.036 -0.5415  1.7868  0.3181
 5003SOL     OW15297   5.096   3.771   4.734  0.4087  0.0734  0.6197
 5003SOL    HW115298   5.155   3.802   4.809  1.0083  1.2533 -0.2887
 5003SOL    HW215299   5.153   3.744   4.656 -0.2108 -0.8754  0.4761
 5004SOL     OW15300   5.111   3.666   4.101  0.1287 -0.3234 -0.6060
 5004SOL    HW115301   5.124   3.764   4.086  0.3729 -0.3631 -0.6600
 5004SOL    HW215302   5.023   3.638   4.063 -0.1958 -0.0192 -0.0977
 5005SOL     OW15303   5.058   5.799   5.463 -0.1196 -0.0378 -0.2065
 5005SOL    HW115304   5.037   5.867   5.393  0.3605  0.7837  0.4187
 5005SOL    HW215305   4.980   5.788   5.524  0.1127  0.6416  0.2270
 5006SOL     OW15306   5.318   3.045   3.936  0.4812  0.2977  0.0399
 5006SOL    HW115307   5.383   3.034   4.011 -0.5351  1.9110  1.2423
 5006SOL    HW215308   5.265   2.961   3.925  2.5169 -0.9584 -0.8061
 5007SOL     OW15309   4.488   0.926   0.355 -0.6020 -0.2496 -0.2025
 5007SOL    HW115310   4.464   1.011   0.308  0.4412 -0.5647 -1.3535
 5007SOL    HW215311   4.483   0.849   0.291  2.7033 -0.4330 -0.4356
 5008SOL     OW15312   4.516   2.766   0.142 -0.0407 -0.1970  0.0002
 5008SOL    HW115313   4.432   2.818   0.127  0.0616 -0.2070 -0.6376
 5008SOL    HW215314   4.493   2.670   0.161 -0.2024 -0.0487  0.5684
 5009SOL     OW15315   3.195   1.566   5.126  0.1814 -0.6361 -0.0311
 5009SOL    HW115316   3.269   1.615   5.080  0.1195 -0.9876 -0.5061
 5009SOL    HW215317   3.233   1.507   5.197  0.2241  0.4178  0.8435
 5010SOL     OW15318   2.575   0.395   3.025 -0.2815 -0.1043 -0.1516
 5010SOL    HW115319   2.612   0.304   3.003  0.8756  0.2345  0.3409
 5010SOL    HW215320   2.641   0.465   3.000 -0.6869  0.5339  0.5267
 5011SOL     OW15321   4.978   1.643   1.019 -0.5046  0.2000  0.0819
 5011SOL    HW115322   4.964   1.711   1.092 -1.7430 -1.1708  1.1973
 5011SOL    HW215323   5.001   1.555   1.060  1.1977 -0.0813 -1.3418
 5012SOL     OW15324   4.801   4.074   2.427 -0.2354  0.3002  0.6001
 5012SOL    HW115325   4.818   4.108   2.519  1.4410 -2.4060  1.4142
 5012SOL    HW215326   4.776   3.977   2.431 -1.1379  0.3553 -1.7631
 5013SOL     OW15327   4.710   0.713   5.122  0.3034  0.0241 -0.3672
 5013SOL    HW115328   4.732   0.720   5.219  0.7597  0.8484 -0.5186
 5013SOL    HW215329   4.647   0.636   5.107 -0.0887  0.1416  0.6234
 5014SOL     OW15330   4.410   0.649   4.544 -0.1847  1.3405 -0.0041
 5014SOL    HW115331   4.435   0.598   4.462  1.9695  0.3708  1.1801
 5014SOL    HW215332   4.410   0.747   4.525  2.1166  1.2333 -0.7399
 5015SOL     OW15333   4.821   1.576   4.767  0.1655 -0.0334  0.3159
 5015SOL    HW115334   4.793   1.497   4.821  2.5541 -0.6394  0.7923
 5015SOL    HW215335   4.880   1.636   4.822  0.3304  0.8397 -0.7598
 5016SOL     OW15336   4.875   0.496   5.837 -0.3583 -0.1017 -0.3383
 5016SOL    HW115337   4.918   0.447   5.912 -3.7952 -1.5309  0.9134
 5016SOL    HW215338   4.942   0.554   5.792  2.0458  0.3060  3.3697
 5017SOL     OW15339   3.974   1.690   4.238 -0.1255  0.0964  0.2764
 5017SOL    HW115340   4.022   1.665   4.322 -1.0488 -1.2540  0.4479
 5017SOL    HW215341   3.876   1.670   4.249 -0.0373 -1.7276 -1.6816
 5018SOL     OW15342   4.670   4.092   5.031 -0.0491  0.1410  0.0793
 5018SOL    HW115343   4.676   4.114   4.933 -0.3746 -0.2495 -0.0350
 5018SOL    HW215344   4.762   4.091   5.071  0.0508  0.6663 -0.1407
 5019SOL     OW15345   2.160   2.046   1.745  0.3854 -0.5712  0.5882
 5019SOL    HW115346   2.193   1.980   1.678 -0.1952 -0.7754  0.4969
 5019SOL    HW215347   2.202   2.136   1.728 -1.0273 -0.1821 -1.1236
 5020SOL     OW15348   1.740   2.060   2.301 -0.1714  0.2663  0.0470
 5020SOL    HW115349   1.716   2.140   2.356 -0.2411  0.1409  0.1999
 5020SOL    HW215350   1.783   1.991   2.360 -2.2048 -0.7733  0.4025
 5021SOL     OW15351   4.145   3.029   3.097  0.3545  0.3238  0.6860
 5021SOL    HW115352   4.056   3.002   3.135 -1.3648  2.2087 -1.6806
 5021SOL    HW215353   4.139   3.122   3.061  2.9810  0.0863 -0.6031
 5022SOL     OW15354   0.165   4.610   2.227 -0.3570 -0.1415  0.0058
 5022SOL    HW115355   0.212   4.576   2.145 -0.9070  0.4411 -0.5591
 5022SOL    HW215356   0.194   4.556   2.307  2.4692  1.1668 -0.0199
 5023SOL     OW15357   4.130   2.550   0.627  0.6307 -0.5106 -0.0685
 5023SOL    HW115358   4.044   2.510   0.658  1.1045 -1.4331  0.0991
 5023SOL    HW215359   4.206   2.506   0.674  1.1907  0.4743 -0.0204
 5024SOL     OW15360   5.633   2.373   5.823 -0.6013 -0.3197 -0.5441
 5024SOL    HW115361   5.688   2.375   5.739  1.5154  1.4658  0.7929
 5024SOL    HW215362   5.564   2.446   5.819  0.6299  0.9079 -0.0681
 5025SOL     OW15363   5.139   3.135   3.075 -0.6284  0.0537 -0.0439
 5025SOL    HW115364   5.085   3.214   3.047 -0.5642  0.4184  0.8308
 5025SOL    HW215365   5.111   3.106   3.166 -0.2540 -0.5755 -0.1235
 5026SOL     OW15366   3.923   1.351   2.671 -0.2317  0.3554 -0.3793
 5026SOL    HW115367   3.870   1.300   2.739  1.2887  0.6725  1.1034
 5026SOL    HW215368   3.885   1.335   2.580 -2.5642  0.2049  0.5554
 5027SOL     OW15369   4.057   3.287   0.986 -0.0737  0.1925  0.2782
 5027SOL    HW115370   4.088   3.336   1.068 -3.0577  1.5902  0.6930
 5027SOL    HW215371   4.126   3.295   0.914  1.3285  1.4456  1.6811
 5028SOL     OW15372   4.773   3.211   3.452 -0.2656 -0.4631 -0.2998
 5028SOL    HW115373   4.733   3.147   3.517 -2.7074 -0.8740 -2.0788
 5028SOL    HW215374   4.834   3.162   3.390  1.2815 -0.2378  0.9770
 5029SOL     OW15375   2.989   5.117   1.575  0.1139  0.0545  0.3595
 5029SOL    HW115376   3.074   5.076   1.543  0.0471 -1.3743  1.8747
 5029SOL    HW215377   3.004   5.214   1.595  1.9794 -0.5805  2.4744
 5030SOL     OW15378   0.515   2.529   1.251  0.1685 -0.3542 -0.1131
 5030SOL    HW115379   0.528   2.554   1.155 -0.0260 -1.3325 -0.4002
 5030SOL    HW215380   0.417   2.527   1.272  0.1890 -0.7622 -0.0607
 5031SOL     OW15381   3.704   1.647   2.638  0.1799  0.0338 -0.3629
 5031SOL    HW115382   3.703   1.746   2.650  0.7469  0.1747 -1.3218
 5031SOL    HW215383   3.675   1.602   2.723  3.0339  0.9388  1.2384
 5032SOL     OW15384   1.361   1.969   1.323  0.2818 -0.1733 -0.0468
 5032SOL    HW115385   1.275   1.954   1.373  0.5039 -0.9502  0.1184
 5032SOL    HW215386   1.410   1.882   1.316  0.9768  0.2376 -0.2889
 5033SOL     OW15387   4.672   4.219   0.717 -0.1340  0.4163 -0.2429
 5033SOL    HW115388   4.723   4.288   0.665  0.0148 -0.8107 -1.8112
 5033SOL    HW215389   4.583   4.204   0.673 -1.5634  1.9087  1.9618
 5034SOL     OW15390   4.034   2.471   2.501  0.4987  0.4471 -0.3568
 5034SOL    HW115391   4.056   2.374   2.510  0.0521  0.2647 -1.1606
 5034SOL    HW215392   3.937   2.481   2.479 -0.0641  1.1736  2.0852
 5035SOL     OW15393   2.566   3.197   0.336  0.2517  0.1179  0.4672
 5035SOL    HW115394   2.549   3.220   0.432  0.2531 -0.3244  0.5796
 5035SOL    HW215395   2.612   3.108   0.332  1.1329  0.5854  0.0961
 5036SOL     OW15396   3.703   2.047   5.690 -0.2403  0.3783 -0.0775
 5036SOL    HW115397   3.673   2.129   5.740 -1.2110 -0.2902  0.4709
 5036SOL    HW215398   3.802   2.048   5.682 -0.1219  0.9111  1.1675
 5037SOL     OW15399   5.859   3.740   1.798 -0.1525 -0.1033  0.4103
 5037SOL    HW115400   5.771   3.744   1.845 -0.3939 -0.3514 -0.0153
 5037SOL    HW215401   5.858   3.667   1.730  0.1916  0.2498  0.0152
 5038SOL     OW15402   3.067   3.000   0.030 -0.6691  0.2018 -0.5718
 5038SOL    HW115403   3.126   2.919   0.029  0.3938  0.9536 -0.2858
 5038SOL    HW215404   3.098   3.064  -0.040 -2.1469 -0.0563 -1.5091
 5039SOL     OW15405   3.906   0.977   1.353 -0.2841  0.0263  0.9143
 5039SOL    HW115406   3.908   1.025   1.265 -0.1024 -1.0361  0.3157
 5039SOL    HW215407   3.944   1.035   1.424  2.1420 -0.0655 -0.2274
 5040SOL     OW15408   5.240   2.935   2.092  0.2552 -0.1100 -0.3513
 5040SOL    HW115409   5.301   2.858   2.074  0.6447 -0.1383  0.9662
 5040SOL    HW215410   5.247   3.002   2.019  0.6541 -0.8628 -1.0154
 5041SOL     OW15411   4.865   2.327   0.505 -0.0233  0.2602 -0.3454
 5041SOL    HW115412   4.942   2.276   0.543 -0.2471 -0.2344 -0.5447
 5041SOL    HW215413   4.831   2.279   0.424 -0.0382  0.8918 -0.7208
 5042SOL     OW15414   5.181   4.367   4.236  0.2389  0.4923 -0.0658
 5042SOL    HW115415   5.088   4.389   4.266 -0.3760 -2.5973  0.6159
 5042SOL    HW215416   5.182   4.354   4.136  0.4902  2.7018 -0.3945
 5043SOL     OW15417   4.964   3.702   5.774  0.0740 -0.0443  0.4983
 5043SOL    HW115418   4.990   3.719   5.679 -1.7485  2.6340  0.3690
 5043SOL    HW215419   4.864   3.698   5.782  0.1163  1.1477  2.4489
 5044SOL     OW15420   5.214   1.094   1.146 -0.2392 -0.0842 -0.0820
 5044SOL    HW115421   5.279   1.018   1.145 -0.4953 -0.3253  0.6326
 5044SOL    HW215422   5.141   1.078   1.079 -0.6159 -0.7646  0.4819
 5045SOL     OW15423   3.909   1.679   1.572  0.0700 -0.4884  0.1218
 5045SOL    HW115424   3.909   1.779   1.564  1.5370 -0.2225  2.5842
 5045SOL    HW215425   3.826   1.650   1.620  0.3206 -0.2915  0.6875
 5046SOL     OW15426   5.093   2.091   0.995 -0.1266 -0.4377 -0.1941
 5046SOL    HW115427   5.040   2.054   1.071 -0.5571 -0.6817 -0.6046
 5046SOL    HW215428   5.178   2.131   1.029 -1.4137  1.6796  0.7375
 5047SOL     OW15429   4.721   2.406   1.297  0.2424 -0.4838 -0.1732
 5047SOL    HW115430   4.633   2.446   1.321  0.8951  1.0947 -0.3399
 5047SOL    HW215431   4.723   2.310   1.327 -1.5865 -0.6134 -0.3399
 5048SOL     OW15432   0.660   1.171   4.985 -0.3014  0.1726  0.0138
 5048SOL    HW115433   0.689   1.230   4.910  0.4999  0.2341  0.3680
 5048SOL    HW215434   0.616   1.089   4.948  0.1002  0.1956 -0.5209
 5049SOL     OW15435   4.567   3.285   1.652  0.3411 -0.2600 -0.5237
 5049SOL    HW115436   4.658   3.324   1.668 -0.0243 -0.1606  1.4736
 5049SOL    HW215437   4.541   3.228   1.729 -2.1210  1.2767 -0.1221
 5050SOL     OW15438   1.929   3.071   0.644 -0.3581 -0.4066 -0.1372
 5050SOL    HW115439   1.878   3.105   0.723 -1.9154 -1.6191 -0.5774
 5050SOL    HW215440   1.953   3.148   0.584  0.8508  0.5245  1.4689
 5051SOL     OW15441   3.153   3.484   0.826  0.4519  0.0748  0.2311
 5051SOL    HW115442   3.149   3.538   0.742  1.0367 -0.2640 -0.0220
 5051SOL    HW215443   3.203   3.399   0.808  1.8492  0.6483  1.2706
 5052SOL     OW15444   3.731   0.933   2.271 -0.0183  0.1009 -0.2553
 5052SOL    HW115445   3.680   1.016   2.247  1.0447  0.6779 -0.5508
 5052SOL    HW215446   3.672   0.873   2.325 -1.4972  0.0895 -1.8223
 5053SOL     OW15447   4.377   1.437   1.274 -0.4812  0.0956  0.2871
 5053SOL    HW115448   4.320   1.429   1.356  1.2741  0.9106  1.6603
 5053SOL    HW215449   4.395   1.346   1.237 -0.8304 -0.3396  1.1621
 5054SOL     OW15450   5.537   4.509   1.957  0.0997 -0.3616 -0.0810
 5054SOL    HW115451   5.636   4.496   1.955  0.3182  0.8149 -3.4020
 5054SOL    HW215452   5.516   4.604   1.980 -0.1087 -0.1401 -1.1053
 5055SOL     OW15453   3.906   1.423   1.887 -0.0196 -0.1049 -0.0614
 5055SOL    HW115454   3.959   1.339   1.878  1.0233  0.4868  0.3728
 5055SOL    HW215455   3.869   1.429   1.980  0.2821  0.1213  0.0467
 5056SOL     OW15456   5.610   0.879   2.264  0.0236 -0.6015 -0.1943
 5056SOL    HW115457   5.679   0.900   2.194 -1.0765 -0.8738 -1.4201
 5056SOL    HW215458   5.531   0.938   2.250  0.1161 -0.0661  1.3932
 5057SOL     OW15459   3.870   2.781   0.307 -0.1837 -0.3869 -0.5162
 5057SOL    HW115460   3.776   2.805   0.283  0.0107  0.0309 -0.8852
 5057SOL    HW215461   3.872   2.741   0.398 -0.7083 -0.3127 -0.4686
 5058SOL     OW15462   0.686   1.990   1.957  0.6577  0.3142  0.1367
 5058SOL    HW115463   0.600   1.945   1.981  1.2661 -1.3754 -0.6995
 5058SOL    HW215464   0.761   1.946   2.006  1.3065  0.2024 -0.9314
 5059SOL     OW15465   1.233   1.589   0.191 -0.2271  0.3350 -0.0164
 5059SOL    HW115466   1.261   1.493   0.196  0.5960  0.6050  0.9453
 5059SOL    HW215467   1.270   1.631   0.108  0.1742  0.0522  0.0168
 5060SOL     OW15468   5.638   1.848   3.139  0.5076 -0.0862 -0.2531
 5060SOL    HW115469   5.572   1.816   3.207 -3.5974  2.0603 -2.8332
 5060SOL    HW215470   5.669   1.940   3.162  2.1828 -0.8066  0.5620
 5061SOL     OW15471   3.560   1.183   0.289 -0.5672  0.6877  0.0703
 5061SOL    HW115472   3.478   1.199   0.234 -1.1793 -1.7420  0.1907
 5061SOL    HW215473   3.619   1.117   0.243  0.7405  1.4550  0.5875
 5062SOL     OW15474   4.234   4.234   2.163  0.1444 -0.8782 -0.3941
 5062SOL    HW115475   4.260   4.184   2.081  0.3809  1.3861 -1.7578
 5062SOL    HW215476   4.221   4.331   2.142  0.4059 -0.1649  2.2775
 5063SOL     OW15477   3.940   1.295   0.772  0.2974 -0.3928 -0.7728
 5063SOL    HW115478   4.019   1.351   0.747  1.5160 -2.0182 -0.6673
 5063SOL    HW215479   3.958   1.199   0.751 -1.3424 -0.9176  0.0162
 5064SOL     OW15480   3.730   4.172   1.315  0.1801 -0.3992  0.4565
 5064SOL    HW115481   3.724   4.195   1.217 -2.3137 -0.0046  0.6138
 5064SOL    HW215482   3.726   4.256   1.368 -1.5118 -0.7179  0.9040
 5065SOL     OW15483   2.717   2.435   0.921  0.0867  0.2965  0.0998
 5065SOL    HW115484   2.767   2.512   0.882  0.4429  0.4040  0.7446
 5065SOL    HW215485   2.622   2.462   0.938  0.4320  0.9200  1.1867
 5066SOL     OW15486   4.230   1.825   0.385  0.0962  0.1780  0.0603
 5066SOL    HW115487   4.205   1.767   0.462 -0.1806 -0.4955 -0.5235
 5066SOL    HW215488   4.323   1.859   0.398  0.4402 -0.7791  0.2011
 5067SOL     OW15489   4.806   3.741   5.066  0.8420 -0.2165  0.5553
 5067SOL    HW115490   4.747   3.752   5.146  0.8562 -0.4836  0.6043
 5067SOL    HW215491   4.895   3.781   5.084  0.6935  0.1447  0.5001
 5068SOL     OW15492   2.010   0.771   1.805  0.0606 -1.0643 -0.1282
 5068SOL    HW115493   2.034   0.681   1.842 -0.9211 -1.7972 -1.1844
 5068SOL    HW215494   1.981   0.831   1.880 -1.0092 -2.2089  0.4127
 5069SOL     OW15495   4.403   2.078   1.766 -0.1979  0.1316  0.0212
 5069SOL    HW115496   4.382   2.134   1.846  0.6885  0.0696  0.3133
 5069SOL    HW215497   4.392   2.132   1.683 -0.3889  0.4199  0.2327
 5070SOL     OW15498   3.860   2.647   1.396  0.8359 -0.0514  0.2737
 5070SOL    HW115499   3.825   2.676   1.485  1.8963 -0.1603  0.7317
 5070SOL    HW215500   3.838   2.717   1.327  2.0032  1.1468  1.0676
 5071SOL     OW15501   4.234   2.487   1.187  0.3208 -0.1118 -0.3557
 5071SOL    HW115502   4.170   2.509   1.114  1.2862  0.1360 -1.1600
 5071SOL    HW215503   4.194   2.510   1.275 -0.3190  0.9357 -0.8978
 5072SOL     OW15504   5.089   1.329   1.872  0.0502 -0.5305 -0.2595
 5072SOL    HW115505   5.017   1.386   1.832  0.1016 -1.4849 -1.8069
 5072SOL    HW215506   5.145   1.384   1.934 -0.7880  0.7275 -0.5846
 5073SOL     OW15507   5.380   0.875   1.188 -0.0930 -0.3887  0.1248
 5073SOL    HW115508   5.381   0.816   1.107  2.1110 -0.2913  0.0040
 5073SOL    HW215509   5.378   0.817   1.270 -1.2936 -0.5152  0.0176
 5074SOL     OW15510   5.338   1.710   1.475  0.0049  0.4625 -0.5571
 5074SOL    HW115511   5.265   1.651   1.442  0.1403  0.1058 -0.2282
 5074SOL    HW215512   5.421   1.695   1.422  0.5983 -1.0378  0.7189
 5075SOL     OW15513   5.136   1.640   1.749  0.3279  0.0043 -0.0317
 5075SOL    HW115514   5.234   1.623   1.760  0.2063 -0.2003  0.8430
 5075SOL    HW215515   5.097   1.667   1.837 -0.1669  1.3426 -0.6284
 5076SOL     OW15516   4.895   5.278   1.636 -0.2210  0.5129 -0.1799
 5076SOL    HW115517   4.976   5.330   1.608 -0.6986  1.4361  0.1436
 5076SOL    HW215518   4.907   5.182   1.608  1.7707  0.2148  1.4054
 5077SOL     OW15519   2.988   1.231   1.854 -0.1022  0.2483 -0.1517
 5077SOL    HW115520   2.984   1.134   1.879  0.1426 -0.1601 -1.5628
 5077SOL    HW215521   3.066   1.274   1.900  1.0229 -0.7416 -1.0538
 5078SOL     OW15522   4.540   4.308   4.168  0.3492  0.6927  0.7135
 5078SOL    HW115523   4.494   4.231   4.212  2.1771 -1.0295 -0.2137
 5078SOL    HW215524   4.580   4.367   4.237  1.1828 -0.6802  1.4569
 5079SOL     OW15525   3.261   1.653   1.260  0.0651  0.4506 -0.1193
 5079SOL    HW115526   3.165   1.643   1.286  0.1921  0.8413  0.5169
 5079SOL    HW215527   3.320   1.607   1.326  0.2303 -2.0085 -1.8510
 5080SOL     OW15528   4.435   2.478   5.493 -0.0889  0.3459 -1.0015
 5080SOL    HW115529   4.527   2.470   5.531 -0.1458  1.7282 -0.5326
 5080SOL    HW215530   4.437   2.455   5.396  0.4040 -1.3594 -0.6184
 5081SOL     OW15531   4.190   3.011   5.118  0.0040  0.2742 -0.2640
 5081SOL    HW115532   4.130   3.006   5.038 -1.4829 -1.5690  0.8962
 5081SOL    HW215533   4.187   2.925   5.168 -0.3143  1.8304  2.6401
 5082SOL     OW15534   0.324   3.598   0.188  0.0197 -1.0581  0.1347
 5082SOL    HW115535   0.391   3.572   0.258 -1.7300 -2.2740  1.4223
 5082SOL    HW215536   0.232   3.586   0.224 -0.9483  1.2163 -1.3614
 5083SOL     OW15537   5.071   5.243   1.014 -0.3581  0.1157 -0.0231
 5083SOL    HW115538   5.103   5.318   0.956  1.6165  0.1817  1.0604
 5083SOL    HW215539   5.042   5.280   1.103 -1.2679 -0.2036 -0.1831
 5084SOL     OW15540   0.918   1.528   0.894  0.3474  0.4090  0.3071
 5084SOL    HW115541   0.854   1.565   0.961 -0.0936  0.3926 -0.0925
 5084SOL    HW215542   0.869   1.467   0.831  1.1099 -1.0970  1.1134
 5085SOL     OW15543   5.795   1.368   0.267 -0.2457 -0.6837 -0.4956
 5085SOL    HW115544   5.821   1.433   0.195  0.0367 -1.4146 -1.0656
 5085SOL    HW215545   5.755   1.287   0.225 -0.6547 -0.8602  0.2175
 5086SOL     OW15546   4.786   2.625   2.567 -0.1325  0.0916  0.2056
 5086SOL    HW115547   4.789   2.554   2.497 -1.0050 -0.6453  0.9027
 5086SOL    HW215548   4.866   2.684   2.557  1.5258 -1.9598  0.6537
 5087SOL     OW15549   5.159   3.138   1.187 -0.2363 -0.3726  0.6564
 5087SOL    HW115550   5.165   3.047   1.227  1.3761 -0.7947 -0.4411
 5087SOL    HW215551   5.202   3.205   1.248 -1.4052 -0.3269  1.4538
 5088SOL     OW15552   0.774   1.399   5.705  0.4666  0.6843  0.2116
 5088SOL    HW115553   0.756   1.493   5.733 -0.2263  0.3641  0.8813
 5088SOL    HW215554   0.804   1.398   5.610  0.0919  1.5500  0.0729
 5089SOL     OW15555   5.787   4.443   2.118 -0.2336  0.1664 -0.1450
 5089SOL    HW115556   5.802   4.536   2.153 -1.7726  1.5478 -2.8461
 5089SOL    HW215557   5.707   4.404   2.164 -0.0369  0.4607  0.4722
 5090SOL     OW15558   4.829   1.482   3.443 -0.0185 -0.0006 -0.0735
 5090SOL    HW115559   4.902   1.424   3.480 -2.2006 -2.0818  1.2887
 5090SOL    HW215560   4.793   1.441   3.359 -1.2192 -0.3534  0.5995
 5091SOL     OW15561   3.630   2.361   1.165 -0.4063  0.4447  0.4687
 5091SOL    HW115562   3.556   2.355   1.232 -0.7275  1.0190  0.1709
 5091SOL    HW215563   3.616   2.291   1.094 -0.2397  0.0466  0.8285
 5092SOL     OW15564   4.525   3.565   5.225 -0.0446 -0.3671 -0.3161
 5092SOL    HW115565   4.487   3.639   5.281 -0.8848 -1.6272  0.8200
 5092SOL    HW215566   4.452   3.500   5.202  0.1542  0.2664 -3.2378
 5093SOL     OW15567   3.346   1.286   1.387  0.0867  0.2769 -0.1852
 5093SOL    HW115568   3.330   1.241   1.475 -3.4126 -0.3156 -0.9482
 5093SOL    HW215569   3.371   1.382   1.402  0.1038  0.0410  1.4359
 5094SOL     OW15570   5.256   1.288   1.669  0.2951  0.6015  0.0754
 5094SOL    HW115571   5.253   1.336   1.581  2.3259  0.3241 -0.1986
 5094SOL    HW215572   5.176   1.312   1.723 -2.4383 -1.2489 -2.8431
 5095SOL     OW15573   5.029   2.735   1.094 -0.0803  0.0919  0.0407
 5095SOL    HW115574   5.029   2.795   1.173  4.0949  0.0470  0.2714
 5095SOL    HW215575   5.001   2.643   1.122 -0.2216  0.4389  1.0706
 5096SOL     OW15576   1.679   2.755   1.738 -0.2388 -0.0099 -0.6334
 5096SOL    HW115577   1.757   2.799   1.693  0.6222  0.1244  0.9230
 5096SOL    HW215578   1.652   2.674   1.686  2.2773 -1.2542 -0.1740
 5097SOL     OW15579   5.548   2.768   1.348 -0.1798  0.0857  0.0198
 5097SOL    HW115580   5.624   2.713   1.313  0.1112  0.3180  0.2879
 5097SOL    HW215581   5.574   2.864   1.349 -0.1007  0.0637  1.0988
 5098SOL     OW15582   3.718   1.953   5.207  0.2158  0.0214 -0.0411
 5098SOL    HW115583   3.629   1.911   5.225 -0.2158  1.2040  0.6985
 5098SOL    HW215584   3.785   1.916   5.270  0.0837 -0.3112 -0.0893
 5099SOL     OW15585   3.459   1.697   1.900 -0.6510 -1.3390  0.1315
 5099SOL    HW115586   3.406   1.782   1.892  0.4349 -0.6339  0.1898
 5099SOL    HW215587   3.418   1.627   1.842 -0.9077 -0.4278 -0.8257
 5100SOL     OW15588   5.108   0.675   2.896  0.0017  0.1327  0.2574
 5100SOL    HW115589   5.123   0.583   2.932  0.7598 -0.1756 -0.8197
 5100SOL    HW215590   5.074   0.669   2.802  0.5973  0.9605 -0.0176
 5101SOL     OW15591   5.240   2.956   5.375  0.2145  0.3964 -0.3233
 5101SOL    HW115592   5.157   2.959   5.320 -1.0691 -0.2564  1.4664
 5101SOL    HW215593   5.314   2.914   5.322 -0.5705  1.0106 -1.9624
 5102SOL     OW15594   3.849   2.168   1.741  0.0670  0.6253  0.5976
 5102SOL    HW115595   3.923   2.126   1.793 -2.1038  0.0781  3.5173
 5102SOL    HW215596   3.833   2.261   1.775 -1.3396  0.3060  0.8696
 5103SOL     OW15597   5.839   4.136   2.482  0.2687  0.4626 -0.2698
 5103SOL    HW115598   5.761   4.080   2.452  0.8655 -0.3215 -0.3907
 5103SOL    HW215599   5.805   4.221   2.522 -0.6096  1.3383 -2.6633
 5104SOL     OW15600   4.835   2.160   1.700  0.0763  0.3379  0.1042
 5104SOL    HW115601   4.900   2.118   1.764 -0.5560 -0.1210  0.4572
 5104SOL    HW215602   4.880   2.236   1.652  0.9366 -0.1022  0.1832
 5105SOL     OW15603   1.193   3.204   0.572  0.3395  0.0273  0.1690
 5105SOL    HW115604   1.252   3.220   0.650 -0.6617  0.0055  0.9564
 5105SOL    HW215605   1.229   3.251   0.491  1.3016  0.1699  0.6801
 5106SOL     OW15606   4.233   3.923   4.469 -0.1644 -0.4188  0.6837
 5106SOL    HW115607   4.261   4.018   4.483  1.9822 -0.9269  0.2094
 5106SOL    HW215608   4.312   3.863   4.478 -1.4120 -2.1606  0.6545
 5107SOL     OW15609   4.121   2.267   0.800  0.0003  0.1272  0.0187
 5107SOL    HW115610   4.038   2.287   0.851  0.8058 -1.2841  1.9996
 5107SOL    HW215611   4.201   2.296   0.852  0.8113 -0.1149 -1.0548
 5108SOL     OW15612   0.643   2.971   0.071 -0.7470  0.3085 -0.5863
 5108SOL    HW115613   0.603   2.945  -0.016 -1.1826 -1.1180  0.0173
 5108SOL    HW215614   0.589   2.934   0.146  0.0446  0.8611  0.2903
 5109SOL     OW15615   3.530   2.994   4.414 -0.0481  0.9123  0.3943
 5109SOL    HW115616   3.447   2.983   4.469 -0.0071 -0.3140  0.2530
 5109SOL    HW215617   3.526   3.080   4.364 -1.2977  0.8242  0.3053
 5110SOL     OW15618   0.612   2.253   0.993  0.1423 -0.1245  0.1110
 5110SOL    HW115619   0.601   2.217   1.085 -0.0416  2.0895  1.0277
 5110SOL    HW215620   0.524   2.285   0.959  0.2402 -0.7757 -0.7881
 5111SOL     OW15621   4.575   2.204   2.773 -0.1216 -0.0594 -0.3590
 5111SOL    HW115622   4.498   2.225   2.834 -1.8409 -0.9040 -2.1408
 5111SOL    HW215623   4.600   2.107   2.784 -1.4797 -0.6450 -2.0141
 5112SOL     OW15624   1.404   3.312   3.795 -0.0974 -0.1216 -0.0471
 5112SOL    HW115625   1.467   3.363   3.736 -0.2556 -0.7763 -0.7901
 5112SOL    HW215626   1.316   3.358   3.798 -0.3624 -0.5344 -1.0270
 5113SOL     OW15627   0.052   3.103   0.454  0.8451  0.3214 -0.0654
 5113SOL    HW115628   0.024   3.159   0.376  1.6653 -1.1499 -1.4615
 5113SOL    HW215629   0.062   3.162   0.534  0.4817  1.9754 -1.1768
 5114SOL     OW15630   5.793   3.705   2.899 -0.2897  0.0787  0.2781
 5114SOL    HW115631   5.813   3.655   2.814  0.3360  0.0510  0.4363
 5114SOL    HW215632   5.717   3.660   2.946 -0.2443 -0.2695  0.0302
 5115SOL     OW15633   5.341   2.684   1.514 -0.8328  0.1348  0.4358
 5115SOL    HW115634   5.414   2.703   1.448 -0.3817  0.5579  1.0534
 5115SOL    HW215635   5.256   2.665   1.464 -0.7100  1.3228 -0.2563
 5116SOL     OW15636   4.315   3.219   4.476 -0.7084  0.0279  0.1023
 5116SOL    HW115637   4.264   3.236   4.561 -0.6089  0.8038  0.0051
 5116SOL    HW215638   4.359   3.303   4.445 -2.6469  0.3795 -1.9933
 5117SOL     OW15639   5.733   3.229   0.660 -0.0077 -0.5766 -0.3866
 5117SOL    HW115640   5.660   3.294   0.639 -0.5361 -1.1346 -0.3191
 5117SOL    HW215641   5.693   3.148   0.705  0.6041 -1.0408 -0.6635
 5118SOL     OW15642   4.277   3.265   2.233 -0.0513 -0.0619 -0.3258
 5118SOL    HW115643   4.281   3.220   2.322  1.6283 -1.5832 -1.1107
 5118SOL    HW215644   4.202   3.227   2.179 -1.0692  0.8588  0.3811
 5119SOL     OW15645   5.020   1.715   2.001  0.0812 -0.0786  0.1466
 5119SOL    HW115646   4.948   1.716   2.071 -1.3967 -0.6571 -1.2954
 5119SOL    HW215647   5.109   1.729   2.044 -0.9712  1.8197  1.8703
 5120SOL     OW15648   4.385   3.015   1.426 -0.2760  0.1136 -0.5278
 5120SOL    HW115649   4.329   2.996   1.345  0.7177  0.0010 -1.2036
 5120SOL    HW215650   4.404   3.113   1.431 -2.5330  0.5510  1.0632
 5121SOL     OW15651   2.607   2.926   0.279  0.0880 -0.5477 -0.2664
 5121SOL    HW115652   2.540   2.901   0.209 -0.6830 -1.3940  0.7376
 5121SOL    HW215653   2.577   2.890   0.368  1.4707 -0.2208  0.3524
 5122SOL     OW15654   5.781   1.935   1.279  0.6354  0.6263 -0.2193
 5122SOL    HW115655   5.829   1.883   1.350 -2.4303  0.3217  1.8186
 5122SOL    HW215656   5.802   2.032   1.290  1.9931  0.3744 -0.4280
 5123SOL     OW15657   4.614   2.585   1.476 -0.0131  0.3719 -0.6772
 5123SOL    HW115658   4.575   2.510   1.529  0.0864 -0.1868 -1.3626
 5123SOL    HW215659   4.713   2.589   1.491 -0.2079  1.2725  0.4398
 5124SOL     OW15660   3.600   3.042   1.218 -0.4449 -1.0401  0.6705
 5124SOL    HW115661   3.522   3.103   1.232  1.8824  1.5254  4.7748
 5124SOL    HW215662   3.665   3.086   1.155 -0.5341 -1.2458  0.4339
 5125SOL     OW15663   3.781   3.329   0.289  0.0280 -0.0437  0.8263
 5125SOL    HW115664   3.837   3.381   0.354  0.2596 -0.3238  0.8544
 5125SOL    HW215665   3.774   3.380   0.204  2.0968 -0.9235  0.0675
 5126SOL     OW15666   2.485   3.468   1.424 -0.0424 -0.0103 -0.7132
 5126SOL    HW115667   2.520   3.382   1.461  1.1048  1.2364  1.2647
 5126SOL    HW215668   2.386   3.472   1.435  0.1095 -0.2998  0.9122
 5127SOL     OW15669   3.291   1.396   3.438 -0.0683  0.2051  0.0989
 5127SOL    HW115670   3.340   1.311   3.458 -0.0619  0.0876 -0.3920
 5127SOL    HW215671   3.219   1.409   3.506 -1.8512 -1.6216 -1.2808
 5128SOL     OW15672   4.060   1.614   2.995 -0.3388 -0.3845  0.0060
 5128SOL    HW115673   4.034   1.519   3.009  0.6478 -0.2743  3.5915
 5128SOL    HW215674   3.992   1.674   3.037  0.7726  0.3074  0.8799
 5129SOL     OW15675   0.625   2.344   1.693 -0.8212 -0.1759 -0.6511
 5129SOL    HW115676   0.568   2.388   1.762  1.4818 -0.7471  1.7917
 5129SOL    HW215677   0.577   2.266   1.654 -2.0019 -0.1735  0.7266
 5130SOL     OW15678   5.080   0.952   2.133 -0.0991 -1.0066  0.1383
 5130SOL    HW115679   5.118   0.966   2.224 -1.1033 -0.1668  0.4547
 5130SOL    HW215680   5.023   1.031   2.108 -0.3182 -1.4931 -0.9689
 5131SOL     OW15681   5.923   2.273   1.500 -0.2544  0.5999 -0.6415
 5131SOL    HW115682   5.888   2.363   1.524 -0.7608 -0.1726  1.8744
 5131SOL    HW215683   6.006   2.254   1.553  0.4657 -0.0077 -1.9429
 5132SOL     OW15684   5.319   2.363   2.487 -0.0121 -0.4556  0.4745
 5132SOL    HW115685   5.255   2.407   2.550  0.3387  0.1792  0.3996
 5132SOL    HW215686   5.279   2.360   2.396 -0.3662 -1.0366  0.6396
 5133SOL     OW15687   5.829   2.365   0.449 -0.2250  0.4122 -0.3330
 5133SOL    HW115688   5.862   2.317   0.367  0.0776  1.6765 -0.9648
 5133SOL    HW215689   5.882   2.335   0.528 -0.9024 -1.2562 -0.4708
 5134SOL     OW15690   4.622   2.833   2.487 -0.0785 -0.6579 -0.5735
 5134SOL    HW115691   4.689   2.761   2.507  0.8528  0.0496 -1.0357
 5134SOL    HW215692   4.607   2.887   2.570  0.7826 -0.1425 -0.7393
 5135SOL     OW15693   2.260   4.604   1.594  0.0150 -0.6652  0.1090
 5135SOL    HW115694   2.189   4.673   1.577  0.6435  0.1695  0.7513
 5135SOL    HW215695   2.221   4.513   1.582 -0.5330 -0.2163 -1.9812
 5136SOL     OW15696   3.104   2.914   1.515 -0.1545  0.1117  0.3075
 5136SOL    HW115697   3.068   3.006   1.499 -3.1025 -1.0251 -0.1621
 5136SOL    HW215698   3.195   2.921   1.556  0.2320  3.1920 -0.8009
 5137SOL     OW15699   4.547   1.704   1.380  0.1578  0.1324 -0.0087
 5137SOL    HW115700   4.614   1.680   1.451 -0.3571  3.3579  1.7644
 5137SOL    HW215701   4.456   1.675   1.408  0.1917 -0.2317 -0.2642
 5138SOL     OW15702   4.148   1.295   1.140 -0.1001  0.2105 -0.3738
 5138SOL    HW115703   4.052   1.271   1.122 -0.0029 -0.7429  0.3419
 5138SOL    HW215704   4.151   1.370   1.207 -0.3370 -0.1053 -0.0055
 5139SOL     OW15705   5.104   3.005   0.086  0.1564 -0.5870 -0.0733
 5139SOL    HW115706   5.180   3.005   0.151 -0.7980  1.0203  1.0948
 5139SOL    HW215707   5.118   3.078   0.019  0.0072 -0.7860 -0.3227
 5140SOL     OW15708   4.967   3.612   0.200 -0.2901 -0.3741 -0.8792
 5140SOL    HW115709   4.941   3.636   0.294 -0.6403 -1.4908 -0.6686
 5140SOL    HW215710   5.027   3.682   0.163  1.7387 -1.0098  1.0080
 5141SOL     OW15711   4.918   2.880   2.760 -0.0708  0.2156 -0.3702
 5141SOL    HW115712   4.892   2.977   2.763  0.6567  0.3813  0.8720
 5141SOL    HW215713   4.959   2.860   2.671  1.0772  1.4028 -0.1454
 5142SOL     OW15714   5.322   1.976   0.670  0.0137  0.3997 -0.1419
 5142SOL    HW115715   5.395   1.929   0.720 -1.9125 -0.6883  1.8581
 5142SOL    HW215716   5.271   1.909   0.616  1.0267  1.3088 -2.3202
 5143SOL     OW15717   4.025   5.319   3.100 -0.2846  0.2265  0.7881
 5143SOL    HW115718   4.045   5.224   3.124 -1.6151 -0.2941 -0.0680
 5143SOL    HW215719   3.956   5.355   3.163 -1.6611 -0.2156 -0.4302
 5144SOL     OW15720   5.561   5.033   5.601 -0.1242  0.0842 -0.0397
 5144SOL    HW115721   5.586   5.060   5.694 -0.9655  1.7212 -0.2614
 5144SOL    HW215722   5.591   4.939   5.585 -0.0679 -0.2684  1.9141
 5145SOL     OW15723   5.712   2.831   0.010  0.0995 -0.5351  0.5111
 5145SOL    HW115724   5.778   2.805  -0.059 -0.2905  1.5130 -0.7201
 5145SOL    HW215725   5.749   2.814   0.101  1.4429 -1.3769 -0.1765
 5146SOL     OW15726   3.457   4.352   1.892 -0.1856 -0.1112 -0.0097
 5146SOL    HW115727   3.477   4.370   1.796  0.3250  0.1643  0.1483
 5146SOL    HW215728   3.508   4.272   1.923 -0.3504 -0.2013  0.0365
 5147SOL     OW15729   4.980   2.795   0.633  0.1917  0.1630  0.2322
 5147SOL    HW115730   5.041   2.843   0.571  0.9758  1.4418  1.9034
 5147SOL    HW215731   5.023   2.789   0.724 -1.1886 -1.0110  0.8542
 5148SOL     OW15732   4.926   2.149   2.097 -0.0747 -0.3473 -0.0127
 5148SOL    HW115733   4.958   2.105   2.013 -0.7098 -1.3334  0.2394
 5148SOL    HW215734   4.829   2.171   2.088 -0.1680 -0.5414  0.4919
 5149SOL     OW15735   0.617   3.167   2.094 -0.5124  0.1278 -0.0216
 5149SOL    HW115736   0.529   3.150   2.051 -0.1650 -0.1901 -0.6214
 5149SOL    HW215737   0.645   3.087   2.146  0.1980 -0.4183 -1.2143
 5150SOL     OW15738   4.758   2.146   1.418  0.3710  0.2315  0.9258
 5150SOL    HW115739   4.800   2.123   1.506 -0.7526 -0.6080  1.2708
 5150SOL    HW215740   4.680   2.085   1.401  1.5408 -0.7471 -1.4409
 5151SOL     OW15741   3.356   4.333   2.734 -0.0811 -0.7377  0.0636
 5151SOL    HW115742   3.287   4.291   2.674  0.6100  1.2320 -2.2860
 5151SOL    HW215743   3.435   4.274   2.740  0.0546 -0.7790 -1.5044
 5152SOL     OW15744   3.753   3.477   0.038  0.1990  0.3087 -0.6001
 5152SOL    HW115745   3.667   3.450  -0.005  1.0808 -2.4617 -0.8273
 5152SOL    HW215746   3.757   3.577   0.045 -5.0382  0.7000  3.5380
 5153SOL     OW15747   4.482   3.572   1.447 -0.1398  0.0736 -0.0264
 5153SOL    HW115748   4.427   3.523   1.514  1.3588 -1.4892  0.1288
 5153SOL    HW215749   4.496   3.514   1.367  0.9913  0.5565 -0.1939
 5154SOL     OW15750   4.504   5.209   1.850 -0.3455  0.1790 -0.1567
 5154SOL    HW115751   4.493   5.154   1.766 -0.5472 -1.1512  0.7072
 5154SOL    HW215752   4.528   5.148   1.926  0.1152  1.4021  0.7024
 5155SOL     OW15753   4.061   2.687   2.341  0.5122 -0.3558 -0.2339
 5155SOL    HW115754   4.009   2.674   2.256  1.9832  1.8568 -1.5559
 5155SOL    HW215755   4.060   2.601   2.393 -2.1864 -1.1678 -1.4236
 5156SOL     OW15756   4.601   3.108   2.404  0.7041 -0.1440  0.1803
 5156SOL    HW115757   4.627   3.012   2.410 -2.0990 -1.0388 -0.1472
 5156SOL    HW215758   4.671   3.160   2.355  2.1456 -2.0781  0.1333
 5157SOL     OW15759   5.130   3.215   5.876  0.0118 -0.1089 -0.2630
 5157SOL    HW115760   5.118   3.307   5.913 -0.9191 -0.6601  0.8940
 5157SOL    HW215761   5.068   3.201   5.800  0.2883  0.2753 -0.5620
 5158SOL     OW15762   4.319   1.492   0.963  0.2574 -0.8366 -0.5676
 5158SOL    HW115763   4.258   1.417   0.987 -0.1113  0.1891  2.0669
 5158SOL    HW215764   4.318   1.561   1.036  3.0312  0.1870 -1.3491
 5159SOL     OW15765   4.104   3.094   2.083  0.2602  0.1793  0.7162
 5159SOL    HW115766   4.160   3.031   2.137 -1.8814 -2.3531  0.1714
 5159SOL    HW215767   4.156   3.124   2.003  1.3662 -0.9019  0.9995
 5160SOL     OW15768   2.921   2.602   1.010  0.7628  0.1042 -0.2870
 5160SOL    HW115769   2.920   2.536   1.085  0.2383  1.6137  1.0852
 5160SOL    HW215770   2.949   2.692   1.044  0.3388  0.8679 -1.8527
 5161SOL     OW15771   4.158   4.946   0.819  0.4642  0.1385  0.2243
 5161SOL    HW115772   4.071   4.995   0.809  0.2032 -0.4614 -0.5450
 5161SOL    HW215773   4.221   4.974   0.746  1.0517  0.8300  0.9848
 5162SOL     OW15774   4.378   3.188   5.205  0.2957 -0.3650  0.1606
 5162SOL    HW115775   4.330   3.241   5.275  0.6938 -2.4535  2.1687
 5162SOL    HW215776   4.312   3.131   5.156  0.0169  1.0941 -1.2085
 5163SOL     OW15777   3.241   1.949   5.447 -0.7104  0.0738 -0.2552
 5163SOL    HW115778   3.230   1.937   5.348  1.3683 -2.1627 -0.3095
 5163SOL    HW215779   3.265   1.862   5.489 -0.1821  1.2422  2.0600
 5164SOL     OW15780   5.537   2.489   1.095 -0.5282  0.3991 -0.1745
 5164SOL    HW115781   5.599   2.565   1.076  0.6119 -0.8363 -1.6385
 5164SOL    HW215782   5.561   2.448   1.183  0.4222  0.2226 -0.5140
 5165SOL     OW15783   0.029   5.341   1.200  0.2003  0.1442  0.8170
 5165SOL    HW115784   0.080   5.277   1.257  0.1864 -0.1935  0.4587
 5165SOL    HW215785   0.028   5.308   1.106 -2.5661 -1.0578  1.1687
 5166SOL     OW15786   5.576   1.850   5.769  0.9228 -0.1838 -0.4999
 5166SOL    HW115787   5.540   1.943   5.757  2.2666  0.3222 -0.9025
 5166SOL    HW215788   5.601   1.836   5.865  1.6560  0.2475 -0.6205
 5167SOL     OW15789   5.536   2.655   1.803 -0.4533 -0.0684  0.4030
 5167SOL    HW115790   5.478   2.577   1.778 -0.8453  0.4628 -0.3878
 5167SOL    HW215791   5.527   2.727   1.734 -0.9504  1.1258  1.6568
 5168SOL     OW15792   5.275   2.968   1.623  0.6061  0.0408 -0.5492
 5168SOL    HW115793   5.214   2.910   1.570  2.7045 -1.9375 -0.9156
 5168SOL    HW215794   5.270   3.062   1.588 -2.1015 -0.0239 -0.5867
 5169SOL     OW15795   3.585   2.479   0.566  0.1959 -0.2844  0.3502
 5169SOL    HW115796   3.550   2.407   0.627 -0.8954 -0.5446 -0.5511
 5169SOL    HW215797   3.624   2.437   0.484  1.3013  0.0873  0.6553
 5170SOL     OW15798   4.116   2.688   5.874 -0.1584 -0.1283  0.0260
 5170SOL    HW115799   4.180   2.643   5.936 -1.6185 -1.1879  0.8243
 5170SOL    HW215800   4.114   2.639   5.786  0.0032 -0.1850  0.0534
 5171SOL     OW15801   1.000   2.949   1.341  0.2776 -0.0812  0.4063
 5171SOL    HW115802   0.958   3.016   1.279  0.6007  0.1228  0.4079
 5171SOL    HW215803   1.096   2.971   1.354  1.2198 -2.3158 -2.0590
 5172SOL     OW15804   1.034   4.212   2.037 -0.7262 -0.2232  0.3923
 5172SOL    HW115805   1.031   4.248   2.130  0.5408  1.4860 -0.1816
 5172SOL    HW215806   1.125   4.226   1.998 -0.7837 -2.2822 -0.6163
 5173SOL     OW15807   0.498   4.107   0.046  0.2785 -0.1756 -0.7584
 5173SOL    HW115808   0.515   4.079   0.141 -0.7148 -0.9303 -0.7848
 5173SOL    HW215809   0.585   4.120  -0.001  0.7897 -1.2441 -0.1503
 5174SOL     OW15810   3.115   4.082   0.906  0.1996  0.0956  0.5253
 5174SOL    HW115811   3.024   4.082   0.866  0.1931 -2.5338  0.4072
 5174SOL    HW215812   3.180   4.124   0.842 -0.9130  2.4640  0.8224
 5175SOL     OW15813   4.447   2.297   5.876 -0.2829  0.1468  0.1369
 5175SOL    HW115814   4.395   2.271   5.957 -1.0532  2.1325  0.3143
 5175SOL    HW215815   4.527   2.350   5.903  0.8335 -1.2445 -0.2782
 5176SOL     OW15816   5.578   2.362   2.487 -0.0169  0.0129 -0.6044
 5176SOL    HW115817   5.595   2.263   2.493 -1.7836 -0.2837  0.2195
 5176SOL    HW215818   5.479   2.378   2.479  0.1435  1.7432  0.4072
 5177SOL     OW15819   1.172   1.434   1.089  0.4372 -0.3174 -0.2693
 5177SOL    HW115820   1.174   1.526   1.127 -2.9313 -0.1914 -0.0798
 5177SOL    HW215821   1.185   1.439   0.990 -1.5979  0.6864 -0.5509
 5178SOL     OW15822   4.546   2.478   0.481  0.6901  0.1506 -0.6141
 5178SOL    HW115823   4.642   2.502   0.491  1.2384 -1.9916 -0.2269
 5178SOL    HW215824   4.493   2.516   0.557  1.7095 -0.8375  0.6233
 5179SOL     OW15825   5.781   2.369   5.587 -1.0189 -0.3669 -0.1875
 5179SOL    HW115826   5.800   2.466   5.604 -1.5062 -0.5549  1.5826
 5179SOL    HW215827   5.721   2.361   5.507 -0.4937  0.7271 -0.7313
 5180SOL     OW15828   4.218   3.260   0.782  0.3590  0.3151  0.2150
 5180SOL    HW115829   4.303   3.256   0.834  0.1945  1.9239  0.6644
 5180SOL    HW215830   4.239   3.267   0.685  0.8590  2.8646  0.4426
 5181SOL     OW15831   2.141   4.207   5.423  0.0204  0.0902 -0.0880
 5181SOL    HW115832   2.069   4.196   5.356 -0.4203  0.9297  0.2359
 5181SOL    HW215833   2.102   4.239   5.510  0.7221  0.1434  0.2172
 5182SOL     OW15834   4.473   3.700   2.874 -0.4903  0.5047 -0.5401
 5182SOL    HW115835   4.476   3.629   2.803  1.0786  0.5681 -0.5825
 5182SOL    HW215836   4.378   3.719   2.899 -0.9507 -1.6199 -0.5158
 5183SOL     OW15837   4.909   3.179   0.754  0.4174 -0.3675 -0.2185
 5183SOL    HW115838   4.840   3.116   0.788  0.2507  0.1932  0.5165
 5183SOL    HW215839   5.000   3.142   0.773  0.3213 -0.4156  0.1633
 5184SOL     OW15840   3.952   3.699   0.941 -0.5338 -0.3901 -0.0816
 5184SOL    HW115841   3.986   3.632   0.875  0.2359 -3.5862  3.2486
 5184SOL    HW215842   3.872   3.662   0.988 -1.1583  1.8230  0.7155
 5185SOL     OW15843   3.633   2.256   0.424 -0.6488 -0.1753 -0.0769
 5185SOL    HW115844   3.722   2.222   0.395 -1.0602 -1.4900  0.1445
 5185SOL    HW215845   3.583   2.290   0.344 -0.3758 -0.4434 -0.3618
 5186SOL     OW15846   4.213   2.930   1.615  0.2993  0.5401 -0.3058
 5186SOL    HW115847   4.269   2.966   1.540 -1.1383  2.5263 -0.5214
 5186SOL    HW215848   4.268   2.928   1.699  1.8948 -1.6080 -1.3220
 5187SOL     OW15849   5.288   3.583   1.631 -0.1018  0.0430 -0.4129
 5187SOL    HW115850   5.349   3.628   1.566 -0.3588 -0.7261 -1.2217
 5187SOL    HW215851   5.198   3.570   1.589 -0.3759 -0.1625  0.2198
 5188SOL     OW15852   5.941   2.444   2.108 -0.0644  0.2824 -0.2999
 5188SOL    HW115853   5.921   2.530   2.155 -1.9226  0.3179 -1.0911
 5188SOL    HW215854   5.954   2.461   2.010  0.9333 -0.1669 -0.2569
 5189SOL     OW15855   5.594   3.563   1.343  0.0839  0.2840  0.3934
 5189SOL    HW115856   5.624   3.467   1.338  0.9260  0.3824  2.6044
 5189SOL    HW215857   5.665   3.622   1.303  0.0168  0.0565 -0.0622
 5190SOL     OW15858   3.766   2.425   2.532  0.5154 -0.1576  0.3410
 5190SOL    HW115859   3.781   2.412   2.630 -1.6284 -0.6973  0.6305
 5190SOL    HW215860   3.750   2.336   2.489 -0.5326  0.2481 -0.1248
 5191SOL     OW15861   4.860   1.228   1.273  0.3923  0.3632 -0.1702
 5191SOL    HW115862   4.858   1.150   1.211  1.2033 -1.4460  1.9429
 5191SOL    HW215863   4.780   1.285   1.257 -0.3019 -0.9578 -1.7008
 5192SOL     OW15864   3.260   3.260   1.477  0.0759  0.1224 -0.5789
 5192SOL    HW115865   3.318   3.304   1.546 -1.8362 -0.0004  1.2426
 5192SOL    HW215866   3.309   3.253   1.391  1.7354  2.5378  0.0661
 5193SOL     OW15867   0.326   5.890   0.470 -0.0722 -0.4946 -0.2203
 5193SOL    HW115868   0.378   5.964   0.427 -0.8853  1.8063  2.4897
 5193SOL    HW215869   0.232   5.921   0.488 -0.6982 -2.5053  0.2326
 5194SOL     OW15870   3.064   0.845   5.012  0.1913  0.0039  0.2101
 5194SOL    HW115871   3.138   0.913   5.011 -0.5743  0.9151  1.8524
 5194SOL    HW215872   2.978   0.890   5.039 -0.7363 -1.2555 -0.5557
 5195SOL     OW15873   4.876   0.967   1.168  0.4452  0.2946  0.2570
 5195SOL    HW115874   4.788   0.928   1.194  0.4497 -0.1187 -0.3281
 5195SOL    HW215875   4.945   0.895   1.166  0.4170  0.2836 -1.0128
 5196SOL     OW15876   4.341   0.870   3.908 -0.5778 -0.7619 -0.0482
 5196SOL    HW115877   4.305   0.900   3.996  1.8997  1.0628  0.4608
 5196SOL    HW215878   4.277   0.895   3.836 -1.0555  1.0169  0.9293
 5197SOL     OW15879   4.414   3.576   3.363 -0.3977  0.2997  0.5149
 5197SOL    HW115880   4.405   3.593   3.265 -0.8904 -2.5345 -0.0036
 5197SOL    HW215881   4.325   3.589   3.407 -0.2441  1.2761  0.5519
 5198SOL     OW15882   0.187   1.176   5.359  0.3379 -0.5230 -0.2057
 5198SOL    HW115883   0.116   1.164   5.289  1.3080  0.0381 -1.2997
 5198SOL    HW215884   0.257   1.106   5.347  1.3412  0.5638 -0.8469
 5199SOL     OW15885   5.294   1.809   0.203 -0.2559 -0.3045 -0.0953
 5199SOL    HW115886   5.229   1.733   0.203 -1.5565  0.7713  0.5929
 5199SOL    HW215887   5.315   1.835   0.108 -3.9997  1.8728 -0.5368
 5200SOL     OW15888   2.309   2.923   0.161  0.2406 -0.0617 -0.8756
 5200SOL    HW115889   2.252   2.843   0.145 -0.6603  0.6061 -1.1089
 5200SOL    HW215890   2.358   2.946   0.077  1.0283 -0.7575 -0.6175
 5201SOL     OW15891   4.975   2.045   0.770 -0.0830  0.1531 -0.5599
 5201SOL    HW115892   5.019   2.097   0.696 -1.0570  1.3466 -0.3434
 5201SOL    HW215893   5.026   2.059   0.855  0.8436 -0.9476 -0.9138
 5202SOL     OW15894   3.135   3.035   2.281 -0.7320  0.1026  0.5034
 5202SOL    HW115895   3.119   3.071   2.372 -1.2109  0.5187  0.2549
 5202SOL    HW215896   3.082   3.087   2.214 -0.1112  0.0339 -0.0546
 5203SOL     OW15897   5.247   2.846   0.948 -0.1345 -0.0944  0.4859
 5203SOL    HW115898   5.165   2.820   0.999  0.1729 -0.7475  0.6624
 5203SOL    HW215899   5.304   2.765   0.934  1.8143  0.7799  2.7262
 5204SOL     OW15900   4.240   1.331   1.692 -0.6236  0.1770  0.1501
 5204SOL    HW115901   4.192   1.413   1.723 -1.7038 -0.2554 -0.3055
 5204SOL    HW215902   4.241   1.263   1.766  3.3506  1.7647  1.8308
 5205SOL     OW15903   5.362   4.243   0.563  0.4832 -0.7748 -0.1227
 5205SOL    HW115904   5.456   4.252   0.596 -0.0091 -1.7993  1.6856
 5205SOL    HW215905   5.319   4.333   0.557  1.2056 -0.4038  0.2102
 5206SOL     OW15906   3.159   4.815   5.356  0.2369  0.0630 -0.2995
 5206SOL    HW115907   3.103   4.739   5.324  0.6184  0.0514 -0.9557
 5206SOL    HW215908   3.117   4.902   5.330 -0.5932  0.1126  1.1072
 5207SOL     OW15909   5.711   3.330   1.408  0.1907 -0.0300 -0.1410
 5207SOL    HW115910   5.688   3.265   1.480  1.0871  0.9000  1.0422
 5207SOL    HW215911   5.758   3.283   1.334 -0.2411 -0.9207  0.1384
 5208SOL     OW15912   3.384   1.550   1.488 -0.2361 -0.2609  0.1195
 5208SOL    HW115913   3.398   1.496   1.571 -2.4469 -0.4774  0.4176
 5208SOL    HW215914   3.381   1.647   1.511 -1.7164 -0.3654  0.4825
 5209SOL     OW15915   0.968   3.150   1.650 -0.4632 -0.4917  0.2201
 5209SOL    HW115916   0.881   3.176   1.692 -1.0838 -1.9154 -0.0934
 5209SOL    HW215917   1.011   3.079   1.706  0.3161 -0.0724  0.1619
 5210SOL     OW15918   5.302   2.984   0.285 -0.0231  0.2055  0.1004
 5210SOL    HW115919   5.282   2.886   0.278 -1.3084  0.5326 -1.2896
 5210SOL    HW215920   5.396   2.996   0.317  0.8401 -1.5369 -1.5464
 5211SOL     OW15921   3.230   2.432   1.168  0.4334  0.2972 -0.2409
 5211SOL    HW115922   3.198   2.417   1.074  0.6723  1.2931 -0.4905
 5211SOL    HW215923   3.234   2.530   1.187 -0.2675  0.0914  1.0494
 5212SOL     OW15924   4.514   1.579   2.724 -0.1994  0.5492 -0.3213
 5212SOL    HW115925   4.426   1.614   2.690 -0.1850 -0.2214 -1.2201
 5212SOL    HW215926   4.556   1.522   2.653 -0.4475 -1.6632  1.2128
 5213SOL     OW15927   4.825   0.534   1.594 -0.3137  0.2124 -0.5021
 5213SOL    HW115928   4.798   0.594   1.519  2.6215  0.4114 -1.5379
 5213SOL    HW215929   4.806   0.439   1.569 -3.0950  0.4538  0.3076
 5214SOL     OW15930   5.451   3.351   2.001 -0.0158  0.3146  0.4034
 5214SOL    HW115931   5.453   3.252   1.989 -1.0642  0.4279 -1.0136
 5214SOL    HW215932   5.467   3.374   2.097  1.3234 -1.1552  0.5609
 5215SOL     OW15933   0.450   4.425   0.967 -0.1752 -0.1831  0.5695
 5215SOL    HW115934   0.453   4.519   1.003 -0.8812 -0.2870  0.9312
 5215SOL    HW215935   0.453   4.360   1.043  0.1666 -0.4537  0.3276
 5216SOL     OW15936   3.007   3.498   1.250 -0.2721  0.3685  0.0912
 5216SOL    HW115937   3.037   3.555   1.173 -0.2787  0.5700  0.2371
 5216SOL    HW215938   3.075   3.504   1.324 -0.2005  0.0702  0.0479
 5217SOL     OW15939   4.998   4.350   1.878 -0.4594 -0.0333 -0.3049
 5217SOL    HW115940   5.030   4.271   1.930 -1.7359 -0.8632 -0.7408
 5217SOL    HW215941   4.949   4.413   1.938  1.3391  0.9279  0.2351
 5218SOL     OW15942   0.197   0.781   0.150  0.4183  0.3661 -0.1606
 5218SOL    HW115943   0.242   0.864   0.117  2.2933 -0.0655  1.1610
 5218SOL    HW215944   0.188   0.785   0.250 -1.3359 -0.1608 -0.2632
 5219SOL     OW15945   5.220   2.959   2.854 -0.1694 -0.0534 -0.0115
 5219SOL    HW115946   5.192   2.979   2.948 -2.1020 -1.2548 -0.2749
 5219SOL    HW215947   5.172   3.020   2.791  0.2172 -0.0488 -0.3055
 5220SOL     OW15948   3.974   2.835   4.948  0.8406  0.3353  0.0670
 5220SOL    HW115949   3.966   2.745   4.905  1.3795  0.0145  0.6114
 5220SOL    HW215950   4.028   2.896   4.890 -0.0327  0.4981 -0.5843
 5221SOL     OW15951   5.492   3.781   0.024  0.8080 -0.7347 -0.7724
 5221SOL    HW115952   5.556   3.714   0.061 -0.9151 -1.4367  1.1684
 5221SOL    HW215953   5.426   3.736  -0.036  0.9729 -0.3839 -1.2178
 5222SOL     OW15954   5.011   3.429   5.156 -0.0366 -0.6661  0.1982
 5222SOL    HW115955   4.911   3.425   5.152 -0.0339 -0.3759 -0.1648
 5222SOL    HW215956   5.048   3.430   5.063  0.3198 -1.0842  0.3296
 5223SOL     OW15957   5.294   0.775   2.344 -0.2765 -0.0561  0.5088
 5223SOL    HW115958   5.257   0.865   2.366  2.0472  1.1433 -0.1761
 5223SOL    HW215959   5.284   0.758   2.246 -2.9153 -1.7019  0.9515
 5224SOL     OW15960   3.367   1.423   1.738 -0.7486 -0.9043  0.0063
 5224SOL    HW115961   3.279   1.455   1.772 -1.4222  0.2317 -2.5601
 5224SOL    HW215962   3.367   1.323   1.734 -1.3897 -0.9732  1.2698
 5225SOL     OW15963   3.398   1.849   0.430  0.8007 -0.0084  0.0277
 5225SOL    HW115964   3.445   1.925   0.476  1.2318  0.7042 -1.5353
 5225SOL    HW215965   3.349   1.795   0.498  1.9292  0.6286  1.4047
 5226SOL     OW15966   4.425   3.966   0.776 -0.2844 -0.1409  0.1752
 5226SOL    HW115967   4.426   4.023   0.694 -1.5933 -0.1289  0.1373
 5226SOL    HW215968   4.497   3.897   0.770 -1.0877 -0.8972 -1.5638
 5227SOL     OW15969   4.625   0.067   1.839  0.1704  0.0874 -0.0868
 5227SOL    HW115970   4.609   0.155   1.795  0.4405  0.3301  0.2938
 5227SOL    HW215971   4.578  -0.005   1.787 -0.8600  0.5746  0.1391
 5228SOL     OW15972   2.495   2.205   3.872 -0.2170 -0.0860 -0.4930
 5228SOL    HW115973   2.556   2.128   3.852  0.0662  0.0824 -0.2748
 5228SOL    HW215974   2.405   2.169   3.898 -0.2925 -0.3264 -1.0698
 5229SOL     OW15975   3.918   1.872   1.181 -0.2229 -0.7955  0.2884
 5229SOL    HW115976   3.838   1.874   1.242  0.1575  0.1376  0.7729
 5229SOL    HW215977   3.908   1.944   1.112  1.0205  0.5272  1.4376
 5230SOL     OW15978   4.008   4.326   2.710  0.1008 -0.2875  0.4684
 5230SOL    HW115979   4.004   4.393   2.784  1.2666 -0.6433  0.8732
 5230SOL    HW215980   4.018   4.374   2.623 -0.9461  0.1192  0.5572
 5231SOL     OW15981   5.263   1.775   2.126  0.0626  0.1978 -0.5397
 5231SOL    HW115982   5.254   1.788   2.224 -0.1154  0.9604 -0.6510
 5231SOL    HW215983   5.333   1.705   2.108  0.5527  0.5080  0.1071
 5232SOL     OW15984   3.657   2.177   1.520  0.2357 -0.2568 -0.3772
 5232SOL    HW115985   3.744   2.195   1.565  0.2402  0.1678 -0.5537
 5232SOL    HW215986   3.620   2.262   1.483  0.2562 -0.6013 -1.2125
 5233SOL     OW15987   0.059   2.407   0.949 -0.2206 -0.0360 -0.1745
 5233SOL    HW115988   0.015   2.322   0.979 -0.5976  0.2133 -0.0146
 5233SOL    HW215989   0.064   2.471   1.025  1.6503 -0.5418  0.1819
 5234SOL     OW15990   5.171   2.629   2.352 -0.3316 -0.0106 -0.4688
 5234SOL    HW115991   5.268   2.641   2.369 -0.4655  0.6266 -0.1236
 5234SOL    HW215992   5.128   2.585   2.431 -0.2607 -0.6637 -0.7826
 5235SOL     OW15993   4.937   1.232   3.897 -0.1444 -0.1019 -0.1918
 5235SOL    HW115994   4.902   1.319   3.861 -0.2127 -1.0177 -2.5310
 5235SOL    HW215995   4.919   1.159   3.831  1.1758 -1.6467  1.0719
 5236SOL     OW15996   5.477   3.366   0.766 -0.1168  0.2397 -0.0521
 5236SOL    HW115997   5.401   3.315   0.807  0.7355 -2.5405 -1.6171
 5236SOL    HW215998   5.475   3.353   0.667 -0.4684  4.3557 -0.7284
 5237SOL     OW15999   4.252   3.812   3.228 -0.5452 -0.2458 -0.2012
 5237SOL    HW116000   4.266   3.910   3.214 -2.4467  0.0404 -0.4462
 5237SOL    HW216001   4.280   3.787   3.320 -0.3579  0.6087 -0.0153
 5238SOL     OW16002   3.886   2.952   3.167  0.3570 -0.0673  0.3235
 5238SOL    HW116003   3.911   2.856   3.152  0.5632  0.1843 -1.0486
 5238SOL    HW216004   3.786   2.961   3.167  0.3503 -0.0872 -0.9162
 5239SOL     OW16005   4.002   4.624   3.478 -0.1908 -0.1189  0.2259
 5239SOL    HW116006   4.092   4.667   3.470 -0.5577  0.8153  0.8761
 5239SOL    HW216007   3.950   4.639   3.394 -0.9257  2.2318  1.0087
 5240SOL     OW16008   4.070   2.973   3.941  0.2099  0.1944 -0.2470
 5240SOL    HW116009   4.041   2.895   3.885  1.2815 -2.1175  2.1650
 5240SOL    HW216010   4.004   2.988   4.014  0.3471  1.1805 -0.3056
 5241SOL     OW16011   5.172   1.584   0.166 -0.4450  0.2436  0.4423
 5241SOL    HW116012   5.141   1.500   0.123 -0.8433  0.0144  1.1552
 5241SOL    HW216013   5.254   1.566   0.220  1.6215  1.0422 -2.2256
 5242SOL     OW16014   5.289   3.486   3.543  0.2078 -0.9194 -0.6034
 5242SOL    HW116015   5.208   3.438   3.508  0.6339 -1.6580 -0.5918
 5242SOL    HW216016   5.322   3.550   3.473 -1.0411  0.2415 -0.1906
 5243SOL     OW16017   4.128   0.126   2.823 -0.5922  0.7789  0.3392
 5243SOL    HW116018   4.125   0.029   2.799 -0.3074  0.8605 -0.0356
 5243SOL    HW216019   4.200   0.171   2.771 -1.1604  1.3258  0.0033
 5244SOL     OW16020   4.285   2.653   2.549  0.0712  0.0568  1.0001
 5244SOL    HW116021   4.314   2.599   2.627 -0.3415  0.4419  1.4272
 5244SOL    HW216022   4.300   2.601   2.465  2.3823  0.3910  1.1413
 5245SOL     OW16023   5.809   1.318   3.364  0.7221  0.2692  0.3779
 5245SOL    HW116024   5.801   1.222   3.389  2.7540  0.0191  0.1799
 5245SOL    HW216025   5.723   1.349   3.323  0.5478 -1.9071 -1.0509
 5246SOL     OW16026   2.877   2.781   1.565 -0.3273  0.1826 -0.2247
 5246SOL    HW116027   2.963   2.830   1.553 -0.0812 -0.2741 -0.3406
 5246SOL    HW216028   2.855   2.731   1.481  0.1525 -1.0516  0.3590
 5247SOL     OW16029   4.767   3.538   1.947 -0.2844 -0.3011  0.5128
 5247SOL    HW116030   4.681   3.588   1.941 -0.2771 -0.3674 -0.2968
 5247SOL    HW216031   4.800   3.539   2.041 -2.0356 -1.7708  1.1905
 5248SOL     OW16032   3.827   2.457   1.797 -0.0402 -0.6526 -0.0758
 5248SOL    HW116033   3.766   2.521   1.749  1.0501 -0.6286 -1.4864
 5248SOL    HW216034   3.811   2.464   1.896 -1.4077  0.2763 -0.3328
 5249SOL     OW16035   0.251   3.609   0.615  0.2040  0.0479 -0.2971
 5249SOL    HW116036   0.251   3.702   0.651 -0.9151 -0.5473  1.3640
 5249SOL    HW216037   0.282   3.546   0.687 -0.4590 -1.0117 -0.9262
 5250SOL     OW16038   2.936   2.197   1.971  0.1811  0.0410  0.3381
 5250SOL    HW116039   2.872   2.190   1.895 -0.1942  1.3342  0.5058
 5250SOL    HW216040   2.889   2.174   2.056  0.6086 -1.4353  0.1996
 5251SOL     OW16041   4.710   2.385   1.877 -0.0595 -0.1067  0.1528
 5251SOL    HW116042   4.647   2.385   1.800 -0.6924 -1.9627  0.6131
 5251SOL    HW216043   4.793   2.334   1.853  0.1432  0.0983  0.4027
 5252SOL     OW16044   5.102   3.928   4.051 -0.2254 -0.2068  0.2305
 5252SOL    HW116045   5.196   3.957   4.034 -0.3693 -0.4622 -1.1527
 5252SOL    HW216046   5.046   4.007   4.073  0.4371 -0.1382  1.8075
 5253SOL     OW16047   4.957   1.591   2.954 -0.0321 -0.1610  0.4980
 5253SOL    HW116048   4.901   1.667   2.987 -0.5045  0.5083 -1.6637
 5253SOL    HW216049   4.898   1.519   2.917  0.4654  0.3837 -1.4588
 5254SOL     OW16050   4.162   2.171   3.556 -0.0237  0.2837 -0.2187
 5254SOL    HW116051   4.098   2.225   3.501 -2.2870 -1.5884  0.4198
 5254SOL    HW216052   4.236   2.138   3.497  0.0665  1.9830 -1.1252
 5255SOL     OW16053   4.277   3.552   2.545 -0.1817  0.1231 -0.7701
 5255SOL    HW116054   4.270   3.547   2.445  1.5827  0.2248 -0.9405
 5255SOL    HW216055   4.186   3.550   2.585 -0.9021 -0.5804 -2.3493
 5256SOL     OW16056   4.289   3.852   3.499  0.0868  0.5603 -0.0114
 5256SOL    HW116057   4.334   3.923   3.553  0.7785  0.7394 -0.8167
 5256SOL    HW216058   4.264   3.776   3.559 -0.0057  1.1551  0.7263
 5257SOL     OW16059   3.255   4.102   4.351  0.0927 -0.3935 -0.6242
 5257SOL    HW116060   3.271   4.086   4.254  0.1804 -1.6667 -0.4144
 5257SOL    HW216061   3.166   4.147   4.362 -0.2673 -0.9254 -1.2502
 5258SOL     OW16062   5.700   1.957   2.015 -0.0981 -0.0567  0.2494
 5258SOL    HW116063   5.723   2.044   2.058  0.2597 -0.6347  1.2519
 5258SOL    HW216064   5.708   1.883   2.082  0.3515 -0.9711 -0.7860
 5259SOL     OW16065   4.748   3.683   2.606  0.2263  0.1187 -0.9664
 5259SOL    HW116066   4.772   3.655   2.699 -2.1321 -0.7079 -0.5338
 5259SOL    HW216067   4.791   3.621   2.541 -0.6717 -1.3519 -0.2320
 5260SOL     OW16068   4.502   2.060   2.347 -0.1885  0.4612 -0.5884
 5260SOL    HW116069   4.545   2.138   2.394  0.2683 -0.0910 -0.0853
 5260SOL    HW216070   4.572   2.005   2.303 -0.3259 -0.7193  0.6411
 5261SOL     OW16071   0.251   2.492   3.725 -0.2943 -0.2744  0.4932
 5261SOL    HW116072   0.177   2.427   3.745  0.1136 -1.3735 -1.3012
 5261SOL    HW216073   0.338   2.443   3.727  0.1281  0.4608  0.1138
 5262SOL     OW16074   4.800   3.610   2.853 -0.0739 -0.1110  0.0606
 5262SOL    HW116075   4.885   3.652   2.885  0.0897 -0.4151  0.0318
 5262SOL    HW216076   4.745   3.583   2.932 -0.2171  0.2335  0.0786
 5263SOL     OW16077   3.636   2.804   4.265  0.0935  0.1157 -0.1721
 5263SOL    HW116078   3.650   2.853   4.178  1.7851  0.7825  0.4384
 5263SOL    HW216079   3.588   2.864   4.329 -0.2356 -0.0033 -0.3064
 5264SOL     OW16080   5.722   3.791   4.095 -0.3779 -0.3606 -0.0037
 5264SOL    HW116081   5.700   3.854   4.170 -1.1628 -1.5552  0.8063
 5264SOL    HW216082   5.642   3.781   4.035  0.9634  2.5141 -2.5518
 5265SOL     OW16083   5.019   2.882   4.124  0.3650  0.4616  0.1906
 5265SOL    HW116084   5.059   2.964   4.164 -0.5371  0.2660  1.5475
 5265SOL    HW216085   5.069   2.859   4.040  0.9674  2.0727  0.0650
 5266SOL     OW16086   0.292   3.313   3.332 -0.0748  0.1484  0.8042
 5266SOL    HW116087   0.254   3.309   3.425 -1.8735  0.9791  0.1675
 5266SOL    HW216088   0.295   3.408   3.302 -0.2349 -0.1658 -0.2416
 5267SOL     OW16089   5.011   2.036   1.884  0.0493  0.5618 -0.0967
 5267SOL    HW116090   5.076   2.055   1.810  0.2921 -1.4708 -0.4654
 5267SOL    HW216091   5.046   1.963   1.942 -1.3677  0.2562  0.4269
 5268SOL     OW16092   4.831   2.585   3.140 -0.4278 -0.5499  0.3552
 5268SOL    HW116093   4.859   2.677   3.112  0.4859 -0.3393  1.8528
 5268SOL    HW216094   4.742   2.563   3.099 -1.8524  1.9499  1.8426
 5269SOL     OW16095   3.817   3.092   5.025  0.2195  0.0349  0.1959
 5269SOL    HW116096   3.849   2.999   5.004 -1.7506 -0.9216  1.1568
 5269SOL    HW216097   3.801   3.100   5.124 -3.3347  0.0516 -0.2447
 5270SOL     OW16098   4.508   0.723   3.134  0.0482  0.4486 -0.3916
 5270SOL    HW116099   4.522   0.725   3.035  1.2813 -1.5428 -0.3110
 5270SOL    HW216100   4.429   0.666   3.156  0.6507 -0.3281 -0.1878
 5271SOL     OW16101   3.413   3.325   3.636 -0.6066  0.4113 -0.1355
 5271SOL    HW116102   3.401   3.278   3.548 -0.0418  0.6384 -0.3379
 5271SOL    HW216103   3.449   3.417   3.620  0.1873  0.1989  0.3732
 5272SOL     OW16104   5.188   1.820   2.375 -0.3003 -0.6738  0.5934
 5272SOL    HW116105   5.136   1.901   2.350 -0.3068 -1.1364 -1.0760
 5272SOL    HW216106   5.131   1.760   2.432 -1.6491 -1.1456 -1.1432
 5273SOL     OW16107   5.736   1.802   1.623 -0.4265  0.3526 -0.1323
 5273SOL    HW116108   5.669   1.778   1.693 -0.0906  1.3242  0.5417
 5273SOL    HW216109   5.744   1.901   1.617  0.5092  0.2597 -0.6313
 5274SOL     OW16110   5.096   3.352   1.965 -0.8560 -0.4333 -0.1975
 5274SOL    HW116111   5.071   3.304   1.881 -0.6384  0.7382 -0.9542
 5274SOL    HW216112   5.186   3.394   1.954 -1.0563  0.1786  0.4324
 5275SOL     OW16113   3.602   3.949   2.590  0.3301  0.1187  0.4085
 5275SOL    HW116114   3.672   3.998   2.536 -0.6325 -0.3925 -1.3966
 5275SOL    HW216115   3.645   3.873   2.638  1.3397  0.9856  0.9409
 5276SOL     OW16116   0.129   3.256   2.070 -0.1063 -0.1952  0.7647
 5276SOL    HW116117   0.199   3.251   2.141  1.9466 -0.0365 -1.1671
 5276SOL    HW216118   0.163   3.217   1.985 -0.6958  3.6652 -1.5086
 5277SOL     OW16119   4.880   2.699   3.601 -0.0842  0.2973 -0.2346
 5277SOL    HW116120   4.971   2.725   3.569 -0.1585 -0.5667 -1.2100
 5277SOL    HW216121   4.844   2.625   3.543 -0.4810 -0.9350  1.4980
 5278SOL     OW16122   3.996   2.102   3.136 -0.1788  0.0780 -0.6204
 5278SOL    HW116123   3.991   2.079   3.038  1.1609 -1.4769 -0.3647
 5278SOL    HW216124   4.056   2.037   3.182 -0.7485  0.8274  1.2506
 5279SOL     OW16125   4.475   3.619   1.993 -0.1540 -0.2185  0.8844
 5279SOL    HW116126   4.401   3.671   2.034 -1.0716 -0.6171 -0.2321
 5279SOL    HW216127   4.505   3.663   1.908 -0.3673 -1.0425  0.3702
 5280SOL     OW16128   3.359   5.157   4.928 -0.8716  0.7702 -0.0783
 5280SOL    HW116129   3.278   5.109   4.894 -0.4785  0.7923 -1.0723
 5280SOL    HW216130   3.412   5.095   4.987  0.8385 -0.8837 -3.1247
 5281SOL     OW16131   4.715   4.064   5.935 -0.0169 -0.1312  0.3915
 5281SOL    HW116132   4.671   4.001   5.870 -1.4199 -1.4739  2.4973
 5281SOL    HW216133   4.799   4.023   5.970 -1.2084 -1.2162  2.1724
 5282SOL     OW16134   5.016   2.560   2.826  0.5743 -0.1139  0.2319
 5282SOL    HW116135   4.979   2.469   2.843 -0.6911  0.5086  1.0132
 5282SOL    HW216136   4.989   2.621   2.901  0.0604  1.2690 -1.0176
 5283SOL     OW16137   0.397   3.425   1.460 -0.0408 -0.1668 -0.3757
 5283SOL    HW116138   0.392   3.412   1.559 -0.3933 -0.7488 -0.4706
 5283SOL    HW216139   0.305   3.429   1.422  0.1003 -0.3139 -0.7351
 5284SOL     OW16140   0.187   0.776   0.421  0.1492  0.2153  0.5813
 5284SOL    HW116141   0.225   0.859   0.461  0.6141 -0.3464  1.3295
 5284SOL    HW216142   0.098   0.756   0.463 -0.0845  0.4718  0.2142
 5285SOL     OW16143   3.965   3.822   2.636  0.2421  0.7227 -0.5773
 5285SOL    HW116144   4.000   3.732   2.609  1.9706  0.5570  1.8417
 5285SOL    HW216145   3.869   3.813   2.663 -0.6661  0.3733 -3.6042
 5286SOL     OW16146   4.315   3.928   1.681 -0.0015 -0.4465 -0.0898
 5286SOL    HW116147   4.397   3.945   1.736  0.8064  0.9294 -1.5941
 5286SOL    HW216148   4.262   3.854   1.721  1.7818 -1.1207  1.1497
 5287SOL     OW16149   0.381   1.564   2.249  0.0715  0.1449 -0.3082
 5287SOL    HW116150   0.293   1.559   2.296  1.8338 -1.1517  3.2313
 5287SOL    HW216151   0.419   1.656   2.257 -0.4383  0.4154 -0.8904
 5288SOL     OW16152   5.137   1.937   4.441  0.4558 -0.0225  0.1892
 5288SOL    HW116153   5.059   1.875   4.437 -1.2355  2.0076 -0.4105
 5288SOL    HW216154   5.104   2.029   4.462  2.5010  1.2122 -1.7011
 5289SOL     OW16155   4.577   2.582   2.113  0.0945 -0.1834  0.0810
 5289SOL    HW116156   4.676   2.568   2.119  0.2966  0.5402 -1.1637
 5289SOL    HW216157   4.531   2.520   2.176  1.3261 -0.7379  0.4704
 5290SOL     OW16158   4.443   3.267   2.937 -0.0443 -0.0076 -0.3132
 5290SOL    HW116159   4.452   3.193   3.004  0.9059  0.6539  0.3063
 5290SOL    HW216160   4.430   3.227   2.846  0.4304 -0.9471  0.0094
 5291SOL     OW16161   5.498   2.948   1.105 -0.8349 -0.5732 -0.3455
 5291SOL    HW116162   5.550   2.869   1.136 -1.3956 -1.2634 -1.1253
 5291SOL    HW216163   5.423   2.918   1.046 -0.7388  0.5681 -1.0884
 5292SOL     OW16164   0.065   2.320   3.787  0.2146 -0.1581 -0.0024
 5292SOL    HW116165  -0.029   2.303   3.759 -0.2925  3.4168 -1.0202
 5292SOL    HW216166   0.090   2.257   3.860 -2.1894 -2.6088 -1.1229
 5293SOL     OW16167   4.839   3.861   4.175  0.4271  0.4327 -0.7336
 5293SOL    HW116168   4.934   3.890   4.168  0.1647  1.0862 -1.9624
 5293SOL    HW216169   4.825   3.778   4.121  0.3481  0.1908 -0.3480
 5294SOL     OW16170   4.431   0.617   3.754 -0.4264 -0.0189  0.2347
 5294SOL    HW116171   4.520   0.596   3.795 -0.5689  0.2301  0.6821
 5294SOL    HW216172   4.410   0.714   3.767 -1.0543 -0.2089  0.7207
 5295SOL     OW16173   4.488   5.599   2.266 -0.3645 -0.8258 -0.0973
 5295SOL    HW116174   4.550   5.536   2.313  1.9172  0.1126 -1.6630
 5295SOL    HW216175   4.447   5.554   2.188  0.4903 -0.6831 -0.6367
 5296SOL     OW16176   5.512   4.075   2.566 -0.1640  0.3003 -0.0577
 5296SOL    HW116177   5.414   4.054   2.569 -0.3362  0.9814 -0.4880
 5296SOL    HW216178   5.565   3.991   2.561 -0.7025 -0.0988  0.7946
 5297SOL     OW16179   4.245   5.784   1.643  0.1430  0.1127 -0.4858
 5297SOL    HW116180   4.210   5.721   1.713 -0.8046  1.1747  0.0273
 5297SOL    HW216181   4.271   5.732   1.562 -2.3543 -0.7813 -0.7870
 5298SOL     OW16182   0.210   2.880   2.080 -0.2802 -0.1881 -0.0591
 5298SOL    HW116183   0.277   2.931   2.026  0.9382  0.8580  2.2988
 5298SOL    HW216184   0.243   2.787   2.095 -0.8423 -0.6280 -1.4417
 5299SOL     OW16185   3.999   2.466   4.312 -0.4036 -0.2156  0.3390
 5299SOL    HW116186   4.010   2.374   4.348  0.1680 -0.3550 -0.1835
 5299SOL    HW216187   4.029   2.533   4.380  3.3933 -0.5412 -0.7942
 5300SOL     OW16188   4.242   5.400   2.380 -0.6477  0.0973 -0.1373
 5300SOL    HW116189   4.287   5.384   2.468 -1.3465 -0.7404  0.0748
 5300SOL    HW216190   4.312   5.421   2.311 -0.0276 -0.0283  0.4343
 5301SOL     OW16191   0.044   4.845   3.723 -0.5277 -0.4666 -0.1280
 5301SOL    HW116192  -0.012   4.766   3.749 -0.5908 -0.4483 -0.2084
 5301SOL    HW216193   0.053   4.848   3.624 -0.0270 -0.7153 -0.0909
 5302SOL     OW16194   4.572   0.324   1.709 -0.3926  0.0781 -0.0707
 5302SOL    HW116195   4.655   0.306   1.656  0.2782  1.7554  0.3380
 5302SOL    HW216196   4.536   0.414   1.684 -0.7631  0.3677  1.4138
 5303SOL     OW16197   3.550   0.879   3.164  0.3398  0.4298 -0.3165
 5303SOL    HW116198   3.551   0.969   3.122 -1.5348  0.5412 -0.2314
 5303SOL    HW216199   3.604   0.880   3.248  1.3450  1.1079 -0.9510
 5304SOL     OW16200   4.576   3.489   3.037  0.5109 -0.0076  0.2039
 5304SOL    HW116201   4.549   3.572   2.988  2.4120 -0.3556 -1.5866
 5304SOL    HW216202   4.521   3.412   3.005  0.5073  0.1076 -0.0713
 5305SOL     OW16203   2.249   2.346   1.334 -0.0806  0.5977 -0.1534
 5305SOL    HW116204   2.246   2.427   1.275  1.9140  0.4462 -0.5220
 5305SOL    HW216205   2.343   2.315   1.344 -0.2573  0.7156  3.2960
 5306SOL     OW16206   4.561   1.515   3.053 -0.6100 -0.1691 -0.0971
 5306SOL    HW116207   4.481   1.528   2.995 -0.1195  2.1422 -0.3536
 5306SOL    HW216208   4.612   1.601   3.059  1.2113 -1.2620  1.0236
 5307SOL     OW16209   5.278   0.319   5.903  0.0686  0.3816 -0.1243
 5307SOL    HW116210   5.306   0.234   5.948  1.0330 -0.2134 -1.7774
 5307SOL    HW216211   5.355   0.382   5.901 -0.5854  1.2487  0.9012
 5308SOL     OW16212   5.798   3.388   2.986 -0.5247  0.3827  0.3508
 5308SOL    HW116213   5.897   3.404   2.989 -0.5256  0.3250  0.7791
 5308SOL    HW216214   5.765   3.398   2.892  0.2719 -1.9117 -0.2183
 5309SOL     OW16215   4.583   1.845   0.657  0.1095 -0.6053 -0.4326
 5309SOL    HW116216   4.554   1.749   0.657  0.4506 -0.7154 -1.3008
 5309SOL    HW216217   4.531   1.895   0.588 -0.1149 -0.1379  0.0619
 5310SOL     OW16218   3.802   1.553   3.288  0.5621 -0.3657  0.0016
 5310SOL    HW116219   3.713   1.544   3.243  1.0749 -2.3465 -0.7156
 5310SOL    HW216220   3.789   1.558   3.387 -0.3365 -1.0506 -0.0696
 5311SOL     OW16221   3.712   3.002   4.619  0.0438  0.1212 -0.2803
 5311SOL    HW116222   3.640   2.992   4.551  0.3689  1.6558 -0.8955
 5311SOL    HW216223   3.674   3.038   4.703 -0.3063 -1.4939  0.2978
 5312SOL     OW16224   1.090   3.670   1.745  0.0686  0.0257  0.5159
 5312SOL    HW116225   1.159   3.715   1.688  0.4190 -0.0107  0.9076
 5312SOL    HW216226   1.132   3.642   1.832 -0.0535 -1.3568  0.1563
 5313SOL     OW16227   4.578   2.294   2.493  0.4273  0.4872 -0.1853
 5313SOL    HW116228   4.578   2.278   2.591 -1.2401  0.5163 -0.1534
 5313SOL    HW216229   4.661   2.343   2.467  1.7927 -1.1250  0.9045
 5314SOL     OW16230   0.070   4.002   2.608 -0.0603 -0.1956 -0.2103
 5314SOL    HW116231   0.077   4.044   2.698  0.4236  1.2350 -0.8911
 5314SOL    HW216232   0.004   4.053   2.552  1.0036  0.0790 -1.2568
 5315SOL     OW16233   5.453   4.271   3.191  0.2591 -0.1885 -0.1431
 5315SOL    HW116234   5.457   4.171   3.193 -2.8579 -0.3771  1.0293
 5315SOL    HW216235   5.422   4.301   3.101 -0.7172 -0.4200  0.1066
 5316SOL     OW16236   5.729   2.162   4.959  0.2191  0.0313  0.0509
 5316SOL    HW116237   5.765   2.072   4.982 -1.3683 -0.9464 -1.0238
 5316SOL    HW216238   5.790   2.206   4.893  0.5795 -0.6215 -0.0629
 5317SOL     OW16239   4.677   3.035   3.653 -0.0256  0.4723 -0.6459
 5317SOL    HW116240   4.641   3.047   3.745  0.7000  1.5006 -0.4776
 5317SOL    HW216241   4.768   2.994   3.659 -0.7159 -1.1835 -1.0136
 5318SOL     OW16242   4.314   4.159   3.434 -0.1957  0.4512 -0.5155
 5318SOL    HW116243   4.296   4.128   3.341 -0.9467  1.0043 -0.5650
 5318SOL    HW216244   4.232   4.204   3.471 -0.2268 -0.5601  0.7378
 5319SOL     OW16245   5.717   2.203   4.523  0.5037 -0.6812 -0.2456
 5319SOL    HW116246   5.758   2.145   4.593  0.5840  1.9493  2.0509
 5319SOL    HW216247   5.781   2.216   4.448  1.9918 -0.4655  1.0260
 5320SOL     OW16248   5.555   3.155   4.961  0.1996 -0.1226 -0.1847
 5320SOL    HW116249   5.600   3.229   5.011 -0.5663  0.0107  0.3193
 5320SOL    HW216250   5.531   3.186   4.869 -0.2052  0.2970  0.0585
 5321SOL     OW16251   5.440   2.336   1.756 -0.4531  0.0727  0.4722
 5321SOL    HW116252   5.537   2.339   1.782  0.2199 -1.8368 -1.4795
 5321SOL    HW216253   5.396   2.258   1.801 -1.0187  0.6756  1.0003
 5322SOL     OW16254   4.540   4.711   3.035 -0.1305 -0.0768  0.3044
 5322SOL    HW116255   4.640   4.714   3.035 -0.1133 -0.1767 -0.5858
 5322SOL    HW216256   4.504   4.797   3.072  0.3222  1.2602 -2.0954
 5323SOL     OW16257   0.321   2.683   3.548  0.5527 -0.1028 -0.5553
 5323SOL    HW116258   0.299   2.670   3.451 -0.2022  1.7490 -0.6725
 5323SOL    HW216259   0.295   2.602   3.600  0.3549 -0.8542 -1.8007
 5324SOL     OW16260   3.881   2.878   3.430  0.1527  0.0654  0.4283
 5324SOL    HW116261   3.877   2.908   3.335 -1.0528  1.5470  0.8888
 5324SOL    HW216262   3.801   2.821   3.451  0.5115 -0.4114  0.5040
 5325SOL     OW16263   3.208   2.955   1.893  0.2387  0.1360 -0.3104
 5325SOL    HW116264   3.258   2.988   1.813 -1.4192  0.0559 -1.4202
 5325SOL    HW216265   3.111   2.946   1.871 -0.5338  1.5185  2.1322
 5326SOL     OW16266   2.441   2.438   2.439 -0.1013  0.0332 -0.7878
 5326SOL    HW116267   2.450   2.499   2.518 -2.8418  1.0023 -1.1299
 5326SOL    HW216268   2.451   2.492   2.355 -2.2827  0.0245 -1.0938
 5327SOL     OW16269   5.419   3.221   3.376  0.4189 -0.1402  0.1148
 5327SOL    HW116270   5.483   3.259   3.309 -0.0005  0.6638  0.1604
 5327SOL    HW216271   5.462   3.222   3.467 -0.1087  1.6612  0.3880
 5328SOL     OW16272   0.845   4.827   2.804  0.0645 -0.3083 -0.1936
 5328SOL    HW116273   0.768   4.763   2.810  1.5332 -2.3182 -1.3514
 5328SOL    HW216274   0.844   4.870   2.714 -0.5845  0.8987  0.3738
 5329SOL     OW16275   5.798   4.178   1.297  0.0205 -0.3215 -0.4099
 5329SOL    HW116276   5.852   4.207   1.376 -1.2859  3.2422 -0.6427
 5329SOL    HW216277   5.719   4.125   1.328  1.0409 -1.4610  0.3426
 5330SOL     OW16278   3.263   4.759   4.599 -0.2310 -0.2009  0.4346
 5330SOL    HW116279   3.177   4.773   4.648 -0.5006 -0.5439  0.0713
 5330SOL    HW216280   3.316   4.843   4.598 -1.7525  0.8327 -1.5970
 5331SOL     OW16281   5.511   3.074   1.847  0.1345  0.0624  0.3099
 5331SOL    HW116282   5.521   2.995   1.786  0.6391 -2.5882  3.5305
 5331SOL    HW216283   5.417   3.078   1.881  0.4313  0.0143  1.1552
 5332SOL     OW16284   4.056   2.493   3.807 -0.3519  0.2136  0.4221
 5332SOL    HW116285   4.001   2.456   3.882  0.7929  1.5354  1.9789
 5332SOL    HW216286   4.026   2.586   3.785  1.5437  1.1977  1.7157
 5333SOL     OW16287   4.374   2.095   3.346  0.0379 -0.0109 -0.1909
 5333SOL    HW116288   4.445   2.146   3.395  1.3910 -1.7684 -0.2110
 5333SOL    HW216289   4.393   2.096   3.248 -0.5294  0.3146 -0.3034
 5334SOL     OW16290   5.052   2.410   3.474  0.2629 -0.1958  0.4495
 5334SOL    HW116291   4.964   2.445   3.443  0.6304 -0.9447 -1.5321
 5334SOL    HW216292   5.043   2.374   3.567 -1.7095 -0.9862 -0.0110
 5335SOL     OW16293   5.366   1.803   2.999  0.0239  0.4645 -0.6622
 5335SOL    HW116294   5.447   1.860   2.987  0.2335 -0.0637 -1.8558
 5335SOL    HW216295   5.321   1.827   3.086  1.9165  0.1634  0.4599
 5336SOL     OW16296   4.487   3.851   3.944  0.2503  0.4652  0.1186
 5336SOL    HW116297   4.397   3.883   3.913  0.9598  0.3612 -2.2898
 5336SOL    HW216298   4.480   3.817   4.038 -2.1493  0.7209  0.1024
 5337SOL     OW16299   5.058   1.681   2.575  0.0631  0.1861  0.3279
 5337SOL    HW116300   5.024   1.589   2.555  0.7056 -0.2303  1.0584
 5337SOL    HW216301   5.098   1.681   2.667 -0.5306  1.3693  0.6013
 5338SOL     OW16302   3.172   1.571   2.416  1.0766 -0.4797  0.2691
 5338SOL    HW116303   3.083   1.606   2.445 -0.0715 -2.6524 -0.3599
 5338SOL    HW216304   3.244   1.612   2.471 -0.3291  1.0848  1.0316
 5339SOL     OW16305   3.774   3.756   3.437 -0.2222 -0.4624  0.0191
 5339SOL    HW116306   3.741   3.792   3.524 -1.7278  0.9421 -1.0709
 5339SOL    HW216307   3.840   3.819   3.397 -0.0187 -0.7921 -0.1744
 5340SOL     OW16308   4.518   0.972   3.212  0.0815  0.2317 -0.3072
 5340SOL    HW116309   4.508   0.872   3.208  2.7333 -0.0961 -0.6844
 5340SOL    HW216310   4.600   0.995   3.265  0.7849  2.1143 -2.0918
 5341SOL     OW16311   4.911   0.043   3.685 -0.8430  0.1398  0.0131
 5341SOL    HW116312   4.877  -0.048   3.710 -1.3980  0.6963  1.4372
 5341SOL    HW216313   4.997   0.061   3.734 -0.1217 -0.0443 -1.1510
 5342SOL     OW16314   4.700   2.999   3.058 -0.0482  0.0758 -0.2162
 5342SOL    HW116315   4.718   3.069   2.989 -0.3690 -1.5544 -2.0167
 5342SOL    HW216316   4.602   2.987   3.070 -0.0484  1.4403  1.7642
 5343SOL     OW16317   5.195   1.415   2.963 -0.1368 -0.7458  0.4447
 5343SOL    HW116318   5.158   1.457   3.046 -1.8347 -1.8800  0.3007
 5343SOL    HW216319   5.189   1.315   2.970 -1.2642 -0.8553 -1.4235
 5344SOL     OW16320   5.614   1.299   1.775 -0.4249  0.0693 -0.2625
 5344SOL    HW116321   5.531   1.350   1.754 -1.2119 -0.9625  0.2758
 5344SOL    HW216322   5.682   1.315   1.704  0.2855  3.7938  1.0471
 5345SOL     OW16323   4.070   3.292   3.012 -0.1058 -0.3137 -0.3638
 5345SOL    HW116324   3.980   3.300   2.969  0.3968 -0.0714 -1.4058
 5345SOL    HW216325   4.126   3.371   2.986  0.9533 -1.2785 -1.0976
 5346SOL     OW16326   5.309   3.790   3.663  0.4080 -0.0449 -0.6881
 5346SOL    HW116327   5.331   3.885   3.683 -1.3331  0.3997 -0.6673
 5346SOL    HW216328   5.294   3.741   3.749 -1.5878  0.4525 -0.6943
 5347SOL     OW16329   2.764   2.149   0.080  0.8442  0.3392  0.3342
 5347SOL    HW116330   2.790   2.075   0.142  1.8512  1.1252  0.8828
 5347SOL    HW216331   2.739   2.230   0.133 -1.2906  0.1006 -0.2286
 5348SOL     OW16332   5.837   3.573   1.596 -0.1657  0.2101  0.3536
 5348SOL    HW116333   5.809   3.498   1.536 -1.2309  1.2615 -0.5215
 5348SOL    HW216334   5.808   3.660   1.555  0.5011  1.0559  1.6392
 5349SOL     OW16335   5.400   4.377   1.723  0.2743  0.0950 -0.0207
 5349SOL    HW116336   5.454   4.424   1.792 -0.1449 -0.4678  0.7164
 5349SOL    HW216337   5.436   4.397   1.632  0.1552  1.7519  0.2705
 5350SOL     OW16338   4.545   2.874   3.323 -0.4019  0.0184  0.1854
 5350SOL    HW116339   4.481   2.860   3.399  0.3617 -0.2677  0.7944
 5350SOL    HW216340   4.634   2.904   3.360  0.7369 -2.4500 -0.3544
 5351SOL     OW16341   3.821   2.171   2.336 -0.4003 -0.0356  0.9076
 5351SOL    HW116342   3.824   2.221   2.250  2.2269 -0.0214  0.9096
 5351SOL    HW216343   3.828   2.073   2.317 -1.3183 -0.1424  1.0738
 5352SOL     OW16344   4.380   1.754   3.163 -0.5702 -0.2581  0.0891
 5352SOL    HW116345   4.340   1.702   3.088 -2.9072 -0.6631  1.4889
 5352SOL    HW216346   4.424   1.691   3.227 -0.0933 -0.0982 -0.0795
 5353SOL     OW16347   3.886   2.992   4.151  0.1852  0.4120  0.3874
 5353SOL    HW116348   3.881   3.005   4.250  2.8125  0.5132  0.5840
 5353SOL    HW216349   3.823   3.055   4.106  1.1482  2.6184  1.9149
 5354SOL     OW16350   5.573   3.574   2.995 -0.9054  0.3142  0.1303
 5354SOL    HW116351   5.541   3.566   3.089  1.2202 -3.0837  0.7222
 5354SOL    HW216352   5.507   3.529   2.934 -1.3496  0.8707  0.1835
 5355SOL     OW16353   4.727   4.909   3.304  0.4907  0.4572  0.2755
 5355SOL    HW116354   4.749   4.837   3.370 -2.2024  0.3774  1.2108
 5355SOL    HW216355   4.742   4.998   3.347  1.2220  0.4378  0.0689
 5356SOL     OW16356   4.907   2.044   2.962 -0.1709  0.3883 -0.0564
 5356SOL    HW116357   4.970   1.969   2.981 -1.5708 -0.6716  0.6001
 5356SOL    HW216358   4.957   2.130   2.958  1.2655 -0.3815  0.7183
 5357SOL     OW16359   5.542   1.979   4.213  0.2349  0.4176 -0.4987
 5357SOL    HW116360   5.464   2.040   4.223 -0.5313 -0.5176 -0.6184
 5357SOL    HW216361   5.613   2.025   4.160  0.2776  1.7214  0.6316
 5358SOL     OW16362   4.065   1.432   4.585 -0.7875  0.3305  0.4842
 5358SOL    HW116363   4.066   1.531   4.571 -3.7366  0.4379  0.3181
 5358SOL    HW216364   4.064   1.412   4.683 -2.0211  0.5959  0.5440
 5359SOL     OW16365   4.948   3.282   3.775 -0.0103 -0.0325  0.0345
 5359SOL    HW116366   4.969   3.357   3.711  0.2796 -0.6288 -0.5906
 5359SOL    HW216367   4.965   3.194   3.729  0.7426 -0.4708  1.1180
 5360SOL     OW16368   2.661   0.891   2.149 -0.3419  0.2006 -0.6112
 5360SOL    HW116369   2.719   0.968   2.172 -1.8675  0.9310  0.9795
 5360SOL    HW216370   2.638   0.894   2.052  0.6236  1.0168 -0.8237
 5361SOL     OW16371   5.934   1.593   1.620 -0.4839 -0.0049 -0.0599
 5361SOL    HW116372   5.879   1.510   1.612  0.5636 -0.8716  1.2925
 5361SOL    HW216373   5.875   1.670   1.644 -1.5081 -0.2623 -1.5840
 5362SOL     OW16374   4.196   1.430   2.800 -0.6355  0.0230  0.3383
 5362SOL    HW116375   4.103   1.403   2.776 -0.8730 -0.3152  1.5305
 5362SOL    HW216376   4.193   1.502   2.870  0.0098  0.7075 -0.3065
 5363SOL     OW16377   4.738   2.923   0.668  0.2987 -0.1192 -0.1434
 5363SOL    HW116378   4.818   2.872   0.636  0.4533 -1.1751  1.7060
 5363SOL    HW216379   4.755   2.954   0.762 -1.4788 -0.4416  0.3118
 5364SOL     OW16380   4.127   4.004   2.933  0.1488  0.2213  0.3552
 5364SOL    HW116381   4.047   3.944   2.936 -1.4557  2.1012 -1.6164
 5364SOL    HW216382   4.141   4.036   2.840  1.2656  2.4766  1.2308
 5365SOL     OW16383   3.071   2.330   2.369  0.0301 -0.2482  0.3081
 5365SOL    HW116384   2.977   2.350   2.395  0.2071  0.1002  0.6948
 5365SOL    HW216385   3.077   2.320   2.270 -0.0875  1.6065  0.0769
 5366SOL     OW16386   3.815   3.548   3.207  0.0079  0.7737 -0.4531
 5366SOL    HW116387   3.859   3.586   3.126 -1.6394  1.3847 -1.1088
 5366SOL    HW216388   3.821   3.614   3.282  2.0202 -0.0153  0.1481
 5367SOL     OW16389   5.647   3.064   3.255 -0.5217 -0.1156 -0.4510
 5367SOL    HW116390   5.729   3.026   3.212 -0.5238  0.3614 -0.8887
 5367SOL    HW216391   5.648   3.164   3.245 -0.0767  0.1078  1.4153
 5368SOL     OW16392   5.389   3.455   1.180 -0.3640 -0.2496  0.0373
 5368SOL    HW116393   5.432   3.365   1.185  0.4974  0.1384 -0.1621
 5368SOL    HW216394   5.446   3.522   1.228 -0.5534  0.3473 -0.5497
 5369SOL     OW16395   0.028   4.838   2.858  0.3285  0.3031  0.4340
 5369SOL    HW116396   0.075   4.766   2.909  0.9042  0.3010 -0.0810
 5369SOL    HW216397   0.094   4.911   2.836 -0.3221  1.1586  1.2559
 5370SOL     OW16398   3.756   2.759   2.648 -0.5490 -0.2999  0.2223
 5370SOL    HW116399   3.672   2.786   2.695 -0.1172 -1.4075  1.7156
 5370SOL    HW216400   3.761   2.804   2.559 -0.0737  4.1710  2.2456
 5371SOL     OW16401   3.831   3.293   2.890  0.1290  0.3174 -0.2284
 5371SOL    HW116402   3.831   3.385   2.850 -0.5380  0.7440  0.7184
 5371SOL    HW216403   3.811   3.226   2.818  1.0007  0.8550 -1.0073
 5372SOL     OW16404   5.271   4.995   2.188 -0.4740 -0.0564 -0.6838
 5372SOL    HW116405   5.346   5.044   2.144 -0.6280  0.8017 -0.0203
 5372SOL    HW216406   5.237   4.924   2.126 -0.0709  0.4965 -1.5625
 5373SOL     OW16407   3.714   1.422   3.973 -0.7758  0.0603 -0.6931
 5373SOL    HW116408   3.715   1.503   4.032  1.1029 -0.6095  0.2762
 5373SOL    HW216409   3.625   1.378   3.978 -2.1691  2.5052 -1.9505
 5374SOL     OW16410   0.547   3.488   3.994  0.1406  0.3557 -0.4717
 5374SOL    HW116411   0.465   3.446   4.033 -0.0788  1.0541 -0.1605
 5374SOL    HW216412   0.617   3.418   3.983  0.0172  0.0151  0.6692
 5375SOL     OW16413   4.245   5.227   4.440 -0.2446 -0.6128  0.2541
 5375SOL    HW116414   4.260   5.189   4.349 -0.9833 -0.3198  0.0022
 5375SOL    HW216415   4.228   5.152   4.505 -1.7736 -0.7453 -0.2535
 5376SOL     OW16416   5.409   1.467   4.545  0.6269  0.0599  0.1251
 5376SOL    HW116417   5.389   1.404   4.470  0.3532  0.2683  0.0260
 5376SOL    HW216418   5.495   1.514   4.527  0.7632 -0.1813  0.1334
 5377SOL     OW16419   5.597   5.794   3.982  0.0817  0.1761  0.3708
 5377SOL    HW116420   5.632   5.706   3.948  1.0145  0.2816  1.0136
 5377SOL    HW216421   5.515   5.819   3.931 -0.9579 -1.6906  1.0438
 5378SOL     OW16422   2.526   3.886   1.572 -0.4701 -0.0563  0.2650
 5378SOL    HW116423   2.576   3.803   1.551  0.0136  0.7965 -2.2676
 5378SOL    HW216424   2.589   3.956   1.606 -0.5828 -0.1482  0.6705
 5379SOL     OW16425   5.124   4.079   3.715  0.3051 -0.0708  0.1421
 5379SOL    HW116426   5.223   4.071   3.707  0.3596 -0.9965  1.3684
 5379SOL    HW216427   5.091   4.017   3.787 -0.7839  2.6053  2.1321
 5380SOL     OW16428   4.897   1.138   1.978 -0.5483 -0.5690 -0.6628
 5380SOL    HW116429   4.971   1.193   1.940  0.3509  0.1265  1.8832
 5380SOL    HW216430   4.834   1.198   2.028  1.8112 -1.7804  4.4022
 5381SOL     OW16431   4.440   2.772   2.854 -0.2802 -0.2463 -0.0753
 5381SOL    HW116432   4.341   2.784   2.856  0.0093  2.9078  0.5753
 5381SOL    HW216433   4.474   2.758   2.947 -0.0149 -0.3689 -0.1890
 5382SOL     OW16434   5.099   2.623   1.379  0.3308 -0.2588 -0.0558
 5382SOL    HW116435   5.103   2.572   1.293  2.5288  0.2096 -0.2935
 5382SOL    HW216436   5.003   2.635   1.407 -0.5172  0.3689 -2.9079
 5383SOL     OW16437   4.972   4.998   3.475  0.2852 -0.0948 -0.2031
 5383SOL    HW116438   5.000   5.034   3.386 -0.9140 -0.8760 -0.9355
 5383SOL    HW216439   4.985   4.899   3.476  1.4691  0.0561  0.9717
 5384SOL     OW16440   0.040   5.770   2.451 -0.5699 -0.4221  0.7040
 5384SOL    HW116441  -0.020   5.814   2.518 -0.7290 -1.8715  1.5525
 5384SOL    HW216442   0.134   5.800   2.465 -0.7769  0.2013  0.7879
 5385SOL     OW16443   5.000   4.731   3.501  0.3289 -0.3728 -0.1914
 5385SOL    HW116444   4.902   4.714   3.492  0.0524  0.8600  0.2945
 5385SOL    HW216445   5.048   4.644   3.514 -0.6792 -0.9984 -0.5546
 5386SOL     OW16446   3.836   4.601   2.563 -0.2049  0.2114  0.4315
 5386SOL    HW116447   3.920   4.548   2.572 -0.0906  0.6737  3.2758
 5386SOL    HW216448   3.856   4.697   2.583 -1.3799  0.3245  1.1361
 5387SOL     OW16449   5.301   3.754   2.992 -0.6311  0.1097  1.0885
 5387SOL    HW116450   5.332   3.798   3.076  0.3681  1.0561  0.2501
 5387SOL    HW216451   5.379   3.733   2.934 -1.1831 -1.8142  0.9734
 5388SOL     OW16452   4.524   0.805   2.850  0.3981 -0.0267 -0.5504
 5388SOL    HW116453   4.570   0.836   2.767  1.9969  2.1451  1.0090
 5388SOL    HW216454   4.429   0.780   2.829  1.0868 -0.6790 -3.1726
 5389SOL     OW16455   0.132   1.450   2.352  0.2287 -0.0506  0.1177
 5389SOL    HW116456   0.119   1.450   2.253  0.5686 -0.6205  0.0675
 5389SOL    HW216457   0.059   1.502   2.395  0.6821  1.1402 -0.5106
 5390SOL     OW16458   4.250   3.441   2.894  0.5190  0.7035  0.1645
 5390SOL    HW116459   4.337   3.395   2.908  0.2548  0.2732  0.4081
 5390SOL    HW216460   4.258   3.537   2.922  0.9086  0.6631  0.1950
 5391SOL     OW16461   5.481   2.865   2.776 -0.1226  0.0046  0.4485
 5391SOL    HW116462   5.471   2.845   2.873 -1.8055 -3.1524 -0.2433
 5391SOL    HW216463   5.544   2.799   2.735 -0.2127  0.6596 -0.7793
 5392SOL     OW16464   0.446   3.768   2.767  0.0642  0.2612 -0.2229
 5392SOL    HW116465   0.422   3.844   2.707  1.0345 -0.2112 -1.2413
 5392SOL    HW216466   0.502   3.801   2.843 -1.3193  0.8919  0.5647
 5393SOL     OW16467   5.773   1.478   3.573 -0.2295 -0.2547 -0.0534
 5393SOL    HW116468   5.687   1.485   3.522 -0.6933 -1.5453  0.5089
 5393SOL    HW216469   5.845   1.445   3.512 -0.2241  0.4137 -0.4202
 5394SOL     OW16470   5.548   1.544   3.408 -0.1188  0.0175  0.1196
 5394SOL    HW116471   5.544   1.638   3.375 -1.0273 -0.2084 -0.4463
 5394SOL    HW216472   5.540   1.481   3.330  1.8523 -0.5496  0.3166
 5395SOL     OW16473   0.805   1.958   4.211 -0.2294 -0.5501 -0.6734
 5395SOL    HW116474   0.877   2.027   4.221  0.4508 -1.4883  1.2827
 5395SOL    HW216475   0.751   1.979   4.129 -0.5958  2.7759  0.2595
 5396SOL     OW16476   4.387   2.495   2.746  0.2907  0.4872  0.1028
 5396SOL    HW116477   4.461   2.559   2.765 -0.3940  1.0736  0.9372
 5396SOL    HW216478   4.375   2.434   2.825 -0.8473  1.1659  0.4893
 5397SOL     OW16479   0.606   2.877   4.189 -0.6354 -0.4961 -0.4202
 5397SOL    HW116480   0.678   2.929   4.143 -1.5494 -0.2924 -1.6706
 5397SOL    HW216481   0.645   2.826   4.265  0.6722  0.2803 -0.5440
 5398SOL     OW16482   3.993   4.192   3.275  0.2953  0.0001 -0.0111
 5398SOL    HW116483   4.042   4.261   3.329  3.2231 -0.7920 -1.4673
 5398SOL    HW216484   3.929   4.238   3.213  0.6860  1.2599  0.4763
 5399SOL     OW16485   5.089   4.239   2.853 -0.7001  0.3845  0.4164
 5399SOL    HW116486   5.159   4.168   2.841 -1.1023  0.2723 -1.5181
 5399SOL    HW216487   5.051   4.232   2.945  1.7179  0.3652  1.4930
 5400SOL     OW16488   5.291   1.361   4.965 -0.1564  0.8807  0.3628
 5400SOL    HW116489   5.374   1.354   4.910  0.8666 -1.6090  2.0437
 5400SOL    HW216490   5.219   1.305   4.924 -0.1222  0.8525  0.3413
 5401SOL     OW16491   3.557   2.256   3.073  0.0826 -0.2112  0.0191
 5401SOL    HW116492   3.603   2.302   2.997  2.3348 -1.4436  0.5200
 5401SOL    HW216493   3.575   2.306   3.158 -0.1476 -0.2977  0.1203
 5402SOL     OW16494   5.481   4.174   3.474 -0.4807 -0.1240 -0.3576
 5402SOL    HW116495   5.481   4.273   3.467 -0.8700 -0.0858  0.1368
 5402SOL    HW216496   5.387   4.140   3.468 -0.4962 -0.3503  0.9430
 5403SOL     OW16497   0.268   3.199   2.313  0.7815 -0.3727 -0.2357
 5403SOL    HW116498   0.269   3.264   2.388  1.5130 -0.5260 -0.1027
 5403SOL    HW216499   0.348   3.139   2.319  0.5336 -0.7778 -0.7948
 5404SOL     OW16500   4.945   0.710   3.377 -0.5135  0.0909  0.4381
 5404SOL    HW116501   4.851   0.674   3.377  0.5099 -2.8600  1.4986
 5404SOL    HW216502   4.986   0.697   3.467  1.2994  0.2423 -0.3272
 5405SOL     OW16503   3.415   2.335   2.566 -0.3222 -0.4557  0.8124
 5405SOL    HW116504   3.315   2.329   2.567 -0.2869 -1.6144 -0.0534
 5405SOL    HW216505   3.443   2.421   2.523 -0.9789 -1.0864 -0.9873
 5406SOL     OW16506   5.563   2.456   4.042 -0.2421  0.3674  0.2572
 5406SOL    HW116507   5.566   2.419   4.135 -0.9326 -1.8635 -0.5575
 5406SOL    HW216508   5.652   2.496   4.020  0.3727 -0.3081  1.4010
 5407SOL     OW16509   2.950   2.712   3.918  0.1931 -0.9315  0.4946
 5407SOL    HW116510   2.917   2.722   4.012  0.8413 -0.7798  0.7091
 5407SOL    HW216511   2.881   2.749   3.855  0.3805  0.3509  0.9950
 5408SOL     OW16512   4.370   2.290   2.936 -0.8098 -0.0478  0.2599
 5408SOL    HW116513   4.319   2.363   2.982  0.9987  0.7172  1.1325
 5408SOL    HW216514   4.372   2.209   2.993  2.2932  1.2145  2.2023
 5409SOL     OW16515   3.759   5.373   3.750  0.6315 -0.0194 -0.1989
 5409SOL    HW116516   3.835   5.428   3.786 -0.0135  0.4142  0.5140
 5409SOL    HW216517   3.689   5.433   3.713 -0.6251 -0.2543  1.6613
 5410SOL     OW16518   4.141   2.886   3.512  0.5481 -0.3449 -0.1090
 5410SOL    HW116519   4.050   2.862   3.478 -0.0775  0.2878  1.0649
 5410SOL    HW216520   4.186   2.946   3.447 -1.7248  3.1909  1.2446
 5411SOL     OW16521   4.605   1.171   3.740  0.0134 -0.3109  0.2783
 5411SOL    HW116522   4.608   1.227   3.823 -0.4281  0.0518  0.0620
 5411SOL    HW216523   4.603   1.074   3.764 -1.2372 -0.1897  0.7416
 5412SOL     OW16524   5.003   5.871   4.879  0.0674  0.2676  0.3205
 5412SOL    HW116525   4.980   5.793   4.820 -1.6086  0.4221  0.7202
 5412SOL    HW216526   5.062   5.840   4.954 -0.4786 -0.5951  0.4069
 5413SOL     OW16527   3.340   3.470   3.052 -0.5024  0.9285  0.3609
 5413SOL    HW116528   3.439   3.457   3.041 -0.5317  0.8193  0.2245
 5413SOL    HW216529   3.316   3.565   3.029 -0.4364  0.9410  0.3428
 5414SOL     OW16530   3.766   3.836   4.846 -0.4319 -0.0538  0.6844
 5414SOL    HW116531   3.865   3.837   4.853 -0.5258  1.5016  2.6377
 5414SOL    HW216532   3.735   3.912   4.788 -0.5173 -0.3797  0.2927
 5415SOL     OW16533   3.474   2.680   2.005 -0.0955 -0.2380  0.1332
 5415SOL    HW116534   3.443   2.746   2.074 -0.5366 -0.3863  0.0793
 5415SOL    HW216535   3.408   2.607   1.997 -0.5672  0.3050 -1.1842
 5416SOL     OW16536   3.552   2.757   2.822  0.4419  0.6917  0.2570
 5416SOL    HW116537   3.455   2.775   2.806  0.4916  0.5636 -0.2132
 5416SOL    HW216538   3.564   2.714   2.911  0.1583  1.4804  0.6830
 5417SOL     OW16539   5.130   5.032   2.740  0.3800 -0.1681 -0.0234
 5417SOL    HW116540   5.150   5.022   2.643  0.3627 -3.0785  0.1867
 5417SOL    HW216541   5.204   4.991   2.794 -0.3137  0.0524  1.1419
 5418SOL     OW16542   2.956   1.946   2.387 -0.1311 -0.0527 -0.5979
 5418SOL    HW116543   2.957   1.854   2.428 -0.2044 -0.3802 -1.3186
 5418SOL    HW216544   3.048   1.971   2.358 -0.4163 -0.7383 -2.2108
 5419SOL     OW16545   4.038   3.542   2.690  0.3618  0.1346  0.2533
 5419SOL    HW116546   3.947   3.526   2.728  0.9374 -1.3744  1.0953
 5419SOL    HW216547   4.106   3.495   2.746  1.4636 -0.3614 -1.4131
 5420SOL     OW16548   3.564   2.348   2.815 -0.3140 -0.1810  0.2948
 5420SOL    HW116549   3.516   2.323   2.730  1.1171 -0.8285 -0.3515
 5420SOL    HW216550   3.628   2.422   2.797  0.8892 -1.1347  0.4927
 5421SOL     OW16551   4.837   0.877   3.163  0.3242 -0.2874 -0.0963
 5421SOL    HW116552   4.824   0.815   3.240 -0.2686  1.2857  1.1046
 5421SOL    HW216553   4.820   0.971   3.191 -0.3143  0.3123 -2.2554
 5422SOL     OW16554   5.746   3.018   2.317  0.0922  0.7076  0.2366
 5422SOL    HW116555   5.844   3.029   2.301 -0.3450  1.1418 -2.6635
 5422SOL    HW216556   5.700   2.995   2.231 -2.2499 -0.5401  1.6983
 5423SOL     OW16557   4.418   5.752   3.990 -0.4177 -0.4973 -0.5057
 5423SOL    HW116558   4.348   5.764   3.919  1.1524  1.1136 -1.8852
 5423SOL    HW216559   4.503   5.796   3.960  1.0381 -1.9075  1.3500
 5424SOL     OW16560   4.411   0.935   4.594 -0.1808  0.3870  0.2391
 5424SOL    HW116561   4.498   0.906   4.634 -0.1441 -1.2197 -0.8805
 5424SOL    HW216562   4.350   0.967   4.666  1.4175  1.8267  1.0208
 5425SOL     OW16563   4.487   2.424   3.181 -0.2474  0.3764  0.4263
 5425SOL    HW116564   4.511   2.457   3.272  0.3956 -1.0549  0.7944
 5425SOL    HW216565   4.552   2.353   3.153 -3.0465 -2.4837  0.7366
 5426SOL     OW16566   3.361   1.163   1.663  0.3960  0.2875 -0.5218
 5426SOL    HW116567   3.454   1.148   1.629 -0.5805 -1.7750 -2.5498
 5426SOL    HW216568   3.341   1.096   1.734  0.0350 -0.1842 -1.0570
 5427SOL     OW16569   4.629   2.617   4.096 -0.1402  0.2697 -0.6818
 5427SOL    HW116570   4.568   2.655   4.166  0.6701  2.0394 -0.8766
 5427SOL    HW216571   4.576   2.568   4.027 -1.1196  0.0808  0.1885
 5428SOL     OW16572   5.340   2.107   2.606 -0.1959 -0.1411  0.1131
 5428SOL    HW116573   5.429   2.075   2.571 -1.0325 -1.3134 -1.0570
 5428SOL    HW216574   5.329   2.204   2.585 -0.2279 -0.5620 -2.0605
 5429SOL     OW16575   3.729   4.849   4.605  0.4854  0.4390 -0.1126
 5429SOL    HW116576   3.664   4.786   4.648 -0.4066 -0.8693 -3.1313
 5429SOL    HW216577   3.729   4.936   4.655 -0.9600 -0.7034  2.0235
 5430SOL     OW16578   4.355   0.212   4.537  0.4117  0.2219 -0.1855
 5430SOL    HW116579   4.349   0.131   4.595  1.0629  0.2501 -0.0734
 5430SOL    HW216580   4.448   0.223   4.504  0.5046  1.3321  0.3889
 5431SOL     OW16581   4.163   2.786   2.921  0.3843 -0.0440  0.3529
 5431SOL    HW116582   4.140   2.848   2.996 -2.3186 -0.1190 -0.3069
 5431SOL    HW216583   4.102   2.707   2.923  0.1359  0.0137 -1.9663
 5432SOL     OW16584   4.104   4.044   4.843 -0.1540  0.0445  0.2473
 5432SOL    HW116585   4.197   4.081   4.845 -0.1625  0.2616 -1.6947
 5432SOL    HW216586   4.092   3.989   4.761 -0.5122 -3.4868  2.5007
 5433SOL     OW16587   3.119   3.701   4.572  0.5888  0.1784  0.4048
 5433SOL    HW116588   3.081   3.636   4.638  0.2941  0.0998  0.1581
 5433SOL    HW216589   3.113   3.662   4.480  1.6901 -0.0343  0.4073
 5434SOL     OW16590   5.415   2.217   0.257 -0.4668  0.0904 -0.0064
 5434SOL    HW116591   5.502   2.170   0.272 -0.6023  0.0139  0.5880
 5434SOL    HW216592   5.339   2.157   0.285 -0.8790 -0.7228 -2.5556
 5435SOL     OW16593   0.809   3.473   2.192 -0.3955 -0.0926  0.0515
 5435SOL    HW116594   0.877   3.400   2.194 -1.8341 -1.7710 -3.1644
 5435SOL    HW216595   0.724   3.439   2.233  0.1024  1.4204  2.5416
 5436SOL     OW16596   2.957   2.460   4.206 -0.5388  0.0853 -0.0844
 5436SOL    HW116597   2.913   2.550   4.210  0.5812  0.6171  1.4726
 5436SOL    HW216598   2.888   2.389   4.224 -1.5776  0.5302 -2.0251
 5437SOL     OW16599   3.956   4.911   4.467 -0.1544 -0.8850 -0.0516
 5437SOL    HW116600   4.028   4.876   4.528 -0.4188  0.7173  1.2581
 5437SOL    HW216601   3.869   4.869   4.490  0.0018 -1.3360 -0.2824
 5438SOL     OW16602   5.937   2.568   4.895 -0.1517  0.4237  0.3158
 5438SOL    HW116603   5.871   2.581   4.821 -1.1660 -1.0332  0.9271
 5438SOL    HW216604   5.889   2.557   4.982  0.9648  0.6462  0.9798
 5439SOL     OW16605   4.420   4.000   5.146 -0.1011  0.4972 -0.0156
 5439SOL    HW116606   4.350   4.067   5.168 -0.3495  0.2535 -0.0575
 5439SOL    HW216607   4.504   4.047   5.118 -0.5374  0.7841 -0.8610
 5440SOL     OW16608   4.508   3.880   4.757 -0.1778  0.1546  0.1347
 5440SOL    HW116609   4.533   3.834   4.842  1.6769 -0.3640 -0.6619
 5440SOL    HW216610   4.519   3.817   4.680 -0.2688  1.1001 -0.6750
 5441SOL     OW16611   5.967   3.330   0.622 -0.1572  0.0062 -0.2537
 5441SOL    HW116612   5.956   3.393   0.545 -0.0743  1.4984  0.9062
 5441SOL    HW216613   5.879   3.288   0.644  0.0019 -1.2001 -1.7424
 5442SOL     OW16614   4.134   1.943   5.485  0.5470  0.2179  0.7525
 5442SOL    HW116615   4.222   1.917   5.524  0.7933 -1.2526 -0.6474
 5442SOL    HW216616   4.108   1.875   5.416 -1.2472  1.1295  0.4968
 5443SOL     OW16617   5.896   4.193   3.401 -0.2069 -0.0146 -0.1662
 5443SOL    HW116618   5.975   4.193   3.340  0.1193 -1.8152  0.2039
 5443SOL    HW216619   5.927   4.202   3.495 -0.7031  2.6629 -0.1774
 5444SOL     OW16620   3.084   2.371   3.351 -0.4975  0.1068 -0.4898
 5444SOL    HW116621   3.143   2.365   3.432 -0.9235 -0.3588 -0.2116
 5444SOL    HW216622   3.141   2.371   3.269 -0.0450  0.8460 -0.1873
 5445SOL     OW16623   4.837   3.918   4.556  0.1757  0.1335 -0.7117
 5445SOL    HW116624   4.826   3.890   4.651  1.3914 -0.8275 -0.8333
 5445SOL    HW216625   4.812   3.841   4.496  3.3688 -0.7628 -1.0595
 5446SOL     OW16626   3.573   4.027   4.039  0.2777 -0.4362  0.3442
 5446SOL    HW116627   3.605   4.091   3.969 -0.3839  0.2602  0.6550
 5446SOL    HW216628   3.634   3.949   4.044 -0.1739 -0.9576 -1.6519
 5447SOL     OW16629   2.004   4.012   4.542  0.1994  0.0235 -0.1210
 5447SOL    HW116630   2.027   3.916   4.522 -0.5033  0.0306 -1.0178
 5447SOL    HW216631   1.926   4.015   4.604  0.0236  0.0105 -0.3391
 5448SOL     OW16632   5.058   4.048   5.325  0.2050  0.0878 -0.0431
 5448SOL    HW116633   4.984   4.089   5.270  0.2086  2.3726  1.4916
 5448SOL    HW216634   5.020   4.013   5.411  0.5414 -1.2407 -0.4196
 5449SOL     OW16635   5.068   2.480   3.132  0.5548  0.4112  1.0136
 5449SOL    HW116636   5.141   2.539   3.166  0.1626 -0.2900  3.2313
 5449SOL    HW216637   4.980   2.515   3.164  0.1954 -0.5463  1.1061
 5450SOL     OW16638   4.461   4.326   5.594 -0.8452  0.3958  0.2153
 5450SOL    HW116639   4.422   4.416   5.573 -1.4588  0.1432  0.2420
 5450SOL    HW216640   4.474   4.317   5.693 -0.2862  0.6529  0.1662
 5451SOL     OW16641   3.795   2.471   0.075 -0.0703 -0.0993  0.4375
 5451SOL    HW116642   3.884   2.425   0.073  0.2706  0.5956 -0.8581
 5451SOL    HW216643   3.756   2.473  -0.017 -0.6793  1.0532  0.7054
 5452SOL     OW16644   5.663   4.793   3.390 -0.5274 -0.2439 -0.1514
 5452SOL    HW116645   5.603   4.808   3.469  0.3587 -0.7962  0.6531
 5452SOL    HW216646   5.706   4.703   3.398  0.6139  0.2501 -0.5563
 5453SOL     OW16647   3.250   2.350   3.564 -0.7453  0.2337 -0.3575
 5453SOL    HW116648   3.342   2.313   3.573 -0.3151  1.2726 -0.2925
 5453SOL    HW216649   3.237   2.422   3.632 -1.4025  0.4830 -0.7400
 5454SOL     OW16650   4.064   4.362   4.574 -0.1827  0.4055 -0.5253
 5454SOL    HW116651   3.997   4.398   4.509  0.1455 -0.5309 -1.3996
 5454SOL    HW216652   4.019   4.341   4.661 -0.8289  0.6901 -0.7896
 5455SOL     OW16653   0.912   2.342   1.285 -0.2417 -0.1209 -0.0353
 5455SOL    HW116654   0.820   2.360   1.321 -0.8594 -1.8452 -0.6638
 5455SOL    HW216655   0.960   2.280   1.347 -0.6664 -1.6923 -1.2360
 5456SOL     OW16656   4.609   3.329   4.837 -0.7700  0.1785 -0.2754
 5456SOL    HW116657   4.617   3.269   4.916  1.2872 -0.3210 -0.8016
 5456SOL    HW216658   4.642   3.281   4.755 -1.2348  1.2577 -1.1151
 5457SOL     OW16659   4.767   4.415   3.535  0.3567 -0.2782 -0.4206
 5457SOL    HW116660   4.743   4.479   3.608 -0.9186 -0.5847 -0.5565
 5457SOL    HW216661   4.824   4.342   3.572  1.5860  0.7506 -0.2025
 5458SOL     OW16662   0.202   4.108   5.058  0.2523 -0.1624 -0.0742
 5458SOL    HW116663   0.236   4.158   4.979  0.5830  0.3211  0.3665
 5458SOL    HW216664   0.253   4.136   5.140  1.3938 -2.1885 -0.0208
 5459SOL     OW16665   0.007   0.855   5.744 -0.4808 -0.1478  0.7440
 5459SOL    HW116666  -0.037   0.786   5.685  0.3632 -1.4951  1.6380
 5459SOL    HW216667   0.031   0.934   5.688  0.0315 -1.2559 -0.6959
 5460SOL     OW16668   3.690   1.971   4.675  0.1999 -0.1211 -0.1730
 5460SOL    HW116669   3.725   1.877   4.665  0.6479 -0.0676  0.7233
 5460SOL    HW216670   3.607   1.969   4.730  0.0058 -0.0284 -0.4636
 5461SOL     OW16671   3.324   1.846   3.635 -0.0422  0.3100  0.5894
 5461SOL    HW116672   3.360   1.897   3.713 -1.7085  1.3033  0.7637
 5461SOL    HW216673   3.390   1.776   3.607  1.1835  0.8557  1.9917
 5462SOL     OW16674   4.840   4.026   0.807 -0.1918 -0.3604  0.0670
 5462SOL    HW116675   4.761   3.966   0.808  0.2663 -1.0437 -1.3684
 5462SOL    HW216676   4.814   4.115   0.770 -0.2960 -0.6095 -0.4757
 5463SOL     OW16677   3.064   2.054   5.589  0.1595  0.2864  0.2847
 5463SOL    HW116678   3.087   2.012   5.677 -2.1788 -0.8258  0.4353
 5463SOL    HW216679   3.118   2.011   5.517 -0.1008 -0.9661  0.8130
 5464SOL     OW16680   4.784   4.134   4.377  0.3113  0.0420  0.1696
 5464SOL    HW116681   4.694   4.121   4.337  0.9413 -0.3909 -1.1706
 5464SOL    HW216682   4.808   4.054   4.432  0.1283 -0.1086  0.0290
 5465SOL     OW16683   0.279   3.594   3.287  0.3430  0.0393 -0.0726
 5465SOL    HW116684   0.367   3.605   3.332  0.6107  0.3254 -0.6432
 5465SOL    HW216685   0.287   3.624   3.192 -1.1421  3.1398  0.6480
 5466SOL     OW16686   3.536   3.026   4.901 -0.4114 -0.0613 -0.0195
 5466SOL    HW116687   3.470   3.101   4.899 -0.4773 -0.1264 -0.2510
 5466SOL    HW216688   3.608   3.047   4.968  0.8760  1.3008 -1.7440
 5467SOL     OW16689   5.917   0.817   4.307 -0.2460  0.3153  0.4550
 5467SOL    HW116690   6.012   0.786   4.301 -0.0744  0.2832  2.6894
 5467SOL    HW216691   5.859   0.756   4.252  1.0567  0.6727 -1.4049
 5468SOL     OW16692   0.111   5.144   1.939  0.0039  0.2862  0.4359
 5468SOL    HW116693   0.168   5.066   1.965 -1.3241 -1.1280 -0.6658
 5468SOL    HW216694   0.045   5.163   2.012  0.0737  0.1024  0.5484
 5469SOL     OW16695   4.718   2.055   4.487  0.0784 -0.0942 -0.5153
 5469SOL    HW116696   4.755   2.056   4.394 -1.5196 -0.3215 -1.1808
 5469SOL    HW216697   4.732   1.964   4.528  0.0856 -0.2348 -0.8296
 5470SOL     OW16698   1.011   3.111   0.875  0.5323  0.4010 -0.2136
 5470SOL    HW116699   1.101   3.155   0.876  0.2405  1.0580 -1.5414
 5470SOL    HW216700   0.975   3.110   0.782 -0.1591 -1.2775  0.0345
 5471SOL     OW16701   3.073   4.028   5.309  0.3397  0.2929 -0.1926
 5471SOL    HW116702   3.129   3.945   5.318 -1.0108 -0.6149  0.0954
 5471SOL    HW216703   3.089   4.087   5.388  0.9413  0.0876 -0.1507
 5472SOL     OW16704   4.842   1.415   4.537 -0.2953 -0.1334 -0.0300
 5472SOL    HW116705   4.921   1.444   4.483 -1.2714  0.4594 -1.1866
 5472SOL    HW216706   4.839   1.467   4.623  0.4818 -0.0740 -0.0318
 5473SOL     OW16707   4.936   1.817   4.846  0.1489 -0.2459 -0.1131
 5473SOL    HW116708   5.032   1.801   4.823  0.7651 -0.5638  2.3461
 5473SOL    HW216709   4.931   1.867   4.933 -1.9231  0.5675 -0.6438
 5474SOL     OW16710   2.858   1.533   0.311  0.6193  0.5216  0.1717
 5474SOL    HW116711   2.892   1.627   0.314 -0.2359  0.8747 -0.8260
 5474SOL    HW216712   2.758   1.533   0.317  0.5861 -0.3033 -0.1973
 5475SOL     OW16713   3.811   1.672   5.897  0.4051  0.2159 -0.7948
 5475SOL    HW116714   3.714   1.673   5.871 -0.1477 -2.7815  0.6742
 5475SOL    HW216715   3.819   1.675   5.997  1.8614  0.8739 -0.9092
 5476SOL     OW16716   4.164   1.544   3.454  0.0722 -0.2880 -0.0303
 5476SOL    HW116717   4.186   1.620   3.516  0.3027 -1.9938  2.1079
 5476SOL    HW216718   4.075   1.505   3.481 -0.5450 -0.1548 -1.7737
 5477SOL     OW16719   0.494   3.907   0.338 -0.4711  0.2862  0.1451
 5477SOL    HW116720   0.400   3.939   0.351 -0.2881  0.2836  1.6304
 5477SOL    HW216721   0.498   3.808   0.351 -0.0417  0.4670  1.5797
 5478SOL     OW16722   4.927   5.167   5.487  0.5865  0.5783 -0.0683
 5478SOL    HW116723   4.846   5.225   5.485  1.1545  1.3800 -0.0351
 5478SOL    HW216724   4.898   5.071   5.490 -0.3820  0.8698  1.4357
 5479SOL     OW16725   3.802   2.369   4.983 -0.1614  0.0078  0.7085
 5479SOL    HW116726   3.800   2.369   4.883 -0.0198 -0.2245  0.7041
 5479SOL    HW216727   3.887   2.326   5.015 -1.1029 -1.7759  0.9400
 5480SOL     OW16728   4.970   4.156   4.072 -0.3781 -0.7452 -0.5454
 5480SOL    HW116729   4.965   4.196   4.164 -2.5055 -1.0338 -0.4902
 5480SOL    HW216730   4.981   4.229   4.005  0.9260 -0.5093 -0.1026
 5481SOL     OW16731   3.912   1.763   3.171 -0.5856 -0.2217 -0.5355
 5481SOL    HW116732   3.875   1.680   3.213 -0.7115  0.2051  0.2050
 5481SOL    HW216733   3.907   1.839   3.236 -0.8483  0.4683 -1.3490
 5482SOL     OW16734   0.376   3.311   5.196  0.2807 -0.4732 -0.5479
 5482SOL    HW116735   0.434   3.337   5.119 -0.2835  1.6021 -0.3371
 5482SOL    HW216736   0.398   3.218   5.225  2.3156 -0.3463 -1.5360
 5483SOL     OW16737   5.823   3.366   5.550 -0.0549  0.3652 -0.1578
 5483SOL    HW116738   5.788   3.451   5.590  0.3253  0.7768 -0.6885
 5483SOL    HW216739   5.779   3.351   5.462 -0.6813 -0.3928  0.2692
 5484SOL     OW16740   4.303   1.654   3.971 -0.3956  0.2260  0.1363
 5484SOL    HW116741   4.332   1.638   3.877 -0.1098  1.0568  0.0729
 5484SOL    HW216742   4.329   1.577   4.028  0.4029  0.1951 -0.2629
 5485SOL     OW16743   4.798   3.066   5.397 -0.3692  0.1388  0.0744
 5485SOL    HW116744   4.835   3.040   5.486  2.2708 -1.0084 -1.2155
 5485SOL    HW216745   4.791   3.166   5.392  0.5897  0.2900  1.1840
 5486SOL     OW16746   3.216   2.535   0.183  0.5216  0.3938  0.5199
 5486SOL    HW116747   3.216   2.629   0.151  1.8246 -0.1365 -1.2268
 5486SOL    HW216748   3.274   2.480   0.123  0.2328 -1.4153  1.8231
 5487SOL     OW16749   4.441   4.117   3.689 -0.1148  0.0934 -0.7484
 5487SOL    HW116750   4.424   4.123   3.590 -3.1311  0.9488 -0.2807
 5487SOL    HW216751   4.357   4.088   3.735  0.6525  1.5720  1.7445
 5488SOL     OW16752   5.893   2.273   4.760 -0.2823 -0.4838 -0.0009
 5488SOL    HW116753   5.934   2.333   4.692 -1.5470 -0.0982 -0.4520
 5488SOL    HW216754   5.964   2.240   4.823  0.7844 -0.2676 -1.0522
 5489SOL     OW16755   1.499   2.315   2.241  0.6039 -0.0542  0.8324
 5489SOL    HW116756   1.420   2.363   2.203  0.3428 -0.1801  1.2109
 5489SOL    HW216757   1.521   2.236   2.183  0.8494  0.3391  0.3761
 5490SOL     OW16758   2.880   1.552   3.543  0.4382  0.2323 -0.3544
 5490SOL    HW116759   2.890   1.646   3.576  1.8959  0.2526 -0.7778
 5490SOL    HW216760   2.810   1.549   3.471  0.1118  0.9133 -0.0808
 5491SOL     OW16761   5.330   3.220   4.339  0.2650  0.3983  0.2224
 5491SOL    HW116762   5.423   3.214   4.302  0.6445 -0.7320  1.3188
 5491SOL    HW216763   5.299   3.315   4.333  0.6401  0.4542 -2.1250
 5492SOL     OW16764   3.439   3.030   5.332 -0.1157  0.1362 -0.1718
 5492SOL    HW116765   3.449   2.930   5.331  0.8278  0.1998  0.8521
 5492SOL    HW216766   3.527   3.071   5.356 -0.4324  1.2378 -0.8454
 5493SOL     OW16767   4.698   4.023   3.985  0.2864  0.0018 -0.0601
 5493SOL    HW116768   4.766   3.979   4.043 -0.4875  0.4481  1.2306
 5493SOL    HW216769   4.626   3.958   3.962  1.1372 -0.4945 -1.4954
 5494SOL     OW16770   0.913   2.539   3.709  0.5933  0.6572  0.8221
 5494SOL    HW116771   0.995   2.497   3.746  1.0016  0.8580  0.1678
 5494SOL    HW216772   0.918   2.539   3.609 -0.3049  0.4667  0.7662
 5495SOL     OW16773   5.084   3.329   0.308 -0.0012 -0.3771  0.6112
 5495SOL    HW116774   5.090   3.290   0.215  0.9781 -0.5551  0.7336
 5495SOL    HW216775   5.005   3.390   0.314  0.5360  0.4899 -0.6744
 5496SOL     OW16776   3.916   1.530   3.810 -0.4176 -0.0330  0.2010
 5496SOL    HW116777   3.957   1.590   3.879 -0.8265  1.7106 -1.0129
 5496SOL    HW216778   3.855   1.464   3.855 -0.7339  1.1133  1.5069
 5497SOL     OW16779   4.960   1.974   5.893  0.4900 -0.0713  0.2303
 5497SOL    HW116780   4.944   1.878   5.917 -0.9484  0.4735  1.6403
 5497SOL    HW216781   4.900   1.999   5.817 -1.4370  0.4422  1.8125
 5498SOL     OW16782   4.222   4.582   4.667 -0.1424  0.7071  0.0163
 5498SOL    HW116783   4.280   4.596   4.587  0.0496  1.9348  0.3418
 5498SOL    HW216784   4.170   4.498   4.657  0.6181  0.3318 -0.9411
 5499SOL     OW16785   5.914   3.487   4.203  0.4087  0.0045  0.2303
 5499SOL    HW116786   5.882   3.530   4.287 -1.3704 -0.4636 -0.1682
 5499SOL    HW216787   5.872   3.533   4.124 -0.8978 -1.8742 -0.2296
 5500SOL     OW16788   0.177   4.239   0.156  0.0031  0.0543 -0.5553
 5500SOL    HW116789   0.202   4.276   0.067  0.4371  1.1181 -0.0116
 5500SOL    HW216790   0.239   4.275   0.226 -0.1457 -0.9909  0.1416
 5501SOL     OW16791   4.813   2.335   2.835  0.2669 -0.2795  0.2959
 5501SOL    HW116792   4.748   2.276   2.788 -1.6812  1.1634  1.0224
 5501SOL    HW216793   4.783   2.430   2.828  2.1462  0.4141  0.9629
 5502SOL     OW16794   5.075   1.508   4.439 -0.2163 -0.0459  0.5802
 5502SOL    HW116795   5.099   1.481   4.345 -0.4012 -2.3473  1.1146
 5502SOL    HW216796   5.157   1.507   4.496 -0.4130 -0.7544  0.8655
 5503SOL     OW16797   4.402   1.986   2.604  0.1818  0.3933  0.1376
 5503SOL    HW116798   4.456   2.009   2.522 -0.5521  0.3343 -0.3731
 5503SOL    HW216799   4.389   1.887   2.608  1.3138  0.2584  1.0423
 5504SOL     OW16800   4.946   2.671   4.729  0.2037 -0.4415  0.4916
 5504SOL    HW116801   4.997   2.691   4.645 -0.0330 -1.4699  0.0726
 5504SOL    HW216802   4.849   2.656   4.706 -0.2717  1.2731  1.2450
 5505SOL     OW16803   4.982   2.737   5.585  0.6000  0.4011  0.1793
 5505SOL    HW116804   4.996   2.692   5.497  1.3359 -0.8816  0.9273
 5505SOL    HW216805   5.068   2.775   5.618  0.8604 -1.1151  1.3759
 5506SOL     OW16806   4.384   1.849   4.154 -0.1840 -0.0412 -0.1056
 5506SOL    HW116807   4.366   1.939   4.116 -0.8330 -0.1419 -0.0440
 5506SOL    HW216808   4.366   1.779   4.085 -0.5454 -0.1751  0.1250
 5507SOL     OW16809   0.212   5.039   3.449 -0.0505 -0.1043  0.2047
 5507SOL    HW116810   0.152   5.109   3.409 -0.8306  0.3004  2.0054
 5507SOL    HW216811   0.158   4.957   3.468  0.9193 -1.4257 -2.2054
 5508SOL     OW16812   4.029   3.972   3.660  0.0910 -0.3471  0.3937
 5508SOL    HW116813   3.966   3.902   3.690 -0.5160  0.0871  0.1525
 5508SOL    HW216814   4.047   3.962   3.562  0.8245 -0.7978  0.5676
 5509SOL     OW16815   4.254   3.940   4.193  0.0246 -0.0964 -0.8652
 5509SOL    HW116816   4.277   4.037   4.191 -0.3333 -0.0173 -2.0970
 5509SOL    HW216817   4.224   3.915   4.286  0.9454  0.7507 -0.3199
 5510SOL     OW16818   0.091   3.495   3.480 -0.0371 -0.9757  0.0599
 5510SOL    HW116819   0.150   3.559   3.430 -0.9444 -1.7915 -2.2002
 5510SOL    HW216820  -0.004   3.523   3.471 -0.2575 -1.3678  1.0537
 5511SOL     OW16821   4.318   2.512   4.706  0.1383  0.0367 -0.0847
 5511SOL    HW116822   4.338   2.586   4.642 -2.1614  1.0073  0.2328
 5511SOL    HW216823   4.320   2.425   4.658  3.7475  0.0806 -0.2971
 5512SOL     OW16824   4.620   3.192   5.092  0.0230  0.0443  0.0350
 5512SOL    HW116825   4.651   3.098   5.084  0.4287  0.2496 -0.9628
 5512SOL    HW216826   4.527   3.194   5.126 -0.3729 -0.7785 -0.9455
 5513SOL     OW16827   0.283   2.811   4.432 -0.0545  0.0709 -0.2652
 5513SOL    HW116828   0.327   2.724   4.454  0.8746  0.6636  0.2447
 5513SOL    HW216829   0.194   2.815   4.478  0.0245 -0.4799 -0.0477
 5514SOL     OW16830   3.968   1.851   3.426  0.1109  0.0891 -0.2682
 5514SOL    HW116831   4.057   1.849   3.380 -0.9526  2.0846 -2.6171
 5514SOL    HW216832   3.967   1.925   3.494  0.2252  0.0672 -0.2424
 5515SOL     OW16833   4.297   2.204   4.460 -0.4929 -0.8139 -0.1275
 5515SOL    HW116834   4.368   2.190   4.529 -0.4162 -0.4275 -0.1232
 5515SOL    HW216835   4.337   2.245   4.379 -0.3291 -2.5168 -0.9460
 5516SOL     OW16836   5.280   4.313   4.492  0.4305  0.1969  0.1203
 5516SOL    HW116837   5.274   4.223   4.534  0.9567  0.4318  0.7028
 5516SOL    HW216838   5.253   4.306   4.395  1.9552 -0.8899 -0.2628
 5517SOL     OW16839   5.242   3.129   1.910  0.3866  0.0288 -0.0223
 5517SOL    HW116840   5.204   3.212   1.951  0.5360  0.5454 -0.9192
 5517SOL    HW216841   5.173   3.087   1.851  0.5445 -0.1194 -0.1011
 5518SOL     OW16842   5.207   4.711   4.400  0.4001 -0.4932 -0.2340
 5518SOL    HW116843   5.122   4.660   4.416  0.9635 -1.0442  1.2059
 5518SOL    HW216844   5.281   4.669   4.453  1.3216  0.6613 -0.5625
 5519SOL     OW16845   5.175   4.322   3.963 -0.3528 -0.0437 -0.8385
 5519SOL    HW116846   5.164   4.388   3.889 -0.2568 -1.3134 -2.0288
 5519SOL    HW216847   5.266   4.280   3.956 -0.3902 -0.2575 -0.0696
 5520SOL     OW16848   5.389   0.726   2.587 -0.0213  0.0414 -0.1427
 5520SOL    HW116849   5.372   0.743   2.489  1.3973 -0.0988 -0.4367
 5520SOL    HW216850   5.339   0.645   2.616 -0.3396 -0.0016 -0.7969
 5521SOL     OW16851   4.124   1.901   3.817 -0.6517 -0.3821 -0.1809
 5521SOL    HW116852   4.076   1.988   3.819 -0.4800 -0.0700 -3.7233
 5521SOL    HW216853   4.091   1.842   3.891 -0.9720  2.4885  2.1261
 5522SOL     OW16854   5.417   3.643   0.283 -0.2575 -0.2001  0.0131
 5522SOL    HW116855   5.492   3.705   0.303 -0.3916  0.0011 -0.1001
 5522SOL    HW216856   5.375   3.612   0.368  0.7700 -1.3349  0.1349
 5523SOL     OW16857   3.762   2.576   1.083 -0.0250  0.5045  0.2299
 5523SOL    HW116858   3.716   2.499   1.127 -0.7004  0.4919 -0.4820
 5523SOL    HW216859   3.811   2.629   1.152 -0.4756  0.0792  0.8897
 5524SOL     OW16860   5.477   4.383   4.183  0.1771  0.5165  0.5753
 5524SOL    HW116861   5.387   4.379   4.227 -0.3957  0.4321 -0.5753
 5524SOL    HW216862   5.477   4.457   4.115  0.2227 -0.9295 -1.0504
 5525SOL     OW16863   2.845   2.878   0.581 -0.3787 -0.4221 -0.0476
 5525SOL    HW116864   2.872   2.957   0.526 -1.9659 -0.2993 -0.7167
 5525SOL    HW216865   2.813   2.909   0.670  0.7291 -0.4901  0.3896
 5526SOL     OW16866   3.783   3.986   4.595 -0.1076  0.7904  0.3815
 5526SOL    HW116867   3.801   4.045   4.517  0.2017  2.9458  2.0113
 5526SOL    HW216868   3.700   4.017   4.642 -0.3238 -0.5091  0.9126
 5527SOL     OW16869   4.923   3.573   4.632  0.2587  0.0120  0.2479
 5527SOL    HW116870   4.907   3.596   4.536 -0.5008 -0.4411  0.2617
 5527SOL    HW216871   4.965   3.652   4.678 -0.8632  0.8292 -0.0766
 5528SOL     OW16872   5.202   2.598   3.699 -0.1689  0.9908 -0.1822
 5528SOL    HW116873   5.130   2.528   3.693 -0.1752  0.8605  1.0943
 5528SOL    HW216874   5.292   2.554   3.692 -0.1896  1.1462 -1.7158
 5529SOL     OW16875   5.419   2.687   4.026  0.1495 -0.1554 -0.2020
 5529SOL    HW116876   5.480   2.608   4.027 -0.3694 -0.5577  0.7645
 5529SOL    HW216877   5.470   2.768   4.055  0.7478 -0.0621 -1.4429
 5530SOL     OW16878   2.999   2.284   5.464  0.2320  0.0250 -0.1276
 5530SOL    HW116879   2.935   2.318   5.533  0.5076 -0.5921  0.4507
 5530SOL    HW216880   3.042   2.200   5.498 -0.4847 -0.9453 -1.5283
 5531SOL     OW16881   4.046   1.799   5.816  0.2754  0.0707 -0.3186
 5531SOL    HW116882   4.015   1.882   5.768  0.0969  0.9767  1.2739
 5531SOL    HW216883   3.966   1.746   5.845  0.2517  0.8932  1.2256
 5532SOL     OW16884   4.010   0.568   4.823  0.2369  0.1855 -0.4922
 5532SOL    HW116885   3.932   0.516   4.857  1.5070 -0.9522  0.8509
 5532SOL    HW216886   4.077   0.504   4.783  0.6916  1.0811 -1.1900
 5533SOL     OW16887   4.865   3.460   4.323  0.0663  0.0364 -0.3505
 5533SOL    HW116888   4.849   3.419   4.234 -2.6255 -0.4633  0.2755
 5533SOL    HW216889   4.903   3.390   4.385 -1.4629 -0.6806 -0.1696
 5534SOL     OW16890   0.542   2.010   4.360 -0.1073 -0.2031 -0.5289
 5534SOL    HW116891   0.525   1.996   4.262  0.6827 -1.4411 -0.5202
 5534SOL    HW216892   0.604   1.939   4.393 -0.3126  0.2348  0.8687
 5535SOL     OW16893   3.921   4.797   4.892  0.2298  0.2413  0.0046
 5535SOL    HW116894   3.884   4.889   4.888 -1.9109 -0.5375  0.6733
 5535SOL    HW216895   3.909   4.760   4.984  0.2540 -1.0183 -0.4734
 5536SOL     OW16896   5.179   5.253   4.017 -0.4071 -0.0422 -0.3265
 5536SOL    HW116897   5.103   5.298   3.970 -0.5221  1.1511  0.9438
 5536SOL    HW216898   5.252   5.234   3.951 -0.7806  1.0885 -1.0917
 5537SOL     OW16899   0.534   1.410   0.932 -0.4314  0.0840 -0.1664
 5537SOL    HW116900   0.622   1.405   0.885 -0.2732 -0.6553  0.1923
 5537SOL    HW216901   0.476   1.333   0.903 -0.9167  0.4989 -0.3137
 5538SOL     OW16902   2.909   3.394   5.338 -0.0125 -0.0338 -0.2344
 5538SOL    HW116903   2.845   3.455   5.384  0.6953  0.4254  0.1516
 5538SOL    HW216904   2.997   3.440   5.325 -0.0978 -0.2390 -1.8007
 5539SOL     OW16905   2.947   1.396   5.171 -0.0846 -0.0752  0.3171
 5539SOL    HW116906   3.019   1.460   5.144  0.2720 -0.5575  0.0982
 5539SOL    HW216907   2.929   1.333   5.095 -1.3845  0.6015  0.0366
 5540SOL     OW16908   4.545   3.508   4.028  0.0730  0.6913 -0.3520
 5540SOL    HW116909   4.587   3.448   3.960 -0.7664  0.6638 -0.8612
 5540SOL    HW216910   4.480   3.456   4.083  1.0815  0.6057  0.8062
 5541SOL     OW16911   4.684   1.040   4.614  0.3132  0.1060 -0.7923
 5541SOL    HW116912   4.640   1.122   4.652 -1.2209 -2.0143  2.5234
 5541SOL    HW216913   4.783   1.051   4.618  0.1494  1.7823 -0.4281
 5542SOL     OW16914   2.979   3.272   0.219  0.4445  0.5420  0.2704
 5542SOL    HW116915   3.077   3.266   0.202  1.0226  1.9357  2.6629
 5542SOL    HW216916   2.944   3.358   0.183  0.1012  0.1136 -0.4467
 5543SOL     OW16917   3.303   2.775   3.335  0.2833  0.3266  0.0454
 5543SOL    HW116918   3.232   2.791   3.403 -0.2014  0.8742 -0.5779
 5543SOL    HW216919   3.356   2.859   3.321 -1.4997  1.1578 -2.3681
 5544SOL     OW16920   5.088   3.380   3.376 -0.1889 -0.0282  0.2180
 5544SOL    HW116921   5.096   3.282   3.357 -0.7851  0.0462 -0.4700
 5544SOL    HW216922   4.998   3.399   3.417 -0.1400  0.2505  0.1992
 5545SOL     OW16923   4.786   1.970   3.843  0.0074  0.3176 -0.0717
 5545SOL    HW116924   4.755   1.932   3.756  0.2483 -1.9985  0.7812
 5545SOL    HW216925   4.712   2.022   3.885  0.2346  2.4453 -2.1246
 5546SOL     OW16926   3.899   0.219   0.335 -0.0551 -0.1949 -0.0359
 5546SOL    HW116927   3.847   0.213   0.249 -0.8776  1.5747  0.3025
 5546SOL    HW216928   3.952   0.303   0.337  0.0698 -0.2820  1.1269
 5547SOL     OW16929   4.232   2.890   4.248 -0.0312  0.2417 -0.1909
 5547SOL    HW116930   4.201   2.809   4.199  0.0964  0.0973 -0.0299
 5547SOL    HW216931   4.319   2.921   4.208  1.6810 -1.6388  1.8619
 5548SOL     OW16932   4.763   4.081   3.228 -0.6043  0.0123 -0.1987
 5548SOL    HW116933   4.802   4.014   3.292  1.7952 -0.4886 -2.0452
 5548SOL    HW216934   4.747   4.167   3.276  2.3526  0.0658  0.9008
 5549SOL     OW16935   3.719   1.958   2.691  0.1158 -0.0218 -0.4410
 5549SOL    HW116936   3.709   1.951   2.790  1.4116  0.0223 -0.2903
 5549SOL    HW216937   3.681   2.045   2.660 -2.7728 -1.1622 -0.3813
 5550SOL     OW16938   5.306   0.553   1.689  0.3192  0.2530  0.1372
 5550SOL    HW116939   5.256   0.635   1.660  1.1541  0.5035 -0.6426
 5550SOL    HW216940   5.398   0.556   1.651  0.2029 -1.2872 -0.3101
 5551SOL     OW16941   5.871   1.442   4.512 -0.2842  0.2673 -0.0052
 5551SOL    HW116942   5.861   1.382   4.592  2.6163 -1.8780 -1.0488
 5551SOL    HW216943   5.853   1.389   4.429 -1.6764  2.0264 -0.8696
 5552SOL     OW16944   2.583   2.596   0.678 -0.0296  0.0554  0.0455
 5552SOL    HW116945   2.680   2.613   0.696 -0.1421 -0.7930  1.5597
 5552SOL    HW216946   2.573   2.506   0.636 -0.3144 -0.8803  2.0140
 5553SOL     OW16947   5.394   3.996   0.386  0.5991 -0.0729  0.1464
 5553SOL    HW116948   5.401   3.988   0.286 -1.7389 -0.6472 -0.0291
 5553SOL    HW216949   5.406   4.091   0.413  2.5514 -0.0826 -0.5074
 5554SOL     OW16950   5.117   3.655   5.253 -0.0026 -0.4009 -0.0645
 5554SOL    HW116951   5.075   3.571   5.219  0.9256  0.0569 -2.5348
 5554SOL    HW216952   5.201   3.632   5.302 -1.7623 -1.1297  2.9259
 5555SOL     OW16953   3.641   2.777   5.187  0.4911 -0.3447  0.1303
 5555SOL    HW116954   3.655   2.714   5.111  1.1214 -0.3804  0.2698
 5555SOL    HW216955   3.725   2.829   5.204 -0.1386  0.8054 -0.2160
 5556SOL     OW16956   5.808   1.777   2.492  0.3831  0.0585  0.2708
 5556SOL    HW116957   5.828   1.735   2.581 -1.4490  0.6775  1.0181
 5556SOL    HW216958   5.854   1.865   2.486  0.9304 -0.2141  0.3882
 5557SOL     OW16959   3.259   2.949   4.537  0.0350  0.6870  0.0397
 5557SOL    HW116960   3.310   2.910   4.613 -0.4988  0.8975  0.5124
 5557SOL    HW216961   3.177   2.995   4.571 -0.6050  0.1516 -0.7192
 5558SOL     OW16962   4.477   2.880   0.799  0.6862  0.2653  0.0810
 5558SOL    HW116963   4.565   2.926   0.788  1.1090 -0.6927 -0.6478
 5558SOL    HW216964   4.456   2.827   0.717 -0.5103  0.3576  0.2986
 5559SOL     OW16965   4.124   2.987   4.795  0.0661  1.1518  0.4737
 5559SOL    HW116966   4.212   3.031   4.808  0.3028  1.1186 -0.8883
 5559SOL    HW216967   4.092   3.003   4.702 -0.6291 -0.1504  0.4628
 5560SOL     OW16968   4.000   0.954   4.018 -0.4854  0.5949  0.1478
 5560SOL    HW116969   3.961   1.042   3.991 -0.6017  0.2999 -0.6928
 5560SOL    HW216970   4.086   0.969   4.067 -0.8392  1.1941  0.5947
 5561SOL     OW16971   4.479   1.408   1.759  0.5842 -0.4306 -0.0224
 5561SOL    HW116972   4.397   1.376   1.712 -1.8667  1.4588  2.6250
 5561SOL    HW216973   4.468   1.505   1.781  3.4218 -0.2093  0.7448
 5562SOL     OW16974   4.605   2.092   1.098 -0.2574 -0.0821  0.2080
 5562SOL    HW116975   4.624   2.024   1.027  0.3980 -1.4639  1.6503
 5562SOL    HW216976   4.625   2.184   1.063  1.6695 -0.8490 -0.8631
 5563SOL     OW16977   3.323   2.161   4.710 -0.1391 -0.6895  0.8258
 5563SOL    HW116978   3.388   2.086   4.721 -0.4541 -0.9334  1.0432
 5563SOL    HW216979   3.372   2.246   4.694  0.2139 -1.1007 -0.4045
 5564SOL     OW16980   2.620   2.874   3.939  0.1349 -0.0859  0.2359
 5564SOL    HW116981   2.548   2.912   3.998 -0.1363 -0.7941  0.3658
 5564SOL    HW216982   2.580   2.809   3.875  0.3634  0.9384 -1.0038
 5565SOL     OW16983   2.824   4.222   5.260 -0.5565 -0.7644  0.1525
 5565SOL    HW116984   2.739   4.235   5.209  0.3700  3.5967 -0.6486
 5565SOL    HW216985   2.903   4.238   5.201  0.6924 -0.0775  1.8959
 5566SOL     OW16986   0.748   3.329   3.667 -0.1048  0.0914  0.7093
 5566SOL    HW116987   0.687   3.354   3.592 -0.2311  0.3296  0.8932
 5566SOL    HW216988   0.841   3.315   3.631 -0.5493 -1.7708  0.1622
 5567SOL     OW16989   3.273   1.507   0.570 -0.4018 -0.0784  0.3039
 5567SOL    HW116990   3.280   1.582   0.636  0.5514  0.4681 -0.3969
 5567SOL    HW216991   3.357   1.452   0.573  0.5501  1.1615 -1.8676
 5568SOL     OW16992   3.769   3.238   0.716 -0.1504  0.0338  0.2744
 5568SOL    HW116993   3.742   3.190   0.799  1.7102 -0.7697  0.4537
 5568SOL    HW216994   3.796   3.172   0.646  0.1708  0.7563 -0.3045
 5569SOL     OW16995   2.306   2.235   4.931 -0.2878  0.1152  0.1892
 5569SOL    HW116996   2.313   2.195   5.023 -1.1037 -0.6888 -0.0849
 5569SOL    HW216997   2.276   2.165   4.866 -1.1862  1.0362 -0.4190
 5570SOL     OW16998   4.446   1.645   4.316 -0.1943  0.2444  0.3019
 5570SOL    HW116999   4.424   1.650   4.413  1.2032 -0.4433  0.6821
 5570SOL    HW217000   4.453   1.737   4.278 -0.6681  0.5166  0.8744
 5571SOL     OW17001   5.616   3.438   4.475 -0.5899  0.0735 -0.3907
 5571SOL    HW117002   5.603   3.346   4.439 -0.9495 -0.2490  0.5340
 5571SOL    HW217003   5.707   3.471   4.450  0.4510 -1.4254  1.1632
 5572SOL     OW17004   4.151   3.316   4.711  0.0300  0.1252  0.0199
 5572SOL    HW117005   4.230   3.278   4.760  0.2565 -0.4179 -0.7421
 5572SOL    HW217006   4.068   3.302   4.765  0.0211 -1.9623 -0.4555
 5573SOL     OW17007   2.880   0.153   5.631  0.1399 -0.2996 -0.5088
 5573SOL    HW117008   2.802   0.168   5.693 -0.4976 -0.0988 -1.3353
 5573SOL    HW217009   2.944   0.089   5.673  0.5085  1.0064  1.0283
 5574SOL     OW17010   5.847   2.555   4.424 -0.2521  0.1295  0.1448
 5574SOL    HW117011   5.814   2.567   4.518  0.5039  0.0070  0.4284
 5574SOL    HW217012   5.927   2.496   4.424 -1.4278 -1.5345 -0.7974
 5575SOL     OW17013   3.396   3.040   0.085  0.2252 -0.6031  0.2692
 5575SOL    HW117014   3.348   3.127   0.081  0.0613 -0.7393 -0.7743
 5575SOL    HW217015   3.471   3.047   0.151  0.6778  0.5653 -0.3437
 5576SOL     OW17016   4.405   3.327   5.802  0.5213 -0.6981  0.3529
 5576SOL    HW117017   4.440   3.332   5.709  0.2660  0.2710  0.2910
 5576SOL    HW217018   4.456   3.390   5.860 -0.0773 -0.4329  0.6030
 5577SOL     OW17019   5.430   4.428   3.397  0.0335  0.1441  0.0118
 5577SOL    HW117020   5.418   4.363   3.321  0.5543 -0.3227  0.3177
 5577SOL    HW217021   5.456   4.517   3.360 -1.0468  0.2814 -0.4375
 5578SOL     OW17022   3.746   5.358   4.056 -0.9280  0.0380  0.6490
 5578SOL    HW117023   3.735   5.335   3.959  1.0147  0.0379  0.3786
 5578SOL    HW217024   3.718   5.453   4.071 -1.8867 -0.1667  0.2429
 5579SOL     OW17025   4.636   3.519   5.471  0.0356  0.1319 -0.2537
 5579SOL    HW117026   4.619   3.560   5.381 -1.6940  0.5792  0.2340
 5579SOL    HW217027   4.573   3.442   5.484  0.0826  0.2460  0.6870
 5580SOL     OW17028   4.188   4.478   4.276 -0.6270 -0.0426 -0.1184
 5580SOL    HW117029   4.229   4.490   4.186 -0.4705  1.9496  0.1606
 5580SOL    HW217030   4.089   4.469   4.267 -0.5043 -1.0064 -0.5499
 5581SOL     OW17031   3.119   3.689   4.915 -0.2910 -0.4293  0.1206
 5581SOL    HW117032   3.201   3.719   4.868 -1.9134 -0.2872 -2.9042
 5581SOL    HW217033   3.121   3.590   4.928  0.9465 -0.2609  1.4994
 5582SOL     OW17034   4.512   4.605   5.220 -0.0311  0.7188  0.3614
 5582SOL    HW117035   4.601   4.627   5.179 -0.6481  0.0683 -1.3956
 5582SOL    HW217036   4.481   4.516   5.187 -1.5639  1.1446  0.5833
 5583SOL     OW17037   0.726   0.757   3.478  0.2004  0.1813 -0.2870
 5583SOL    HW117038   0.662   0.699   3.528  0.5401  0.2452  0.2335
 5583SOL    HW217039   0.676   0.835   3.440  0.1721  0.9637  1.2727
 5584SOL     OW17040   0.444   3.839   3.742  0.1659 -0.2662 -0.2825
 5584SOL    HW117041   0.375   3.863   3.811  0.4918 -1.3016  0.4350
 5584SOL    HW217042   0.457   3.740   3.741  0.7283 -0.1982 -1.3115
 5585SOL     OW17043   2.945   4.416   4.981  0.2920 -0.1962  0.2194
 5585SOL    HW117044   2.962   4.453   5.072 -0.1090  0.5450  0.0008
 5585SOL    HW217045   3.032   4.391   4.938  0.5875  0.6539  0.3074
 5586SOL     OW17046   3.219   4.545   5.132 -0.0844 -0.0107  0.4030
 5586SOL    HW117047   3.225   4.448   5.153 -0.3883 -0.1567 -0.1583
 5586SOL    HW217048   3.149   4.588   5.190 -0.6675 -0.3348 -0.0573
 5587SOL     OW17049   5.076   3.816   5.036 -0.1293  0.3579  0.1481
 5587SOL    HW117050   5.107   3.906   5.066  2.1978 -0.2200 -0.3515
 5587SOL    HW217051   5.088   3.750   5.110 -2.9559  0.6174  0.9310
 5588SOL     OW17052   3.935   4.736   4.061  0.2002 -0.0914 -0.3973
 5588SOL    HW117053   3.944   4.815   4.122 -2.8355  0.5218 -0.5941
 5588SOL    HW217054   3.938   4.651   4.114  3.5610  0.0378 -0.1930
 5589SOL     OW17055   5.866   4.167   4.706 -0.2935 -0.0422 -0.4341
 5589SOL    HW117056   5.856   4.123   4.795  1.3269 -0.4643 -0.4321
 5589SOL    HW217057   5.776   4.173   4.661 -1.1193  0.1151  1.1772
 5590SOL     OW17058   5.959   2.530   3.048 -0.1343 -0.5018 -0.2366
 5590SOL    HW117059   5.936   2.523   3.145 -2.4054 -0.8846 -0.7634
 5590SOL    HW217060   5.879   2.562   2.996  1.8304  2.7220 -1.6307
 5591SOL     OW17061   3.123   2.226   5.016 -0.3937  0.4145  0.3891
 5591SOL    HW117062   3.209   2.271   5.040  0.4952 -1.7432  1.4926
 5591SOL    HW217063   3.062   2.223   5.095 -1.5170  1.8518 -0.3587
 5592SOL     OW17064   5.552   2.929   4.112  0.2219 -0.0666  0.3430
 5592SOL    HW117065   5.574   2.940   4.209  0.5264  1.1314  0.1523
 5592SOL    HW217066   5.612   2.987   4.057 -0.1524 -0.5001 -0.5433
 5593SOL     OW17067   4.006   2.988   4.522 -0.1030  0.1589 -0.2598
 5593SOL    HW117068   4.030   3.049   4.447 -0.3592  0.4793 -0.0833
 5593SOL    HW217069   3.909   3.000   4.545 -0.2125 -0.4663 -0.3695
 5594SOL     OW17070   5.602   3.213   4.299  0.0139 -0.5058  0.0218
 5594SOL    HW117071   5.667   3.141   4.323 -1.1319 -1.4616  0.3879
 5594SOL    HW217072   5.615   3.239   4.203  1.5608  0.0242  0.3530
 5595SOL     OW17073   0.287   3.631   3.033  0.0369  0.0871  0.3447
 5595SOL    HW117074   0.260   3.546   2.987 -2.6193  0.5854  0.8377
 5595SOL    HW217075   0.297   3.704   2.965  1.7388 -0.4353 -0.0107
 5596SOL     OW17076   4.443   2.451   5.221 -0.1517  0.1753 -0.5102
 5596SOL    HW117077   4.417   2.371   5.166  0.6126  0.8945 -1.9930
 5596SOL    HW217078   4.527   2.491   5.183 -0.4832  1.6478  0.2416
 5597SOL     OW17079   5.814   5.547   4.686 -0.1037 -0.1309 -0.3737
 5597SOL    HW117080   5.854   5.464   4.646 -0.2985 -0.1201 -0.5939
 5597SOL    HW217081   5.827   5.546   4.785  0.9310  0.1255 -0.4859
 5598SOL     OW17082   4.649   4.474   4.376 -0.2516 -0.1948 -0.1958
 5598SOL    HW117083   4.659   4.450   4.472 -0.6332  0.8499  0.1186
 5598SOL    HW217084   4.621   4.570   4.368  0.8812  0.0586 -1.3887
 5599SOL     OW17085   5.740   2.945   4.626  0.0328  0.0565  0.4520
 5599SOL    HW117086   5.670   2.887   4.666  1.2388 -0.2545  2.2291
 5599SOL    HW217087   5.724   3.040   4.653 -1.0551  0.3755 -1.1765
 5600SOL     OW17088   4.500   4.097   4.366 -0.0455 -0.2378  0.0887
 5600SOL    HW117089   4.438   4.125   4.439  0.4559 -0.8843  0.7761
 5600SOL    HW217090   4.505   3.997   4.362 -0.0710 -0.2156 -0.8393
 5601SOL     OW17091   4.649   3.587   4.870  0.0407 -0.3891 -0.2127
 5601SOL    HW117092   4.700   3.625   4.948  0.5626 -0.0075 -0.7313
 5601SOL    HW217093   4.667   3.489   4.863  0.0752 -0.4056  0.0815
 5602SOL     OW17094   5.670   2.921   3.500 -0.8984  0.0941  0.2061
 5602SOL    HW117095   5.648   2.824   3.495 -0.5697 -0.1030  1.8365
 5602SOL    HW217096   5.658   2.963   3.410 -2.4213 -1.1418 -0.2162
 5603SOL     OW17097   3.372   2.625   4.538 -0.6199 -0.1377  0.1639
 5603SOL    HW117098   3.387   2.706   4.595 -0.6503  0.9699 -1.3331
 5603SOL    HW217099   3.305   2.647   4.467 -0.2116 -1.3138 -0.6006
 5604SOL     OW17100   4.328   2.725   5.257  0.0455  0.1144 -0.3409
 5604SOL    HW117101   4.400   2.794   5.267  0.1774  0.1194 -1.2306
 5604SOL    HW217102   4.365   2.634   5.277  0.1103  0.1934 -0.0955
 5605SOL     OW17103   4.104   3.140   4.325  0.8953  0.1730 -0.2166
 5605SOL    HW117104   4.137   3.051   4.294  0.9125  0.2173 -0.3258
 5605SOL    HW217105   4.174   3.185   4.381 -0.0602 -0.9943  2.0324
 5606SOL     OW17106   5.924   1.249   5.174 -0.0204  0.0507  0.8534
 5606SOL    HW117107   5.960   1.188   5.103 -0.0310  1.6595 -0.6125
 5606SOL    HW217108   5.833   1.217   5.201  0.7881 -1.7312  1.6540
 5607SOL     OW17109   3.718   1.641   4.393 -0.0377 -0.3068 -0.4887
 5607SOL    HW117110   3.744   1.546   4.411  1.8933  0.2291 -0.1688
 5607SOL    HW217111   3.680   1.681   4.476  1.0169 -0.2535 -0.0094
 5608SOL     OW17112   3.163   2.716   4.370  0.0367  0.8212  0.3396
 5608SOL    HW117113   3.144   2.627   4.327  0.3524  0.3288  1.1965
 5608SOL    HW217114   3.221   2.770   4.309 -1.1625  0.9527 -0.7449
 5609SOL     OW17115   5.542   3.756   5.407  0.8618 -0.4616  0.2071
 5609SOL    HW117116   5.610   3.730   5.476  0.1667 -0.0277  1.0744
 5609SOL    HW217117   5.532   3.855   5.407  0.7321 -0.4718 -0.4152
 5610SOL     OW17118   3.611   2.545   4.363  0.4431  0.2287 -0.1034
 5610SOL    HW117119   3.655   2.625   4.323  2.6231  0.2745  2.0950
 5610SOL    HW217120   3.531   2.573   4.415 -0.1403  0.6402 -1.1892
 5611SOL     OW17121   5.448   4.007   0.125  0.0912  0.0799 -0.1891
 5611SOL    HW117122   5.435   3.914   0.091 -0.6081 -0.1958  0.7713
 5611SOL    HW217123   5.545   4.027   0.131  0.3770 -1.5297  1.9145
 5612SOL     OW17124   0.132   3.901   4.710  0.1643 -0.5931  0.2080
 5612SOL    HW117125   0.124   3.814   4.758  0.7581 -0.3194  0.8208
 5612SOL    HW217126   0.078   3.970   4.758 -0.0508 -0.5435 -0.0984
 5613SOL     OW17127   1.196   2.047   4.560 -0.0069 -0.3533  0.0942
 5613SOL    HW117128   1.273   2.111   4.568  0.4294 -0.7709 -0.6360
 5613SOL    HW217129   1.122   2.076   4.620  1.2513 -0.7292  1.9138
 5614SOL     OW17130   4.674   2.167   5.786  0.2592 -0.1510  0.4458
 5614SOL    HW117131   4.580   2.193   5.806  0.0202 -0.7932  0.1681
 5614SOL    HW217132   4.735   2.245   5.805 -0.3931  0.4674  0.0345
 5615SOL     OW17133   3.554   1.790   2.341  0.5408  0.5929  0.0105
 5615SOL    HW117134   3.517   1.776   2.432  1.5626  0.5633  0.4334
 5615SOL    HW217135   3.546   1.886   2.316  0.0009  0.5506  0.0099
 5616SOL     OW17136   5.290   2.292   3.385  0.2291 -0.8900  0.0537
 5616SOL    HW117137   5.192   2.311   3.394  0.0765 -1.4200 -0.4671
 5616SOL    HW217138   5.306   2.231   3.307  1.2204  1.3616 -1.6307
 5617SOL     OW17139   1.606   3.890   4.296  0.0506  0.0256 -0.5049
 5617SOL    HW117140   1.629   3.933   4.208 -0.3631 -0.3863 -0.8220
 5617SOL    HW217141   1.576   3.796   4.280 -1.1962  0.3282 -0.0481
 5618SOL     OW17142   4.516   2.958   5.285 -0.3522  0.3101 -0.1682
 5618SOL    HW117143   4.456   3.033   5.256 -2.0374 -0.2732  1.6154
 5618SOL    HW217144   4.571   2.988   5.363  0.3886  0.2769 -0.6702
 5619SOL     OW17145   4.517   1.604   3.343  0.0952  0.0047  0.4994
 5619SOL    HW117146   4.590   1.600   3.411  2.6099  2.6730 -1.7591
 5619SOL    HW217147   4.542   1.550   3.262 -1.6000 -0.9533  0.5557
 5620SOL     OW17148   4.225   3.698   2.984 -0.1049  0.4029  0.4762
 5620SOL    HW117149   4.128   3.678   2.971 -0.0845  0.8399 -0.4728
 5620SOL    HW217150   4.238   3.752   3.067 -0.7677  1.0124  0.1903
 5621SOL     OW17151   2.506   4.220   4.810 -0.2278  0.4300 -0.5078
 5621SOL    HW117152   2.424   4.259   4.853  1.0205  1.1753  1.3598
 5621SOL    HW217153   2.577   4.290   4.805  0.8013 -0.5884 -0.6553
 5622SOL     OW17154   5.205   1.076   3.693 -0.2136  0.4661 -0.2927
 5622SOL    HW117155   5.243   1.058   3.784 -1.4171 -1.9611 -0.1925
 5622SOL    HW217156   5.107   1.058   3.694  0.1013 -1.9278 -2.5648
 5623SOL     OW17157   4.495   2.199   3.764  0.2637 -0.1532 -0.2599
 5623SOL    HW117158   4.507   2.102   3.782 -0.6573 -0.6318 -2.0447
 5623SOL    HW217159   4.399   2.224   3.776  0.0845  0.0374 -1.8378
 5624SOL     OW17160   4.511   4.982   5.016 -0.7977  0.2363 -0.2783
 5624SOL    HW117161   4.427   4.969   4.964 -1.1464 -1.6027  0.6362
 5624SOL    HW217162   4.490   4.979   5.114  0.4875 -1.9511 -0.0027
 5625SOL     OW17163   4.420   3.794   5.337 -0.2125  0.1167  0.0214
 5625SOL    HW117164   4.338   3.746   5.367 -1.0384  0.6677 -1.2587
 5625SOL    HW217165   4.394   3.868   5.274  0.9261  2.8285  2.5313
 5626SOL     OW17166   3.722   5.612   4.692 -0.0034 -0.4736 -0.1117
 5626SOL    HW117167   3.783   5.672   4.641 -1.0709  0.3796 -0.4221
 5626SOL    HW217168   3.685   5.661   4.771  1.0305 -1.5354  1.0720
 5627SOL     OW17169   4.928   2.531   5.283 -0.5218  0.6387  0.7574
 5627SOL    HW117170   4.909   2.434   5.297 -1.3536  0.5496 -0.7503
 5627SOL    HW217171   5.013   2.542   5.232  0.2223  0.7813  1.9817
 5628SOL     OW17172   4.334   2.101   4.084 -0.5036  0.1091  0.1808
 5628SOL    HW117173   4.381   2.172   4.137 -1.9692  0.1824  1.4415
 5628SOL    HW217174   4.244   2.136   4.055 -1.1584 -1.1519  0.6463
 5629SOL     OW17175   4.324   3.103   4.014  0.5160 -0.1837  0.4703
 5629SOL    HW117176   4.232   3.073   3.991  0.1856  0.5475  0.8243
 5629SOL    HW217177   4.354   3.057   4.098  0.6395 -0.7296  0.1341
 5630SOL     OW17178   4.644   1.395   5.156 -0.2346  0.4184  1.0274
 5630SOL    HW117179   4.699   1.399   5.239  1.3787 -0.5073  0.0416
 5630SOL    HW217180   4.606   1.303   5.145 -2.6453  1.2132  2.0569
 5631SOL     OW17181   4.376   5.276   5.734 -0.1729 -0.1577  0.2552
 5631SOL    HW117182   4.387   5.185   5.694  0.5907 -0.6920  1.6195
 5631SOL    HW217183   4.409   5.275   5.828 -0.2522  1.5189  0.3261
 5632SOL     OW17184   0.546   1.123   5.532  0.0158 -0.1304 -0.3124
 5632SOL    HW117185   0.539   1.208   5.482 -0.7509  0.4058  0.6521
 5632SOL    HW217186   0.463   1.068   5.517  0.8286 -1.0837 -1.5437
 5633SOL     OW17187   5.176   1.570   3.290  0.1344 -0.4722 -0.9052
 5633SOL    HW117188   5.149   1.475   3.274 -1.6827 -0.7985  3.0518
 5633SOL    HW217189   5.276   1.577   3.286  0.4164 -2.9043  0.1785
 5634SOL     OW17190   3.527   3.677   4.864  0.6447 -0.2747  0.6827
 5634SOL    HW117191   3.599   3.746   4.861 -0.1691  0.5840 -1.5195
 5634SOL    HW217192   3.450   3.707   4.808  0.9043 -3.6340 -1.8264
 5635SOL     OW17193   5.292   4.177   5.360 -0.0277 -0.3425 -0.2884
 5635SOL    HW117194   5.331   4.230   5.285 -0.3722  0.3209 -0.0010
 5635SOL    HW217195   5.201   4.146   5.335 -0.5109  0.6554  0.2034
 5636SOL     OW17196   0.411   2.388   3.444  0.5865  0.0399 -0.4906
 5636SOL    HW117197   0.431   2.478   3.405 -1.2037 -0.3244 -2.3668
 5636SOL    HW217198   0.387   2.324   3.372  0.9183 -1.7344  0.8968
 5637SOL     OW17199   4.866   2.552   4.206  0.5550 -0.0621 -0.5899
 5637SOL    HW117200   4.787   2.550   4.145 -0.9228 -0.8481  1.2092
 5637SOL    HW217201   4.873   2.642   4.249 -2.0074 -1.0410  2.2952
 5638SOL     OW17202   5.522   1.133   5.571  0.2573  0.3159 -0.9665
 5638SOL    HW117203   5.498   1.178   5.656  2.3290 -0.7582  0.2663
 5638SOL    HW217204   5.514   1.198   5.495  1.0239  2.1029  0.4218
 5639SOL     OW17205   5.084   2.851   3.483  0.7120 -0.6949  0.0758
 5639SOL    HW117206   5.182   2.837   3.497  0.9643 -1.0648 -1.7554
 5639SOL    HW217207   5.063   2.845   3.385 -1.9177 -6.0863  0.5727
 5640SOL     OW17208   0.428   3.096   4.903 -0.1194  0.3373 -1.0510
 5640SOL    HW117209   0.366   3.038   4.955  0.9922  1.1476  1.2910
 5640SOL    HW217210   0.375   3.161   4.849 -1.3115 -0.9720 -1.5267
 5641SOL     OW17211   5.202   2.011   1.696 -0.5169  0.1242 -0.7448
 5641SOL    HW117212   5.255   2.018   1.612  0.7735 -0.6998 -0.0495
 5641SOL    HW217213   5.259   1.969   1.767 -1.1473  1.8797  0.8889
 5642SOL     OW17214   5.657   2.103   0.400 -0.1347  0.2681 -0.0141
 5642SOL    HW117215   5.664   2.113   0.499 -0.1727 -0.9078  0.1220
 5642SOL    HW217216   5.608   2.019   0.379  1.3814 -0.4009 -1.0412
 5643SOL     OW17217   3.984   3.503   0.442  0.1217 -0.1087  0.0180
 5643SOL    HW117218   3.945   3.499   0.533 -2.0377  0.3995 -0.8225
 5643SOL    HW217219   4.084   3.503   0.448  0.0297 -0.5523  2.3181
 5644SOL     OW17220   4.617   4.748   4.878  0.0071 -0.7417 -0.1177
 5644SOL    HW117221   4.599   4.835   4.925 -0.5061 -0.0886 -1.4626
 5644SOL    HW217222   4.535   4.692   4.880  0.1268 -0.9104  0.1486
 5645SOL     OW17223   5.658   2.558   0.444 -0.0265 -0.4252  0.0262
 5645SOL    HW117224   5.721   2.617   0.393 -0.7048 -0.4813 -0.9026
 5645SOL    HW217225   5.702   2.469   0.460 -0.3697 -1.0111 -1.9574
 5646SOL     OW17226   2.937   2.932   5.731 -0.1231  0.5783  0.6085
 5646SOL    HW117227   2.945   2.943   5.830 -1.0996 -0.2638  0.8099
 5646SOL    HW217228   3.009   2.983   5.685  1.9814 -1.0927  1.8482
 5647SOL     OW17229   3.367   4.186   5.377  0.1198 -0.4225  0.0752
 5647SOL    HW117230   3.378   4.109   5.440  0.5103 -1.0646 -0.7411
 5647SOL    HW217231   3.283   4.235   5.398  0.3440 -0.4951  1.2128
 5648SOL     OW17232   5.627   3.033   5.553  0.4174 -0.3587 -0.2453
 5648SOL    HW117233   5.705   3.084   5.589 -1.2405  0.7446  2.0989
 5648SOL    HW217234   5.557   3.097   5.521 -0.7896 -1.1836  0.6427
 5649SOL     OW17235   4.855   4.515   3.828  0.7186 -0.6406  0.2594
 5649SOL    HW117236   4.841   4.447   3.900  1.7687  1.7700  2.9360
 5649SOL    HW217237   4.950   4.510   3.796  0.5757 -0.9427 -0.1207
 5650SOL     OW17238   4.210   3.567   0.619 -0.3086  0.4414 -0.0949
 5650SOL    HW117239   4.206   3.667   0.623 -1.3691  0.4340 -0.5924
 5650SOL    HW217240   4.302   3.538   0.591 -0.0299  1.2775 -0.0713
 5651SOL     OW17241   4.624   1.338   0.406  0.3612 -0.2529 -0.1461
 5651SOL    HW117242   4.578   1.393   0.336  2.8294  1.5288 -0.5217
 5651SOL    HW217243   4.631   1.244   0.374  0.4906  0.2918 -1.8740
 5652SOL     OW17244   3.792   2.624   0.830 -0.7986 -0.1421  0.3683
 5652SOL    HW117245   3.762   2.604   0.923 -1.8265  1.3770  0.3958
 5652SOL    HW217246   3.888   2.653   0.831 -0.4472 -1.2439  0.7767
 5653SOL     OW17247   5.163   4.262   2.490  0.4760 -0.2542 -0.0437
 5653SOL    HW117248   5.181   4.341   2.549  2.5396 -0.8553  0.2103
 5653SOL    HW217249   5.087   4.283   2.428  0.4962  1.6469  0.5116
 5654SOL     OW17250   1.327   3.381   4.251 -0.0948  0.6465  0.1095
 5654SOL    HW117251   1.378   3.453   4.298 -0.5942  1.2138 -0.2062
 5654SOL    HW217252   1.245   3.358   4.304 -0.5634  1.1597 -0.3910
 5655SOL     OW17253   3.518   3.387   5.903  0.4771  0.4484  0.3755
 5655SOL    HW117254   3.488   3.399   5.998  0.3770  1.0101  0.2776
 5655SOL    HW217255   3.447   3.338   5.852  0.6761 -0.1451  0.6725
 5656SOL     OW17256   4.362   3.429   4.928  0.2486  0.2449  0.4391
 5656SOL    HW117257   4.342   3.513   4.878  0.0149  0.4030  0.8016
 5656SOL    HW217258   4.461   3.412   4.926  0.2223  0.1268 -0.2725
 5657SOL     OW17259   5.370   3.099   5.820 -0.3618  0.0550  0.1286
 5657SOL    HW117260   5.309   3.173   5.848  1.1362  1.1759  0.5483
 5657SOL    HW217261   5.316   3.028   5.775 -2.1028  0.5396  1.3266
 5658SOL     OW17262   4.214   1.740   3.623  0.1479 -0.4098 -0.2001
 5658SOL    HW117263   4.282   1.786   3.567 -0.9823  1.0961 -0.3888
 5658SOL    HW217264   4.180   1.803   3.693 -0.5075 -1.3754  0.3726
 5659SOL     OW17265   5.591   2.465   4.363  0.3697 -0.0045  0.1798
 5659SOL    HW117266   5.690   2.480   4.360  0.3243  0.0935 -1.7560
 5659SOL    HW217267   5.565   2.437   4.455  1.5109  4.7010  2.2586
 5660SOL     OW17268   0.272   3.191   1.739 -0.2332 -0.2541  0.3797
 5660SOL    HW117269   0.225   3.112   1.699  0.2589 -0.2450 -0.2223
 5660SOL    HW217270   0.213   3.271   1.732 -1.0774 -0.7242  1.7340
 5661SOL     OW17271   3.507   2.672   0.741  0.1330  0.1648  0.1398
 5661SOL    HW117272   3.462   2.623   0.815  2.2591 -0.7321  0.9165
 5661SOL    HW217273   3.536   2.607   0.671  0.1838  0.7126 -0.3574
 5662SOL     OW17274   4.814   2.771   5.241 -0.1309 -0.1420 -0.0472
 5662SOL    HW117275   4.847   2.681   5.266  0.3794  0.1044  0.1729
 5662SOL    HW217276   4.773   2.816   5.321  0.8623  0.3635  0.1920
 5663SOL     OW17277   4.120   2.721   1.354 -0.0414 -0.3997 -0.2995
 5663SOL    HW117278   4.104   2.816   1.325  0.7530  0.2819  1.3437
 5663SOL    HW217279   4.033   2.681   1.385 -0.0158  0.6440  1.2549
 5664SOL     OW17280   4.059   2.451   5.725 -0.3850 -0.4653 -0.2133
 5664SOL    HW117281   4.134   2.400   5.682  0.8770  0.6877  0.5181
 5664SOL    HW217282   4.056   2.429   5.823 -0.2802  0.2909 -0.0285
 5665SOL     OW17283   4.932   2.779   0.141 -0.1774  0.0934  0.3032
 5665SOL    HW117284   4.886   2.813   0.223 -0.0523 -0.2125  0.4990
 5665SOL    HW217285   5.020   2.825   0.130  0.4361 -0.8592  1.1053
 5666SOL     OW17286   5.549   2.786   4.751 -0.6098  0.4922  0.4411
 5666SOL    HW117287   5.467   2.730   4.740 -1.3731  1.4494  1.1521
 5666SOL    HW217288   5.553   2.823   4.844  0.7644  0.2573  0.5018
 5667SOL     OW17289   3.127   5.234   2.045  0.2153  0.3974  0.3014
 5667SOL    HW117290   3.103   5.163   1.979 -2.5154  0.0593  1.5028
 5667SOL    HW217291   3.223   5.226   2.071  0.9784 -0.3626 -2.4632
 5668SOL     OW17292   5.378   2.607   0.899  0.4011 -0.0290 -0.2891
 5668SOL    HW117293   5.407   2.574   0.809 -0.1745  0.6190 -0.7187
 5668SOL    HW217294   5.420   2.550   0.970 -0.7160 -1.8588 -1.0033
 5669SOL     OW17295   3.520   3.097   5.765  0.7549 -0.1554  0.0850
 5669SOL    HW117296   3.470   3.069   5.847 -0.2328 -0.3776 -0.5867
 5669SOL    HW217297   3.613   3.123   5.791  1.0518 -1.9684  1.0510
 5670SOL     OW17298   2.121   2.316   5.203  0.5146  0.0256 -0.6140
 5670SOL    HW117299   2.094   2.283   5.294  0.9439 -1.4898 -1.0196
 5670SOL    HW217300   2.220   2.320   5.197  0.4935  1.7763 -0.4777
 5671SOL     OW17301   4.063   2.490   0.993 -0.3536  0.1916 -0.0425
 5671SOL    HW117302   3.969   2.464   1.018 -0.6688  0.1397 -1.1902
 5671SOL    HW217303   4.060   2.570   0.933  0.1635 -1.0593 -1.8166
 5672SOL     OW17304   4.163   3.036   5.511 -0.3213  0.0453  0.0938
 5672SOL    HW117305   4.134   3.087   5.592 -3.3999 -1.7017  0.2170
 5672SOL    HW217306   4.261   3.019   5.516  0.0301  2.1645  2.1439
 5673SOL     OW17307   5.228   1.745   0.544  0.0573  0.5544  0.1176
 5673SOL    HW117308   5.236   1.654   0.505  1.9683 -0.1483  1.9538
 5673SOL    HW217309   5.155   1.745   0.613  0.8222  0.0673  0.9414
 5674SOL     OW17310   4.170   3.913   0.300 -0.2550 -0.4919 -0.3132
 5674SOL    HW117311   4.229   3.928   0.379  0.3972  1.2681 -1.0824
 5674SOL    HW217312   4.220   3.864   0.228  0.5928  1.6280 -1.2477
 5675SOL     OW17313   4.089   1.543   1.740  0.3203  0.3863 -0.4428
 5675SOL    HW117314   4.003   1.518   1.784 -0.2508  2.2676 -0.3685
 5675SOL    HW217315   4.070   1.584   1.650  1.2496 -0.4052 -1.0227
 5676SOL     OW17316   4.038   2.264   5.051 -0.7691  0.2459 -0.7466
 5676SOL    HW117317   4.015   2.281   5.146 -1.8122  0.3145 -1.0047
 5676SOL    HW217318   4.086   2.176   5.043  2.6409  1.8416  0.2986
 5677SOL     OW17319   4.819   4.784   4.379  0.0400 -0.7373  0.3474
 5677SOL    HW117320   4.852   4.865   4.428 -1.2831  0.4412 -0.6426
 5677SOL    HW217321   4.854   4.702   4.424  3.1511  0.3722  0.1577
 5678SOL     OW17322   5.268   2.353   5.299  0.5439 -0.2140 -0.3312
 5678SOL    HW117323   5.259   2.284   5.227 -0.3266  0.0395 -0.4730
 5678SOL    HW217324   5.359   2.394   5.293  1.6887 -2.4096  0.7334
 5679SOL     OW17325   4.192   1.930   1.523  0.0400 -0.2659  0.4418
 5679SOL    HW117326   4.247   1.979   1.590 -0.5879 -0.9181  1.4695
 5679SOL    HW217327   4.096   1.935   1.550 -0.1879 -0.7933 -0.2591
 5680SOL     OW17328   3.265   2.776   0.029 -0.5913  0.5033  0.0847
 5680SOL    HW117329   3.281   2.756  -0.068  0.6960  2.2225 -0.1145
 5680SOL    HW217330   3.328   2.848   0.058 -1.7326  0.8115  1.9225
 5681SOL     OW17331   3.521   2.054   0.558 -0.0338  0.6290 -0.0807
 5681SOL    HW117332   3.586   1.987   0.593 -1.0402 -1.6388 -2.3128
 5681SOL    HW217333   3.571   2.129   0.515  1.1035  1.2192  2.0988
 5682SOL     OW17334   5.078   3.432   4.916 -0.8596  0.8138 -0.4795
 5682SOL    HW117335   5.127   3.517   4.896  0.3881  0.5438  1.2630
 5682SOL    HW217336   5.085   3.370   4.838  1.4628  0.8539 -0.3597
 5683SOL     OW17337   5.691   2.065   5.603 -0.1856  0.2250 -0.1858
 5683SOL    HW117338   5.661   2.157   5.629  1.6762  0.3311  1.8800
 5683SOL    HW217339   5.745   2.070   5.518  0.5155  1.1689  0.2989
 5684SOL     OW17340   4.792   4.287   5.779  0.0628 -0.0299  0.2290
 5684SOL    HW117341   4.751   4.208   5.825  0.9289 -0.5398  0.1436
 5684SOL    HW217342   4.867   4.257   5.721 -0.0205  0.7891 -0.3284
 5685SOL     OW17343   5.362   3.432   5.550 -0.0816 -0.2025  0.3680
 5685SOL    HW117344   5.347   3.471   5.459  0.3685 -1.2992 -0.2064
 5685SOL    HW217345   5.274   3.419   5.596 -0.5577 -1.8653 -0.9024
 5686SOL     OW17346   4.593   2.356   3.949  0.4684 -0.7843  0.1003
 5686SOL    HW117347   4.514   2.408   3.982  0.5973 -0.7710  0.3939
 5686SOL    HW217348   4.565   2.294   3.876  0.5356  0.6062 -1.1461
 5687SOL     OW17349   4.587   3.680   1.746  0.5268  0.2884  0.1521
 5687SOL    HW117350   4.539   3.681   1.658 -1.4876  2.3358  1.1701
 5687SOL    HW217351   4.661   3.748   1.744  1.9896 -1.2507 -0.6418
 5688SOL     OW17352   2.662   2.622   5.625  0.1909  0.2875 -0.0053
 5688SOL    HW117353   2.577   2.674   5.620 -0.9817 -1.6453 -1.7987
 5688SOL    HW217354   2.725   2.653   5.553  0.5092  0.8404  0.4988
 5689SOL     OW17355   2.926   4.373   5.912 -0.1013 -0.1606 -0.0789
 5689SOL    HW117356   2.832   4.405   5.924  0.1696  0.4085  0.6055
 5689SOL    HW217357   2.968   4.423   5.836  0.8395  2.4204  1.9749
 5690SOL     OW17358   4.256   2.734   1.915  0.5759  0.0359  0.1468
 5690SOL    HW117359   4.311   2.817   1.907 -0.1019  0.4938  0.1878
 5690SOL    HW217360   4.160   2.755   1.897  0.6914 -1.2064 -2.4250
 5691SOL     OW17361   5.243   3.958   0.981  0.4031  0.1863  0.0233
 5691SOL    HW117362   5.270   3.973   0.886  0.3199 -1.1818 -0.2351
 5691SOL    HW217363   5.175   4.026   1.008  0.8878  0.9693 -0.6893
 5692SOL     OW17364   3.134   0.042   2.641  0.4123 -0.3772  0.2094
 5692SOL    HW117365   3.223   0.029   2.597 -0.1541 -0.4819 -0.9537
 5692SOL    HW217366   3.062   0.025   2.574 -0.4734  1.4143  0.6459
 5693SOL     OW17367   5.442   4.232   1.252  0.0038 -0.5183 -0.3053
 5693SOL    HW117368   5.469   4.153   1.307  0.8599 -0.1896 -0.2366
 5693SOL    HW217369   5.472   4.219   1.158 -0.9847 -0.8384 -0.5869
 5694SOL     OW17370   3.539   4.150   0.924 -0.4881 -0.6894  0.5015
 5694SOL    HW117371   3.570   4.088   0.852 -0.5862  0.5530 -0.6552
 5694SOL    HW217372   3.604   4.225   0.935 -1.9247  0.7972 -0.4844
 5695SOL     OW17373   3.283   5.429   1.451  0.5009 -1.0236  1.1192
 5695SOL    HW117374   3.193   5.412   1.492 -0.3090 -1.3155 -0.6928
 5695SOL    HW217375   3.284   5.397   1.356  2.4405 -0.7540  0.9986
 5696SOL     OW17376   5.198   4.247   0.914  0.3447 -0.1318 -0.2559
 5696SOL    HW117377   5.239   4.171   0.864 -1.0472 -3.4294  3.1050
 5696SOL    HW217378   5.103   4.260   0.884  0.4237 -0.0716 -0.4797
 5697SOL     OW17379   0.113   3.915   1.841  0.0264  0.6849 -0.1311
 5697SOL    HW117380   0.063   3.974   1.904  0.7861 -0.3903  1.5612
 5697SOL    HW217381   0.054   3.842   1.809  0.0884  0.2640  0.6947
 5698SOL     OW17382   5.406   5.238   1.867  0.4064  0.4274 -0.0305
 5698SOL    HW117383   5.308   5.223   1.862  0.7715 -1.9255 -2.1888
 5698SOL    HW217384   5.446   5.180   1.938  0.3866  0.5194  0.0567
 5699SOL     OW17385   4.997   1.131   2.684  0.2250  0.1925  0.0043
 5699SOL    HW117386   4.945   1.070   2.623 -0.8890  0.0641  1.0503
 5699SOL    HW217387   4.937   1.165   2.756  1.5484  0.2120  1.1405
 5700SOL     OW17388   4.934   5.001   1.505  0.7083  0.0679  0.0427
 5700SOL    HW117389   4.962   5.006   1.409  2.9673 -1.0485  0.5779
 5700SOL    HW217390   4.971   4.918   1.546 -0.0794  0.6097  1.9256
 5701SOL     OW17391   4.866   5.046   2.415 -0.1987  0.4464  0.2010
 5701SOL    HW117392   4.805   5.075   2.341 -0.1950 -0.3599 -0.1316
 5701SOL    HW217393   4.870   4.946   2.417 -0.1573  0.4575  1.2617
 5702SOL     OW17394   3.350   3.922   2.629 -0.0628  0.3043  0.3607
 5702SOL    HW117395   3.445   3.934   2.601 -0.3019  2.8386  0.4016
 5702SOL    HW217396   3.304   3.859   2.566  1.4501 -0.4624 -0.0209
 5703SOL     OW17397   5.539   3.948   0.730 -1.0350 -0.7240 -0.5308
 5703SOL    HW117398   5.441   3.969   0.720 -0.7221  2.0488  1.2711
 5703SOL    HW217399   5.586   3.971   0.645 -1.5281  1.1811 -0.3453
 5704SOL     OW17400   4.521   5.309   0.046 -0.0604  0.3539  0.6509
 5704SOL    HW117401   4.516   5.275   0.140  1.7046  0.6090  0.8631
 5704SOL    HW217402   4.471   5.396   0.040 -1.1939 -0.2530  1.0509
 5705SOL     OW17403   2.647   4.686   1.133  0.6431 -0.1984  0.3551
 5705SOL    HW117404   2.586   4.737   1.072  0.2211 -0.2589  0.7167
 5705SOL    HW217405   2.643   4.725   1.225  1.8172  0.3342  0.1990
 5706SOL     OW17406   4.574   5.481   1.415  0.1785 -0.3131  0.3642
 5706SOL    HW117407   4.601   5.390   1.385  0.4267  0.0212 -0.4465
 5706SOL    HW217408   4.481   5.477   1.453  0.2837 -0.9417  0.5683
 5707SOL     OW17409   2.578   4.779   2.410  0.1346  0.0822 -0.1287
 5707SOL    HW117410   2.571   4.681   2.429 -0.1659 -0.5320 -2.9632
 5707SOL    HW217411   2.670   4.810   2.433  0.4503 -1.0219  0.1766
 5708SOL     OW17412   4.090   5.125   1.465 -0.1642 -0.2763  0.0032
 5708SOL    HW117413   4.062   5.056   1.531  1.0903 -1.5566 -0.7434
 5708SOL    HW217414   4.118   5.081   1.380 -1.0910  1.2847 -1.1789
 5709SOL     OW17415   3.232   4.939   5.581 -0.1678  0.0848 -0.4436
 5709SOL    HW117416   3.330   4.955   5.595 -0.5589  1.2600  1.1391
 5709SOL    HW217417   3.219   4.884   5.498  1.8042  0.1414 -0.8315
 5710SOL     OW17418   3.443   3.536   1.838  0.4842  0.1633 -0.0052
 5710SOL    HW117419   3.357   3.577   1.866  1.4764  1.3875  1.3468
 5710SOL    HW217420   3.486   3.592   1.767  0.3983 -0.2138 -0.3649
 5711SOL     OW17421   4.029   3.231   1.614  0.2216 -0.2090 -0.3558
 5711SOL    HW117422   4.099   3.214   1.683 -0.0383  0.2326  0.0256
 5711SOL    HW217423   4.024   3.329   1.595 -0.2702 -0.2398 -0.4035
 5712SOL     OW17424   1.129   5.839   0.519 -0.1649  0.0002  0.3205
 5712SOL    HW117425   1.229   5.836   0.526 -0.1227 -0.1201 -0.2853
 5712SOL    HW217426   1.089   5.809   0.605  0.3228  1.3263  1.0456
 5713SOL     OW17427   4.076   5.724   4.390 -0.2776  0.3519 -0.6714
 5713SOL    HW117428   4.081   5.625   4.380 -0.7709  0.1906  0.4902
 5713SOL    HW217429   4.150   5.756   4.449 -1.6324  0.2960  1.1749
 5714SOL     OW17430   4.028   0.229   1.312  0.0571 -0.8302 -0.1648
 5714SOL    HW117431   4.076   0.199   1.394 -1.6282 -1.3025  0.7140
 5714SOL    HW217432   3.966   0.155   1.282 -1.3315  0.3203 -0.2443
 5715SOL     OW17433   5.849   4.498   1.698 -0.0057  0.1079  0.4056
 5715SOL    HW117434   5.834   4.573   1.762  1.3094 -0.0014  0.8590
 5715SOL    HW217435   5.947   4.483   1.686 -0.1837  0.4401 -2.0181
 5716SOL     OW17436   2.219   3.913   2.727  0.2176  0.4191 -0.1533
 5716SOL    HW117437   2.172   3.858   2.659  1.3427 -2.0572  0.9502
 5716SOL    HW217438   2.157   3.985   2.760 -1.3335 -0.1700 -1.6178
 5717SOL     OW17439   5.304   4.393   1.997 -0.3273 -0.0957  0.4233
 5717SOL    HW117440   5.290   4.318   1.933 -1.8726 -0.2520  0.8929
 5717SOL    HW217441   5.395   4.431   1.985  0.1846 -1.5058 -0.3916
 5718SOL     OW17442   4.989   4.234   2.236  0.0498  0.0898 -0.3240
 5718SOL    HW117443   5.008   4.169   2.162  0.3844  1.0972 -1.1447
 5718SOL    HW217444   4.923   4.193   2.300 -0.6537 -0.6052 -1.4602
 5719SOL     OW17445   4.707   1.969   5.359 -0.7856  0.1084 -0.1814
 5719SOL    HW117446   4.689   2.067   5.372 -2.1600  0.1403 -1.9862
 5719SOL    HW217447   4.733   1.952   5.264 -0.9731 -1.3378  0.0012
 5720SOL     OW17448   2.904   3.540   1.540 -0.5238  0.2292 -0.0817
 5720SOL    HW117449   2.954   3.589   1.469  0.4167  0.8454  0.9666
 5720SOL    HW217450   2.855   3.462   1.500 -0.9612  1.2326 -1.5681
 5721SOL     OW17451   3.130   5.711   0.698 -0.1423  0.6189 -0.6120
 5721SOL    HW117452   3.117   5.677   0.791  1.3924 -0.9808 -0.9335
 5721SOL    HW217453   3.041   5.733   0.657 -0.9332  0.0408  0.7440
 5722SOL     OW17454   4.431   1.059   2.451  0.0939 -0.1274 -0.6387
 5722SOL    HW117455   4.476   1.096   2.532 -0.5516  0.5427 -0.5816
 5722SOL    HW217456   4.498   1.007   2.397 -0.0258 -2.9948  1.6856
 5723SOL     OW17457   5.179   3.771   2.543  0.7585 -0.0911  0.2309
 5723SOL    HW117458   5.144   3.677   2.535 -0.0590  0.0128  2.1342
 5723SOL    HW217459   5.278   3.770   2.531  0.7155 -1.1208 -0.2341
 5724SOL     OW17460   5.788   5.965   1.645 -0.1518 -0.8641 -0.4096
 5724SOL    HW117461   5.742   5.921   1.569  0.8963 -0.5844 -1.2361
 5724SOL    HW217462   5.754   5.928   1.731 -2.1177 -0.4400 -0.9538
 5725SOL     OW17463   4.994   3.982   0.091 -0.4139  0.4201 -0.1871
 5725SOL    HW117464   5.049   3.899   0.087 -1.5088 -0.3397  0.2280
 5725SOL    HW217465   5.053   4.060   0.114  0.3845 -0.4906  0.9514
 5726SOL     OW17466   5.372   3.485   0.042  0.2869 -0.2621  0.2030
 5726SOL    HW117467   5.417   3.535   0.116 -0.0248  0.0159  0.2012
 5726SOL    HW217468   5.407   3.517  -0.046  0.5810 -0.5198  0.2242
 5727SOL     OW17469   4.477   3.202   1.896  0.3453  0.5831 -0.4891
 5727SOL    HW117470   4.459   3.277   1.960 -0.4507 -0.9129  1.1403
 5727SOL    HW217471   4.572   3.172   1.908 -0.6281 -1.8500  2.5961
 5728SOL     OW17472   0.222   4.252   1.309 -0.0126  0.2936 -0.2557
 5728SOL    HW117473   0.154   4.258   1.381 -0.4003  0.2829 -0.6178
 5728SOL    HW217474   0.193   4.305   1.230  0.5259  0.5112 -0.3150
 5729SOL     OW17475   5.603   4.886   2.577  0.6776  0.4418 -0.0034
 5729SOL    HW117476   5.559   4.806   2.537  0.8427 -0.5282  1.6648
 5729SOL    HW217477   5.662   4.857   2.653 -0.7934  2.2804  1.9608
 5730SOL     OW17478   5.099   3.807   3.495 -0.2670  0.3976  0.2111
 5730SOL    HW117479   5.126   3.758   3.412 -0.2130 -0.2746  0.6181
 5730SOL    HW217480   5.177   3.812   3.558 -0.7625 -0.6236  0.9461
 5731SOL     OW17481   3.870   4.107   2.671 -0.0700  0.0233  0.2703
 5731SOL    HW117482   3.940   4.175   2.692  0.4422  0.0792 -1.4074
 5731SOL    HW217483   3.908   4.015   2.682 -0.2293  0.0287  0.8814
 5732SOL     OW17484   4.188   4.913   1.963  0.3150 -0.8856 -0.1185
 5732SOL    HW117485   4.122   4.961   1.905  0.5015 -0.2370  0.1912
 5732SOL    HW217486   4.219   4.830   1.917  1.7721  0.4806 -1.7459
 5733SOL     OW17487   5.517   4.784   2.086  0.0150  0.0610  0.4051
 5733SOL    HW117488   5.597   4.838   2.114  1.8015 -2.1658 -0.1321
 5733SOL    HW217489   5.487   4.727   2.162 -1.2002  0.9639  0.6395
 5734SOL     OW17490   3.141   4.832   1.656 -0.0519 -0.0033  0.3494
 5734SOL    HW117491   3.192   4.746   1.648 -1.3694 -0.8602  0.9251
 5734SOL    HW217492   3.205   4.909   1.651  1.1015 -0.9871 -0.6264
 5735SOL     OW17493   4.016   4.897   0.210 -0.3402  0.2915 -0.1898
 5735SOL    HW117494   3.996   4.991   0.182 -1.1788 -0.5226 -2.5685
 5735SOL    HW217495   4.072   4.853   0.141  2.7220 -0.1415  2.3240
 5736SOL     OW17496   4.102   3.558   0.078  0.5011 -0.0106 -0.3932
 5736SOL    HW117497   4.026   3.602   0.126  0.2417 -0.1072 -0.7162
 5736SOL    HW217498   4.067   3.492   0.012  0.8831 -0.7541  0.1254
 5737SOL     OW17499   5.717   4.259   1.613  0.3420 -0.4352 -0.5208
 5737SOL    HW117500   5.625   4.273   1.576 -0.0269 -1.9999 -0.2344
 5737SOL    HW217501   5.757   4.348   1.635 -1.1631  0.2603 -0.4622
 5738SOL     OW17502   5.028   5.249   0.515  0.2295  0.3340 -0.1414
 5738SOL    HW117503   5.049   5.239   0.418 -1.7983 -0.0351 -0.5792
 5738SOL    HW217504   5.044   5.162   0.562 -0.7967 -0.0873 -0.5631
 5739SOL     OW17505   3.777   2.854   1.644  0.3318 -0.5012 -0.3365
 5739SOL    HW117506   3.780   2.947   1.608 -1.9285 -0.6150 -0.9273
 5739SOL    HW217507   3.869   2.815   1.640  1.1749  1.3976 -0.8339
 5740SOL     OW17508   5.654   5.075   2.387 -0.4082 -0.0552 -0.1663
 5740SOL    HW117509   5.611   5.006   2.444 -0.0602  0.0771  0.2613
 5740SOL    HW217510   5.588   5.147   2.367 -0.0406  0.8324  1.6092
 5741SOL     OW17511   2.709   5.510   0.163 -0.3995 -0.5221  0.3474
 5741SOL    HW117512   2.710   5.603   0.198  0.0465 -1.0411  1.7811
 5741SOL    HW217513   2.742   5.510   0.068  1.6312  0.5433  0.9914
 5742SOL     OW17514   0.988   5.654   1.343  0.0595 -0.2333 -0.3330
 5742SOL    HW117515   0.946   5.612   1.262 -0.4863  1.7347 -1.1362
 5742SOL    HW217516   0.936   5.627   1.424 -0.1318 -1.2513 -0.7678
 5743SOL     OW17517   4.605   5.639   1.186 -0.3402 -0.2749  0.0867
 5743SOL    HW117518   4.556   5.572   1.241  0.8295  0.0257  1.5297
 5743SOL    HW217519   4.701   5.642   1.212 -0.6060  3.0365  1.1993
 5744SOL     OW17520   5.430   2.874   0.568 -0.3439  0.2948  0.0004
 5744SOL    HW117521   5.333   2.899   0.571  0.1523  3.1822 -2.6734
 5744SOL    HW217522   5.477   2.933   0.502  2.9805 -2.0151  0.0859
 5745SOL     OW17523   5.253   2.726   0.218  0.5254  0.0024  0.2821
 5745SOL    HW117524   5.322   2.665   0.257  1.3109  0.8299  0.2202
 5745SOL    HW217525   5.251   2.714   0.119  1.0351  0.4128  0.2140
 5746SOL     OW17526   4.481   3.314   3.437 -0.1806 -0.2529  0.1863
 5746SOL    HW117527   4.580   3.328   3.438 -0.0977 -0.8341  1.4472
 5746SOL    HW217528   4.436   3.397   3.403  0.7069  0.1976  0.0882
 5747SOL     OW17529   5.607   5.058   5.314 -0.4101 -0.5120  0.6957
 5747SOL    HW117530   5.591   5.084   5.409  2.8170  0.0043  1.2124
 5747SOL    HW217531   5.523   5.071   5.261 -2.4126 -1.1460  3.4852
 5748SOL     OW17532   4.246   2.909   2.261 -0.1987  0.2695 -0.2383
 5748SOL    HW117533   4.342   2.886   2.241 -0.2746  0.0876 -0.3874
 5748SOL    HW217534   4.197   2.826   2.286 -0.1538  0.4564  0.5133
 5749SOL     OW17535   5.258   5.652   5.789  0.2434 -0.3472 -0.0471
 5749SOL    HW117536   5.214   5.616   5.871  1.9992 -0.8310  0.7312
 5749SOL    HW217537   5.253   5.584   5.715 -1.1832  0.0174 -0.2979
 5750SOL     OW17538   3.456   0.469   2.104 -0.2842  0.0123  0.2142
 5750SOL    HW117539   3.369   0.447   2.149  0.7739 -0.1830  2.3160
 5750SOL    HW217540   3.491   0.556   2.139 -0.1209  0.6179 -1.3930
 5751SOL     OW17541   5.173   4.260   1.644  0.1969 -0.3720 -0.2951
 5751SOL    HW117542   5.268   4.288   1.656  0.3027 -0.8716  0.0947
 5751SOL    HW217543   5.112   4.330   1.680  0.3525  0.7216 -2.0380
 5752SOL     OW17544   3.582   0.284   5.842  0.4088 -0.9063  0.0194
 5752SOL    HW117545   3.494   0.266   5.885  0.6896 -0.5980  0.7348
 5752SOL    HW217546   3.569   0.299   5.744 -0.1948 -1.9338 -0.0663
 5753SOL     OW17547   4.316   5.488   5.594  0.8662  0.1951 -0.0573
 5753SOL    HW117548   4.344   5.411   5.651 -2.5341 -0.1974  1.2968
 5753SOL    HW217549   4.281   5.453   5.507 -0.8135  0.0990  0.6143
 5754SOL     OW17550   3.519   4.873   0.165  0.5680 -0.1773  0.0401
 5754SOL    HW117551   3.495   4.966   0.194 -0.1706 -0.0010 -1.0464
 5754SOL    HW217552   3.440   4.832   0.119  0.2426 -2.0626  2.1430
 5755SOL     OW17553   5.032   3.902   3.206  0.2980 -0.4350  0.2056
 5755SOL    HW117554   5.003   3.868   3.295 -0.0830 -0.7827 -0.0490
 5755SOL    HW217555   5.047   3.826   3.143 -0.4542 -0.1472 -0.3337
 5756SOL     OW17556   3.877   4.192   1.058 -0.2014 -0.1288  0.0084
 5756SOL    HW117557   3.962   4.190   1.111 -0.2335 -0.7651  0.0438
 5756SOL    HW217558   3.896   4.161   0.965 -0.2306  0.5724 -0.2400
 5757SOL     OW17559   4.266   3.330   3.633 -0.1739 -0.4979 -0.6454
 5757SOL    HW117560   4.363   3.336   3.607  0.2858 -0.8072  0.8749
 5757SOL    HW217561   4.244   3.237   3.659 -0.2189  0.0140  1.3035
 5758SOL     OW17562   2.671   5.793   1.185  0.3307  0.4635 -0.1770
 5758SOL    HW117563   2.604   5.857   1.146 -0.1153 -0.1769 -0.4831
 5758SOL    HW217564   2.744   5.777   1.119  1.0855  1.5580  0.3485
 5759SOL     OW17565   3.858   3.580   1.361 -0.1688  0.2524 -0.0476
 5759SOL    HW117566   3.920   3.516   1.408 -1.0648  0.0445  0.8847
 5759SOL    HW217567   3.853   3.665   1.413 -0.4815  0.3546 -0.2489
 5760SOL     OW17568   0.586   4.942   1.197  0.3329 -0.2991  0.1396
 5760SOL    HW117569   0.569   4.992   1.282 -0.0282 -0.4819  0.1771
 5760SOL    HW217570   0.682   4.950   1.172  0.3804 -0.0067  0.4151
 5761SOL     OW17571   5.111   3.420   0.717  0.0628  0.8794 -0.5548
 5761SOL    HW117572   5.031   3.379   0.760  0.7439  0.0128 -0.0811
 5761SOL    HW217573   5.137   3.502   0.768  0.4640  0.2308  0.3099
 5762SOL     OW17574   4.713   4.393   0.293  0.4408  0.0352  0.0006
 5762SOL    HW117575   4.775   4.323   0.329 -0.2293 -0.2572  0.6214
 5762SOL    HW217576   4.728   4.405   0.195  0.2073 -1.3579 -0.2244
 5763SOL     OW17577   0.035   4.237   1.497  0.0336 -0.0285  0.2996
 5763SOL    HW117578   0.095   4.297   1.550 -1.7209  0.9831  1.2456
 5763SOL    HW217579  -0.037   4.202   1.557  0.1017 -1.8237 -0.6252
 5764SOL     OW17580   5.111   3.469   0.008  0.7492 -0.1768 -0.5383
 5764SOL    HW117581   5.066   3.524   0.078  1.0120 -1.0893  0.3706
 5764SOL    HW217582   5.209   3.487   0.010  0.5684  1.1260 -1.9004
 5765SOL     OW17583   5.709   3.435   0.883 -0.4415  0.2740 -0.4924
 5765SOL    HW117584   5.632   3.429   0.819  0.0601  1.0061 -1.1828
 5765SOL    HW217585   5.725   3.346   0.924 -0.2569 -0.4173 -2.0128
 5766SOL     OW17586   4.333   4.418   0.643  0.1518 -0.0791 -0.1309
 5766SOL    HW117587   4.390   4.467   0.710  0.2518  0.1311 -0.3675
 5766SOL    HW217588   4.364   4.440   0.551  0.0966 -0.4714 -0.2452
 5767SOL     OW17589   4.738   4.703   3.493 -0.1545 -0.1470 -0.1989
 5767SOL    HW117590   4.748   4.739   3.585  0.9112 -0.0192 -0.3601
 5767SOL    HW217591   4.658   4.642   3.490 -1.1913  1.1245  0.3920
 5768SOL     OW17592   1.741   3.609   0.172  0.1637  0.1396  0.1930
 5768SOL    HW117593   1.664   3.613   0.109  1.0805 -1.9030 -1.1743
 5768SOL    HW217594   1.762   3.701   0.205 -2.1744  0.8714 -0.1705
 5769SOL     OW17595   4.421   4.116   0.524  0.0135  0.0668 -0.2812
 5769SOL    HW117596   4.448   4.090   0.432  2.6328  1.0679  0.1050
 5769SOL    HW217597   4.405   4.215   0.527 -0.9107 -0.0844  0.1740
 5770SOL     OW17598   4.743   2.968   1.625  0.9290  0.5851 -0.2665
 5770SOL    HW117599   4.656   2.922   1.646  1.3902 -0.2228 -0.0719
 5770SOL    HW217600   4.732   3.023   1.542  0.5161 -0.3787 -0.8706
 5771SOL     OW17601   4.456   3.767   5.025  0.4619  0.0261  0.0871
 5771SOL    HW117602   4.443   3.859   5.064  2.0036  0.2817  0.0867
 5771SOL    HW217603   4.489   3.705   5.097 -0.4203 -0.4942  0.0506
 5772SOL     OW17604   4.338   2.785   1.030  0.0714  0.0429 -0.7096
 5772SOL    HW117605   4.368   2.802   0.936 -0.3561  0.7824 -0.7205
 5772SOL    HW217606   4.406   2.728   1.077 -0.4560 -1.7003 -1.9358
 5773SOL     OW17607   5.516   3.559   5.767  0.1565 -0.0503 -0.0140
 5773SOL    HW117608   5.450   3.533   5.696 -0.6359  1.0373  0.2989
 5773SOL    HW217609   5.587   3.617   5.727  1.1649 -1.4972 -0.4246
 5774SOL     OW17610   5.407   3.585   0.937 -0.1126  0.0048  0.0458
 5774SOL    HW117611   5.502   3.613   0.924  0.4685 -2.0012 -0.3618
 5774SOL    HW217612   5.404   3.502   0.993 -1.6863  0.4656  0.7007
 5775SOL     OW17613   5.187   2.948   5.646 -0.5768  0.8779 -0.2727
 5775SOL    HW117614   5.135   3.032   5.661 -1.2024  0.6096 -0.8586
 5775SOL    HW217615   5.217   2.944   5.550 -0.5336  0.4434 -0.2436
 5776SOL     OW17616   1.048   4.070   0.725  0.0538  0.2475  0.4274
 5776SOL    HW117617   0.994   4.028   0.798  2.0955  0.3530  2.1253
 5776SOL    HW217618   1.041   4.169   0.731  0.2818  0.2579  0.5508
 5777SOL     OW17619   4.071   3.954   1.358 -0.2521 -0.2667  0.5478
 5777SOL    HW117620   4.110   4.045   1.353 -3.5317  1.2164 -1.3392
 5777SOL    HW217621   4.078   3.908   1.269  0.2823 -1.3802  1.1399
 5778SOL     OW17622   0.481   1.720   0.864  0.2809  1.0115  0.0098
 5778SOL    HW117623   0.503   1.666   0.946 -1.4137  2.5887  1.6137
 5778SOL    HW217624   0.530   1.683   0.786 -1.8734 -3.8751  0.5723
 5779SOL     OW17625   0.421   5.108   1.025  0.5831  0.7541 -0.2630
 5779SOL    HW117626   0.495   5.126   0.960  1.9681  0.8184  1.2477
 5779SOL    HW217627   0.439   5.022   1.072  0.6113  1.5841  1.3054
 5780SOL     OW17628   3.441   3.448   5.563 -0.9992 -0.1728  0.2015
 5780SOL    HW117629   3.508   3.423   5.493 -0.9713  0.3865  0.0245
 5780SOL    HW217630   3.482   3.512   5.627 -1.0477 -0.6293  0.6964
 5781SOL     OW17631   3.451   5.906   2.048 -0.0793 -0.2075 -0.2214
 5781SOL    HW117632   3.492   5.916   1.957 -0.7506  1.5611 -0.3776
 5781SOL    HW217633   3.385   5.980   2.063  0.1800 -0.3289  1.7992
 5782SOL     OW17634   2.206   5.146   2.502 -0.2338 -0.2292 -0.2280
 5782SOL    HW117635   2.264   5.074   2.540  1.2944  0.1593 -1.7518
 5782SOL    HW217636   2.253   5.233   2.508 -0.7019  0.1213 -1.3798
 5783SOL     OW17637   4.546   5.258   1.236  0.3373 -0.1264 -0.3654
 5783SOL    HW117638   4.479   5.225   1.170  1.2371 -1.1219 -0.8100
 5783SOL    HW217639   4.623   5.299   1.187  1.1096 -1.0657  0.0450
 5784SOL     OW17640   4.404   4.438   5.906  0.1231  0.0969 -0.4033
 5784SOL    HW117641   4.462   4.512   5.940  1.4530 -0.3611 -1.6015
 5784SOL    HW217642   4.318   4.476   5.870  0.2888  0.9239  0.0437
 5785SOL     OW17643   5.433   4.613   1.165  0.0442 -0.3732 -0.2423
 5785SOL    HW117644   5.364   4.639   1.233  0.7024 -2.2836  1.2340
 5785SOL    HW217645   5.524   4.632   1.201  0.4028  2.0700 -2.1556
 5786SOL     OW17646   4.428   3.143   2.703  0.0599  0.5144  0.3526
 5786SOL    HW117647   4.378   3.141   2.617  0.4093 -0.1850  0.1584
 5786SOL    HW217648   4.491   3.065   2.707 -1.3215 -0.5860  2.0423
 5787SOL     OW17649   5.201   4.026   1.728 -0.0411  0.1118  0.5106
 5787SOL    HW117650   5.210   3.953   1.660  0.9835  0.1239  0.6196
 5787SOL    HW217651   5.185   4.113   1.681  0.2199  0.0486  0.3012
 5788SOL     OW17652   0.586   3.593   0.727  0.3177 -0.1717  0.3396
 5788SOL    HW117653   0.497   3.551   0.743  0.7401 -0.7355  1.2932
 5788SOL    HW217654   0.658   3.524   0.734  0.9617  0.5629  1.2136
 5789SOL     OW17655   4.713   5.539   0.346 -0.0515  0.3605  0.1753
 5789SOL    HW117656   4.734   5.503   0.437 -1.7629 -1.5440 -0.1242
 5789SOL    HW217657   4.614   5.539   0.332  0.0739  2.3317 -1.0485
 5790SOL     OW17658   0.791   3.416   0.750  0.3888  0.4336 -0.2370
 5790SOL    HW117659   0.823   3.464   0.832  0.9478 -0.9885  0.4120
 5790SOL    HW217660   0.868   3.402   0.688  0.8825 -1.8722  0.7602
 5791SOL     OW17661   3.871   4.686   0.274 -0.2127  0.2974  0.5639
 5791SOL    HW117662   3.920   4.773   0.264  0.5952 -0.0789  1.0956
 5791SOL    HW217663   3.932   4.611   0.248 -0.9812 -0.0999 -0.1126
 5792SOL     OW17664   4.876   4.618   0.448 -0.1674 -0.1632 -0.3412
 5792SOL    HW117665   4.817   4.555   0.398  0.2393  0.5731 -1.8006
 5792SOL    HW217666   4.952   4.646   0.390  0.5638  0.4066  0.8420
 5793SOL     OW17667   4.483   3.440   2.678  0.5116  0.9020  0.0845
 5793SOL    HW117668   4.400   3.469   2.630 -0.1822  0.7387  1.1611
 5793SOL    HW217669   4.483   3.341   2.689 -0.1912  1.0695  1.8992
 5794SOL     OW17670   5.372   5.459   1.694 -0.0560 -0.0165  0.0604
 5794SOL    HW117671   5.350   5.549   1.734 -1.5054 -0.8460  1.2311
 5794SOL    HW217672   5.379   5.391   1.767  0.3482 -1.0038 -0.8686
 5795SOL     OW17673   3.037   5.406   1.590 -0.2173  0.0262  0.6321
 5795SOL    HW117674   3.049   5.439   1.683  0.0288  3.6399 -0.5244
 5795SOL    HW217675   2.940   5.410   1.566 -0.0758  0.8792  0.1772
 5796SOL     OW17676   0.298   3.118   1.298 -0.5991  0.1016 -0.2581
 5796SOL    HW117677   0.373   3.179   1.323  0.0417 -1.0349  0.6981
 5796SOL    HW217678   0.291   3.114   1.199 -1.0803  2.1987 -0.3553
 5797SOL     OW17679   3.315   4.745   5.946 -0.1295 -0.0248  0.3639
 5797SOL    HW117680   3.265   4.662   5.971 -1.1925  0.3501 -0.4350
 5797SOL    HW217681   3.331   4.746   5.848  3.4526 -1.1783  0.8032
 5798SOL     OW17682   2.877   5.122   2.404  0.2131  0.0378  0.0759
 5798SOL    HW117683   2.841   5.118   2.311 -0.5786  1.8367  0.2550
 5798SOL    HW217684   2.958   5.181   2.406  0.0686  0.2297  0.5673
 5799SOL     OW17685   3.922   4.643   1.685 -0.4070 -0.0597  0.1189
 5799SOL    HW117686   3.896   4.553   1.650  0.4251  0.0679 -0.8897
 5799SOL    HW217687   3.885   4.655   1.777 -2.3284 -0.5672 -0.5467
 5800SOL     OW17688   1.560   3.202   2.601  0.5619 -0.2093  0.0036
 5800SOL    HW117689   1.571   3.163   2.693 -2.5456  0.7882  0.9435
 5800SOL    HW217690   1.463   3.220   2.585  1.1729  0.8822 -3.0064
 5801SOL     OW17691   3.336   4.074   1.939 -0.1257  0.0079 -0.3283
 5801SOL    HW117692   3.312   4.171   1.949  0.2621  0.4660 -3.1311
 5801SOL    HW217693   3.253   4.019   1.941 -0.3269  0.2937  1.6143
 5802SOL     OW17694   3.216   3.255   0.518  0.5452  0.7773  0.1987
 5802SOL    HW117695   3.272   3.257   0.601  0.7203  0.3225  0.0944
 5802SOL    HW217696   3.121   3.235   0.543  0.6384  0.4058  0.2731
 5803SOL     OW17697   4.945   3.863   2.001  0.8179 -0.4764 -0.0035
 5803SOL    HW117698   5.026   3.830   2.050 -0.0867  1.3816  3.0550
 5803SOL    HW217699   4.863   3.827   2.045 -0.0620  0.2543 -1.0088
 5804SOL     OW17700   5.085   4.101   1.970  0.0428 -0.1239 -0.0642
 5804SOL    HW117701   5.148   4.105   1.892  0.0280 -0.6927 -0.1086
 5804SOL    HW217702   5.038   4.013   1.971  2.0837 -1.3338  2.1357
 5805SOL     OW17703   4.015   3.162   5.325 -0.2398  0.1701 -0.2586
 5805SOL    HW117704   4.045   3.105   5.402 -2.4873 -0.6840  0.0859
 5805SOL    HW217705   4.049   3.123   5.240  3.2671  1.7768  0.2581
 5806SOL     OW17706   4.115   3.392   5.062 -0.0442 -0.5001 -0.3865
 5806SOL    HW117707   4.201   3.383   5.012 -0.1904 -0.6918 -0.5979
 5806SOL    HW217708   4.044   3.338   5.018 -0.6015  0.6661 -0.9516
 5807SOL     OW17709   5.055   2.043   1.465 -0.0432 -0.0078 -0.4480
 5807SOL    HW117710   5.049   2.122   1.527 -1.4228  1.0262 -1.8263
 5807SOL    HW217711   5.139   2.048   1.412 -1.2066  1.9584 -2.2621
 5808SOL     OW17712   5.256   2.860   2.567 -0.2637 -0.2861  0.7351
 5808SOL    HW117713   5.326   2.813   2.512  0.9942  0.9522  1.2135
 5808SOL    HW217714   5.289   2.871   2.660 -0.3483  1.8051  0.5667
 5809SOL     OW17715   4.428   4.564   5.478 -0.1882 -0.0960 -0.0753
 5809SOL    HW117716   4.513   4.594   5.521 -1.1371  2.5512  0.1944
 5809SOL    HW217717   4.432   4.583   5.380 -1.0752  1.8445  0.2092
 5810SOL     OW17718   5.377   4.443   0.913  0.2430  0.4622  0.1597
 5810SOL    HW117719   5.398   4.484   1.002 -1.9894  0.4967  0.7316
 5810SOL    HW217720   5.309   4.371   0.925  0.9847 -0.5378 -1.3714
 5811SOL     OW17721   5.625   3.754   1.069  0.5501 -0.4111  0.2555
 5811SOL    HW117722   5.677   3.820   1.014  1.8550 -0.4773  1.3752
 5811SOL    HW217723   5.686   3.709   1.134 -0.9597 -0.2933  1.8250
 5812SOL     OW17724   5.055   4.618   1.161 -0.4468  0.0076  0.6171
 5812SOL    HW117725   5.031   4.641   1.256  3.2699 -0.6212  1.8817
 5812SOL    HW217726   5.081   4.522   1.156  1.2836  0.4936 -0.5583
 5813SOL     OW17727   5.392   5.061   0.098 -0.7041  0.5421  0.3325
 5813SOL    HW117728   5.299   5.056   0.062 -0.3973 -1.1596 -0.3217
 5813SOL    HW217729   5.394   5.023   0.191 -0.2424 -2.2139 -0.6918
 5814SOL     OW17730   4.014   3.992   1.819  0.0013  0.0217  0.1978
 5814SOL    HW117731   3.941   3.971   1.884  0.9981  1.1223  1.7370
 5814SOL    HW217732   4.101   3.957   1.855  0.4623 -0.0424 -0.9402
 5815SOL     OW17733   5.632   4.676   2.951  0.6088  0.0447 -0.0239
 5815SOL    HW117734   5.659   4.580   2.947  0.7580  0.1030 -0.5113
 5815SOL    HW217735   5.532   4.683   2.949  0.6054 -0.0588 -1.3295
 5816SOL     OW17736   5.110   0.382   1.595 -0.6922  0.8382 -0.0601
 5816SOL    HW117737   5.046   0.448   1.555  0.1204  1.1175 -0.9299
 5816SOL    HW217738   5.186   0.431   1.639 -0.4332  0.4896 -0.1150
 5817SOL     OW17739   4.880   5.684   0.530  0.3922 -0.2366  0.6728
 5817SOL    HW117740   4.935   5.762   0.499  0.5540 -0.8457 -0.6636
 5817SOL    HW217741   4.846   5.634   0.450 -1.4840 -0.3203  1.4812
 5818SOL     OW17742   4.615   4.251   1.689  0.0921 -0.1699  0.1125
 5818SOL    HW117743   4.582   4.175   1.746 -2.5683 -1.5369 -2.9050
 5818SOL    HW217744   4.657   4.214   1.606 -1.2921  1.5969 -1.4598
 5819SOL     OW17745   4.202   4.513   1.392  0.3932 -0.3467 -0.1154
 5819SOL    HW117746   4.136   4.582   1.361  1.0099 -0.2571 -1.2883
 5819SOL    HW217747   4.292   4.534   1.354  0.6390 -1.6473 -0.2824
 5820SOL     OW17748   4.888   3.472   2.498 -0.7619 -0.0653 -0.2968
 5820SOL    HW117749   4.847   3.388   2.463 -0.0236 -0.4903 -0.1665
 5820SOL    HW217750   4.982   3.480   2.465 -0.1752 -0.2811  1.2182
 5821SOL     OW17751   4.264   3.340   0.231  0.4850  0.0773  0.2212
 5821SOL    HW117752   4.170   3.349   0.200 -0.0496 -2.2567  0.9422
 5821SOL    HW217753   4.308   3.429   0.232 -1.4498  1.1025 -0.9238
 5822SOL     OW17754   2.464   4.206   0.986  0.1633  0.0819  0.0093
 5822SOL    HW117755   2.469   4.256   0.900 -1.8157 -0.8318 -0.6863
 5822SOL    HW217756   2.497   4.113   0.973  2.3019  0.6288  0.9217
 5823SOL     OW17757   2.873   4.902   0.768  1.0238  0.0429 -0.0060
 5823SOL    HW117758   2.814   4.892   0.849 -0.7971 -0.0048 -1.2873
 5823SOL    HW217759   2.868   4.996   0.735 -0.7636 -0.6332 -1.8494
 5824SOL     OW17760   4.348   4.431   1.732 -0.0711  0.3131  0.2847
 5824SOL    HW117761   4.417   4.359   1.733  0.0895  0.3446 -2.1742
 5824SOL    HW217762   4.264   4.397   1.774  1.4522  0.4114  3.7200
 5825SOL     OW17763   3.252   1.805   0.206  0.1542  0.4193  0.2563
 5825SOL    HW117764   3.305   1.842   0.283  1.1483 -1.2921  0.4513
 5825SOL    HW217765   3.313   1.754   0.145 -1.0245 -0.2732 -0.3762
 5826SOL     OW17766   4.916   3.443   2.156 -0.1589  0.3184  0.0095
 5826SOL    HW117767   4.973   3.441   2.074  0.0453 -1.5174  0.1593
 5826SOL    HW217768   4.969   3.481   2.232  0.9687 -1.4959  0.1829
 5827SOL     OW17769   0.009   3.575   0.475  0.0002  0.0235 -0.1373
 5827SOL    HW117770   0.090   3.581   0.533  0.1238 -1.3121 -0.1432
 5827SOL    HW217771   0.036   3.576   0.379  0.0941 -1.0194 -0.1412
 5828SOL     OW17772   4.581   2.738   1.252 -0.0778  0.4001 -0.1863
 5828SOL    HW117773   4.533   2.801   1.313  1.7186  1.0563  0.6184
 5828SOL    HW217774   4.607   2.656   1.303  0.3114  0.3891 -0.3974
 5829SOL     OW17775   5.707   4.030   0.164 -0.6860 -0.0537 -0.1781
 5829SOL    HW117776   5.776   4.062   0.229 -1.6917 -0.2613  1.0332
 5829SOL    HW217777   5.752   3.983   0.088  0.4875 -0.7945  0.9250
 5830SOL     OW17778   4.207   4.632   1.884 -0.2497  0.4495 -0.2591
 5830SOL    HW117779   4.294   4.584   1.871 -0.7208 -0.0308 -1.9095
 5830SOL    HW217780   4.131   4.568   1.873 -0.8256  0.8830  1.0550
 5831SOL     OW17781   4.734   3.127   1.911 -0.0820 -0.1593 -0.1520
 5831SOL    HW117782   4.810   3.091   1.857  0.4853 -0.8912  1.0610
 5831SOL    HW217783   4.770   3.166   1.996 -1.0152  0.0851  0.1392
 5832SOL     OW17784   3.778   4.768   0.794  0.3552  0.3609  0.1104
 5832SOL    HW117785   3.726   4.689   0.762  0.6529  0.1050  0.2463
 5832SOL    HW217786   3.825   4.745   0.879 -0.2750  0.9760  0.6405
 5833SOL     OW17787   3.987   4.708   5.497 -0.0352 -0.0097 -0.3558
 5833SOL    HW117788   4.061   4.775   5.490 -0.9763  1.3851  1.9548
 5833SOL    HW217789   4.021   4.618   5.469  2.3048  0.7330 -0.1196
 5834SOL     OW17790   3.621   1.663   1.316  0.7111 -0.2704 -0.0775
 5834SOL    HW117791   3.579   1.591   1.371  0.6479 -0.2142 -0.0518
 5834SOL    HW217792   3.692   1.624   1.258  0.9183 -0.2955  0.1936
 5835SOL     OW17793   4.859   4.734   2.178 -0.0088  0.4699 -0.1343
 5835SOL    HW117794   4.763   4.743   2.150  0.4376  3.5799 -1.0045
 5835SOL    HW217795   4.868   4.757   2.275  0.0077  1.5069 -0.3731
 5836SOL     OW17796   4.561   3.928   5.727  0.3230  0.6639  0.4252
 5836SOL    HW117797   4.469   3.916   5.765  0.6001 -0.9838  0.6490
 5836SOL    HW217798   4.554   3.968   5.635 -0.6506  0.0914  0.2352
 5837SOL     OW17799   5.045   4.583   2.441  0.4332 -0.5834  0.3432
 5837SOL    HW117800   5.094   4.585   2.354  0.8360 -1.1602  0.5488
 5837SOL    HW217801   5.104   4.547   2.512  0.1975  0.1602  0.9283
 5838SOL     OW17802   4.263   1.847   0.742 -0.2228  0.3860 -0.0667
 5838SOL    HW117803   4.334   1.777   0.740 -0.7885 -0.2118  0.2706
 5838SOL    HW217804   4.275   1.904   0.823 -0.0445  0.3794 -0.0874
 5839SOL     OW17805   2.761   4.962   1.601 -0.7194 -0.0543  0.7580
 5839SOL    HW117806   2.848   5.009   1.585  0.1876 -1.9424 -0.2656
 5839SOL    HW217807   2.780   4.872   1.641 -1.6979 -2.4675 -3.5480
 5840SOL     OW17808   0.229   0.173   2.225  0.7253 -0.2512  0.0649
 5840SOL    HW117809   0.313   0.140   2.268  1.7690  0.2238 -1.5309
 5840SOL    HW217810   0.201   0.109   2.153  0.0130 -0.1182  0.2148
 5841SOL     OW17811   3.911   3.554   5.151  0.4040 -0.1221  0.1407
 5841SOL    HW117812   3.998   3.504   5.144  0.4917  0.0786 -0.1934
 5841SOL    HW217813   3.839   3.501   5.107  0.7727  0.6996 -1.5160
 5842SOL     OW17814   4.376   4.586   4.446  1.0044  0.2840  0.6291
 5842SOL    HW117815   4.303   4.534   4.402  0.1660  0.5634  1.6561
 5842SOL    HW217816   4.422   4.643   4.378  0.6067 -0.2730 -0.1239
 5843SOL     OW17817   4.878   0.039   1.053  0.6996  0.3359  0.5941
 5843SOL    HW117818   4.944   0.106   1.020  1.3576 -0.7130 -0.2975
 5843SOL    HW217819   4.792   0.051   1.003  0.4319  1.2369  1.2473
 5844SOL     OW17820   3.712   4.208   1.891 -0.7332  0.4151 -0.0449
 5844SOL    HW117821   3.751   4.276   1.952 -0.8706  0.8170 -0.3982
 5844SOL    HW217822   3.727   4.116   1.928  0.2728  0.5793 -0.0219
 5845SOL     OW17823   4.578   4.021   1.307  0.2372  0.2578  0.1532
 5845SOL    HW117824   4.504   4.081   1.279 -0.0902  0.8538  2.1611
 5845SOL    HW217825   4.541   3.945   1.361  0.9284 -0.2890 -0.1246
 5846SOL     OW17826   5.507   4.374   1.475 -0.2934 -0.1959  0.5642
 5846SOL    HW117827   5.563   4.456   1.465  0.8960 -1.0553 -0.1087
 5846SOL    HW217828   5.491   4.334   1.385 -2.3215  0.2145  0.7018
 5847SOL     OW17829   3.896   0.879   0.597 -0.1020  0.6285  0.6984
 5847SOL    HW117830   3.840   0.943   0.543  0.6578  0.4508 -0.3268
 5847SOL    HW217831   3.975   0.850   0.543 -0.0411 -0.6193  1.4204
 5848SOL     OW17832   5.194   5.424   0.852 -0.3774 -0.4619 -0.0923
 5848SOL    HW117833   5.117   5.460   0.800 -0.3675 -0.6118 -0.2113
 5848SOL    HW217834   5.274   5.417   0.793 -0.2774 -0.3291  0.0245
 5849SOL     OW17835   0.061   1.940   1.566 -0.4882 -0.0899 -0.0904
 5849SOL    HW117836   0.026   1.871   1.503 -0.7619  1.3311 -1.5651
 5849SOL    HW217837   0.100   2.015   1.513 -2.9556  2.3517  1.3054
 5850SOL     OW17838   4.564   2.782   1.687 -0.3976 -0.1571 -0.5452
 5850SOL    HW117839   4.544   2.713   1.617 -0.2681 -1.0007  0.2418
 5850SOL    HW217840   4.630   2.746   1.752 -1.5469  0.1182  0.8095
 5851SOL     OW17841   0.972   5.697   4.505 -0.4685 -0.2721  0.1739
 5851SOL    HW117842   1.019   5.660   4.425  0.3897  0.6412  0.2371
 5851SOL    HW217843   0.892   5.750   4.475 -0.1857  0.0158 -0.0817
 5852SOL     OW17844   4.365   2.469   0.744  0.3942 -0.2893 -0.0796
 5852SOL    HW117845   4.446   2.523   0.767  0.7529 -1.4027  1.4100
 5852SOL    HW217846   4.342   2.410   0.821 -1.3199 -0.6404 -0.8226
 5853SOL     OW17847   0.410   0.167   0.315 -0.2189 -0.4083  0.2923
 5853SOL    HW117848   0.399   0.246   0.255  0.5236  0.0593  0.7672
 5853SOL    HW217849   0.482   0.185   0.382 -0.1470 -1.4317  0.5006
 5854SOL     OW17850   5.389   4.755   5.270 -0.1074 -0.1808 -0.3703
 5854SOL    HW117851   5.487   4.734   5.273 -0.1604 -0.4326 -0.3250
 5854SOL    HW217852   5.369   4.812   5.191  0.0658 -0.1883 -0.4197
 5855SOL     OW17853   3.002   4.710   1.099  0.1454  0.1288  0.4043
 5855SOL    HW117854   3.027   4.795   1.053 -1.0667  0.4140  0.2219
 5855SOL    HW217855   3.028   4.632   1.043 -1.1747  0.4678 -0.7215
 5856SOL     OW17856   0.130   0.151   0.481  0.7560  0.0754 -0.0391
 5856SOL    HW117857   0.068   0.222   0.448  0.8258 -0.4658 -1.4312
 5856SOL    HW217858   0.213   0.192   0.516  0.5660  0.7109 -0.3247
 5857SOL     OW17859   4.027   2.746   0.868 -0.5482 -0.4786  0.7939
 5857SOL    HW117860   4.125   2.755   0.852 -0.5264 -0.3364  0.9960
 5857SOL    HW217861   3.992   2.832   0.904 -1.1470  0.1920 -1.2566
 5858SOL     OW17862   4.450   4.449   1.281  0.3578  0.7557 -0.1159
 5858SOL    HW117863   4.498   4.468   1.367  2.1051 -2.1228 -0.3304
 5858SOL    HW217864   4.514   4.455   1.204  0.5423 -2.7985 -0.4467
 5859SOL     OW17865   3.426   0.238   4.983 -0.5273  0.2248  0.3010
 5859SOL    HW117866   3.452   0.273   5.073 -1.5645  0.1334  0.6480
 5859SOL    HW217867   3.481   0.157   4.962 -0.3356  0.2019  0.8757
 5860SOL     OW17868   4.550   3.459   1.227 -0.1323  0.3056  0.1494
 5860SOL    HW117869   4.464   3.472   1.176 -1.1337 -0.7683  1.4816
 5860SOL    HW217870   4.625   3.444   1.163 -0.9577  1.1422 -1.0505
 5861SOL     OW17871   5.775   0.649   5.083  0.4042  0.1720  0.0331
 5861SOL    HW117872   5.843   0.671   5.153 -0.8592 -1.6210  1.9185
 5861SOL    HW217873   5.687   0.629   5.126 -0.5015 -0.7621 -2.1052
 5862SOL     OW17874   4.522   3.362   2.117 -0.3042  0.2757  0.1765
 5862SOL    HW117875   4.440   3.334   2.168 -0.3827  0.0089 -0.0960
 5862SOL    HW217876   4.510   3.456   2.085 -0.9883 -0.1437 -0.8363
 5863SOL     OW17877   4.308   4.802   1.369 -0.2338 -0.1095 -0.4830
 5863SOL    HW117878   4.239   4.860   1.325 -1.7779 -1.5016 -0.0127
 5863SOL    HW217879   4.389   4.796   1.311 -0.4156  1.6751 -0.9951
 5864SOL     OW17880   2.474   4.252   0.432 -0.3422  0.2942  0.6312
 5864SOL    HW117881   2.572   4.233   0.437 -0.3905 -0.1244  0.0809
 5864SOL    HW217882   2.459   4.351   0.439  0.0758  0.3194  1.2546
 5865SOL     OW17883   5.074   4.799   1.766 -0.0762  0.2252  0.1481
 5865SOL    HW117884   4.978   4.801   1.739  0.1056  1.6210 -0.4690
 5865SOL    HW217885   5.102   4.704   1.782 -1.4771 -0.2203  0.0954
 5866SOL     OW17886   5.094   4.833   2.053 -0.4282 -0.2850 -0.2166
 5866SOL    HW117887   5.007   4.820   2.101 -0.7657  0.8257 -0.4958
 5866SOL    HW217888   5.077   4.864   1.960  0.2392 -1.9890 -0.9508
 5867SOL     OW17889   4.976   2.932   1.791  0.0946  0.4016 -0.3068
 5867SOL    HW117890   5.002   2.837   1.809  1.0255  0.4463 -1.3309
 5867SOL    HW217891   4.906   2.935   1.720 -0.8083  0.4334  0.5618
 5868SOL     OW17892   5.867   4.052   1.988 -0.1982  0.3611 -0.1874
 5868SOL    HW117893   5.883   4.146   2.020  0.6638 -0.4225  1.9136
 5868SOL    HW217894   5.825   3.999   2.062 -0.2371 -1.0197 -1.1723
 5869SOL     OW17895   4.712   5.760   0.750 -0.2290 -0.1246 -0.0502
 5869SOL    HW117896   4.706   5.859   0.738  0.3046  0.1049  1.4000
 5869SOL    HW217897   4.776   5.722   0.684  2.2299  0.9961  1.5678
 5870SOL     OW17898   0.317   2.056   2.302 -0.0175 -0.0620 -0.3542
 5870SOL    HW117899   0.280   2.085   2.390 -0.5557 -1.3790 -0.1185
 5870SOL    HW217900   0.243   2.052   2.235  0.3130  0.5151 -0.7546
 5871SOL     OW17901   4.018   5.533   0.716  0.6593 -0.4130  0.0807
 5871SOL    HW117902   4.115   5.516   0.731  0.8673  0.1310 -0.5987
 5871SOL    HW217903   4.006   5.623   0.675 -0.1103 -0.5862 -0.0902
 5872SOL     OW17904   4.009   5.553   2.375  0.0467 -0.0893 -0.4675
 5872SOL    HW117905   3.944   5.570   2.301  0.6684 -0.3750 -1.1068
 5872SOL    HW217906   4.081   5.492   2.341  0.8034  0.4552  0.1289
 5873SOL     OW17907   5.071   5.298   5.860  0.3040  0.4588 -0.1512
 5873SOL    HW117908   5.099   5.392   5.882 -0.5410  0.7264 -0.1784
 5873SOL    HW217909   5.093   5.278   5.764  0.0732  0.7893 -0.2742
 5874SOL     OW17910   0.332   4.528   1.976 -0.4789  0.3983  0.2628
 5874SOL    HW117911   0.407   4.586   1.943  0.4517 -1.0285 -0.2029
 5874SOL    HW217912   0.246   4.563   1.940 -0.0564  1.9993  0.7049
 5875SOL     OW17913   4.187   4.529   5.683  0.4437 -0.1130 -0.4379
 5875SOL    HW117914   4.119   4.571   5.744  1.2946  1.1863 -0.3470
 5875SOL    HW217915   4.167   4.555   5.589  0.4418 -0.2750 -0.4831
 5876SOL     OW17916   4.625   5.066   1.412 -0.1087  0.3051 -0.3807
 5876SOL    HW117917   4.718   5.103   1.421 -0.8912  2.0307  1.4915
 5876SOL    HW217918   4.567   5.135   1.368 -1.0535  0.2942  0.8175
 5877SOL     OW17919   5.295   4.978   3.220  0.2706  0.5741 -0.0022
 5877SOL    HW117920   5.207   5.024   3.231  0.4095  1.2286 -1.4130
 5877SOL    HW217921   5.364   5.022   3.278 -0.1542  0.5403  0.5320
 5878SOL     OW17922   4.002   4.237   0.176 -0.1493  0.6775 -0.3715
 5878SOL    HW117923   4.016   4.241   0.275  0.9558  0.1475 -0.4870
 5878SOL    HW217924   3.904   4.241   0.156 -0.3909  0.7022  0.7455
 5879SOL     OW17925   4.684   5.136   0.722 -0.1578 -0.2102 -0.3688
 5879SOL    HW117926   4.772   5.111   0.764 -0.1639 -0.6726 -0.6270
 5879SOL    HW217927   4.681   5.235   0.708 -0.9983  0.3143  2.6948
 5880SOL     OW17928   5.503   5.109   2.072 -0.4975 -0.0710 -0.4810
 5880SOL    HW117929   5.498   5.182   2.140 -0.5806 -2.1914  1.9392
 5880SOL    HW217930   5.582   5.051   2.092 -1.0591 -1.2877 -1.6546
 5881SOL     OW17931   5.278   4.714   5.518 -0.1035  0.1794  0.0273
 5881SOL    HW117932   5.321   4.749   5.435 -0.2579  0.3229  0.0059
 5881SOL    HW217933   5.305   4.619   5.533  1.3362  0.6818  0.7702
 5882SOL     OW17934   4.777   5.015   5.242 -0.3562  0.1866  0.3288
 5882SOL    HW117935   4.706   5.057   5.298 -0.6983 -0.1121  0.1226
 5882SOL    HW217936   4.821   4.941   5.293 -0.1139  0.4514  0.4999
 5883SOL     OW17937   3.774   4.115   2.398  0.1893  0.3964  0.9396
 5883SOL    HW117938   3.825   4.135   2.482  2.3606  1.1696 -0.4860
 5883SOL    HW217939   3.829   4.141   2.319 -1.7722 -0.3725 -0.7514
 5884SOL     OW17940   4.433   4.545   2.042 -0.1353  0.0376 -0.2572
 5884SOL    HW117941   4.348   4.527   2.091  0.1526  0.5501  0.4506
 5884SOL    HW217942   4.504   4.483   2.074 -0.5329 -1.2083 -1.7056
 5885SOL     OW17943   4.418   3.240   0.992  0.4244  0.4359  0.4402
 5885SOL    HW117944   4.385   3.333   1.006  0.9733  0.8166 -0.6177
 5885SOL    HW217945   4.513   3.243   0.961  0.4734 -0.4812  0.4741
 5886SOL     OW17946   3.618   2.650   1.740 -0.2255 -0.1332 -1.3302
 5886SOL    HW117947   3.581   2.695   1.821  0.7098  0.0796 -1.0071
 5886SOL    HW217948   3.676   2.714   1.689  0.3133 -0.6619 -1.4057
 5887SOL     OW17949   1.553   4.007   5.635  0.4930 -0.0205  0.2317
 5887SOL    HW117950   1.590   3.950   5.708 -0.0065  1.7655  1.9857
 5887SOL    HW217951   1.491   3.953   5.578  1.7771 -1.7405  0.4143
 5888SOL     OW17952   5.704   5.892   1.887 -0.0777 -0.2494 -0.3550
 5888SOL    HW117953   5.788   5.927   1.927 -0.7753  0.6861  0.3100
 5888SOL    HW217954   5.648   5.849   1.958 -1.1657  1.1117 -0.3606
 5889SOL     OW17955   3.518   3.753   1.693  0.0466  0.0537 -0.1452
 5889SOL    HW117956   3.536   3.832   1.751 -1.4363 -0.9027  1.7400
 5889SOL    HW217957   3.422   3.754   1.665 -0.5799 -2.0771  1.6364
 5890SOL     OW17958   4.340   3.495   1.658  0.1544  0.7488  0.0440
 5890SOL    HW117959   4.397   3.444   1.723 -1.1130 -1.4784 -0.4902
 5890SOL    HW217960   4.281   3.558   1.709  1.2379  1.1993  0.7889
 5891SOL     OW17961   1.314   4.094   5.290  0.1685  0.3597  0.1549
 5891SOL    HW117962   1.297   4.029   5.216  1.4151  0.4544 -0.2455
 5891SOL    HW217963   1.301   4.049   5.378  0.1049 -0.1680 -0.1225
 5892SOL     OW17964   4.893   3.834   1.505  0.1614 -0.2014 -0.0314
 5892SOL    HW117965   4.977   3.811   1.456 -0.0098  0.2540 -0.5527
 5892SOL    HW217966   4.866   3.928   1.483 -1.1275 -0.7252 -0.8112
 5893SOL     OW17967   0.119   4.397   1.113 -0.5973 -0.6497 -0.5153
 5893SOL    HW117968   0.103   4.488   1.153  1.4463 -0.5830  0.2981
 5893SOL    HW217969   0.122   4.405   1.013 -0.9983  0.0741 -0.4776
 5894SOL     OW17970   3.639   4.984   0.859 -0.1703  0.0659  0.0143
 5894SOL    HW117971   3.640   4.980   0.959 -0.2776 -0.3374 -0.0001
 5894SOL    HW217972   3.693   4.908   0.823  0.9360  0.9367 -0.2176
 5895SOL     OW17973   3.597   5.279   5.778 -0.5243  0.5040 -0.4395
 5895SOL    HW117974   3.540   5.321   5.708  1.0172  1.7928 -0.9874
 5895SOL    HW217975   3.693   5.304   5.763  0.2146 -1.5348  0.4704
 5896SOL     OW17976   5.395   4.366   5.115  0.0720 -0.5371 -0.4923
 5896SOL    HW117977   5.418   4.326   5.026  0.9968 -3.3821  0.9368
 5896SOL    HW217978   5.479   4.391   5.163 -0.3913  0.2730 -0.0778
 5897SOL     OW17979   5.206   2.284   1.547  0.0402  0.3950  0.4628
 5897SOL    HW117980   5.275   2.325   1.607  0.1502  0.0687  0.5608
 5897SOL    HW217981   5.130   2.348   1.536  1.1596  1.5344 -1.1005
 5898SOL     OW17982   4.665   3.829   0.776 -0.3758  0.3399  0.3545
 5898SOL    HW117983   4.685   3.752   0.716 -1.4585 -0.2307  0.6924
 5898SOL    HW217984   4.657   3.797   0.871 -1.3572  0.7578  0.4318
 5899SOL     OW17985   3.059   0.816   0.054  0.2468 -0.2373 -0.5484
 5899SOL    HW117986   3.005   0.892   0.018 -0.6533 -0.9088 -0.6539
 5899SOL    HW217987   3.042   0.807   0.152  0.1550 -0.4544 -0.5832
 5900SOL     OW17988   3.741   0.272   3.028 -0.1459  0.3144  0.3790
 5900SOL    HW117989   3.829   0.224   3.023 -0.1989  0.2833 -0.4101
 5900SOL    HW217990   3.701   0.276   2.937 -1.1039  0.0732  0.7778
 5901SOL     OW17991   2.848   4.482   2.047  0.3929  0.2047 -0.7902
 5901SOL    HW117992   2.919   4.432   1.997  0.5903 -1.1682  0.7710
 5901SOL    HW217993   2.758   4.455   2.014  0.3405 -3.4153  1.7418
 5902SOL     OW17994   3.958   3.660   2.992  0.1357  0.3974 -0.1493
 5902SOL    HW117995   3.912   3.600   2.928  2.0288  0.0600 -1.2642
 5902SOL    HW217996   3.931   3.755   2.976 -1.3536  0.0691  0.3071
 5903SOL     OW17997   3.110   4.305   2.403  0.7695 -0.2011 -0.4401
 5903SOL    HW117998   3.141   4.397   2.425  2.0164 -0.1619 -2.1541
 5903SOL    HW217999   3.147   4.241   2.470 -0.1910  0.5291  0.8214
 5904SOL     OW18000   1.001   5.875   2.619  0.1342 -0.1525  0.4426
 5904SOL    HW118001   0.989   5.782   2.651  1.0014 -0.4946 -0.1705
 5904SOL    HW218002   1.052   5.874   2.532 -0.1739  0.8635  0.2355
 5905SOL     OW18003   4.013   2.751   3.771 -0.2457 -0.2595  0.4918
 5905SOL    HW118004   3.925   2.791   3.744  0.6794  2.4312  1.1908
 5905SOL    HW218005   4.071   2.740   3.690 -0.0134  1.2409  0.4200
 5906SOL     OW18006   0.017   4.432   4.323 -0.1894 -0.3569 -0.2069
 5906SOL    HW118007   0.025   4.376   4.405 -0.1592 -1.4051 -0.8985
 5906SOL    HW218008  -0.030   4.517   4.345  1.3765  0.1769  1.2434
 5907SOL     OW18009   3.976   4.984   4.203 -0.3849  0.3935  0.1826
 5907SOL    HW118010   3.945   5.077   4.186 -1.3465 -0.0243 -0.3948
 5907SOL    HW218011   3.996   4.972   4.301  1.0461  1.5733  0.0749
 5908SOL     OW18012   5.210   4.657   4.841 -0.1055 -0.0713 -0.1668
 5908SOL    HW118013   5.196   4.655   4.940  0.4359  1.8506 -0.0029
 5908SOL    HW218014   5.303   4.628   4.820 -0.0279  0.0907 -0.0518
 5909SOL     OW18015   4.783   4.422   1.322  0.1015  0.1248 -0.1788
 5909SOL    HW118016   4.808   4.427   1.419  1.5913  1.6672 -0.5841
 5909SOL    HW218017   4.854   4.372   1.272  0.7277  1.6032 -0.8381
 5910SOL     OW18018   3.461   4.438   5.232  0.3844 -0.6866 -0.1495
 5910SOL    HW118019   3.423   4.360   5.281  0.3273 -0.5808 -0.0244
 5910SOL    HW218020   3.494   4.408   5.142 -1.2709 -0.5201 -0.8417
 5911SOL     OW18021   2.704   5.521   2.482 -0.4729  0.5851 -0.3847
 5911SOL    HW118022   2.699   5.605   2.537  1.0445 -0.2135  1.0775
 5911SOL    HW218023   2.730   5.444   2.541  0.4203 -0.4872 -2.0908
 5912SOL     OW18024   3.925   0.262   4.527 -0.0404  0.2328  0.9902
 5912SOL    HW118025   3.987   0.196   4.569  0.6902  0.5410  0.4276
 5912SOL    HW218026   3.862   0.298   4.595 -0.2822 -0.8625  1.3484
 5913SOL     OW18027   4.767   3.691   4.411 -0.2580  0.0661 -0.0213
 5913SOL    HW118028   4.801   3.606   4.372  0.5949  0.1702  0.4624
 5913SOL    HW218029   4.778   3.765   4.344  2.1175  0.4447  0.6668
 5914SOL     OW18030   0.456   5.289   1.564 -0.1974 -0.5648  0.5111
 5914SOL    HW118031   0.362   5.256   1.562 -0.6226  0.3465  2.8266
 5914SOL    HW218032   0.483   5.309   1.658  1.9654  0.2003 -0.2057
 5915SOL     OW18033   4.207   0.097   1.073  0.2743 -0.4903 -0.5257
 5915SOL    HW118034   4.152   0.166   1.121  0.8908 -0.9175  0.8460
 5915SOL    HW218035   4.220   0.018   1.132  1.9006 -0.6334 -1.0300
 5916SOL     OW18036   5.587   5.819   4.239 -0.3510 -0.4087 -0.0191
 5916SOL    HW118037   5.660   5.765   4.281  1.1494  1.8378  0.4494
 5916SOL    HW218038   5.581   5.797   4.142  0.9806 -0.6421 -0.0684
 5917SOL     OW18039   0.355   5.167   0.603 -0.3657 -0.0150  0.5015
 5917SOL    HW118040   0.403   5.251   0.628 -1.6858  1.4691 -1.5845
 5917SOL    HW218041   0.256   5.182   0.608 -0.6338 -1.6268  0.5701
 5918SOL     OW18042   4.196   4.503   2.153 -0.5518  0.7633  0.2823
 5918SOL    HW118043   4.206   4.522   2.250  2.5884  0.0756  0.2185
 5918SOL    HW218044   4.155   4.582   2.107 -0.7560  1.6650  1.9481
 5919SOL     OW18045   3.905   4.883   0.587  0.1960 -0.0501  0.2731
 5919SOL    HW118046   3.909   4.814   0.659 -1.1823 -0.2113  0.2174
 5919SOL    HW218047   3.844   4.853   0.515  1.4276  0.1950 -0.9140
 5920SOL     OW18048   4.418   4.929   2.609 -0.2702 -0.4336 -0.6161
 5920SOL    HW118049   4.355   4.984   2.555 -0.1279  1.1186  0.7206
 5920SOL    HW218050   4.370   4.890   2.688  0.3518  0.5927  0.2983
 5921SOL     OW18051   3.131   4.527   3.350 -0.5471  0.1117  0.6836
 5921SOL    HW118052   3.073   4.605   3.326 -1.6232 -0.8556  0.0847
 5921SOL    HW218053   3.108   4.494   3.441 -1.1534 -0.4511  0.3331
 5922SOL     OW18054   4.874   5.285   3.640  0.2687  0.1775 -0.5618
 5922SOL    HW118055   4.924   5.322   3.562 -0.1875  0.6696 -0.6267
 5922SOL    HW218056   4.784   5.252   3.610 -0.8197  2.3549  0.0640
 5923SOL     OW18057   0.651   0.454   1.949  0.3397  0.1069  0.4782
 5923SOL    HW118058   0.647   0.553   1.932  0.7668 -0.1195 -1.0437
 5923SOL    HW218059   0.679   0.438   2.044  2.2135  1.4576  0.2079
 5924SOL     OW18060   4.781   4.760   1.716 -0.5977  0.1868  0.1755
 5924SOL    HW118061   4.749   4.790   1.626  0.2216 -0.4670 -0.3498
 5924SOL    HW218062   4.749   4.667   1.734 -0.4293  0.1686  0.3922
 5925SOL     OW18063   5.958   5.368   1.486 -0.3792  0.0247 -0.4326
 5925SOL    HW118064   5.948   5.396   1.391  0.3648  2.6056  0.1628
 5925SOL    HW218065   5.887   5.412   1.541  0.4984  0.3168  0.5056
 5926SOL     OW18066   5.595   5.804   2.926 -0.3391 -0.0217 -0.1858
 5926SOL    HW118067   5.545   5.890   2.912 -0.9579 -0.2515  0.5439
 5926SOL    HW218068   5.535   5.727   2.903 -0.8990 -0.3610  2.2082
 5927SOL     OW18069   3.143   5.223   3.818  0.3183 -0.0630 -0.5187
 5927SOL    HW118070   3.206   5.286   3.774 -0.3636  0.7275 -0.3818
 5927SOL    HW218071   3.094   5.269   3.891 -0.7212 -0.5291 -0.8883
 5928SOL     OW18072   3.605   0.506   2.473 -0.2459  0.1450  0.2068
 5928SOL    HW118073   3.613   0.467   2.381 -2.2008 -0.3464  0.2064
 5928SOL    HW218074   3.542   0.451   2.527 -1.0042  1.7875  1.0747
 5929SOL     OW18075   4.030   0.506   4.420  0.2561 -0.4694  0.1490
 5929SOL    HW118076   3.983   0.421   4.444 -0.2648  0.2604  1.9060
 5929SOL    HW218077   4.128   0.490   4.418  0.2628 -0.8618  1.7920
 5930SOL     OW18078   4.265   3.528   2.289 -0.4940  0.3378  0.3405
 5930SOL    HW118079   4.256   3.434   2.254  2.9686 -0.0796  0.2556
 5930SOL    HW218080   4.255   3.593   2.214 -0.8393 -0.0895  0.0152
 5931SOL     OW18081   5.942   5.072   3.850 -0.8174 -0.3752  0.0279
 5931SOL    HW118082   5.877   5.011   3.896  0.5248  0.8383  4.0298
 5931SOL    HW218083   5.999   5.019   3.787 -1.7886 -2.6279  0.9339
 5932SOL     OW18084   0.500   5.633   3.512 -0.0865 -0.4651  0.1367
 5932SOL    HW118085   0.404   5.626   3.486  0.6178 -1.8652 -2.4791
 5932SOL    HW218086   0.543   5.709   3.463 -0.0790  1.0142  2.3045
 5933SOL     OW18087   5.452   5.056   3.410  0.1806 -0.7513  0.4316
 5933SOL    HW118088   5.437   5.053   3.508 -0.3498  3.4032  0.6881
 5933SOL    HW218089   5.510   5.135   3.388 -3.2558  1.2392 -2.7466
 5934SOL     OW18090   3.049   2.500   3.771 -0.5605  0.1482 -0.5758
 5934SOL    HW118091   3.146   2.520   3.785 -0.1293 -1.5893 -0.8419
 5934SOL    HW218092   2.993   2.573   3.812  0.7958 -0.1384  1.9890
 5935SOL     OW18093   4.273   0.772   2.738 -0.3372  0.2587  0.2738
 5935SOL    HW118094   4.238   0.843   2.676  0.3170 -0.5642 -1.1064
 5935SOL    HW218095   4.217   0.768   2.820 -0.7960  1.9065  0.0808
 5936SOL     OW18096   0.385   0.113   4.446  0.4493  0.5357  0.7688
 5936SOL    HW118097   0.381   0.115   4.546  1.4506  0.6705  0.8093
 5936SOL    HW218098   0.340   0.195   4.410  0.8857  0.9410  1.1370
 5937SOL     OW18099   5.193   4.355   1.185 -0.4725  0.0324 -0.8522
 5937SOL    HW118100   5.181   4.313   1.095  0.1381  3.1842 -2.5321
 5937SOL    HW218101   5.280   4.324   1.225 -0.9547 -1.7308 -1.0906
 5938SOL     OW18102   5.691   2.374   1.860 -0.2583  0.5537  0.3649
 5938SOL    HW118103   5.725   2.465   1.886 -0.1180  0.4673  0.4857
 5938SOL    HW218104   5.743   2.304   1.910 -0.1776  0.3964  0.0605
 5939SOL     OW18105   0.350   5.559   1.325 -0.2047 -0.1130  0.2249
 5939SOL    HW118106   0.346   5.469   1.282  1.5803 -0.6386  1.1152
 5939SOL    HW218107   0.295   5.559   1.409 -0.5473 -0.2251  0.0042
 5940SOL     OW18108   5.464   4.902   4.050  0.3821 -0.8072 -0.5766
 5940SOL    HW118109   5.370   4.882   4.079  0.4012 -0.5868 -0.3669
 5940SOL    HW218110   5.472   4.999   4.028  1.1247 -0.3457  1.5229
 5941SOL     OW18111   5.417   5.006   2.985  0.0174  0.0530  0.0350
 5941SOL    HW118112   5.508   5.041   3.008 -0.5212 -0.0923  2.6668
 5941SOL    HW218113   5.373   4.969   3.067 -0.9853 -3.3359 -1.8478
 5942SOL     OW18114   4.872   5.384   3.123  0.6234 -0.1493  0.1598
 5942SOL    HW118115   4.966   5.406   3.096  0.0566  2.0249 -0.2083
 5942SOL    HW218116   4.836   5.312   3.064  1.4402  0.2811 -0.8927
 5943SOL     OW18117   5.465   4.660   3.263  0.2892  0.0600  0.1332
 5943SOL    HW118118   5.395   4.720   3.300  2.0250  1.9267  0.6135
 5943SOL    HW218119   5.555   4.695   3.290  1.3997 -3.3745  1.3473
 5944SOL     OW18120   5.522   2.886   1.663 -0.4115 -0.6210  0.0951
 5944SOL    HW118121   5.588   2.903   1.590 -2.3595 -0.9142 -1.8342
 5944SOL    HW218122   5.433   2.924   1.637 -0.8330  0.6454  3.0329
 5945SOL     OW18123   4.774   3.575   1.485 -0.1462 -0.0210  0.5145
 5945SOL    HW118124   4.810   3.655   1.533 -0.5333  0.0197  0.7388
 5945SOL    HW218125   4.684   3.596   1.447  1.1146  0.7542 -2.3214
 5946SOL     OW18126   2.983   0.885   4.592 -0.0260 -0.7795 -0.6116
 5946SOL    HW118127   2.939   0.805   4.552  0.9704 -1.2429 -0.8142
 5946SOL    HW218128   3.003   0.868   4.688  1.1589 -1.2072 -0.9197
 5947SOL     OW18129   5.259   3.118   3.677 -0.1232 -0.5627 -0.6317
 5947SOL    HW118130   5.287   3.060   3.600 -1.7585 -2.8779  0.4085
 5947SOL    HW218131   5.294   3.079   3.762 -3.5359 -1.7481  0.3848
 5948SOL     OW18132   5.779   0.640   3.571  0.3700 -0.2708 -0.0815
 5948SOL    HW118133   5.847   0.569   3.555  0.1737 -0.6420  0.6670
 5948SOL    HW218134   5.791   0.678   3.663  1.0698  1.3293 -0.7914
 5949SOL     OW18135   5.727   5.860   2.551 -0.0691  0.3993 -0.5446
 5949SOL    HW118136   5.658   5.816   2.494  0.7787 -1.1038 -0.4538
 5949SOL    HW218137   5.699   5.856   2.647  0.0471 -0.0161 -0.5289
 5950SOL     OW18138   3.999   4.322   3.953 -0.2712  0.7886 -0.2191
 5950SOL    HW118139   4.095   4.346   3.938  0.5564 -2.8164 -1.8633
 5950SOL    HW218140   3.991   4.268   4.037 -0.5171 -0.2809 -0.9045
 5951SOL     OW18141   0.060   4.818   3.443 -0.1822  0.4856 -0.5028
 5951SOL    HW118142   0.040   4.721   3.426 -3.7231  1.0802 -0.3549
 5951SOL    HW218143   0.010   4.874   3.377 -0.3290  2.2841  1.0670
 5952SOL     OW18144   4.360   5.757   2.935 -0.2451  0.1116  0.2465
 5952SOL    HW118145   4.322   5.762   3.027 -2.2628  1.8176 -0.5942
 5952SOL    HW218146   4.354   5.663   2.902 -1.0190 -0.2166  1.2665
 5953SOL     OW18147   5.526   4.057   3.021  0.3739 -0.4595 -0.4060
 5953SOL    HW118148   5.446   4.062   2.962 -0.5401 -1.0407  0.7313
 5953SOL    HW218149   5.530   3.967   3.065  1.1812 -0.1479  0.1955
 5954SOL     OW18150   3.833   1.247   2.390  0.2667  0.3598 -0.1754
 5954SOL    HW118151   3.921   1.243   2.343 -1.0999 -0.0334 -2.9148
 5954SOL    HW218152   3.765   1.193   2.340 -1.8937  1.7954  0.9956
 5955SOL     OW18153   4.666   3.755   1.037  0.0086  0.2084 -0.0174
 5955SOL    HW118154   4.713   3.801   1.112 -0.8607 -0.9062  1.2553
 5955SOL    HW218155   4.567   3.761   1.051 -0.1493 -0.6531 -0.6801
 5956SOL     OW18156   0.107   4.121   0.844 -0.8411  0.0023  0.2300
 5956SOL    HW118157   0.081   4.095   0.937  0.1786  1.4226  0.9533
 5956SOL    HW218158   0.117   4.221   0.839 -0.4720 -0.0931 -1.2936
 5957SOL     OW18159   2.997   4.614   2.988 -0.1776 -0.1121  0.4905
 5957SOL    HW118160   3.052   4.683   3.035  1.1263 -1.2400  0.6900
 5957SOL    HW218161   3.021   4.523   3.022 -0.2613 -0.8487 -1.3013
 5958SOL     OW18162   5.507   5.839   2.097  0.1797  0.0287 -0.0124
 5958SOL    HW118163   5.455   5.912   2.142 -1.0294 -0.3879 -0.6625
 5958SOL    HW218164   5.464   5.751   2.118  0.7916 -0.3532 -0.3537
 5959SOL     OW18165   3.552   4.901   2.305  0.2920  0.2856  0.0316
 5959SOL    HW118166   3.589   4.925   2.216 -0.5747 -0.5277 -0.5704
 5959SOL    HW218167   3.489   4.823   2.296  1.6114 -1.0479  1.6276
 5960SOL     OW18168   0.124   3.144   0.836  0.0461 -0.3862  0.4079
 5960SOL    HW118169   0.091   3.182   0.750  1.7657 -3.1001 -1.6265
 5960SOL    HW218170   0.051   3.093   0.881 -0.2774 -0.9739 -0.7424
 5961SOL     OW18171   4.104   4.822   1.574  0.0775 -0.4176 -0.3564
 5961SOL    HW118172   4.187   4.806   1.521  2.1318  0.0856  2.4199
 5961SOL    HW218173   4.073   4.737   1.616 -0.5348 -0.5156 -0.9964
 5962SOL     OW18174   5.826   3.199   1.186  0.1368 -0.1226  0.5114
 5962SOL    HW118175   5.786   3.144   1.113  2.3832 -0.7109 -0.3567
 5962SOL    HW218176   5.882   3.141   1.245  2.1410  1.0811 -0.1181
 5963SOL     OW18177   4.033   4.431   2.450  0.2577 -0.1017 -0.0357
 5963SOL    HW118178   4.029   4.352   2.389  1.0038  0.8254 -1.3354
 5963SOL    HW218179   4.114   4.485   2.429 -1.8232  2.7699 -1.4234
 5964SOL     OW18180   5.112   5.429   3.027 -0.2689 -0.0518 -0.3269
 5964SOL    HW118181   5.134   5.413   2.931  0.6787 -1.5199  0.1100
 5964SOL    HW218182   5.119   5.527   3.046  0.5338  0.1489 -1.5285
 5965SOL     OW18183   5.199   4.609   2.157  0.7085  0.1494 -0.2936
 5965SOL    HW118184   5.235   4.542   2.092  0.3582  0.2983 -0.6420
 5965SOL    HW218185   5.183   4.696   2.111  1.0343  0.4387  0.1266
 5966SOL     OW18186   5.386   3.889   3.212 -0.1162 -0.1254  0.0788
 5966SOL    HW118187   5.334   3.967   3.246  0.9155  0.1026  1.2108
 5966SOL    HW218188   5.419   3.835   3.290  0.9585 -0.5000 -0.6157
 5967SOL     OW18189   4.772   1.635   2.191 -0.1138  0.0357 -0.5915
 5967SOL    HW118190   4.755   1.677   2.280 -0.2447  0.3020 -0.7385
 5967SOL    HW218191   4.722   1.686   2.121 -0.0418 -0.1949 -0.8113
 5968SOL     OW18192   4.846   3.631   4.037  0.1723 -0.5978 -0.1710
 5968SOL    HW118193   4.785   3.629   3.958  1.0050  0.0102 -0.8531
 5968SOL    HW218194   4.835   3.547   4.090 -1.4064 -0.3972 -0.1401
 5969SOL     OW18195   4.537   3.926   2.111  0.0056  0.0056  0.0308
 5969SOL    HW118196   4.590   3.850   2.150  0.2785  0.6589  0.9688
 5969SOL    HW218197   4.556   4.009   2.163 -1.5376  0.3769  0.0392
 5970SOL     OW18198   4.769   4.421   2.900 -0.3968 -0.1358  0.3523
 5970SOL    HW118199   4.841   4.448   2.964 -0.9040  0.2798  0.7650
 5970SOL    HW218200   4.727   4.336   2.930 -1.9329  1.0219  1.7050
 5971SOL     OW18201   0.117   4.524   2.977  0.2375  0.5586 -0.1261
 5971SOL    HW118202   0.025   4.486   2.971  0.6237 -0.3535 -0.4167
 5971SOL    HW218203   0.157   4.530   2.886  1.1175 -0.7384  0.1394
 5972SOL     OW18204   4.298   5.096   2.143 -0.3670 -0.3422 -0.1224
 5972SOL    HW118205   4.396   5.100   2.123 -0.0422 -0.1017  1.3831
 5972SOL    HW218206   4.256   5.025   2.086  0.0263  1.6625 -3.1727
 5973SOL     OW18207   5.418   3.742   1.447 -0.2920  0.1622  0.1851
 5973SOL    HW118208   5.491   3.677   1.421 -1.1399 -0.9208  0.4268
 5973SOL    HW218209   5.361   3.761   1.367 -1.4199 -1.2321  0.6146
 5974SOL     OW18210   5.560   0.675   3.036  0.0674 -0.0981  0.3431
 5974SOL    HW118211   5.545   0.658   2.938 -1.1135  0.1097  0.4680
 5974SOL    HW218212   5.512   0.759   3.062  1.5299  0.6089  0.8241
 5975SOL     OW18213   5.773   0.119   4.211  0.0916 -0.5037 -0.4009
 5975SOL    HW118214   5.807   0.119   4.117 -1.4101 -0.3139 -0.9716
 5975SOL    HW218215   5.706   0.046   4.223 -0.2265 -0.1065  0.3383
 5976SOL     OW18216   3.235   4.952   2.526 -0.2000 -0.2950 -0.1347
 5976SOL    HW118217   3.242   4.972   2.428 -2.3495 -0.7070 -0.4214
 5976SOL    HW218218   3.235   5.037   2.578  1.1588 -0.0789 -0.4374
 5977SOL     OW18219   5.718   5.174   3.000  0.2099 -0.1691 -0.3196
 5977SOL    HW118220   5.742   5.079   3.023  0.1900 -0.7589 -2.5042
 5977SOL    HW218221   5.684   5.178   2.906  0.9007  2.1412 -0.5334
 5978SOL     OW18222   4.690   4.804   1.457 -0.3383 -0.2507 -0.0921
 5978SOL    HW118223   4.669   4.901   1.446  1.5658 -0.0220 -2.4953
 5978SOL    HW218224   4.605   4.753   1.472 -1.4737  1.6241  0.1871
 5979SOL     OW18225   2.919   0.901   2.556  0.2657  0.1850 -0.0241
 5979SOL    HW118226   2.893   0.901   2.460  1.6931 -0.7241 -0.4412
 5979SOL    HW218227   3.001   0.845   2.569  1.0779  1.6158  1.4614
 5980SOL     OW18228   3.812   3.292   3.310  0.2075  0.4698  0.5842
 5980SOL    HW118229   3.785   3.377   3.355 -3.2236 -0.3358  0.3484
 5980SOL    HW218230   3.787   3.296   3.213 -2.1247 -1.4589  0.9806
 5981SOL     OW18231   4.300   0.864   5.238  0.4060 -0.3017 -0.2483
 5981SOL    HW118232   4.309   0.871   5.139  0.9509 -1.1295 -0.2712
 5981SOL    HW218233   4.293   0.955   5.278 -1.0933  0.0048 -1.1471
 5982SOL     OW18234   5.591   3.553   3.868 -0.5624  0.1557 -0.0362
 5982SOL    HW118235   5.564   3.473   3.923 -1.3581 -0.0996 -0.7769
 5982SOL    HW218236   5.565   3.537   3.772  0.8954  0.5499 -0.5101
 5983SOL     OW18237   0.837   4.794   1.635 -0.7067 -0.1591 -0.8318
 5983SOL    HW118238   0.746   4.833   1.651 -0.8084 -0.4711 -0.6444
 5983SOL    HW218239   0.875   4.761   1.722 -0.8561 -0.9798 -1.0695
 5984SOL     OW18240   3.862   3.846   1.470  0.0075  0.3512 -0.1403
 5984SOL    HW118241   3.789   3.884   1.414 -0.4275  0.3881  0.4361
 5984SOL    HW218242   3.949   3.888   1.445 -0.1221  0.1074 -1.0205
 5985SOL     OW18243   5.925   2.095   3.328 -0.0754 -0.0350  0.1721
 5985SOL    HW118244   5.891   2.008   3.365 -1.4087  0.4128  0.0521
 5985SOL    HW218245   5.977   2.143   3.398 -0.9912 -0.0465  0.8863
 5986SOL     OW18246   3.103   5.339   0.933  0.3218 -0.4064 -0.5086
 5986SOL    HW118247   3.114   5.344   0.833  0.3713  1.0570 -0.4513
 5986SOL    HW218248   3.006   5.336   0.955 -0.1030  4.5821 -0.5334
 5987SOL     OW18249   5.061   4.988   3.730  0.2535 -0.3817 -0.1899
 5987SOL    HW118250   5.122   5.068   3.731 -0.5912  0.2863  0.8821
 5987SOL    HW218251   5.026   4.974   3.638  0.1671  0.7082 -0.3406
 5988SOL     OW18252   4.110   4.252   1.170  0.0153 -0.0560 -0.3555
 5988SOL    HW118253   4.077   4.297   1.254  0.1745 -1.4867  0.5116
 5988SOL    HW218254   4.203   4.219   1.185  0.1758 -0.0151 -1.2347
 5989SOL     OW18255   1.140   0.040   3.232  0.2049 -0.2968  0.3462
 5989SOL    HW118256   1.171   0.038   3.137  0.2852  0.1350  0.3639
 5989SOL    HW218257   1.219   0.026   3.292  0.1172 -0.8163  0.3437
 5990SOL     OW18258   3.525   0.236   3.902  0.9273  0.2520  0.2945
 5990SOL    HW118259   3.577   0.231   3.988 -0.1170  1.7483  1.0580
 5990SOL    HW218260   3.464   0.315   3.905 -1.0534 -1.1728 -0.7683
 5991SOL     OW18261   0.236   5.526   5.377 -0.3777  0.1376 -0.5232
 5991SOL    HW118262   0.287   5.557   5.297 -1.1786 -1.3767 -1.6734
 5991SOL    HW218263   0.211   5.430   5.366 -0.1440 -0.2521  1.7569
 5992SOL     OW18264   3.936   3.143   3.502  0.0833 -0.6498 -0.0658
 5992SOL    HW118265   3.881   3.161   3.420  1.0827 -1.3243 -0.9075
 5992SOL    HW218266   4.009   3.079   3.480  1.3832  0.4148  0.9636
 5993SOL     OW18267   4.907   4.465   2.092 -0.3321  0.0363 -0.3046
 5993SOL    HW118268   4.917   4.560   2.123  0.7230 -0.0589 -0.2992
 5993SOL    HW218269   4.972   4.407   2.141 -0.9894 -0.7044 -0.2885
 5994SOL     OW18270   4.415   5.188   3.665 -0.4886  0.0599 -0.0367
 5994SOL    HW118271   4.472   5.237   3.731 -0.3648  0.8120 -0.6818
 5994SOL    HW218272   4.319   5.192   3.694 -0.3348 -0.3806  0.5512
 5995SOL     OW18273   2.650   3.664   1.516 -0.2477 -0.4794  0.1091
 5995SOL    HW118274   2.745   3.632   1.522 -0.4402 -1.0463  0.1859
 5995SOL    HW218275   2.589   3.585   1.505 -0.7541 -0.1591  0.5932
 5996SOL     OW18276   4.985   3.038   3.665  0.5087  0.0164  0.6084
 5996SOL    HW118277   5.076   3.078   3.673  0.1198  0.8855  0.7618
 5996SOL    HW218278   4.991   2.951   3.614  1.7547 -1.1690  2.6583
 5997SOL     OW18279   3.645   5.562   2.350  0.0252  0.5227  0.2098
 5997SOL    HW118280   3.550   5.587   2.331 -0.0840  0.5978  0.8188
 5997SOL    HW218281   3.646   5.477   2.404  0.4068 -1.6234 -2.9281
 5998SOL     OW18282  -0.008   0.043   2.006  0.2915  0.5385 -0.2615
 5998SOL    HW118283  -0.052   0.133   2.008  0.0443  0.4180  1.9374
 5998SOL    HW218284   0.084   0.052   1.967  1.2873  2.3020  2.2034
 5999SOL     OW18285   5.114   5.875   2.468 -0.3245 -0.5520  0.2633
 5999SOL    HW118286   5.048   5.886   2.542 -0.0579 -1.2621  0.6259
 5999SOL    HW218287   5.102   5.947   2.400  1.2745  1.9082  2.3774
 6000SOL     OW18288   0.170   4.462   3.656  0.1675  0.0902 -0.2740
 6000SOL    HW118289   0.199   4.538   3.715 -0.2980  0.6302 -0.7347
 6000SOL    HW218290   0.250   4.417   3.619  0.4597  1.4557 -1.3954
 6001SOL     OW18291   2.988   5.473   2.823  0.2401 -0.7190 -0.1188
 6001SOL    HW118292   3.053   5.535   2.780  1.3640 -1.0349  1.0619
 6001SOL    HW218293   2.896   5.490   2.786  0.5073  1.6308  0.1472
 6002SOL     OW18294   4.542   4.217   2.637 -0.0826  0.2345 -0.2094
 6002SOL    HW118295   4.539   4.294   2.573 -1.3451  1.1061  0.8556
 6002SOL    HW218296   4.519   4.249   2.729 -2.0336 -1.6514  0.0215
 6003SOL     OW18297   2.481   5.644   2.757 -0.1626  0.1035 -0.5360
 6003SOL    HW118298   2.538   5.565   2.781 -1.0058 -0.2094  0.5254
 6003SOL    HW218299   2.450   5.635   2.663 -0.2104 -0.8157 -0.4429
 6004SOL     OW18300   3.662   0.345   4.764  0.0486  0.2797 -0.3913
 6004SOL    HW118301   3.673   0.429   4.711  0.8947  0.4396  0.0180
 6004SOL    HW218302   3.719   0.350   4.847 -0.2195 -0.5190 -0.1493
 6005SOL     OW18303   0.384   5.164   3.622  0.0258 -0.1150 -0.3313
 6005SOL    HW118304   0.462   5.106   3.643  0.1081 -0.1506 -0.7329
 6005SOL    HW218305   0.323   5.118   3.558  0.2506  0.3622 -0.8939
 6006SOL     OW18306   0.415   5.283   3.857  0.2785 -0.2809 -0.0603
 6006SOL    HW118307   0.469   5.365   3.837  0.0164 -0.1227 -0.1185
 6006SOL    HW218308   0.406   5.227   3.775 -1.2454  0.6292 -0.5442
 6007SOL     OW18309   4.830   3.906   3.444  0.1003 -0.1733 -0.4131
 6007SOL    HW118310   4.759   3.880   3.509  0.0116  2.1736  0.5338
 6007SOL    HW218311   4.920   3.899   3.487  0.0149  1.7758  0.2051
 6008SOL     OW18312   3.381   5.483   2.334 -0.2726 -0.3644  0.9242
 6008SOL    HW118313   3.334   5.395   2.330 -1.5460  0.3444 -0.1319
 6008SOL    HW218314   3.324   5.554   2.294  0.7510  0.9583  1.7243
 6009SOL     OW18315   4.131   1.286   4.374 -0.2694  0.2846 -0.3423
 6009SOL    HW118316   4.089   1.321   4.291 -1.3527 -2.1283 -0.8941
 6009SOL    HW218317   4.083   1.322   4.454  0.0930  1.7635 -0.7565
 6010SOL     OW18318   5.261   2.689   2.868 -0.3578  0.1769  0.3892
 6010SOL    HW118319   5.265   2.788   2.859  0.8587  0.0301 -0.9165
 6010SOL    HW218320   5.176   2.655   2.828 -1.0779  0.7189  1.4033
 6011SOL     OW18321   4.056   3.565   3.896  0.1339  0.2761 -0.1150
 6011SOL    HW118322   4.024   3.476   3.928  0.6821 -0.1595 -0.7638
 6011SOL    HW218323   4.110   3.609   3.967  1.4876 -0.7574 -0.4734
 6012SOL     OW18324   3.507   5.619   3.367  0.4298 -0.1215  0.1453
 6012SOL    HW118325   3.471   5.540   3.317 -0.0226  0.1838 -0.0149
 6012SOL    HW218326   3.436   5.657   3.426  0.8566 -0.2549  0.7472
 6013SOL     OW18327   3.551   3.796   3.001  0.4245 -0.2167 -0.4426
 6013SOL    HW118328   3.580   3.716   2.948  3.7520  0.4802  0.0773
 6013SOL    HW218329   3.548   3.772   3.098 -1.1450 -0.3036 -0.4802
 6014SOL     OW18330   5.738   3.521   3.462  0.0446  0.1469 -0.5974
 6014SOL    HW118331   5.668   3.482   3.522 -0.4114 -0.2684 -1.3788
 6014SOL    HW218332   5.700   3.602   3.416  1.1153  1.8674  1.3430
 6015SOL     OW18333   4.248   5.485   2.778  0.6162  0.5658 -0.0447
 6015SOL    HW118334   4.329   5.473   2.720  0.2856  0.8056 -0.5665
 6015SOL    HW218335   4.171   5.514   2.721  1.1098  4.2819  0.9734
 6016SOL     OW18336   3.688   4.284   3.508 -0.1580 -0.2052  0.5516
 6016SOL    HW118337   3.703   4.294   3.409 -0.4421 -1.1223  0.4086
 6016SOL    HW218338   3.774   4.261   3.552 -0.1259 -0.2876  0.4478
 6017SOL     OW18339   3.105   4.880   4.299 -0.0881  0.3961  0.1793
 6017SOL    HW118340   3.201   4.851   4.296  0.0119  0.6875  0.4358
 6017SOL    HW218341   3.060   4.855   4.213  0.6593  1.7354 -0.6449
 6018SOL     OW18342   5.603   5.130   2.743 -0.4406  0.0252  0.1067
 6018SOL    HW118343   5.639   5.084   2.662  0.5496 -0.1568  0.6360
 6018SOL    HW218344   5.522   5.183   2.718 -1.1949 -1.4041 -0.6784
 6019SOL     OW18345   4.232   4.824   5.423 -0.1808 -0.0007  0.1759
 6019SOL    HW118346   4.331   4.827   5.437 -0.1535  1.0132 -0.0975
 6019SOL    HW218347   4.197   4.918   5.411 -1.4195 -0.1893  1.9202
 6020SOL     OW18348   4.550   5.599   0.914  0.0001 -0.1900 -0.1367
 6020SOL    HW118349   4.596   5.665   0.855 -1.0809  0.2994 -0.4531
 6020SOL    HW218350   4.555   5.629   1.009  0.7294 -0.3900 -0.1003
 6021SOL     OW18351   4.249   5.029   2.424 -0.0788  0.3756 -0.0266
 6021SOL    HW118352   4.149   5.034   2.429 -0.2165 -1.6788  0.3017
 6021SOL    HW218353   4.282   5.081   2.345 -1.6521 -0.9078 -1.6130
 6022SOL     OW18354   4.898   4.176   3.604 -0.6074 -0.2368  0.0654
 6022SOL    HW118355   4.829   4.107   3.628 -0.4645 -0.1818  0.6668
 6022SOL    HW218356   4.985   4.151   3.647  0.0780 -0.9355 -1.6303
 6023SOL     OW18357   4.546   5.146   3.436  0.5636  0.1041 -0.0432
 6023SOL    HW118358   4.600   5.228   3.419  1.8806 -0.4234  1.3822
 6023SOL    HW218359   4.502   5.152   3.526  0.2071 -0.5157 -0.1666
 6024SOL     OW18360   3.885   5.913   3.507  0.3856 -0.0218 -0.1887
 6024SOL    HW118361   3.863   5.946   3.599  0.2539  1.1487 -0.6215
 6024SOL    HW218362   3.810   5.938   3.445  0.6302 -0.5084 -0.6747
 6025SOL     OW18363   0.088   3.541   4.595 -0.1952  0.0240  0.2908
 6025SOL    HW118364   0.181   3.556   4.562 -0.2438  0.5341  0.3680
 6025SOL    HW218365   0.072   3.596   4.677 -0.3832 -0.5018  0.6115
 6026SOL     OW18366   4.868   3.042   3.273  0.0399  0.5372 -0.3114
 6026SOL    HW118367   4.958   2.998   3.276 -0.7498 -1.2994 -1.2014
 6026SOL    HW218368   4.828   3.028   3.182 -2.0392 -0.6755  0.6964
 6027SOL     OW18369   2.244   4.605   2.500  0.4124  0.0418 -0.1492
 6027SOL    HW118370   2.340   4.582   2.514  0.2849 -1.0988 -1.0075
 6027SOL    HW218371   2.223   4.599   2.402 -0.3589  1.0055 -0.0540
 6028SOL     OW18372   4.078   4.702   0.933 -0.4001  0.0447  0.1356
 6028SOL    HW118373   4.117   4.780   0.883 -1.1309  1.0923  1.1759
 6028SOL    HW218374   4.151   4.638   0.955  0.3897  0.9190  0.1343
 6029SOL     OW18375   3.684   5.619   5.903  0.0966 -0.3412  0.5320
 6029SOL    HW118376   3.728   5.616   5.993 -0.3722 -0.3087  0.7632
 6029SOL    HW218377   3.588   5.596   5.912 -0.1325  0.4380  0.1499
 6030SOL     OW18378   3.309   0.139   3.747 -0.1259  0.2454 -0.2396
 6030SOL    HW118379   3.357   0.112   3.663 -0.5543 -0.6790 -0.1892
 6030SOL    HW218380   3.376   0.175   3.813  0.7042 -2.0976  0.2802
 6031SOL     OW18381   3.360   4.274   3.724  0.0431  0.2256 -0.5216
 6031SOL    HW118382   3.301   4.260   3.644  1.2610  1.1511 -1.6202
 6031SOL    HW218383   3.304   4.270   3.807 -1.1839 -1.2028 -1.3631
 6032SOL     OW18384   4.464   4.863   4.050 -0.1722 -0.0506 -0.9796
 6032SOL    HW118385   4.489   4.834   3.957 -0.5001  1.2996 -1.5197
 6032SOL    HW218386   4.365   4.880   4.054 -0.0801  0.4090 -0.5427
 6033SOL     OW18387   4.598   5.590   4.511 -0.1552  0.2442 -0.1757
 6033SOL    HW118388   4.596   5.605   4.610 -1.3145  1.3311 -0.3246
 6033SOL    HW218389   4.690   5.608   4.476 -0.2617  2.1488  0.4142
 6034SOL     OW18390   5.296   3.574   1.921  0.1719  0.2685  0.6875
 6034SOL    HW118391   5.357   3.498   1.945 -0.2317 -0.3637 -0.2452
 6034SOL    HW218392   5.295   3.586   1.821 -1.2131  0.2797  0.6849
 6035SOL     OW18393   4.840   4.417   2.537 -0.1224  0.2863  0.0491
 6035SOL    HW118394   4.903   4.469   2.480 -1.7538  2.5731  0.2044
 6035SOL    HW218395   4.747   4.425   2.501 -0.8322 -0.2509  1.6409
 6036SOL     OW18396   4.673   3.662   5.717 -0.0475 -0.0268  0.4703
 6036SOL    HW118397   4.641   3.755   5.734 -0.0233 -0.2476  1.8192
 6036SOL    HW218398   4.638   3.630   5.629 -1.8304  0.4966  0.9522
 6037SOL     OW18399   3.668   5.610   3.621  0.3518 -0.0262 -0.1962
 6037SOL    HW118400   3.625   5.674   3.685 -0.3590  0.0514 -0.7389
 6037SOL    HW218401   3.617   5.610   3.535  1.4960  0.1260 -0.8888
 6038SOL     OW18402   5.413   5.863   3.808  0.0405  0.1449  0.1952
 6038SOL    HW118403   5.402   5.961   3.827  0.1400  0.2074 -0.0664
 6038SOL    HW218404   5.381   5.844   3.715  0.3210 -0.0142  0.1313
 6039SOL     OW18405   4.493   5.466   3.036 -0.0580  0.0511  0.1593
 6039SOL    HW118406   4.487   5.372   3.002  0.9904 -0.2333  0.7385
 6039SOL    HW218407   4.467   5.468   3.133 -0.2902  0.4063  0.0940
 6040SOL     OW18408   1.819   0.666   2.585 -0.3962 -0.4532 -0.3060
 6040SOL    HW118409   1.768   0.582   2.568 -1.4460 -0.0715  0.8159
 6040SOL    HW218410   1.856   0.701   2.498 -1.7010 -0.9586 -1.0929
 6041SOL     OW18411   4.258   4.614   2.710  0.2121  0.4067 -0.4342
 6041SOL    HW118412   4.255   4.712   2.726 -0.6211  0.2532  0.4942
 6041SOL    HW218413   4.351   4.580   2.724  0.4203  0.9959 -0.3572
 6042SOL     OW18414   5.621   0.196   2.766  0.0888 -0.3153 -0.4440
 6042SOL    HW118415   5.602   0.202   2.668 -0.5120  0.8183 -0.2766
 6042SOL    HW218416   5.536   0.182   2.816  0.3011 -0.1667 -0.0338
 6043SOL     OW18417   0.309   5.840   2.517  0.0265 -0.6407  0.6573
 6043SOL    HW118418   0.316   5.820   2.615 -0.4415 -2.0937  0.4125
 6043SOL    HW218419   0.367   5.919   2.496  2.7140 -2.2212  1.5563
 6044SOL     OW18420   3.193   0.172   2.036  0.2944 -0.5148 -0.4040
 6044SOL    HW118421   3.125   0.105   2.066 -0.8030  0.3209 -0.9688
 6044SOL    HW218422   3.221   0.152   1.942  1.4466 -1.3256  0.0926
 6045SOL     OW18423   1.842   5.870   3.167  0.4667  0.2334 -0.2761
 6045SOL    HW118424   1.750   5.900   3.191  0.1473 -1.2860  0.4896
 6045SOL    HW218425   1.837   5.785   3.115  1.3841  1.0388 -1.7712
 6046SOL     OW18426   3.841   5.578   2.169  0.2517 -0.8620  0.0244
 6046SOL    HW118427   3.828   5.517   2.091  0.1690 -0.0192 -0.6353
 6046SOL    HW218428   3.760   5.574   2.228 -0.1260 -0.7330 -0.4807
 6047SOL     OW18429   5.700   3.784   3.369 -0.2343 -0.5040  0.0809
 6047SOL    HW118430   5.732   3.860   3.426 -0.3077  0.9192 -1.6987
 6047SOL    HW218431   5.759   3.775   3.289 -2.1847 -0.1140 -1.4751
 6048SOL     OW18432   4.830   0.766   2.306  0.3570 -0.0163  0.4500
 6048SOL    HW118433   4.776   0.683   2.320  0.2553  0.1145  0.8238
 6048SOL    HW218434   4.878   0.759   2.218  0.7469 -0.6886  0.7077
 6049SOL     OW18435   3.044   4.597   3.766  0.1291  0.2824  0.0511
 6049SOL    HW118436   2.995   4.557   3.845 -1.7190  1.5378 -0.3980
 6049SOL    HW218437   3.136   4.622   3.794 -0.3073  0.2144  1.6887
 6050SOL     OW18438   5.528   5.556   3.672 -0.6201 -0.7124  0.5616
 6050SOL    HW118439   5.594   5.495   3.717 -0.1754  0.6601  1.8574
 6050SOL    HW218440   5.576   5.611   3.603 -0.6075 -0.4906  0.7429
 6051SOL     OW18441   4.604   4.766   2.118  0.2186  0.3197  0.1000
 6051SOL    HW118442   4.548   4.707   2.061 -1.2082  1.3644  0.3802
 6051SOL    HW218443   4.546   4.821   2.178  1.4495  2.3733 -0.4804
 6052SOL     OW18444   0.371   5.631   1.981 -0.0366 -0.4849 -0.2431
 6052SOL    HW118445   0.305   5.637   2.056 -1.3047  2.6443 -1.4437
 6052SOL    HW218446   0.326   5.596   1.899  1.1929 -3.2889  0.1567
 6053SOL     OW18447   5.391   1.294   4.340  0.3513  0.0395 -0.3991
 6053SOL    HW118448   5.312   1.339   4.298  0.4730  0.3875 -0.2577
 6053SOL    HW218449   5.475   1.324   4.295  0.7166  2.2623  1.5822
 6054SOL     OW18450   3.231   4.294   1.155  0.3274 -0.4364 -0.1264
 6054SOL    HW118451   3.241   4.278   1.057 -0.4562  0.3892 -0.3491
 6054SOL    HW218452   3.176   4.221   1.195  2.3530 -1.9271  0.1043
 6055SOL     OW18453   3.788   4.931   3.025  0.3163 -0.3202 -0.0022
 6055SOL    HW118454   3.821   4.993   3.096  0.8090 -0.1438 -0.3777
 6055SOL    HW218455   3.705   4.885   3.057  1.3042 -1.3101  1.2557
 6056SOL     OW18456   4.020   5.475   2.641  0.1301  0.2670  0.1242
 6056SOL    HW118457   4.040   5.378   2.648  0.5660  0.3057 -0.4933
 6056SOL    HW218458   4.020   5.502   2.544  0.8556  1.0548  0.3317
 6057SOL     OW18459   3.195   5.681   2.743  0.7183 -0.6355  0.1892
 6057SOL    HW118460   3.293   5.679   2.723  1.2246  0.1590  2.3210
 6057SOL    HW218461   3.164   5.777   2.748 -0.0920 -0.8714 -0.0600
 6058SOL     OW18462   0.634   4.084   2.195 -0.0858  0.1247 -0.0362
 6058SOL    HW118463   0.679   4.166   2.230  0.7107  0.3747 -1.5830
 6058SOL    HW218464   0.637   4.083   2.095  0.4620 -2.0736 -0.0689
 6059SOL     OW18465   5.752   5.598   1.059  0.1264 -0.2716  0.0094
 6059SOL    HW118466   5.792   5.689   1.053  0.4003 -0.4253 -0.5809
 6059SOL    HW218467   5.731   5.577   1.155  1.0179  0.0028  0.2793
 6060SOL     OW18468   4.285   0.097   3.625 -0.4033 -0.7052  0.1418
 6060SOL    HW118469   4.246   0.104   3.716 -0.5219  0.6825  0.0181
 6060SOL    HW218470   4.366   0.157   3.619  0.7535 -2.2264 -0.1052
 6061SOL     OW18471   0.083   5.639   4.436  0.0087 -0.0352  0.3363
 6061SOL    HW118472   0.114   5.630   4.531  0.8278  2.1754  0.3351
 6061SOL    HW218473  -0.008   5.682   4.434  0.0720  0.0908  0.1197
 6062SOL     OW18474   2.983   0.769   3.412  0.2700  0.3211  0.2107
 6062SOL    HW118475   3.057   0.722   3.364  0.5306 -0.1931  1.1028
 6062SOL    HW218476   3.009   0.783   3.508 -1.0173 -0.4099  0.6916
 6063SOL     OW18477   3.953   3.299   3.899 -0.0563 -0.4832  0.3523
 6063SOL    HW118478   3.893   3.315   3.820 -0.1170 -0.5072  0.3936
 6063SOL    HW218479   4.012   3.221   3.881  0.9270  0.3803 -0.2543
 6064SOL     OW18480   4.284   4.550   2.429  0.6303 -0.2771  0.2591
 6064SOL    HW118481   4.298   4.574   2.524 -3.1417  0.2000  0.8436
 6064SOL    HW218482   4.306   4.628   2.371  2.1046 -0.2875  0.7619
 6065SOL     OW18483   5.771   5.691   4.469  0.0304 -0.2450  0.0311
 6065SOL    HW118484   5.771   5.648   4.559 -1.6492  0.4283  0.4079
 6065SOL    HW218485   5.784   5.790   4.479 -3.4037  0.3608 -0.0371
 6066SOL     OW18486   3.722   4.925   2.750 -0.5300 -0.4951  0.3217
 6066SOL    HW118487   3.629   4.927   2.713  0.0784 -0.5943 -1.2800
 6066SOL    HW218488   3.720   4.953   2.846 -1.8907  2.2627 -0.4012
 6067SOL     OW18489   3.911   5.652   3.522 -0.1836  0.4630 -0.0187
 6067SOL    HW118490   3.824   5.624   3.563 -0.2610  0.6902 -0.0263
 6067SOL    HW218491   3.908   5.750   3.502  0.3875  0.6473  0.7673
 6068SOL     OW18492   3.608   3.489   3.020  0.8587 -0.1644 -0.3766
 6068SOL    HW118493   3.640   3.542   3.099  2.0954  0.1883 -1.0816
 6068SOL    HW218494   3.686   3.458   2.967  0.0434 -0.0107 -1.7160
 6069SOL     OW18495   2.960   4.810   0.513 -1.1281 -0.2651 -0.0175
 6069SOL    HW118496   2.940   4.841   0.606  0.4902  4.7900 -1.0800
 6069SOL    HW218497   2.883   4.832   0.453 -1.3510 -1.7088 -0.3082
 6070SOL     OW18498   5.958   5.916   3.159  0.4907  0.1692  0.0076
 6070SOL    HW118499   5.915   6.006   3.168 -0.4177 -0.2068 -0.4227
 6070SOL    HW218500   5.946   5.883   3.066 -0.3904 -0.9827  0.5068
 6071SOL     OW18501   4.712   4.164   2.963  0.2071 -0.0905 -0.0572
 6071SOL    HW118502   4.730   4.104   3.041  2.2947 -0.2046 -0.5779
 6071SOL    HW218503   4.742   4.121   2.879  2.4781  1.8889 -0.3696
 6072SOL     OW18504   2.650   5.490   4.249  0.0361 -0.1153 -0.3843
 6072SOL    HW118505   2.589   5.569   4.253 -0.2500 -0.2399 -1.6475
 6072SOL    HW218506   2.614   5.425   4.182  1.0596 -0.6289 -0.4402
 6073SOL     OW18507   4.575   0.872   2.324 -0.3207  0.0350 -0.4748
 6073SOL    HW118508   4.515   0.824   2.260  0.0684 -0.9878 -0.0947
 6073SOL    HW218509   4.666   0.831   2.320 -0.2095  0.1695  0.5113
 6074SOL     OW18510   0.396   5.098   2.676 -0.4373  0.1542 -0.9574
 6074SOL    HW118511   0.356   5.124   2.764 -0.1825  0.9327 -1.0627
 6074SOL    HW218512   0.323   5.087   2.609 -0.5284  1.0816 -1.0261
 6075SOL     OW18513   4.291   4.567   4.023  0.2366 -0.4519  0.4336
 6075SOL    HW118514   4.262   4.592   3.931  0.2873 -1.6749  0.0649
 6075SOL    HW218515   4.370   4.622   4.049 -0.3593  0.5694  0.1309
 6076SOL     OW18516   4.669   0.618   3.356  0.1659 -0.3284 -0.1478
 6076SOL    HW118517   4.641   0.645   3.264  0.3037 -1.9739 -0.7017
 6076SOL    HW218518   4.620   0.536   3.383  0.2325  0.0585  1.2073
 6077SOL     OW18519   4.581   4.718   2.545 -0.2299  0.1140 -0.0373
 6077SOL    HW118520   4.580   4.668   2.631 -1.2454 -0.2738 -0.2603
 6077SOL    HW218521   4.519   4.796   2.551 -0.5599 -0.1061 -0.5240
 6078SOL     OW18522   0.081   4.709   0.826 -0.5526 -0.2169 -0.0294
 6078SOL    HW118523   0.143   4.712   0.748 -0.4020 -1.4222  0.0156
 6078SOL    HW218524   0.036   4.620   0.829  1.7074 -1.4546  2.9343
 6079SOL     OW18525   3.400   5.919   2.858 -0.2490  0.0067 -0.5198
 6079SOL    HW118526   3.487   5.932   2.905 -1.2787 -0.2367  1.5513
 6079SOL    HW218527   3.417   5.895   2.762  1.9250  0.6245 -0.3332
 6080SOL     OW18528   0.020   5.503   3.729  0.5493 -0.0023 -0.3137
 6080SOL    HW118529   0.040   5.478   3.634  0.1877 -2.1277  0.1198
 6080SOL    HW218530   0.105   5.506   3.781  0.8532  2.0472 -0.8518
 6081SOL     OW18531   3.668   0.143   3.710 -0.1265  0.5359 -0.1478
 6081SOL    HW118532   3.760   0.179   3.723 -0.4290  0.9891  0.8500
 6081SOL    HW218533   3.608   0.180   3.781 -0.3881 -2.1759  1.1351
 6082SOL     OW18534   4.230   4.083   3.171 -0.4538  0.3678 -0.1567
 6082SOL    HW118535   4.229   4.047   3.078 -1.3116  0.4735 -0.2010
 6082SOL    HW218536   4.138   4.114   3.195 -0.2758  0.2012  0.7798
 6083SOL     OW18537   4.009   0.874   2.313 -0.4252  0.6825 -0.3661
 6083SOL    HW118538   3.912   0.893   2.295 -0.4319  1.3821  0.3557
 6083SOL    HW218539   4.015   0.797   2.377 -0.4341 -0.7959 -2.0747
 6084SOL     OW18540   4.481   5.865   0.394 -0.4328 -0.1406  0.0783
 6084SOL    HW118541   4.399   5.900   0.348 -0.0717 -0.1013 -0.5492
 6084SOL    HW218542   4.525   5.797   0.336 -0.0519 -0.2068  0.4400
 6085SOL     OW18543   3.632   4.922   1.122 -0.1271  0.1213  0.4240
 6085SOL    HW118544   3.533   4.931   1.135 -0.1059  1.9432 -0.3831
 6085SOL    HW218545   3.663   4.835   1.161 -1.8568  0.0008  1.6444
 6086SOL     OW18546   5.952   1.690   4.390  0.1159 -0.1443  0.1554
 6086SOL    HW118547   5.862   1.714   4.352  0.3557 -1.5465 -1.4026
 6086SOL    HW218548   5.939   1.626   4.466 -0.2146 -1.2504 -0.7895
 6087SOL     OW18549   3.208   5.013   2.261 -0.5838 -0.0948  0.2021
 6087SOL    HW118550   3.265   5.048   2.186 -1.2671  1.9987  0.6087
 6087SOL    HW218551   3.133   4.960   2.223 -0.4841  0.2933 -0.5563
 6088SOL     OW18552   1.412   5.782   2.465 -0.3718 -0.2910 -0.0212
 6088SOL    HW118553   1.453   5.870   2.485 -2.4485  0.6572  0.2982
 6088SOL    HW218554   1.341   5.761   2.533  1.1205 -2.9744  0.8756
 6089SOL     OW18555   4.246   4.883   2.794 -0.1766  0.3472 -0.0182
 6089SOL    HW118556   4.196   4.969   2.791 -0.6750  0.0476 -0.4080
 6089SOL    HW218557   4.242   4.845   2.886 -0.2678  0.5572  0.0647
 6090SOL     OW18558   0.470   4.826   3.076 -0.1198 -0.3212 -0.0469
 6090SOL    HW118559   0.439   4.752   3.136  0.5159 -1.0468 -0.5974
 6090SOL    HW218560   0.419   4.909   3.098 -1.1131 -1.0049  0.3298
 6091SOL     OW18561   4.824   1.121   4.107 -0.6395  0.2620 -0.3875
 6091SOL    HW118562   4.857   1.171   4.026 -1.0013  0.4205 -0.4361
 6091SOL    HW218563   4.725   1.111   4.102 -0.6191 -0.0671 -0.1509
 6092SOL     OW18564   5.078   5.623   3.750  0.3737 -0.3380 -0.0510
 6092SOL    HW118565   5.080   5.675   3.664  0.9820 -0.7556 -0.2916
 6092SOL    HW218566   5.172   5.606   3.781  0.1705  0.6583  1.2220
 6093SOL     OW18567   4.533   5.031   3.176 -0.0914 -0.0892  0.4633
 6093SOL    HW118568   4.503   5.076   3.260 -1.4358 -1.0498  0.5264
 6093SOL    HW218569   4.595   4.956   3.198 -0.8850 -0.7047  0.6789
 6094SOL     OW18570   4.717   4.749   3.776 -0.2436  0.1970 -0.2298
 6094SOL    HW118571   4.742   4.659   3.812 -1.1877 -0.3219 -0.8355
 6094SOL    HW218572   4.618   4.754   3.764 -0.2895  1.5844  0.4684
 6095SOL     OW18573   5.411   5.318   2.667 -0.1107  0.0487 -0.0947
 6095SOL    HW118574   5.345   5.306   2.593 -1.1270  1.7739  0.4755
 6095SOL    HW218575   5.363   5.348   2.750  1.2905  0.5582  0.5703
 6096SOL     OW18576   4.704   3.727   2.207 -0.6078  0.9974  0.5377
 6096SOL    HW118577   4.640   3.650   2.217 -2.4408  1.8238 -3.0530
 6096SOL    HW218578   4.789   3.706   2.255 -0.3893 -4.0338 -1.4724
 6097SOL     OW18579   4.106   5.022   3.132 -0.4057  0.2106  0.1089
 6097SOL    HW118580   4.179   5.067   3.183  0.5974 -0.7431 -0.4538
 6097SOL    HW218581   4.025   5.013   3.191  0.9500 -1.5311  1.8671
 6098SOL     OW18582   5.480   3.694   2.490  1.1695 -0.6794  0.1527
 6098SOL    HW118583   5.433   3.620   2.540 -0.7942  1.0399  1.0327
 6098SOL    HW218584   5.543   3.741   2.552 -0.1852  0.5313  0.6742
 6099SOL     OW18585   5.634   5.142   1.402 -0.5539  0.4339 -0.2848
 6099SOL    HW118586   5.563   5.089   1.448  0.5644  0.2286  1.2766
 6099SOL    HW218587   5.606   5.238   1.397 -1.2016  0.2502 -0.2742
 6100SOL     OW18588   0.716   5.582   1.846 -0.5012  0.4500 -0.0073
 6100SOL    HW118589   0.679   5.650   1.909  3.1101 -0.6618  3.7809
 6100SOL    HW218590   0.790   5.623   1.793 -1.8025  0.6789 -1.7486
 6101SOL     OW18591   4.309   4.116   1.926 -0.4236  0.1770  0.4245
 6101SOL    HW118592   4.281   4.028   1.965  0.6138 -0.2109  0.3221
 6101SOL    HW218593   4.392   4.104   1.872 -0.5258  1.1433  0.0275
 6102SOL     OW18594   5.131   5.207   1.873 -0.7266  0.2226 -0.0037
 6102SOL    HW118595   5.052   5.188   1.931  0.6957  0.4656  2.1155
 6102SOL    HW218596   5.125   5.151   1.790 -2.7161 -0.3117  0.4380
 6103SOL     OW18597   5.780   5.226   4.464 -0.1957 -0.0421  0.1946
 6103SOL    HW118598   5.851   5.162   4.495  0.2059 -0.5570 -1.6903
 6103SOL    HW218599   5.696   5.210   4.517  0.6547 -0.3478  1.5213
 6104SOL     OW18600   3.324   5.396   5.061 -0.0409  0.0844 -0.2862
 6104SOL    HW118601   3.331   5.329   4.987 -0.3510 -1.9942  1.4707
 6104SOL    HW218602   3.412   5.403   5.108 -0.1462  0.5657 -0.1570
 6105SOL     OW18603   3.790   3.453   5.651 -0.3325 -0.0618 -0.3676
 6105SOL    HW118604   3.750   3.381   5.708 -0.0138  0.2182  0.2227
 6105SOL    HW218605   3.725   3.528   5.642  0.2266  0.6105  1.0035
 6106SOL     OW18606   5.181   5.781   5.102 -0.1469  0.3355 -0.6528
 6106SOL    HW118607   5.239   5.734   5.035  0.1790 -1.9219  1.1005
 6106SOL    HW218608   5.236   5.845   5.154 -0.0164  0.7888 -1.3348
 6107SOL     OW18609   4.071   0.802   4.929 -0.2507  0.0290  0.4874
 6107SOL    HW118610   4.070   0.708   4.895  1.9972 -0.5251  1.7530
 6107SOL    HW218611   4.166   0.831   4.944 -0.8910  2.5620  0.0262
 6108SOL     OW18612   4.452   4.369   3.323  0.0366 -0.2061 -0.6394
 6108SOL    HW118613   4.550   4.349   3.317  0.1444 -0.3671  1.2176
 6108SOL    HW218614   4.407   4.300   3.379 -0.7318  1.1011  0.4115
 6109SOL     OW18615   0.529   4.719   4.291 -0.5495  0.1299 -0.4297
 6109SOL    HW118616   0.581   4.643   4.252 -0.4245 -0.2638  0.4678
 6109SOL    HW218617   0.582   4.803   4.284 -0.3290 -0.0274 -0.6621
 6110SOL     OW18618   4.559   5.797   5.650 -0.7344  0.0260  0.2761
 6110SOL    HW118619   4.561   5.880   5.705 -0.1490 -0.4893  1.0515
 6110SOL    HW218620   4.465   5.779   5.621 -0.7033  1.5530 -0.8547
 6111SOL     OW18621   5.482   0.095   5.151  0.1042 -0.0831  0.6179
 6111SOL    HW118622   5.545   0.117   5.226  1.1758  0.5807 -0.4421
 6111SOL    HW218623   5.534   0.065   5.071 -1.0413 -1.1245  0.2210
 6112SOL     OW18624   2.251   5.170   5.009  0.1707 -0.4953  0.0437
 6112SOL    HW118625   2.242   5.270   5.013  0.3415 -0.4760 -0.0201
 6112SOL    HW218626   2.162   5.130   4.985  0.2525 -0.3118 -0.6067
 6113SOL     OW18627  -0.023   4.732   5.745 -0.1382 -0.0179  0.4804
 6113SOL    HW118628   0.038   4.653   5.739 -0.2167 -0.2502  2.2148
 6113SOL    HW218629   0.031   4.816   5.740 -0.2204  0.0140 -3.6249
 6114SOL     OW18630   3.302   0.009   3.997 -0.2711  0.2541  0.0784
 6114SOL    HW118631   3.268   0.055   3.915  0.1916 -0.7520 -0.7104
 6114SOL    HW218632   3.256   0.046   4.078 -1.6940  0.3905 -0.7498
 6115SOL     OW18633  -0.004   4.017   4.928 -0.1900  0.2061 -0.2059
 6115SOL    HW118634   0.078   4.039   4.982 -0.2462  0.2434 -0.1349
 6115SOL    HW218635  -0.072   3.974   4.987  0.4621 -1.5020 -0.6438
 6116SOL     OW18636   4.455   5.906   4.914 -0.2503 -0.4008 -0.2013
 6116SOL    HW118637   4.532   5.857   4.954 -0.3056 -0.3258 -0.0018
 6116SOL    HW218638   4.459   6.003   4.941 -0.7908 -0.5344  0.3766
 6117SOL     OW18639   5.697   0.258   5.698  0.0042  0.2892  0.0087
 6117SOL    HW118640   5.771   0.320   5.673  1.0443 -1.4563 -1.5654
 6117SOL    HW218641   5.710   0.226   5.792  0.3666  1.1610  0.2640
 6118SOL     OW18642   3.308   0.769   5.439 -0.0462  0.1161 -0.6353
 6118SOL    HW118643   3.406   0.759   5.455  0.1502  0.9592 -1.2378
 6118SOL    HW218644   3.280   0.707   5.366  0.4007  1.1285 -1.6935
 6119SOL     OW18645   4.936   3.575   0.491  0.0650 -0.1420  0.1717
 6119SOL    HW118646   4.916   3.477   0.494  0.1304 -0.1921 -0.6440
 6119SOL    HW218647   5.030   3.591   0.522 -0.3742 -0.1802  1.5799
 6120SOL     OW18648   2.821   0.185   3.734  0.1551 -0.0509 -0.1609
 6120SOL    HW118649   2.749   0.136   3.685 -0.7994  1.6237 -0.5307
 6120SOL    HW218650   2.910   0.148   3.708 -0.3505  0.2470 -2.6083
 6121SOL     OW18651   5.254   4.789   3.420  0.2509 -0.1659  0.3334
 6121SOL    HW118652   5.236   4.852   3.345 -1.4462  0.4796  1.2241
 6121SOL    HW218653   5.169   4.771   3.470  0.7800 -2.7414  0.4718
 6122SOL     OW18654   0.032   2.086   5.132 -0.2789 -0.2083 -0.0076
 6122SOL    HW118655   0.086   2.120   5.054 -0.1083 -0.8104 -0.1642
 6122SOL    HW218656  -0.020   2.005   5.103 -0.3956 -0.2964  0.4440
 6123SOL     OW18657   5.279   5.430   4.831 -0.1960 -0.4315 -0.3493
 6123SOL    HW118658   5.190   5.386   4.843 -0.0349 -0.1881  2.3467
 6123SOL    HW218659   5.311   5.464   4.919  1.9958  0.6413 -1.4936
 6124SOL     OW18660   0.116   0.063   5.351 -0.0414 -1.2797 -0.4610
 6124SOL    HW118661   0.044   0.096   5.412  2.3135 -0.2527  1.9843
 6124SOL    HW218662   0.083  -0.015   5.298 -3.1508 -0.3209 -0.1187
 6125SOL     OW18663   3.581   4.758   5.216 -0.2429 -0.2067  0.0524
 6125SOL    HW118664   3.506   4.730   5.275 -0.6681 -0.3605 -0.5451
 6125SOL    HW218665   3.654   4.689   5.219  0.9668  1.0562  2.4653
 6126SOL     OW18666   4.661   5.477   2.477  0.3977  0.0829  0.2906
 6126SOL    HW118667   4.742   5.443   2.526  1.3859  1.0473 -0.6026
 6126SOL    HW218668   4.644   5.572   2.505  1.1150  0.7351 -1.3101
 6127SOL     OW18669   4.823   5.150   3.000 -0.0658 -0.2288 -0.2995
 6127SOL    HW118670   4.735   5.104   3.007 -0.6968  0.4411 -2.7399
 6127SOL    HW218671   4.866   5.125   2.913  1.7412  0.1901  0.4320
 6128SOL     OW18672   5.817   4.156   4.140 -0.3883  0.6331 -0.0529
 6128SOL    HW118673   5.744   4.105   4.185  1.2580 -0.9362  0.9801
 6128SOL    HW218674   5.852   4.102   4.063  2.0631 -0.4254  1.6633
 6129SOL     OW18675   4.927   5.393   4.327  0.2470  0.3856  0.5702
 6129SOL    HW118676   5.018   5.429   4.305 -0.9121  2.0507 -1.9347
 6129SOL    HW218677   4.922   5.296   4.303  0.7017  0.8464 -1.5945
 6130SOL     OW18678   4.519   4.408   3.728  0.1235 -0.0396  0.1494
 6130SOL    HW118679   4.555   4.442   3.816 -1.3524  0.4105  0.6066
 6130SOL    HW218680   4.534   4.310   3.722 -0.1775 -0.1563  1.1188
 6131SOL     OW18681   5.451   4.767   3.598  0.2937  0.7154 -0.1432
 6131SOL    HW118682   5.442   4.846   3.659 -1.4801  0.1751  0.3550
 6131SOL    HW218683   5.371   4.761   3.538  0.1815 -0.9339  0.1146
 6132SOL     OW18684   4.841   5.624   4.422 -0.1073 -0.1449 -0.2225
 6132SOL    HW118685   4.829   5.679   4.339  0.9762  1.0909  0.4077
 6132SOL    HW218686   4.843   5.527   4.398  0.1321  0.1908 -1.6238
 6133SOL     OW18687   4.408   3.498   4.465  0.0350 -0.5125  0.1023
 6133SOL    HW118688   4.437   3.538   4.378  2.4430 -1.1992  0.5255
 6133SOL    HW218689   4.475   3.521   4.536 -1.4618 -0.6603  1.6183
 6134SOL     OW18690   3.833   0.094   5.611 -0.2754  0.0290 -0.1199
 6134SOL    HW118691   3.833   0.156   5.533 -1.1699 -1.7989 -1.6693
 6134SOL    HW218692   3.748   0.107   5.664  0.6121  1.7025  0.9987
 6135SOL     OW18693   5.749   0.812   3.366  0.1804  0.0728  0.2765
 6135SOL    HW118694   5.652   0.835   3.358  0.1503 -0.3313 -0.5503
 6135SOL    HW218695   5.761   0.745   3.439 -0.1974 -0.1038  0.1790
 6136SOL     OW18696   4.459   0.256   5.662 -0.1645 -0.1447  0.1944
 6136SOL    HW118697   4.505   0.343   5.677  0.2403 -0.3089 -0.0754
 6136SOL    HW218698   4.398   0.264   5.583 -2.5221  0.8064  1.9967
 6137SOL     OW18699   4.142   3.905   1.067 -0.1382  0.2154 -0.2157
 6137SOL    HW118700   4.180   3.996   1.053 -2.3134  1.1016 -0.7863
 6137SOL    HW218701   4.090   3.878   0.986 -1.9757 -0.2490  1.0578
 6138SOL     OW18702   5.110   4.435   4.717 -0.1971 -0.0175  0.3532
 6138SOL    HW118703   5.188   4.421   4.655  0.6840 -0.3355  1.5119
 6138SOL    HW218704   5.119   4.523   4.762  2.0244 -1.8380  3.9155
 6139SOL     OW18705   0.474   1.750   4.840  0.0591  0.2499  0.1351
 6139SOL    HW118706   0.542   1.820   4.821 -0.5907  0.4478 -1.6559
 6139SOL    HW218707   0.415   1.738   4.760 -0.6483 -1.4438  0.8599
 6140SOL     OW18708   3.584   5.253   2.972  0.2559 -0.1818 -0.6541
 6140SOL    HW118709   3.522   5.183   2.939 -1.0243  1.1391 -1.1632
 6140SOL    HW218710   3.547   5.344   2.950  0.7387  0.7177  1.9306
 6141SOL     OW18711   0.075   5.803   3.889 -0.6880  0.0634  0.0998
 6141SOL    HW118712   0.126   5.836   3.809 -1.7311  2.2119  0.2758
 6141SOL    HW218713   0.102   5.708   3.908 -2.0527 -1.4182 -4.1965
 6142SOL     OW18714   4.188   3.932   3.879 -0.6168 -0.0914 -0.1435
 6142SOL    HW118715   4.120   3.945   3.951 -1.0932 -0.5430 -0.5027
 6142SOL    HW218716   4.148   3.956   3.791 -0.3685 -0.5265 -0.3795
 6143SOL     OW18717   4.096   4.256   5.703 -0.1175 -0.2037 -0.1858
 6143SOL    HW118718   4.075   4.220   5.612  0.5237  0.0664 -0.4530
 6143SOL    HW218719   4.155   4.336   5.694 -0.6631  0.2764  0.4439
 6144SOL     OW18720   0.892   3.323   4.759 -0.8598  0.5622  0.1982
 6144SOL    HW118721   0.798   3.302   4.731 -0.6113  0.2767 -0.4372
 6144SOL    HW218722   0.931   3.389   4.695 -1.0408  1.6424  1.1749
 6145SOL     OW18723   4.286   5.071   0.120 -0.0354 -0.2820  0.5155
 6145SOL    HW118724   4.268   4.973   0.127  0.9842 -0.4928  0.3201
 6145SOL    HW218725   4.218   5.113   0.059  0.3182 -1.1089 -0.4906
 6146SOL     OW18726   4.182   3.724   5.434 -0.3918  0.2302  0.3244
 6146SOL    HW118727   4.088   3.709   5.406 -0.7410  1.2576  0.9000
 6146SOL    HW218728   4.193   3.696   5.530 -0.2607  0.6471  0.4329
 6147SOL     OW18729   3.143   5.067   4.526 -0.1605  0.2358 -0.3981
 6147SOL    HW118730   3.086   5.147   4.509 -1.4634 -0.5455  0.1736
 6147SOL    HW218731   3.129   4.999   4.454 -0.9073 -0.4579  0.3710
 6148SOL     OW18732   0.699   4.133   5.191 -0.2423 -0.2113  0.7098
 6148SOL    HW118733   0.659   4.205   5.135 -1.6920  0.4349  2.4938
 6148SOL    HW218734   0.711   4.050   5.135  0.1428  0.9465 -0.9958
 6149SOL     OW18735   4.313   5.925   4.676 -0.5301 -0.1980 -0.4950
 6149SOL    HW118736   4.332   5.844   4.620  1.4468  0.0981 -0.3315
 6149SOL    HW218737   4.363   5.918   4.762 -1.3061  0.6537  0.0390
 6150SOL     OW18738   4.264   4.736   5.168 -0.0485 -0.6752 -0.3670
 6150SOL    HW118739   4.249   4.782   5.255 -0.2480 -1.6163  0.1058
 6150SOL    HW218740   4.346   4.678   5.174  0.3046 -0.2621 -1.0092
 6151SOL     OW18741   4.853   5.606   5.816 -0.3504 -0.4371 -0.2322
 6151SOL    HW118742   4.901   5.586   5.901  1.2762  1.5128 -0.6206
 6151SOL    HW218743   4.755   5.613   5.834  0.1529  2.6564  2.1464
 6152SOL     OW18744   4.476   4.574   3.499 -0.4929  0.5523 -0.3343
 6152SOL    HW118745   4.479   4.530   3.589  0.5452  0.2505 -0.4958
 6152SOL    HW218746   4.452   4.507   3.430  1.3592  0.1177 -0.6175
 6153SOL     OW18747   3.388   2.825   5.128  0.4450  0.2599  0.3853
 6153SOL    HW118748   3.486   2.812   5.145  0.8181  0.5472 -1.2994
 6153SOL    HW218749   3.357   2.760   5.059 -0.0798  1.4445 -0.5379
 6154SOL     OW18750   4.270   0.561   2.548  0.4754  0.5627 -0.2632
 6154SOL    HW118751   4.179   0.582   2.512 -0.5402 -0.9330  1.2694
 6154SOL    HW218752   4.295   0.630   2.617 -1.2679 -1.0290  2.1302
 6155SOL     OW18753   4.119   0.405   5.333  0.5848 -0.3726 -0.1158
 6155SOL    HW118754   4.031   0.376   5.371  0.2678  0.1244 -0.4618
 6155SOL    HW218755   4.117   0.503   5.315  1.5156 -0.1934  0.6895
 6156SOL     OW18756   3.317   1.132   3.772 -0.0487  0.2945  0.1771
 6156SOL    HW118757   3.220   1.141   3.749 -0.1086  3.3648  1.1384
 6156SOL    HW218758   3.329   1.058   3.838 -1.8573  0.2655  0.5317
 6157SOL     OW18759   5.049   4.542   0.060  0.0481 -0.2208  0.4094
 6157SOL    HW118760   5.096   4.590   0.134  3.0856 -1.2567 -0.7122
 6157SOL    HW218761   5.021   4.607  -0.010  0.5922  0.3249  0.6956
 6158SOL     OW18762   3.241   5.476   3.318 -0.0287 -0.4372 -0.6167
 6158SOL    HW118763   3.258   5.484   3.220 -0.0177  1.9922 -0.4721
 6158SOL    HW218764   3.152   5.516   3.340  1.1202  1.5423  0.6617
 6159SOL     OW18765   0.120   4.492   5.709  0.0087 -0.3224 -0.6080
 6159SOL    HW118766   0.030   4.449   5.708  0.4627 -1.3333  0.2978
 6159SOL    HW218767   0.188   4.428   5.744  1.0185  0.5683 -0.8632
 6160SOL     OW18768   2.254   5.584   4.567 -0.0342 -0.2735 -0.1871
 6160SOL    HW118769   2.297   5.670   4.539 -0.1756 -0.1838 -0.1274
 6160SOL    HW218770   2.292   5.510   4.512 -1.0937  0.0505 -1.4081
 6161SOL     OW18771   5.866   4.173   3.036 -0.2958 -0.2745 -0.0203
 6161SOL    HW118772   5.823   4.246   3.090 -1.9308 -0.5060 -0.9288
 6161SOL    HW218773   5.876   4.091   3.092  0.4615  0.2614  0.6614
 6162SOL     OW18774   4.766   4.129   4.757 -0.5457 -0.5626  0.0213
 6162SOL    HW118775   4.765   4.125   4.657  3.5981  0.3685 -0.2449
 6162SOL    HW218776   4.792   4.040   4.793 -0.8164 -0.5738  0.1880
 6163SOL     OW18777   3.978   0.128   3.059  0.0455  0.1208 -0.0847
 6163SOL    HW118778   4.028   0.122   2.973 -0.1598 -1.5086 -0.1181
 6163SOL    HW218779   4.031   0.181   3.125  0.9402 -0.0014 -0.6916
 6164SOL     OW18780   3.484   1.281   3.968 -0.4093 -0.0271 -0.0012
 6164SOL    HW118781   3.400   1.325   4.001 -1.0953 -1.0189 -0.3919
 6164SOL    HW218782   3.470   1.248   3.875 -0.6537 -2.9156  0.9629
 6165SOL     OW18783   4.862   4.712   2.762  0.0741  0.2468 -0.3843
 6165SOL    HW118784   4.803   4.776   2.812  0.5048  0.3422  0.0040
 6165SOL    HW218785   4.808   4.632   2.734 -0.6317  1.0623 -1.4408
 6166SOL     OW18786   5.127   4.658   0.296 -1.0366  0.1068  0.4292
 6166SOL    HW118787   5.198   4.598   0.330  0.5740  2.0293  0.6331
 6166SOL    HW218788   5.152   4.753   0.313 -1.2234  1.1593 -3.9507
 6167SOL     OW18789   4.293   3.004   1.173  0.2136  0.3975 -0.0990
 6167SOL    HW118790   4.331   2.929   1.118  0.2049 -0.8979  1.5926
 6167SOL    HW218791   4.291   3.088   1.118  0.7684 -0.6905 -1.8546
 6168SOL     OW18792   4.731   5.348   5.500  0.0560  0.0413 -0.3878
 6168SOL    HW118793   4.749   5.360   5.598  0.9788 -0.6178 -0.4613
 6168SOL    HW218794   4.751   5.433   5.452  1.7715 -0.2604 -0.2787
 6169SOL     OW18795   1.178   0.560   3.166 -0.2833 -0.1265  0.5782
 6169SOL    HW118796   1.231   0.476   3.181 -2.1420 -1.2488  1.2394
 6169SOL    HW218797   1.215   0.609   3.087  1.8596 -0.6856  1.1493
 6170SOL     OW18798   3.666   5.137   3.606 -0.0909  0.6792  0.1696
 6170SOL    HW118799   3.725   5.195   3.662 -1.2615  0.6913  1.4436
 6170SOL    HW218800   3.592   5.193   3.567  0.3962  0.5644 -0.9494
 6171SOL     OW18801   3.383   5.244   2.124  0.3399 -0.5912  0.0272
 6171SOL    HW118802   3.474   5.203   2.121  0.3833 -0.5278  0.4794
 6171SOL    HW218803   3.391   5.341   2.101  0.3767 -0.5969  0.0143
 6172SOL     OW18804   4.479   5.502   4.012 -0.0671  0.1539  0.2861
 6172SOL    HW118805   4.560   5.504   4.071  1.5453  0.0834 -1.8166
 6172SOL    HW218806   4.445   5.595   3.998  1.2754  0.4915 -0.9031
 6173SOL     OW18807   4.732   4.985   1.076 -0.6793  0.2465 -0.6523
 6173SOL    HW118808   4.649   4.939   1.108 -1.8103  0.5082 -2.9772
 6173SOL    HW218809   4.725   5.083   1.096 -0.8374  0.2345 -0.6487
 6174SOL     OW18810   3.917   0.947   4.742  0.1928  0.0396 -0.4543
 6174SOL    HW118811   3.932   0.897   4.827 -2.1121  1.8193  1.1259
 6174SOL    HW218812   3.909   0.883   4.666 -0.6046 -1.8353  1.1458
 6175SOL     OW18813   4.845   0.072   5.094 -0.3814 -0.2530  0.2846
 6175SOL    HW118814   4.820   0.162   5.058  0.1069 -0.1623  0.1584
 6175SOL    HW218815   4.899   0.023   5.025  0.4122 -0.1534  0.8244
 6176SOL     OW18816   4.410   4.461   3.075  0.6176 -0.8433  0.2274
 6176SOL    HW118817   4.418   4.412   3.162  2.1648 -0.3953  0.3587
 6176SOL    HW218818   4.481   4.531   3.069  0.0382 -0.3298 -1.0702
 6177SOL     OW18819   5.790   4.501   4.614  0.2387  0.3414  0.3722
 6177SOL    HW118820   5.748   4.442   4.545 -0.0971  0.5502  0.3968
 6177SOL    HW218821   5.887   4.478   4.622  0.1211 -0.1754  0.3491
 6178SOL     OW18822   4.235   0.829   4.399  0.9688  0.3071  0.2571
 6178SOL    HW118823   4.199   0.750   4.450 -1.2351  1.5083  0.6935
 6178SOL    HW218824   4.274   0.895   4.463  2.1418 -0.0887 -0.0396
 6179SOL     OW18825   4.290   4.290   3.958  0.1070 -0.1549  0.2659
 6179SOL    HW118826   4.380   4.253   3.981  0.3349  1.3710  2.1984
 6179SOL    HW218827   4.295   4.390   3.955 -1.4430 -0.0504 -0.0243
 6180SOL     OW18828   4.000   4.444   5.375  0.0353  0.7566  0.5407
 6180SOL    HW118829   4.041   4.446   5.284  0.0445 -0.9591  0.4904
 6180SOL    HW218830   3.991   4.350   5.407 -1.9162  1.1947  1.4531
 6181SOL     OW18831   3.334   5.089   3.604 -0.5373  0.0853  0.5677
 6181SOL    HW118832   3.326   5.067   3.701 -0.7869 -1.8115  0.1539
 6181SOL    HW218833   3.258   5.048   3.554  0.9553 -1.1998 -0.7576
 6182SOL     OW18834   3.864   0.219   4.259 -0.2357 -0.3913 -0.3677
 6182SOL    HW118835   3.873   0.224   4.359 -1.8360 -1.4773 -0.1205
 6182SOL    HW218836   3.912   0.139   4.225  0.2471 -0.0625 -0.4634
 6183SOL     OW18837   3.515   0.308   5.555  0.4039 -0.2987 -0.7378
 6183SOL    HW118838   3.442   0.251   5.519 -0.0976 -0.5657  0.6467
 6183SOL    HW218839   3.592   0.310   5.491  0.6760 -2.9995 -0.5787
 6184SOL     OW18840   3.183   4.375   4.846 -0.2518 -0.0641 -0.3423
 6184SOL    HW118841   3.191   4.409   4.752 -0.6262 -3.1448 -1.6099
 6184SOL    HW218842   3.270   4.336   4.875 -1.3279 -3.7850 -1.5323
 6185SOL     OW18843   5.394   5.311   5.285 -0.2055  0.1114 -0.6294
 6185SOL    HW118844   5.298   5.330   5.305 -0.2381 -0.5548 -0.1365
 6185SOL    HW218845   5.451   5.342   5.361 -0.2384 -1.5188  0.0879
 6186SOL     OW18846   2.991   4.116   4.849 -0.2927 -0.1836  0.1443
 6186SOL    HW118847   3.042   4.056   4.910  0.1267  1.2821  1.2799
 6186SOL    HW218848   3.007   4.212   4.874 -2.2955  0.3812 -0.4945
 6187SOL     OW18849   4.087   5.409   3.877  0.6099  0.2348  0.0019
 6187SOL    HW118850   4.146   5.383   3.954  0.3733 -1.0008 -0.2182
 6187SOL    HW218851   4.063   5.506   3.886  1.6010  0.4377  0.8006
 6188SOL     OW18852   5.164   4.461   3.175 -0.3689  0.1326 -0.1462
 6188SOL    HW118853   5.149   4.523   3.251 -1.8521  1.5184 -1.4942
 6188SOL    HW218854   5.262   4.447   3.162 -0.0546  1.2033  0.9473
 6189SOL     OW18855   4.496   4.881   5.458  0.3406 -0.1817  0.1703
 6189SOL    HW118856   4.530   4.938   5.384  1.0088 -1.0806 -0.2373
 6189SOL    HW218857   4.571   4.826   5.495 -0.5455 -1.8807 -0.4358
 6190SOL     OW18858   4.973   5.387   3.889 -0.1149  0.3925 -0.2070
 6190SOL    HW118859   4.919   5.356   3.811 -2.9005  1.0738  1.3149
 6190SOL    HW218860   5.000   5.482   3.876 -1.5444  0.8571  0.1131
 6191SOL     OW18861   4.316   0.429   2.824  0.2245 -0.1838 -0.4918
 6191SOL    HW118862   4.397   0.372   2.813 -0.0861 -0.6515 -0.3733
 6191SOL    HW218863   4.310   0.494   2.749  0.8218 -0.0071 -0.3930
 6192SOL     OW18864   3.965   5.377   3.464  0.4110  0.0256  0.2062
 6192SOL    HW118865   3.892   5.372   3.396  0.8688  1.3332 -0.3985
 6192SOL    HW218866   3.964   5.467   3.508  1.1688 -0.2166  0.7430
 6193SOL     OW18867   5.045   4.633   5.121 -0.0823 -0.4839  0.7826
 6193SOL    HW118868   5.059   4.667   5.214  3.0520  0.9087 -0.0534
 6193SOL    HW218869   5.108   4.557   5.104  0.5049  0.2764 -0.6169
 6194SOL     OW18870   5.813   5.968   3.948  0.0836 -0.0390 -0.3833
 6194SOL    HW118871   5.732   5.912   3.963  0.2037  0.3761  2.2707
 6194SOL    HW218872   5.893   5.909   3.939 -0.1279 -0.3613 -0.1577
 6195SOL     OW18873   4.276   3.645   3.723 -0.2399 -0.9199 -0.0691
 6195SOL    HW118874   4.197   3.681   3.773  0.8795  0.7465  0.5663
 6195SOL    HW218875   4.275   3.545   3.728 -3.3812 -1.1292 -1.7900
 6196SOL     OW18876   0.488   4.194   3.394  0.1967  0.9495 -0.5717
 6196SOL    HW118877   0.536   4.116   3.435 -0.3437  0.4754 -0.8335
 6196SOL    HW218878   0.542   4.230   3.318 -0.1407  0.0282 -1.2607
 6197SOL     OW18879   4.696   3.672   0.096  0.3218  0.1838 -0.0110
 6197SOL    HW118880   4.671   3.629   0.009 -0.6948  0.5927  0.0692
 6197SOL    HW218881   4.795   3.674   0.105  0.5145  1.7755 -1.9896
 6198SOL     OW18882   4.858   4.387   0.605 -0.2218 -0.8724 -0.6617
 6198SOL    HW118883   4.895   4.344   0.523  1.6708 -0.0209 -0.3071
 6198SOL    HW218884   4.843   4.484   0.588  0.5045 -0.6188  0.0903
 6199SOL     OW18885   0.650   5.068   4.456 -0.1860 -0.3279  0.2456
 6199SOL    HW118886   0.578   5.041   4.520 -1.2151  0.6649 -0.4480
 6199SOL    HW218887   0.739   5.036   4.489 -1.0606 -2.5526  0.5634
 6200SOL     OW18888   4.001   5.920   4.223 -0.1042  0.2518 -0.3368
 6200SOL    HW118889   3.937   5.890   4.152 -0.6696 -1.4464  0.8198
 6200SOL    HW218890   4.032   5.840   4.275 -0.6662  1.5532  2.1208
 6201SOL     OW18891   4.128   2.983   0.607  0.3101  0.1626 -0.3999
 6201SOL    HW118892   4.188   2.906   0.585  1.2571  0.2515  1.6179
 6201SOL    HW218893   4.180   3.069   0.598  0.7746  0.1951  2.0311
 6202SOL     OW18894   3.727   0.637   5.296 -0.1673  0.4553  0.7969
 6202SOL    HW118895   3.771   0.549   5.314 -1.9414 -0.9455 -1.2783
 6202SOL    HW218896   3.676   0.666   5.378 -0.9245 -1.3138  0.9846
 6203SOL     OW18897   4.816   0.360   2.499 -0.0243 -0.4652 -0.4516
 6203SOL    HW118898   4.790   0.303   2.421  2.6447 -0.2228 -1.6185
 6203SOL    HW218899   4.763   0.444   2.498 -1.2075 -1.1951 -1.0017
 6204SOL     OW18900   3.791   0.867   3.856  0.1029  0.3514 -0.1365
 6204SOL    HW118901   3.836   0.798   3.799 -1.0711 -0.5823  0.0404
 6204SOL    HW218902   3.861   0.918   3.907  0.9834 -0.9799  0.0503
 6205SOL     OW18903   5.368   1.671   4.150  0.4621  0.1882 -0.1160
 6205SOL    HW118904   5.339   1.756   4.193 -1.0650 -0.2248 -0.2824
 6205SOL    HW218905   5.464   1.679   4.122  0.6128  1.5047  0.6943
 6206SOL     OW18906   5.363   4.656   2.977  0.2036 -0.5244  0.7744
 6206SOL    HW118907   5.323   4.565   2.969 -0.8717 -0.2457  2.4754
 6206SOL    HW218908   5.410   4.664   3.065  1.1386  0.2664  0.2223
 6207SOL     OW18909   3.570   5.385   5.135  0.3597 -0.0856 -0.1985
 6207SOL    HW118910   3.594   5.481   5.148 -0.3207  0.1377 -0.5450
 6207SOL    HW218911   3.653   5.331   5.121  1.1996 -0.2296  3.9761
 6208SOL     OW18912   4.915   4.339   4.289  0.2058  0.2922  0.1276
 6208SOL    HW118913   4.872   4.258   4.330  0.8943 -0.8593 -1.3661
 6208SOL    HW218914   4.850   4.416   4.293 -1.0917 -0.7628  0.0588
 6209SOL     OW18915   0.470   4.993   4.656 -0.3336 -0.2126 -0.6263
 6209SOL    HW118916   0.406   4.916   4.653 -0.1456 -0.3669 -0.6585
 6209SOL    HW218917   0.423   5.073   4.693 -0.4011 -0.4703 -0.1385
 6210SOL     OW18918   0.348   4.593   4.478  0.2989  0.4354 -0.4077
 6210SOL    HW118919   0.391   4.640   4.401  0.6390 -1.6896 -1.5955
 6210SOL    HW218920   0.334   4.658   4.553  2.5729  1.9315 -1.1672
 6211SOL     OW18921   4.072   4.365   3.462  0.3439  0.6778  0.2984
 6211SOL    HW118922   4.060   4.464   3.466 -1.1515  0.5037  0.6469
 6211SOL    HW218923   4.058   4.325   3.553  3.9824  0.3978  0.8836
 6212SOL     OW18924   5.317   4.402   5.555  0.0280  0.6073 -0.1347
 6212SOL    HW118925   5.288   4.338   5.484 -2.7373  2.5959 -0.9516
 6212SOL    HW218926   5.287   4.368   5.644  0.5112 -0.2497 -0.2851
 6213SOL     OW18927   0.439   4.825   5.912 -0.5130 -0.2287  0.0257
 6213SOL    HW118928   0.374   4.900   5.914 -0.2750 -0.0304  0.5277
 6213SOL    HW218929   0.491   4.823   5.998  1.0069  0.3863 -0.8290
 6214SOL     OW18930   0.150   3.418   5.509 -1.0450  0.0925  0.2619
 6214SOL    HW118931   0.059   3.381   5.524 -0.8069 -0.3848  0.5674
 6214SOL    HW218932   0.178   3.472   5.588 -0.7595 -0.4044  0.5072
 6215SOL     OW18933   5.601   3.729   1.884 -0.2413 -0.1188 -0.3322
 6215SOL    HW118934   5.575   3.650   1.940 -0.7009  0.2779  0.0289
 6215SOL    HW218935   5.535   3.803   1.899  2.1998  1.7461  2.2418
 6216SOL     OW18936   3.701   3.743   0.400  0.1322  0.0852 -0.4656
 6216SOL    HW118937   3.714   3.698   0.489  0.8482 -0.5462 -0.8841
 6216SOL    HW218938   3.733   3.838   0.406  1.8166 -0.4499 -0.5116
 6217SOL     OW18939   0.641   0.662   5.263  0.3819 -0.0515  0.1824
 6217SOL    HW118940   0.708   0.735   5.272 -1.8611  2.0977  0.4510
 6217SOL    HW218941   0.634   0.635   5.166  0.1793  1.1835 -0.1665
 6218SOL     OW18942   5.758   4.413   4.012  0.3102 -0.3357  0.3983
 6218SOL    HW118943   5.739   4.369   3.924  0.6889 -0.6400  0.4656
 6218SOL    HW218944   5.834   4.366   4.057  3.1972  2.4787 -1.1083
 6219SOL     OW18945   4.827   0.093   4.160 -0.3576  0.2924 -0.6186
 6219SOL    HW118946   4.808   0.164   4.228  0.8537 -0.4154  0.5148
 6219SOL    HW218947   4.781   0.008   4.186 -0.2742  0.1482 -0.9326
 6220SOL     OW18948   3.971   3.787   4.476  0.4961  0.2750 -0.5962
 6220SOL    HW118949   3.899   3.850   4.506 -0.9384 -0.4099 -2.3970
 6220SOL    HW218950   4.061   3.830   4.487  0.2017  0.1965  4.2556
 6221SOL     OW18951   3.554   5.640   5.535  0.0234  0.5338  0.0553
 6221SOL    HW118952   3.653   5.629   5.525  0.3521  0.1537  2.9704
 6221SOL    HW218953   3.511   5.549   5.533 -0.1949  0.6471 -0.4926
 6222SOL     OW18954   3.995   0.073   4.972  0.2871 -0.0263 -0.0473
 6222SOL    HW118955   4.056   0.140   5.013  0.1761 -0.0036  0.0831
 6222SOL    HW218956   4.031  -0.019   4.987  0.8541  0.0414 -0.9201
 6223SOL     OW18957   0.642   4.079   3.954  0.0453 -0.0169 -0.0344
 6223SOL    HW118958   0.601   4.157   3.906  1.6122 -0.1639 -1.7379
 6223SOL    HW218959   0.739   4.098   3.969  0.7374 -2.1059 -1.5593
 6224SOL     OW18960   4.547   3.753   3.691  0.3737 -0.3674 -0.0232
 6224SOL    HW118961   4.525   3.797   3.777  0.1558  0.2255 -0.3761
 6224SOL    HW218962   4.465   3.709   3.653  0.2859  0.0436 -0.3108
 6225SOL     OW18963   5.915   2.680   2.215  0.2890 -0.3152 -0.1750
 6225SOL    HW118964   5.893   2.718   2.305  2.9788 -0.6878  0.7492
 6225SOL    HW218965   5.917   2.753   2.147  0.3276  0.3469  0.5259
 6226SOL     OW18966   5.226   3.626   0.495 -0.1949  0.3398  0.4041
 6226SOL    HW118967   5.303   3.629   0.559  0.5475  1.4816 -0.5029
 6226SOL    HW218968   5.190   3.718   0.481 -1.1280 -0.0577  0.0953
 6227SOL     OW18969   4.991   5.601   5.163  0.0451 -0.0745  0.0117
 6227SOL    HW118970   5.058   5.673   5.149 -1.6720  1.4199 -1.0585
 6227SOL    HW218971   4.935   5.591   5.080 -0.3663 -2.0190  0.4656
 6228SOL     OW18972   0.883   1.080   5.172  0.7561  0.4326 -0.3902
 6228SOL    HW118973   0.885   0.984   5.199 -0.4201  0.3119 -0.6814
 6228SOL    HW218974   0.814   1.094   5.101  1.3727  1.3798 -0.8235
 6229SOL     OW18975   4.574   5.120   5.356  0.5151  0.2304  0.4097
 6229SOL    HW118976   4.499   5.176   5.322 -0.7635 -1.1379  0.8426
 6229SOL    HW218977   4.607   5.158   5.443 -0.5271  0.1815  0.8463
 6230SOL     OW18978   4.912   5.029   4.505  0.0000  0.5323  0.0746
 6230SOL    HW118979   4.971   5.104   4.476  2.6289 -1.6439 -0.5674
 6230SOL    HW218980   4.944   4.992   4.592 -1.3389  0.2030  0.4586
 6231SOL     OW18981   0.340   4.729   4.929  0.1396 -0.1509 -0.2143
 6231SOL    HW118982   0.376   4.806   4.980  1.2039 -0.2813 -0.7314
 6231SOL    HW218983   0.279   4.675   4.987  2.1423 -0.9065  1.2967
 6232SOL     OW18984   4.598   5.070   4.187  0.6549  0.0515 -0.7302
 6232SOL    HW118985   4.661   5.119   4.126 -1.2062  0.8676 -2.0931
 6232SOL    HW218986   4.544   5.005   4.133  0.4673 -0.8052  0.4511
 6233SOL     OW18987   5.390   4.563   4.526  0.0825  0.3197 -0.5584
 6233SOL    HW118988   5.359   4.469   4.515 -0.0225  0.2195  0.5257
 6233SOL    HW218989   5.451   4.569   4.605 -0.4924  1.3037 -0.1815
 6234SOL     OW18990   4.782   4.110   5.396 -0.1405  0.0223 -0.1885
 6234SOL    HW118991   4.730   4.180   5.346 -1.1174  0.2372  1.0823
 6234SOL    HW218992   4.838   4.154   5.466  1.9309 -0.1973 -1.6368
 6235SOL     OW18993   4.344   5.270   5.234 -0.1590  0.5665  0.2207
 6235SOL    HW118994   4.307   5.268   5.141 -1.5334  0.8661  0.7318
 6235SOL    HW218995   4.319   5.357   5.278 -1.2020 -0.3384  1.4934
 6236SOL     OW18996   3.420   3.141   3.871  0.1233 -0.1956 -0.0300
 6236SOL    HW118997   3.489   3.075   3.842  1.7316  1.1472  0.4923
 6236SOL    HW218998   3.422   3.220   3.810 -0.9021 -0.0871  0.0589
 6237SOL     OW18999   2.935   0.798   3.866 -0.3437  0.6170  0.2108
 6237SOL    HW119000   3.008   0.766   3.926  0.2274  0.6503 -0.4524
 6237SOL    HW219001   2.953   0.893   3.840 -0.8320  0.7527  0.3624
 6238SOL     OW19002   5.318   5.580   3.839 -0.1891  0.2110 -0.3132
 6238SOL    HW119003   5.358   5.545   3.924 -1.1683  0.8412  0.4224
 6238SOL    HW219004   5.390   5.588   3.770  0.9700  1.2939  0.9609
 6239SOL     OW19005   4.200   0.856   3.465 -0.2545  0.1938 -0.0718
 6239SOL    HW119006   4.246   0.935   3.426 -0.7979  0.1842 -0.7469
 6239SOL    HW219007   4.253   0.773   3.445 -0.8987  0.0854 -1.4942
 6240SOL     OW19008   4.251   5.411   4.122  0.0154  0.0490 -0.2905
 6240SOL    HW119009   4.331   5.460   4.086  0.7579 -0.1340  1.0299
 6240SOL    HW219010   4.274   5.314   4.133 -0.3193  0.0264  0.2423
 6241SOL     OW19011   3.525   5.020   5.622 -0.0952  0.4587  0.5241
 6241SOL    HW119012   3.571   5.038   5.709 -1.0302 -2.4562  1.7468
 6241SOL    HW219013   3.579   4.954   5.569  0.0154  1.5342 -0.7484
 6242SOL     OW19014   5.663   3.899   1.592 -0.7843  0.6747  0.9622
 6242SOL    HW119015   5.729   3.884   1.665 -0.2237 -0.7824  0.2066
 6242SOL    HW219016   5.580   3.847   1.611 -0.3632 -0.2943  0.2530
 6243SOL     OW19017   3.169   4.303   5.193 -0.0319  0.2188  0.6195
 6243SOL    HW119018   3.101   4.329   5.262 -0.2408  0.8039  0.2058
 6243SOL    HW219019   3.154   4.209   5.165 -0.0479  0.0265  1.2549
 6244SOL     OW19020   3.374   4.010   5.577  0.0997 -0.2800 -0.5278
 6244SOL    HW119021   3.447   4.027   5.644  2.0337 -1.5667 -2.1619
 6244SOL    HW219022   3.306   3.949   5.618  0.0815  0.6471  0.9233
 6245SOL     OW19023   5.245   5.415   4.262 -0.0883  0.0008 -0.1119
 6245SOL    HW119024   5.240   5.374   4.171 -0.9712  0.2251 -0.1730
 6245SOL    HW219025   5.285   5.350   4.326  1.0276  0.0259 -0.7579
 6246SOL     OW19026   3.346   4.966   1.191  0.1005 -0.2738 -0.7746
 6246SOL    HW119027   3.309   5.040   1.135  1.4963  0.5502 -0.6514
 6246SOL    HW219028   3.275   4.932   1.253 -0.6066  0.8479 -0.9418
 6247SOL     OW19029   4.853   4.893   5.464 -0.0391 -0.1669  0.2881
 6247SOL    HW119030   4.841   4.937   5.553  1.0639 -0.4254  0.5781
 6247SOL    HW219031   4.803   4.806   5.463  0.5747 -0.5383  0.9455
 6248SOL     OW19032   0.534   4.629   5.365 -0.3768 -0.3276  0.5066
 6248SOL    HW119033   0.572   4.720   5.355 -1.3247  0.3192  2.2616
 6248SOL    HW219034   0.443   4.635   5.407 -0.6510 -2.0442  0.2479
 6249SOL     OW19035   4.781   3.728   3.217  0.1511 -0.1846  0.0057
 6249SOL    HW119036   4.726   3.666   3.272  3.2374 -0.8066  2.6936
 6249SOL    HW219037   4.792   3.815   3.266  0.0664  0.6349 -1.3657
 6250SOL     OW19038   3.989   4.964   5.208 -0.0307  0.0236 -0.1502
 6250SOL    HW119039   4.053   5.027   5.252 -0.6310 -0.0427  0.8244
 6250SOL    HW219040   3.967   4.998   5.116  2.7565 -0.8337 -1.2445
 6251SOL     OW19041   1.286   4.557   4.703 -0.2342  0.3641  0.3360
 6251SOL    HW119042   1.210   4.501   4.737  0.5495 -1.9358 -1.4014
 6251SOL    HW219043   1.357   4.562   4.773 -0.6268 -0.2227  0.7972
 6252SOL     OW19044   3.957   5.759   1.990  0.2012  0.4794  0.0153
 6252SOL    HW119045   3.899   5.709   2.054 -0.1631  1.5253  0.5097
 6252SOL    HW219046   4.045   5.778   2.032  1.5390 -2.3456 -1.2077
 6253SOL     OW19047   3.942   1.488   5.736 -0.1704  0.5759  0.2967
 6253SOL    HW119048   3.894   1.554   5.792 -0.6366 -0.2914  0.9324
 6253SOL    HW219049   3.880   1.414   5.710  0.3428  0.3760 -0.3989
 6254SOL     OW19050   2.039   5.269   4.419 -0.5940 -0.1908 -0.4026
 6254SOL    HW119051   2.118   5.255   4.359  0.1854 -0.2908  0.6084
 6254SOL    HW219052   2.029   5.367   4.437 -0.3857 -0.2214 -0.1212
 6255SOL     OW19053   4.196   0.399   4.712  0.0141  0.2106 -0.4585
 6255SOL    HW119054   4.252   0.441   4.783  0.1575  0.6314 -0.8151
 6255SOL    HW219055   4.251   0.331   4.663 -0.2685 -0.5331  0.2311
 6256SOL     OW19056   4.545   4.698   0.752 -0.0190  0.2294 -0.2250
 6256SOL    HW119057   4.526   4.620   0.810  3.6859 -0.2423  0.5987
 6256SOL    HW219058   4.503   4.685   0.662 -2.0138 -1.1829  0.8590
 6257SOL     OW19059   0.696   4.075   5.445  0.0334 -0.1084 -0.2880
 6257SOL    HW119060   0.664   3.980   5.445  1.4959 -0.6251 -0.0186
 6257SOL    HW219061   0.699   4.109   5.351  0.5504 -0.6984 -0.4885
 6258SOL     OW19062   5.838   5.097   0.023 -0.0293 -0.0827 -0.4764
 6258SOL    HW119063   5.889   5.158   0.083 -0.4332 -0.9879  0.8570
 6258SOL    HW219064   5.901   5.036  -0.024  0.1916 -1.0422  0.9813
 6259SOL     OW19065   4.473   5.741   5.247 -0.8373  0.2796 -0.0600
 6259SOL    HW119066   4.536   5.730   5.170 -1.5983 -0.8812 -0.5438
 6259SOL    HW219067   4.525   5.751   5.332  0.0007 -0.1035 -0.5132
 6260SOL     OW19068   5.646   1.602   4.522  0.7959  0.6265  0.0045
 6260SOL    HW119069   5.647   1.621   4.621  0.3522  1.2781 -0.1032
 6260SOL    HW219070   5.721   1.541   4.499  0.2547 -0.4185  0.9163
 6261SOL     OW19071   3.733   4.161   5.169  0.0543 -0.7079 -0.2346
 6261SOL    HW119072   3.719   4.249   5.124  0.5188 -1.1530 -1.2816
 6261SOL    HW219073   3.825   4.127   5.149 -0.3487 -1.7462 -0.4092
 6262SOL     OW19074   3.878   5.903   3.969  0.8170 -0.1273  0.1340
 6262SOL    HW119075   3.905   5.980   3.911  0.2263 -0.3576 -0.4517
 6262SOL    HW219076   3.780   5.886   3.959  0.1293  1.3832  3.0281
 6263SOL     OW19077   5.303   0.458   4.664 -0.0212 -0.3360  0.2718
 6263SOL    HW119078   5.230   0.432   4.601 -1.7415  1.3166  1.4477
 6263SOL    HW219079   5.268   0.454   4.758  0.9977  1.6066  0.7972
 6264SOL     OW19080   0.355   0.512   4.451 -0.4511  0.0668 -0.5217
 6264SOL    HW119081   0.293   0.446   4.408 -1.6196  0.3466  0.6563
 6264SOL    HW219082   0.445   0.504   4.410 -0.8304 -1.5344 -1.1351
 6265SOL     OW19083   4.445   3.695   4.186  0.7622  0.2056 -0.3829
 6265SOL    HW119084   4.484   3.649   4.107  0.6415  1.0485 -0.9420
 6265SOL    HW219085   4.345   3.694   4.180  0.7213 -0.5571  0.2468
 6266SOL     OW19086   0.938   5.135   2.692 -0.0227 -0.5028  0.0981
 6266SOL    HW119087   0.843   5.166   2.684  0.6238  1.5648 -0.1096
 6266SOL    HW219088   0.981   5.133   2.602  0.2423 -1.1249  0.2291
 6267SOL     OW19089   4.931   4.172   5.113  0.1108 -0.0024 -0.5090
 6267SOL    HW119090   4.909   4.265   5.144  1.6669 -0.2138  1.4825
 6267SOL    HW219091   4.974   4.176   5.023  0.5084  1.2658 -0.2850
 6268SOL     OW19092   4.228   5.042   4.621  0.2189  0.2139 -0.1577
 6268SOL    HW119093   4.324   5.018   4.636 -0.0818  0.7552  3.5518
 6268SOL    HW219094   4.172   4.960   4.632 -0.0464  0.6906  3.1325
 6269SOL     OW19095   0.630   0.774   2.295 -0.1069 -1.0028 -0.3763
 6269SOL    HW119096   0.632   0.679   2.265 -2.0185 -1.1620 -0.1588
 6269SOL    HW219097   0.536   0.809   2.289  0.6370  1.0418 -0.9386
 6270SOL     OW19098   4.660   3.865   0.307  0.6558  0.1277  0.8088
 6270SOL    HW119099   4.589   3.927   0.273  0.6013 -0.5770 -0.4344
 6270SOL    HW219100   4.686   3.801   0.234 -0.8420 -2.7750  2.6406
 6271SOL     OW19101   0.562   5.876   4.977  0.5333  0.2075  0.0272
 6271SOL    HW119102   0.634   5.826   5.026  0.4541 -0.8350 -0.8888
 6271SOL    HW219103   0.506   5.926   5.043  1.1679 -0.1840  0.8890
 6272SOL     OW19104   4.976   5.670   4.652 -0.3365  0.6603  0.1769
 6272SOL    HW119105   5.066   5.631   4.634 -0.5907 -0.2565  0.8384
 6272SOL    HW219106   4.920   5.665   4.569  0.5774  2.3191 -0.5931
 6273SOL     OW19107   0.653   5.164   2.924  0.3413 -0.3065  0.2529
 6273SOL    HW119108   0.691   5.094   2.864 -0.5717  0.6427 -1.5236
 6273SOL    HW219109   0.695   5.157   3.015  2.4581 -1.2304 -0.7248
 6274SOL     OW19110   4.972   2.338   4.775 -0.0085 -0.1896  0.3906
 6274SOL    HW119111   4.987   2.295   4.686 -1.0211  1.2811 -0.5405
 6274SOL    HW219112   5.042   2.408   4.791 -1.7327  1.9911 -0.9190
 6275SOL     OW19113   5.436   3.912   4.833  0.1671  0.3715 -0.2041
 6275SOL    HW119114   5.461   3.871   4.920  1.0800  0.5821 -0.3556
 6275SOL    HW219115   5.386   3.997   4.850  1.5995  1.1856  0.1591
 6276SOL     OW19116   1.939   3.604   2.509  0.2688  0.0909 -0.3624
 6276SOL    HW119117   1.915   3.515   2.470  0.0149  0.1142 -0.2569
 6276SOL    HW219118   1.856   3.657   2.526  0.4257  0.4005 -0.5484
 6277SOL     OW19119   3.976   0.065   5.337  0.1424 -0.3130  0.8158
 6277SOL    HW119120   4.073   0.075   5.314 -0.5180 -1.1122 -2.9729
 6277SOL    HW219121   3.940   0.153   5.368  0.9717  1.6379 -3.0642
 6278SOL     OW19122   3.946   4.268   4.838 -0.3398 -0.0354  0.5162
 6278SOL    HW119123   3.996   4.181   4.833  3.1264  1.7326  1.1607
 6278SOL    HW219124   3.903   4.276   4.928 -0.2232 -0.8647  0.6544
 6279SOL     OW19125   3.769   5.100   4.731  0.2923 -0.1757 -0.1036
 6279SOL    HW119126   3.676   5.133   4.715  0.5656  1.2817  1.1215
 6279SOL    HW219127   3.826   5.120   4.652 -0.1682 -0.0597 -0.4080
 6280SOL     OW19128   4.688   0.084   0.688 -0.1758 -0.3077 -1.0380
 6280SOL    HW119129   4.683   0.076   0.589 -2.0586  0.0278 -1.0014
 6280SOL    HW219130   4.724   0.174   0.713 -2.4286  0.7617 -1.4490
 6281SOL     OW19131   3.952   5.240   4.180  0.4436  0.9471 -0.0011
 6281SOL    HW119132   3.872   5.285   4.141  1.7091  0.4518 -3.5588
 6281SOL    HW219133   4.003   5.305   4.236 -1.8383  1.5475  1.5159
 6282SOL     OW19134   4.180   0.234   3.243 -0.0415  0.3170  0.0379
 6282SOL    HW119135   4.274   0.207   3.224 -0.0034  0.3294  0.2059
 6282SOL    HW219136   4.128   0.154   3.275 -0.1392  0.2674 -0.2478
 6283SOL     OW19137   2.926   5.859   4.399 -0.1650 -1.0425 -0.3173
 6283SOL    HW119138   2.875   5.790   4.450 -1.7186  1.3230  1.6059
 6283SOL    HW219139   3.009   5.882   4.449 -0.8075  0.0424  0.2881
 6284SOL     OW19140   5.657   1.757   5.207  0.0434  0.0049  0.2544
 6284SOL    HW119141   5.597   1.788   5.281 -0.4675 -2.9723  1.2399
 6284SOL    HW219142   5.747   1.734   5.245  0.4854  0.5118 -0.4719
 6285SOL     OW19143   4.803   5.564   5.370 -0.2704 -0.1111  0.2835
 6285SOL    HW119144   4.869   5.586   5.299 -1.5873  2.0174 -0.3820
 6285SOL    HW219145   4.811   5.629   5.445  0.0711 -1.4038  1.4242
 6286SOL     OW19146   4.879   4.815   4.779  0.1430 -0.0176 -0.2168
 6286SOL    HW119147   4.941   4.832   4.856  0.1459 -3.1070  0.5918
 6286SOL    HW219148   4.793   4.777   4.814  0.0923 -1.3594 -1.6960
 6287SOL     OW19149   3.492   5.376   0.358  0.1633  0.0919  0.0540
 6287SOL    HW119150   3.573   5.396   0.412  0.8193  1.4164 -1.3396
 6287SOL    HW219151   3.413   5.424   0.397  0.5526  0.7398  0.0612
 6288SOL     OW19152   5.737   4.814   0.027  0.1960  0.1662 -0.0791
 6288SOL    HW119153   5.738   4.913   0.013 -0.2112  0.3085  0.8404
 6288SOL    HW219154   5.804   4.772  -0.034  0.0492  0.9536 -0.8111
 6289SOL     OW19155   4.465   4.364   5.107 -0.5889 -0.3110 -0.2804
 6289SOL    HW119156   4.396   4.292   5.115  0.0356 -0.7710  1.4470
 6289SOL    HW219157   4.496   4.370   5.012 -1.5689 -1.4392 -0.7000
 6290SOL     OW19158   3.334   0.257   5.928 -0.2907 -1.0660  0.3154
 6290SOL    HW119159   3.323   0.181   5.863  0.7125 -0.1466 -0.9758
 6290SOL    HW219160   3.305   0.227   6.019 -2.3106 -2.2301 -0.6231
 6291SOL     OW19161   1.615   4.854   4.739 -0.2635  0.5395 -0.5371
 6291SOL    HW119162   1.603   4.772   4.683 -0.5192  0.6286 -0.6188
 6291SOL    HW219163   1.620   4.934   4.679  0.7414  0.5104 -0.4990
 6292SOL     OW19164   0.166   5.443   4.231 -0.8071  0.5047 -0.2202
 6292SOL    HW119165   0.155   5.499   4.314 -1.3566 -0.5454  0.4303
 6292SOL    HW219166   0.102   5.367   4.234  0.1715 -0.3628 -0.9295
 6293SOL     OW19167   3.558   4.597   3.950  0.0598  0.5471  0.4809
 6293SOL    HW119168   3.591   4.691   3.951 -0.2705  0.6931 -0.5990
 6293SOL    HW219169   3.635   4.535   3.965  0.1408  0.9908  2.1268
 6294SOL     OW19170   4.586   1.307   4.632 -0.2343 -0.3350  0.0892
 6294SOL    HW119171   4.499   1.335   4.592  0.3993  2.0733  0.2430
 6294SOL    HW219172   4.659   1.366   4.598  0.8474 -0.3293  2.2534
 6295SOL     OW19173   4.342   5.150   4.196 -0.2780 -0.1698 -0.3619
 6295SOL    HW119174   4.440   5.131   4.201  0.3444  2.2469 -1.8446
 6295SOL    HW219175   4.297   5.078   4.142  0.3952 -2.0050  1.4146
 6296SOL     OW19176   4.135   0.019   3.404  0.0891 -0.6032 -0.0038
 6296SOL    HW119177   4.176   0.055   3.488 -0.5577  1.8161 -0.6621
 6296SOL    HW219178   4.039  -0.005   3.422 -0.2505  0.5565 -0.1642
 6297SOL     OW19179   0.149   0.886   3.880 -0.4714  0.1058 -0.4851
 6297SOL    HW119180   0.206   0.959   3.844 -1.3109  0.3321 -1.4294
 6297SOL    HW219181   0.072   0.925   3.931 -0.0981 -0.1747  0.3049
 6298SOL     OW19182   3.383   4.661   5.389 -0.1448 -0.0869  0.9607
 6298SOL    HW119183   3.384   4.577   5.334 -0.1116 -0.8074  2.0184
 6298SOL    HW219184   3.301   4.713   5.368 -0.0386 -0.2449  0.0987
 6299SOL     OW19185   4.095   4.503   5.116 -0.4689 -0.7429 -0.6190
 6299SOL    HW119186   4.151   4.578   5.150 -0.2222 -1.3266  0.2797
 6299SOL    HW219187   4.026   4.539   5.053 -0.4826  0.2644 -0.0492
 6300SOL     OW19188   4.838   5.234   0.087 -0.5579 -0.5976  0.2413
 6300SOL    HW119189   4.922   5.231   0.033 -0.2035 -0.8336  0.7973
 6300SOL    HW219190   4.766   5.281   0.035 -0.3053 -1.0671 -0.5429
 6301SOL     OW19191   4.964   4.242   0.370  0.9097 -0.6029  0.0672
 6301SOL    HW119192   4.968   4.146   0.396  0.2058 -0.2300  1.6427
 6301SOL    HW219193   5.022   4.257   0.289  2.3797 -2.0230  0.7982
 6302SOL     OW19194   3.611   5.210   3.238 -0.0414 -0.1019  0.3170
 6302SOL    HW119195   3.534   5.238   3.295  0.6936  0.4915  1.0499
 6302SOL    HW219196   3.583   5.212   3.142 -1.0982 -0.4524  0.6031
 6303SOL     OW19197   1.067   5.478   3.527  0.0977 -0.3121  0.0663
 6303SOL    HW119198   1.015   5.427   3.596  0.5951  0.4280  1.0146
 6303SOL    HW219199   1.022   5.470   3.439 -2.0547  0.8947  0.9827
 6304SOL     OW19200   4.357   3.336   4.128 -0.2905  0.3960  0.0884
 6304SOL    HW119201   4.329   3.259   4.071  0.2616 -0.0639  0.4280
 6304SOL    HW219202   4.282   3.361   4.189 -0.3094 -0.1903  0.3112
 6305SOL     OW19203   5.169   0.380   4.869 -0.0758  0.6487  0.0068
 6305SOL    HW119204   5.160   0.281   4.855 -1.4001  0.6713  0.5553
 6305SOL    HW219205   5.119   0.406   4.950  0.9384  1.6773  0.3248
 6306SOL     OW19206   5.444   0.029   4.419 -0.1443  0.1655  0.6446
 6306SOL    HW119207   5.344   0.022   4.424 -0.0669 -0.1570  3.0956
 6306SOL    HW219208   5.477  -0.024   4.341 -1.8636  0.0628 -0.0642
 6307SOL     OW19209   5.485   3.803   3.935  0.3496 -0.2487 -0.3142
 6307SOL    HW119210   5.503   3.708   3.910 -0.4024 -0.2775 -0.8000
 6307SOL    HW219211   5.522   3.864   3.866 -1.5329 -0.3187 -1.4426
 6308SOL     OW19212   5.139   0.133   3.832  0.1006  0.1047 -0.1828
 6308SOL    HW119213   5.234   0.164   3.837 -0.3569  1.5112  0.3185
 6308SOL    HW219214   5.085   0.177   3.904 -0.9928 -0.4950 -0.5980
 6309SOL     OW19215   5.526   5.303   4.814  0.1741 -0.0539  0.7119
 6309SOL    HW119216   5.535   5.240   4.737  0.7636 -1.8627  2.1768
 6309SOL    HW219217   5.457   5.372   4.792 -0.1729 -0.9095 -1.1542
 6310SOL     OW19218   0.059   2.875   3.917 -0.6859 -0.0972  0.1248
 6310SOL    HW119219   0.068   2.775   3.920  3.2574  0.1218  2.3671
 6310SOL    HW219220   0.121   2.913   3.849 -1.7032  0.8940 -0.2844
 6311SOL     OW19221   4.106   4.820   4.694  0.8589 -0.4543 -0.3375
 6311SOL    HW119222   4.132   4.725   4.679  0.7422 -1.0346  2.4931
 6311SOL    HW219223   4.047   4.825   4.775  1.4005  2.0973 -0.0280
 6312SOL     OW19224   4.267   4.924   4.933  0.3786  0.0175 -0.0612
 6312SOL    HW119225   4.229   4.874   4.855 -1.2491  0.7753  0.2064
 6312SOL    HW219226   4.249   4.873   5.017  0.2089  0.2448  0.0404
 6313SOL     OW19227   2.450   0.270   4.578  0.2995 -0.7170 -0.0369
 6313SOL    HW119228   2.351   0.283   4.587 -0.0254 -2.2782 -0.9546
 6313SOL    HW219229   2.469   0.174   4.560  1.7709 -0.0457 -2.5111
 6314SOL     OW19230   5.785   0.042   4.463  0.5989  0.0444  0.3476
 6314SOL    HW119231   5.780   0.079   4.370  0.7715 -0.3430  0.1820
 6314SOL    HW219232   5.720   0.090   4.522  0.3851  0.1937 -0.0071
 6315SOL     OW19233   3.753   4.246   0.064 -0.5160 -0.2268  0.2937
 6315SOL    HW119234   3.765   4.243  -0.035 -2.4035  1.0388 -0.0228
 6315SOL    HW219235   3.681   4.311   0.087 -0.4433 -0.8380  2.4847
 6316SOL     OW19236   5.136   3.641   0.852 -0.1593  0.1414  0.6633
 6316SOL    HW119237   5.227   3.640   0.893  0.0603  0.1923  0.1852
 6316SOL    HW219238   5.122   3.727   0.804 -0.2753 -0.0632  0.3266
 6317SOL     OW19239   4.660   5.533   2.852 -0.4189  0.3839 -0.1438
 6317SOL    HW119240   4.641   5.630   2.839  1.0497  0.6624 -0.3937
 6317SOL    HW219241   4.605   5.498   2.928  1.0335  2.0956  1.8048
 6318SOL     OW19242   0.783   4.359   4.579  0.0786 -0.1950  0.1281
 6318SOL    HW119243   0.756   4.453   4.555 -0.0505  0.0922  1.3355
 6318SOL    HW219244   0.825   4.359   4.670  1.5346 -1.0860 -0.5219
 6319SOL     OW19245   5.745   4.630   1.197 -0.1248  0.1482 -0.0216
 6319SOL    HW119246   5.747   4.536   1.163  0.4951  0.3566 -0.6030
 6319SOL    HW219247   5.838   4.668   1.194 -0.4723  0.9990 -0.4501
 6320SOL     OW19248   2.212   5.620   5.568  0.9994 -0.1039  0.0265
 6320SOL    HW119249   2.280   5.643   5.637  1.4407 -1.1653 -0.0414
 6320SOL    HW219250   2.166   5.534   5.592  0.5265 -0.0188 -0.5351
 6321SOL     OW19251   4.838   4.438   5.217  0.0087  0.2447 -0.7042
 6321SOL    HW119252   4.821   4.516   5.157 -0.1477 -0.5549 -1.7076
 6321SOL    HW219253   4.754   4.416   5.267  0.4357  1.6406  0.7356
 6322SOL     OW19254   4.722   5.905   4.682 -0.4674 -0.3138  0.3701
 6322SOL    HW119255   4.819   5.888   4.695 -0.4523 -0.9000 -0.4348
 6322SOL    HW219256   4.671   5.820   4.696 -0.6223 -0.5464 -1.4470
 6323SOL     OW19257   4.326   0.310   0.178  0.1363  0.0853 -0.5138
 6323SOL    HW119258   4.301   0.345   0.088 -0.1491  1.2739 -0.0029
 6323SOL    HW219259   4.392   0.372   0.221  0.7729 -0.8124 -0.1578
 6324SOL     OW19260   4.232   4.198   5.167 -0.1415  0.2130 -0.2293
 6324SOL    HW119261   4.211   4.247   5.252 -2.3942 -0.6385 -0.2248
 6324SOL    HW219262   4.148   4.156   5.132  0.9926 -0.4793 -2.2369
 6325SOL     OW19263   5.189   3.770   0.151 -0.6568 -0.1433  0.0758
 6325SOL    HW119264   5.223   3.745   0.060 -0.1287  0.1230  0.1974
 6325SOL    HW219265   5.261   3.753   0.218 -0.0762  2.1882  0.1062
 6326SOL     OW19266   4.758   4.821   0.851 -0.4423 -0.3109  0.3257
 6326SOL    HW119267   4.740   4.869   0.937 -0.0612  1.1445 -0.3712
 6326SOL    HW219268   4.672   4.799   0.806 -0.6481  1.4269 -0.2194
 6327SOL     OW19269   4.038   0.227   0.642 -0.2856 -0.1630 -0.3884
 6327SOL    HW119270   4.005   0.193   0.553 -0.4469 -0.9460 -0.0451
 6327SOL    HW219271   3.989   0.311   0.665 -0.7974 -0.3680 -0.6929
 6328SOL     OW19272   4.228   4.801   0.073 -0.4153 -0.4506 -0.6029
 6328SOL    HW119273   4.266   4.787  -0.018 -1.2214  0.5911 -1.1164
 6328SOL    HW219274   4.268   4.735   0.137 -0.2646 -1.5588 -1.8212
 6329SOL     OW19275   3.022   4.772   3.293  0.3233  0.9508  0.6047
 6329SOL    HW119276   2.984   4.864   3.302  0.2299  1.0355 -0.5195
 6329SOL    HW219277   3.098   4.774   3.227  0.7104  0.3327  1.0202
 6330SOL     OW19278   4.595   3.325   0.409 -0.4822 -0.4765 -0.4472
 6330SOL    HW119279   4.687   3.361   0.423 -0.7586 -0.1388  0.6648
 6330SOL    HW219280   4.596   3.226   0.416 -0.2937 -0.4335  0.1862
 6331SOL     OW19281   0.755   4.518   4.840 -0.6300 -0.1573 -0.1388
 6331SOL    HW119282   0.853   4.498   4.840 -0.7607 -0.8078 -0.4498
 6331SOL    HW219283   0.726   4.543   4.748 -0.9420 -0.9212 -0.2557
 6332SOL     OW19284   5.464   5.780   5.914  0.1325  0.2689 -0.1466
 6332SOL    HW119285   5.554   5.736   5.914  1.1313  2.1278  1.5737
 6332SOL    HW219286   5.394   5.713   5.890  1.8795 -1.4164 -0.7923
 6333SOL     OW19287   5.683   4.759   5.599  0.2915 -0.5311  0.1863
 6333SOL    HW119288   5.631   4.676   5.617 -1.2485  0.4525  0.4729
 6333SOL    HW219289   5.766   4.760   5.655 -0.1626 -1.4181  0.8934
 6334SOL     OW19290   4.962   4.209   5.562 -0.0753  0.2239 -0.1859
 6334SOL    HW119291   4.987   4.287   5.506  0.3635 -1.4203 -2.4280
 6334SOL    HW219292   5.044   4.171   5.605 -0.1300  0.3563  0.0366
 6335SOL     OW19293   4.925   4.480   1.555  0.1592 -0.4214 -0.2968
 6335SOL    HW119294   4.848   4.480   1.619 -0.7852  0.8382 -1.3809
 6335SOL    HW219295   5.011   4.470   1.606 -0.5812  0.2678  1.1443
 6336SOL     OW19296   5.859   4.861   1.451 -0.3357  0.5672 -0.6955
 6336SOL    HW119297   5.907   4.878   1.365 -0.0461 -0.1431 -0.6832
 6336SOL    HW219298   5.831   4.948   1.492  2.5952  1.1704  0.2499
 6337SOL     OW19299   5.677   3.555   0.506 -0.4765  0.4171 -0.8537
 6337SOL    HW119300   5.767   3.595   0.495  0.0269  0.0160  1.2501
 6337SOL    HW219301   5.621   3.614   0.564 -0.5570 -0.6953  0.2452
 6338SOL     OW19302   5.463   4.955   0.989 -0.0051 -0.1066  0.2452
 6338SOL    HW119303   5.387   4.891   0.980  0.2737 -0.7443  1.9342
 6338SOL    HW219304   5.523   4.924   1.063  1.7894  0.4886 -0.8904
 6339SOL     OW19305   3.785   5.114   1.678 -0.2527 -1.0631  0.3318
 6339SOL    HW119306   3.774   5.105   1.579  2.2174 -3.2936  0.1599
 6339SOL    HW219307   3.695   5.121   1.720 -1.4102 -0.9050 -1.9817
 6340SOL     OW19308   4.455   5.462   0.331  0.7594 -0.2055  0.1714
 6340SOL    HW119309   4.370   5.511   0.352  0.1185 -1.0903 -0.2899
 6340SOL    HW219310   4.446   5.367   0.360  0.4982 -1.0468 -2.4404
 6341SOL     OW19311   4.033   2.980   1.301  0.6564 -0.4158  0.2710
 6341SOL    HW119312   4.113   3.011   1.248 -1.7001  2.9679 -1.6914
 6341SOL    HW219313   4.025   3.034   1.384 -1.8402  2.6772 -1.7319
 6342SOL     OW19314   0.101   4.960   5.789  0.5348 -0.2271 -0.2525
 6342SOL    HW119315   0.153   4.981   5.872 -1.0568  0.1678  0.6991
 6342SOL    HW219316   0.158   4.975   5.709  1.6504  0.8973  0.7111
 6343SOL     OW19317   3.993   4.063   5.077  0.3616 -0.3110 -0.5322
 6343SOL    HW119318   3.983   3.973   5.119  0.0775 -0.5584 -1.1161
 6343SOL    HW219319   4.031   4.052   4.985  2.4646  0.3156  0.1972
 6344SOL     OW19320   3.820   4.011   5.414 -0.1140  0.3479  0.4285
 6344SOL    HW119321   3.751   3.957   5.461 -0.9072 -1.2745 -2.3658
 6344SOL    HW219322   3.777   4.061   5.339  1.4001  1.1440  0.0624
 6345SOL     OW19323   0.517   4.735   1.960 -0.8132  0.2495 -0.4610
 6345SOL    HW119324   0.600   4.777   1.997 -0.6966 -1.1571  0.9627
 6345SOL    HW219325   0.528   4.722   1.861 -0.5081  2.6653 -0.8063
 6346SOL     OW19326   4.308   5.642   0.635  0.3094 -0.4505  0.8320
 6346SOL    HW119327   4.279   5.648   0.730 -0.2774  0.3679  0.6115
 6346SOL    HW219328   4.381   5.708   0.617 -0.1565 -0.0133  0.5162
 6347SOL     OW19329   0.020   4.755   4.892  0.0157  0.5225  0.0777
 6347SOL    HW119330   0.064   4.671   4.924 -0.1282  0.3701 -0.1182
 6347SOL    HW219331   0.043   4.831   4.953 -0.5264  0.1708  0.7306
 6348SOL     OW19332   4.398   0.924   0.610 -0.3945  0.5015  0.3747
 6348SOL    HW119333   4.433   0.921   0.517 -2.2952 -0.9502 -0.3614
 6348SOL    HW219334   4.436   0.848   0.663 -0.1527  0.6904  0.4763
 6349SOL     OW19335   4.580   4.809   0.292  0.2816  0.2784  0.1945
 6349SOL    HW119336   4.571   4.867   0.211 -0.7206 -0.3272 -0.1407
 6349SOL    HW219337   4.648   4.849   0.354  1.0558  0.7568 -0.9243
 6350SOL     OW19338   5.388   4.777   0.060  0.1667  0.1013  0.1666
 6350SOL    HW119339   5.419   4.709   0.126 -0.6497 -0.5802 -0.1262
 6350SOL    HW219340   5.433   4.864   0.078 -0.1775 -0.0165  1.7495
 6351SOL     OW19341   0.126   4.059   5.631 -0.0557  0.4293 -0.2629
 6351SOL    HW119342   0.203   4.087   5.688  2.1949  3.0141 -4.1115
 6351SOL    HW219343   0.159   4.005   5.554 -1.9772  1.6762 -2.0940
 6352SOL     OW19344   5.371   5.754   1.204 -0.3399  0.1321  0.8969
 6352SOL    HW119345   5.333   5.719   1.119 -0.8312 -0.0796  1.2010
 6352SOL    HW219346   5.299   5.760   1.273 -0.4297  2.3140  0.6921
 6353SOL     OW19347   4.517   0.215   4.203  0.3056  0.4968  0.3995
 6353SOL    HW119348   4.512   0.116   4.192  1.1724  0.2260  2.0866
 6353SOL    HW219349   4.601   0.239   4.252  1.2928  2.2860 -1.9156
 6354SOL     OW19350   3.264   3.266   5.859  0.8787 -0.0561 -0.4108
 6354SOL    HW119351   3.263   3.213   5.774  0.2039 -0.8091  0.0528
 6354SOL    HW219352   3.203   3.345   5.849 -0.8234 -1.2592  0.0397
 6355SOL     OW19353   4.897   5.655   0.181 -0.4656 -0.1842  0.1961
 6355SOL    HW119354   4.880   5.752   0.166  1.8641  0.1152 -0.9251
 6355SOL    HW219355   4.815   5.612   0.218 -2.1602  1.8128 -1.0618
 6356SOL     OW19356   3.903   5.095   0.802 -1.1411  0.3979  0.0845
 6356SOL    HW119357   3.862   5.185   0.783  1.7262  1.3037 -2.6825
 6356SOL    HW219358   3.894   5.037   0.722 -0.0211 -0.5616  0.6329
 6357SOL     OW19359   4.679   3.315   0.968  0.4899  0.1315  0.3994
 6357SOL    HW119360   4.761   3.278   1.013  0.8984 -0.4230 -0.7567
 6357SOL    HW219361   4.707   3.375   0.893 -0.1698 -0.2327 -0.1429
 6358SOL     OW19362   4.591   0.321   4.831  0.2182 -0.0673 -0.1816
 6358SOL    HW119363   4.594   0.420   4.823  1.8497 -0.0307  0.5102
 6358SOL    HW219364   4.529   0.296   4.906 -0.2833  0.4059 -0.4279
 6359SOL     OW19365   5.249   3.978   5.666 -0.2359 -0.2418  0.6232
 6359SOL    HW119366   5.322   4.041   5.642 -1.4950  0.9203 -0.3249
 6359SOL    HW219367   5.265   3.890   5.622  0.0278  0.3517 -0.5220
 6360SOL     OW19368   5.573   4.476   5.550 -0.3972  0.1509  0.3944
 6360SOL    HW119369   5.486   4.438   5.578 -0.0383 -0.0794  1.2161
 6360SOL    HW219370   5.593   4.448   5.456 -2.5947  2.6691 -0.9577
 6361SOL     OW19371   2.506   0.117   0.592  0.1536 -0.0906  0.4650
 6361SOL    HW119372   2.413   0.108   0.628 -0.0802  3.2824  1.0355
 6361SOL    HW219373   2.502   0.129   0.492 -0.3332  2.4115  0.7248
 6362SOL     OW19374   4.910   3.934   0.348 -0.5041  0.3161 -0.3729
 6362SOL    HW119375   4.815   3.903   0.354 -0.0690 -1.3689 -1.4862
 6362SOL    HW219376   4.934   3.949   0.252  1.0932 -1.9227 -0.4105
 6363SOL     OW19377   4.750   3.014   0.922 -0.4237 -0.0433 -0.0614
 6363SOL    HW119378   4.799   3.077   0.982  0.6453 -0.1389 -0.8034
 6363SOL    HW219379   4.739   2.926   0.968 -1.9258  0.6504  0.9815
 6364SOL     OW19380   3.494   1.311   2.592 -0.1535  0.1965 -0.2698
 6364SOL    HW119381   3.500   1.225   2.641 -0.8251  1.4210  2.1137
 6364SOL    HW219382   3.580   1.328   2.543  0.1436 -1.5713 -0.4295
 6365SOL     OW19383   3.221   5.008   0.015  0.2128 -0.7579 -0.0534
 6365SOL    HW119384   3.132   4.996   0.060 -0.1952  0.1691 -0.5869
 6365SOL    HW219385   3.267   4.920   0.008 -0.9444 -1.3520 -0.3298
 6366SOL     OW19386   2.913   4.967   5.949  0.5098  0.3917  0.0401
 6366SOL    HW119387   2.944   5.060   5.927  0.2650  0.7425  1.1359
 6366SOL    HW219388   2.942   4.904   5.876 -1.3527  1.6973 -1.9634
 6367SOL     OW19389   5.005   5.483   0.676 -0.8409 -0.5264 -0.3867
 6367SOL    HW119390   4.975   5.558   0.617  1.5206  0.4817 -0.4133
 6367SOL    HW219391   5.027   5.404   0.619 -0.1813 -0.1236 -0.7024
 6368SOL     OW19392   5.020   5.338   1.262  0.0669  0.2816  0.3053
 6368SOL    HW119393   5.034   5.398   1.341 -2.2185  0.7071  0.4725
 6368SOL    HW219394   4.954   5.266   1.287  1.1620 -1.0522 -0.5176
 6369SOL     OW19395   5.695   3.409   0.292  0.3242 -0.0103 -0.0180
 6369SOL    HW119396   5.624   3.340   0.300  0.4009 -0.2772 -1.4249
 6369SOL    HW219397   5.697   3.465   0.375 -2.3776  0.8303 -0.4402
 6370SOL     OW19398   2.806   5.328   3.342  0.4767 -0.7066  0.1975
 6370SOL    HW119399   2.824   5.407   3.282  0.7417  0.1561  1.3701
 6370SOL    HW219400   2.716   5.291   3.321  0.2146  0.1065 -0.1806
 6371SOL     OW19401   0.376   0.355   0.131  0.6466  0.0435 -0.4285
 6371SOL    HW119402   0.285   0.395   0.121 -0.4688 -2.3392 -0.6001
 6371SOL    HW219403   0.421   0.351   0.042 -0.5478 -1.8693 -1.0065
 6372SOL     OW19404   4.112   5.235   5.621  0.1340 -0.4539  0.0097
 6372SOL    HW119405   4.041   5.206   5.685  0.2622 -0.8938 -0.0410
 6372SOL    HW219406   4.194   5.261   5.672 -0.9170  2.7585  0.2840
 6373SOL     OW19407   3.370   0.660   3.110  0.2928  0.4257 -0.5069
 6373SOL    HW119408   3.391   0.562   3.110  0.6276  0.4498  1.5612
 6373SOL    HW219409   3.455   0.712   3.115  0.0562  0.7266  0.7656
 6374SOL     OW19410   5.490   4.668   0.268 -0.4595 -0.4293 -0.2892
 6374SOL    HW119411   5.480   4.570   0.281  0.1167 -0.2115  2.1181
 6374SOL    HW219412   5.584   4.695   0.287 -1.2992  0.9808  2.1960
 6375SOL     OW19413   0.046   1.752   1.372 -0.0325 -0.5522  0.1694
 6375SOL    HW119414   0.025   1.702   1.456 -2.9512 -1.6206 -1.0424
 6375SOL    HW219415   0.097   1.692   1.310 -1.0444 -1.0817 -0.1778
 6376SOL     OW19416   4.958   5.896   0.342  0.5190 -0.3556 -0.2256
 6376SOL    HW119417   4.984   5.936   0.254 -0.3118 -2.0976 -1.2973
 6376SOL    HW219418   5.041   5.869   0.391  0.9587 -0.2363 -0.8830
 6377SOL     OW19419   4.521   0.074   2.673 -0.1018  0.4386 -0.4720
 6377SOL    HW119420   4.530   0.148   2.606 -0.5455  0.9626  0.0347
 6377SOL    HW219421   4.449   0.011   2.643  2.2528 -1.5039 -2.4502
 6378SOL     OW19422   4.163   5.013   1.243  0.3429  0.4519  0.0549
 6378SOL    HW119423   4.236   5.040   1.180 -0.8825  0.0091 -1.6182
 6378SOL    HW219424   4.078   4.998   1.192 -0.6425 -0.1995  1.7882
 6379SOL     OW19425   3.715   1.509   5.462 -0.2510  0.0595 -0.0744
 6379SOL    HW119426   3.686   1.531   5.369  0.2085  0.2364 -0.1758
 6379SOL    HW219427   3.661   1.563   5.527 -0.2430  0.2891 -0.2563
 6380SOL     OW19428   4.139   4.293   1.833  0.3704  0.6120  0.1464
 6380SOL    HW119429   4.185   4.212   1.869  0.0752 -0.3551 -1.5210
 6380SOL    HW219430   4.042   4.273   1.820 -0.5761  2.5076  3.2477
 6381SOL     OW19431   1.521   4.174   3.320  0.4571  0.2723  0.3895
 6381SOL    HW119432   1.429   4.138   3.304  0.0985  1.8363 -1.5119
 6381SOL    HW219433   1.588   4.100   3.314 -0.6366 -0.8991  1.8780
 6382SOL     OW19434   5.257   4.123   5.898  0.1681  0.1901  0.3442
 6382SOL    HW119435   5.232   4.062   5.823  1.8503  0.4981 -0.5215
 6382SOL    HW219436   5.332   4.083   5.950  0.1747  0.7701  0.7850
 6383SOL     OW19437   4.193   5.081   5.370 -0.1879 -0.0541  0.6777
 6383SOL    HW119438   4.174   5.142   5.447 -0.3698  0.3157  0.3422
 6383SOL    HW219439   4.238   5.133   5.297 -0.5355 -0.2761  0.3056
 6384SOL     OW19440   4.088   1.157   0.374 -0.1902  0.3930 -0.1098
 6384SOL    HW119441   4.131   1.173   0.463  0.3317 -0.3689 -0.2109
 6384SOL    HW219442   4.041   1.240   0.344  0.4160  0.9516  0.4471
 6385SOL     OW19443   0.522   5.510   3.755 -0.2797  0.9240  0.6505
 6385SOL    HW119444   0.568   5.577   3.813 -1.0226  1.3925  0.7048
 6385SOL    HW219445   0.530   5.537   3.660 -0.1670  0.8338  0.6339
 6386SOL     OW19446   4.061   4.600   0.663  0.9828  0.0971 -0.4251
 6386SOL    HW119447   3.978   4.544   0.659  2.0676 -1.7268  0.8166
 6386SOL    HW219448   4.076   4.630   0.757  2.1758 -0.3244 -0.4726
 6387SOL     OW19449   2.917   1.838   2.091 -0.3205  0.4020  0.2139
 6387SOL    HW119450   2.937   1.740   2.090  0.7630  0.6136 -1.1754
 6387SOL    HW219451   2.967   1.881   2.167  0.6710  0.1404 -0.2673
 6388SOL     OW19452   4.777   0.252   4.366 -0.2741 -0.1613 -0.1961
 6388SOL    HW119453   4.724   0.222   4.445  0.8845 -0.6225  0.4247
 6388SOL    HW219454   4.851   0.311   4.396  0.3962 -0.6276 -0.8910
 6389SOL     OW19455   2.125   5.339   1.626 -0.1811  0.3782 -0.0815
 6389SOL    HW119456   2.081   5.250   1.611  0.4388  0.1501 -0.5797
 6389SOL    HW219457   2.056   5.404   1.658 -0.8356 -0.0380 -0.5885
 6390SOL     OW19458   5.757   5.662   5.188  0.2197 -0.6114  0.0538
 6390SOL    HW119459   5.801   5.637   5.274 -1.7233 -1.3014  0.9017
 6390SOL    HW219460   5.662   5.688   5.205  0.4308  1.6071 -1.5993
 6391SOL     OW19461   3.871   0.324   1.027 -0.5886  0.2574  0.0812
 6391SOL    HW119462   3.906   0.237   1.062  2.2209  1.8360  1.5557
 6391SOL    HW219463   3.821   0.372   1.099  1.2005  1.4858  0.5630
 6392SOL     OW19464   4.461   4.292   2.873  0.0873  0.3511  0.5922
 6392SOL    HW119465   4.425   4.355   2.942 -0.7184 -0.1911  0.6714
 6392SOL    HW219466   4.512   4.220   2.919 -1.3721 -0.6272  0.7260
 6393SOL     OW19467   5.165   4.257   0.175 -0.0275 -0.2329 -0.1525
 6393SOL    HW119468   5.239   4.306   0.222  1.0651 -2.0098  0.0891
 6393SOL    HW219469   5.197   4.227   0.085 -0.8174 -0.1252 -0.4754
 6394SOL     OW19470   0.773   5.271   1.223  0.4448  0.0182  0.1128
 6394SOL    HW119471   0.710   5.320   1.284 -1.6679 -0.1312 -1.8188
 6394SOL    HW219472   0.777   5.175   1.249  0.3889  0.1558  0.6410
 6395SOL     OW19473   5.888   5.851   1.058 -0.0838 -0.1600  0.2203
 6395SOL    HW119474   5.834   5.922   1.103  1.7401  1.1636  0.4549
 6395SOL    HW219475   5.976   5.842   1.104  0.4770 -1.2270 -0.9990
 6396SOL     OW19476   4.715   4.998   0.506 -0.3618  0.1094  0.4413
 6396SOL    HW119477   4.684   5.050   0.585  0.2177 -2.3603  2.4078
 6396SOL    HW219478   4.809   4.967   0.522 -0.0279 -0.0055 -1.4987
 6397SOL     OW19479   3.395   5.292   1.711  0.0215 -0.1965 -0.1887
 6397SOL    HW119480   3.373   5.343   1.794  0.1756 -0.0456 -0.2392
 6397SOL    HW219481   3.451   5.349   1.651  0.1681 -0.4142 -0.2613
 6398SOL     OW19482   3.854   5.584   1.143  0.5563 -0.3028  0.1687
 6398SOL    HW119483   3.840   5.524   1.064  1.6697 -0.6659  0.2292
 6398SOL    HW219484   3.782   5.653   1.145 -0.4297 -1.2904 -0.2178
 6399SOL     OW19485   4.700   0.360   0.717  0.2696  0.4719  0.0510
 6399SOL    HW119486   4.662   0.342   0.626 -0.5128  0.5140  0.3581
 6399SOL    HW219487   4.643   0.428   0.763  1.8552  2.0406 -0.2107
 6400SOL     OW19488   1.568   5.307   5.534 -0.3981  0.4507  0.3238
 6400SOL    HW119489   1.547   5.403   5.553  0.3067  0.7168 -0.2325
 6400SOL    HW219490   1.529   5.282   5.446 -1.4882 -0.0803  0.9369
 6401SOL     OW19491   5.946   0.702   1.810 -1.2156 -0.4770 -0.1930
 6401SOL    HW119492   5.846   0.702   1.799 -1.3026 -3.5867 -0.2829
 6401SOL    HW219493   5.978   0.608   1.822  1.9308  0.2260 -1.9561
 6402SOL     OW19494   5.333   4.278   2.273  0.2753 -0.1736  0.1432
 6402SOL    HW119495   5.288   4.313   2.190  1.0412  0.6391  0.0446
 6402SOL    HW219496   5.266   4.270   2.347  0.0208  1.4493  0.1351
 6403SOL     OW19497   3.838   5.483   4.466 -0.1182  0.4301 -0.1628
 6403SOL    HW119498   3.853   5.476   4.564 -1.2577  1.6090  0.1273
 6403SOL    HW219499   3.926   5.479   4.418  0.5906  1.3662  1.0136
 6404SOL     OW19500   1.295   4.448   1.509  0.0031  0.4349 -0.1477
 6404SOL    HW119501   1.342   4.364   1.479 -0.7098  0.2527 -0.7774
 6404SOL    HW219502   1.206   4.425   1.547 -0.9858  1.0243 -1.9932
 6405SOL     OW19503   5.072   3.510   1.486  0.0308  0.4153 -0.8196
 6405SOL    HW119504   5.099   3.512   1.390  1.7759 -0.3191 -0.3847
 6405SOL    HW219505   4.972   3.505   1.492 -0.2828  2.9502 -2.5230
 6406SOL     OW19506   5.498   5.715   5.505 -0.2690  0.7341 -0.2662
 6406SOL    HW119507   5.460   5.623   5.500  0.2389  0.5508 -0.9657
 6406SOL    HW219508   5.426   5.780   5.529 -1.0265  0.3880 -1.4936
 6407SOL     OW19509   3.872   5.759   5.295  0.3773  0.4504 -0.1100
 6407SOL    HW119510   3.919   5.733   5.210  1.8533  0.2813  0.7146
 6407SOL    HW219511   3.922   5.832   5.340 -0.6971  0.9205  0.3569
 6408SOL     OW19512   2.936   0.189   2.763 -0.0540 -0.1745 -0.1355
 6408SOL    HW119513   3.028   0.151   2.756 -0.2009 -1.2185  2.4748
 6408SOL    HW219514   2.871   0.132   2.713  0.4595 -0.4197 -0.5217
 6409SOL     OW19515   3.639   5.832   3.222 -0.4491 -0.0290 -0.0079
 6409SOL    HW119516   3.617   5.916   3.272 -1.2977  0.7734 -1.6429
 6409SOL    HW219517   3.619   5.753   3.279 -0.4842  0.8550  1.2457
 6410SOL     OW19518   4.312   0.523   3.083  0.0451 -0.5486  0.0946
 6410SOL    HW119519   4.220   0.562   3.079 -0.1720 -1.0799 -0.1220
 6410SOL    HW219520   4.331   0.473   2.998  1.3363  1.3452 -0.8007
 6411SOL     OW19521   4.144   1.112   3.023 -0.0677  0.0221 -0.1905
 6411SOL    HW119522   4.121   1.130   2.927  1.7917 -0.4818 -0.7663
 6411SOL    HW219523   4.217   1.175   3.051  0.2483 -0.6517  0.5147
 6412SOL     OW19524   0.751   1.448   2.024  0.4851 -0.2114  0.0458
 6412SOL    HW119525   0.759   1.360   1.977  0.0127 -0.0152 -0.4286
 6412SOL    HW219526   0.699   1.437   2.108  1.6900 -0.6422  0.7533
 6413SOL     OW19527   5.922   0.265   2.289  0.8007 -1.0868  0.3601
 6413SOL    HW119528   6.013   0.232   2.260  1.4807  0.7535  0.3003
 6413SOL    HW219529   5.865   0.278   2.209  1.4411  0.4123  0.1116
 6414SOL     OW19530   4.893   5.145   2.038 -0.6335 -0.4478  0.1871
 6414SOL    HW119531   4.832   5.205   2.091 -1.1729 -0.8872  0.0688
 6414SOL    HW219532   4.844   5.063   2.011  0.2708 -1.2383  0.8559
 6415SOL     OW19533   4.830   5.753   3.789 -0.5299 -0.0329 -0.1587
 6415SOL    HW119534   4.775   5.675   3.760  0.2867  0.7376 -4.5291
 6415SOL    HW219535   4.924   5.723   3.806 -1.0674 -0.5331  2.2369
 6416SOL     OW19536   3.573   0.415   0.281  0.2023 -0.3080 -0.2202
 6416SOL    HW119537   3.559   0.399   0.379 -1.1750 -1.3000 -0.5337
 6416SOL    HW219538   3.531   0.340   0.229 -0.5574  1.0220 -1.6163
 6417SOL     OW19539   3.388   0.011   0.911  0.3610  0.0750  0.5878
 6417SOL    HW119540   3.451   0.030   0.986 -0.1213  0.5237  0.8903
 6417SOL    HW219541   3.309   0.072   0.918  1.0785  1.2709 -1.2410
 6418SOL     OW19542   3.271   5.070   1.602 -0.0905 -0.0362  0.2361
 6418SOL    HW119543   3.292   5.152   1.655 -0.1463  0.3756 -0.3684
 6418SOL    HW219544   3.344   5.053   1.537  0.4461 -1.0981  1.0990
 6419SOL     OW19545   3.084   5.039   1.872 -0.5004 -0.0463  0.3541
 6419SOL    HW119546   3.015   4.969   1.890  0.1689 -0.7899  0.0857
 6419SOL    HW219547   3.105   5.039   1.774  1.4742 -1.3837  0.7138
 6420SOL     OW19548   0.020   5.204   3.371  0.3193 -0.8433 -0.1290
 6420SOL    HW119549   0.020   5.280   3.307 -1.0217 -0.3356  0.4555
 6420SOL    HW219550  -0.037   5.130   3.336 -1.3490 -0.1223  0.9433
 6421SOL     OW19551   5.477   1.324   4.772 -0.5245 -0.5059 -0.4378
 6421SOL    HW119552   5.550   1.261   4.744  0.9052  1.5775 -1.7222
 6421SOL    HW219553   5.450   1.380   4.693 -0.6934  1.4831  0.9743
 6422SOL     OW19554   5.585   4.874   1.217  0.1510  0.4581  0.0217
 6422SOL    HW119555   5.611   4.948   1.278 -2.1279 -0.2683  2.0026
 6422SOL    HW219556   5.640   4.793   1.238 -0.8187  0.1216  1.4015
 6423SOL     OW19557   2.949   0.447   2.656 -0.1918 -0.0072 -0.6900
 6423SOL    HW119558   2.851   0.463   2.640 -0.1084  0.1438 -1.0574
 6423SOL    HW219559   2.962   0.353   2.688 -0.5109  0.1321 -0.1448
 6424SOL     OW19560   0.054   1.900   3.535  0.0166 -0.1919  0.4330
 6424SOL    HW119561  -0.022   1.866   3.591 -0.7861  0.4782 -0.2263
 6424SOL    HW219562   0.099   1.975   3.582 -0.1796 -0.1252  0.5164
 6425SOL     OW19563   3.685   0.356   1.290  0.1809  0.0598 -0.5104
 6425SOL    HW119564   3.634   0.289   1.343  0.7831 -1.2768 -1.5618
 6425SOL    HW219565   3.747   0.406   1.351  0.2566 -0.8600  0.1895
 6426SOL     OW19566   5.257   4.770   1.048  0.2753  0.6544 -0.4891
 6426SOL    HW119567   5.170   4.732   1.080  0.4815  2.1940  2.2773
 6426SOL    HW219568   5.332   4.708   1.072  0.3538  1.4857  1.6234
 6427SOL     OW19569   4.655   0.413   3.047 -0.1701 -0.0949  0.1190
 6427SOL    HW119570   4.578   0.451   3.097  0.0052 -0.3241  0.5681
 6427SOL    HW219571   4.660   0.455   2.956 -0.5355  0.2656  0.2640
 6428SOL     OW19572   5.121   5.700   1.691 -0.2222 -0.1080  0.3211
 6428SOL    HW119573   5.181   5.690   1.771 -2.0965  0.4311  1.8647
 6428SOL    HW219574   5.040   5.643   1.703  0.0495 -1.0484 -1.8577
 6429SOL     OW19575   1.387   0.372   3.179  0.3993 -0.2812 -0.7324
 6429SOL    HW119576   1.466   0.393   3.122  0.7572  0.3563 -0.0166
 6429SOL    HW219577   1.396   0.279   3.216  1.8258  0.4383  0.9140
 6430SOL     OW19578   3.989   4.991   2.386  0.0791  0.1572  0.1023
 6430SOL    HW119579   3.921   5.064   2.379 -0.4117 -0.1590  1.3461
 6430SOL    HW219580   3.971   4.936   2.467  0.9305 -0.8634 -0.3754
 6431SOL     OW19581   2.973   4.576   1.375 -0.2642 -0.0843  0.2667
 6431SOL    HW119582   2.933   4.536   1.458  0.7904 -2.4141 -0.2605
 6431SOL    HW219583   2.921   4.545   1.295 -0.8943  1.6398 -0.0151
 6432SOL     OW19584   3.165   5.810   1.546  0.2940 -0.1845  0.0827
 6432SOL    HW119585   3.215   5.775   1.626 -2.5398 -0.9057  1.6599
 6432SOL    HW219586   3.121   5.734   1.498 -1.2304  0.6050  0.1615
 6433SOL     OW19587   1.944   4.817   3.219 -0.2734 -0.2663  0.3243
 6433SOL    HW119588   1.930   4.780   3.311 -1.0369  2.3400  1.3480
 6433SOL    HW219589   1.970   4.913   3.225 -0.5214  0.0320 -2.2009
 6434SOL     OW19590   3.307   1.076   4.325 -0.3769  0.7477 -0.0401
 6434SOL    HW119591   3.294   1.105   4.419 -2.7216  1.5336 -0.5413
 6434SOL    HW219592   3.398   1.106   4.293 -0.0342  1.5218  1.5647
 6435SOL     OW19593   3.132   0.713   4.099  0.2578  0.4682  0.1745
 6435SOL    HW119594   3.108   0.616   4.099  0.0424  0.5079  1.3762
 6435SOL    HW219595   3.157   0.741   4.191 -1.2842  1.9241  0.2003
 6436SOL     OW19596   2.960   0.968   1.909 -0.0973 -0.1579 -0.3568
 6436SOL    HW119597   2.864   0.947   1.926 -0.3375  1.0589 -0.0792
 6436SOL    HW219598   3.001   0.896   1.854 -0.1035 -2.7779  2.7449
 6437SOL     OW19599   4.291   5.159   3.276 -0.3951  0.6466 -0.3863
 6437SOL    HW119600   4.302   5.255   3.252 -0.5365  1.3988  2.2402
 6437SOL    HW219601   4.344   5.139   3.358 -0.2406 -1.6012 -0.9579
 6438SOL     OW19602   2.588   5.674   0.839 -0.4083  0.1315  0.8773
 6438SOL    HW119603   2.548   5.683   0.748 -1.1216  1.6405  1.3133
 6438SOL    HW219604   2.562   5.752   0.895  2.4126  0.7448  1.4956
 6439SOL     OW19605   3.856   5.233   2.883  0.0955  0.5964 -0.2290
 6439SOL    HW119606   3.899   5.259   2.970  1.7445 -1.6911 -0.2703
 6439SOL    HW219607   3.759   5.217   2.898  0.6684 -1.7279  1.7778
 6440SOL     OW19608   4.976   4.153   3.125 -0.8281 -0.0038  0.6360
 6440SOL    HW119609   4.879   4.146   3.148 -1.2127  0.1743 -0.8182
 6440SOL    HW219610   5.021   4.066   3.143 -1.6525 -0.6490 -0.3512
 6441SOL     OW19611   1.110   0.160   3.690 -0.0031  0.0760 -0.0544
 6441SOL    HW119612   1.164   0.078   3.706 -0.7657 -0.5954 -0.8430
 6441SOL    HW219613   1.057   0.182   3.772 -1.3350 -1.4096 -0.4564
 6442SOL     OW19614   5.123   5.691   3.115  0.1983  0.0058  0.3845
 6442SOL    HW119615   5.206   5.679   3.169  0.1501  0.3827  0.5490
 6442SOL    HW219616   5.101   5.789   3.109 -0.0293 -0.0622  0.0353
 6443SOL     OW19617   2.668   0.835   4.888  0.4847  0.2348 -0.0693
 6443SOL    HW119618   2.576   0.839   4.928  0.4223  0.6785 -0.2499
 6443SOL    HW219619   2.696   0.739   4.879 -0.0547  0.0865 -0.2272
 6444SOL     OW19620   2.727   0.958   1.008  0.0194 -0.1547 -0.3993
 6444SOL    HW119621   2.810   0.998   0.969 -1.7289  1.3121 -2.8717
 6444SOL    HW219622   2.747   0.865   1.039  2.3129 -0.2587 -1.9333
 6445SOL     OW19623   5.772   4.915   3.020 -0.3176 -0.2073 -0.0808
 6445SOL    HW119624   5.703   4.847   2.995  0.7812 -1.4440  0.1171
 6445SOL    HW219625   5.853   4.903   2.962 -0.6796  1.9876 -1.1238
 6446SOL     OW19626   1.274   5.668   3.559 -0.5824 -0.0178 -0.0708
 6446SOL    HW119627   1.190   5.618   3.536 -1.1238 -0.3015  2.2842
 6446SOL    HW219628   1.338   5.606   3.605  0.6691  0.3718 -1.2271
 6447SOL     OW19629   4.863   0.118   2.777  0.1202 -0.2532 -0.1064
 6447SOL    HW119630   4.873   0.117   2.876 -0.9968 -1.1825  0.0260
 6447SOL    HW219631   4.820   0.204   2.749  4.1393  1.9175 -0.2841
 6448SOL     OW19632   4.427   5.395   2.589 -0.1265  0.3934 -0.1321
 6448SOL    HW119633   4.489   5.456   2.539 -0.1838  1.4819  1.0573
 6448SOL    HW219634   4.480   5.323   2.634  0.2681  1.1236  0.6101
 6449SOL     OW19635   5.472   5.943   1.486 -0.0020  0.0607 -0.1068
 6449SOL    HW119636   5.488   5.961   1.583  0.5223  2.7681 -0.6154
 6449SOL    HW219637   5.555   5.907   1.445  1.1794  2.7397 -0.2892
 6450SOL     OW19638   2.595   4.997   3.818 -0.4163 -0.5968 -0.2214
 6450SOL    HW119639   2.629   5.020   3.909  1.3678 -1.9310 -0.5040
 6450SOL    HW219640   2.540   5.072   3.783 -0.3590  0.3284  1.5694
 6451SOL     OW19641   4.503   5.837   1.622 -0.0896 -0.3301 -0.6255
 6451SOL    HW119642   4.577   5.773   1.603  0.6895 -0.1060  1.4173
 6451SOL    HW219643   4.423   5.787   1.654  0.8248 -0.3203  1.8908
 6452SOL     OW19644   4.318   1.335   3.405  0.2188 -1.4815  0.4445
 6452SOL    HW119645   4.272   1.419   3.431  0.6969 -0.9439 -0.4040
 6452SOL    HW219646   4.413   1.339   3.436  0.3636 -1.5155  0.0006
 6453SOL     OW19647   5.929   5.225   4.216  0.2961 -0.1425 -0.3891
 6453SOL    HW119648   5.860   5.204   4.286  1.5722 -1.4044  0.5436
 6453SOL    HW219649   5.884   5.231   4.126 -1.2612  0.8095  0.4085
 6454SOL     OW19650   4.570   0.874   4.273 -0.2105  0.6513  0.0935
 6454SOL    HW119651   4.591   0.971   4.281 -0.7639  0.8057 -0.3011
 6454SOL    HW219652   4.471   0.861   4.271 -0.1978  0.3554 -2.6234
 6455SOL     OW19653   4.373   0.486   4.954  0.0258  0.2320 -0.0409
 6455SOL    HW119654   4.442   0.536   4.903 -0.8513  2.3249  0.7022
 6455SOL    HW219655   4.374   0.516   5.050  1.7318 -3.6557  1.3821
 6456SOL     OW19656   1.474   0.470   4.275 -0.1401  0.5351 -0.0097
 6456SOL    HW119657   1.463   0.489   4.372 -1.4650 -2.4988  0.5561
 6456SOL    HW219658   1.386   0.479   4.229  0.0681  0.0157 -0.5227
 6457SOL     OW19659   5.650   1.136   4.643  0.0713  0.0980 -0.0364
 6457SOL    HW119660   5.735   1.186   4.658  0.2310 -0.4218  0.8172
 6457SOL    HW219661   5.658   1.080   4.561 -0.4984  2.2861 -1.6994
 6458SOL     OW19662   0.101   1.471   4.837 -0.2849  0.1056 -0.0887
 6458SOL    HW119663   0.193   1.435   4.854 -0.7344 -0.3382  1.6428
 6458SOL    HW219664   0.046   1.401   4.792 -0.3849 -0.4605  0.8712
 6459SOL     OW19665   5.284   5.568   4.596 -0.3257  0.6380  0.0230
 6459SOL    HW119666   5.318   5.487   4.548  0.7095  0.6362  0.7326
 6459SOL    HW219667   5.265   5.544   4.692  0.1213  1.2532  0.2737
 6460SOL     OW19668   2.396   5.721   3.108 -0.1866 -0.4003 -0.6752
 6460SOL    HW119669   2.410   5.812   3.149  0.9102 -0.4318 -0.9374
 6460SOL    HW219670   2.322   5.726   3.041  0.5065  0.5444 -1.3934
 6461SOL     OW19671   4.456   4.815   3.780  0.5215 -0.2112 -0.3916
 6461SOL    HW119672   4.453   4.901   3.729 -1.3139  1.2264  1.9879
 6461SOL    HW219673   4.369   4.767   3.770  1.4832 -1.8213 -1.6015
 6462SOL     OW19674   5.511   0.630   5.158 -0.1006  0.1275 -0.2166
 6462SOL    HW119675   5.493   0.571   5.080  1.9699 -1.5530  0.5085
 6462SOL    HW219676   5.466   0.593   5.239 -0.0283  0.3963 -0.0512
 6463SOL     OW19677   5.293   1.615   5.037 -0.2861 -0.2145  0.1320
 6463SOL    HW119678   5.203   1.659   5.035  0.4512  1.3841 -2.5233
 6463SOL    HW219679   5.282   1.518   5.013 -1.1653  0.4058 -2.2555
 6464SOL     OW19680   4.250   5.493   4.812 -0.3834 -0.1274  0.3303
 6464SOL    HW119681   4.266   5.460   4.719 -1.0887 -0.7514  0.4186
 6464SOL    HW219682   4.309   5.445   4.876 -0.2369 -0.0380  0.2617
 6465SOL     OW19683   5.701   5.445   4.328 -0.2493  0.1617  0.4921
 6465SOL    HW119684   5.685   5.522   4.390  1.0415  1.1220 -0.2934
 6465SOL    HW219685   5.733   5.366   4.380 -1.1214  0.2971  1.2606
 6466SOL     OW19686   5.503   4.928   4.785 -0.1951 -0.2016 -0.4000
 6466SOL    HW119687   5.452   4.943   4.869  0.5160 -0.5886  0.1099
 6466SOL    HW219688   5.574   4.859   4.800 -1.2403 -1.6627 -1.8110
 6467SOL     OW19689   5.571   5.386   5.486 -0.0792 -0.1799 -0.8074
 6467SOL    HW119690   5.666   5.416   5.475 -0.0503 -0.5626 -1.6918
 6467SOL    HW219691   5.546   5.390   5.582  0.2076  1.8380 -0.7559
 6468SOL     OW19692   0.063   1.091   2.523  0.3968 -0.5596 -0.1120
 6468SOL    HW119693   0.146   1.105   2.469  0.2925  0.0688 -0.1151
 6468SOL    HW219694   0.010   1.017   2.483 -0.7272  1.2444 -2.1903
 6469SOL     OW19695   5.808   5.105   5.081 -0.2560  0.1455 -0.1209
 6469SOL    HW119696   5.751   5.084   5.159 -2.0332  1.0911 -1.1015
 6469SOL    HW219697   5.778   5.191   5.039  0.5514 -0.3756 -1.9020
 6470SOL     OW19698   3.168   4.564   0.111  0.1963  0.6027  0.0306
 6470SOL    HW119699   3.173   4.593   0.206  0.4806 -1.2809  0.6260
 6470SOL    HW219700   3.085   4.510   0.096  0.0360  1.0775 -0.8531
 6471SOL     OW19701   3.339   5.628   4.020  0.0945  0.2020 -0.7653
 6471SOL    HW119702   3.313   5.724   4.027 -1.2627 -0.1897 -0.1411
 6471SOL    HW219703   3.427   5.614   4.065  0.0505  1.0490 -0.3961
 6472SOL     OW19704   4.340   1.614   4.570 -0.2483 -0.1564  0.1808
 6472SOL    HW119705   4.260   1.669   4.546  0.4212  0.3747 -0.9633
 6472SOL    HW219706   4.374   1.642   4.659  0.5914  1.9926 -0.7362
 6473SOL     OW19707   5.044   0.115   4.482 -0.3106 -0.2824 -0.4313
 6473SOL    HW119708   5.108   0.039   4.486  1.4367  1.0508 -1.3134
 6473SOL    HW219709   4.965   0.090   4.426  0.7442 -1.1241 -1.5916
 6474SOL     OW19710   0.117   1.084   3.627 -0.1730 -0.5072  0.4959
 6474SOL    HW119711   0.127   0.996   3.581 -2.6947 -0.4791 -0.2970
 6474SOL    HW219712   0.032   1.127   3.597  1.1262  2.3667  0.6341
 6475SOL     OW19713   5.050   0.802   4.387  0.1332 -0.3281 -0.0252
 6475SOL    HW119714   5.056   0.823   4.289 -0.7129 -2.3788 -0.5703
 6475SOL    HW219715   4.968   0.747   4.405 -0.3062  0.8812  2.0376
 6476SOL     OW19716   3.300   5.018   3.194 -0.1276  0.5747 -0.8366
 6476SOL    HW119717   3.236   5.083   3.234 -2.1730 -0.6447 -1.9675
 6476SOL    HW219718   3.349   4.970   3.267 -1.2788  0.8020  0.1173
 6477SOL     OW19719   5.765   4.668   3.871 -0.0002 -0.0720  0.0672
 6477SOL    HW119720   5.715   4.629   3.794  1.3508  1.1355 -1.4957
 6477SOL    HW219721   5.811   4.595   3.922  0.2804 -0.7757 -1.1568
 6478SOL     OW19722   3.008   5.470   5.002  0.9801 -0.1342  0.1266
 6478SOL    HW119723   3.091   5.523   4.986  0.9047 -0.0710 -0.0569
 6478SOL    HW219724   2.931   5.532   5.018  0.7954 -0.1768 -0.5650
 6479SOL     OW19725   5.683   4.755   5.310  0.1077  0.2274 -0.4972
 6479SOL    HW119726   5.688   4.733   5.408  0.4103 -0.9059 -0.7524
 6479SOL    HW219727   5.683   4.854   5.298 -1.0807  0.4082  0.7061
 6480SOL     OW19728   0.316   4.585   3.998  0.4257  0.5980 -0.1953
 6480SOL    HW119729   0.290   4.677   4.028 -1.6122  0.1010 -0.2678
 6480SOL    HW219730   0.236   4.525   4.002  1.1790 -0.6454 -2.2075
 6481SOL     OW19731   3.860   2.613   5.607  0.0732 -0.7247 -0.6923
 6481SOL    HW119732   3.907   2.532   5.643  0.9364 -0.8840 -2.1073
 6481SOL    HW219733   3.926   2.687   5.595 -0.2697 -0.5345 -1.4878
 6482SOL     OW19734   2.851   5.898   5.202  0.1828 -0.2837  0.5337
 6482SOL    HW119735   2.817   5.843   5.278  0.4531 -0.0842  0.7991
 6482SOL    HW219736   2.891   5.983   5.236 -0.1009  0.0167  0.1362
 6483SOL     OW19737   4.280   5.787   3.756 -0.2887 -0.2013  0.3247
 6483SOL    HW119738   4.296   5.856   3.686  0.3362 -0.7709 -0.1036
 6483SOL    HW219739   4.267   5.698   3.713  0.6044 -0.6472  0.9579
 6484SOL     OW19740   3.114   1.636   5.406 -0.0973  1.0663 -0.3152
 6484SOL    HW119741   3.051   1.619   5.330 -1.1986 -0.5947  0.9293
 6484SOL    HW219742   3.195   1.578   5.396  0.8159  2.4545 -1.3580
 6485SOL     OW19743   4.770   4.659   5.084  1.1475  0.9645 -0.1228
 6485SOL    HW119744   4.868   4.663   5.103  1.5925 -1.0025 -1.6083
 6485SOL    HW219745   4.754   4.682   4.988  0.3345 -0.0787 -0.2559
 6486SOL     OW19746   0.303   5.186   4.744 -0.0608  0.2866  0.3497
 6486SOL    HW119747   0.221   5.197   4.800  0.2922  2.0304  0.5765
 6486SOL    HW219748   0.280   5.203   4.648 -0.5733 -2.2790 -0.0589
 6487SOL     OW19749   3.724   0.548   4.598 -0.2633 -0.3823  0.1220
 6487SOL    HW119750   3.687   0.641   4.601 -1.8676 -1.0176  0.9424
 6487SOL    HW219751   3.745   0.524   4.503  3.0472  1.8442  0.1068
 6488SOL     OW19752   5.339   5.715   4.912  0.0936  0.2954 -0.5774
 6488SOL    HW119753   5.400   5.655   4.965 -0.0427 -0.4553 -1.2438
 6488SOL    HW219754   5.387   5.748   4.832  0.5145  1.9647  0.3217
 6489SOL     OW19755   5.946   1.079   4.938 -0.2225 -0.5299 -0.3306
 6489SOL    HW119756   6.001   1.011   4.890  1.0992  0.1082  0.2171
 6489SOL    HW219757   5.858   1.039   4.962  0.2172 -1.7933 -0.7022
 6490SOL     OW19758   3.331   0.430   3.905 -1.1569 -0.4241  0.0875
 6490SOL    HW119759   3.295   0.484   3.829 -2.0088 -0.5060  0.4223
 6490SOL    HW219760   3.256   0.401   3.964 -0.6023 -1.1203  0.4706
 6491SOL     OW19761   4.595   0.950   3.882  0.1990  0.1442  0.2607
 6491SOL    HW119762   4.500   0.936   3.910 -0.2636 -0.2868 -1.4086
 6491SOL    HW219763   4.652   0.876   3.919 -0.0809  0.4397  1.3250
 6492SOL     OW19764   3.189   1.212   4.537  0.1436  0.3097 -0.0636
 6492SOL    HW119765   3.195   1.307   4.506  2.0043 -0.4956 -2.4097
 6492SOL    HW219766   3.113   1.167   4.491  0.1299  0.2777 -0.0102
 6493SOL     OW19767   4.805   0.709   5.438  0.6457 -0.4609 -0.5592
 6493SOL    HW119768   4.894   0.754   5.447  0.2748  0.6343 -1.8492
 6493SOL    HW219769   4.813   0.613   5.464  2.1519 -0.3315 -0.4334
 6494SOL     OW19770   1.342   5.060   5.561  0.0670  0.2037 -0.3371
 6494SOL    HW119771   1.409   5.081   5.632 -1.0858 -0.8636  1.1256
 6494SOL    HW219772   1.365   5.111   5.478  0.7009  2.5620  1.1734
 6495SOL     OW19773   0.682   5.127   3.968 -0.0146  0.4080  0.3351
 6495SOL    HW119774   0.722   5.218   3.957 -0.0739  0.7122  2.2326
 6495SOL    HW219775   0.597   5.134   4.020  1.0244 -0.8952  2.3297
 6496SOL     OW19776   4.065   2.182   4.001 -0.1996  1.0308 -0.4497
 6496SOL    HW119777   4.019   2.269   4.016 -1.5476  0.3982 -0.6930
 6496SOL    HW219778   4.001   2.107   4.021  1.2444  0.0704  0.7801
 6497SOL     OW19779   3.771   0.873   2.722  0.3146  0.1511  0.1009
 6497SOL    HW119780   3.789   0.876   2.820 -0.4631  0.2743  0.2481
 6497SOL    HW219781   3.799   0.784   2.685 -0.2985 -0.2671  0.6234
 6498SOL     OW19782   4.930   5.673   4.132 -0.3573  0.2600  0.0608
 6498SOL    HW119783   4.929   5.758   4.080 -1.1684 -0.5256 -1.2473
 6498SOL    HW219784   5.005   5.676   4.198  0.2537  1.5649 -0.6499
 6499SOL     OW19785   4.595   3.400   0.027  0.4300  0.3094  0.1759
 6499SOL    HW119786   4.661   3.325   0.027 -0.2331 -0.2892  0.7113
 6499SOL    HW219787   4.579   3.430   0.121  0.7252  1.1716 -0.0354
 6500SOL     OW19788   4.072   5.282   1.021 -0.3383 -0.7119 -0.2179
 6500SOL    HW119789   3.996   5.334   0.983 -0.3408 -0.8158 -0.3570
 6500SOL    HW219790   4.037   5.198   1.062 -0.1509 -1.4875 -1.5884
 6501SOL     OW19791   0.027   5.320   0.133  0.3184  0.1236  0.0646
 6501SOL    HW119792   0.012   5.361   0.223 -0.2905 -1.2751  0.6307
 6501SOL    HW219793  -0.000   5.384   0.062  0.7106  1.2122  0.8666
 6502SOL     OW19794   0.415   3.851   1.286 -0.1390 -0.1527 -0.4554
 6502SOL    HW119795   0.322   3.828   1.257 -0.4791  0.9876 -0.3121
 6502SOL    HW219796   0.415   3.940   1.331  1.3224  0.7374 -2.1066
 6503SOL     OW19797   5.878   0.430   5.541  0.5805  0.8064 -0.1673
 6503SOL    HW119798   5.844   0.404   5.451  0.3796  0.7248 -0.0693
 6503SOL    HW219799   5.977   0.442   5.537  1.0510 -2.1841  0.2729
 6504SOL     OW19800   3.673   5.266   0.793  0.3015  0.2037  0.1556
 6504SOL    HW119801   3.598   5.330   0.810  1.4748  1.5333  0.5615
 6504SOL    HW219802   3.650   5.176   0.829 -1.1154  0.5655  0.1994
 6505SOL     OW19803   5.434   5.288   0.377  0.1752 -0.7938  0.5585
 6505SOL    HW119804   5.485   5.203   0.378  0.5152 -0.7147 -2.0542
 6505SOL    HW219805   5.468   5.347   0.303 -0.0344  1.6550  2.2733
 6506SOL     OW19806   2.766   0.517   5.704 -0.0988  0.2287 -0.5622
 6506SOL    HW119807   2.834   0.586   5.729  0.2368 -0.4464  0.4560
 6506SOL    HW219808   2.712   0.550   5.627  2.6150 -0.0156 -2.6995
 6507SOL     OW19809   5.070   2.847   4.570 -0.1795  0.4533  0.6017
 6507SOL    HW119810   5.152   2.807   4.529 -0.5580 -0.3957  0.6529
 6507SOL    HW219811   5.096   2.920   4.634  0.4288  1.7764 -1.0742
 6508SOL     OW19812   5.556   5.100   4.576 -0.2504  0.4539 -0.5409
 6508SOL    HW119813   5.519   5.047   4.500  0.4386 -0.5203 -0.2169
 6508SOL    HW219814   5.551   5.046   4.660  1.3332  0.5072 -0.3777
 6509SOL     OW19815   4.308   0.258   5.439  0.0298 -0.2161  0.3743
 6509SOL    HW119816   4.237   0.311   5.394 -0.2152 -0.3175  0.6413
 6509SOL    HW219817   4.313   0.167   5.397  1.8285  0.6529 -1.4827
 6510SOL     OW19818   2.894   1.445   1.501 -0.3945  0.2718 -0.2808
 6510SOL    HW119819   2.800   1.450   1.536 -0.4574  1.5413 -0.5715
 6510SOL    HW219820   2.930   1.353   1.514 -1.5900 -0.1601  0.0732
 6511SOL     OW19821   2.638   5.396   5.054  0.0287  0.1513  0.3915
 6511SOL    HW119822   2.569   5.418   5.123 -0.0788  0.3297  0.2297
 6511SOL    HW219823   2.622   5.303   5.019 -0.2418  0.2583  0.2236
 6512SOL     OW19824   5.843   0.722   3.841  0.0299 -0.0566 -0.3539
 6512SOL    HW119825   5.835   0.669   3.926 -0.1472  0.3752 -0.0960
 6512SOL    HW219826   5.927   0.776   3.843 -0.1728  0.2639 -0.2680
 6513SOL     OW19827   0.148   4.852   5.323 -0.0116 -0.0300 -0.1565
 6513SOL    HW119828   0.239   4.872   5.288  0.9734 -1.5823  1.3161
 6513SOL    HW219829   0.145   4.872   5.421 -1.4070  0.4023 -0.2650
 6514SOL     OW19830   5.923   5.710   3.335 -0.2012  0.2474  0.0842
 6514SOL    HW119831   5.913   5.617   3.300 -1.1159  0.2118  0.4081
 6514SOL    HW219832   5.927   5.775   3.259 -0.3257  0.0065 -0.1270
 6515SOL     OW19833   0.250   0.638   1.410 -0.4995 -0.2343  0.2529
 6515SOL    HW119834   0.304   0.720   1.428 -0.9111 -0.3544  2.1722
 6515SOL    HW219835   0.298   0.557   1.444 -0.2798 -0.7923 -1.2695
 6516SOL     OW19836   1.952   0.926   2.045  0.5417 -0.2110  0.2674
 6516SOL    HW119837   1.877   0.971   2.093 -0.6256 -1.4378 -0.3370
 6516SOL    HW219838   2.009   0.877   2.111 -1.1521 -2.0439  0.4672
 6517SOL     OW19839   5.447   0.657   1.378  0.3784 -0.5503  0.0797
 6517SOL    HW119840   5.490   0.594   1.313 -0.2780 -0.8772 -0.0386
 6517SOL    HW219841   5.518   0.716   1.418  1.0362 -1.5466  0.4103
 6518SOL     OW19842   5.232   2.142   3.162  0.4979  0.0364 -0.2938
 6518SOL    HW119843   5.313   2.158   3.105  0.6357  0.7174  0.0781
 6518SOL    HW219844   5.165   2.214   3.146  0.0012 -0.4750 -0.5282
 6519SOL     OW19845   4.882   0.951   0.529 -0.4767 -0.4406  0.0084
 6519SOL    HW119846   4.976   0.966   0.498 -1.3069  2.4832 -1.3972
 6519SOL    HW219847   4.881   0.878   0.598  2.4459 -2.2783 -1.6866
 6520SOL     OW19848   5.098   2.156   0.542  0.3561 -0.1421 -0.1223
 6520SOL    HW119849   5.176   2.218   0.541  0.5823 -0.4093 -1.9610
 6520SOL    HW219850   5.118   2.075   0.487  0.0476 -1.8781  2.1594
 6521SOL     OW19851   0.037   5.847   1.364 -0.5282  0.1986 -0.1446
 6521SOL    HW119852   0.091   5.930   1.349 -2.2149  1.6024  1.0945
 6521SOL    HW219853   0.098   5.769   1.377  1.2151  1.6887  1.2207
 6522SOL     OW19854   5.034   2.506   0.169 -0.5800  0.3762  0.1332
 6522SOL    HW119855   5.116   2.546   0.210 -0.1681  1.9347 -2.0579
 6522SOL    HW219856   4.966   2.577   0.152 -0.7211 -0.1572 -1.8480
 6523SOL     OW19857   0.134   5.525   0.520  0.3484  0.0846  1.0215
 6523SOL    HW119858   0.131   5.587   0.599  2.7884  0.7560  0.6865
 6523SOL    HW219859   0.130   5.431   0.551 -2.2363  0.3283  1.6351
 6524SOL     OW19860   4.853   0.795   0.105  0.1668 -0.6897  0.7162
 6524SOL    HW119861   4.823   0.765   0.196  1.7547 -2.0131  0.8546
 6524SOL    HW219862   4.834   0.893   0.094 -0.0742 -0.5123  2.4606
 6525SOL     OW19863   5.541   1.090   1.136 -0.0448 -0.5081  0.0276
 6525SOL    HW119864   5.496   1.002   1.154 -0.3548 -0.9888 -2.6298
 6525SOL    HW219865   5.553   1.101   1.037  1.0760  1.9351  0.3718
 6526SOL     OW19866   4.669   1.411   1.236 -0.1104 -0.1095  0.1353
 6526SOL    HW119867   4.671   1.440   1.140 -0.1436  2.5436  0.8354
 6526SOL    HW219868   4.578   1.426   1.273  0.2670  0.2761  0.9334
 6527SOL     OW19869   4.878   4.599   0.926  0.1000  0.1053 -0.1841
 6527SOL    HW119870   4.921   4.639   1.007  0.0438  1.2754 -0.7053
 6527SOL    HW219871   4.828   4.670   0.877 -0.1247 -0.6526 -1.0743
 6528SOL     OW19872   3.210   2.670   5.377  0.5558 -0.0709  0.2461
 6528SOL    HW119873   3.142   2.715   5.435 -0.2894 -1.1821  0.1691
 6528SOL    HW219874   3.216   2.717   5.289 -0.0969  0.0726  0.2726
 6529SOL     OW19875   5.228   2.019   5.849 -0.2084 -0.3835  0.3451
 6529SOL    HW119876   5.205   2.105   5.895 -0.5920 -0.8337  1.0115
 6529SOL    HW219877   5.151   1.955   5.857 -0.0712 -0.6657 -0.4655
 6530SOL     OW19878   5.454   0.481   4.942  0.4059 -0.4436 -0.1300
 6530SOL    HW119879   5.356   0.466   4.935  0.4605 -0.8371 -0.1113
 6530SOL    HW219880   5.502   0.404   4.899  0.6975  0.7271 -1.9702
 6531SOL     OW19881   5.935   0.412   0.382  0.0710 -0.0794 -0.0930
 6531SOL    HW119882   5.925   0.473   0.460  0.7678 -0.3113  0.1890
 6531SOL    HW219883   5.845   0.386   0.347 -0.2363  0.5671  0.2055
 6532SOL     OW19884   0.576   0.589   3.165 -0.2466  0.9139  0.2147
 6532SOL    HW119885   0.550   0.599   3.069 -0.2948 -0.0468  0.1213
 6532SOL    HW219886   0.671   0.618   3.177  0.1506 -0.1138 -0.3598
 6533SOL     OW19887   5.298   4.684   1.386 -0.3610 -0.2570  0.1341
 6533SOL    HW119888   5.212   4.710   1.432  0.4921  2.3236  0.4633
 6533SOL    HW219889   5.372   4.685   1.452  0.3241  0.1383 -0.6221
 6534SOL     OW19890   3.775   4.411   2.077  0.3930 -0.2543  0.0047
 6534SOL    HW119891   3.774   4.498   2.028 -2.2079  0.2023  0.7057
 6534SOL    HW219892   3.765   4.429   2.175 -0.8865 -1.3218  0.0948
 6535SOL     OW19893   4.497   0.422   3.374 -0.0657  0.5045  0.0619
 6535SOL    HW119894   4.466   0.367   3.296 -0.8996  0.3593  0.4926
 6535SOL    HW219895   4.517   0.362   3.452 -2.2146  0.8675  0.9549
 6536SOL     OW19896   0.276   1.768   0.001 -0.5905  0.7538  0.5358
 6536SOL    HW119897   0.366   1.812   0.004  0.0952 -0.6065  0.7733
 6536SOL    HW219898   0.229   1.784   0.088 -0.4856  1.2909  0.4957
 6537SOL     OW19899   4.282   2.758   0.526 -0.1413 -0.0579 -0.4601
 6537SOL    HW119900   4.258   2.756   0.429  1.8073  0.1779 -0.9893
 6537SOL    HW219901   4.228   2.690   0.576  0.6908 -2.0899 -2.1876
 6538SOL     OW19902   5.399   1.107   5.179 -0.9488 -0.3504  0.0113
 6538SOL    HW119903   5.332   1.155   5.236 -0.3720  1.3086 -0.6555
 6538SOL    HW219904   5.486   1.157   5.181 -0.9929 -0.0732 -2.5207
 6539SOL     OW19905   4.849   1.098   0.759 -0.2568 -0.3135  0.5038
 6539SOL    HW119906   4.833   1.195   0.742 -0.1767 -0.2354  0.8679
 6539SOL    HW219907   4.856   1.050   0.671 -1.0725 -0.1209  0.3182
 6540SOL     OW19908   5.645   5.312   0.988 -0.0988 -0.3913  0.0891
 6540SOL    HW119909   5.546   5.302   0.978 -0.3103  0.6974  0.8873
 6540SOL    HW219910   5.666   5.405   1.019  1.0567 -1.0755  1.4621
 6541SOL     OW19911   0.693   1.882   2.412 -0.3697  0.2124 -0.4439
 6541SOL    HW119912   0.748   1.810   2.454 -1.3124  0.2615  0.9586
 6541SOL    HW219913   0.688   1.960   2.474  0.8617  1.6443 -2.0547
 6542SOL     OW19914   5.395   1.030   2.111  0.0153 -0.2952 -0.3147
 6542SOL    HW119915   5.354   0.939   2.105 -1.3223  0.3082 -0.7161
 6542SOL    HW219916   5.435   1.055   2.022 -0.9138  0.0812 -0.6379
 6543SOL     OW19917   5.517   1.502   1.059  0.0276 -0.1178  0.1456
 6543SOL    HW119918   5.508   1.417   1.110 -0.5152  0.0637  0.3609
 6543SOL    HW219919   5.471   1.575   1.109 -0.2799  0.1178 -0.4829
 6544SOL     OW19920   0.367   1.573   0.288 -0.3644  0.8056 -0.4230
 6544SOL    HW119921   0.362   1.483   0.331 -0.3414  1.3881  0.8355
 6544SOL    HW219922   0.278   1.617   0.291 -0.0681  1.3848  0.2399
 6545SOL     OW19923   0.165   1.171   1.447  0.2668 -0.0667 -0.3417
 6545SOL    HW119924   0.192   1.084   1.405  0.9146 -0.7092  1.3131
 6545SOL    HW219925   0.073   1.164   1.484  0.0253  0.2172 -0.8751
 6546SOL     OW19926   1.313   0.625   1.750 -0.1545 -0.1737  0.1808
 6546SOL    HW119927   1.311   0.573   1.835  1.5433  1.0400  1.0279
 6546SOL    HW219928   1.281   0.719   1.768  2.1081  0.6847 -0.0124
 6547SOL     OW19929   1.113   0.022   4.304  0.1344  0.8707  0.2608
 6547SOL    HW119930   1.172   0.081   4.248  0.7557  0.5089  0.5254
 6547SOL    HW219931   1.147   0.021   4.398 -0.9377  1.5326  0.6802
 6548SOL     OW19932   5.320   0.277   0.989  0.0843 -0.0362  0.2748
 6548SOL    HW119933   5.259   0.262   1.067 -1.1218  0.7751 -0.4868
 6548SOL    HW219934   5.321   0.374   0.966  0.5467 -0.2496 -0.6358
 6549SOL     OW19935   5.178   5.231   3.689 -0.9108 -0.0758  0.5147
 6549SOL    HW119936   5.099   5.291   3.703 -1.3238 -0.6460  0.6706
 6549SOL    HW219937   5.242   5.274   3.626 -1.3893  0.3616  0.3211
 6550SOL     OW19938   3.477   1.630   5.580 -0.0045  0.2491 -0.1919
 6550SOL    HW119939   3.420   1.578   5.517  0.2807  0.3552 -0.5396
 6550SOL    HW219940   3.455   1.727   5.572 -0.4625  0.1981  0.3806
 6551SOL     OW19941   2.630   1.581   4.806 -0.5263 -0.0037 -0.2134
 6551SOL    HW119942   2.702   1.622   4.862 -0.8477  0.4432 -0.1225
 6551SOL    HW219943   2.542   1.593   4.852 -0.7504  0.0689 -0.6557
 6552SOL     OW19944   4.950   2.489   1.151  0.1572 -0.2924 -0.2329
 6552SOL    HW119945   4.964   2.419   1.081 -0.3828  0.3609 -1.0134
 6552SOL    HW219946   4.871   2.465   1.207 -1.2229  0.6278 -1.7264
 6553SOL     OW19947   0.415   0.161   3.958 -0.1134  0.5077  1.0366
 6553SOL    HW119948   0.465   0.091   3.908 -1.4957  0.0143  0.2922
 6553SOL    HW219949   0.478   0.234   3.984  0.6765  0.8451 -1.5021
 6554SOL     OW19950   5.163   5.835   2.815 -0.8120  0.1281 -0.0081
 6554SOL    HW119951   5.092   5.767   2.831 -0.8185  0.3456  1.0166
 6554SOL    HW219952   5.122   5.926   2.813 -0.6916  0.1738 -0.4820
 6555SOL     OW19953   5.373   5.657   2.771  0.0842 -0.2104 -0.1432
 6555SOL    HW119954   5.306   5.719   2.811  2.0143  0.9009  1.5934
 6555SOL    HW219955   5.405   5.694   2.684 -0.2169  0.2078 -0.0803
 6556SOL     OW19956   4.118   1.270   3.917 -0.2005 -0.0221  0.2392
 6556SOL    HW119957   4.190   1.285   3.848 -0.2981  0.9109  0.3174
 6556SOL    HW219958   4.144   1.317   4.001 -2.2421  3.0256 -0.6585
 6557SOL     OW19959   0.571   0.999   2.751 -0.1334  0.1039 -0.0500
 6557SOL    HW119960   0.609   0.958   2.668  0.2184  0.9996 -0.3463
 6557SOL    HW219961   0.520   1.082   2.727  1.5283  1.4455  0.7650
 6558SOL     OW19962   5.338   1.949   1.938  0.3402 -0.3607  0.6729
 6558SOL    HW119963   5.323   1.877   2.006  1.5338  0.0075  1.3436
 6558SOL    HW219964   5.415   1.924   1.879  0.6302  0.2758  0.7766
 6559SOL     OW19965   2.200   0.574   3.124 -0.1158 -0.2098 -0.4106
 6559SOL    HW119966   2.245   0.603   3.208 -0.2901  0.7789 -0.6431
 6559SOL    HW219967   2.111   0.618   3.117 -0.0396 -0.1566 -1.1748
 6560SOL     OW19968   3.696   1.851   2.960 -0.3828 -1.1975  0.7445
 6560SOL    HW119969   3.765   1.856   3.032  0.5588 -0.3128 -0.1716
 6560SOL    HW219970   3.672   1.755   2.943  0.6512 -1.5277  1.0700
 6561SOL     OW19971   1.165   2.393   1.496 -0.6413 -0.0569  0.0535
 6561SOL    HW119972   1.130   2.480   1.459 -1.8413 -0.4287  0.2493
 6561SOL    HW219973   1.113   2.317   1.456  0.1704 -0.6657  0.1408
 6562SOL     OW19974   5.818   1.070   3.501 -0.0738  0.0174  0.5555
 6562SOL    HW119975   5.747   1.086   3.570  0.1906 -1.0115  1.0968
 6562SOL    HW219976   5.796   0.986   3.451 -0.4168  0.9054 -0.8376
 6563SOL     OW19977   5.135   1.851   3.593  0.0758 -0.4003  0.3379
 6563SOL    HW119978   5.156   1.774   3.653  0.3783  0.8408  1.8930
 6563SOL    HW219979   5.131   1.819   3.498  3.4917 -1.7262  0.5011
 6564SOL     OW19980   1.759   0.614   3.235 -0.0038 -0.4405 -0.0864
 6564SOL    HW119981   1.760   0.660   3.324 -0.0834 -3.7225  1.7806
 6564SOL    HW219982   1.664   0.596   3.208  0.0620 -1.2954  0.2358
 6565SOL     OW19983   5.743   1.821   3.641  0.0465  0.7274  0.0378
 6565SOL    HW119984   5.726   1.723   3.632 -0.3183  0.7893  0.0050
 6565SOL    HW219985   5.707   1.852   3.729 -0.5376  0.9719 -0.2815
 6566SOL     OW19986   0.885   0.971   4.901 -0.0116 -0.0385  0.6852
 6566SOL    HW119987   0.953   1.041   4.924  0.8298 -0.1427 -1.2799
 6566SOL    HW219988   0.901   0.890   4.956  0.8146  0.3104  0.9766
 6567SOL     OW19989   4.730   1.317   2.110 -0.3064 -0.0129  0.0187
 6567SOL    HW119990   4.633   1.343   2.106 -0.1324  0.5313 -0.9431
 6567SOL    HW219991   4.758   1.310   2.206 -1.4151 -0.6723  0.3203
 6568SOL     OW19992   4.623   2.928   2.721  0.0232 -0.3195 -0.1710
 6568SOL    HW119993   4.549   2.880   2.767 -1.2672  2.4610  0.8326
 6568SOL    HW219994   4.711   2.890   2.751 -0.8889 -1.1555  1.6003
 6569SOL     OW19995   5.360   5.289   1.310 -0.0289  0.1243  0.1989
 6569SOL    HW119996   5.281   5.230   1.331  1.1178 -2.1541 -1.5076
 6569SOL    HW219997   5.384   5.279   1.214  1.1243  2.3747  0.2020
 6570SOL     OW19998   5.710   0.514   2.631  0.0632  0.4438 -0.3342
 6570SOL    HW119999   5.771   0.469   2.697 -2.0296 -1.2942  0.5557
 6570SOL    HW220000   5.711   0.464   2.545 -1.0517 -0.4541  0.1339
 6571SOL     OW20001   0.792   2.296   3.626 -0.6280 -0.1908 -0.3659
 6571SOL    HW120002   0.793   2.235   3.705 -0.9488  1.4439  0.9584
 6571SOL    HW220003   0.838   2.382   3.649 -0.9459  0.4228 -1.8776
 6572SOL     OW20004   0.800   0.962   3.910  0.1461 -0.0462 -0.4137
 6572SOL    HW120005   0.771   1.000   3.998  1.6996  0.4373 -0.0856
 6572SOL    HW220006   0.719   0.937   3.856 -0.9093  2.2358  0.0119
 6573SOL     OW20007   0.257   0.551   5.014 -0.0080 -0.2947 -0.2320
 6573SOL    HW120008   0.201   0.559   5.097 -1.1914 -1.3059 -0.8937
 6573SOL    HW220009   0.314   0.469   5.020  1.0123  0.4243  0.1901
 6574SOL     OW20010   1.147   1.279   3.231  0.0457  0.1641 -0.0411
 6574SOL    HW120011   1.124   1.201   3.290  1.4075  0.1458  0.4935
 6574SOL    HW220012   1.246   1.288   3.225 -0.0925  1.7391 -0.2775
 6575SOL     OW20013   0.577   0.725   4.060  0.0121  0.4545 -0.1422
 6575SOL    HW120014   0.484   0.723   4.023  0.0649  0.0094 -0.2528
 6575SOL    HW220015   0.643   0.740   3.986  0.0981 -0.1736 -0.1945
 6576SOL     OW20016   4.714   5.517   4.120 -0.0308  0.4620  0.5322
 6576SOL    HW120017   4.738   5.440   4.180 -0.1355  0.4847  0.6024
 6576SOL    HW220018   4.790   5.583   4.120  1.3829 -1.0211 -1.8328
 6577SOL     OW20019   2.377   0.073   3.175 -0.0500 -0.3238  0.8741
 6577SOL    HW120020   2.283   0.047   3.197 -0.3605  0.2669  0.2861
 6577SOL    HW220021   2.376   0.154   3.117  0.7981 -0.7286  0.2689
 6578SOL     OW20022   1.533   1.003   1.285  0.3079 -0.8872 -0.1244
 6578SOL    HW120023   1.574   1.077   1.337 -1.0164  0.4672 -0.9419
 6578SOL    HW220024   1.485   0.941   1.347 -1.8896  1.1039  0.3140
 6579SOL     OW20025   4.678   5.821   4.222  0.3857 -0.2540  0.2050
 6579SOL    HW120026   4.596   5.849   4.271  0.8478 -1.5839  1.8288
 6579SOL    HW220027   4.654   5.751   4.154  0.1727 -0.8300  0.8545
 6580SOL     OW20028   0.634   4.486   5.119 -0.0889 -0.3868  0.2334
 6580SOL    HW120029   0.613   4.524   5.209  0.8583 -0.1179  0.3450
 6580SOL    HW220030   0.615   4.556   5.049  0.6344 -0.0654  0.3527
 6581SOL     OW20031   1.124   5.646   5.481 -0.6164 -0.3676 -0.1589
 6581SOL    HW120032   1.120   5.712   5.406 -1.1964 -1.0938 -0.7845
 6581SOL    HW220033   1.191   5.676   5.548 -0.8856  0.8632 -0.4184
 6582SOL     OW20034   5.208   1.279   3.995  0.2424  0.2814  0.0599
 6582SOL    HW120035   5.272   1.317   3.929 -0.3077  1.3326  0.1126
 6582SOL    HW220036   5.120   1.261   3.950 -0.2789  1.4205  0.5662
 6583SOL     OW20037   4.896   0.068   1.888 -0.5117 -0.2880  0.0189
 6583SOL    HW120038   4.801   0.060   1.860 -0.7882  3.0123 -0.3621
 6583SOL    HW220039   4.955   0.078   1.808  0.2963 -2.6802  0.2266
 6584SOL     OW20040   0.402   5.660   4.901  0.2172  0.2230  0.1085
 6584SOL    HW120041   0.455   5.598   4.843 -0.3416  0.5687 -0.7975
 6584SOL    HW220042   0.449   5.748   4.909 -0.3878  0.6757 -1.0455
 6585SOL     OW20043   0.115   1.440   5.558 -0.8057 -0.3864  0.2557
 6585SOL    HW120044   0.165   1.431   5.644 -0.4159  1.5878  0.2785
 6585SOL    HW220045   0.176   1.422   5.482 -0.2787  1.0442  0.3167
 6586SOL     OW20046   4.930   1.604   5.063  0.2453 -0.3437 -0.5530
 6586SOL    HW120047   4.857   1.589   5.130  0.5963 -0.5577 -0.2172
 6586SOL    HW220048   4.968   1.695   5.075  1.7963 -1.1465  1.0087
 6587SOL     OW20049   0.651   5.864   0.208 -0.5391  0.5905  0.3909
 6587SOL    HW120050   0.678   5.891   0.115 -0.8236 -0.7045 -0.0810
 6587SOL    HW220051   0.679   5.936   0.272 -2.0033  2.4354 -0.8929
 6588SOL     OW20052   0.917   5.359   1.984 -1.0322  0.1571 -0.3689
 6588SOL    HW120053   0.984   5.423   2.022 -1.0824 -0.4819  0.8318
 6588SOL    HW220054   0.869   5.403   1.908 -1.1965  1.6259  0.5379
 6589SOL     OW20055   1.918   0.405   4.108  0.1234 -0.2060 -0.3864
 6589SOL    HW120056   1.938   0.391   4.206  2.4452  0.2610 -0.7276
 6589SOL    HW220057   1.825   0.439   4.098 -1.3282 -3.2247  1.3954
 6590SOL     OW20058   1.179   5.649   3.146  0.1775  0.3949 -0.2013
 6590SOL    HW120059   1.081   5.662   3.158 -0.5715 -2.8474 -1.7027
 6590SOL    HW220060   1.213   5.586   3.215  1.2801  1.5428  0.3486
 6591SOL     OW20061   5.834   5.457   0.713 -0.0646 -0.7026 -0.3108
 6591SOL    HW120062   5.792   5.469   0.802  2.2233  0.7890  0.6714
 6591SOL    HW220063   5.794   5.521   0.648 -1.2916 -1.3494 -0.2181
 6592SOL     OW20064   1.319   4.979   4.731 -0.4045 -0.2497 -0.6815
 6592SOL    HW120065   1.395   4.916   4.715 -1.0402 -0.9302 -1.0389
 6592SOL    HW220066   1.286   4.969   4.825 -1.5717 -1.6498 -1.2075
 6593SOL     OW20067   5.239   5.574   5.387  0.0946  0.8155 -0.2284
 6593SOL    HW120068   5.202   5.518   5.312  1.1144  2.5903 -2.1553
 6593SOL    HW220069   5.179   5.652   5.403  1.1224  1.7650 -0.9133
 6594SOL     OW20070   0.712   0.291   4.982  0.0978  0.0729  0.3859
 6594SOL    HW120071   0.613   0.275   4.978  0.1579 -0.2753  0.2612
 6594SOL    HW220072   0.757   0.212   5.022  0.1638  0.9422  2.1409
 6595SOL     OW20073   5.567   1.587   5.011  0.7389  0.6361  0.1744
 6595SOL    HW120074   5.592   1.628   5.099  0.1063 -1.6163  1.4887
 6595SOL    HW220075   5.467   1.590   5.000  0.8195  0.9892 -0.5443
 6596SOL     OW20076   0.128   0.839   4.899 -0.0147 -0.3630  0.1253
 6596SOL    HW120077   0.079   0.785   4.831 -1.1267  0.2158  0.4412
 6596SOL    HW220078   0.216   0.795   4.920 -1.0612 -2.2810  0.6975
 6597SOL     OW20079   1.358   2.561   3.090  0.8555  0.4418  0.0044
 6597SOL    HW120080   1.392   2.522   3.005  0.0177  0.1548 -0.2055
 6597SOL    HW220081   1.347   2.660   3.078 -2.0901  0.0429 -1.2377
 6598SOL     OW20082   4.985   2.544   5.755 -0.6097 -0.5281 -0.5708
 6598SOL    HW120083   4.964   2.606   5.679 -2.2905 -1.5244 -0.9821
 6598SOL    HW220084   4.998   2.597   5.839  0.3889  0.5269 -1.3698
 6599SOL     OW20085   0.873   0.824   5.281  0.2713  0.4460  0.1387
 6599SOL    HW120086   0.913   0.761   5.215 -0.3528 -1.0796  1.1764
 6599SOL    HW220087   0.912   0.807   5.372  0.3999  1.8485  0.3791
 6600SOL     OW20088   5.743   0.156   3.464 -0.5534  0.2313  0.0341
 6600SOL    HW120089   5.787   0.071   3.492  0.9618  0.6661 -0.8698
 6600SOL    HW220090   5.695   0.197   3.541 -2.7946 -2.2544  0.1132
 6601SOL     OW20091   0.958   1.072   3.044 -0.2211  0.4518  0.3463
 6601SOL    HW120092   0.987   1.143   3.108  0.3434  0.1895  0.3868
 6601SOL    HW220093   0.977   0.982   3.083  1.5015  0.2769 -0.7618
 6602SOL     OW20094   1.106   4.975   5.706  0.5227  0.5746  0.0287
 6602SOL    HW120095   1.180   5.005   5.647  0.1085 -0.2763 -0.9522
 6602SOL    HW220096   1.142   4.913   5.776  1.2032  2.4354  1.4204
 6603SOL     OW20097   4.092   1.705   4.528  0.4799 -0.1626 -0.2516
 6603SOL    HW120098   4.029   1.757   4.586 -0.8075  0.9210 -2.4744
 6603SOL    HW220099   4.146   1.768   4.473  2.7869 -1.1207  0.7997
 6604SOL     OW20100   5.920   1.732   5.674 -0.4365 -0.5530  0.4654
 6604SOL    HW120101   5.878   1.744   5.584 -0.6415 -3.0448  0.1448
 6604SOL    HW220102   6.008   1.685   5.664 -0.7713 -1.4752  1.5862
 6605SOL     OW20103   4.456   2.554   4.314  0.2722 -0.4324 -0.0219
 6605SOL    HW120104   4.547   2.585   4.340 -0.3830  0.7539  0.9671
 6605SOL    HW220105   4.389   2.588   4.380 -1.1010  0.1924 -1.6696
 6606SOL     OW20106   5.079   0.972   5.323 -0.2013 -0.0872 -0.4228
 6606SOL    HW120107   5.096   0.948   5.227  1.0843 -1.5307  0.1295
 6606SOL    HW220108   5.091   0.891   5.380  0.1138  0.9835  1.0867
 6607SOL     OW20109   5.750   2.924   3.769  0.0272 -0.1225 -0.0834
 6607SOL    HW120110   5.843   2.892   3.781  0.8672  1.1954 -2.3426
 6607SOL    HW220111   5.733   2.940   3.671 -2.0058  1.2191  0.4246
 6608SOL     OW20112   0.107   2.269   3.496 -0.4947 -0.3757  0.1172
 6608SOL    HW120113   0.080   2.274   3.592 -1.3830 -0.0560 -0.1417
 6608SOL    HW220114   0.206   2.282   3.489 -0.4391 -0.2536  0.9751
 6609SOL     OW20115   5.491   0.939   4.246  0.5860 -0.1534  0.0307
 6609SOL    HW120116   5.445   0.861   4.288  0.4246 -0.7643 -1.2352
 6609SOL    HW220117   5.427   0.986   4.185  0.9129  0.4953  0.1865
 6610SOL     OW20118   1.516   0.486   5.542 -0.5744  0.3196  0.1529
 6610SOL    HW120119   1.487   0.401   5.587 -0.6647  0.2709  0.0044
 6610SOL    HW220120   1.600   0.470   5.491 -0.1398  0.5262  0.7974
 6611SOL     OW20121   0.220   2.306   4.147 -0.3619 -0.6866  0.2759
 6611SOL    HW120122   0.314   2.326   4.121 -1.1073  2.8027 -0.1991
 6611SOL    HW220123   0.176   2.251   4.075  0.6499 -0.3439 -0.6184
 6612SOL     OW20124   5.296   0.966   4.944 -0.6252  0.3365 -0.6571
 6612SOL    HW120125   5.341   1.007   5.024 -2.5638 -1.1320  1.3031
 6612SOL    HW220126   5.355   0.894   4.906  0.6866  1.6175 -1.1399
 6613SOL     OW20127   0.322   0.840   5.750  0.0209 -0.2294 -0.5219
 6613SOL    HW120128   0.235   0.790   5.756  0.6790 -1.2661  1.0518
 6613SOL    HW220129   0.392   0.791   5.800  0.8987  1.9174  0.4826
 6614SOL     OW20130   1.939   5.099   0.388 -0.4265 -0.5465  0.3672
 6614SOL    HW120131   1.854   5.147   0.408  0.9092  1.2182  2.2642
 6614SOL    HW220132   1.927   5.043   0.306 -3.9794 -2.0261  1.6960
 6615SOL     OW20133   4.750   2.943   5.045  0.0209 -0.2542  0.2071
 6615SOL    HW120134   4.825   2.944   4.978  1.0498 -1.8099  1.2742
 6615SOL    HW220135   4.779   2.893   5.127 -1.4584  0.9790  1.5470
 6616SOL     OW20136   4.700   0.875   2.652  0.0798 -0.1310 -0.1427
 6616SOL    HW120137   4.762   0.857   2.729 -1.0071 -2.5390  0.2721
 6616SOL    HW220138   4.751   0.922   2.579  1.9930 -0.6420  0.7826
 6617SOL     OW20139   4.157   3.553   3.431 -0.2091 -1.0015  0.1187
 6617SOL    HW120140   4.099   3.543   3.512 -0.5290  0.1782  0.0508
 6617SOL    HW220141   4.130   3.485   3.363  0.3496 -2.2913  1.1459
 6618SOL     OW20142   0.577   2.861   3.449 -0.0526 -0.1917  0.2608
 6618SOL    HW120143   0.575   2.960   3.465 -2.6349  0.5046 -3.0503
 6618SOL    HW220144   0.492   2.820   3.480  0.2659 -1.0391  0.0521
 6619SOL     OW20145   1.005   0.304   3.892  0.0567  0.3386 -0.1579
 6619SOL    HW120146   0.927   0.242   3.903  1.6269 -1.5816  0.6409
 6619SOL    HW220147   1.019   0.357   3.976  0.0430  0.1646 -0.0463
 6620SOL     OW20148   0.050   0.001   0.266 -0.2692 -0.2509  0.1742
 6620SOL    HW120149   0.036   0.081   0.207  2.6636 -0.0676 -0.3916
 6620SOL    HW220150   0.093   0.030   0.351 -0.0408 -1.1016  0.3564
 6621SOL     OW20151   4.050   0.911   0.994 -0.5334 -0.2635 -0.0239
 6621SOL    HW120152   4.118   0.894   1.065  1.2623 -0.6988 -1.7490
 6621SOL    HW220153   3.975   0.845   1.003  0.8107 -1.8371  0.0892
 6622SOL     OW20154   4.192   1.133   5.365 -0.2422  0.2826  0.1507
 6622SOL    HW120155   4.119   1.140   5.433 -0.6369 -0.2659 -0.2021
 6622SOL    HW220156   4.281   1.141   5.410 -0.5009 -0.0198  0.7253
 6623SOL     OW20157   5.743   5.774   5.607  0.0864 -0.2664  0.3347
 6623SOL    HW120158   5.729   5.779   5.706 -1.4426  2.5314  0.0713
 6623SOL    HW220159   5.656   5.757   5.562  0.2044  1.6221 -0.6623
 6624SOL     OW20160   5.704   1.776   4.320 -0.5204 -0.1923 -0.1862
 6624SOL    HW120161   5.685   1.721   4.401  0.1419  2.1036  1.6256
 6624SOL    HW220162   5.626   1.836   4.302 -0.3126 -0.0875 -0.7766
 6625SOL     OW20163   0.788   0.435   0.446 -0.0501  0.2244 -0.0189
 6625SOL    HW120164   0.712   0.487   0.406 -0.1142  0.2598  0.1488
 6625SOL    HW220165   0.870   0.447   0.390 -0.1853  0.1328 -0.2393
 6626SOL     OW20166   4.050   0.450   0.328  0.0449  0.1737  0.3745
 6626SOL    HW120167   4.073   0.497   0.413  0.3502  0.8424 -0.0675
 6626SOL    HW220168   4.133   0.437   0.274 -0.1591 -0.1756  0.1386
 6627SOL     OW20169   1.297   0.468   2.020  0.5514 -0.3530 -0.0709
 6627SOL    HW120170   1.303   0.372   1.995 -1.2537 -1.2860  2.6190
 6627SOL    HW220171   1.219   0.482   2.081  1.9131  2.4379  1.2379
 6628SOL     OW20172   1.449   5.742   4.417  0.2724  0.0659 -0.0307
 6628SOL    HW120173   1.459   5.652   4.459  1.2856  0.3244  0.3028
 6628SOL    HW220174   1.476   5.813   4.482  1.5302  0.4858 -0.9672
 6629SOL     OW20175   0.518   0.536   4.687  0.1550 -0.2564 -0.3295
 6629SOL    HW120176   0.543   0.447   4.725  0.1357 -0.3129 -0.4503
 6629SOL    HW220177   0.446   0.524   4.618 -1.5888  0.0501  1.3232
 6630SOL     OW20178   0.000   0.530   4.892 -0.2053  0.2324 -0.1629
 6630SOL    HW120179  -0.068   0.564   4.956 -1.1818 -0.9607 -0.5190
 6630SOL    HW220180   0.092   0.547   4.927 -0.6908  1.2700  0.6419
 6631SOL     OW20181   0.304   1.793   5.523 -0.8143  0.0204 -0.5246
 6631SOL    HW120182   0.229   1.740   5.483 -0.3932 -1.4863  0.6027
 6631SOL    HW220183   0.265   1.862   5.586 -1.3833  1.4197 -2.3096
 6632SOL     OW20184   5.439   1.330   5.758 -0.0514  0.0592  0.0676
 6632SOL    HW120185   5.349   1.298   5.730 -0.0458  0.1460 -0.0467
 6632SOL    HW220186   5.463   1.413   5.708  0.4736 -0.4580 -0.5629
 6633SOL     OW20187   5.495   3.297   0.497  0.2438  0.0434  0.1763
 6633SOL    HW120188   5.497   3.395   0.477 -2.0907  0.0305 -0.5036
 6633SOL    HW220189   5.401   3.263   0.487  0.8064 -2.0809  1.3776
 6634SOL     OW20190   5.644   1.682   4.769 -0.1542 -0.1037 -0.1582
 6634SOL    HW120191   5.624   1.631   4.852  0.8086 -0.6692 -0.2615
 6634SOL    HW220192   5.582   1.761   4.762  0.9312  1.0321  2.0503
 6635SOL     OW20193   5.178   2.801   3.905 -0.8415  0.1535 -0.0875
 6635SOL    HW120194   5.235   2.739   3.958 -2.3679 -2.6234 -1.4567
 6635SOL    HW220195   5.167   2.764   3.812  0.8757  4.2363 -2.1756
 6636SOL     OW20196   1.830   2.412   4.594  0.0650  0.2827 -0.2078
 6636SOL    HW120197   1.847   2.314   4.588 -1.4544 -0.0324 -0.0079
 6636SOL    HW220198   1.851   2.455   4.506  2.2273  0.0756  0.1566
 6637SOL     OW20199   3.561   0.792   3.994 -0.0172  0.3188 -0.1268
 6637SOL    HW120200   3.623   0.780   4.072  1.1034 -0.5676 -1.1028
 6637SOL    HW220201   3.611   0.837   3.919 -0.6663 -0.0783 -0.8041
 6638SOL     OW20202   4.405   1.089   1.396  0.4164  0.2728 -0.1448
 6638SOL    HW120203   4.470   1.142   1.451 -0.6531  0.2394  1.2249
 6638SOL    HW220204   4.375   1.009   1.449 -0.3702  0.0324 -0.9341
 6639SOL     OW20205   4.393   5.739   4.481 -0.5417  0.1819  0.1925
 6639SOL    HW120206   4.363   5.780   4.394 -2.0917 -0.9839  0.1278
 6639SOL    HW220207   4.474   5.683   4.465 -0.6627  0.1845 -0.4593
 6640SOL     OW20208   0.042   2.300   0.689  0.0756 -0.0848 -0.2605
 6640SOL    HW120209   0.038   2.351   0.775  3.2421 -0.0665  0.0089
 6640SOL    HW220210   0.025   2.203   0.706  0.0425  0.0131  0.2778
 6641SOL     OW20211   5.195   2.201   5.079 -0.3009 -0.2420  0.5861
 6641SOL    HW120212   5.270   2.157   5.029 -0.7575  0.9779 -1.3048
 6641SOL    HW220213   5.116   2.140   5.081  0.3901 -1.1293  1.6945
 6642SOL     OW20214   0.891   1.669   0.574 -0.4900 -0.2573  0.3286
 6642SOL    HW120215   0.978   1.619   0.578  1.0831  2.2804  0.1429
 6642SOL    HW220216   0.893   1.745   0.638 -3.4498 -1.2559  1.8055
 6643SOL     OW20217   4.982   0.235   5.489 -0.2695 -0.5080 -0.3973
 6643SOL    HW120218   4.931   0.320   5.477 -0.9323 -0.9655 -0.8683
 6643SOL    HW220219   5.065   0.254   5.543 -1.3857  0.0843  1.1989
 6644SOL     OW20220   2.764   4.548   0.444  0.3979  0.3308 -0.5185
 6644SOL    HW120221   2.800   4.629   0.397  2.0366  0.1057  0.2627
 6644SOL    HW220222   2.741   4.571   0.538  2.5175 -0.4216  0.2519
 6645SOL     OW20223   2.116   4.444   1.195 -0.2845 -0.0751 -0.4164
 6645SOL    HW120224   2.213   4.453   1.173 -0.0518  0.6751  0.8029
 6645SOL    HW220225   2.077   4.535   1.211 -0.6872 -0.4710  1.0743
 6646SOL     OW20226   0.063   3.534   0.218  0.2982  0.2293 -0.0670
 6646SOL    HW120227   0.048   3.604   0.148  1.9632  0.3743 -0.3321
 6646SOL    HW220228   0.047   3.444   0.179 -0.7807  0.4031 -0.0400
 6647SOL     OW20229   3.775   4.577   4.856  0.3013 -0.1700 -0.5268
 6647SOL    HW120230   3.846   4.646   4.843 -0.1481 -0.0360 -2.7036
 6647SOL    HW220231   3.698   4.597   4.796 -0.2935 -1.9787 -0.4268
 6648SOL     OW20232   0.142   2.815   5.283  0.3901  0.4362  0.2594
 6648SOL    HW120233   0.133   2.890   5.349  1.6882  1.1444 -0.3422
 6648SOL    HW220234   0.085   2.738   5.313 -1.4350  1.8355  0.6093
 6649SOL     OW20235   5.060   1.352   1.076 -0.3459 -0.2988 -0.2657
 6649SOL    HW120236   5.029   1.347   1.171 -0.7496 -0.2777 -0.3933
 6649SOL    HW220237   5.124   1.277   1.058  0.7157  0.4405  0.3703
 6650SOL     OW20238   4.880   2.657   1.538 -0.0128  0.4238 -0.1216
 6650SOL    HW120239   4.873   2.746   1.493 -0.3738 -0.0693 -1.0640
 6650SOL    HW220240   4.855   2.667   1.634  0.5754  1.4565 -0.0567
 6651SOL     OW20241   5.384   2.382   4.893 -0.1232 -0.4276  0.4913
 6651SOL    HW120242   5.409   2.467   4.939 -1.6251  1.1392 -1.4076
 6651SOL    HW220243   5.287   2.363   4.908 -0.4700 -0.2739 -1.2565
 6652SOL     OW20244   5.156   3.036   0.773 -0.3484 -0.0564  0.1428
 6652SOL    HW120245   5.184   2.958   0.829  1.6861  0.8376  0.4709
 6652SOL    HW220246   5.203   3.118   0.806 -0.3001  0.7907 -1.9199
 6653SOL     OW20247   4.924   1.685   0.028 -0.4391  0.0591  0.7433
 6653SOL    HW120248   4.958   1.614  -0.034 -1.8752 -0.5971  0.6770
 6653SOL    HW220249   4.983   1.689   0.109  0.8478  0.2204 -0.1578
 6654SOL     OW20250   5.120   5.254   2.221  0.5416 -0.2698  0.1419
 6654SOL    HW120251   5.055   5.278   2.149  0.5505 -0.0206  0.2174
 6654SOL    HW220252   5.157   5.162   2.203  0.3582 -0.3101 -0.0352
 6655SOL     OW20253   5.441   1.597   2.013  0.2876 -0.1572  0.3830
 6655SOL    HW120254   5.500   1.602   2.094 -1.1517  0.7936  1.4220
 6655SOL    HW220255   5.498   1.601   1.931  1.6585  1.8547  1.3303
 6656SOL     OW20256   5.879   5.598   5.422 -0.0245  0.1185  0.0720
 6656SOL    HW120257   5.979   5.587   5.426  0.6799  4.4235 -1.1483
 6656SOL    HW220258   5.848   5.649   5.502 -0.8344  0.9731 -0.7670
 6657SOL     OW20259   5.493   4.036   5.468 -0.5688  0.0928 -0.0825
 6657SOL    HW120260   5.432   4.097   5.417  0.4243 -0.7761 -2.4562
 6657SOL    HW220261   5.557   4.091   5.522 -2.7486  1.0276  1.7256
 6658SOL     OW20262   1.306   1.716   3.773 -0.3316 -0.0938 -0.1407
 6658SOL    HW120263   1.234   1.732   3.706 -0.6230 -1.9986 -0.3261
 6658SOL    HW220264   1.354   1.632   3.751  0.8965  0.2968  0.9182
 6659SOL     OW20265   5.811   4.398   2.823 -0.0963  0.4395  0.3655
 6659SOL    HW120266   5.776   4.390   2.729 -0.4031  0.4791  0.4763
 6659SOL    HW220267   5.818   4.308   2.864  1.7477  0.2293 -0.3074
 6660SOL     OW20268   0.633   4.387   5.738 -0.1795 -0.2702  0.2878
 6660SOL    HW120269   0.553   4.336   5.706 -0.0221  1.1379 -2.7283
 6660SOL    HW220270   0.603   4.474   5.778 -0.2408 -0.9371  1.7527
 6661SOL     OW20271   5.349   1.039   1.674  0.5004 -0.2879  0.2211
 6661SOL    HW120272   5.301   1.126   1.675 -0.9282 -1.0315 -0.5681
 6661SOL    HW220273   5.420   1.039   1.745  1.2755  1.8912 -0.4830
 6662SOL     OW20274   1.333   4.448   0.895  0.0485  0.8069  0.5099
 6662SOL    HW120275   1.414   4.392   0.872 -0.6282 -0.0983  0.2716
 6662SOL    HW220276   1.291   4.413   0.978  1.2716  2.7830  2.0428
 6663SOL     OW20277   5.164   2.615   5.140 -0.0517 -0.0549 -0.6967
 6663SOL    HW120278   5.244   2.580   5.188 -0.6535  0.3397  0.6375
 6663SOL    HW220279   5.176   2.712   5.120 -1.8281  1.1937  3.3444
 6664SOL     OW20280   5.901   0.016   0.812  0.3440  0.8193 -0.1837
 6664SOL    HW120281   5.907  -0.029   0.901 -0.7979  0.5685 -0.2219
 6664SOL    HW220282   5.805   0.025   0.785  0.6364  1.7365 -0.9671
 6665SOL     OW20283   1.231   5.786   1.816  0.2079 -0.1653  0.7158
 6665SOL    HW120284   1.283   5.831   1.744  2.6076 -0.1386  2.3654
 6665SOL    HW220285   1.251   5.688   1.817 -3.8123 -1.2714 -1.8573
 6666SOL     OW20286   5.423   3.187   5.448  0.1465 -0.1291  0.2182
 6666SOL    HW120287   5.336   3.147   5.418 -0.0445 -0.4986  1.2021
 6666SOL    HW220288   5.405   3.274   5.493  0.3943  0.2712 -0.4497
 6667SOL     OW20289   0.868   2.789   1.748  0.1095 -0.0321  0.6448
 6667SOL    HW120290   0.879   2.698   1.708  0.1432 -0.8788  2.4769
 6667SOL    HW220291   0.785   2.831   1.711 -0.3818 -1.1574  0.4126
 6668SOL     OW20292   5.803   1.485   2.435 -0.9224  0.2651 -0.2602
 6668SOL    HW120293   5.810   1.396   2.481  0.5393  0.7094  0.4344
 6668SOL    HW220294   5.722   1.533   2.469 -2.2455 -1.1227 -1.2947
 6669SOL     OW20295   5.811   3.689   3.711 -0.0114  0.0282  0.1025
 6669SOL    HW120296   5.837   3.650   3.623 -0.1356  0.5773 -0.1882
 6669SOL    HW220297   5.736   3.637   3.750 -0.0978 -0.0956 -0.2218
 6670SOL     OW20298   4.957   2.068   0.198  0.1474 -0.8719  0.3409
 6670SOL    HW120299   4.946   2.025   0.108  0.2796 -0.3935  0.0953
 6670SOL    HW220300   4.891   2.028   0.261 -1.3218  0.1672 -0.4775
 6671SOL     OW20301   0.036   3.506   0.846 -0.2855 -0.3944  0.3882
 6671SOL    HW120302   0.056   3.440   0.773  0.4891 -0.4139  0.6116
 6671SOL    HW220303  -0.063   3.517   0.854 -0.4896 -2.1893  0.9109
 6672SOL     OW20304   0.653   3.727   1.363 -0.2582 -0.1183  0.1858
 6672SOL    HW120305   0.556   3.735   1.337  0.1981  1.7290 -1.2171
 6672SOL    HW220306   0.686   3.817   1.392  0.9361 -0.8314  1.0894
 6673SOL     OW20307   0.414   3.514   2.108  0.0536 -0.4516  0.8623
 6673SOL    HW120308   0.353   3.593   2.117 -0.2024 -0.7517  1.9163
 6673SOL    HW220309   0.493   3.539   2.052  2.0487  1.8422  4.2952
 6674SOL     OW20310   5.843   3.324   2.209 -0.0184  0.6483 -0.2540
 6674SOL    HW120311   5.921   3.310   2.149 -0.2380  2.3027 -0.9908
 6674SOL    HW220312   5.868   3.301   2.303  1.0556  0.2543 -0.6250
 6675SOL     OW20313   5.655   0.056   1.156  0.0882 -0.4570 -0.2856
 6675SOL    HW120314   5.585   0.002   1.109  0.0113  1.0709 -2.0251
 6675SOL    HW220315   5.652   0.037   1.254 -1.9500 -1.3115 -0.4785
 6676SOL     OW20316   5.242   2.326   2.219  0.3609 -0.3603  0.4360
 6676SOL    HW120317   5.326   2.276   2.197  0.7141  0.3252  0.2120
 6676SOL    HW220318   5.213   2.379   2.140  0.2014  0.0856  0.7870
 6677SOL     OW20319   1.231   1.197   1.618  0.4159  0.4096 -0.3371
 6677SOL    HW120320   1.276   1.108   1.629  0.8061  0.8220  1.9010
 6677SOL    HW220321   1.279   1.250   1.547  0.0663 -1.1778 -1.8330
 6678SOL     OW20322   5.284   3.198   0.934  0.3338  0.4078  0.5948
 6678SOL    HW120323   5.376   3.169   0.962  0.3918 -0.0761 -0.0585
 6678SOL    HW220324   5.222   3.192   1.012  0.0995 -2.5303  0.2981
 6679SOL     OW20325   5.423   3.965   1.936  0.2409  0.2884 -0.5868
 6679SOL    HW120326   5.479   4.037   1.897 -0.0766 -0.0875 -1.8017
 6679SOL    HW220327   5.330   3.971   1.899  0.1701 -0.6373 -0.5889
 6680SOL     OW20328   0.624   2.563   3.411 -0.1653  0.6022 -0.4338
 6680SOL    HW120329   0.597   2.659   3.411 -0.6833  0.4718 -1.4481
 6680SOL    HW220330   0.695   2.549   3.342 -0.5815  0.1363 -0.7766
 6681SOL     OW20331   0.014   3.660   3.173  0.3993 -0.5018  0.9090
 6681SOL    HW120332  -0.048   3.627   3.103  0.5493  1.5002 -0.2339
 6681SOL    HW220333   0.102   3.613   3.165  0.0960 -0.9917  0.4045
 6682SOL     OW20334   0.457   1.925   1.463 -0.0096  0.2685 -0.0644
 6682SOL    HW120335   0.390   1.976   1.409  0.3569  0.7314 -0.0890
 6682SOL    HW220336   0.518   1.875   1.401 -2.2958 -2.8391 -0.0623
 6683SOL     OW20337   1.462   2.649   2.311 -0.1333  0.9082 -0.2545
 6683SOL    HW120338   1.559   2.646   2.290  0.1450 -0.3867  1.0355
 6683SOL    HW220339   1.411   2.590   2.248  0.2600 -0.3607  0.5859
 6684SOL     OW20340   1.003   3.980   5.189 -0.0496 -0.1101 -0.1034
 6684SOL    HW120341   0.918   3.998   5.139  0.6817  0.5403 -1.1247
 6684SOL    HW220342   1.019   4.053   5.255 -0.5612 -0.5278  0.5042
 6685SOL     OW20343   0.689   2.475   2.068 -0.3530  0.3671  0.4621
 6685SOL    HW120344   0.641   2.388   2.084  0.9226 -0.4125  0.1864
 6685SOL    HW220345   0.779   2.456   2.029 -0.9110  1.9343 -1.7634
 6686SOL     OW20346   4.779   3.882   1.759  0.0692 -0.1874  0.5885
 6686SOL    HW120347   4.828   3.922   1.683 -1.3397  1.3394  0.4302
 6686SOL    HW220348   4.842   3.865   1.835  0.9176  1.3446  0.2657
 6687SOL     OW20349   1.395   4.288   2.602 -0.3173 -0.6653  0.6221
 6687SOL    HW120350   1.362   4.194   2.604 -1.9329 -0.1850 -0.9046
 6687SOL    HW220351   1.318   4.351   2.609  0.5075  0.5195 -0.4032
 6688SOL     OW20352   4.299   2.659   1.524  0.1861  0.4258 -0.0538
 6688SOL    HW120353   4.311   2.739   1.583  0.9924  1.3942 -1.4458
 6688SOL    HW220354   4.228   2.679   1.456 -1.0586 -0.8390  0.8372
 6689SOL     OW20355   0.526   4.979   3.380 -0.0811 -0.2320 -0.1390
 6689SOL    HW120356   0.478   5.067   3.375  0.3166 -0.0574 -1.1715
 6689SOL    HW220357   0.460   4.906   3.393 -0.4520  0.1792  0.3340
 6690SOL     OW20358   4.842   2.309   0.175 -0.2738 -0.2624 -0.2927
 6690SOL    HW120359   4.888   2.220   0.175 -0.4315 -0.3715 -2.0636
 6690SOL    HW220360   4.910   2.382   0.185 -0.1648 -0.5458  1.3990
 6691SOL     OW20361   0.129   2.166   3.121  0.8603  0.4682 -0.4795
 6691SOL    HW120362   0.069   2.137   3.196  0.0018 -0.1027 -1.3720
 6691SOL    HW220363   0.075   2.206   3.047  1.5459 -0.2278 -1.3864
 6692SOL     OW20364   0.173   4.498   2.686  0.6455  0.1052 -0.6334
 6692SOL    HW120365   0.084   4.538   2.664 -0.4584 -1.5649  0.5983
 6692SOL    HW220366   0.231   4.501   2.605  0.5520  3.7788 -0.7621
 6693SOL     OW20367   4.914   3.911   2.810 -0.3747  0.4748 -0.3498
 6693SOL    HW120368   4.908   4.001   2.765 -1.5961  0.8770  0.5611
 6693SOL    HW220369   4.831   3.896   2.864  1.6512  0.7518  3.1390
 6694SOL     OW20370   0.743   2.697   4.381 -0.1930  0.1211  0.9626
 6694SOL    HW120371   0.836   2.687   4.347 -0.0838 -0.3858  1.4009
 6694SOL    HW220372   0.739   2.776   4.442  0.2681 -0.6379  2.0008
 6695SOL     OW20373   0.524   3.344   1.217  0.3177  0.3549 -0.2720
 6695SOL    HW120374   0.517   3.371   1.313  0.4858  0.4409 -0.2841
 6695SOL    HW220375   0.555   3.422   1.163  0.6777  0.1738 -0.3262
 6696SOL     OW20376   5.173   3.483   2.492  0.0432 -0.3421  0.0141
 6696SOL    HW120377   5.234   3.463   2.416  1.7292  0.0673  1.1904
 6696SOL    HW220378   5.180   3.411   2.561  0.6087  0.6155  0.9832
 6697SOL     OW20379   5.490   2.163   3.064 -0.2020 -0.3787 -0.7539
 6697SOL    HW120380   5.548   2.178   2.984 -0.2693 -0.3786 -0.8028
 6697SOL    HW220381   5.543   2.117   3.135  0.0081  0.0845 -0.6033
 6698SOL     OW20382   0.413   2.866   3.723  0.0245 -0.4098  0.0219
 6698SOL    HW120383   0.380   2.778   3.687  0.7322 -1.1246  1.0583
 6698SOL    HW220384   0.422   2.859   3.822  1.6018  0.3245 -0.0468
 6699SOL     OW20385   0.154   5.416   3.005  0.0624 -0.7150 -0.2763
 6699SOL    HW120386   0.219   5.424   3.080  0.2104  1.5600 -0.5900
 6699SOL    HW220387   0.190   5.463   2.924 -0.9230 -1.5148 -1.2210
 6700SOL     OW20388   5.860   1.284   4.741 -0.2667 -0.4654  0.8278
 6700SOL    HW120389   5.927   1.222   4.781  1.2099  1.9461  2.3570
 6700SOL    HW220390   5.790   1.307   4.809 -1.4870 -1.3051 -0.0909
 6701SOL     OW20391   1.125   3.330   4.953 -0.5098 -0.1216 -0.3768
 6701SOL    HW120392   1.044   3.274   4.973 -1.1316  1.2903  1.2316
 6701SOL    HW220393   1.193   3.316   5.025 -0.0939  0.1568 -0.7139
 6702SOL     OW20394   3.642   2.278   4.398 -0.4123  0.4005  0.2320
 6702SOL    HW120395   3.633   2.377   4.406 -1.2255  0.2037  2.5612
 6702SOL    HW220396   3.733   2.250   4.430 -0.4663  0.3397  0.3335
 6703SOL     OW20397   5.853   2.975   3.109 -0.0086  0.0697 -0.3462
 6703SOL    HW120398   5.930   3.007   3.164 -2.0949  2.7172  1.3369
 6703SOL    HW220399   5.859   3.015   3.018  0.4143  0.6389 -0.0774
 6704SOL     OW20400   5.525   0.349   1.730 -0.2104  0.3475  0.2004
 6704SOL    HW120401   5.599   0.363   1.795  0.2658  0.7134 -0.4135
 6704SOL    HW220402   5.507   0.251   1.720  0.0756  0.2661  0.4779
 6705SOL     OW20403   5.648   1.955   0.952  0.0950 -0.3671  0.1731
 6705SOL    HW120404   5.603   1.930   1.038 -1.4211 -0.9174 -0.7304
 6705SOL    HW220405   5.625   1.888   0.882 -2.1783  2.1624 -1.7294
 6706SOL     OW20406   0.700   2.844   1.079  0.0201  0.3913 -0.3201
 6706SOL    HW120407   0.790   2.830   1.038 -0.0257  0.4373 -0.4348
 6706SOL    HW220408   0.666   2.934   1.055  0.1844  0.5943  0.1784
 6707SOL     OW20409   0.396   5.413   2.182 -0.0284  0.3782  0.0491
 6707SOL    HW120410   0.382   5.501   2.226 -0.1164  0.8113 -0.8101
 6707SOL    HW220411   0.350   5.413   2.093  0.3353 -0.3812 -0.1472
 6708SOL     OW20412   0.587   3.134   3.468 -0.4945 -0.0018  0.4591
 6708SOL    HW120413   0.652   3.156   3.542  0.7709  2.0024 -1.1364
 6708SOL    HW220414   0.562   3.218   3.421  1.3478 -1.4208 -3.4820
 6709SOL     OW20415   0.294   2.907   2.428  0.0408 -0.1581  0.0090
 6709SOL    HW120416   0.247   2.946   2.507  0.4601 -0.7368  0.5617
 6709SOL    HW220417   0.227   2.877   2.361 -0.3159  0.5236  0.0509
 6710SOL     OW20418   5.439   2.712   2.397  0.0308 -0.4858  0.1655
 6710SOL    HW120419   5.499   2.697   2.475 -1.3237 -2.7152  0.8756
 6710SOL    HW220420   5.480   2.671   2.315  0.4104 -0.1460  0.1817
 6711SOL     OW20421   1.659   2.774   1.370 -0.1082 -0.4123  0.8000
 6711SOL    HW120422   1.738   2.820   1.330 -0.4146  1.0240  1.7646
 6711SOL    HW220423   1.575   2.813   1.330 -0.4450  1.4159  3.0757
 6712SOL     OW20424   5.041   2.231   2.528 -0.6038 -0.2667 -0.2162
 6712SOL    HW120425   5.067   2.168   2.601 -0.1088  0.2350  0.0521
 6712SOL    HW220426   5.054   2.187   2.440  0.6254 -0.2356 -0.0673
 6713SOL     OW20427   5.353   2.334   3.909 -0.1296 -0.0825  0.3137
 6713SOL    HW120428   5.351   2.388   3.825  1.4848 -1.1426 -0.4467
 6713SOL    HW220429   5.414   2.377   3.976 -0.6651  0.2469  0.6009
 6714SOL     OW20430   1.805   3.679   4.672  0.0899  0.1873  0.7743
 6714SOL    HW120431   1.893   3.679   4.720  0.5213 -0.8407  0.0093
 6714SOL    HW220432   1.783   3.773   4.644  1.8990  0.2281 -0.7089
 6715SOL     OW20433   0.871   2.759   3.077 -0.2187  0.6781  0.2342
 6715SOL    HW120434   0.963   2.776   3.043  0.3976  0.5982  1.7719
 6715SOL    HW220435   0.847   2.831   3.143 -0.5024 -0.3197  1.2494
 6716SOL     OW20436   5.441   1.695   1.719 -0.1026 -0.2774 -0.2775
 6716SOL    HW120437   5.471   1.788   1.745  0.2490  0.0564 -1.7834
 6716SOL    HW220438   5.406   1.697   1.626 -0.8935 -1.5208 -0.0181
 6717SOL     OW20439   0.593   2.462   0.068  0.2211 -0.4307 -0.2033
 6717SOL    HW120440   0.584   2.508   0.157 -0.6754 -2.0013  0.5546
 6717SOL    HW220441   0.690   2.456   0.043  0.6407 -1.4612  1.5092
 6718SOL     OW20442   0.147   4.164   2.330 -0.0614 -0.0991 -0.9192
 6718SOL    HW120443   0.058   4.150   2.372  0.3602 -0.0062  0.0401
 6718SOL    HW220444   0.212   4.196   2.400  0.7376 -0.2415 -1.5830
 6719SOL     OW20445   5.392   1.713   2.686  0.1112  0.0736  0.2916
 6719SOL    HW120446   5.302   1.739   2.721 -0.0322 -0.0372  0.0159
 6719SOL    HW220447   5.463   1.765   2.732 -0.2130  1.4924 -0.7551
 6720SOL     OW20448   0.081   3.631   2.157 -0.2798 -0.6344 -0.0267
 6720SOL    HW120449   0.089   3.531   2.157 -0.6477 -0.6709 -0.3604
 6720SOL    HW220450   0.145   3.670   2.092  0.0261 -0.6365  0.2725
 6721SOL     OW20451   1.155   3.481   3.816 -0.1733  0.5004 -0.2008
 6721SOL    HW120452   1.167   3.580   3.814 -1.8547  0.7400 -0.0269
 6721SOL    HW220453   1.098   3.454   3.739  0.0278 -0.2981 -0.0730
 6722SOL     OW20454   0.145   2.112   3.951  0.4122  0.2255  0.0658
 6722SOL    HW120455   0.181   2.080   3.863  0.4990  0.4515  0.0183
 6722SOL    HW220456   0.175   2.050   4.024 -2.3238 -1.9075 -0.4249
 6723SOL     OW20457   5.060   5.775   3.529  0.3106 -0.3051  0.1255
 6723SOL    HW120458   5.007   5.858   3.549  0.6970 -0.0227 -0.0156
 6723SOL    HW220459   5.016   5.725   3.454 -0.0240 -0.3273  0.3325
 6724SOL     OW20460   4.627   2.868   1.986 -0.1345 -0.0723  0.6215
 6724SOL    HW120461   4.694   2.940   1.967  1.0719 -1.4247 -0.4131
 6724SOL    HW220462   4.593   2.879   2.080  1.2815  0.8477  1.0576
 6725SOL     OW20463   5.285   3.134   5.027  0.4733 -0.2141  0.8510
 6725SOL    HW120464   5.385   3.141   5.022  0.3644  1.2999  0.1524
 6725SOL    HW220465   5.253   3.171   5.114  0.4333  1.0438  0.3340
 6726SOL     OW20466   5.520   3.426   3.633 -0.5007  0.3444  0.0253
 6726SOL    HW120467   5.427   3.451   3.607 -1.3645 -2.8047 -0.2093
 6726SOL    HW220468   5.538   3.331   3.608  3.1644  1.1146 -0.8950
 6727SOL     OW20469   5.237   3.595   3.861  0.4657  0.7213 -0.1948
 6727SOL    HW120470   5.168   3.590   3.789  1.0945  0.8715 -0.8155
 6727SOL    HW220471   5.192   3.602   3.950 -0.3387  1.8362 -0.6599
 6728SOL     OW20472   4.045   3.720   4.870  0.4572 -0.0855 -0.2653
 6728SOL    HW120473   4.138   3.708   4.833  0.8900  0.5296  0.5900
 6728SOL    HW220474   4.012   3.634   4.906  1.2399 -0.0257  0.6324
 6729SOL     OW20475   0.388   2.564   4.528 -0.4372 -0.0830  0.5286
 6729SOL    HW120476   0.427   2.626   4.596  1.0710  1.0850 -1.3391
 6729SOL    HW220477   0.335   2.493   4.576  1.9489 -0.3525  3.0650
 6730SOL     OW20478   3.782   4.429   4.578 -0.3720 -0.2038  0.0321
 6730SOL    HW120479   3.734   4.505   4.533  1.1552  1.1550  0.5949
 6730SOL    HW220480   3.783   4.444   4.677 -1.2239 -1.6991  0.2989
 6731SOL     OW20481   3.616   1.406   3.707 -0.6595  0.4716 -0.3803
 6731SOL    HW120482   3.589   1.495   3.669  3.2717  1.8083 -0.5784
 6731SOL    HW220483   3.640   1.416   3.803 -1.4207 -0.7019 -0.0525
 6732SOL     OW20484   5.352   2.285   2.835 -0.0528 -0.7598 -0.0091
 6732SOL    HW120485   5.413   2.206   2.829 -1.6480 -2.1013  0.5101
 6732SOL    HW220486   5.258   2.256   2.818 -0.4608  1.4852 -2.2485
 6733SOL     OW20487   5.531   3.774   5.045 -0.0942  0.0404 -0.1489
 6733SOL    HW120488   5.493   3.686   5.018  0.9280 -0.2494 -0.6972
 6733SOL    HW220489   5.514   3.790   5.142 -0.7602 -0.5096 -0.1724
 6734SOL     OW20490   4.650   3.616   3.472 -0.2885 -0.6153  0.3260
 6734SOL    HW120491   4.565   3.593   3.426 -0.0070 -2.2954  0.5878
 6734SOL    HW220492   4.629   3.666   3.556 -0.9980 -0.6628  0.1874
 6735SOL     OW20493   5.874   0.437   5.907  0.0678  0.0579 -0.4312
 6735SOL    HW120494   5.839   0.528   5.885  1.9280  0.8085 -0.4861
 6735SOL    HW220495   5.802   0.383   5.950 -0.3711  2.4761  2.1793
 6736SOL     OW20496   5.601   2.882   4.979  0.3056  0.0841 -0.1022
 6736SOL    HW120497   5.689   2.870   5.026  0.1435 -1.3611 -0.1211
 6736SOL    HW220498   5.576   2.978   4.980  1.8660  0.5201 -0.0465
 6737SOL     OW20499   0.726   3.489   5.172  0.4810 -1.1695 -0.4317
 6737SOL    HW120500   0.663   3.565   5.189  0.9174 -0.4503 -1.8699
 6737SOL    HW220501   0.677   3.415   5.125  0.3129 -1.3389  0.0033
 6738SOL     OW20502   0.657   0.347   3.287 -0.1903  0.2955  0.2053
 6738SOL    HW120503   0.635   0.433   3.241  0.7636  0.2319 -0.3951
 6738SOL    HW220504   0.690   0.366   3.379 -1.5598  0.4594  0.6810
 6739SOL     OW20505   5.697   1.328   4.944  0.0626  0.2837 -0.1466
 6739SOL    HW120506   5.710   1.257   5.014 -3.6966 -0.8100 -0.3217
 6739SOL    HW220507   5.657   1.409   4.986 -1.6007 -0.1374 -0.8179
 6740SOL     OW20508   0.960   4.219   5.326  0.0918  0.3421 -0.6845
 6740SOL    HW120509   1.021   4.231   5.405 -0.6400 -0.5283  0.0453
 6740SOL    HW220510   0.873   4.265   5.345 -1.0209 -1.9638  0.1399
 6741SOL     OW20511   0.482   2.693   5.594  0.4594  0.5048  0.0032
 6741SOL    HW120512   0.483   2.734   5.503 -0.0919 -1.2481 -0.8443
 6741SOL    HW220513   0.532   2.606   5.591  1.5519  1.0231  1.7117
 6742SOL     OW20514   5.603   1.241   2.847  0.2361 -0.3053 -0.1209
 6742SOL    HW120515   5.597   1.337   2.876  1.7465  0.1474 -1.1747
 6742SOL    HW220516   5.614   1.183   2.928 -1.1934  0.3327  0.5722
 6743SOL     OW20517   4.743   3.993   3.702 -0.1016 -0.4447 -0.3533
 6743SOL    HW120518   4.753   4.036   3.791  0.1084 -1.8019  0.3119
 6743SOL    HW220519   4.665   3.931   3.703  0.7293 -1.5509 -0.6321
 6744SOL     OW20520   5.859   3.138   5.295 -0.2767 -0.1124  0.1320
 6744SOL    HW120521   5.900   3.102   5.378  0.1337  2.1909  1.0008
 6744SOL    HW220522   5.931   3.160   5.229 -0.3395  0.9499  0.4036
 6745SOL     OW20523   0.461   3.542   3.720 -0.0260  0.1339 -0.5795
 6745SOL    HW120524   0.385   3.480   3.701  0.0519  0.5467 -2.3836
 6745SOL    HW220525   0.511   3.509   3.801 -2.0758 -0.1428  0.6480
 6746SOL     OW20526   5.191   3.743   4.412  0.5672 -0.0945  0.3874
 6746SOL    HW120527   5.270   3.707   4.461  0.5530 -1.1885 -0.3628
 6746SOL    HW220528   5.175   3.688   4.329 -0.2627  0.8367 -0.0891
 6747SOL     OW20529   5.322   5.427   3.522 -0.1050  0.3030  0.2687
 6747SOL    HW120530   5.374   5.429   3.437  0.8988  1.2489  0.8742
 6747SOL    HW220531   5.369   5.483   3.591 -1.0540 -0.1992  1.3519
 6748SOL     OW20532   4.040   4.511   0.145  0.0552  0.1315  0.3909
 6748SOL    HW120533   4.019   4.413   0.148 -0.3657  0.2271  0.7787
 6748SOL    HW220534   4.135   4.525   0.173 -0.3629 -0.0400  1.9854
 6749SOL     OW20535   3.125   2.447   4.817  0.2317 -0.5061 -0.4859
 6749SOL    HW120536   3.134   2.412   4.724 -1.1510 -0.3659 -0.6931
 6749SOL    HW220537   3.111   2.371   4.880  2.0514 -0.6814 -0.2327
 6750SOL     OW20538   4.574   4.325   4.869  0.1681 -0.1716 -0.1344
 6750SOL    HW120539   4.544   4.385   4.795  0.9555  0.7073  0.2341
 6750SOL    HW220540   4.667   4.293   4.851  0.1775 -0.3619  0.2340
 6751SOL     OW20541   5.620   4.440   5.241  0.6335 -0.1929 -0.2802
 6751SOL    HW120542   5.685   4.365   5.233  0.8230 -0.0022 -0.5417
 6751SOL    HW220543   5.669   4.527   5.244  0.3566  0.0419 -1.7431
 6752SOL     OW20544   0.582   3.431   4.384  0.1690 -0.2308 -0.7683
 6752SOL    HW120545   0.591   3.524   4.350 -0.8005 -0.5715 -2.0315
 6752SOL    HW220546   0.489   3.398   4.366 -0.4146 -0.4573  2.2403
 6753SOL     OW20547   5.701   3.556   4.827  0.4281  0.5355  0.2684
 6753SOL    HW120548   5.621   3.556   4.887  0.5041 -0.1258  0.3836
 6753SOL    HW220549   5.701   3.472   4.772 -0.7929  2.0385 -2.2260
 6754SOL     OW20550   0.147   2.963   3.677  0.2885  0.2361 -0.1964
 6754SOL    HW120551   0.120   3.005   3.591  2.6117  2.3443  0.0018
 6754SOL    HW220552   0.218   2.895   3.660 -0.7535 -0.9101 -0.1116
 6755SOL     OW20553   4.897   2.787   4.371 -0.8129  0.9713 -0.3112
 6755SOL    HW120554   4.942   2.821   4.288 -0.2624  0.7766 -0.0903
 6755SOL    HW220555   4.949   2.814   4.451 -1.0871  0.7409 -0.0520
 6756SOL     OW20556   4.663   2.440   5.911  0.1620  0.0546 -0.5858
 6756SOL    HW120557   4.704   2.530   5.898 -1.2199  0.9522  0.9064
 6756SOL    HW220558   4.730   2.379   5.953  0.1821  1.3980  1.5128
 6757SOL     OW20559   0.710   2.316   4.518  0.2099  0.0372  0.2574
 6757SOL    HW120560   0.656   2.247   4.470  0.2199  0.2011  0.0105
 6757SOL    HW220561   0.701   2.404   4.473  1.8909 -0.2482 -0.7208
 6758SOL     OW20562   5.159   3.232   5.272  0.3918  0.5784 -0.2576
 6758SOL    HW120563   5.112   3.301   5.218  0.7156  1.7226  0.8701
 6758SOL    HW220564   5.101   3.151   5.282 -0.0687  0.7479 -1.4367
 6759SOL     OW20565   1.294   4.072   3.682 -0.7987 -0.1629 -0.3050
 6759SOL    HW120566   1.300   3.974   3.662  0.2055  0.2196 -2.0543
 6759SOL    HW220567   1.327   4.088   3.775 -2.9083 -1.6850  0.7899
 6760SOL     OW20568   3.646   5.719   4.932  0.1802  0.4116 -0.7072
 6760SOL    HW120569   3.628   5.694   5.027  1.6355  0.4242 -0.4089
 6760SOL    HW220570   3.624   5.816   4.919  0.6883  0.6018 -0.1857
 6761SOL     OW20571   5.337   2.858   5.076  0.2507  0.9636 -0.3313
 6761SOL    HW120572   5.311   2.955   5.071  1.4661  1.2801 -0.9283
 6761SOL    HW220573   5.436   2.851   5.081  0.1675 -0.2603 -0.1853
 6762SOL     OW20574   0.436   2.783   5.343 -0.2257  0.3439 -0.0363
 6762SOL    HW120575   0.490   2.732   5.277 -0.3254 -0.8621  0.7946
 6762SOL    HW220576   0.338   2.769   5.324 -0.2777  1.4214 -0.6913
 6763SOL     OW20577   4.646   5.066   4.482 -0.0319 -0.2302 -0.2801
 6763SOL    HW120578   4.614   5.075   4.388 -0.7746 -0.1007 -0.0226
 6763SOL    HW220579   4.746   5.064   4.483 -0.0281 -1.5514 -1.1838
 6764SOL     OW20580   5.697   4.354   4.389  0.2427 -1.1411  0.3681
 6764SOL    HW120581   5.781   4.351   4.335  0.6434 -1.0393  0.9831
 6764SOL    HW220582   5.618   4.360   4.327  0.7630  0.6328 -0.1928
 6765SOL     OW20583   5.433   3.649   4.498 -0.3762  0.1874 -0.5993
 6765SOL    HW120584   5.490   3.706   4.439  1.5602 -1.0303  0.0148
 6765SOL    HW220585   5.474   3.559   4.507 -2.0270 -0.5036  0.5065
 6766SOL     OW20586   5.015   2.982   5.227 -0.2855 -0.3628  0.1181
 6766SOL    HW120587   4.931   3.016   5.270  0.2209 -0.4586  1.2152
 6766SOL    HW220588   4.995   2.900   5.174 -0.9574 -0.1365  0.0113
 6767SOL     OW20589   5.143   2.171   5.441 -0.3315  0.0300  0.0668
 6767SOL    HW120590   5.202   2.239   5.398  0.0903 -1.3195 -1.5928
 6767SOL    HW220591   5.196   2.118   5.508 -0.2736  0.3466  0.2723
 6768SOL     OW20592   0.303   3.557   1.033  0.3410 -0.4311 -1.3459
 6768SOL    HW120593   0.345   3.639   1.071  0.3120 -0.8354 -0.3924
 6768SOL    HW220594   0.255   3.508   1.106 -1.5471 -0.1425 -2.3271
 6769SOL     OW20595   5.136   2.549   4.861  0.4025  0.1827  0.0878
 6769SOL    HW120596   5.068   2.607   4.816  1.0004  1.4337  0.7446
 6769SOL    HW220597   5.131   2.562   4.960 -1.1948 -2.8498  0.5377
 6770SOL     OW20598   0.221   2.899   0.591 -0.3002 -0.5295  0.4286
 6770SOL    HW120599   0.176   2.971   0.539 -1.1095 -0.4114  1.2699
 6770SOL    HW220600   0.196   2.810   0.552  0.3578 -0.3972 -0.3401
 6771SOL     OW20601   0.424   0.864   5.231  0.0489 -0.3206  0.0269
 6771SOL    HW120602   0.489   0.798   5.269  1.7250  1.3452  0.1808
 6771SOL    HW220603   0.425   0.857   5.131  0.8709  0.0459  0.0020
 6772SOL     OW20604   0.247   4.176   3.973 -0.2400  0.5017 -0.5853
 6772SOL    HW120605   0.291   4.180   4.063  1.2091  0.2606 -1.2522
 6772SOL    HW220606   0.314   4.201   3.902 -1.0644 -0.3218 -1.6867
 6773SOL     OW20607   5.148   3.716   2.115 -0.1571  0.0723  0.1514
 6773SOL    HW120608   5.227   3.749   2.167 -0.2984  1.6286 -0.5676
 6773SOL    HW220609   5.178   3.654   2.043  0.2808 -0.2389  0.6006
 6774SOL     OW20610   5.685   4.676   0.602  0.7325 -0.5695 -0.1142
 6774SOL    HW120611   5.690   4.617   0.521  0.6528 -0.6838 -0.0358
 6774SOL    HW220612   5.688   4.772   0.573  2.2639 -0.6041 -0.1541
 6775SOL     OW20613   5.399   5.217   1.032 -0.0599  0.6807 -0.7187
 6775SOL    HW120614   5.307   5.248   1.009 -1.2531 -0.3996  2.1296
 6775SOL    HW220615   5.405   5.118   1.020  0.1492  0.4994  0.6536
 6776SOL     OW20616   4.641   5.724   2.551  0.6242  0.1263 -0.0900
 6776SOL    HW120617   4.574   5.751   2.620 -1.0791 -2.1480 -0.7266
 6776SOL    HW220618   4.731   5.758   2.578 -0.4879  2.0629  1.5474
 6777SOL     OW20619   4.941   5.079   1.262 -0.0141 -0.0692 -0.5869
 6777SOL    HW120620   5.033   5.057   1.232 -0.1171 -0.7621 -0.4018
 6777SOL    HW220621   4.874   5.049   1.194 -0.0750  1.1563 -1.1081
 6778SOL     OW20622   5.233   2.397   0.616  0.9650  0.1553  0.3568
 6778SOL    HW120623   5.286   2.437   0.541 -0.8311 -0.1920 -1.1572
 6778SOL    HW220624   5.204   2.470   0.678 -0.9870  1.1205 -1.5529
 6779SOL     OW20625   3.992   4.672   1.201  0.0758  0.3277 -0.1831
 6779SOL    HW120626   4.009   4.689   1.104  0.1491 -0.7813 -0.3714
 6779SOL    HW220627   3.910   4.617   1.212  0.6982 -0.5237  0.3087
 6780SOL     OW20628   1.220   4.839   5.444  0.5895  0.1850 -0.1862
 6780SOL    HW120629   1.180   4.784   5.518  2.5929 -1.5364 -0.2910
 6780SOL    HW220630   1.270   4.916   5.482  0.5701  0.0143  0.1870
 6781SOL     OW20631   0.572   5.693   2.620  0.0589  0.4164 -0.2750
 6781SOL    HW120632   0.630   5.768   2.589 -0.7557  1.0495 -0.3021
 6781SOL    HW220633   0.545   5.709   2.715  1.0383 -0.5767  0.1850
 6782SOL     OW20634   4.950   3.745   2.306 -0.0701  0.1525 -0.1447
 6782SOL    HW120635   4.981   3.805   2.380 -1.3193 -2.1689  2.4403
 6782SOL    HW220636   5.028   3.722   2.247  1.0273  1.8944  0.5514
 6783SOL     OW20637   5.080   3.811   1.320 -0.4376 -0.5219 -0.3511
 6783SOL    HW120638   5.144   3.879   1.284 -0.0720 -0.9371 -0.4953
 6783SOL    HW220639   5.112   3.720   1.296 -0.9164 -0.7466 -0.1419
 6784SOL     OW20640   5.113   5.892   0.805  0.0127 -0.2636 -0.6223
 6784SOL    HW120641   5.039   5.932   0.858 -1.2899 -1.9633 -1.0515
 6784SOL    HW220642   5.167   5.831   0.863  2.0208  2.0267  0.0455
 6785SOL     OW20643   3.792   0.813   0.976  0.1464 -0.2713 -0.1952
 6785SOL    HW120644   3.733   0.883   0.935 -0.9012 -1.5340 -0.9176
 6785SOL    HW220645   3.753   0.784   1.063  1.2322  0.8622  0.7221
 6786SOL     OW20646   5.509   4.809   1.817 -0.1037  0.2692 -0.1425
 6786SOL    HW120647   5.510   4.788   1.915 -1.9602  0.7663  0.0272
 6786SOL    HW220648   5.546   4.901   1.803 -0.0641  0.2979  0.1308
 6787SOL     OW20649   0.483   4.814   0.255 -0.2561  0.2285 -0.5809
 6787SOL    HW120650   0.439   4.883   0.313  0.2649  0.6590 -0.6969
 6787SOL    HW220651   0.535   4.751   0.312 -0.9958 -0.2786 -0.4425
 6788SOL     OW20652   0.041   0.465   1.488 -0.0557 -0.5163  0.3590
 6788SOL    HW120653   0.069   0.442   1.582 -2.5155  0.9873  1.5487
 6788SOL    HW220654   0.111   0.523   1.446 -0.2372  1.3183  2.4044
 6789SOL     OW20655   4.466   5.199   0.296  0.0527  0.1016 -0.2597
 6789SOL    HW120656   4.469   5.135   0.373 -0.1313  0.8509  0.3868
 6789SOL    HW220657   4.396   5.170   0.231 -0.0592 -0.3279  0.0471
 6790SOL     OW20658   0.988   0.924   1.648  0.4869 -0.2707 -0.1695
 6790SOL    HW120659   1.049   0.922   1.728  2.3359  0.4195 -1.4815
 6790SOL    HW220660   0.956   1.018   1.634  0.2235 -0.3768 -0.2646
 6791SOL     OW20661   0.133   3.459   1.389  0.0234  0.1712  0.2110
 6791SOL    HW120662   0.057   3.431   1.448 -0.1195 -0.1919 -0.1383
 6791SOL    HW220663   0.105   3.449   1.293  0.4178  0.2990  0.0829
 6792SOL     OW20664   4.865   4.170   2.684 -0.3009 -0.0600 -0.4025
 6792SOL    HW120665   4.947   4.195   2.736  1.5125 -1.6279 -2.3303
 6792SOL    HW220666   4.830   4.251   2.637 -0.3501  0.7835  0.9934
 6793SOL     OW20667   5.375   3.798   2.260  0.8973  0.5149  0.0206
 6793SOL    HW120668   5.431   3.763   2.335  2.0067  1.2644 -0.4305
 6793SOL    HW220669   5.401   3.893   2.240  1.3848  0.0113 -1.9953
 6794SOL     OW20670   5.508   4.093   1.027 -0.1826 -0.0898  0.7291
 6794SOL    HW120671   5.420   4.051   1.049  0.4279 -1.0088  1.5033
 6794SOL    HW220672   5.558   4.035   0.961 -0.9692  1.4313 -1.3169
 6795SOL     OW20673   1.386   4.014   2.616  0.1037 -0.3543 -0.2451
 6795SOL    HW120674   1.482   4.019   2.644 -0.0781  1.8387  0.2267
 6795SOL    HW220675   1.346   3.928   2.647  1.5004 -0.5958  1.0060
 6796SOL     OW20676   4.591   4.136   2.266  0.1618 -0.8242 -0.4202
 6796SOL    HW120677   4.507   4.157   2.317 -0.1485 -2.1769 -0.3541
 6796SOL    HW220678   4.668   4.130   2.331  0.4444  0.8823 -0.5288
 6797SOL     OW20679   4.706   4.495   1.755 -0.0105  0.3534  0.1982
 6797SOL    HW120680   4.695   4.409   1.706 -1.9730  0.4755  0.3461
 6797SOL    HW220681   4.626   4.512   1.812  1.4952  1.0127  2.2386
 6798SOL     OW20682   0.229   4.176   3.301  0.3678  0.0782 -0.2725
 6798SOL    HW120683   0.315   4.193   3.349  0.2816  1.9586 -0.6865
 6798SOL    HW220684   0.246   4.119   3.221  0.9853 -0.7161  0.4126
 6799SOL     OW20685   0.126   0.449   1.788  0.3802  0.1167 -0.3574
 6799SOL    HW120686   0.220   0.472   1.815  0.1999 -1.9178  2.3643
 6799SOL    HW220687   0.115   0.350   1.786 -1.5231  0.3095 -1.5123
 6800SOL     OW20688   5.134   5.668   2.137  0.3665 -0.5653 -0.4962
 6800SOL    HW120689   5.113   5.612   2.057 -1.2705 -0.8929  0.1415
 6800SOL    HW220690   5.088   5.756   2.129 -1.2529 -1.2352  0.8430
 6801SOL     OW20691   1.028   5.404   2.939 -0.2244 -0.1960  0.5698
 6801SOL    HW120692   1.011   5.307   2.954  0.6057 -0.5845 -0.8083
 6801SOL    HW220693   1.120   5.428   2.972  1.3284 -0.9020 -2.7261
 6802SOL     OW20694   3.903   5.300   1.299  0.0059  0.0166 -0.6076
 6802SOL    HW120695   3.966   5.267   1.369  1.8923  1.9992 -1.2659
 6802SOL    HW220696   3.955   5.331   1.219 -1.9222  0.2475 -1.8406
 6803SOL     OW20697   3.556   4.780   3.109  0.6394 -0.2493  0.1329
 6803SOL    HW120698   3.503   4.818   3.184 -2.4239  0.2844 -2.1181
 6803SOL    HW220699   3.564   4.680   3.120  0.4096 -0.1584  1.2139
 6804SOL     OW20700   3.484   4.519   1.470 -0.3829 -0.0849  0.0838
 6804SOL    HW120701   3.394   4.518   1.425 -2.3847  0.9018  3.7032
 6804SOL    HW220702   3.535   4.599   1.439 -1.2783  0.0896 -1.0439
 6805SOL     OW20703   0.617   3.647   2.564  0.1894 -0.0062  0.3498
 6805SOL    HW120704   0.708   3.626   2.598 -0.2036 -0.7163  1.0089
 6805SOL    HW220705   0.567   3.703   2.630  0.3492  0.8873 -0.2768
 6806SOL     OW20706   5.005   3.797   5.478 -0.3148 -0.3244 -0.0300
 6806SOL    HW120707   4.916   3.833   5.449 -0.4472 -0.8410 -0.2729
 6806SOL    HW220708   5.052   3.757   5.400  0.2101  0.1025  0.0646
 6807SOL     OW20709   5.226   0.645   5.359 -0.1379 -0.7092  0.0274
 6807SOL    HW120710   5.275   0.727   5.331 -0.5504 -0.2948  0.5187
 6807SOL    HW220711   5.211   0.646   5.458 -0.4297 -1.2204 -0.0052
 6808SOL     OW20712   0.283   3.862   0.702  0.0492  0.4130  0.2416
 6808SOL    HW120713   0.232   3.848   0.788 -0.4931  2.0086  0.2221
 6808SOL    HW220714   0.362   3.920   0.720  1.1496 -0.9898  0.0251
 6809SOL     OW20715   1.841   4.674   0.192 -0.6842 -0.1859 -0.1356
 6809SOL    HW120716   1.829   4.582   0.231  1.3950 -1.1197 -1.5385
 6809SOL    HW220717   1.786   4.681   0.109  1.6823 -1.4939 -1.9485
 6810SOL     OW20718   5.578   4.042   1.380  0.2344 -0.2054  0.3123
 6810SOL    HW120719   5.617   4.003   1.464 -1.8039 -0.2088  1.3344
 6810SOL    HW220720   5.521   3.973   1.335 -0.6912  0.5648  0.2944
 6811SOL     OW20721   5.550   2.684   3.486 -0.5140 -0.1850 -0.5441
 6811SOL    HW120722   5.579   2.656   3.578  0.6143  2.1126 -0.1297
 6811SOL    HW220723   5.468   2.632   3.460 -1.1626 -0.5819  1.9559
 6812SOL     OW20724   5.280   4.022   2.859 -0.3869  0.2172 -0.2858
 6812SOL    HW120725   5.263   4.015   2.761 -1.2455 -0.1299 -0.1251
 6812SOL    HW220726   5.309   3.933   2.894  1.1116  0.6312 -0.4249
 6813SOL     OW20727   0.243   5.375   2.489  0.2740  0.1963 -0.4538
 6813SOL    HW120728   0.232   5.282   2.452 -0.3491 -0.4354  1.2247
 6813SOL    HW220729   0.153   5.410   2.518  0.5251  1.2823 -0.9540
 6814SOL     OW20730   0.353   2.982   1.058 -0.0126 -0.4180  0.2451
 6814SOL    HW120731   0.343   2.974   0.959  0.4276  0.2715  0.1437
 6814SOL    HW220732   0.442   3.021   1.080  0.2787 -1.4274  0.9520
 6815SOL     OW20733   2.014   5.070   5.492  0.0022  0.1099  0.0630
 6815SOL    HW120734   1.987   5.069   5.396 -0.5562  0.4504  0.2118
 6815SOL    HW220735   2.065   5.154   5.511 -0.6063  0.4401  0.2532
 6816SOL     OW20736   5.511   5.020   0.368  0.0308 -0.1123  0.0022
 6816SOL    HW120737   5.430   4.982   0.413 -0.3622  1.4420  0.6839
 6816SOL    HW220738   5.577   4.947   0.351 -1.3078 -1.3332 -0.1484
 6817SOL     OW20739   0.553   5.062   1.428 -0.0050  0.7485 -0.0415
 6817SOL    HW120740   0.512   5.150   1.453 -2.7737 -0.3938 -0.1389
 6817SOL    HW220741   0.560   5.004   1.510 -1.9526 -0.2935 -0.5530
 6818SOL     OW20742   4.718   5.535   3.684  0.0145  0.4544  0.4669
 6818SOL    HW120743   4.684   5.459   3.740  1.2407 -1.2288 -0.9401
 6818SOL    HW220744   4.809   5.511   3.648  0.6915  2.8443  0.4029
 6819SOL     OW20745   0.775   3.453   2.868  0.2177  0.0574  0.3284
 6819SOL    HW120746   0.808   3.480   2.777  0.5264 -0.4546  0.2874
 6819SOL    HW220747   0.767   3.354   2.873 -4.0765  0.1790 -0.6199
 6820SOL     OW20748   5.118   0.607   0.613 -0.0231  0.4242 -0.6321
 6820SOL    HW120749   5.124   0.606   0.513 -1.8673  2.6584 -0.8529
 6820SOL    HW220750   5.099   0.514   0.646 -2.3020  0.0971 -2.6213
 6821SOL     OW20751   5.037   4.879   5.005 -0.2665  0.0201  0.1793
 6821SOL    HW120752   5.025   4.788   5.045  0.1707  0.0929  0.4792
 6821SOL    HW220753   4.981   4.945   5.054 -1.2755 -0.2260 -0.5913
 6822SOL     OW20754   5.700   3.509   2.459 -0.1494 -0.6654 -0.3731
 6822SOL    HW120755   5.623   3.573   2.455 -0.5052 -1.1463 -2.2468
 6822SOL    HW220756   5.671   3.419   2.426  0.7273 -1.4052  0.7861
 6823SOL     OW20757   0.048   0.191   1.723  0.1150 -0.1422 -0.2600
 6823SOL    HW120758   0.130   0.174   1.668 -0.7588 -0.5359 -1.4592
 6823SOL    HW220759  -0.032   0.151   1.679 -0.6952 -0.0710  1.0712
 6824SOL     OW20760   0.314   4.848   4.080 -0.6633 -0.4613 -0.2070
 6824SOL    HW120761   0.385   4.824   4.146  1.0866 -1.6321 -2.3691
 6824SOL    HW220762   0.314   4.946   4.064  0.1207 -0.3934  0.1784
 6825SOL     OW20763   5.686   3.817   4.733 -0.5066 -0.2988  0.0912
 6825SOL    HW120764   5.719   3.737   4.783  1.3401  0.3902  0.0757
 6825SOL    HW220765   5.592   3.839   4.761 -0.9727 -2.3283  0.2276
 6826SOL     OW20766   2.020   0.341   2.297  0.0208  0.0964  0.2616
 6826SOL    HW120767   2.019   0.248   2.260 -0.9247 -0.5013  1.6739
 6826SOL    HW220768   2.114   0.373   2.304  0.7976 -2.3490  3.4019
 6827SOL     OW20769   1.238   5.069   3.808 -0.0313 -0.1392 -0.0214
 6827SOL    HW120770   1.325   5.023   3.827 -0.3774  0.2355  2.9124
 6827SOL    HW220771   1.163   5.013   3.842 -0.6721  1.1468  0.7259
 6828SOL     OW20772   1.676   2.205   2.015  0.4071  0.1341  0.0425
 6828SOL    HW120773   1.698   2.273   2.085  0.7440 -0.5663  0.6362
 6828SOL    HW220774   1.760   2.158   1.987  0.2900  0.4933 -0.9280
 6829SOL     OW20775   5.405   4.040   3.729  0.5418  0.0745 -0.5260
 6829SOL    HW120776   5.423   4.113   3.796  0.4803  0.8026 -1.2933
 6829SOL    HW220777   5.461   4.054   3.648  2.5344 -2.2177  0.3258
 6830SOL     OW20778   4.234   5.287   2.949  0.2822  0.4742 -0.7817
 6830SOL    HW120779   4.157   5.312   3.006 -0.1185  2.4242 -2.0760
 6830SOL    HW220780   4.246   5.355   2.876  2.0920 -0.7438 -1.7236
 6831SOL     OW20781   0.928   4.412   3.541  0.0015  0.0804 -0.2310
 6831SOL    HW120782   0.977   4.444   3.623 -1.4955  0.0406  0.7085
 6831SOL    HW220783   0.938   4.313   3.533  1.5365  0.2571 -1.0742
 6832SOL     OW20784   1.632   4.732   2.720  0.2435  0.5512 -0.4079
 6832SOL    HW120785   1.632   4.634   2.736 -1.2427  0.3616 -1.3887
 6832SOL    HW220786   1.597   4.780   2.801 -0.2590  0.1695 -0.3977
 6833SOL     OW20787   0.354   5.601   2.358 -0.3320 -0.1844  0.4466
 6833SOL    HW120788   0.375   5.676   2.420 -1.0430  0.6080 -0.2448
 6833SOL    HW220789   0.340   5.517   2.411  1.1805 -0.0142  1.1665
 6834SOL     OW20790   4.915   2.382   1.547 -0.0517  0.3232  0.0754
 6834SOL    HW120791   4.850   2.340   1.484 -0.2473  0.3440  0.2623
 6834SOL    HW220792   4.900   2.481   1.548 -0.0931  0.3152  0.2062
 6835SOL     OW20793   0.410   4.734   3.529 -0.1261 -0.2771  0.0940
 6835SOL    HW120794   0.352   4.703   3.604 -2.5159  0.3063 -1.4152
 6835SOL    HW220795   0.506   4.735   3.559 -1.0312  0.5245  3.2957
 6836SOL     OW20796   4.419   5.116   0.808 -0.0298  0.0651 -0.0346
 6836SOL    HW120797   4.518   5.124   0.809  0.0843 -1.2078  0.6910
 6836SOL    HW220798   4.386   5.113   0.714  0.7008 -0.3503 -0.2789
 6837SOL     OW20799   5.590   5.752   3.463 -0.0737 -0.1444  0.4160
 6837SOL    HW120800   5.676   5.794   3.494  1.3349 -1.5981 -1.2808
 6837SOL    HW220801   5.585   5.756   3.364 -0.8257 -2.1655  0.3245
 6838SOL     OW20802   5.870   5.831   2.912  0.1209  0.0943 -0.1299
 6838SOL    HW120803   5.894   5.900   2.843 -0.6817  0.9306  0.3992
 6838SOL    HW220804   5.770   5.826   2.921  0.2035 -0.2230  0.7397
 6839SOL     OW20805   3.305   4.678   3.499  0.1489 -0.2855  0.1518
 6839SOL    HW120806   3.254   4.635   3.425 -2.3597  0.5588  1.2950
 6839SOL    HW220807   3.342   4.608   3.560 -0.4903 -0.9147 -0.1742
 6840SOL     OW20808   4.875   5.576   4.910  0.4168 -0.6201  0.4742
 6840SOL    HW120809   4.898   5.585   4.813 -1.2376 -0.2513  0.0876
 6840SOL    HW220810   4.834   5.487   4.927 -1.9908  0.3584  0.1982
 6841SOL     OW20811   0.842   4.944   4.110  0.7117 -0.2745 -0.4026
 6841SOL    HW120812   0.884   5.009   4.173  1.0714  0.4670 -1.3716
 6841SOL    HW220813   0.765   4.989   4.064  0.6796 -0.6876 -0.7520
 6842SOL     OW20814   5.388   0.189   3.903 -0.1041 -0.1843  0.3759
 6842SOL    HW120815   5.466   0.219   3.848 -0.5008  1.5684  0.6908
 6842SOL    HW220816   5.392   0.232   3.993 -1.0379 -0.6428  0.6514
 6843SOL     OW20817   4.837   4.784   3.068  0.3877 -0.1764 -0.0551
 6843SOL    HW120818   4.934   4.805   3.058  0.1321  1.6909  0.9677
 6843SOL    HW220819   4.798   4.839   3.142 -1.3604 -1.2275 -0.1314
 6844SOL     OW20820   4.772   5.320   0.518 -0.3171 -0.0892  0.1675
 6844SOL    HW120821   4.723   5.277   0.442 -0.4349  0.4676 -0.0756
 6844SOL    HW220822   4.864   5.282   0.524  0.7165  1.8454 -2.0688
 6845SOL     OW20823   1.289   5.339   2.295  0.1998 -0.1031 -0.1812
 6845SOL    HW120824   1.327   5.431   2.281 -1.0623  0.4582 -0.0899
 6845SOL    HW220825   1.257   5.330   2.389  1.2661 -1.0253  0.1154
 6846SOL     OW20826   4.000   4.984   1.788 -0.2826 -0.3317 -0.3821
 6846SOL    HW120827   3.907   5.012   1.761  0.0555  0.2866 -0.9175
 6846SOL    HW220828   4.032   4.913   1.726 -0.6897 -1.1054  0.2740
 6847SOL     OW20829   4.631   4.407   2.148 -0.1222 -0.3893 -0.4235
 6847SOL    HW120830   4.726   4.407   2.119 -0.2261  0.1013 -0.7834
 6847SOL    HW220831   4.601   4.313   2.165  0.5926 -0.5016  0.2778
 6848SOL     OW20832   5.328   2.541   3.428 -0.0575 -0.1422 -0.6796
 6848SOL    HW120833   5.242   2.572   3.468  0.3997  0.2415  0.0127
 6848SOL    HW220834   5.319   2.445   3.401 -0.2022 -0.5908  0.8614
 6849SOL     OW20835   5.369   3.426   2.899  0.5204  0.2233 -0.2097
 6849SOL    HW120836   5.276   3.450   2.925 -0.6961 -0.3303 -3.5019
 6849SOL    HW220837   5.392   3.336   2.935 -1.2109 -0.7116 -1.3082
 6850SOL     OW20838   3.364   5.019   0.811  0.0604 -0.1100  0.3961
 6850SOL    HW120839   3.464   5.011   0.810  0.0998  0.2121  1.2579
 6850SOL    HW220840   3.334   5.048   0.902 -0.7770  0.3248 -0.0098
 6851SOL     OW20841   4.858   3.457   3.435  0.5909  0.0797  0.1829
 6851SOL    HW120842   4.790   3.529   3.450 -0.5918 -0.1279 -3.2793
 6851SOL    HW220843   4.816   3.368   3.448  0.7711 -0.0192  0.0941
 6852SOL     OW20844   0.774   5.673   2.162  0.0235  0.0541 -0.8171
 6852SOL    HW120845   0.757   5.574   2.163 -1.2785  0.2465 -1.6343
 6852SOL    HW220846   0.705   5.718   2.107  0.9548  1.3790 -0.9537
 6853SOL     OW20847   5.798   3.980   5.422 -0.0518  0.5261  0.1435
 6853SOL    HW120848   5.821   3.890   5.458 -0.6413  1.0229  1.8766
 6853SOL    HW220849   5.751   4.033   5.493  0.1462  2.1449 -0.8816
 6854SOL     OW20850   5.505   5.456   4.022 -0.1296 -1.1335 -0.0148
 6854SOL    HW120851   5.569   5.479   3.949 -0.5835 -3.0270 -1.0852
 6854SOL    HW220852   5.555   5.447   4.109  0.6482 -0.3023 -0.3590
 6855SOL     OW20853  -0.024   5.930   5.869 -0.2621 -0.4206  0.2592
 6855SOL    HW120854  -0.012   6.004   5.935 -0.7147  0.2826 -0.4297
 6855SOL    HW220855   0.042   5.857   5.889  1.5915  1.0300 -0.2631
 6856SOL     OW20856   0.258   5.022   0.039 -0.2147 -0.1337  0.0036
 6856SOL    HW120857   0.306   5.109   0.046 -0.3858  0.0447 -0.9228
 6856SOL    HW220858   0.202   5.008   0.120  0.0834  0.4528  0.3154
 6857SOL     OW20859   1.084   5.685   4.801 -0.4783  0.6232  0.1863
 6857SOL    HW120860   1.170   5.735   4.795  0.4378 -0.7351  1.3346
 6857SOL    HW220861   1.037   5.687   4.713  0.2544  2.1983 -0.1880
 6858SOL     OW20862   5.314   0.597   3.979 -0.0504 -0.0654 -0.6227
 6858SOL    HW120863   5.406   0.634   3.985 -0.2320  0.1961  1.8885
 6858SOL    HW220864   5.308   0.533   3.903  1.9659  0.5149 -1.3235
 6859SOL     OW20865   5.957   5.156   4.838 -0.0911 -0.0279 -0.1142
 6859SOL    HW120866   5.975   5.073   4.889 -1.8238 -0.5577 -0.2841
 6859SOL    HW220867   5.883   5.207   4.882  0.6461  1.2016 -0.2578
 6860SOL     OW20868   5.484   5.476   2.948 -0.5336  0.2548  0.0465
 6860SOL    HW120869   5.423   5.405   2.984 -0.5541 -0.1369 -0.7368
 6860SOL    HW220870   5.437   5.528   2.877 -0.1418  0.2986 -0.1856
 6861SOL     OW20871   5.064   5.379   3.427  0.0169  0.2339  0.4144
 6861SOL    HW120872   5.157   5.403   3.455  0.0779 -1.2052  1.6037
 6861SOL    HW220873   5.020   5.458   3.385  2.6771  0.2476 -2.7875
 6862SOL     OW20874   5.363   4.002   4.049 -0.0233 -0.1534  0.2843
 6862SOL    HW120875   5.400   3.917   4.012 -0.4157 -0.9208  1.6150
 6862SOL    HW220876   5.408   4.080   4.003  0.8614 -1.0553 -0.4380
 6863SOL     OW20877   0.284   4.693   3.757 -0.5626  0.1997 -0.4712
 6863SOL    HW120878   0.309   4.650   3.844  1.7594  0.1768 -1.0949
 6863SOL    HW220879   0.226   4.773   3.776 -0.5521 -0.1058  1.0395
 6864SOL     OW20880   0.232   5.101   2.904  0.6247 -0.4545 -0.0591
 6864SOL    HW120881   0.267   5.073   2.994  0.5236 -1.1609 -0.2351
 6864SOL    HW220882   0.167   5.176   2.916 -0.4530 -1.4672  0.6026
 6865SOL     OW20883   4.486   0.576   0.444  0.4263  0.3542 -0.3765
 6865SOL    HW120884   4.460   0.639   0.516  1.5455  1.2767 -0.7540
 6865SOL    HW220885   4.498   0.484   0.482  2.0452  1.0212  0.8569
 6866SOL     OW20886   4.750   3.575   3.772 -0.3875  0.1147 -0.3909
 6866SOL    HW120887   4.674   3.615   3.722 -0.9010  0.6836  0.8252
 6866SOL    HW220888   4.733   3.477   3.786 -0.8218  0.2113 -0.2432
 6867SOL     OW20889   4.799   3.333   4.098  0.4699  0.0086  0.3477
 6867SOL    HW120890   4.768   3.338   4.003  0.3961 -1.3557  0.2814
 6867SOL    HW220891   4.750   3.260   4.145 -0.1461  1.2336  1.7078
 6868SOL     OW20892   4.787   5.296   4.805  0.5681 -0.1955  0.1162
 6868SOL    HW120893   4.692   5.291   4.774  0.6396 -0.6844 -0.0382
 6868SOL    HW220894   4.807   5.216   4.863  1.5991 -1.4726 -1.8940
 6869SOL     OW20895   4.590   5.340   3.823  0.5381  0.6161 -0.2496
 6869SOL    HW120896   4.539   5.409   3.875 -1.7356 -1.4118  0.4325
 6869SOL    HW220897   4.653   5.293   3.884 -1.3585 -1.0360  0.5537
 6870SOL     OW20898   1.336   3.873   5.486 -0.2916  0.2956 -0.0038
 6870SOL    HW120899   1.290   3.845   5.570  0.5094  0.0203  0.3528
 6870SOL    HW220900   1.356   3.792   5.430 -1.2724  0.5190 -0.7117
 6871SOL     OW20901   0.474   5.905   0.749 -0.0847 -0.5274 -0.3564
 6871SOL    HW120902   0.546   5.967   0.716  0.5728 -2.1220 -2.0434
 6871SOL    HW220903   0.392   5.916   0.693 -0.9396  0.6759  1.0371
 6872SOL     OW20904   0.274   4.268   2.763 -0.4540 -0.6275  1.2648
 6872SOL    HW120905   0.227   4.356   2.757 -0.2726 -0.5760  0.4697
 6872SOL    HW220906   0.340   4.271   2.838  1.0295  0.6399 -0.0255
 6873SOL     OW20907   1.287   3.425   3.380  0.4085 -0.2484 -0.1366
 6873SOL    HW120908   1.379   3.462   3.393  0.4379 -0.6220  0.8234
 6873SOL    HW220909   1.222   3.500   3.369  0.4151  0.1486  2.1078
 6874SOL     OW20910   0.164   3.660   4.851  0.0618  0.2787 -0.4724
 6874SOL    HW120911   0.087   3.627   4.906 -0.7984  1.9869 -0.5601
 6874SOL    HW220912   0.250   3.644   4.899 -0.6456  1.5322  1.3234
 6875SOL     OW20913   5.115   3.612   3.256  0.4410  0.1795  0.0696
 6875SOL    HW120914   5.172   3.587   3.178 -0.6863  0.9712 -1.0574
 6875SOL    HW220915   5.086   3.530   3.305 -0.3802 -0.4782 -1.4802
 6876SOL     OW20916   4.856   4.957   3.887 -0.1930  0.1021  0.3361
 6876SOL    HW120917   4.928   4.985   3.823  1.1422 -1.5485  1.0330
 6876SOL    HW220918   4.806   4.879   3.849  0.1359 -0.4291  0.9720
 6877SOL     OW20919   4.463   4.944   4.667  0.1592 -0.5589  0.5307
 6877SOL    HW120920   4.518   4.879   4.719 -0.0963  1.0764  3.0106
 6877SOL    HW220921   4.519   4.982   4.593  1.9989  0.0685  2.1583
 6878SOL     OW20922   0.804   4.360   3.915 -0.5522  0.1322 -0.8501
 6878SOL    HW120923   0.726   4.411   3.949 -0.1988 -0.2322  0.5727
 6878SOL    HW220924   0.866   4.421   3.865  0.0902  1.2330  1.1843
 6879SOL     OW20925   4.911   4.512   3.120  0.4780  0.0748 -0.1889
 6879SOL    HW120926   4.899   4.610   3.105  0.5978 -0.2042 -2.3363
 6879SOL    HW220927   5.008   4.490   3.127  0.4673  0.0617 -0.0803
 6880SOL     OW20928   0.565   4.573   2.240  0.1095 -0.0984 -0.3099
 6880SOL    HW120929   0.532   4.479   2.244 -1.6452  0.4130 -1.5367
 6880SOL    HW220930   0.568   4.604   2.145 -0.8150  1.5365  0.1418
 6881SOL     OW20931   5.615   4.234   4.620 -0.1495  0.2346  0.4985
 6881SOL    HW120932   5.555   4.158   4.594 -1.1390  1.6997 -1.7553
 6881SOL    HW220933   5.635   4.290   4.540  1.8894  1.4778  1.7833
 6882SOL     OW20934   0.646   5.217   0.244 -0.5939 -1.0568 -0.1397
 6882SOL    HW120935   0.563   5.163   0.238 -0.2853 -1.5391 -0.1248
 6882SOL    HW220936   0.626   5.304   0.290 -1.1167 -1.1027 -0.2770
 6883SOL     OW20937   5.761   5.323   4.938  0.3933 -0.5097 -0.0559
 6883SOL    HW120938   5.681   5.320   4.878  0.0917 -0.0277  0.3186
 6883SOL    HW220939   5.786   5.419   4.955 -0.6029 -0.5825  2.0196
 6884SOL     OW20940   0.061   5.333   4.618 -0.2127  0.3910  0.2628
 6884SOL    HW120941   0.027   5.277   4.694  1.3750  0.3572  1.0105
 6884SOL    HW220942   0.092   5.273   4.544  0.4146  0.3085  0.5836
 6885SOL     OW20943   4.512   1.266   5.813 -0.0459 -0.6051  0.7689
 6885SOL    HW120944   4.536   1.300   5.722 -0.8936  0.4095  0.9112
 6885SOL    HW220945   4.587   1.284   5.876 -0.3196  0.6465  0.7486
 6886SOL     OW20946   1.694   4.590   5.665 -0.0709  0.0523 -0.1839
 6886SOL    HW120947   1.769   4.567   5.603 -0.3091 -1.4352  0.0411
 6886SOL    HW220948   1.629   4.649   5.618  0.3923 -0.0292 -0.9434
 6887SOL     OW20949   5.871   5.470   0.340 -0.0861  0.0660 -0.2561
 6887SOL    HW120950   5.788   5.470   0.394  0.4756 -1.1290  0.6587
 6887SOL    HW220951   5.949   5.490   0.399  0.5170 -1.0830 -0.6160
 6888SOL     OW20952   4.237   3.991   5.446 -0.0353  0.2369 -0.1445
 6888SOL    HW120953   4.241   3.891   5.439 -1.3577  0.0074  1.6522
 6888SOL    HW220954   4.330   4.028   5.445  0.4584 -0.8587 -2.0503
 6889SOL     OW20955   5.487   4.924   4.345 -0.2338  0.6616 -0.2005
 6889SOL    HW120956   5.481   4.940   4.247  1.8444  0.9435 -0.3439
 6889SOL    HW220957   5.533   4.837   4.362  2.4223  2.0648  0.4200
 6890SOL     OW20958   5.341   4.895   5.037 -0.1220 -0.2118  0.1648
 6890SOL    HW120959   5.242   4.898   5.021  0.1002  1.8946 -1.2527
 6890SOL    HW220960   5.377   4.988   5.039  1.8046 -0.9203  1.0690
 6891SOL     OW20961   0.237   5.111   3.992 -0.1393  0.1442 -0.3333
 6891SOL    HW120962   0.152   5.103   3.939 -0.2562  0.5697 -0.2112
 6891SOL    HW220963   0.310   5.145   3.932 -0.6127  2.0189  0.0953
 6892SOL     OW20964   5.321   0.855   3.875  0.3873 -0.1276  0.2481
 6892SOL    HW120965   5.306   0.928   3.943 -1.8050 -0.6298  0.3749
 6892SOL    HW220966   5.393   0.794   3.907  1.6168  1.4349  0.5819
 6893SOL     OW20967   1.143   4.177   4.637 -0.7166  0.1111 -0.0602
 6893SOL    HW120968   1.201   4.131   4.704  0.6561 -0.0181 -1.2922
 6893SOL    HW220969   1.060   4.122   4.622 -0.6338 -0.2832  0.8708
 6894SOL     OW20970   5.103   0.243   1.990  0.2616 -0.6306 -0.1482
 6894SOL    HW120971   5.083   0.326   2.042  0.4186 -0.8896  0.3293
 6894SOL    HW220972   5.023   0.184   1.990 -0.2195 -0.0226 -1.3853
 6895SOL     OW20973   1.043   5.263   5.243 -0.2156 -0.1079  0.4377
 6895SOL    HW120974   1.070   5.335   5.305  1.0680  1.6660 -2.0173
 6895SOL    HW220975   1.088   5.177   5.269  1.3816  0.9019  1.1449
 6896SOL     OW20976   0.460   5.818   5.497  0.6439  0.6999  0.1189
 6896SOL    HW120977   0.430   5.913   5.491 -1.9779  0.0497  1.2533
 6896SOL    HW220978   0.499   5.801   5.588  1.2472  0.7154 -0.1337
 6897SOL     OW20979   5.277   4.046   0.736 -0.6765 -0.5904 -0.2218
 6897SOL    HW120980   5.307   4.103   0.659 -1.0619 -0.7909 -0.5247
 6897SOL    HW220981   5.185   4.012   0.718 -0.4268 -1.3649 -0.0735
 6898SOL     OW20982   0.911   3.764   0.451 -0.2383  0.3765 -0.3322
 6898SOL    HW120983   0.940   3.736   0.542  0.8146 -1.8917 -1.2709
 6898SOL    HW220984   0.849   3.695   0.413 -1.2845  1.6684 -1.0602
 6899SOL     OW20985   4.802   3.909   1.228 -0.3809  0.4489 -0.0443
 6899SOL    HW120986   4.725   3.958   1.270  0.0408  0.4859  0.6840
 6899SOL    HW220987   4.878   3.903   1.292  1.5147  3.2784 -1.7975
 6900SOL     OW20988   5.062   1.375   0.375  0.2069  0.4405  0.1982
 6900SOL    HW120989   5.009   1.460   0.371  0.8172  0.7725 -2.2246
 6900SOL    HW220990   5.145   1.385   0.322  0.9605 -1.2758  0.9665
 6901SOL     OW20991   5.387   5.419   0.657  0.2898 -0.0338 -0.0610
 6901SOL    HW120992   5.470   5.365   0.673  0.3303  0.2869  0.8724
 6901SOL    HW220993   5.347   5.393   0.570  1.1834 -0.4430 -0.3628
 6902SOL     OW20994   5.858   4.683   4.343 -0.2201  0.0633 -0.5446
 6902SOL    HW120995   5.758   4.681   4.342 -0.2657  1.3887  0.1401
 6902SOL    HW220996   5.891   4.757   4.284  0.3248  0.3777  0.1423
 6903SOL     OW20997   0.247   1.569   1.208  0.9108 -0.1288  0.4972
 6903SOL    HW120998   0.238   1.504   1.132  0.9595 -1.9546  2.0030
 6903SOL    HW220999   0.222   1.524   1.294  1.4959  1.7016  1.6796
 6904SOL     OW21000   5.188   1.187   0.539 -0.4116 -0.9757 -0.0900
 6904SOL    HW121001   5.119   1.211   0.471  1.2212  0.0073 -1.4992
 6904SOL    HW221002   5.255   1.126   0.497  1.9329  1.4911 -0.1919
 6905SOL     OW21003   0.744   4.797   4.976  0.2062 -0.5714 -0.2268
 6905SOL    HW121004   0.754   4.714   4.922  0.8949 -0.9569  0.4807
 6905SOL    HW221005   0.757   4.776   5.073 -0.4654  0.2103  0.0409
 6906SOL     OW21006   0.443   4.835   0.971  0.1765 -0.2549  0.0535
 6906SOL    HW121007   0.468   4.869   0.880 -0.0131 -0.2106  0.0167
 6906SOL    HW221008   0.520   4.848   1.034  0.6805 -1.2377 -0.3461
 6907SOL     OW21009   2.466   5.645   5.738 -0.6341  0.5349  1.1564
 6907SOL    HW121010   2.429   5.653   5.830  0.6127 -0.6532  1.7931
 6907SOL    HW221011   2.523   5.563   5.732 -0.4312  0.7659 -0.5860
 6908SOL     OW21012   1.309   4.592   1.269  0.3199 -0.7557 -0.6423
 6908SOL    HW121013   1.210   4.600   1.282 -0.0195 -1.9934 -2.1763
 6908SOL    HW221014   1.351   4.557   1.353 -0.0802  2.4452  1.0536
 6909SOL     OW21015   5.859   0.077   5.554  0.4295  0.5601 -0.0433
 6909SOL    HW121016   5.804   0.132   5.617  1.5808  1.1921  0.4396
 6909SOL    HW221017   5.844  -0.020   5.572 -1.6063  0.6617 -0.8840
 6910SOL     OW21018  -0.003   4.975   1.207 -0.1493 -0.1702  0.3952
 6910SOL    HW121019   0.006   5.058   1.263 -0.2350 -0.1741  0.4142
 6910SOL    HW221020   0.080   4.963   1.152 -1.3380  1.6213 -1.9533
 6911SOL     OW21021   4.470   0.591   1.685  0.1453 -0.3370 -0.1916
 6911SOL    HW121022   4.539   0.645   1.637 -1.1254  0.1807 -1.4923
 6911SOL    HW221023   4.433   0.645   1.761  1.2888 -0.6993  0.6537
 6912SOL     OW21024   0.314   0.686   3.982  0.2002  0.2123 -0.0879
 6912SOL    HW121025   0.250   0.750   3.937  2.9022  2.9809 -0.3568
 6912SOL    HW221026   0.302   0.691   4.081  0.0918  0.8403 -0.1263
 6913SOL     OW21027   4.600   5.789   2.824  0.0078  0.0773 -0.1821
 6913SOL    HW121028   4.509   5.791   2.866 -0.1097  1.5847 -0.4380
 6913SOL    HW221029   4.615   5.874   2.774  0.8798 -0.9143 -1.6561
 6914SOL     OW21030   0.930   5.312   3.698 -0.2414 -0.8714  1.0267
 6914SOL    HW121031   0.863   5.345   3.764 -1.0803  0.7816 -0.5734
 6914SOL    HW221032   0.884   5.259   3.627  0.0542  0.5271 -0.2516
 6915SOL     OW21033   3.887   4.847   1.420 -0.9602  0.5869  0.0469
 6915SOL    HW121034   3.958   4.833   1.490 -0.4613  2.4724 -0.0255
 6915SOL    HW221035   3.903   4.785   1.344 -0.2439 -0.0145  0.6725
 6916SOL     OW21036   0.173   5.671   2.169 -0.5670 -0.1554  0.1247
 6916SOL    HW121037   0.179   5.770   2.159  0.4167 -0.3018 -0.9774
 6916SOL    HW221038   0.222   5.643   2.252 -1.2909  0.3112  0.7219
 6917SOL     OW21039   4.761   5.273   1.043  0.0153  0.0875 -0.2374
 6917SOL    HW121040   4.756   5.365   1.002  0.7727  0.3713  0.2957
 6917SOL    HW221041   4.818   5.214   0.986  0.0497  0.1284 -0.2451
 6918SOL     OW21042   0.364   0.251   1.130 -0.0586  0.5440 -0.2024
 6918SOL    HW121043   0.454   0.289   1.152 -0.4346 -0.0762  2.8762
 6918SOL    HW221044   0.375   0.166   1.079  1.2366 -0.2887  1.3609
 6919SOL     OW21045   0.352   5.557   5.699 -0.2038 -0.2394  0.4217
 6919SOL    HW121046   0.429   5.620   5.690  0.5228 -0.4760  3.6079
 6919SOL    HW221047   0.294   5.564   5.619  2.2838  1.0893 -1.4132
 6920SOL     OW21048   1.745   5.847   5.570 -0.1799  0.4097 -0.5690
 6920SOL    HW121049   1.714   5.782   5.638  0.0668 -1.1449 -1.8837
 6920SOL    HW221050   1.844   5.860   5.579 -0.1815  0.3740 -0.5004
 6921SOL     OW21051   5.855   1.811   5.408  0.2705  0.2497  0.0685
 6921SOL    HW121052   5.944   1.786   5.370 -0.3933 -0.7713 -0.8816
 6921SOL    HW221053   5.841   1.909   5.398  0.9615  0.3000 -0.5108
 6922SOL     OW21054   5.101   0.312   2.639 -0.2327  0.1381  0.1086
 6922SOL    HW121055   5.042   0.304   2.559  0.0903 -0.0568 -0.1100
 6922SOL    HW221056   5.196   0.300   2.612 -0.1515 -0.3249  0.5794
 6923SOL     OW21057   5.766   1.650   0.655  0.2418  0.0648 -0.1822
 6923SOL    HW121058   5.760   1.591   0.735  1.3949  0.5856  0.3226
 6923SOL    HW221059   5.746   1.597   0.572  0.4902 -0.8434  0.3260
 6924SOL     OW21060   4.875   1.137   5.114 -0.4187 -0.1451 -0.4228
 6924SOL    HW121061   4.929   1.053   5.115 -1.6480 -0.9828 -1.4694
 6924SOL    HW221062   4.936   1.216   5.125  0.8088 -1.1387  0.0951
 6925SOL     OW21063   1.312   0.963   0.206 -0.4331  0.1461  0.5209
 6925SOL    HW121064   1.410   0.962   0.223 -0.3014 -0.7194 -0.1750
 6925SOL    HW221065   1.295   0.994   0.112 -0.8023  0.1130  0.5767
 6926SOL     OW21066   0.489   3.977   4.455 -0.0139 -0.3142 -0.1858
 6926SOL    HW121067   0.410   3.916   4.447  1.0620 -1.7489 -0.3049
 6926SOL    HW221068   0.505   4.023   4.367  0.0719 -1.0334 -0.5489
 6927SOL     OW21069   4.834   1.322   4.905  0.9568  0.3814 -0.4012
 6927SOL    HW121070   4.836   1.253   4.977  2.8876  2.2993  1.5222
 6927SOL    HW221071   4.922   1.325   4.859  1.1103  1.9156 -0.0643
 6928SOL     OW21072   0.215   5.801   3.655 -0.3809  0.5310 -0.0627
 6928SOL    HW121073   0.217   5.736   3.579  0.2341 -0.5724  0.8617
 6928SOL    HW221074   0.278   5.876   3.636 -0.0685  0.1505 -0.5595
 6929SOL     OW21075   5.336   1.481   5.299  0.7267 -0.2559  0.1145
 6929SOL    HW121076   5.304   1.543   5.227 -1.4024 -0.4833  0.8158
 6929SOL    HW221077   5.310   1.388   5.277 -0.1657 -0.2956  1.2850
 6930SOL     OW21078   0.839   4.729   5.226 -0.3970 -0.5961  0.3130
 6930SOL    HW121079   0.835   4.651   5.288 -1.7508 -0.7830  0.0132
 6930SOL    HW221080   0.914   4.789   5.254  0.1179 -1.5540  1.0680
 6931SOL     OW21081   2.265   4.337   4.899 -0.5638  0.0411  0.4145
 6931SOL    HW121082   2.282   4.391   4.981  1.0463  0.7965 -0.3822
 6931SOL    HW221083   2.166   4.336   4.880 -0.7151  2.0766  0.8694
 6932SOL     OW21084   1.005   0.073   0.859 -0.1890 -0.1581  0.6491
 6932SOL    HW121085   0.941   0.120   0.920 -0.5311 -1.0800  1.0237
 6932SOL    HW221086   1.051  -0.000   0.910  1.6238  0.8561  0.5581
 6933SOL     OW21087   5.196   5.846   4.468 -0.8115 -0.2877  0.6868
 6933SOL    HW121088   5.242   5.786   4.534 -4.2034 -0.7103  2.8852
 6933SOL    HW221089   5.183   5.796   4.382  0.8696 -0.8393  0.7040
 6934CL      CL21090   5.787   3.685   5.591 -0.0402  0.8155  0.4695
 6935CL      CL21091   3.821   0.331   5.396  0.0104  0.5990  0.1823
   5.94196   5.94196   5.94196
