Protein in water
17150
    1LEU      N    1   3.270   3.438   1.415 -0.2974 -0.7193 -0.2721
    1LEU     H1    2   3.359   3.436   1.367  0.6452 -0.6940  1.4074
    1LEU     H2    3   3.224   3.348   1.417 -2.7385  0.4687  0.2834
    1LEU     H3    4   3.217   3.512   1.372  0.0369  0.0160  0.5424
    1LEU     CA    5   3.303   3.471   1.554 -0.1788 -0.4415  0.4454
    1LEU     HA    6   3.362   3.387   1.592 -1.4227 -1.0511  1.0815
    1LEU     CB    7   3.375   3.607   1.581 -0.9344  0.1718 -0.0686
    1LEU    HB1    8   3.358   3.641   1.683 -1.2621 -3.3931  1.2215
    1LEU    HB2    9   3.336   3.675   1.506  2.2562  0.4295 -1.6699
    1LEU     CG   10   3.523   3.581   1.556 -0.0759  0.0537  0.1390
    1LEU     HG   11   3.540   3.510   1.475  0.6455 -0.6993  0.9304
    1LEU    CD1   12   3.593   3.712   1.514 -0.3988  0.0071  0.4402
    1LEU   HD11   13   3.693   3.683   1.481 -1.2425 -1.2903 -1.1605
    1LEU   HD12   14   3.538   3.758   1.432  1.1035 -2.0240 -1.8901
    1LEU   HD13   15   3.606   3.769   1.605 -0.2859 -2.1829  1.8681
    1LEU    CD2   16   3.589   3.507   1.679  0.0499 -0.0433  0.2008
    1LEU   HD21   17   3.521   3.427   1.711  0.1782 -0.6086 -0.8727
    1LEU   HD22   18   3.689   3.473   1.653  0.4768  0.3922  1.2207
    1LEU   HD23   19   3.598   3.575   1.763  0.2324 -0.6218  0.6577
    1LEU      C   20   3.181   3.461   1.648  0.6564  0.2565  0.2959
    1LEU      O   21   3.180   3.386   1.746  0.0244  0.2607  0.4821
    2ILE      N   22   3.076   3.536   1.633  0.2629  0.1276  1.2241
    2ILE      H   23   3.088   3.607   1.562 -0.8624 -0.2866  0.5852
    2ILE     CA   24   2.959   3.540   1.725 -0.0022  0.1030  0.7282
    2ILE     HA   25   2.997   3.591   1.813  1.5107  1.1215 -0.4643
    2ILE     CB   26   2.858   3.629   1.669 -0.3044 -0.3664  0.1605
    2ILE     HB   27   2.838   3.585   1.571 -0.3004  1.2134 -0.5916
    2ILE    CG2   28   2.719   3.638   1.734  0.5736 -0.2209 -0.3613
    2ILE   HG21   29   2.644   3.696   1.680 -0.7802 -1.9814 -0.4445
    2ILE   HG22   30   2.666   3.543   1.742 -0.4870  0.4892  2.1662
    2ILE   HG23   31   2.740   3.682   1.832  0.5533  0.9326 -0.8550
    2ILE    CG1   32   2.911   3.781   1.651  0.2166 -0.0505 -0.6907
    2ILE   HG11   33   3.013   3.792   1.614  1.2786 -1.6032  1.5157
    2ILE   HG12   34   2.937   3.808   1.753 -1.0889 -2.9472  0.5233
    2ILE     CD   35   2.818   3.867   1.570 -0.1292 -0.0672  0.5137
    2ILE    HD1   36   2.727   3.888   1.627  0.6765  1.5423  1.2901
    2ILE    HD2   37   2.856   3.967   1.551  0.0610  0.0750  1.5842
    2ILE    HD3   38   2.808   3.819   1.473  0.5327  1.0299 -0.1046
    2ILE      C   39   2.895   3.401   1.752  0.0513  0.0626 -0.1143
    2ILE      O   40   2.872   3.369   1.873  0.5118 -0.2163 -0.1261
    3LEU      N   41   2.889   3.305   1.661  0.6469  0.4711  0.2572
    3LEU      H   42   2.916   3.331   1.567  0.0242  0.8865  0.1887
    3LEU     CA   43   2.847   3.170   1.687  0.1904  0.2864 -0.1506
    3LEU     HA   44   2.752   3.177   1.740  0.5896  1.6996  0.4133
    3LEU     CB   45   2.827   3.089   1.558  0.2142  0.2834 -0.0348
    3LEU    HB1   46   2.859   2.987   1.580 -0.0622  0.7409  2.9091
    3LEU    HB2   47   2.894   3.125   1.481 -0.9671 -1.6903 -2.0992
    3LEU     CG   48   2.680   3.069   1.512 -0.3218 -0.3673  0.3824
    3LEU     HG   49   2.614   3.154   1.528  0.0756  0.2938 -1.3102
    3LEU    CD1   50   2.680   3.020   1.368 -0.2547  0.0848  1.5350
    3LEU   HD11   51   2.731   2.924   1.366 -1.4606 -0.5766  1.0436
    3LEU   HD12   52   2.575   3.014   1.338 -0.2175  0.9838  1.1975
    3LEU   HD13   53   2.729   3.091   1.301  2.2364 -0.6318  2.4818
    3LEU    CD2   54   2.622   2.944   1.583  0.1670 -0.6934  0.0920
    3LEU   HD21   55   2.682   2.856   1.562 -1.1011 -1.2334 -1.4111
    3LEU   HD22   56   2.617   2.964   1.690 -0.6606  1.0240 -0.2224
    3LEU   HD23   57   2.518   2.927   1.556 -0.8897  0.8518  2.7671
    3LEU      C   58   2.944   3.095   1.775 -0.1169 -0.7286  0.3666
    3LEU      O   59   2.901   3.021   1.858 -0.0438 -0.2870 -0.4593
    4LEU      N   60   3.076   3.113   1.756 -0.4317  0.0984  0.6998
    4LEU      H   61   3.108   3.187   1.695  0.7055  0.9773  2.2943
    4LEU     CA   62   3.173   3.040   1.841 -0.5846  0.7931  0.0203
    4LEU     HA   63   3.138   2.938   1.828  1.1645 -0.1287  2.0250
    4LEU     CB   64   3.315   3.056   1.781  0.0355 -0.3311 -0.4619
    4LEU    HB1   65   3.367   3.143   1.820  0.4660 -0.2587 -1.1912
    4LEU    HB2   66   3.301   3.083   1.676  1.5586  2.1650 -0.1009
    4LEU     CG   67   3.402   2.931   1.785  1.1390  0.3942  0.2376
    4LEU     HG   68   3.347   2.840   1.762 -1.6663  2.2978 -1.1628
    4LEU    CD1   69   3.509   2.945   1.680  0.1203 -0.1257  0.0501
    4LEU   HD11   70   3.562   3.038   1.700 -1.4864  1.2899 -1.8457
    4LEU   HD12   71   3.578   2.863   1.662  2.8349  2.0014  0.0499
    4LEU   HD13   72   3.453   2.964   1.588 -0.3382  1.5084  0.6290
    4LEU    CD2   73   3.457   2.908   1.926 -0.1995  0.1162 -0.4015
    4LEU   HD21   74   3.554   2.859   1.927 -1.2812 -2.4152 -3.3253
    4LEU   HD22   75   3.466   3.005   1.976  1.0312  0.4297 -1.1710
    4LEU   HD23   76   3.391   2.838   1.977  0.0634 -0.3818 -0.7327
    4LEU      C   77   3.167   3.077   1.986  0.6808  0.4176  0.2773
    4LEU      O   78   3.178   2.995   2.080  0.5165 -0.2756  0.2532
    5VAL      N   79   3.143   3.203   2.011  0.0189 -0.4534 -0.1014
    5VAL      H   80   3.132   3.273   1.939 -2.3201 -1.8520 -1.2068
    5VAL     CA   81   3.129   3.267   2.145  0.2688 -0.0092 -0.3147
    5VAL     HA   82   3.201   3.221   2.213 -1.4797  2.2510  3.3250
    5VAL     CB   83   3.167   3.417   2.137 -0.2720  0.6839  0.9116
    5VAL     HB   84   3.099   3.462   2.065 -0.6457 -2.0463 -0.5835
    5VAL    CG1   85   3.143   3.497   2.264  0.0199  0.2438 -0.2653
    5VAL   HG11   86   3.197   3.446   2.343  0.5750  0.3314 -0.5859
    5VAL   HG12   87   3.167   3.603   2.257 -0.7880  0.5328  0.9548
    5VAL   HG13   88   3.036   3.491   2.286  0.1050 -1.5187 -0.1826
    5VAL    CG2   89   3.299   3.441   2.070  0.0753  0.0615 -0.0560
    5VAL   HG21   90   3.317   3.548   2.078 -2.9430  0.6782 -0.4393
    5VAL   HG22   91   3.381   3.400   2.128  0.2016 -0.0634 -0.3203
    5VAL   HG23   92   3.302   3.411   1.965 -0.6579  4.2684 -1.4720
    5VAL      C   93   2.992   3.241   2.206 -0.1286 -0.3592  0.4558
    5VAL      O   94   2.985   3.211   2.328  0.3488 -0.4596  0.6735
    6LEU      N   95   2.877   3.251   2.135 -0.0430 -0.0611 -0.3128
    6LEU      H   96   2.876   3.294   2.043  1.6799  0.6197 -0.0470
    6LEU     CA   97   2.741   3.215   2.188 -0.0753  0.2376 -0.6735
    6LEU     HA   98   2.738   3.277   2.277  0.8216 -2.8638  1.6641
    6LEU     CB   99   2.641   3.249   2.078 -0.1438 -0.0917  0.1068
    6LEU    HB1  100   2.641   3.166   2.007 -0.6142 -0.6856  0.7817
    6LEU    HB2  101   2.683   3.337   2.031 -0.8758 -1.2097 -2.8811
    6LEU     CG  102   2.498   3.284   2.121  0.1998  0.1372 -0.2658
    6LEU     HG  103   2.507   3.359   2.199  2.1624 -0.7003  0.3902
    6LEU    CD1  104   2.427   3.349   2.005  0.2908 -0.6072  0.0226
    6LEU   HD11  105   2.326   3.308   2.005 -0.1930  0.5438  0.1998
    6LEU   HD12  106   2.429   3.457   2.018  0.7126 -0.2216 -2.7373
    6LEU   HD13  107   2.484   3.315   1.919 -1.3331 -2.0122 -0.5742
    6LEU    CD2  108   2.420   3.158   2.182  0.6476  0.1598  0.7550
    6LEU   HD21  109   2.475   3.105   2.259 -0.0745 -3.3025 -0.9186
    6LEU   HD22  110   2.331   3.198   2.229  2.4093  1.5128  3.1896
    6LEU   HD23  111   2.399   3.090   2.099  0.7472 -0.8748  1.5634
    6LEU      C  112   2.745   3.067   2.239  1.0779  0.2640  0.3174
    6LEU      O  113   2.703   3.042   2.360  0.3734  0.8034  0.1819
    7VAL      N  114   2.812   2.980   2.161  0.4544 -0.2273 -0.5609
    7VAL      H  115   2.843   3.013   2.071  0.7365 -1.0372 -0.7676
    7VAL     CA  116   2.829   2.842   2.206 -0.5282  0.1039  0.0009
    7VAL     HA  117   2.730   2.802   2.227 -0.2056 -0.7089  0.0342
    7VAL     CB  118   2.883   2.758   2.089  0.0270 -0.2679 -0.0894
    7VAL     HB  119   2.974   2.798   2.045  0.0838  0.6116  0.8073
    7VAL    CG1  120   2.912   2.608   2.115 -0.6978  0.0737  0.0801
    7VAL   HG11  121   2.958   2.575   2.022  1.0784  1.7440  0.3121
    7VAL   HG12  122   2.992   2.587   2.185  0.9806  0.3768 -1.6522
    7VAL   HG13  123   2.814   2.566   2.136 -1.1412  0.8391 -0.3922
    7VAL    CG2  124   2.766   2.757   1.984 -0.6741 -0.6843 -0.0026
    7VAL   HG21  125   2.671   2.747   2.038  0.5758 -0.6650  2.3515
    7VAL   HG22  126   2.776   2.848   1.925  2.7594 -0.0094  1.3536
    7VAL   HG23  127   2.777   2.673   1.916 -2.1521 -1.6762  0.9201
    7VAL      C  128   2.906   2.830   2.328  0.0471  0.2499 -0.6560
    7VAL      O  129   2.867   2.770   2.424  1.2327  0.2753 -0.5290
    8LEU      N  130   3.018   2.898   2.340 -0.1089  0.4360 -0.4896
    8LEU      H  131   3.056   2.946   2.260 -0.0386  0.0160 -0.7113
    8LEU     CA  132   3.106   2.891   2.458  0.0510 -0.4536  0.0848
    8LEU     HA  133   3.130   2.785   2.469  0.5543 -0.3819 -0.2636
    8LEU     CB  134   3.235   2.966   2.411  0.4807  0.4890 -1.5464
    8LEU    HB1  135   3.220   3.071   2.436  0.9037  0.0158  0.9018
    8LEU    HB2  136   3.246   2.954   2.303  0.6857 -1.5623 -1.3292
    8LEU     CG  137   3.363   2.925   2.486  0.1332 -0.3368  0.7064
    8LEU     HG  138   3.381   2.818   2.474 -1.2938 -0.5571  0.2653
    8LEU    CD1  139   3.488   2.997   2.432 -0.2182 -0.0691  0.3180
    8LEU   HD11  140   3.584   2.949   2.454  0.5303  1.3949  0.3382
    8LEU   HD12  141   3.493   2.992   2.323 -1.6757 -0.1524  0.2402
    8LEU   HD13  142   3.496   3.099   2.467 -0.0686  0.3029 -0.7543
    8LEU    CD2  143   3.361   2.963   2.631 -0.1830 -0.3110  0.1185
    8LEU   HD21  144   3.355   3.072   2.630  0.5494 -0.2593 -1.9209
    8LEU   HD22  145   3.270   2.925   2.677 -0.5732  0.9985  0.4947
    8LEU   HD23  146   3.447   2.919   2.682  1.7211  1.4514 -1.4071
    8LEU      C  147   3.038   2.952   2.587  0.3579  0.4394 -0.2717
    8LEU      O  148   3.053   2.905   2.701 -0.6246 -0.0355 -0.8552
    9ILE      N  149   2.946   3.051   2.577 -0.5596  0.0738  0.0223
    9ILE      H  150   2.940   3.091   2.484 -0.5129 -0.4922 -0.2256
    9ILE     CA  151   2.850   3.097   2.677  0.7545 -0.3795  0.3059
    9ILE     HA  152   2.900   3.108   2.773 -0.4039  0.4102  0.8413
    9ILE     CB  153   2.794   3.236   2.638 -0.4554 -0.6713  0.3185
    9ILE     HB  154   2.753   3.226   2.538  0.8184 -1.6155 -0.1296
    9ILE    CG2  155   2.665   3.271   2.721 -0.4162 -0.0525 -0.3653
    9ILE   HG21  156   2.591   3.195   2.699 -2.3823  2.0007 -1.2467
    9ILE   HG22  157   2.680   3.269   2.829  2.1339 -0.3132 -0.6618
    9ILE   HG23  158   2.630   3.369   2.688 -3.0835  0.2938  2.9683
    9ILE    CG1  159   2.895   3.344   2.641 -0.4289 -0.2302  0.0879
    9ILE   HG11  160   2.992   3.314   2.602  1.3695  0.6971  3.3910
    9ILE   HG12  161   2.917   3.372   2.744  3.0062  1.6957 -1.0088
    9ILE     CD  162   2.854   3.467   2.562  0.6443  0.1654 -0.5956
    9ILE    HD1  163   2.939   3.536   2.560 -0.1457  1.2122  0.5587
    9ILE    HD2  164   2.827   3.437   2.461 -2.5381  2.6024 -0.6338
    9ILE    HD3  165   2.770   3.523   2.603 -0.8608 -0.9908 -2.0225
    9ILE      C  166   2.744   2.988   2.714 -0.3739  0.2233  1.1497
    9ILE      O  167   2.720   2.962   2.831 -0.7082 -0.3129  0.0919
   10VAL      N  168   2.685   2.922   2.613  0.1002 -0.5536 -0.2096
   10VAL      H  169   2.699   2.959   2.520 -2.4848  1.9029  0.2397
   10VAL     CA  170   2.596   2.806   2.638  0.7671  1.2309  0.5210
   10VAL     HA  171   2.518   2.836   2.708 -0.5701 -0.8244 -0.0194
   10VAL     CB  172   2.540   2.758   2.504  0.0692 -0.0678  0.7730
   10VAL     HB  173   2.614   2.765   2.424 -0.5246 -1.6220  0.0234
   10VAL    CG1  174   2.475   2.621   2.500 -0.0021  0.5152 -0.7689
   10VAL   HG11  175   2.442   2.603   2.398 -0.9695 -2.7766 -0.0036
   10VAL   HG12  176   2.551   2.551   2.536 -0.8506  0.7191  1.5583
   10VAL   HG13  177   2.389   2.617   2.567  1.6102  0.0948  1.3761
   10VAL    CG2  178   2.433   2.857   2.462 -0.2491 -0.0825 -0.1787
   10VAL   HG21  179   2.475   2.956   2.480  1.0814 -0.6741  0.0707
   10VAL   HG22  180   2.418   2.847   2.355  1.3903 -1.5357 -0.3108
   10VAL   HG23  181   2.337   2.849   2.513 -0.0497 -0.3884  0.1516
   10VAL      C  182   2.663   2.691   2.720  0.0260 -0.8585  0.3217
   10VAL      O  183   2.603   2.641   2.820 -0.0048 -0.2651  0.5993
   11VAL      N  184   2.794   2.662   2.680  0.6429  0.2015 -0.0767
   11VAL      H  185   2.829   2.706   2.596  0.3596  0.9561  0.1864
   11VAL     CA  186   2.868   2.551   2.742  0.3618  0.0214 -0.4179
   11VAL     HA  187   2.807   2.462   2.755  1.1427 -0.6179 -1.0476
   11VAL     CB  188   2.983   2.512   2.653  0.1113  0.0222 -0.9110
   11VAL     HB  189   3.032   2.599   2.612  0.5851  1.0051  1.5592
   11VAL    CG1  190   3.088   2.432   2.726 -0.2835  0.4357  0.1495
   11VAL   HG11  191   3.168   2.393   2.663 -1.2545  0.9645 -1.4595
   11VAL   HG12  192   3.146   2.483   2.804  1.0381 -1.7973  0.6977
   11VAL   HG13  193   3.043   2.348   2.780  1.2810 -0.6397 -0.1539
   11VAL    CG2  194   2.940   2.422   2.534 -0.1443  0.5114 -0.2693
   11VAL   HG21  195   2.903   2.323   2.557  2.2387 -0.3391  0.1674
   11VAL   HG22  196   2.853   2.472   2.489 -1.1823 -1.1438 -0.1767
   11VAL   HG23  197   3.022   2.416   2.463 -0.3799 -0.7228 -0.4591
   11VAL      C  198   2.902   2.577   2.893 -0.6420 -0.2907 -0.1819
   11VAL      O  199   2.890   2.488   2.978 -0.1229  0.3028 -0.0548
   12VAL      N  200   2.948   2.705   2.921 -0.2025  0.6590 -0.4253
   12VAL      H  201   2.963   2.774   2.848 -0.5022  2.1451  0.8688
   12VAL     CA  202   2.981   2.751   3.064 -0.4052 -0.3773  0.6541
   12VAL     HA  203   3.028   2.666   3.114 -0.2745 -1.5043 -1.2988
   12VAL     CB  204   3.069   2.877   3.061 -0.2995  0.2301  0.8676
   12VAL     HB  205   3.029   2.960   3.003  4.5286  2.0708 -0.2723
   12VAL    CG1  206   3.106   2.917   3.201 -0.5961 -0.4742  0.3063
   12VAL   HG11  207   3.024   2.950   3.265 -4.3097 -1.5129 -3.4215
   12VAL   HG12  208   3.141   2.825   3.248  0.8669  0.2867  0.7757
   12VAL   HG13  209   3.191   2.985   3.206 -1.6440  0.8575  0.6619
   12VAL    CG2  210   3.201   2.841   2.991  0.2429 -0.6284 -0.0559
   12VAL   HG21  211   3.183   2.811   2.888  2.2449 -1.6364 -0.1547
   12VAL   HG22  212   3.275   2.921   2.987 -0.8217  0.4302  0.7778
   12VAL   HG23  213   3.246   2.760   3.048 -0.3448 -1.0402 -0.1704
   12VAL      C  214   2.856   2.775   3.137  0.0703 -0.0660 -0.3803
   12VAL      O  215   2.851   2.737   3.254 -0.0622  0.2169  0.1639
   13LEU      N  216   2.740   2.811   3.076 -0.1038 -0.8282  0.8121
   13LEU      H  217   2.742   2.828   2.976  2.0909 -0.5375  0.8588
   13LEU     CA  218   2.608   2.797   3.138  0.6992  0.7226  0.3296
   13LEU     HA  219   2.598   2.858   3.229 -0.9651 -2.6077  2.5648
   13LEU     CB  220   2.489   2.864   3.058  0.8321 -0.2183 -0.5590
   13LEU    HB1  221   2.395   2.823   3.094  0.8150 -0.2012 -0.5838
   13LEU    HB2  222   2.492   2.826   2.956  0.0368 -1.6440 -0.0825
   13LEU     CG  223   2.476   3.018   3.052  0.0321  0.1690 -0.2197
   13LEU     HG  224   2.573   3.061   3.028  0.1076 -0.6206 -1.4299
   13LEU    CD1  225   2.380   3.088   2.961  0.5819  0.1103 -0.0756
   13LEU   HD11  226   2.277   3.055   2.980 -0.1750  0.2146 -3.4113
   13LEU   HD12  227   2.391   3.193   2.988 -0.8465  0.3485 -0.2930
   13LEU   HD13  228   2.409   3.063   2.859  1.7609  0.0894  0.2509
   13LEU    CD2  229   2.446   3.067   3.197 -0.1682 -0.0376  0.0931
   13LEU   HD21  230   2.344   3.039   3.225 -0.9138  1.0991 -1.3340
   13LEU   HD22  231   2.508   3.032   3.279 -1.1465 -0.9470  0.4695
   13LEU   HD23  232   2.458   3.175   3.189  4.8136 -0.5041 -2.4184
   13LEU      C  233   2.581   2.653   3.179  0.1720 -0.2378  0.7278
   13LEU      O  234   2.542   2.643   3.298 -0.2964 -0.3050 -0.3496
   14VAL      N  235   2.581   2.556   3.095 -0.3350  0.4066  0.3795
   14VAL      H  236   2.616   2.584   3.004 -1.8103 -2.0192 -1.0470
   14VAL     CA  237   2.552   2.415   3.115 -0.1070  0.1442  0.3444
   14VAL     HA  238   2.451   2.406   3.155  0.0218 -0.1978  0.6000
   14VAL     CB  239   2.566   2.330   2.990 -0.4605  0.3919  0.8984
   14VAL     HB  240   2.665   2.352   2.951 -0.9214  1.3656  0.2118
   14VAL    CG1  241   2.561   2.180   3.019 -0.0475 -0.1368  0.2398
   14VAL   HG11  242   2.586   2.130   2.925  1.1606  0.4116  0.2490
   14VAL   HG12  243   2.642   2.155   3.088  0.1638 -0.1869 -0.0196
   14VAL   HG13  244   2.468   2.137   3.055 -0.1465 -3.0085 -2.8388
   14VAL    CG2  245   2.455   2.352   2.883 -0.5512  0.5546 -0.4415
   14VAL   HG21  246   2.447   2.459   2.861 -0.3425  0.7746  0.5148
   14VAL   HG22  247   2.469   2.296   2.790  0.3750  2.3871 -1.4594
   14VAL   HG23  248   2.359   2.327   2.928 -1.4775  2.2070 -1.3645
   14VAL      C  249   2.641   2.358   3.231 -0.8600 -0.2279  0.0043
   14VAL      O  250   2.590   2.306   3.326  0.5262 -0.2486 -0.1292
   15LEU      N  251   2.779   2.383   3.221  0.1320 -0.5495  0.4204
   15LEU      H  252   2.813   2.423   3.135  0.0391 -0.1790  0.5555
   15LEU     CA  253   2.868   2.346   3.326 -0.2836  0.1900  0.6906
   15LEU     HA  254   2.855   2.238   3.317 -1.5002  0.4587 -1.8963
   15LEU     CB  255   3.018   2.376   3.293  0.1014  0.0684  0.2032
   15LEU    HB1  256   3.089   2.363   3.375 -0.0161  0.5087  0.3788
   15LEU    HB2  257   3.010   2.483   3.273 -1.9352 -0.2620 -1.0104
   15LEU     CG  258   3.057   2.288   3.174  0.0659 -0.2626 -0.2067
   15LEU     HG  259   2.980   2.296   3.097  0.5940  0.6483 -0.6679
   15LEU    CD1  260   3.193   2.335   3.113 -0.0671  0.9097  0.0821
   15LEU   HD11  261   3.176   2.434   3.072  0.5529  0.9380 -0.1103
   15LEU   HD12  262   3.277   2.338   3.182 -1.3660  3.2929  1.6985
   15LEU   HD13  263   3.202   2.263   3.032 -4.0830 -2.4026  2.1437
   15LEU    CD2  264   3.082   2.140   3.199 -0.1996  0.1175  0.1568
   15LEU   HD21  265   3.023   2.096   3.279 -0.8470 -0.7334 -0.7644
   15LEU   HD22  266   3.042   2.081   3.116 -1.1853 -1.9864  2.0260
   15LEU   HD23  267   3.187   2.112   3.214 -0.7713 -2.6056 -0.3318
   15LEU      C  268   2.828   2.406   3.463  0.0045  0.0407 -0.5991
   15LEU      O  269   2.824   2.341   3.567 -0.3444 -0.1418 -0.4252
   16LEU      N  270   2.801   2.538   3.472  0.4353 -0.0556 -0.7363
   16LEU      H  271   2.797   2.599   3.392  2.4013  0.3229 -0.5833
   16LEU     CA  272   2.766   2.603   3.602  0.6411  0.3739 -0.2155
   16LEU     HA  273   2.846   2.588   3.674 -0.6587 -0.3829  1.1330
   16LEU     CB  274   2.756   2.753   3.570 -0.2462 -0.3025  0.5020
   16LEU    HB1  275   2.665   2.778   3.515 -0.2509 -2.1736 -0.4167
   16LEU    HB2  276   2.833   2.769   3.495 -0.2587 -1.3251  0.2593
   16LEU     CG  277   2.777   2.851   3.685 -0.3495  0.7683  0.0787
   16LEU     HG  278   2.868   2.825   3.739  1.2802  1.1673 -2.3292
   16LEU    CD1  279   2.798   2.990   3.629 -0.2800  0.3210  0.6870
   16LEU   HD11  280   2.812   3.054   3.716 -1.4384  1.7593 -0.1404
   16LEU   HD12  281   2.878   2.990   3.555 -1.7370  1.0112 -0.9479
   16LEU   HD13  282   2.707   3.018   3.577 -0.3362  0.9291  1.1042
   16LEU    CD2  283   2.654   2.848   3.775 -0.2906 -0.0364 -0.2482
   16LEU   HD21  284   2.658   2.933   3.843  2.1717 -0.8501  0.7503
   16LEU   HD22  285   2.561   2.849   3.718 -1.0274  1.4797  0.9198
   16LEU   HD23  286   2.653   2.755   3.833  0.6246  1.2918  2.0391
   16LEU      C  287   2.635   2.542   3.663  0.1424  0.3489  0.1659
   16LEU      O  288   2.620   2.510   3.781  0.3188 -0.3162 -0.7670
   17LEU      N  289   2.535   2.516   3.575  0.5405  0.2208 -0.2853
   17LEU      H  290   2.540   2.542   3.478 -0.0638  0.4941 -0.2478
   17LEU     CA  291   2.413   2.448   3.614  0.3309  0.2163  0.0885
   17LEU     HA  292   2.371   2.498   3.701  0.9721 -1.1202  1.2139
   17LEU     CB  293   2.320   2.459   3.490  0.9120 -0.3720 -0.8372
   17LEU    HB1  294   2.349   2.401   3.402 -0.5551 -0.5677 -1.2227
   17LEU    HB2  295   2.326   2.566   3.470 -2.3126  0.2454  0.8090
   17LEU     CG  296   2.169   2.444   3.513  0.4752  0.7666 -0.4830
   17LEU     HG  297   2.140   2.524   3.581  0.8603  0.7144 -0.2533
   17LEU    CD1  298   2.100   2.462   3.378 -0.1051 -0.5090 -0.3562
   17LEU   HD11  299   1.992   2.469   3.396  0.0116 -2.3519  1.4098
   17LEU   HD12  300   2.131   2.556   3.332  0.8342 -0.3697  0.5475
   17LEU   HD13  301   2.123   2.377   3.314  0.1325 -2.7154  2.4697
   17LEU    CD2  302   2.121   2.313   3.574  0.1330  0.2198 -0.0208
   17LEU   HD21  303   2.014   2.308   3.554  0.5496  0.4718 -2.8318
   17LEU   HD22  304   2.166   2.219   3.543 -0.7145  0.1892 -1.2440
   17LEU   HD23  305   2.130   2.322   3.682 -0.8969  0.7220  0.0311
   17LEU      C  306   2.439   2.305   3.669 -0.2426  0.4982 -0.5184
   17LEU      O  307   2.401   2.274   3.784 -0.2309 -0.7887  0.0167
   18LEU      N  308   2.511   2.220   3.593  1.0150  0.2610  0.3894
   18LEU      H  309   2.531   2.258   3.501  2.2827 -1.6636 -0.1875
   18LEU     CA  310   2.545   2.086   3.634 -0.2786  0.6015 -0.1187
   18LEU     HA  311   2.455   2.039   3.674  1.2176  0.1073  2.9082
   18LEU     CB  312   2.615   2.003   3.527 -0.4008 -0.6999  0.3229
   18LEU    HB1  313   2.639   1.907   3.573 -0.6790 -0.4914  0.9201
   18LEU    HB2  314   2.710   2.054   3.512  0.3313 -1.8595  0.9184
   18LEU     CG  315   2.537   1.975   3.393  0.0870  0.1329 -0.2993
   18LEU     HG  316   2.518   2.069   3.340  1.8371 -0.9006 -3.0008
   18LEU    CD1  317   2.642   1.900   3.292  1.0013  0.0410 -0.7378
   18LEU   HD11  318   2.596   1.884   3.194 -3.0321 -0.9315  1.1341
   18LEU   HD12  319   2.729   1.965   3.282 -0.2367  3.0076  4.1372
   18LEU   HD13  320   2.666   1.798   3.321  1.3036 -0.0471 -1.2787
   18LEU    CD2  321   2.415   1.894   3.404 -0.2157  0.2378 -0.5880
   18LEU   HD21  322   2.341   1.946   3.464  0.3363 -1.5663  1.8177
   18LEU   HD22  323   2.376   1.874   3.304  0.9292 -1.8486 -0.6904
   18LEU   HD23  324   2.451   1.801   3.450  2.4460  0.7170 -1.4785
   18LEU      C  325   2.638   2.089   3.757 -0.2487  1.3077 -0.6889
   18LEU      O  326   2.658   1.981   3.821  0.1192  1.1488  0.0384
   19LEU      N  327   2.691   2.205   3.798 -0.1572  0.4958 -0.7239
   19LEU      H  328   2.675   2.290   3.745  0.5499 -0.0362 -1.8403
   19LEU     CA  329   2.774   2.225   3.918  0.0891  0.4931 -0.5976
   19LEU     HA  330   2.817   2.127   3.940 -1.4552 -0.0495  0.1116
   19LEU     CB  331   2.893   2.319   3.893 -0.5821  0.7579  0.0328
   19LEU    HB1  332   2.853   2.409   3.845  0.2351  1.1892  0.1439
   19LEU    HB2  333   2.946   2.263   3.816 -0.8779  0.8512 -0.2428
   19LEU     CG  334   2.992   2.350   4.007  0.2731 -0.4309  0.1186
   19LEU     HG  335   3.012   2.272   4.080 -0.7995  1.3542  2.4256
   19LEU    CD1  336   3.125   2.412   3.960  0.1480  0.2980 -0.2637
   19LEU   HD11  337   3.181   2.446   4.047 -1.4708 -0.9118  1.3278
   19LEU   HD12  338   3.185   2.332   3.915  2.6450  1.1574  1.3552
   19LEU   HD13  339   3.107   2.489   3.885 -0.4144 -1.1437 -1.6839
   19LEU    CD2  340   2.933   2.466   4.090  0.1640  0.2112  0.1538
   19LEU   HD21  341   2.895   2.549   4.031 -3.0363 -1.5541 -0.4972
   19LEU   HD22  342   2.857   2.426   4.158  0.4314  0.8067  0.8131
   19LEU   HD23  343   3.010   2.508   4.155 -0.8748  3.7685 -0.6994
   19LEU      C  344   2.680   2.271   4.036  0.0786 -0.2658  0.2315
   19LEU      O  345   2.704   2.228   4.147  0.0872  0.4025  0.3537
   20ILE      N  346   2.570   2.343   4.016 -0.9271 -0.0461  0.4029
   20ILE      H  347   2.558   2.372   3.920  0.5708 -1.0333 -0.1150
   20ILE     CA  348   2.477   2.389   4.118  0.4211 -0.1329  0.0156
   20ILE     HA  349   2.530   2.418   4.209 -1.1991  1.6102  0.4834
   20ILE     CB  350   2.408   2.517   4.068  0.4589 -0.3344  0.3342
   20ILE     HB  351   2.396   2.513   3.960  1.4104  1.0511  0.1542
   20ILE    CG2  352   2.264   2.548   4.131  0.2581  0.0114 -0.0791
   20ILE   HG21  353   2.189   2.479   4.091 -0.3634 -0.8476  2.3914
   20ILE   HG22  354   2.262   2.522   4.237  1.9304 -1.9085 -0.4548
   20ILE   HG23  355   2.228   2.649   4.114  0.8794  0.2571  0.0317
   20ILE    CG1  356   2.504   2.633   4.092 -0.7357 -0.4899  0.1777
   20ILE   HG11  357   2.600   2.604   4.050 -0.0799  1.0247  0.5825
   20ILE   HG12  358   2.512   2.646   4.200 -0.2802 -0.2563  0.1183
   20ILE     CD  359   2.465   2.768   4.032  0.8673 -0.6450  0.5098
   20ILE    HD1  360   2.447   2.762   3.924  1.3653  0.4340  0.3591
   20ILE    HD2  361   2.370   2.805   4.069  0.9767 -0.2996  0.4477
   20ILE    HD3  362   2.541   2.842   4.055  0.6152  0.1232 -0.9775
   20ILE      C  363   2.384   2.275   4.169  0.4488 -0.0655  0.0015
   20ILE      O  364   2.347   2.273   4.289 -0.0987 -0.0114 -0.3409
   21LEU      N  365   2.346   2.179   4.081 -0.1570 -0.0275  0.9686
   21LEU      H  366   2.382   2.188   3.987  0.2062  0.8233  1.1817
   21LEU     CA  367   2.256   2.067   4.111  0.1895  0.4021 -0.1476
   21LEU     HA  368   2.168   2.109   4.159 -0.2745  0.9960 -1.4927
   21LEU     CB  369   2.209   2.000   3.984 -0.5738 -0.6700 -0.2054
   21LEU    HB1  370   2.169   1.903   4.013 -0.7760 -0.3418  0.6636
   21LEU    HB2  371   2.299   1.983   3.925 -1.8846 -0.2912 -2.4327
   21LEU     CG  372   2.114   2.082   3.906  0.1175 -0.1926  0.1543
   21LEU     HG  373   2.150   2.184   3.895  0.6161 -0.6081 -2.9605
   21LEU    CD1  374   2.104   2.021   3.768  0.3409 -0.4200 -0.3849
   21LEU   HD11  375   2.043   2.082   3.701 -0.5976 -2.8837 -1.9020
   21LEU   HD12  376   2.199   2.029   3.716 -0.0138  0.7032 -0.8962
   21LEU   HD13  377   2.065   1.920   3.778  1.1845 -0.5623  2.3188
   21LEU    CD2  378   1.970   2.061   3.955 -0.4136 -0.4361 -0.7373
   21LEU   HD21  379   1.898   2.109   3.888 -0.1637  2.2011  0.7244
   21LEU   HD22  380   1.938   1.957   3.961 -0.3327 -0.3703  1.4372
   21LEU   HD23  381   1.965   2.116   4.049 -0.2029 -0.6278 -0.6129
   21LEU      C  382   2.322   1.963   4.208  0.6464  0.3391 -0.1818
   21LEU    OC1  383   2.433   1.915   4.183  0.1916  0.0671 -0.0499
   21LEU    OC2  384   2.265   1.941   4.320 -0.1226  0.0714  0.4117
   22SOL     OW  385   5.592   1.853   5.390 -0.0667 -0.0337  0.4599
   22SOL    HW1  386   5.516   1.904   5.430 -0.1796  0.9380 -0.9415
   22SOL    HW2  387   5.663   1.839   5.460 -1.6385 -1.2977  1.9029
   23SOL     OW  388   0.444   0.390   1.805  0.7769  0.2670 -0.2379
   23SOL    HW1  389   0.366   0.447   1.833  0.4260 -0.7765  0.9861
   23SOL    HW2  390   0.430   0.359   1.711 -0.5517 -0.3137  0.1278
   24SOL     OW  391   0.657   0.361   0.329  0.1143  0.3522  0.4829
   24SOL    HW1  392   0.670   0.281   0.387 -0.0182 -0.3759 -0.4706
   24SOL    HW2  393   0.738   0.419   0.333  0.2346  0.1519  1.1287
   25SOL     OW  394   0.519   2.519   0.756  0.0162 -0.3140 -0.2092
   25SOL    HW1  395   0.461   2.529   0.675 -0.4538 -0.4028  0.1151
   25SOL    HW2  396   0.465   2.537   0.838  0.7244  0.7676  0.0427
   26SOL     OW  397   1.125   0.585   0.870 -0.1787  0.4686 -0.1049
   26SOL    HW1  398   1.047   0.528   0.845 -0.5631  0.9213  0.0340
   26SOL    HW2  399   1.103   0.638   0.953 -0.3664  1.8425 -0.9956
   27SOL     OW  400   5.458   1.352   1.661  0.3209  0.5427 -0.0403
   27SOL    HW1  401   5.462   1.256   1.690  1.1938  0.1590 -1.3079
   27SOL    HW2  402   5.395   1.360   1.584  0.3124  0.9716  0.0132
   28SOL     OW  403   2.811   0.729   0.383  0.8100 -0.3035  0.4877
   28SOL    HW1  404   2.799   0.794   0.309  2.9641 -0.6674 -0.2716
   28SOL    HW2  405   2.732   0.668   0.388 -0.0530  0.7043 -0.4813
   29SOL     OW  406   0.085   2.335   1.020 -0.3551 -0.0250 -0.4735
   29SOL    HW1  407   0.043   2.333   1.111 -0.7829  1.1652 -0.6260
   29SOL    HW2  408   0.014   2.339   0.950 -0.0637  2.6338 -0.7100
   30SOL     OW  409   0.959   1.870   2.641  0.1792 -0.0076 -0.5270
   30SOL    HW1  410   0.999   1.845   2.553 -0.7969 -1.1877 -0.6674
   30SOL    HW2  411   0.936   1.787   2.692 -1.7356  0.5881 -0.3164
   31SOL     OW  412   1.334   1.547   2.210  0.0045 -0.4916  0.7041
   31SOL    HW1  413   1.282   1.502   2.138  0.9670 -0.4238 -0.0593
   31SOL    HW2  414   1.309   1.644   2.214 -0.6156 -0.6615  0.9932
   32SOL     OW  415   1.916   2.348   2.418 -0.2859 -0.0191 -0.2498
   32SOL    HW1  416   1.981   2.282   2.455  0.9640  0.9426 -0.6469
   32SOL    HW2  417   1.866   2.391   2.493  2.0079  1.6931  0.4414
   33SOL     OW  418   0.444   1.422   0.549 -0.0567  0.1101 -0.0764
   33SOL    HW1  419   0.405   1.501   0.596 -1.4814 -0.1371 -0.7642
   33SOL    HW2  420   0.407   1.417   0.456  1.9056  0.0022 -0.8964
   34SOL     OW  421   0.729   1.721   1.541 -0.4402 -0.4259 -0.0769
   34SOL    HW1  422   0.752   1.782   1.465  0.7989  0.3986  0.9058
   34SOL    HW2  423   0.639   1.744   1.577 -0.3065  0.3426 -0.2125
   35SOL     OW  424   4.606   5.517   2.926  0.5273  0.9032  0.0235
   35SOL    HW1  425   4.538   5.496   2.996 -0.3784  0.8462 -0.8555
   35SOL    HW2  426   4.578   5.597   2.874  0.9528  0.6668 -0.5855
   36SOL     OW  427   0.640   0.928   5.441 -0.4932 -0.5128  0.0860
   36SOL    HW1  428   0.680   0.941   5.531  1.2423 -1.2990 -0.5216
   36SOL    HW2  429   0.586   0.844   5.440 -1.2309 -0.0532  0.6069
   37SOL     OW  430   0.412   1.590   0.119  0.0419  0.4468  0.6854
   37SOL    HW1  431   0.331   1.535   0.097  0.8675 -0.0441 -1.3499
   37SOL    HW2  432   0.494   1.534   0.106  0.8224  1.6932  0.1281
   38SOL     OW  433   0.193   0.495   2.670  0.0122 -0.4980  0.0047
   38SOL    HW1  434   0.290   0.486   2.647  0.3121  0.2644  0.8955
   38SOL    HW2  435   0.170   0.433   2.745 -0.4925 -1.5495 -0.9894
   39SOL     OW  436   0.175   0.759   5.363 -0.1912 -0.2188  0.1552
   39SOL    HW1  437   0.157   0.833   5.428  1.9899 -0.2188  0.8274
   39SOL    HW2  438   0.163   0.792   5.270  1.2560  1.1724  0.4252
   40SOL     OW  439   5.233   1.361   1.469  0.0595 -0.0390  0.1091
   40SOL    HW1  440   5.226   1.280   1.411  0.1195 -0.6272  0.9076
   40SOL    HW2  441   5.243   1.442   1.412 -1.7786 -0.3824 -0.7685
   41SOL     OW  442   0.918   2.561   0.624 -0.0764 -0.2761  0.2785
   41SOL    HW1  443   0.945   2.471   0.589  0.1217  0.2075 -0.8420
   41SOL    HW2  444   0.891   2.620   0.548 -1.0632  0.3382  1.0799
   42SOL     OW  445   0.214   0.930   0.803 -0.3386 -0.3210 -0.1184
   42SOL    HW1  446   0.198   0.976   0.716  0.6509  0.2499 -0.0154
   42SOL    HW2  447   0.136   0.944   0.863 -0.6136  0.1152 -0.5707
   43SOL     OW  448   1.846   4.025   1.870 -0.0570 -0.8471  1.0196
   43SOL    HW1  449   1.911   4.069   1.932 -1.0763  0.2758  1.3461
   43SOL    HW2  450   1.882   4.027   1.777  0.0173  0.5422  1.0542
   44SOL     OW  451   0.810   1.013   0.070 -0.4754 -0.0425 -0.2027
   44SOL    HW1  452   0.887   0.950   0.082 -1.5126 -1.1264  0.9941
   44SOL    HW2  453   0.800   1.068   0.153 -1.0327  0.0470 -0.3298
   45SOL     OW  454   1.806   1.867   0.116  0.3766 -0.0550  0.0854
   45SOL    HW1  455   1.794   1.929   0.193 -0.5095 -0.3529  0.2002
   45SOL    HW2  456   1.766   1.907   0.034  1.0169  0.1162 -0.1416
   46SOL     OW  457   4.532   0.481   0.414  0.1574 -0.0481 -0.0702
   46SOL    HW1  458   4.533   0.541   0.494  2.5947 -1.4822  1.1130
   46SOL    HW2  459   4.539   0.386   0.444  1.4705 -0.6160 -1.9847
   47SOL     OW  460   0.387   1.885   5.315  0.1941 -0.0353 -0.0553
   47SOL    HW1  461   0.339   1.804   5.282  0.3057  0.6297 -1.9891
   47SOL    HW2  462   0.450   1.860   5.388 -1.1980 -1.3413  0.7687
   48SOL     OW  463   2.731   0.984   0.163  0.0701  0.4908  0.1800
   48SOL    HW1  464   2.643   1.026   0.186  0.1063  0.8300 -0.2863
   48SOL    HW2  465   2.722   0.933   0.077  0.8160  2.2469 -1.0196
   49SOL     OW  466   1.030   1.218   2.905 -0.5591 -0.1286 -0.3433
   49SOL    HW1  467   1.102   1.150   2.888 -0.9169 -0.4927 -0.4068
   49SOL    HW2  468   0.975   1.229   2.822 -0.2767  0.5143 -0.4532
   50SOL     OW  469   5.086   0.866   1.013 -0.1149 -0.1109  0.0697
   50SOL    HW1  470   5.058   0.946   0.959  1.0012  0.0009 -0.3662
   50SOL    HW2  471   5.076   0.784   0.957  0.7104 -0.0328 -0.2114
   51SOL     OW  472   0.416   0.950   1.628  0.1562  0.0906 -0.0456
   51SOL    HW1  473   0.404   0.904   1.716 -3.1513  1.7453  0.5141
   51SOL    HW2  474   0.450   1.043   1.643  2.1604 -0.4604 -0.8088
   52SOL     OW  475   1.020   0.341   2.490 -0.7343 -0.1444  0.4877
   52SOL    HW1  476   1.066   0.286   2.560 -1.1392  0.5170  1.2931
   52SOL    HW2  477   1.082   0.357   2.413  0.8017  1.6270  2.0118
   53SOL     OW  478   5.544   0.143   2.545 -0.1744  0.0384  0.0155
   53SOL    HW1  479   5.634   0.127   2.505  0.5260  2.1666  0.6002
   53SOL    HW2  480   5.544   0.111   2.640  0.0087  0.1267  0.0470
   54SOL     OW  481   2.227   1.580   0.331  0.1365 -0.2814  0.5089
   54SOL    HW1  482   2.240   1.672   0.368 -2.1658  0.6438 -0.7507
   54SOL    HW2  483   2.283   1.570   0.248  1.2368 -0.4441  1.2550
   55SOL     OW  484   0.781   2.385   0.835 -0.5612  0.6159 -0.5775
   55SOL    HW1  485   0.702   2.431   0.793  0.1014  1.2798 -1.1069
   55SOL    HW2  486   0.810   2.309   0.777 -1.1987 -0.0326 -0.0649
   56SOL     OW  487   4.597   0.065   2.179 -0.0782 -0.0989  0.6651
   56SOL    HW1  488   4.696   0.061   2.163 -0.5116  1.2391 -3.2114
   56SOL    HW2  489   4.581   0.078   2.277  3.6276  1.2482  1.2853
   57SOL     OW  490   1.275   1.348   1.075  0.4913 -0.0386 -0.2905
   57SOL    HW1  491   1.190   1.300   1.054 -0.0323  0.8233 -0.1917
   57SOL    HW2  492   1.352   1.285   1.066 -0.1147 -0.7222 -0.7931
   58SOL     OW  493   1.867   0.829   0.579  0.7281  0.1740 -0.0152
   58SOL    HW1  494   1.838   0.819   0.675 -0.8421 -0.1836 -0.5019
   58SOL    HW2  495   1.954   0.878   0.576  1.2457 -0.5674  1.6399
   59SOL     OW  496   0.164   1.199   1.414  0.0762 -0.8462  0.6039
   59SOL    HW1  497   0.088   1.143   1.448  0.9622 -2.1143  0.5693
   59SOL    HW2  498   0.208   1.246   1.491 -0.4263 -0.4987  0.6844
   60SOL     OW  499   5.199   5.604   0.550 -0.0911 -0.4125  0.7091
   60SOL    HW1  500   5.193   5.514   0.594 -0.1277 -2.0736 -2.4188
   60SOL    HW2  501   5.290   5.614   0.508 -0.7679  0.1116 -0.6895
   61SOL     OW  502   0.681   2.376   1.135 -0.3176  0.0668 -0.0411
   61SOL    HW1  503   0.584   2.356   1.150 -0.6110  0.8146 -0.8625
   61SOL    HW2  504   0.701   2.373   1.037  0.9883 -2.1798  0.2326
   62SOL     OW  505   0.716   1.010   2.349 -0.5488 -0.3291 -0.3363
   62SOL    HW1  506   0.715   1.110   2.353  1.2799 -0.2464 -1.1384
   62SOL    HW2  507   0.742   0.973   2.438 -1.4712 -0.1345  0.0338
   63SOL     OW  508   1.321   0.447   2.017 -0.2466  0.5744  0.1819
   63SOL    HW1  509   1.347   0.352   2.035  0.8841  0.8834  0.2575
   63SOL    HW2  510   1.375   0.507   2.075 -1.6131  1.2331  0.8052
   64SOL     OW  511   1.623   0.793   2.360 -0.3572  0.3753  0.2350
   64SOL    HW1  512   1.607   0.763   2.455 -1.1842  0.0546  0.0035
   64SOL    HW2  513   1.706   0.849   2.357  0.0380 -0.1299  1.0437
   65SOL     OW  514   1.027   0.971   0.920 -0.1603  0.9193  0.0333
   65SOL    HW1  515   1.040   1.069   0.933  2.0988  0.4119  2.1473
   65SOL    HW2  516   0.929   0.952   0.910 -1.0084  3.0659  2.9520
   66SOL     OW  517   0.455   1.824   1.845  0.1554  0.0789 -0.8091
   66SOL    HW1  518   0.494   1.816   1.754  1.1318 -0.9576 -0.3241
   66SOL    HW2  519   0.514   1.776   1.911 -0.4205  0.9622  0.3950
   67SOL     OW  520   5.499   0.637   1.154  0.1786  0.0676  0.4623
   67SOL    HW1  521   5.424   0.703   1.149 -1.2551 -1.5228 -0.0277
   67SOL    HW2  522   5.569   0.671   1.216 -1.1528  1.4086  1.3053
   68SOL     OW  523   5.289   1.581   1.323  0.2928 -0.0542  0.5629
   68SOL    HW1  524   5.356   1.527   1.272  0.1284 -0.0348  0.3261
   68SOL    HW2  525   5.251   1.652   1.264  0.8951  0.6660  1.0282
   69SOL     OW  526   0.594   0.592   0.008 -0.1410  0.6290  0.0837
   69SOL    HW1  527   0.693   0.608   0.016 -0.4069  1.9573  1.1664
   69SOL    HW2  528   0.572   0.503   0.048  0.5846  0.4167  0.0358
   70SOL     OW  529   0.760   1.453   1.461 -0.0692 -0.7125  0.0405
   70SOL    HW1  530   0.666   1.425   1.441 -1.2714  0.2899  3.5896
   70SOL    HW2  531   0.766   1.553   1.461  1.6728 -0.7059 -2.3595
   71SOL     OW  532   1.821   0.285   0.953  0.0953  0.0481  0.5894
   71SOL    HW1  533   1.852   0.378   0.972  1.1613  0.0016 -0.7720
   71SOL    HW2  534   1.727   0.287   0.921  0.5635  0.8241 -0.7841
   72SOL     OW  535   5.606   1.011   0.988 -0.2894  0.4736  0.2866
   72SOL    HW1  536   5.527   1.055   0.946  0.7975  1.0476 -1.2615
   72SOL    HW2  537   5.587   0.992   1.084 -2.5844 -0.1265 -0.2288
   73SOL     OW  538   0.876   1.407   0.124  0.3324  0.4281  0.5334
   73SOL    HW1  539   0.873   1.506   0.141  1.4393  0.5234  0.2967
   73SOL    HW2  540   0.951   1.387   0.061 -1.2079 -0.3525 -1.1382
   74SOL     OW  541   0.500   2.009   0.403 -0.1610  0.4134  0.6740
   74SOL    HW1  542   0.472   1.915   0.384 -0.7114  0.6216  0.4652
   74SOL    HW2  543   0.444   2.047   0.477  1.6916 -0.2549  2.5442
   75SOL     OW  544   2.065   1.350   0.378  0.5581 -0.0104  0.1611
   75SOL    HW1  545   2.112   1.437   0.366  0.6898 -0.2399 -1.0524
   75SOL    HW2  546   2.101   1.304   0.460  0.7323  0.9025  0.6082
   76SOL     OW  547   1.151   3.042   5.292 -0.2023 -0.3635  0.4418
   76SOL    HW1  548   1.158   3.133   5.253  1.4914 -0.1814  1.0967
   76SOL    HW2  549   1.057   3.026   5.324 -0.9567  0.4537 -1.2751
   77SOL     OW  550   0.401   1.730   0.361  0.4547 -0.1442 -0.0684
   77SOL    HW1  551   0.389   1.681   0.275 -1.4953  1.4360 -0.7775
   77SOL    HW2  552   0.326   1.706   0.424 -0.5450  1.8200 -0.4338
   78SOL     OW  553   5.230   4.988   0.817  0.0714 -0.0263 -0.3726
   78SOL    HW1  554   5.139   4.965   0.852  0.2674 -2.4928 -1.2990
   78SOL    HW2  555   5.252   5.082   0.841 -3.3863  1.2275 -1.4758
   79SOL     OW  556   0.264   0.757   1.531  0.2599  0.0344 -0.0206
   79SOL    HW1  557   0.200   0.756   1.608  1.7676 -1.0325  1.2926
   79SOL    HW2  558   0.329   0.832   1.543  0.3665 -0.0074 -0.3412
   80SOL     OW  559   1.446   3.228   0.140  0.4001 -0.1965 -0.1019
   80SOL    HW1  560   1.518   3.162   0.118  0.5166  0.2622 -1.1990
   80SOL    HW2  561   1.358   3.182   0.146  0.6287 -0.6003  0.1526
   81SOL     OW  562   0.582   5.456   2.230 -0.2379  0.2804  0.3921
   81SOL    HW1  563   0.487   5.450   2.200 -0.5017  1.9307  0.8246
   81SOL    HW2  564   0.616   5.549   2.217  1.0140 -0.0378  1.1664
   82SOL     OW  565   0.909   2.078   0.247  0.0945  0.0756 -0.1055
   82SOL    HW1  566   0.937   2.161   0.197  1.0302 -0.6760 -0.8726
   82SOL    HW2  567   0.868   2.104   0.335  2.6747  1.3162  0.8334
   83SOL     OW  568   1.668   2.697   0.156  0.0250  0.4963 -0.5340
   83SOL    HW1  569   1.599   2.629   0.133  2.7778 -2.3282 -1.0517
   83SOL    HW2  570   1.684   2.757   0.078 -0.5884  0.0616 -0.9995
   84SOL     OW  571   1.466   5.389   0.953  0.0062 -0.5100  0.5016
   84SOL    HW1  572   1.509   5.478   0.969 -0.3454 -0.0267 -1.0710
   84SOL    HW2  573   1.373   5.403   0.919 -0.4902 -1.5148  1.3788
   85SOL     OW  574  -0.005   3.217   0.381  0.7369  0.1611  0.1885
   85SOL    HW1  575   0.048   3.301   0.379  0.1316  0.5569 -1.6517
   85SOL    HW2  576  -0.040   3.201   0.473  0.5248  2.1449  0.4936
   86SOL     OW  577   5.490   1.418   1.220 -0.4431  0.1413  0.1103
   86SOL    HW1  578   5.419   1.359   1.182 -1.3668  1.6361 -0.5561
   86SOL    HW2  579   5.580   1.375   1.207 -1.0648 -0.9850 -0.5861
   87SOL     OW  580   5.309   0.984   2.111  0.1143  0.3968 -0.2295
   87SOL    HW1  581   5.299   1.069   2.059 -0.3189  0.8647  0.5983
   87SOL    HW2  582   5.272   0.908   2.058  0.5436  0.7182 -0.9959
   88SOL     OW  583   1.290   0.516   0.153  0.1357 -0.5975 -0.6094
   88SOL    HW1  584   1.367   0.576   0.132  0.3524 -0.0786  1.4461
   88SOL    HW2  585   1.321   0.422   0.160  1.0239 -0.1991  1.9077
   89SOL     OW  586   4.808   4.756   5.386 -0.2675 -0.0316 -0.2094
   89SOL    HW1  587   4.715   4.752   5.423 -0.8206 -1.0188 -1.6086
   89SOL    HW2  588   4.874   4.753   5.460 -1.3419 -0.7908  0.7427
   90SOL     OW  589   0.707   1.278   2.358 -0.2057 -0.1121 -0.0962
   90SOL    HW1  590   0.784   1.317   2.408  1.0976 -0.4886 -1.7095
   90SOL    HW2  591   0.640   1.349   2.337 -0.7366  0.0721  2.0107
   91SOL     OW  592   1.177   2.405   1.929 -0.2386  0.0866  0.0739
   91SOL    HW1  593   1.109   2.465   1.886 -1.2132 -2.1285 -1.6624
   91SOL    HW2  594   1.240   2.371   1.859  1.4196  0.4576  1.3225
   92SOL     OW  595   1.330   0.769   1.267 -0.4544 -0.1449 -0.3844
   92SOL    HW1  596   1.246   0.781   1.213 -0.4445  3.1315  0.1530
   92SOL    HW2  597   1.309   0.777   1.364  0.5100  1.2031 -0.2604
   93SOL     OW  598   5.087   2.610   0.844 -0.2336  0.1999  0.0333
   93SOL    HW1  599   5.056   2.579   0.755 -1.0763  0.5128  0.2092
   93SOL    HW2  600   5.180   2.576   0.861 -0.7696 -1.4930 -0.1522
   94SOL     OW  601   1.161   5.036   1.137  0.2373  0.6173  0.1833
   94SOL    HW1  602   1.070   5.023   1.177  0.4434  1.4767  0.9624
   94SOL    HW2  603   1.209   5.109   1.186  1.3353  0.2035 -0.2514
   95SOL     OW  604   5.407   5.543   4.704 -0.1428 -0.6042 -0.0561
   95SOL    HW1  605   5.471   5.584   4.769 -1.6355  1.9256 -0.0652
   95SOL    HW2  606   5.314   5.550   4.739 -0.7106 -1.9276 -1.1757
   96SOL     OW  607   5.481   1.901   0.493 -0.6926  0.1940  0.3379
   96SOL    HW1  608   5.505   1.896   0.590 -1.1857 -0.1139  0.4511
   96SOL    HW2  609   5.538   1.968   0.447  0.7881 -0.9240  0.4725
   97SOL     OW  610   1.323   0.394   1.474  0.2013 -0.3724  1.0048
   97SOL    HW1  611   1.359   0.301   1.471 -0.7448 -0.7507  0.9767
   97SOL    HW2  612   1.356   0.440   1.556  1.9460 -0.1850  0.2325
   98SOL     OW  613   0.878   1.462   1.185 -0.0455  0.0648 -0.1417
   98SOL    HW1  614   0.876   1.384   1.247 -0.7130 -0.5612 -0.9356
   98SOL    HW2  615   0.794   1.464   1.130  0.2252  0.9997 -0.5523
   99SOL     OW  616   1.206   1.044   0.719  0.2187  0.0480  0.2644
   99SOL    HW1  617   1.279   0.985   0.684 -1.4716 -1.3715 -1.1231
   99SOL    HW2  618   1.161   0.999   0.797  0.2994  0.5189  0.5829
  100SOL     OW  619   0.674   1.708   0.360  0.1440 -0.1774 -0.4278
  100SOL    HW1  620   0.724   1.680   0.441 -0.2936 -2.4025 -0.8612
  100SOL    HW2  621   0.576   1.712   0.380  0.0079 -0.9761 -0.8695
  101SOL     OW  622   3.554   1.796   1.745 -0.1477  0.3525 -0.2572
  101SOL    HW1  623   3.493   1.772   1.670 -0.8243  1.7073 -0.1726
  101SOL    HW2  624   3.574   1.714   1.799 -1.6326 -0.1939 -0.4742
  102SOL     OW  625   1.384   1.024   1.567  0.0592 -0.4846  0.8528
  102SOL    HW1  626   1.334   1.027   1.654 -0.6135  0.8164  0.4426
  102SOL    HW2  627   1.350   1.095   1.506  3.2238  1.3470  0.9983
  103SOL     OW  628   0.900   1.002   0.516  0.4778 -0.3107  0.1997
  103SOL    HW1  629   0.951   0.922   0.482 -1.4778 -0.9035 -1.5614
  103SOL    HW2  630   0.847   0.976   0.597  1.1095 -0.3224  0.6187
  104SOL     OW  631   4.695   0.827   1.875  0.0236 -0.5902  0.0233
  104SOL    HW1  632   4.629   0.812   1.949  0.4713 -0.6202  0.4203
  104SOL    HW2  633   4.721   0.924   1.873 -2.3944  0.1195 -2.1382
  105SOL     OW  634   0.224   0.554   1.900  0.2268  0.5870 -0.2549
  105SOL    HW1  635   0.139   0.549   1.847  0.0529  0.1734  0.0591
  105SOL    HW2  636   0.204   0.543   1.997  0.2768  3.3866  0.1750
  106SOL     OW  637   1.259   0.096   1.402 -0.1747 -0.0465  0.1771
  106SOL    HW1  638   1.228   0.043   1.480  0.4659  0.0888  0.5299
  106SOL    HW2  639   1.181   0.143   1.360 -0.9081 -1.9104 -0.6658
  107SOL     OW  640   0.746   0.704   1.120  0.7196 -0.4743  0.0917
  107SOL    HW1  641   0.845   0.698   1.133  0.7903 -1.7303 -0.8254
  107SOL    HW2  642   0.726   0.760   1.039  0.6581 -0.1008  0.3594
  108SOL     OW  643   0.694   1.903   0.123  0.3367  0.2841  0.6303
  108SOL    HW1  644   0.664   1.843   0.197 -1.7043  0.8787  0.3586
  108SOL    HW2  645   0.734   1.986   0.162  0.6961 -0.0712  1.0318
  109SOL     OW  646   0.970   0.514   5.437  0.2309 -0.1669  0.0680
  109SOL    HW1  647   1.034   0.439   5.421 -1.1886 -2.0347  2.3568
  109SOL    HW2  648   0.884   0.495   5.390  0.2741  0.6733 -0.3587
  110SOL     OW  649   2.687   0.007   0.316 -0.1393  0.3567  0.2492
  110SOL    HW1  650   2.764   0.070   0.316  0.1657 -0.0102  0.3116
  110SOL    HW2  651   2.605   0.055   0.286 -0.0951  1.0003  1.1324
  111SOL     OW  652   0.373   1.216   0.126  0.1288  0.1053  0.2769
  111SOL    HW1  653   0.454   1.250   0.077  0.6074 -0.4968  0.6290
  111SOL    HW2  654   0.349   1.125   0.092 -2.0040  1.3085 -1.6548
  112SOL     OW  655   1.535   1.279   0.450  0.4099 -0.8824  0.0304
  112SOL    HW1  656   1.544   1.246   0.544  1.2175 -1.0192 -0.0949
  112SOL    HW2  657   1.595   1.227   0.389 -1.2181 -1.8444 -0.8323
  113SOL     OW  658   1.358   0.532   0.762  0.2450  0.5881  0.3583
  113SOL    HW1  659   1.409   0.616   0.779  0.1818  0.2248  2.6280
  113SOL    HW2  660   1.264   0.542   0.797  0.5338 -0.7286  1.6207
  114SOL     OW  661   5.497   0.575   5.027  0.6787  0.3150  0.4101
  114SOL    HW1  662   5.570   0.518   5.065  0.2741 -0.9288 -0.6213
  114SOL    HW2  663   5.479   0.651   5.089  2.0005 -0.0414  1.2770
  115SOL     OW  664   1.461   0.872   0.543  0.5948 -0.3024  0.5378
  115SOL    HW1  665   1.467   0.806   0.467 -0.1250 -0.0084  0.2148
  115SOL    HW2  666   1.470   0.823   0.630 -0.1212 -0.8668  0.3086
  116SOL     OW  667   0.719   2.701   0.851  0.3072 -0.0060 -0.4395
  116SOL    HW1  668   0.652   2.640   0.809 -0.5047  1.0668 -0.7485
  116SOL    HW2  669   0.696   2.716   0.947 -1.0596  1.8810 -1.0175
  117SOL     OW  670   1.549   1.499   2.346  0.1924  0.3254  0.0825
  117SOL    HW1  671   1.593   1.414   2.317 -0.1164  0.2590 -0.1996
  117SOL    HW2  672   1.459   1.506   2.302  0.8395  1.5333 -1.1284
  118SOL     OW  673   1.114   1.511   1.837 -0.1397 -0.1682  0.0677
  118SOL    HW1  674   1.114   1.455   1.920  0.3023 -0.1863  0.0588
  118SOL    HW2  675   1.178   1.587   1.849  1.8630 -1.5676 -1.1773
  119SOL     OW  676   2.190   0.844   2.646 -0.6430  0.1595  0.5913
  119SOL    HW1  677   2.214   0.854   2.743  0.6625 -0.0737  0.3134
  119SOL    HW2  678   2.241   0.767   2.607 -1.7909 -0.2806 -0.0883
  120SOL     OW  679   1.173   5.110   0.873 -0.0453 -0.0202  0.3731
  120SOL    HW1  680   1.142   5.080   0.964 -0.9553  1.4868  0.5918
  120SOL    HW2  681   1.131   5.053   0.803  0.5317 -1.0911  0.8706
  121SOL     OW  682   0.911   1.443   2.154 -0.1323  0.2068 -0.5366
  121SOL    HW1  683   0.952   1.489   2.233  0.2348 -1.6624  0.4314
  121SOL    HW2  684   0.811   1.444   2.164 -0.1227  0.6177 -0.4386
  122SOL     OW  685   0.539   0.598   1.242  0.4856 -0.5192  0.1128
  122SOL    HW1  686   0.544   0.610   1.341 -1.8820  0.9627  0.1266
  122SOL    HW2  687   0.612   0.650   1.198  1.3152 -0.8752  1.0344
  123SOL     OW  688   0.550   5.593   1.143 -0.5839 -0.2119 -0.5598
  123SOL    HW1  689   0.613   5.518   1.163  0.8152  0.5522 -1.8392
  123SOL    HW2  690   0.564   5.624   1.049 -1.0364  1.7076 -0.0501
  124SOL     OW  691   1.083   0.435   1.592  0.1372 -0.0401  0.1206
  124SOL    HW1  692   1.167   0.422   1.539 -0.1404 -1.5686 -0.0081
  124SOL    HW2  693   1.052   0.346   1.626 -1.4990  0.4853  0.0621
  125SOL     OW  694   1.491   2.485   0.087 -0.3715 -0.0816 -0.3416
  125SOL    HW1  695   1.492   2.394   0.127  0.4248  0.2221  0.3477
  125SOL    HW2  696   1.404   2.500   0.040 -0.2485 -1.4481 -1.0621
  126SOL     OW  697   4.926   1.133   5.423 -0.3018 -0.2905  0.0367
  126SOL    HW1  698   4.839   1.121   5.472  0.2458 -2.1973  0.6036
  126SOL    HW2  699   4.999   1.087   5.473  0.7089 -0.2781 -1.3824
  127SOL     OW  700   5.555   0.712   2.354 -0.0469  0.4831 -0.2085
  127SOL    HW1  701   5.547   0.805   2.317 -1.1276  0.1542 -0.8338
  127SOL    HW2  702   5.493   0.651   2.305  0.3316 -0.4892  0.4928
  128SOL     OW  703   5.395   2.246   0.012 -0.0500 -0.1915  0.9467
  128SOL    HW1  704   5.384   2.157  -0.033 -0.7489 -0.1795  1.0801
  128SOL    HW2  705   5.379   2.235   0.111 -1.3226  0.2873  0.8104
  129SOL     OW  706   2.668   2.275   1.344  0.3947  0.4029  0.1135
  129SOL    HW1  707   2.683   2.193   1.289 -1.1577 -0.6683  1.2135
  129SOL    HW2  708   2.617   2.342   1.290  1.1100  0.4042 -0.5797
  130SOL     OW  709   1.432   0.627   5.084 -0.2847 -0.0472  0.6618
  130SOL    HW1  710   1.480   0.711   5.058 -1.5233  0.6728  0.6401
  130SOL    HW2  711   1.478   0.548   5.042  1.4916  0.5034  1.4973
  131SOL     OW  712   0.465   1.181   2.242 -0.3768 -0.2408  0.0623
  131SOL    HW1  713   0.560   1.157   2.262 -1.1957 -1.9184  2.4598
  131SOL    HW2  714   0.428   1.120   2.172  0.0506 -0.1438 -0.2516
  132SOL     OW  715   0.634   1.553   2.188  0.1397  0.4299 -0.0976
  132SOL    HW1  716   0.544   1.525   2.154 -0.1844  0.6366  0.5926
  132SOL    HW2  717   0.629   1.573   2.285  1.2393 -0.9319  0.2873
  133SOL     OW  718   1.169   1.699   3.167  0.0616 -0.3265  0.6014
  133SOL    HW1  719   1.075   1.693   3.133  0.1523 -1.3737  0.5042
  133SOL    HW2  720   1.203   1.607   3.189  0.2444  0.2401  2.9342
  134SOL     OW  721   0.819   0.472   2.121 -0.3005 -0.3052  0.0353
  134SOL    HW1  722   0.903   0.484   2.068  0.4605  2.5921  1.6848
  134SOL    HW2  723   0.741   0.501   2.065  0.0683 -0.6846 -0.6925
  135SOL     OW  724   0.863   4.929   3.011 -0.1844 -0.0001  0.2058
  135SOL    HW1  725   0.816   4.921   2.923 -2.1666  0.3117  1.1861
  135SOL    HW2  726   0.918   5.012   3.012 -0.0961 -0.0356 -0.7505
  136SOL     OW  727   0.892   2.203   1.187  0.1467 -0.1509  0.2422
  136SOL    HW1  728   0.860   2.151   1.266  0.8267  0.2613  0.8044
  136SOL    HW2  729   0.825   2.273   1.164  0.5733  0.6607  1.3665
  137SOL     OW  730   1.612   1.105   0.676  0.2434  0.2744  0.3332
  137SOL    HW1  731   1.709   1.099   0.701  0.3024  0.4902  0.1591
  137SOL    HW2  732   1.584   1.020   0.632  0.0134 -0.3041  1.5470
  138SOL     OW  733   1.501   1.988   0.495  1.0552  0.8179 -0.4791
  138SOL    HW1  734   1.467   1.966   0.586  2.2735 -3.3780 -0.8203
  138SOL    HW2  735   1.427   1.977   0.428  1.5539 -3.1012 -0.6228
  139SOL     OW  736   0.487   0.590   1.539 -0.2369 -0.0272 -0.0114
  139SOL    HW1  737   0.402   0.641   1.523 -0.7041 -0.5716  0.6844
  139SOL    HW2  738   0.471   0.493   1.522 -0.1774 -0.3452  1.5876
  140SOL     OW  739   0.090   0.440   2.420 -0.2079  0.7941 -0.6263
  140SOL    HW1  740   0.092   0.341   2.407  1.3860  0.7160 -0.0161
  140SOL    HW2  741   0.115   0.461   2.514  0.3486  1.8209 -0.9978
  141SOL     OW  742   1.203   0.394   5.483 -0.0402  0.1137 -0.4833
  141SOL    HW1  743   1.214   0.464   5.412  0.9688  0.2845 -0.1739
  141SOL    HW2  744   1.194   0.438   5.572 -0.2684 -0.1339 -0.3814
  142SOL     OW  745   2.707   0.988   2.280  0.4127  0.4637  0.2155
  142SOL    HW1  746   2.738   0.893   2.279  2.0403  0.9716 -0.8862
  142SOL    HW2  747   2.608   0.991   2.264  0.6572 -0.9595 -2.0240
  143SOL     OW  748   5.607   0.515   5.313 -0.4682  0.4476 -0.1667
  143SOL    HW1  749   5.626   0.598   5.365 -0.1588  0.1226  0.2460
  143SOL    HW2  750   5.514   0.483   5.334 -0.4167  0.4277  0.0324
  144SOL     OW  751   2.172   0.166   1.390 -0.1818  0.4710 -0.6296
  144SOL    HW1  752   2.133   0.144   1.479 -1.5103 -0.5354 -1.4322
  144SOL    HW2  753   2.269   0.189   1.402  0.4793 -2.4643  0.7533
  145SOL     OW  754   0.499   1.762   1.300  0.3823  0.1502  0.0431
  145SOL    HW1  755   0.598   1.773   1.288  0.1526  2.3217 -0.2691
  145SOL    HW2  756   0.481   1.726   1.392  1.4616 -0.5429 -0.0004
  146SOL     OW  757   1.946   1.434   0.683 -0.2241  0.0625 -0.3358
  146SOL    HW1  758   1.853   1.432   0.647 -0.9740 -0.8748  1.5273
  146SOL    HW2  759   1.993   1.349   0.658  0.4197  0.8492 -1.9076
  147SOL     OW  760   2.724   2.067   1.180 -0.3173 -0.4253  0.1161
  147SOL    HW1  761   2.824   2.065   1.187 -0.2848  1.6784  1.4536
  147SOL    HW2  762   2.685   1.987   1.226  0.7323  0.0389  1.9167
  148SOL     OW  763   5.405   1.394   2.114  0.1773 -0.1290 -0.3001
  148SOL    HW1  764   5.415   1.476   2.057  2.0821  0.3092  0.5684
  148SOL    HW2  765   5.340   1.331   2.072 -0.4967  1.3392 -1.5524
  149SOL     OW  766   1.776   0.771   0.849 -0.0613 -0.0070 -0.2034
  149SOL    HW1  767   1.806   0.688   0.896 -0.5823  0.1257  0.3726
  149SOL    HW2  768   1.781   0.848   0.913  0.6108  0.4488 -0.7884
  150SOL     OW  769   2.274   5.410   1.524 -0.6053 -0.3350 -0.1271
  150SOL    HW1  770   2.228   5.444   1.606 -1.5353  1.1479 -1.2064
  150SOL    HW2  771   2.357   5.463   1.508 -0.4193 -0.6293 -0.1548
  151SOL     OW  772   0.668   1.454   1.019  0.1492  0.5192  0.9472
  151SOL    HW1  773   0.577   1.412   1.017 -0.6326  1.8495  3.4405
  151SOL    HW2  774   0.659   1.552   1.005  1.5940  0.3702 -1.5793
  152SOL     OW  775   0.434   1.155   0.771 -0.2471 -0.1482  0.1742
  152SOL    HW1  776   0.410   1.235   0.826 -1.8733  0.8208 -1.8205
  152SOL    HW2  777   0.390   1.074   0.809 -1.5719  0.5521  0.2030
  153SOL     OW  778   5.089   0.897   2.270  1.0161 -0.4105  0.0815
  153SOL    HW1  779   5.175   0.929   2.231  2.1427 -0.9534  1.9541
  153SOL    HW2  780   5.095   0.798   2.286 -0.2190 -0.5713 -0.3535
  154SOL     OW  781   0.095   1.000   1.944 -0.2579  0.3453  0.2372
  154SOL    HW1  782   0.145   1.083   1.919 -1.3172  0.8026 -0.4592
  154SOL    HW2  783   0.042   1.016   2.027 -0.1702  0.2433  0.3134
  155SOL     OW  784   5.459   1.520   1.871 -0.0836 -0.0017  0.5117
  155SOL    HW1  785   5.445   1.612   1.837 -1.2988 -0.0694  0.7885
  155SOL    HW2  786   5.462   1.455   1.795 -2.8549 -0.1643  0.4680
  156SOL     OW  787   0.551   0.765   4.640  0.2456 -0.3263  0.2760
  156SOL    HW1  788   0.503   0.758   4.727 -1.2047 -1.8797 -0.5859
  156SOL    HW2  789   0.545   0.858   4.605 -0.4985 -0.0596  1.0946
  157SOL     OW  790   0.488   2.937   5.575  0.0787  0.4210 -0.0156
  157SOL    HW1  791   0.415   2.920   5.509 -0.3227  0.0397  0.5137
  157SOL    HW2  792   0.563   2.985   5.530 -0.4934  0.8156 -0.5719
  158SOL     OW  793   0.735   1.738   0.950 -0.2768 -0.1719 -0.6754
  158SOL    HW1  794   0.678   1.820   0.945 -0.8830 -0.5376  0.0392
  158SOL    HW2  795   0.816   1.750   0.892  1.6436  2.4845  2.2533
  159SOL     OW  796   0.927   1.631   2.429 -0.6428  0.1391  0.1055
  159SOL    HW1  797   1.007   1.573   2.443 -0.3568  0.1005 -1.4726
  159SOL    HW2  798   0.954   1.712   2.376 -1.7191 -0.1473 -0.9298
  160SOL     OW  799   4.742   0.564   2.358 -0.5663  0.4041  0.4916
  160SOL    HW1  800   4.775   0.575   2.264  0.9052 -1.4347  0.7297
  160SOL    HW2  801   4.791   0.628   2.417 -1.9219  1.9961 -0.0126
  161SOL     OW  802   5.326   0.519   2.381  0.2996  0.1656  0.1299
  161SOL    HW1  803   5.363   0.481   2.297  1.6673  1.1769  0.2371
  161SOL    HW2  804   5.349   0.460   2.458 -1.1685 -0.8897 -0.1997
  162SOL     OW  805   5.553   0.954   1.248  0.1171 -0.2833 -0.3016
  162SOL    HW1  806   5.543   1.006   1.333  0.6567 -0.1100 -0.3352
  162SOL    HW2  807   5.608   0.872   1.266 -2.2386 -1.8552  0.1516
  163SOL     OW  808   1.710   4.784   1.661  0.4507  0.0443 -0.2542
  163SOL    HW1  809   1.714   4.874   1.616  0.7432  0.5884  0.8116
  163SOL    HW2  810   1.663   4.719   1.602  0.6852  0.7660 -1.2700
  164SOL     OW  811   1.523   4.886   0.803  0.4457  0.2031 -0.0149
  164SOL    HW1  812   1.474   4.836   0.874 -2.4832  1.6872 -0.8197
  164SOL    HW2  813   1.513   4.984   0.819 -0.9295  0.6143 -2.7571
  165SOL     OW  814   4.837   0.571   2.094  0.3134 -0.3870  0.3540
  165SOL    HW1  815   4.846   0.474   2.118 -0.2447 -0.4481  0.3493
  165SOL    HW2  816   4.883   0.588   2.007  1.6709 -0.3272  1.0670
  166SOL     OW  817   1.431   0.147   2.057 -0.1267  0.0063  0.0218
  166SOL    HW1  818   1.382   0.130   2.142 -1.1881  1.1265 -0.3328
  166SOL    HW2  819   1.475   0.063   2.026 -1.9432 -1.0888  0.2834
  167SOL     OW  820   0.153   1.372   1.168 -0.1728 -0.1001 -0.2475
  167SOL    HW1  821   0.157   1.287   1.220 -1.1736  0.9624  1.6583
  167SOL    HW2  822   0.240   1.421   1.177 -0.2429 -0.0546  0.1953
  168SOL     OW  823   1.231   1.364   4.695  0.5078  0.3699 -0.0619
  168SOL    HW1  824   1.150   1.380   4.751 -0.2090  0.1130 -0.9913
  168SOL    HW2  825   1.292   1.443   4.700 -0.9684  1.6415 -1.2669
  169SOL     OW  826   0.665   1.757   1.996  0.7371  0.2461 -0.2777
  169SOL    HW1  827   0.752   1.751   1.945  1.1891 -0.8144  0.5957
  169SOL    HW2  828   0.676   1.714   2.085 -0.2676  1.4410  0.4413
  170SOL     OW  829   1.096   1.672   1.161 -0.5819  0.0457  0.1872
  170SOL    HW1  830   1.163   1.633   1.098  0.5743 -0.6059  1.7600
  170SOL    HW2  831   1.021   1.607   1.173  0.4913 -1.0166  1.4655
  171SOL     OW  832   2.570   1.131   4.763  0.0440 -0.1151 -0.6290
  171SOL    HW1  833   2.534   1.191   4.691  0.1568 -0.7936 -1.2554
  171SOL    HW2  834   2.665   1.109   4.743  0.1563 -0.0994 -0.1253
  172SOL     OW  835   0.759   0.969   1.656  0.0875 -0.0027  0.0995
  172SOL    HW1  836   0.760   0.969   1.756  0.1313  0.4632  0.0974
  172SOL    HW2  837   0.733   0.877   1.624 -1.2572  0.1957  0.5491
  173SOL     OW  838   1.615   1.515   0.779  0.3746 -0.1450 -0.0709
  173SOL    HW1  839   1.641   1.507   0.683  3.0502 -0.9420  0.6589
  173SOL    HW2  840   1.537   1.455   0.798  0.3321 -0.5842 -1.5406
  174SOL     OW  841   0.350   1.996   1.233 -0.0347  0.1478 -0.2475
  174SOL    HW1  842   0.388   1.903   1.236 -0.9646 -0.2334  0.3863
  174SOL    HW2  843   0.389   2.046   1.156  0.4909 -0.7700 -0.5937
  175SOL     OW  844   0.803   2.425   2.670 -0.0792 -0.6788  0.1528
  175SOL    HW1  845   0.848   2.442   2.758  0.8115 -0.3203 -0.3569
  175SOL    HW2  846   0.758   2.336   2.672 -1.0177 -0.2017  1.3402
  176SOL     OW  847   1.031   4.830  -0.034  0.0056  0.0847  0.3812
  176SOL    HW1  848   1.002   4.869   0.053  1.6755  0.4129  0.8099
  176SOL    HW2  849   1.100   4.760  -0.019  2.8866  2.4540 -0.7547
  177SOL     OW  850   2.448   4.493   5.192 -0.4369  0.7608  0.0803
  177SOL    HW1  851   2.428   4.460   5.285  4.5197  0.0634  1.1665
  177SOL    HW2  852   2.457   4.415   5.130  1.3749  0.7666  0.2975
  178SOL     OW  853   1.706   2.778   0.409  0.1465 -0.5339  0.1429
  178SOL    HW1  854   1.718   2.876   0.392 -1.2162 -0.2501  0.6937
  178SOL    HW2  855   1.665   2.735   0.329  0.5799 -0.6326 -0.0311
  179SOL     OW  856   2.113   2.192   2.712  0.2025 -0.0114  0.3672
  179SOL    HW1  857   2.076   2.147   2.630  0.5910 -0.1170  0.2481
  179SOL    HW2  858   2.122   2.290   2.695 -1.8640  0.3574  1.0603
  180SOL     OW  859   0.179   1.238   1.879  0.3386  0.3145 -0.7474
  180SOL    HW1  860   0.160   1.239   1.781  0.9324  1.0707 -0.8584
  180SOL    HW2  861   0.169   1.330   1.917 -0.7309 -0.1142  0.0787
  181SOL     OW  862   0.772   2.477   1.529  0.0914  0.1626 -0.0569
  181SOL    HW1  863   0.863   2.436   1.534 -0.3768 -0.8682  0.3631
  181SOL    HW2  864   0.759   2.540   1.605  0.9648  1.4450 -0.9314
  182SOL     OW  865   1.059   1.100   5.244  0.0264 -0.0623  0.1966
  182SOL    HW1  866   1.038   1.136   5.153 -1.4681  0.4414  0.6986
  182SOL    HW2  867   0.993   1.027   5.266 -0.9321  1.1780  1.6359
  183SOL     OW  868   1.234   1.291   0.625  0.2376  0.0850 -0.5334
  183SOL    HW1  869   1.153   1.345   0.645  0.8503  1.2529 -1.0607
  183SOL    HW2  870   1.215   1.194   0.639 -0.3987  0.5305  2.1114
  184SOL     OW  871   2.486   5.216   5.374  0.0940 -0.1345  0.2094
  184SOL    HW1  872   2.540   5.155   5.317 -0.9438  0.6083 -1.6664
  184SOL    HW2  873   2.517   5.311   5.360 -2.1017  0.3930 -1.4865
  185SOL     OW  874   0.224   0.908   0.161 -0.0045 -0.1960  0.2005
  185SOL    HW1  875   0.159   0.836   0.134  0.4748 -0.6677  0.2947
  185SOL    HW2  876   0.316   0.883   0.130  0.2907  0.0118  0.9082
  186SOL     OW  877   5.580   0.039   4.913 -0.1198  0.2417 -0.2013
  186SOL    HW1  878   5.595   0.053   5.011  1.3959 -0.1049 -0.3676
  186SOL    HW2  879   5.558   0.127   4.870 -1.4936  0.2952  0.5363
  187SOL     OW  880   5.001   1.075   0.859 -0.2186  0.1314 -0.1881
  187SOL    HW1  881   4.955   1.128   0.930 -0.2358  0.1182 -0.1893
  187SOL    HW2  882   5.079   1.126   0.824  1.3037 -0.8680  1.5723
  188SOL     OW  883   1.615   4.841   1.138  0.4581 -0.8001 -0.7796
  188SOL    HW1  884   1.659   4.751   1.134 -0.0668 -1.2184  1.7062
  188SOL    HW2  885   1.665   4.900   1.202 -0.5787 -0.1243 -0.5742
  189SOL     OW  886   0.616   1.452   5.216 -0.2280 -0.1121  0.0174
  189SOL    HW1  887   0.684   1.407   5.274  0.1812 -1.3076 -1.3261
  189SOL    HW2  888   0.648   1.543   5.191  0.0544  0.0159  0.8279
  190SOL     OW  889   5.268   1.603   0.961  0.3847  0.8599  0.5169
  190SOL    HW1  890   5.227   1.516   0.990 -0.9398  0.5742 -1.8678
  190SOL    HW2  891   5.363   1.587   0.933  0.6886  0.5540  1.6636
  191SOL     OW  892   0.764   2.384   0.409 -0.7234 -0.3638  0.3733
  191SOL    HW1  893   0.772   2.379   0.310  0.7098 -1.5696  0.5142
  191SOL    HW2  894   0.733   2.475   0.436 -1.5832 -0.1652 -1.1859
  192SOL     OW  895   0.152   2.660   0.751  0.0831 -0.2608  0.1389
  192SOL    HW1  896   0.102   2.746   0.754  0.1811 -0.2311  1.1359
  192SOL    HW2  897   0.096   2.590   0.706 -0.3260  0.1030  0.0771
  193SOL     OW  898   0.607   0.135   2.203  0.1864 -0.1123  0.7519
  193SOL    HW1  899   0.693   0.162   2.246  0.7568 -1.1127  0.2674
  193SOL    HW2  900   0.603   0.171   2.110 -0.2977  0.6194  1.0429
  194SOL     OW  901   1.614   2.224   0.506 -0.3791 -0.3293 -0.2863
  194SOL    HW1  902   1.704   2.231   0.549 -0.7625 -0.1157  0.5007
  194SOL    HW2  903   1.587   2.128   0.502 -0.0951 -0.3996 -0.5797
  195SOL     OW  904   0.781   0.822   2.543 -0.5428  0.3163 -0.4884
  195SOL    HW1  905   0.767   0.763   2.463 -0.2452  0.1141 -0.3924
  195SOL    HW2  906   0.726   0.788   2.619  0.2235 -0.3090 -0.1972
  196SOL     OW  907   4.597   0.371   5.494  0.2548 -0.2585 -0.1889
  196SOL    HW1  908   4.590   0.336   5.587 -3.1838 -0.6133 -0.4746
  196SOL    HW2  909   4.507   0.395   5.460  1.4464  0.2964 -3.3058
  197SOL     OW  910   0.606   0.539   1.937 -0.2290  0.6640  0.0362
  197SOL    HW1  911   0.556   0.469   1.886  0.4129  1.3611 -1.6481
  197SOL    HW2  912   0.624   0.617   1.876  0.5995  1.5385  1.3549
  198SOL     OW  913   1.069   1.007   2.449 -0.6956 -0.3108 -0.0339
  198SOL    HW1  914   1.006   1.058   2.508 -2.1249 -0.4435 -1.3940
  198SOL    HW2  915   1.021   0.930   2.408  0.5662 -0.8453 -0.5451
  199SOL     OW  916   4.996   4.857   5.139 -0.1345 -0.6488 -0.5157
  199SOL    HW1  917   4.916   4.871   5.198 -1.1840  2.4229 -2.4150
  199SOL    HW2  918   5.075   4.905   5.177 -0.3329 -0.1854 -0.6766
  200SOL     OW  919   0.948   0.873   2.792  0.0455  0.2804  0.6992
  200SOL    HW1  920   0.859   0.866   2.837  0.5998  1.2613  2.0086
  200SOL    HW2  921   0.947   0.953   2.731  0.7394  1.7323  2.5072
  201SOL     OW  922   0.895   5.580   5.556  0.3811  0.4166 -0.2925
  201SOL    HW1  923   0.907   5.514   5.482 -0.5768 -0.6352  0.4577
  201SOL    HW2  924   0.947   5.663   5.535  2.0213 -0.7399 -1.0299
  202SOL     OW  925   1.788   1.830   4.224  0.0391  0.3897 -0.1044
  202SOL    HW1  926   1.761   1.802   4.132 -1.5655  1.1003  0.1078
  202SOL    HW2  927   1.886   1.816   4.236 -0.0832 -1.7174 -1.1819
  203SOL     OW  928   0.502   1.326   1.368  0.5540 -0.3833 -0.5567
  203SOL    HW1  929   0.431   1.379   1.321  0.7870  0.7771  0.3501
  203SOL    HW2  930   0.483   1.325   1.466  0.8067 -1.6271 -0.5031
  204SOL     OW  931   2.070   1.783   2.199 -0.6166 -0.1085  0.1765
  204SOL    HW1  932   2.007   1.717   2.240  1.0195 -1.1547  1.1302
  204SOL    HW2  933   2.018   1.861   2.164 -2.3563 -0.5679  1.5627
  205SOL     OW  934   0.243   0.253   3.202 -0.2908  0.8281 -0.2759
  205SOL    HW1  935   0.264   0.288   3.293 -1.2737 -0.0008  0.2918
  205SOL    HW2  936   0.180   0.314   3.155 -2.8277 -0.5696  1.1070
  206SOL     OW  937   1.659   0.534   1.529  0.2216  0.4012  0.0779
  206SOL    HW1  938   1.669   0.466   1.457  1.5529 -0.8064  1.3450
  206SOL    HW2  939   1.575   0.515   1.581  0.4726 -0.1530  0.2893
  207SOL     OW  940   4.613   1.206   0.983  0.2267  0.1935 -0.2086
  207SOL    HW1  941   4.522   1.182   0.948  0.2450 -1.5685  0.8512
  207SOL    HW2  942   4.606   1.292   1.034 -0.5623  0.7623 -1.2289
  208SOL     OW  943   0.913   0.417   0.806  0.5087  0.1007  0.3298
  208SOL    HW1  944   0.874   0.499   0.766  1.7754  0.3282 -0.4775
  208SOL    HW2  945   0.876   0.404   0.898 -2.2468 -0.2954 -0.7566
  209SOL     OW  946   0.614   0.129   0.502 -0.1712 -0.2211 -0.4038
  209SOL    HW1  947   0.654   0.081   0.423  0.8540  0.2196 -0.1723
  209SOL    HW2  948   0.618   0.069   0.582  0.4629 -0.0117 -0.2750
  210SOL     OW  949   0.718   1.088   1.411 -0.2569  0.1075 -0.2782
  210SOL    HW1  950   0.629   1.133   1.402 -1.3955 -2.2147 -1.7792
  210SOL    HW2  951   0.733   1.064   1.507 -0.9514  1.0900  0.0951
  211SOL     OW  952   0.983   1.962   1.662  0.3086 -0.1383 -0.5728
  211SOL    HW1  953   0.924   2.041   1.642  0.5664 -0.1296 -1.3288
  211SOL    HW2  954   0.926   1.883   1.686  0.0545  0.8128  2.4935
  212SOL     OW  955   2.649   1.931   2.471  0.7670 -0.7890  0.5016
  212SOL    HW1  956   2.664   2.029   2.481  2.3707 -1.0805  1.2659
  212SOL    HW2  957   2.553   1.914   2.449  0.4336  0.9324  0.5082
  213SOL     OW  958   1.506   0.681   0.136  0.2684  0.0763 -0.1674
  213SOL    HW1  959   1.595   0.693   0.093 -0.9487  1.8522 -2.4108
  213SOL    HW2  960   1.516   0.684   0.236  2.7732 -0.5671 -0.3485
  214SOL     OW  961   5.229   2.850   0.140  0.1627 -0.2935  0.2264
  214SOL    HW1  962   5.229   2.827   0.237  2.2483  0.6208  0.5122
  214SOL    HW2  963   5.307   2.805   0.095  1.3256  1.9817 -0.2330
  215SOL     OW  964   0.252   1.609   0.649  0.2663  0.0771  0.4105
  215SOL    HW1  965   0.249   1.709   0.654  0.1098  0.1519 -0.8233
  215SOL    HW2  966   0.213   1.571   0.733 -0.7156  1.0560  0.4295
  216SOL     OW  967   0.864   0.914   5.298 -0.5150  0.7192  0.0685
  216SOL    HW1  968   0.780   0.907   5.351  0.3416 -0.4125  1.3205
  216SOL    HW2  969   0.866   0.841   5.229  0.7629 -1.2368  2.0472
  217SOL     OW  970   1.070   1.166   0.372  0.3065  0.2852  0.1283
  217SOL    HW1  971   0.983   1.136   0.411 -0.2971  0.3018 -1.1556
  217SOL    HW2  972   1.138   1.093   0.381  0.5403  0.7174  2.2323
  218SOL     OW  973   0.645   2.739   2.449 -0.1336  0.0724 -0.2309
  218SOL    HW1  974   0.561   2.706   2.406 -0.3255  1.7734 -1.2491
  218SOL    HW2  975   0.718   2.743   2.381 -0.2624  2.1650 -0.2996
  219SOL     OW  976   0.758   1.134   4.865  0.0908  0.1581 -0.1814
  219SOL    HW1  977   0.753   1.234   4.855 -3.0519  0.2397  1.1925
  219SOL    HW2  978   0.667   1.098   4.884  1.2366 -2.9624 -0.1511
  220SOL     OW  979   5.517   1.591   0.837  0.2067 -0.0251 -0.5490
  220SOL    HW1  980   5.597   1.548   0.877  0.2032  2.2086  2.1289
  220SOL    HW2  981   5.529   1.690   0.836 -1.9058  0.2833 -1.5318
  221SOL     OW  982   1.503   0.372   0.925 -0.1934  0.7444 -0.1636
  221SOL    HW1  983   1.441   0.432   0.874 -2.7421 -0.3948  1.3874
  221SOL    HW2  984   1.541   0.422   1.003 -1.0311  0.8403  0.1991
  222SOL     OW  985   5.358   1.061   0.879  0.3300  0.3834 -0.0296
  222SOL    HW1  986   5.293   1.117   0.827 -0.4174  1.6051  2.0775
  222SOL    HW2  987   5.362   0.969   0.840 -2.7458  0.2328 -0.2276
  223SOL     OW  988   1.189   1.047   1.776  0.1165  0.6272  0.2646
  223SOL    HW1  989   1.094   1.079   1.784  0.3886  1.3598  0.6497
  223SOL    HW2  990   1.223   1.019   1.865  0.3903  0.7417  0.1979
  224SOL     OW  991   0.644   0.243   1.930 -0.2805  0.5303 -0.4805
  224SOL    HW1  992   0.584   0.306   1.881 -0.6175  1.4026  0.9840
  224SOL    HW2  993   0.634   0.151   1.893 -1.8433  0.8264 -0.8519
  225SOL     OW  994   0.827   1.647   0.577  0.3569  0.3017 -0.1401
  225SOL    HW1  995   0.801   1.650   0.673  0.2943 -0.2461 -0.1333
  225SOL    HW2  996   0.864   1.556   0.555 -1.7356 -0.3910 -1.1316
  226SOL     OW  997   1.875   0.706   1.246 -0.1361 -0.2510  0.6334
  226SOL    HW1  998   1.783   0.716   1.285  0.1701 -2.0139  1.9396
  226SOL    HW2  999   1.921   0.795   1.245 -1.5424  0.5062  0.7252
  227SOL     OW 1000   5.278   0.451   1.909  0.0243 -0.6960  0.1036
  227SOL    HW1 1001   5.242   0.381   1.970  1.5331 -2.1646 -0.6105
  227SOL    HW2 1002   5.271   0.420   1.814  0.1523  0.3949 -0.2770
  228SOL     OW 1003   1.494   0.366   5.355 -0.1743 -0.2538 -0.2261
  228SOL    HW1 1004   1.406   0.376   5.400 -0.5395  1.6428 -1.2326
  228SOL    HW2 1005   1.514   0.449   5.302  2.1603 -0.6710 -0.1215
  229SOL     OW 1006   5.017   0.980   1.282  0.5692 -0.4403  0.4600
  229SOL    HW1 1007   5.031   0.948   1.188 -0.1348 -1.0802  0.5586
  229SOL    HW2 1008   4.991   0.902   1.340  1.6885 -0.1692  1.3425
  230SOL     OW 1009   0.860   0.425   4.907 -0.0409 -0.6490 -0.0433
  230SOL    HW1 1010   0.929   0.405   4.976  1.2522 -0.1886 -1.1546
  230SOL    HW2 1011   0.862   0.523   4.885  0.2239 -0.9358 -1.3801
  231SOL     OW 1012   1.092   1.600   0.404  0.1114 -0.2661 -0.1197
  231SOL    HW1 1013   1.184   1.560   0.398  1.3195  1.9539  1.7169
  231SOL    HW2 1014   1.047   1.566   0.486  0.3220  0.4900  0.3226
  232SOL     OW 1015   1.321   4.437   0.487  0.0234 -0.2346 -0.0162
  232SOL    HW1 1016   1.302   4.525   0.530 -0.3161  0.0326 -0.6994
  232SOL    HW2 1017   1.320   4.365   0.556 -1.0208  0.1160  0.3545
  233SOL     OW 1018   5.545   0.847   0.054  0.1266 -0.3474 -0.0363
  233SOL    HW1 1019   5.505   0.759   0.079 -0.6420 -0.2926 -1.0278
  233SOL    HW2 1020   5.504   0.919   0.109 -1.5676 -0.2219 -1.4063
  234SOL     OW 1021   0.380   5.470   5.543 -0.1933 -0.1642 -0.5664
  234SOL    HW1 1022   0.288   5.443   5.572 -0.6245  1.5185 -0.2010
  234SOL    HW2 1023   0.448   5.409   5.585 -0.9670  0.5271  1.8857
  235SOL     OW 1024   5.168   0.692   2.607  0.0627  0.1036 -0.4638
  235SOL    HW1 1025   5.188   0.630   2.531 -0.6785  0.6681 -1.1358
  235SOL    HW2 1026   5.128   0.640   2.682  0.1620 -0.3547 -0.7226
  236SOL     OW 1027   0.333   0.358   3.434  0.1393 -0.4567  0.2580
  236SOL    HW1 1028   0.302   0.436   3.380  0.9110 -0.8224 -0.7203
  236SOL    HW2 1029   0.365   0.390   3.523 -0.5695  0.2107  0.2828
  237SOL     OW 1030   4.996   0.286   2.620 -0.0515 -0.2103  0.2292
  237SOL    HW1 1031   4.929   0.214   2.602  2.2496 -2.4016 -0.0280
  237SOL    HW2 1032   5.059   0.293   2.543  1.1063  0.5235  1.2162
  238SOL     OW 1033   5.560   1.275   3.126 -0.4516 -0.3888 -0.2920
  238SOL    HW1 1034   5.603   1.363   3.147 -0.7225 -0.7897  2.2236
  238SOL    HW2 1035   5.462   1.281   3.147 -0.6755 -1.0112 -1.1130
  239SOL     OW 1036   1.243   1.751   1.860  0.7367 -0.1872  0.4213
  239SOL    HW1 1037   1.286   1.830   1.902  1.1394  0.0313 -0.3749
  239SOL    HW2 1038   1.249   1.759   1.760 -0.6435 -0.4299  0.2898
  240SOL     OW 1039   0.853   1.427   1.713 -0.2770  0.7755 -0.5113
  240SOL    HW1 1040   0.953   1.423   1.707 -0.2852 -1.8215 -0.2236
  240SOL    HW2 1041   0.814   1.419   1.622 -0.1698 -2.1084 -0.3982
  241SOL     OW 1042   0.183   0.144   2.063 -0.2084  0.4592  0.1645
  241SOL    HW1 1043   0.231   0.231   2.071 -0.7432  0.6895  0.9314
  241SOL    HW2 1044   0.116   0.150   1.989 -2.0702  1.6040  1.8402
  242SOL     OW 1045   0.246   1.688   4.217 -0.3136  0.3617  0.1052
  242SOL    HW1 1046   0.178   1.620   4.243 -1.5438  2.2518  2.3167
  242SOL    HW2 1047   0.285   1.665   4.128 -1.0897 -2.8150  0.4696
  243SOL     OW 1048   0.062   0.062   3.789  0.4675 -0.1797  0.5644
  243SOL    HW1 1049   0.052   0.159   3.813  1.8767  0.4601 -1.1523
  243SOL    HW2 1050   0.150   0.029   3.822  0.7302 -0.3668 -0.2895
  244SOL     OW 1051   5.318   1.277   2.600 -1.0636 -0.2846  0.1787
  244SOL    HW1 1052   5.374   1.207   2.644  1.0270  1.7900  1.0282
  244SOL    HW2 1053   5.324   1.267   2.501 -0.3832 -1.0043  0.2789
  245SOL     OW 1054   1.520   0.628   3.939  0.1778 -0.3074 -0.2122
  245SOL    HW1 1055   1.584   0.694   3.979  0.1352  0.6587 -1.6497
  245SOL    HW2 1056   1.550   0.535   3.961  0.8395  0.1630  0.9706
  246SOL     OW 1057   0.393   5.589   2.609  0.1916 -0.2651  0.1845
  246SOL    HW1 1058   0.425   5.661   2.547 -0.0863 -0.2249  0.0888
  246SOL    HW2 1059   0.470   5.529   2.632 -0.1173 -1.5238 -1.8509
  247SOL     OW 1060   1.586   1.455   3.493 -0.8806  0.5773 -0.0206
  247SOL    HW1 1061   1.548   1.434   3.403  0.5488 -1.3503 -0.2436
  247SOL    HW2 1062   1.639   1.377   3.526 -0.3264  1.7090  1.9576
  248SOL     OW 1063   1.017   4.732   3.786  0.5360 -0.2637  0.0436
  248SOL    HW1 1064   1.085   4.802   3.765 -0.0575  0.0905 -0.7531
  248SOL    HW2 1065   1.059   4.661   3.841  0.7424  1.5555  2.3878
  249SOL     OW 1066   1.303   5.410   3.146 -0.1772 -0.3019 -0.4503
  249SOL    HW1 1067   1.239   5.358   3.203  0.3619  0.5762  1.0009
  249SOL    HW2 1068   1.302   5.373   3.053 -1.1387 -1.7241  0.0904
  250SOL     OW 1069   0.555   1.475   2.693 -0.0487 -0.1714  0.0706
  250SOL    HW1 1070   0.611   1.399   2.725 -1.6810 -1.6361 -0.3659
  250SOL    HW2 1071   0.526   1.531   2.770 -0.2140 -0.9866  0.6041
  251SOL     OW 1072   1.358   1.422   3.901  0.2801 -0.2163  0.1655
  251SOL    HW1 1073   1.285   1.457   3.960  0.8179  0.8252  0.2504
  251SOL    HW2 1074   1.378   1.327   3.926 -0.1530 -0.0967  1.0224
  252SOL     OW 1075   4.920   2.813   1.607 -0.3438 -0.2255 -1.0478
  252SOL    HW1 1076   4.876   2.827   1.518 -1.0478 -1.6601 -0.9650
  252SOL    HW2 1077   4.875   2.870   1.676 -1.2579 -0.7172 -1.2180
  253SOL     OW 1078   0.677   1.549   3.410 -0.0634  0.0036  0.3003
  253SOL    HW1 1079   0.689   1.647   3.423 -0.8233  0.1352  0.0939
  253SOL    HW2 1080   0.726   1.520   3.328 -1.1622  0.5339 -0.5754
  254SOL     OW 1081   0.494   1.919   4.383  0.2671  0.0974 -0.0583
  254SOL    HW1 1082   0.451   1.939   4.295 -1.0123  1.7207  0.8724
  254SOL    HW2 1083   0.435   1.859   4.437 -0.7085  1.9482  1.0365
  255SOL     OW 1084   5.309   0.986   1.600  0.6770 -0.1888  0.1610
  255SOL    HW1 1085   5.250   1.063   1.621  0.4507 -0.5677  0.9392
  255SOL    HW2 1086   5.263   0.901   1.626  0.5452 -0.6667 -1.4886
  256SOL     OW 1087   0.563   4.819   4.113 -0.4909 -0.0304 -0.1846
  256SOL    HW1 1088   0.577   4.909   4.072  0.1548  0.9213  1.9673
  256SOL    HW2 1089   0.467   4.792   4.102 -1.4704  2.3185  1.6342
  257SOL     OW 1090   4.745   5.195   2.493 -0.0922 -0.2911 -0.7639
  257SOL    HW1 1091   4.713   5.208   2.399  0.1383  0.0083 -0.8026
  257SOL    HW2 1092   4.703   5.264   2.552 -1.5826 -1.5167 -0.3187
  258SOL     OW 1093   1.718   1.154   2.563 -0.1122 -0.2926 -0.1794
  258SOL    HW1 1094   1.764   1.079   2.516  0.8103  0.5534 -0.6659
  258SOL    HW2 1095   1.777   1.189   2.635 -1.6754 -1.8484  1.9951
  259SOL     OW 1096   5.089   1.788   2.424  0.7638  0.0649 -0.4396
  259SOL    HW1 1097   5.104   1.695   2.457  0.4206  0.3865  0.6694
  259SOL    HW2 1098   4.999   1.820   2.454  1.1130  0.9614 -0.3120
  260SOL     OW 1099   1.302   0.241   3.392  1.0051  0.3501  0.2270
  260SOL    HW1 1100   1.273   0.175   3.323 -0.4010  1.5162 -0.3610
  260SOL    HW2 1101   1.395   0.273   3.372 -0.1754  2.4692 -2.6763
  261SOL     OW 1102   1.772   0.656   3.047 -0.1908  0.0585 -0.2901
  261SOL    HW1 1103   1.824   0.589   2.993 -0.4446 -2.4949  2.3654
  261SOL    HW2 1104   1.674   0.634   3.042 -0.2542  0.0285  0.8325
  262SOL     OW 1105   4.873   0.699   3.843  0.1550 -0.3425  0.1366
  262SOL    HW1 1106   4.773   0.706   3.838  0.0402 -0.5394  1.5455
  262SOL    HW2 1107   4.908   0.656   3.760 -0.9326 -0.3196 -0.3518
  263SOL     OW 1108   1.083   2.396   1.485 -0.2154 -0.2178 -0.7083
  263SOL    HW1 1109   1.097   2.297   1.491 -0.1099 -0.2406 -1.3009
  263SOL    HW2 1110   1.119   2.430   1.398 -0.1941  0.3537 -0.4805
  264SOL     OW 1111   0.699   2.354   4.438 -0.4901  0.0105  0.2089
  264SOL    HW1 1112   0.710   2.257   4.414 -1.4349  0.5327 -2.8161
  264SOL    HW2 1113   0.616   2.366   4.492  0.1630 -0.9262  1.4869
  265SOL     OW 1114   2.501   4.775   1.987 -0.7692  0.0374  0.7017
  265SOL    HW1 1115   2.506   4.680   1.954 -0.0999 -0.0733  1.0962
  265SOL    HW2 1116   2.419   4.786   2.043 -0.2117 -0.6608  1.6869
  266SOL     OW 1117   0.909   1.712   3.103  0.5567  0.8407  0.0350
  266SOL    HW1 1118   0.895   1.619   3.136 -0.3203  1.1015  0.4225
  266SOL    HW2 1119   0.837   1.736   3.038  1.5573  0.7779 -1.1377
  267SOL     OW 1120   1.278   1.472   3.231 -0.3500  0.1432  0.3357
  267SOL    HW1 1121   1.244   1.424   3.313 -0.3762 -1.8873 -0.7885
  267SOL    HW2 1122   1.371   1.442   3.212 -1.0376 -0.9826 -1.4788
  268SOL     OW 1123   0.957   2.103   1.999 -0.3007  0.2148  0.1073
  268SOL    HW1 1124   0.915   2.160   1.928 -1.1494  2.3032  2.1347
  268SOL    HW2 1125   1.055   2.122   2.002 -0.0438 -0.7491 -1.1957
  269SOL     OW 1126  -0.022   0.131   3.258  0.0120 -0.1453  0.5078
  269SOL    HW1 1127   0.041   0.063   3.220 -0.5450  0.1166 -0.9509
  269SOL    HW2 1128   0.013   0.164   3.346  0.0842 -2.6212  1.4905
  270SOL     OW 1129   1.563   1.409   3.211 -0.2871  0.4585  0.5895
  270SOL    HW1 1130   1.652   1.450   3.193  0.4226 -0.6113  1.5138
  270SOL    HW2 1131   1.569   1.310   3.201 -1.9579  0.5028 -1.5901
  271SOL     OW 1132   2.371   1.557   2.411 -0.2442 -0.3362  0.1719
  271SOL    HW1 1133   2.398   1.551   2.507 -0.4264 -1.3489  0.1627
  271SOL    HW2 1134   2.423   1.631   2.367 -0.3639  0.3254  1.1032
  272SOL     OW 1135   5.564   1.036   2.198 -0.3027  0.0167 -0.8329
  272SOL    HW1 1136   5.468   1.015   2.179 -0.2120 -0.4482 -0.7861
  272SOL    HW2 1137   5.573   1.133   2.217 -1.5552 -0.5281  3.7124
  273SOL     OW 1138   5.490   0.665   2.928 -0.3670  0.3700 -0.3601
  273SOL    HW1 1139   5.470   0.570   2.953 -1.9946  0.8034  0.1466
  273SOL    HW2 1140   5.549   0.666   2.847 -0.3462 -1.0626 -0.4027
  274SOL     OW 1141   1.969   0.887   1.895 -0.5624  0.6734 -0.9742
  274SOL    HW1 1142   1.896   0.867   1.830 -0.3346 -3.5850 -0.1523
  274SOL    HW2 1143   2.056   0.850   1.861 -0.0023  0.3291  0.7271
  275SOL     OW 1144   1.152   1.446   2.404 -0.1919  0.4808  0.3583
  275SOL    HW1 1145   1.199   1.491   2.329 -3.7448  0.4555 -2.1672
  275SOL    HW2 1146   1.191   1.354   2.418  1.2996  0.9306 -0.6181
  276SOL     OW 1147   0.951   1.316   4.058  0.2388  0.2549  0.5542
  276SOL    HW1 1148   0.881   1.325   4.129  0.1474  0.0622  0.4886
  276SOL    HW2 1149   0.996   1.404   4.045 -1.8451  1.1238 -1.3213
  277SOL     OW 1150   5.609   0.227   3.513 -0.6240 -0.1394 -0.3496
  277SOL    HW1 1151   5.632   0.312   3.559  1.1175 -1.4412  1.3091
  277SOL    HW2 1152   5.517   0.199   3.540 -0.7879  0.6415 -0.0588
  278SOL     OW 1153   0.712   5.359   2.005  0.7803  0.5434 -0.1675
  278SOL    HW1 1154   0.655   5.372   2.086  0.1682  0.1809 -0.5342
  278SOL    HW2 1155   0.682   5.277   1.955  2.4732 -0.4311  0.3432
  279SOL     OW 1156   0.910   1.116   2.665  0.3137  0.1949  0.2309
  279SOL    HW1 1157   0.905   1.201   2.613 -1.4373 -1.2290 -2.0896
  279SOL    HW2 1158   0.821   1.097   2.707  1.5330  1.0617  3.5857
  280SOL     OW 1159   5.422   0.383   3.228 -0.8441  0.3809 -0.2638
  280SOL    HW1 1160   5.390   0.438   3.305 -0.5662  0.3229 -0.1042
  280SOL    HW2 1161   5.458   0.296   3.263 -1.6169 -0.0630 -0.5390
  281SOL     OW 1162   0.560   2.166   1.815  0.2839  0.5009 -0.0425
  281SOL    HW1 1163   0.562   2.127   1.907 -1.0433 -0.7189 -0.5001
  281SOL    HW2 1164   0.466   2.187   1.789  0.3312 -1.2913 -1.9489
  282SOL     OW 1165   1.612   5.561   3.451  0.6438  0.3206 -0.5546
  282SOL    HW1 1166   1.527   5.517   3.480 -0.2878  1.0382 -2.0425
  282SOL    HW2 1167   1.635   5.529   3.359  1.6249  0.6434 -0.4233
  283SOL     OW 1168   1.189   1.114   3.935  0.3941  0.2891  0.0148
  283SOL    HW1 1169   1.140   1.165   3.863  0.3698  1.3338  0.7466
  283SOL    HW2 1170   1.165   1.151   4.024  1.4667 -0.0971  0.4810
  284SOL     OW 1171   1.721   1.245   3.596  0.4596 -0.1497  0.2135
  284SOL    HW1 1172   1.773   1.294   3.666  0.7574  2.3587 -1.6337
  284SOL    HW2 1173   1.777   1.171   3.559  0.9058 -0.4751  1.4891
  285SOL     OW 1174   0.885   1.933   3.252  0.4624 -0.0984  0.2919
  285SOL    HW1 1175   0.874   1.862   3.182  1.8494 -1.5274  1.4589
  285SOL    HW2 1176   0.816   1.920   3.323  0.0059  0.4403 -0.0413
  286SOL     OW 1177   0.160   2.502   3.714 -0.4652  0.4439  0.0153
  286SOL    HW1 1178   0.244   2.511   3.769  0.9935  1.5447 -2.2216
  286SOL    HW2 1179   0.177   2.440   3.638 -1.1372  1.8802 -1.3629
  287SOL     OW 1180   0.753   2.736   2.941 -0.1244  0.5595  0.6125
  287SOL    HW1 1181   0.718   2.798   2.871  0.0050  3.3879  2.8518
  287SOL    HW2 1182   0.677   2.697   2.993 -0.1620 -0.4239 -0.1423
  288SOL     OW 1183   1.335   4.960   3.059  0.0341  0.5357 -0.0473
  288SOL    HW1 1184   1.347   5.047   3.012  0.9869  0.3462 -0.1699
  288SOL    HW2 1185   1.326   4.887   2.992  0.8700  0.3344  0.0442
  289SOL     OW 1186   1.313   1.789   4.039  0.3473  0.2317 -0.4112
  289SOL    HW1 1187   1.214   1.798   4.046  0.4031  0.8909 -0.4179
  289SOL    HW2 1188   1.344   1.714   4.098 -0.2041 -0.3030 -0.7879
  290SOL     OW 1189   5.478   1.128   1.792  0.1276  0.1802 -0.2227
  290SOL    HW1 1190   5.422   1.058   1.749 -0.7123  1.5144 -1.3691
  290SOL    HW2 1191   5.552   1.084   1.844 -1.5959 -1.5972  0.8691
  291SOL     OW 1192   1.222   1.041   2.744  0.3899 -0.0714  0.9380
  291SOL    HW1 1193   1.168   0.956   2.745 -0.1682  0.2032  3.9703
  291SOL    HW2 1194   1.246   1.064   2.650 -1.1641 -2.4894 -0.1532
  292SOL     OW 1195   0.700   2.058   4.408  0.1561 -0.4603 -0.2355
  292SOL    HW1 1196   0.757   2.037   4.488  0.5749 -2.2413 -0.9519
  292SOL    HW2 1197   0.620   1.998   4.408  0.4407 -0.8584 -1.4293
  293SOL     OW 1198   1.002   1.704   4.466  0.4365  0.1135 -0.3551
  293SOL    HW1 1199   0.908   1.673   4.460  1.0256 -1.4779 -3.2280
  293SOL    HW2 1200   1.045   1.667   4.548 -1.4660  1.1737  1.1955
  294SOL     OW 1201   0.947   5.502   4.611  0.2272  0.7165  0.1876
  294SOL    HW1 1202   0.864   5.463   4.652  0.2054  0.3958 -0.1574
  294SOL    HW2 1203   0.981   5.575   4.669  1.6838 -1.4072  2.1624
  295SOL     OW 1204   1.512   0.899   3.133 -0.1452  0.0195  0.6087
  295SOL    HW1 1205   1.476   0.942   3.050  2.2274 -0.2297 -0.6524
  295SOL    HW2 1206   1.437   0.862   3.187 -1.7938  0.3152 -1.3531
  296SOL     OW 1207   4.940   0.102   3.173 -0.7632 -0.8639 -0.4092
  296SOL    HW1 1208   4.920   0.021   3.118 -0.5124 -1.3201  0.1613
  296SOL    HW2 1209   4.892   0.181   3.135 -2.4362 -1.6198  0.0385
  297SOL     OW 1210   1.409   5.450   3.579 -0.0108 -0.2466  0.1054
  297SOL    HW1 1211   1.314   5.467   3.604  0.0956  0.4430  0.0822
  297SOL    HW2 1212   1.459   5.419   3.660 -0.0074  0.4981  0.3963
  298SOL     OW 1213   4.896   2.642   1.943  0.1944 -0.2680  0.0372
  298SOL    HW1 1214   4.870   2.590   2.024 -0.3833 -0.2245 -0.1155
  298SOL    HW2 1215   4.976   2.600   1.901 -0.5466 -1.3297 -0.3563
  299SOL     OW 1216   5.106   0.475   3.123  0.4130 -0.4823 -0.0650
  299SOL    HW1 1217   5.138   0.542   3.056  0.3931 -2.0322 -1.6924
  299SOL    HW2 1218   5.023   0.431   3.090  0.1316 -0.9698  1.2116
  300SOL     OW 1219   0.806   0.502   3.539 -0.1949  0.4466  0.0756
  300SOL    HW1 1220   0.854   0.590   3.532 -0.9922  0.8405 -0.8661
  300SOL    HW2 1221   0.848   0.436   3.477 -1.6008  1.1823 -1.7642
  301SOL     OW 1222   0.927   5.278   3.637  0.3575  0.5099  0.7057
  301SOL    HW1 1223   0.976   5.227   3.707  3.1742  1.5491 -0.3641
  301SOL    HW2 1224   0.892   5.215   3.568  2.4633 -0.1677  0.1853
  302SOL     OW 1225   5.378   5.597   1.840 -0.1621  0.1168  0.1177
  302SOL    HW1 1226   5.309   5.617   1.910  0.7382  0.1581  1.0154
  302SOL    HW2 1227   5.390   5.498   1.833  1.3621  0.1450  1.6815
  303SOL     OW 1228   0.323   4.639   4.534 -0.4252  0.0721  0.0937
  303SOL    HW1 1229   0.230   4.675   4.532 -0.1071  0.9021 -0.6578
  303SOL    HW2 1230   0.383   4.700   4.483  0.2263 -1.3079 -0.8628
  304SOL     OW 1231   0.897   2.561   1.105 -0.2332 -0.7491  0.2985
  304SOL    HW1 1232   0.905   2.652   1.146  1.2856 -0.7538  0.0667
  304SOL    HW2 1233   0.813   2.517   1.138  0.3045 -0.2799  2.4754
  305SOL     OW 1234   4.632   0.236   3.775  0.1367 -0.1378  0.1171
  305SOL    HW1 1235   4.644   0.215   3.678  0.2649  0.1910  0.0635
  305SOL    HW2 1236   4.567   0.311   3.786 -0.7590 -0.9187  0.3405
  306SOL     OW 1237   1.105   0.403   3.153  0.3015 -0.6262  0.2652
  306SOL    HW1 1238   1.198   0.439   3.149 -0.5730  1.8659  0.9903
  306SOL    HW2 1239   1.056   0.428   3.070 -0.7179  1.1458  1.3483
  307SOL     OW 1240   0.600   0.231   2.735 -0.5791 -0.1479  0.4843
  307SOL    HW1 1241   0.511   0.200   2.702 -0.2568  0.8630 -1.4692
  307SOL    HW2 1242   0.635   0.303   2.675  1.6756 -0.6874  1.0346
  308SOL     OW 1243   0.183   0.123   2.361  0.6412 -0.4926 -0.5535
  308SOL    HW1 1244   0.277   0.139   2.391  0.5822  0.3415 -0.7805
  308SOL    HW2 1245   0.176   0.142   2.263 -0.3325  2.1684 -0.0489
  309SOL     OW 1246   0.934   1.814   0.782 -0.1344  0.6743 -0.1585
  309SOL    HW1 1247   0.991   1.888   0.817  1.1935 -0.4625  0.2092
  309SOL    HW2 1248   0.952   1.801   0.684  1.1106 -0.3688  0.1720
  310SOL     OW 1249   1.276   4.443   3.499  0.1786  0.0463  0.3291
  310SOL    HW1 1250   1.280   4.527   3.553  1.5123 -0.2717  0.7746
  310SOL    HW2 1251   1.261   4.365   3.559  0.0888 -0.1527  0.0519
  311SOL     OW 1252   0.555   1.217   1.877 -0.5002 -0.2378 -0.0163
  311SOL    HW1 1253   0.496   1.160   1.934  0.1328  0.5158  1.4646
  311SOL    HW2 1254   0.648   1.218   1.916  0.0134  0.1433 -1.1909
  312SOL     OW 1255   0.123   1.486   1.913  0.0658  0.1449 -0.0405
  312SOL    HW1 1256   0.180   1.568   1.921 -0.8904  0.6649  2.3388
  312SOL    HW2 1257   0.027   1.514   1.900 -0.0035 -0.6662 -1.4335
  313SOL     OW 1258   1.689   0.728   3.543  0.8458  0.5992  0.0428
  313SOL    HW1 1259   1.751   0.783   3.599  0.2355  1.9503 -0.5633
  313SOL    HW2 1260   1.703   0.750   3.446  0.6127 -0.3530 -0.2180
  314SOL     OW 1261   0.116   2.150   3.019  0.7158 -0.4523  0.1299
  314SOL    HW1 1262   0.187   2.088   2.987  2.3822  1.8479 -0.9086
  314SOL    HW2 1263   0.081   2.203   2.942 -0.1769  0.3592  1.0635
  315SOL     OW 1264   1.890   1.358   2.276 -0.2689 -0.8138  0.0343
  315SOL    HW1 1265   1.915   1.324   2.185  1.4134 -1.7198  0.8037
  315SOL    HW2 1266   1.963   1.338   2.341 -1.2769  0.1540  1.5344
  316SOL     OW 1267   1.351   5.290   2.541 -0.2686  0.0185 -0.2023
  316SOL    HW1 1268   1.344   5.195   2.510  0.2190 -0.5156  1.2520
  316SOL    HW2 1269   1.356   5.292   2.641  0.8673  1.5078 -0.2664
  317SOL     OW 1270   0.073   5.294   3.728 -0.1896 -0.1073 -0.0518
  317SOL    HW1 1271   0.089   5.305   3.826  1.4338 -1.1875 -0.1494
  317SOL    HW2 1272   0.098   5.379   3.681  1.5191 -0.4013  0.2489
  318SOL     OW 1273   1.334   4.278   3.283 -0.2279 -0.4524  0.4068
  318SOL    HW1 1274   1.264   4.298   3.214 -0.9175 -2.2561  0.5239
  318SOL    HW2 1275   1.319   4.336   3.363 -0.4621  0.4578 -0.2827
  319SOL     OW 1276   0.334   1.320   2.647 -0.2975  0.2366 -0.0128
  319SOL    HW1 1277   0.412   1.382   2.655  0.4862 -0.8793  1.7361
  319SOL    HW2 1278   0.250   1.369   2.668  0.1284  1.0279 -0.1095
  320SOL     OW 1279   5.515   5.523   2.837 -0.3991  0.6799 -0.2744
  320SOL    HW1 1280   5.449   5.461   2.793  0.1396 -0.1343  0.0490
  320SOL    HW2 1281   5.467   5.580   2.903 -0.7457 -0.1149  0.1732
  321SOL     OW 1282   1.224   1.452   2.972  0.0844  0.4678 -0.4186
  321SOL    HW1 1283   1.152   1.383   2.962 -0.4915  1.0033 -0.0690
  321SOL    HW2 1284   1.257   1.452   3.067  0.6535  0.1209 -0.6146
  322SOL     OW 1285   2.854   0.179   2.934 -0.2937  0.3085 -0.1084
  322SOL    HW1 1286   2.940   0.184   2.984 -0.2318 -0.6144 -0.1098
  322SOL    HW2 1287   2.869   0.198   2.837  0.0470 -0.6645 -0.2504
  323SOL     OW 1288   1.277   1.839   2.963 -0.0020 -0.2801 -0.2827
  323SOL    HW1 1289   1.264   1.769   2.893  0.0962  0.4284 -1.0269
  323SOL    HW2 1290   1.272   1.797   3.053  0.1170 -1.2526 -0.7158
  324SOL     OW 1291   4.943   1.587   1.763  0.0616  0.2314 -0.4578
  324SOL    HW1 1292   4.992   1.576   1.677  0.4575  0.7970 -0.3084
  324SOL    HW2 1293   5.003   1.564   1.839 -0.5592 -1.1422 -0.3617
  325SOL     OW 1294   2.191   1.597   3.019  0.2673  0.6932 -0.3337
  325SOL    HW1 1295   2.131   1.676   3.011 -1.3990 -0.5490 -0.5785
  325SOL    HW2 1296   2.210   1.579   3.116 -0.8088  0.3690 -0.1684
  326SOL     OW 1297   1.363   5.340   1.855  0.9389  0.1589 -0.1933
  326SOL    HW1 1298   1.287   5.396   1.824  0.2460 -0.5931  0.1062
  326SOL    HW2 1299   1.394   5.281   1.780  0.1111 -0.7358  0.1529
  327SOL     OW 1300   5.129   1.377   2.984  0.5700  0.1381  0.1776
  327SOL    HW1 1301   5.043   1.419   2.955 -0.1031 -1.8278 -0.8334
  327SOL    HW2 1302   5.203   1.408   2.924 -0.2139 -1.3209 -1.6220
  328SOL     OW 1303   2.245   1.529   3.279  0.4097 -0.1420 -0.4294
  328SOL    HW1 1304   2.342   1.527   3.254  0.7284  0.5210  0.6930
  328SOL    HW2 1305   2.235   1.523   3.378 -0.6822  0.1977 -0.4971
  329SOL     OW 1306   1.410   1.476   2.603 -0.1563 -0.2864 -0.2066
  329SOL    HW1 1307   1.447   1.498   2.513  1.2199 -0.4570  0.3006
  329SOL    HW2 1308   1.389   1.378   2.607 -1.4135 -0.0625 -0.7379
  330SOL     OW 1309   1.088   1.583   3.673 -0.0706  0.5207 -0.3602
  330SOL    HW1 1310   1.128   1.502   3.633 -0.8968 -0.5442  0.8608
  330SOL    HW2 1311   1.159   1.638   3.718  0.1809 -0.9602  1.1539
  331SOL     OW 1312   1.390   1.209   4.972  0.6041  0.2147 -0.2538
  331SOL    HW1 1313   1.414   1.126   4.922 -0.0566 -0.7557  0.9853
  331SOL    HW2 1314   1.429   1.288   4.925  1.8248 -0.8342 -1.0893
  332SOL     OW 1315   1.415   0.602   3.648 -0.1035  0.7053  0.4466
  332SOL    HW1 1316   1.502   0.555   3.630  0.8711  1.6634  2.3165
  332SOL    HW2 1317   1.403   0.612   3.747 -1.3163  2.4372  0.1695
  333SOL     OW 1318   0.580   0.074   3.005  0.7424 -0.1553 -0.4761
  333SOL    HW1 1319   0.547   0.167   2.995  0.7668 -0.1781 -0.7746
  333SOL    HW2 1320   0.653   0.071   3.074 -0.4642 -0.2508  0.8377
  334SOL     OW 1321   0.968   0.690   3.458 -0.3399 -0.3995 -0.1049
  334SOL    HW1 1322   0.995   0.744   3.379  0.3935 -0.6236 -0.0155
  334SOL    HW2 1323   1.044   0.630   3.485 -1.3082 -1.8868 -0.5542
  335SOL     OW 1324   0.367   1.539   1.213  0.0943 -0.0221 -0.4094
  335SOL    HW1 1325   0.281   1.560   1.259  0.8725 -1.0402  1.6062
  335SOL    HW2 1326   0.427   1.619   1.216  0.4865 -0.3511  1.2267
  336SOL     OW 1327   0.101   0.458   3.641  0.0433  0.4795  0.3045
  336SOL    HW1 1328   0.111   0.431   3.737  0.5094 -2.3629 -0.4570
  336SOL    HW2 1329   0.183   0.508   3.612  0.2611  0.6377  1.1542
  337SOL     OW 1330   0.862   0.229   2.848 -0.5225  0.1922 -0.3136
  337SOL    HW1 1331   0.778   0.228   2.793 -0.8923 -1.4691  0.2236
  337SOL    HW2 1332   0.847   0.178   2.933  0.9218  0.2403 -0.0021
  338SOL     OW 1333   0.158   1.669   2.238  0.4885  0.5822 -0.2418
  338SOL    HW1 1334   0.235   1.732   2.229  0.2974  0.8944  0.2626
  338SOL    HW2 1335   0.073   1.717   2.217  0.4478  0.1530 -1.1270
  339SOL     OW 1336   4.948   1.553   2.865 -0.2717 -0.4591  0.7122
  339SOL    HW1 1337   4.852   1.527   2.869 -0.3278 -0.1388  3.2245
  339SOL    HW2 1338   4.958   1.650   2.891  0.6692 -0.2637 -0.2845
  340SOL     OW 1339   4.972   5.263   2.400 -0.0664 -0.3924 -0.0332
  340SOL    HW1 1340   4.897   5.228   2.456  1.8224 -3.7564  0.6648
  340SOL    HW2 1341   5.032   5.319   2.456 -0.1925 -0.5847  0.2962
  341SOL     OW 1342   0.456   1.647   1.558 -0.0468 -0.2576  0.3916
  341SOL    HW1 1343   0.498   1.588   1.628 -0.6304 -0.9140  0.2056
  341SOL    HW2 1344   0.357   1.648   1.571 -0.3455 -1.7523 -1.4245
  342SOL     OW 1345   3.394   1.572   4.411 -0.4560 -0.6275 -0.2895
  342SOL    HW1 1346   3.447   1.581   4.496 -1.1251  1.3874 -0.0258
  342SOL    HW2 1347   3.457   1.570   4.333  0.0800  0.5970  0.0886
  343SOL     OW 1348   0.836   0.990   1.939  0.2016 -0.3921 -0.3079
  343SOL    HW1 1349   0.835   0.955   2.033 -1.0237 -1.6152 -0.7418
  343SOL    HW2 1350   0.860   1.087   1.939  2.5424 -0.8798  1.0565
  344SOL     OW 1351   0.052   1.304   2.224 -0.1755 -0.1018  0.1186
  344SOL    HW1 1352  -0.016   1.333   2.156  0.9225 -1.1939 -1.5236
  344SOL    HW2 1353   0.115   1.379   2.243 -0.3525  0.1422 -0.2582
  345SOL     OW 1354   5.439   1.293   3.559 -0.2340  0.5043 -0.9282
  345SOL    HW1 1355   5.488   1.206   3.547 -1.2548 -0.1323 -0.6202
  345SOL    HW2 1356   5.500   1.369   3.537  1.0043 -0.2489 -0.2228
  346SOL     OW 1357   1.169   0.966   3.156  0.4479  0.1485 -0.2095
  346SOL    HW1 1358   1.215   0.891   3.203  1.0867  0.2308 -0.6816
  346SOL    HW2 1359   1.212   0.981   3.067 -0.6965  0.0287 -0.8095
  347SOL     OW 1360   1.172   0.768   2.890  0.3673  0.2085 -0.3713
  347SOL    HW1 1361   1.088   0.789   2.839 -0.4656 -0.0113  0.8431
  347SOL    HW2 1362   1.149   0.708   2.967  1.7885 -0.5126 -0.4813
  348SOL     OW 1363   1.467   4.341   4.403 -0.4126 -0.1273  0.4612
  348SOL    HW1 1364   1.458   4.302   4.312 -0.6247  1.3265 -0.1709
  348SOL    HW2 1365   1.406   4.419   4.412  0.9385  0.8990  1.1909
  349SOL     OW 1366   0.812   0.831   3.629 -0.2484  0.5736 -0.0807
  349SOL    HW1 1367   0.733   0.862   3.577 -0.6183  1.3588  0.9096
  349SOL    HW2 1368   0.882   0.797   3.567 -0.3345  2.2441 -1.1606
  350SOL     OW 1369   1.076   0.335   3.837 -0.0379  0.0700 -0.4164
  350SOL    HW1 1370   1.047   0.418   3.884  1.0033  0.0270  0.3428
  350SOL    HW2 1371   1.104   0.266   3.904  3.4092  0.7146 -0.9700
  351SOL     OW 1372   0.396   0.789   1.832 -0.0302  0.5490  0.0641
  351SOL    HW1 1373   0.347   0.703   1.845 -0.2287  0.8924  1.8885
  351SOL    HW2 1374   0.489   0.780   1.868 -0.1695  1.1790  0.6066
  352SOL     OW 1375   0.558   5.101   3.199  0.2944  0.0585 -0.4832
  352SOL    HW1 1376   0.624   5.028   3.217  1.5392  1.5187  1.2786
  352SOL    HW2 1377   0.607   5.186   3.177 -0.7645  1.7074  2.8296
  353SOL     OW 1378   5.335   0.247   3.539  0.0681 -0.1453  0.0610
  353SOL    HW1 1379   5.309   0.278   3.630  0.2601 -0.2008  0.1349
  353SOL    HW2 1380   5.364   0.325   3.484  0.6349 -0.1962  0.2743
  354SOL     OW 1381   4.336   0.896   3.215  0.1195 -0.8633 -0.2272
  354SOL    HW1 1382   4.264   0.864   3.154  1.0790 -1.2005 -1.2235
  354SOL    HW2 1383   4.324   0.855   3.306 -0.9385 -0.8987 -0.3761
  355SOL     OW 1384   2.927   0.461   3.861 -0.2943  0.4401  0.0427
  355SOL    HW1 1385   2.928   0.459   3.761 -2.2930 -0.1490 -0.0042
  355SOL    HW2 1386   2.983   0.537   3.894  1.2909 -0.0262 -1.4743
  356SOL     OW 1387   0.305   0.509   3.007 -0.2082 -0.4699  0.3304
  356SOL    HW1 1388   0.232   0.532   3.072 -0.8209 -1.8407  0.1802
  356SOL    HW2 1389   0.266   0.455   2.932  0.2848  1.8475 -1.7362
  357SOL     OW 1390   0.969   0.698   1.631  0.0344  0.3925  0.4361
  357SOL    HW1 1391   1.026   0.618   1.612 -0.4903  0.0997  0.0796
  357SOL    HW2 1392   0.948   0.746   1.546 -0.6099  0.2513  0.5145
  358SOL     OW 1393   0.461   5.470   3.673 -0.4331  0.0605  0.2578
  358SOL    HW1 1394   0.439   5.556   3.626  0.3839 -0.2648 -0.7581
  358SOL    HW2 1395   0.403   5.397   3.637  0.1422 -0.1740 -0.2137
  359SOL     OW 1396   1.011   2.182   2.287 -0.2942 -0.2129  0.6343
  359SOL    HW1 1397   1.003   2.156   2.191  2.6914  0.0882  0.2312
  359SOL    HW2 1398   0.996   2.281   2.295 -1.1511 -0.3297  0.6056
  360SOL     OW 1399   0.642   1.498   4.936  0.2231  0.3127 -0.3138
  360SOL    HW1 1400   0.594   1.470   5.019  0.4445 -0.4861 -0.4480
  360SOL    HW2 1401   0.735   1.461   4.938  0.2614  0.3741 -0.8682
  361SOL     OW 1402   1.007   1.184   3.170  0.1080  0.4088 -0.0078
  361SOL    HW1 1403   1.076   1.114   3.184  0.0306  0.6943  2.1371
  361SOL    HW2 1404   1.008   1.214   3.075  0.7816 -1.7992 -0.7411
  362SOL     OW 1405   1.818   0.846   2.849  0.4290  0.1355  0.0157
  362SOL    HW1 1406   1.818   0.802   2.939  1.9225 -0.0395 -0.0430
  362SOL    HW2 1407   1.866   0.933   2.854  0.5024  0.1361 -0.6102
  363SOL     OW 1408   2.154   1.652   2.572 -0.2745  0.4137 -0.4402
  363SOL    HW1 1409   2.195   1.610   2.490  0.5548 -0.5819  0.4437
  363SOL    HW2 1410   2.166   1.751   2.568  2.3454  0.1673 -0.1999
  364SOL     OW 1411   1.574   2.294   2.746  0.4413 -0.6167  0.8116
  364SOL    HW1 1412   1.665   2.328   2.725 -0.5006  2.3978  1.0543
  364SOL    HW2 1413   1.545   2.329   2.835 -1.2478 -0.8475  0.3878
  365SOL     OW 1414   0.536   0.829   2.227 -0.3629 -0.3196  0.0004
  365SOL    HW1 1415   0.490   0.885   2.159  1.0578 -0.0403 -0.7686
  365SOL    HW2 1416   0.597   0.886   2.282 -0.2328 -0.8174  0.3817
  366SOL     OW 1417   5.442   0.387   2.958 -0.8624 -0.3785  0.1220
  366SOL    HW1 1418   5.408   0.401   3.051 -1.1740 -2.1771  0.3185
  366SOL    HW2 1419   5.374   0.338   2.904 -0.8822  1.0611 -1.2267
  367SOL     OW 1420   0.447   0.907   3.592  0.3546  0.3441  0.2205
  367SOL    HW1 1421   0.484   0.878   3.680 -0.0418  1.6955  0.8763
  367SOL    HW2 1422   0.522   0.924   3.528  0.7439  0.7570  0.7728
  368SOL     OW 1423   0.104   4.551   3.117  0.0226 -0.4154  0.1782
  368SOL    HW1 1424   0.010   4.552   3.083 -0.8633  2.1452  2.3340
  368SOL    HW2 1425   0.103   4.553   3.217  2.3465  1.0029  0.2529
  369SOL     OW 1426   4.885   0.710   2.503 -0.3564 -0.0453  0.1859
  369SOL    HW1 1427   4.985   0.707   2.509 -0.3064 -0.2204 -0.6179
  369SOL    HW2 1428   4.849   0.775   2.570  0.1560 -1.4390  1.8944
  370SOL     OW 1429   0.296   1.895   2.297  0.3551  0.3676  0.6072
  370SOL    HW1 1430   0.256   1.955   2.366 -1.6679  1.1912 -1.1484
  370SOL    HW2 1431   0.347   1.949   2.230 -0.1355 -0.0437 -0.1178
  371SOL     OW 1432   4.943   0.321   1.736  0.0969 -0.7512 -0.0201
  371SOL    HW1 1433   5.042   0.336   1.729  0.0256 -0.3203 -0.1414
  371SOL    HW2 1434   4.922   0.287   1.828  0.5794 -2.7735 -0.6080
  372SOL     OW 1435   0.753   1.232   3.652 -0.2453 -0.2136  0.2696
  372SOL    HW1 1436   0.697   1.315   3.656 -1.5529 -1.0355 -0.5348
  372SOL    HW2 1437   0.756   1.190   3.743 -1.3467 -0.4230  0.2170
  373SOL     OW 1438   0.328   0.010   3.892 -0.3132  0.0862  0.1191
  373SOL    HW1 1439   0.384  -0.068   3.866 -1.0121 -0.9705  1.6126
  373SOL    HW2 1440   0.372   0.095   3.862  0.5720 -0.8524 -1.3375
  374SOL     OW 1441   4.594   5.188   1.741  0.3641  0.1649  0.6413
  374SOL    HW1 1442   4.687   5.156   1.724  1.3197  3.1943 -0.5543
  374SOL    HW2 1443   4.596   5.256   1.814 -1.1438 -0.6065  1.4338
  375SOL     OW 1444   1.297   0.765   4.017  0.1332 -0.3343  0.0718
  375SOL    HW1 1445   1.365   0.708   3.972  2.2825  0.5609  1.9383
  375SOL    HW2 1446   1.271   0.724   4.105  0.2570  0.5704  0.5535
  376SOL     OW 1447   5.352   0.087   2.368 -0.3464  0.3407  0.5282
  376SOL    HW1 1448   5.432   0.118   2.420  0.1817 -1.2511  0.7069
  376SOL    HW2 1449   5.351  -0.013   2.363 -1.4950  0.3782 -0.8056
  377SOL     OW 1450   0.546   1.851   2.428  0.0057  0.3400 -0.2940
  377SOL    HW1 1451   0.584   1.758   2.430  0.5376  0.5417 -0.8366
  377SOL    HW2 1452   0.449   1.847   2.404  0.1625 -0.0360 -0.8695
  378SOL     OW 1453   0.138   5.509   3.573  0.0885  0.0083 -0.9422
  378SOL    HW1 1454   0.228   5.544   3.549  1.8103 -2.3710  1.3977
  378SOL    HW2 1455   0.094   5.570   3.639  0.2988  0.7725 -1.4939
  379SOL     OW 1456   0.698   1.762   2.956  0.4522  0.1430  0.2469
  379SOL    HW1 1457   0.625   1.715   2.906 -0.5316  0.0293  1.7304
  379SOL    HW2 1458   0.716   1.850   2.914 -0.2418 -0.0118 -0.3981
  380SOL     OW 1459   4.672   0.483   1.669 -0.7871  0.0009 -0.3916
  380SOL    HW1 1460   4.651   0.431   1.586 -0.3205  1.2076 -1.3120
  380SOL    HW2 1461   4.600   0.469   1.737 -1.1240 -1.1003 -0.9432
  381SOL     OW 1462   5.181   0.671   2.945 -0.1823 -0.4473  0.7791
  381SOL    HW1 1463   5.274   0.646   2.918 -0.5281  0.6749 -1.7477
  381SOL    HW2 1464   5.174   0.770   2.955 -1.5996 -0.2503 -1.5195
  382SOL     OW 1465   1.166   1.342   3.433 -0.2744  0.2919  0.4985
  382SOL    HW1 1466   1.108   1.260   3.438  2.5549 -2.1692 -2.4916
  382SOL    HW2 1467   1.239   1.335   3.500  0.7432 -0.3641 -0.6541
  383SOL     OW 1468   1.834   1.851   3.363  0.0826  0.1379 -0.1996
  383SOL    HW1 1469   1.857   1.930   3.420  2.0736  0.0600 -0.8131
  383SOL    HW2 1470   1.796   1.779   3.420  2.1245  0.0240  1.1116
  384SOL     OW 1471   2.070   1.270   4.111 -0.5467  0.0371  0.2303
  384SOL    HW1 1472   2.081   1.196   4.177  0.0284 -0.5522 -0.5160
  384SOL    HW2 1473   2.158   1.290   4.068 -0.9187  0.3892 -0.3833
  385SOL     OW 1474   1.353   0.989   4.168 -0.4161  0.0800  0.4484
  385SOL    HW1 1475   1.264   1.035   4.173 -0.6310 -0.1825 -0.5870
  385SOL    HW2 1476   1.342   0.902   4.120  0.1114 -0.7410  1.7608
  386SOL     OW 1477   4.133   0.049   2.870  0.1362 -0.0774  0.1280
  386SOL    HW1 1478   4.107  -0.036   2.824  0.1500 -0.4635  0.8160
  386SOL    HW2 1479   4.135   0.033   2.969 -0.7858  0.9707  0.3252
  387SOL     OW 1480   0.369   1.359   3.742 -0.1966  0.0866  0.4711
  387SOL    HW1 1481   0.372   1.293   3.818  0.5208 -1.7318 -1.0539
  387SOL    HW2 1482   0.463   1.383   3.716 -0.3542 -0.7305 -0.9638
  388SOL     OW 1483   2.289   4.465   2.054 -0.0601  0.3898 -0.4814
  388SOL    HW1 1484   2.243   4.527   2.118  1.0044  0.7439 -0.0266
  388SOL    HW2 1485   2.224   4.398   2.019 -0.2673 -1.3689  2.8376
  389SOL     OW 1486   0.295   1.173   3.553 -0.0146  0.2586  0.3392
  389SOL    HW1 1487   0.367   1.105   3.567 -0.1470  0.1305  0.4187
  389SOL    HW2 1488   0.313   1.253   3.611 -0.2301 -0.0101  0.7888
  390SOL     OW 1489   0.426   1.278   3.340 -0.3847  0.0811  0.6871
  390SOL    HW1 1490   0.394   1.286   3.245 -0.0870  0.1475  0.5910
  390SOL    HW2 1491   0.356   1.233   3.395 -1.4839  1.9727  0.9280
  391SOL     OW 1492   1.342   0.915   3.680  0.5035  0.3261  0.0591
  391SOL    HW1 1493   1.403   0.994   3.672  1.6671 -0.7439 -2.7344
  391SOL    HW2 1494   1.389   0.833   3.649 -1.0479 -1.3304  1.8206
  392SOL     OW 1495   0.616   1.533   1.768 -0.1642 -0.2705 -0.0492
  392SOL    HW1 1496   0.592   1.507   1.862 -0.2098 -1.8615 -0.4679
  392SOL    HW2 1497   0.714   1.518   1.754 -0.6330 -3.0386 -1.0856
  393SOL     OW 1498   2.268   1.479   2.793  0.1117 -0.5631  0.0375
  393SOL    HW1 1499   2.246   1.527   2.879 -0.8107 -1.8263  0.5292
  393SOL    HW2 1500   2.222   1.524   2.717  1.3350  0.8744  0.0940
  394SOL     OW 1501   0.940   0.318   3.339 -0.3293  0.0018 -0.2530
  394SOL    HW1 1502   0.971   0.258   3.412 -0.6460  0.1770  0.0259
  394SOL    HW2 1503   1.019   0.347   3.284 -0.1049 -0.2116 -0.0450
  395SOL     OW 1504   0.736   1.074   3.110 -0.2298 -0.0413  0.3647
  395SOL    HW1 1505   0.730   1.158   3.055 -3.1344 -1.5972 -2.0035
  395SOL    HW2 1506   0.707   1.094   3.204 -0.8378  1.6122 -0.1235
  396SOL     OW 1507   1.554   2.503   2.239 -0.1990  0.0064 -0.4106
  396SOL    HW1 1508   1.599   2.414   2.235  0.8763  0.5242 -0.1853
  396SOL    HW2 1509   1.617   2.574   2.207 -0.8835  0.7462 -0.1568
  397SOL     OW 1510   1.523   0.806   2.813 -0.2791  0.5000 -0.5228
  397SOL    HW1 1511   1.613   0.834   2.845 -1.0069  1.6453  0.6060
  397SOL    HW2 1512   1.452   0.847   2.871 -1.5489  0.0817 -1.7116
  398SOL     OW 1513   5.314   0.882   3.037 -0.7362  0.1880  0.5004
  398SOL    HW1 1514   5.386   0.812   3.032 -1.2877 -0.4611  1.2505
  398SOL    HW2 1515   5.289   0.896   3.133  0.4085  2.5277  0.5219
  399SOL     OW 1516   0.836   0.248   2.306 -0.2144  0.5704 -0.1947
  399SOL    HW1 1517   0.904   0.266   2.377  0.1666  0.4361 -0.5230
  399SOL    HW2 1518   0.816   0.332   2.256 -0.4908  0.6674  0.0756
  400SOL     OW 1519   0.266   1.835   2.721 -0.1231 -0.1822  0.5581
  400SOL    HW1 1520   0.249   1.865   2.627  1.2216  0.4909  0.5065
  400SOL    HW2 1521   0.187   1.785   2.755 -1.3495  1.0931 -0.3130
  401SOL     OW 1522   1.448   1.508   2.862 -0.0212  0.0050  0.2857
  401SOL    HW1 1523   1.367   1.493   2.919  0.9558 -0.5160  1.5996
  401SOL    HW2 1524   1.423   1.505   2.766 -1.5188 -0.3787  0.6722
  402SOL     OW 1525   1.275   1.803   2.284  0.0385 -0.1669  0.1091
  402SOL    HW1 1526   1.317   1.781   2.372 -1.7371 -2.6355  0.4449
  402SOL    HW2 1527   1.190   1.853   2.298 -0.5405 -1.0575 -0.1399
  403SOL     OW 1528   0.041   0.572   3.153 -0.0518  0.3224 -0.2896
  403SOL    HW1 1529  -0.036   0.522   3.191 -1.9686  2.9650 -0.4421
  403SOL    HW2 1530   0.010   0.628   3.076  2.1997  0.8608 -0.8879
  404SOL     OW 1531   0.310   1.292   3.079 -0.0980 -0.0765 -0.4287
  404SOL    HW1 1532   0.289   1.238   2.998 -0.3949 -0.9569  0.2159
  404SOL    HW2 1533   0.224   1.321   3.122 -0.0626 -2.0688  1.1533
  405SOL     OW 1534   0.536   0.869   3.843  0.6307  0.6271 -0.4142
  405SOL    HW1 1535   0.496   0.902   3.928 -1.0832 -1.4699 -0.3119
  405SOL    HW2 1536   0.588   0.786   3.861 -1.2890 -0.9284 -1.5536
  406SOL     OW 1537   4.606   1.145   1.952 -0.7919  0.2455  1.0638
  406SOL    HW1 1538   4.553   1.078   2.005 -0.1587 -0.4827  0.7874
  406SOL    HW2 1539   4.626   1.224   2.010 -3.9098  1.5107  0.6218
  407SOL     OW 1540   0.794   0.237   4.515 -0.0750 -0.2315 -0.7758
  407SOL    HW1 1541   0.832   0.329   4.510  0.3613 -0.4903 -2.9506
  407SOL    HW2 1542   0.759   0.221   4.607  4.4654  0.2670  1.3390
  408SOL     OW 1543   0.378   4.495   3.631 -0.4619 -0.3019 -0.1129
  408SOL    HW1 1544   0.432   4.535   3.557 -1.7803  2.3787  0.2811
  408SOL    HW2 1545   0.310   4.432   3.592 -0.0019 -0.2671 -1.0046
  409SOL     OW 1546   1.720   0.220   2.076 -0.0341  0.0121  0.3803
  409SOL    HW1 1547   1.632   0.185   2.043  0.5465  0.1912 -1.4563
  409SOL    HW2 1548   1.768   0.147   2.125 -0.4642 -0.6288 -0.1274
  410SOL     OW 1549   1.711   2.359   3.485 -0.0381  0.0700  0.2883
  410SOL    HW1 1550   1.612   2.356   3.479 -0.1633 -2.7506  2.0374
  410SOL    HW2 1551   1.739   2.357   3.581  1.7505  1.2770 -0.1433
  411SOL     OW 1552   0.606   1.104   2.708 -0.4866  0.1526  0.3322
  411SOL    HW1 1553   0.575   1.095   2.613  0.1793 -0.9363  0.2058
  411SOL    HW2 1554   0.558   1.037   2.764 -1.1203  1.0128  0.8466
  412SOL     OW 1555   1.163   2.547   3.035  0.4847  0.6460 -0.0328
  412SOL    HW1 1556   1.169   2.595   3.122 -0.5278  1.3050 -0.2971
  412SOL    HW2 1557   1.232   2.584   2.972 -0.8663  2.4889 -0.5328
  413SOL     OW 1558   5.538   1.040   2.629 -0.0682  0.1800 -0.4450
  413SOL    HW1 1559   5.574   1.097   2.702 -0.3369  0.1680 -0.3054
  413SOL    HW2 1560   5.615   0.998   2.580  0.1286  0.6495 -0.5449
  414SOL     OW 1561   0.659   1.592   3.990 -0.4542 -0.5162 -0.2291
  414SOL    HW1 1562   0.628   1.498   3.974 -2.0385 -0.5269  2.3459
  414SOL    HW2 1563   0.608   1.631   4.067  1.8766  1.6214  0.3455
  415SOL     OW 1564   0.348   0.103   3.542 -0.7917  0.1119 -0.4091
  415SOL    HW1 1565   0.276   0.168   3.518  0.5017  1.8685  0.2496
  415SOL    HW2 1566   0.398   0.137   3.621 -0.1358 -1.7891  0.0457
  416SOL     OW 1567   1.902   1.461   4.224  0.5586  0.5130 -0.0220
  416SOL    HW1 1568   1.942   1.384   4.174 -2.3875  0.4274 -2.5597
  416SOL    HW2 1569   1.940   1.546   4.188  1.0231  0.3528  0.0817
  417SOL     OW 1570   0.167   1.648   1.649  0.6212  0.0289  0.4623
  417SOL    HW1 1571   0.083   1.685   1.609 -0.4161 -2.0046  0.5976
  417SOL    HW2 1572   0.181   1.685   1.740 -1.2916 -1.0986  1.2690
  418SOL     OW 1573   0.589   0.609   2.977 -0.0318 -0.2746 -0.2159
  418SOL    HW1 1574   0.633   0.528   3.015 -0.6170  0.6525  2.6362
  418SOL    HW2 1575   0.492   0.608   3.000 -0.1643  0.9604 -0.6510
  419SOL     OW 1576   1.531   0.538   2.942 -0.2000  0.8026  0.4550
  419SOL    HW1 1577   1.510   0.464   2.878 -1.0835 -0.3212  1.9823
  419SOL    HW2 1578   1.534   0.625   2.893  3.7149 -0.4171 -1.9936
  420SOL     OW 1579   1.581   1.147   3.252 -0.5600  0.4073  0.5952
  420SOL    HW1 1580   1.567   1.062   3.202  0.2324 -0.6863  2.1659
  420SOL    HW2 1581   1.591   1.128   3.350  2.5545  1.9515  0.7058
  421SOL     OW 1582   1.095   1.129   4.210  0.3375 -0.2433 -0.6989
  421SOL    HW1 1583   1.105   1.155   4.306  0.1315 -1.8078 -0.2406
  421SOL    HW2 1584   1.019   1.180   4.170  0.3323  0.3166 -0.0124
  422SOL     OW 1585   2.524   1.487   3.275 -0.0039  0.1173 -0.3790
  422SOL    HW1 1586   2.597   1.525   3.218  1.1540 -0.6681  0.5119
  422SOL    HW2 1587   2.542   1.509   3.371 -1.4600  0.6954 -0.2227
  423SOL     OW 1588   0.677   0.674   1.695 -0.3347 -0.2770 -0.4754
  423SOL    HW1 1589   0.604   0.635   1.640 -0.1028  1.3416 -2.0303
  423SOL    HW2 1590   0.766   0.647   1.658 -0.0916 -2.0332  1.2555
  424SOL     OW 1591   4.918   0.760   2.997  0.0137 -0.1860 -0.7665
  424SOL    HW1 1592   5.001   0.711   2.968 -0.1677 -1.1383  0.2437
  424SOL    HW2 1593   4.850   0.757   2.924 -0.0041 -1.5187 -0.7345
  425SOL     OW 1594   0.582   0.572   3.429 -0.0778 -0.0276  0.2851
  425SOL    HW1 1595   0.624   0.636   3.365  0.1870 -0.2764  0.2100
  425SOL    HW2 1596   0.653   0.522   3.479 -0.2800 -0.4773  0.1283
  426SOL     OW 1597   3.229   2.003   1.689  0.2759  0.1276 -0.5336
  426SOL    HW1 1598   3.294   2.000   1.612 -0.2178  1.0226 -1.0076
  426SOL    HW2 1599   3.280   1.999   1.775  1.0464  1.4743 -0.8860
  427SOL     OW 1600   2.905   1.691   3.058  0.3553  0.0577 -0.0994
  427SOL    HW1 1601   2.913   1.703   3.157  0.8639  1.9969 -0.3432
  427SOL    HW2 1602   2.953   1.765   3.011 -1.1192 -0.0024 -1.7960
  428SOL     OW 1603   5.368   1.479   2.790 -0.2250  0.1993  0.1987
  428SOL    HW1 1604   5.337   1.403   2.733 -2.6138  0.9686  0.3586
  428SOL    HW2 1605   5.325   1.564   2.759 -0.2958  0.9037  2.0764
  429SOL     OW 1606   4.314   5.408   3.959 -0.1369  0.1419 -0.2793
  429SOL    HW1 1607   4.315   5.474   3.884 -1.7319 -0.6611 -1.0675
  429SOL    HW2 1608   4.328   5.316   3.922 -1.7190 -0.3496  0.2691
  430SOL     OW 1609   0.605   2.496   3.866 -0.0366  0.6671 -0.1486
  430SOL    HW1 1610   0.666   2.417   3.874 -1.9227 -0.8450  0.1801
  430SOL    HW2 1611   0.585   2.532   3.957 -0.7952  0.1810 -0.1107
  431SOL     OW 1612   1.578   0.228   3.060  0.0433 -0.1823 -0.2407
  431SOL    HW1 1613   1.584   0.328   3.057  1.5260 -0.2785 -1.1523
  431SOL    HW2 1614   1.482   0.200   3.051 -0.5866  1.1801  1.6169
  432SOL     OW 1615   0.439   0.218   2.403 -0.1616  0.0247 -0.4678
  432SOL    HW1 1616   0.484   0.190   2.319  0.1599 -0.0698 -0.2659
  432SOL    HW2 1617   0.455   0.315   2.419 -0.6738  0.1653 -0.7934
  433SOL     OW 1618   1.722   1.633   2.892  0.0184  0.5321 -0.0309
  433SOL    HW1 1619   1.630   1.600   2.870 -0.0930  1.4901 -1.1040
  433SOL    HW2 1620   1.752   1.593   2.978 -1.5091  0.4107  0.4775
  434SOL     OW 1621   5.353   5.375   3.662  0.5787  0.2781  0.1047
  434SOL    HW1 1622   5.400   5.396   3.748 -0.9540  0.6599  0.8818
  434SOL    HW2 1623   5.324   5.460   3.619 -1.6845  0.0238  0.9876
  435SOL     OW 1624   5.499   1.818   2.247  0.1682  0.2973 -0.1595
  435SOL    HW1 1625   5.506   1.867   2.334  0.7115 -0.5185  0.2716
  435SOL    HW2 1626   5.403   1.797   2.228  0.1946 -1.4811  1.3933
  436SOL     OW 1627   1.021   0.208   3.579 -0.1403 -0.1518  0.2031
  436SOL    HW1 1628   1.036   0.264   3.660 -2.4141  2.1009 -0.8108
  436SOL    HW2 1629   0.958   0.133   3.601 -0.4957  0.2644  0.6199
  437SOL     OW 1630   0.338   0.428   4.260 -0.5595 -0.0095  0.1000
  437SOL    HW1 1631   0.427   0.470   4.244  0.4192 -1.6773  0.9653
  437SOL    HW2 1632   0.307   0.450   4.353  0.5197 -2.0544  1.0100
  438SOL     OW 1633   2.725   1.323   1.352  0.0070  0.1609 -0.1251
  438SOL    HW1 1634   2.810   1.300   1.398 -0.6448 -0.0981  0.9862
  438SOL    HW2 1635   2.686   1.405   1.393 -0.9144 -0.4436  0.2396
  439SOL     OW 1636   1.269   1.994   2.724 -0.2758 -0.3047 -0.2273
  439SOL    HW1 1637   1.366   1.988   2.700  0.0734  0.6268  0.8398
  439SOL    HW2 1638   1.246   1.921   2.788 -0.7310 -1.5812 -1.7719
  440SOL     OW 1639   0.675   1.165   3.392  0.1158 -0.0348 -0.2488
  440SOL    HW1 1640   0.722   1.193   3.476 -0.2942 -1.6568  0.5675
  440SOL    HW2 1641   0.592   1.219   3.380  0.2820  0.3452  0.2913
  441SOL     OW 1642   1.041   0.626   2.662 -0.1819 -0.2267  0.3612
  441SOL    HW1 1643   0.979   0.705   2.670 -0.3672 -0.2872 -0.3942
  441SOL    HW2 1644   1.027   0.565   2.739 -1.2315 -0.3495  0.0857
  442SOL     OW 1645   0.467   0.563   2.169  0.0451 -0.3572  0.1248
  442SOL    HW1 1646   0.506   0.550   2.078  1.0884 -0.5646  0.5877
  442SOL    HW2 1647   0.486   0.657   2.200 -0.3824 -0.2598  0.0999
  443SOL     OW 1648   4.707   1.084   2.949 -0.1271 -0.0764 -0.3009
  443SOL    HW1 1649   4.695   1.026   3.030 -0.1018 -0.4542 -0.5632
  443SOL    HW2 1650   4.635   1.063   2.883  0.2922 -0.3031 -0.6873
  444SOL     OW 1651   0.704   2.084   2.423  0.2762  0.2150 -0.5645
  444SOL    HW1 1652   0.620   2.030   2.415 -0.4351  1.0582  0.8851
  444SOL    HW2 1653   0.782   2.028   2.397 -0.6156 -0.9412 -0.8294
  445SOL     OW 1654   4.944   5.351   4.618 -0.3079  0.2786  0.0861
  445SOL    HW1 1655   4.853   5.388   4.638 -0.1447  0.4002  0.6397
  445SOL    HW2 1656   4.941   5.251   4.622 -0.1355  0.3006  1.4823
  446SOL     OW 1657   4.545   4.744   5.354  0.0835 -0.0670 -0.2111
  446SOL    HW1 1658   4.483   4.718   5.428 -0.6128 -0.8490 -1.0390
  446SOL    HW2 1659   4.497   4.738   5.266  1.2932 -0.5900 -0.8703
  447SOL     OW 1660   0.195   4.248   5.397 -0.3286 -0.5938  0.0184
  447SOL    HW1 1661   0.217   4.168   5.453  0.7360  0.2956  0.9170
  447SOL    HW2 1662   0.270   4.314   5.402 -2.0254  1.3873  0.9771
  448SOL     OW 1663   1.062   5.593   5.015 -0.5496 -0.2077 -0.7469
  448SOL    HW1 1664   1.041   5.503   5.056 -2.4792  1.0627  1.2999
  448SOL    HW2 1665   1.143   5.630   5.059 -0.2765 -0.5717 -0.9407
  449SOL     OW 1666   1.349   1.464   0.079  0.0072 -0.2681 -0.3836
  449SOL    HW1 1667   1.335   1.382   0.022 -0.0139 -0.0534 -0.6918
  449SOL    HW2 1668   1.289   1.459   0.159  1.0584 -1.2550  0.3809
  450SOL     OW 1669   1.924   2.115   5.470  0.3545  0.1408 -0.4764
  450SOL    HW1 1670   1.840   2.158   5.438  0.4384  0.6580 -0.0191
  450SOL    HW2 1671   1.968   2.174   5.538  1.5067  0.2677 -1.2836
  451SOL     OW 1672   1.670   0.450   3.573  0.5252  0.1227 -0.0359
  451SOL    HW1 1673   1.692   0.414   3.664  0.4225  0.8741  0.2917
  451SOL    HW2 1674   1.692   0.548   3.569  0.5483  0.0937 -0.8275
  452SOL     OW 1675   0.652   0.280   4.764  0.0622  0.5659 -0.3669
  452SOL    HW1 1676   0.559   0.312   4.748 -0.8125 -1.6502 -0.0177
  452SOL    HW2 1677   0.705   0.352   4.810 -2.2078  1.0248  1.7154
  453SOL     OW 1678   1.045   1.231   1.007 -0.4522  0.4108 -0.4360
  453SOL    HW1 1679   0.988   1.211   1.087 -3.1165  0.1152 -2.2553
  453SOL    HW2 1680   0.997   1.297   0.949  1.8647  1.3775 -1.3578
  454SOL     OW 1681   0.716   1.717   5.238  0.2908  0.8332 -0.1249
  454SOL    HW1 1682   0.745   1.729   5.333 -1.8093  0.7639  0.5893
  454SOL    HW2 1683   0.677   1.803   5.205 -2.2016 -0.0400  0.3311
  455SOL     OW 1684   1.569   0.314   4.568 -0.1335 -0.1017  0.0767
  455SOL    HW1 1685   1.536   0.399   4.608 -0.2685  0.3544 -0.9976
  455SOL    HW2 1686   1.505   0.282   4.498  1.5835  0.7665 -1.9970
  456SOL     OW 1687   0.686   0.182   4.275 -0.6396 -0.4784  0.7286
  456SOL    HW1 1688   0.598   0.136   4.285 -1.2805  0.8223  1.4399
  456SOL    HW2 1689   0.728   0.193   4.365  0.3857 -1.2955  0.3722
  457SOL     OW 1690   1.170   2.063   5.529 -0.2048 -0.3045  0.1234
  457SOL    HW1 1691   1.132   1.980   5.570  1.2221 -1.7660 -1.3507
  457SOL    HW2 1692   1.118   2.087   5.447  0.0685 -0.3882 -0.0738
  458SOL     OW 1693   0.661  -0.002   0.225 -0.1738  0.4114  0.3616
  458SOL    HW1 1694   0.757  -0.019   0.248  0.2137 -0.0470 -1.4581
  458SOL    HW2 1695   0.656   0.043   0.137 -1.6342  0.9821  0.7191
  459SOL     OW 1696   1.151   5.469   3.589  0.3062  0.1231 -0.1082
  459SOL    HW1 1697   1.071   5.414   3.614  0.5424  0.2196  0.8877
  459SOL    HW2 1698   1.125   5.565   3.583  0.0215 -0.0177 -1.2768
  460SOL     OW 1699   0.613   1.941   5.170  0.0897 -0.1433 -0.0053
  460SOL    HW1 1700   0.524   1.947   5.216  0.6415  1.9194  0.9548
  460SOL    HW2 1701   0.621   2.014   5.102  1.1540 -0.0697  0.1680
  461SOL     OW 1702   0.662   0.952   0.618 -0.2500  0.2115  0.4246
  461SOL    HW1 1703   0.637   1.048   0.630 -0.5738  0.1781  0.0621
  461SOL    HW2 1704   0.595   0.908   0.558 -0.4572 -0.3952  1.0884
  462SOL     OW 1705   0.045   1.728   2.833 -0.0346 -0.0181  0.1545
  462SOL    HW1 1706  -0.014   1.678   2.897 -0.3529 -1.1081 -0.9531
  462SOL    HW2 1707  -0.004   1.741   2.747  0.6399  0.8280 -0.1099
  463SOL     OW 1708   5.346   5.191   4.377  0.2158 -0.6172 -0.3869
  463SOL    HW1 1709   5.382   5.272   4.423  1.2379 -1.5573  0.5379
  463SOL    HW2 1710   5.286   5.141   4.439 -1.8540  0.2935 -1.5228
  464SOL     OW 1711   1.931   0.885   0.131  0.3934  0.4316 -0.3297
  464SOL    HW1 1712   2.020   0.841   0.119  0.6385  1.2633 -1.8827
  464SOL    HW2 1713   1.943   0.984   0.136 -0.5157  0.6708 -2.0392
  465SOL     OW 1714   1.353   0.341   3.813  0.8383  0.7054 -0.1079
  465SOL    HW1 1715   1.364   0.272   3.742  3.4903  0.8493  0.0855
  465SOL    HW2 1716   1.255   0.354   3.831  0.1977 -2.1327 -0.9542
  466SOL     OW 1717  -0.007   3.993   3.942 -0.6455  0.3196  0.1267
  466SOL    HW1 1718   0.015   3.972   3.847 -1.6353  1.7847 -0.4592
  466SOL    HW2 1719   0.035   4.081   3.967  1.1793 -0.8773  1.6686
  467SOL     OW 1720   4.994   5.129   4.142  0.3838 -0.1167  0.3634
  467SOL    HW1 1721   5.086   5.094   4.123  0.6102  0.7635 -0.2384
  467SOL    HW2 1722   4.932   5.052   4.161  1.0000 -0.7954 -0.2965
  468SOL     OW 1723   0.695   1.765   4.683 -0.1672 -0.3058  0.8175
  468SOL    HW1 1724   0.607   1.747   4.727 -1.3258  0.5235 -1.0354
  468SOL    HW2 1725   0.712   1.864   4.682 -0.1231 -0.3110 -0.4353
  469SOL     OW 1726   5.512   0.899   3.634  0.3359  0.0603 -0.2431
  469SOL    HW1 1727   5.571   0.972   3.599  0.8522 -0.9367 -1.5079
  469SOL    HW2 1728   5.425   0.939   3.664  0.2859  1.0985 -1.6818
  470SOL     OW 1729   1.741   0.134   4.011 -0.1025 -0.3060  0.2706
  470SOL    HW1 1730   1.740   0.103   3.915  1.0620 -1.8780  0.7035
  470SOL    HW2 1731   1.832   0.171   4.032 -0.9509  1.8595  0.2683
  471SOL     OW 1732   1.026   0.540   4.022  0.4520  0.3396  0.0250
  471SOL    HW1 1733   0.928   0.558   4.030  0.7266  2.1226 -0.2296
  471SOL    HW2 1734   1.064   0.524   4.113 -0.1541 -0.9101  0.0757
  472SOL     OW 1735   0.368   0.409   0.351  0.1113 -0.0093  0.1552
  472SOL    HW1 1736   0.459   0.427   0.315  0.4079  0.4832  1.1150
  472SOL    HW2 1737   0.374   0.387   0.448 -0.7306 -0.6766  0.0697
  473SOL     OW 1738   1.203   1.553   5.340  0.4136  0.7273  0.5852
  473SOL    HW1 1739   1.170   1.460   5.352  1.3609  0.3575  0.4459
  473SOL    HW2 1740   1.293   1.562   5.382  0.5029  1.4688  0.2544
  474SOL     OW 1741   0.873   2.153   0.704  0.2018 -0.1750 -0.2606
  474SOL    HW1 1742   0.950   2.092   0.685  1.2169  1.5850 -2.2156
  474SOL    HW2 1743   0.813   2.157   0.624 -1.2582 -0.5185  0.7747
  475SOL     OW 1744   2.390   0.689   4.414 -0.2931 -0.2918 -0.1687
  475SOL    HW1 1745   2.463   0.621   4.412  1.5747  1.5875  0.0139
  475SOL    HW2 1746   2.402   0.754   4.338 -0.1725  1.5785  1.3660
  476SOL     OW 1747   0.455   5.572   4.316  0.3044  0.2135  0.2489
  476SOL    HW1 1748   0.442   5.526   4.403  1.2060 -0.1316  0.2206
  476SOL    HW2 1749   0.367   5.583   4.270 -0.4521  2.0375  1.9862
  477SOL     OW 1750   1.901   0.423   2.904 -0.0824  0.4793 -0.7963
  477SOL    HW1 1751   1.885   0.356   2.976 -0.0903  2.4954  1.2205
  477SOL    HW2 1752   1.990   0.407   2.861 -0.7540 -1.6994 -1.5001
  478SOL     OW 1753   0.950   3.798   5.006 -0.0541 -0.7103  0.0581
  478SOL    HW1 1754   0.973   3.817   5.102 -0.0479 -1.5336  0.2295
  478SOL    HW2 1755   1.016   3.732   4.969 -0.5701 -1.0584 -0.2485
  479SOL     OW 1756   0.645   5.086   5.226  0.3713 -0.6576 -0.1530
  479SOL    HW1 1757   0.680   5.051   5.312  0.4278  0.1145  0.1519
  479SOL    HW2 1758   0.552   5.119   5.239  0.2082 -0.9753 -0.5045
  480SOL     OW 1759   1.772   0.411   4.260 -0.1861  0.7325  0.6814
  480SOL    HW1 1760   1.729   0.322   4.270 -1.5769  1.2805 -0.1750
  480SOL    HW2 1761   1.703   0.483   4.266  0.7447  1.6950  0.2188
  481SOL     OW 1762   3.015   1.060   3.375 -0.0567 -0.9376 -0.0455
  481SOL    HW1 1763   3.003   1.130   3.305 -1.2531 -0.7649  0.3101
  481SOL    HW2 1764   2.950   1.076   3.449  1.2651 -1.0282  1.1895
  482SOL     OW 1765   0.566   1.625   4.243 -0.3956 -0.0212  0.1770
  482SOL    HW1 1766   0.511   1.546   4.271  1.3618 -1.1097  0.7356
  482SOL    HW2 1767   0.649   1.630   4.300  0.6527  0.8775 -1.3459
  483SOL     OW 1768   1.593   0.798   5.308  0.0926  0.3230  0.2053
  483SOL    HW1 1769   1.501   0.766   5.331  0.0157  0.1173 -0.3751
  483SOL    HW2 1770   1.589   0.849   5.222  0.7726 -1.0503 -0.6693
  484SOL     OW 1771   1.908   1.498   5.041 -0.6247 -0.2802  0.0531
  484SOL    HW1 1772   1.979   1.519   5.108 -0.5840 -1.6842  0.4702
  484SOL    HW2 1773   1.950   1.454   4.961 -0.9148 -0.3311 -0.0710
  485SOL     OW 1774   1.815   0.485   0.026  0.7068 -0.3225  0.0551
  485SOL    HW1 1775   1.772   0.570  -0.008  1.3304 -0.1179 -0.2340
  485SOL    HW2 1776   1.834   0.494   0.123 -0.0307 -0.4706  0.2226
  486SOL     OW 1777   1.636   0.176   5.514  0.3125  0.5447 -0.4641
  486SOL    HW1 1778   1.609   0.270   5.496 -1.3399 -0.0498 -1.2427
  486SOL    HW2 1779   1.697   0.144   5.442 -1.5149  0.0999 -1.8804
  487SOL     OW 1780   1.096   0.377   5.092 -0.6255  0.2721 -0.4623
  487SOL    HW1 1781   1.040   0.335   5.163 -0.4571  1.9657  0.7083
  487SOL    HW2 1782   1.157   0.445   5.132  1.8514 -1.0229 -1.7782
  488SOL     OW 1783   1.813   0.164   4.529  0.3957  0.4377 -0.2300
  488SOL    HW1 1784   1.775   0.080   4.568  2.8751 -0.0290  1.4484
  488SOL    HW2 1785   1.751   0.241   4.549 -0.2593 -0.4416  1.3374
  489SOL     OW 1786   1.051   4.594   4.307 -0.1261  0.3301 -0.2294
  489SOL    HW1 1787   0.973   4.536   4.328  0.0445  0.3719  0.5491
  489SOL    HW2 1788   1.036   4.685   4.345 -1.0944  1.3241 -2.7535
  490SOL     OW 1789   4.658   0.670   4.573 -0.1769  0.0694  0.4006
  490SOL    HW1 1790   4.589   0.613   4.528  2.2559 -2.2669 -0.5953
  490SOL    HW2 1791   4.675   0.636   4.665 -0.7489  1.0345  0.8803
  491SOL     OW 1792   1.171   0.843   5.368  0.2156 -0.3642 -0.0532
  491SOL    HW1 1793   1.197   0.836   5.464 -0.8583 -0.6974  0.2331
  491SOL    HW2 1794   1.071   0.839   5.360  0.1996  1.0803 -1.0609
  492SOL     OW 1795   1.935   1.710   3.603  0.5418  0.7515  0.1893
  492SOL    HW1 1796   1.889   1.777   3.661  0.9455  1.1061  0.1068
  492SOL    HW2 1797   2.005   1.662   3.656 -0.0504  0.0693  0.3696
  493SOL     OW 1798   1.284   2.243   0.289 -0.0438 -0.4305  0.1361
  493SOL    HW1 1799   1.320   2.304   0.360  0.0532 -0.7808  0.3910
  493SOL    HW2 1800   1.319   2.150   0.305 -0.3921 -0.6019 -0.1046
  494SOL     OW 1801   1.556   0.358   3.997  0.7063 -0.1993 -0.0845
  494SOL    HW1 1802   1.578   0.271   4.041  1.4866  0.4626  0.9106
  494SOL    HW2 1803   1.480   0.346   3.933 -1.2053 -1.0407  2.1968
  495SOL     OW 1804   0.960   4.761   4.834 -0.0036  0.4461 -0.6047
  495SOL    HW1 1805   0.996   4.687   4.777  0.5138 -0.7678  1.2067
  495SOL    HW2 1806   1.034   4.800   4.890 -0.8607  0.1157  0.8113
  496SOL     OW 1807   1.418   1.654   4.274  0.7281 -0.7089 -0.6448
  496SOL    HW1 1808   1.479   1.582   4.242  1.2900 -0.4060 -0.2854
  496SOL    HW2 1809   1.467   1.712   4.339 -0.2997 -1.1554  0.5659
  497SOL     OW 1810   0.551   0.796   5.130 -0.0612 -0.6062  0.4465
  497SOL    HW1 1811   0.478   0.765   5.191 -0.7962 -3.0356 -1.5244
  497SOL    HW2 1812   0.549   0.896   5.124 -0.7358 -0.3511  3.3415
  498SOL     OW 1813   0.392   5.503   4.920  0.2895  0.0901 -0.1457
  498SOL    HW1 1814   0.369   5.408   4.898  2.2110  0.1726 -2.9862
  498SOL    HW2 1815   0.344   5.564   4.858  2.5941  0.6325 -1.4900
  499SOL     OW 1816   0.171   1.419   5.342  0.0403  0.3329  0.3926
  499SOL    HW1 1817   0.104   1.347   5.362  0.2583  0.3219  1.0939
  499SOL    HW2 1818   0.251   1.378   5.298 -0.2658  0.2985 -0.1451
  500SOL     OW 1819   1.010   4.723   3.054  0.0062 -0.0706 -0.0424
  500SOL    HW1 1820   0.937   4.789   3.068  0.2626 -0.1744  2.1005
  500SOL    HW2 1821   1.051   4.700   3.142  1.5928 -1.1901 -1.0332
  501SOL     OW 1822   1.167   5.056   3.268  0.2380  0.1517 -0.4649
  501SOL    HW1 1823   1.182   4.996   3.347  1.3950  0.4113 -0.4628
  501SOL    HW2 1824   1.233   5.033   3.196 -0.2047  0.5304 -0.9966
  502SOL     OW 1825   0.327   1.141   0.490  0.3194 -0.2627  0.3556
  502SOL    HW1 1826   0.244   1.114   0.539 -1.1017  4.5381  1.1502
  502SOL    HW2 1827   0.397   1.169   0.555  1.1155 -0.6270 -0.3292
  503SOL     OW 1828   0.929   1.623   4.106  0.0640 -0.3444  0.2826
  503SOL    HW1 1829   0.954   1.713   4.143  0.8553 -0.6419  0.4865
  503SOL    HW2 1830   0.848   1.633   4.048 -0.3689  0.3523  0.9819
  504SOL     OW 1831   0.313   0.594   1.065 -0.5587 -0.6679 -0.3553
  504SOL    HW1 1832   0.343   0.653   0.990  1.3521 -0.4125  0.5497
  504SOL    HW2 1833   0.386   0.586   1.132 -3.0127  1.2854  2.8784
  505SOL     OW 1834   1.755   1.760   3.966 -0.2060  0.2200  0.3922
  505SOL    HW1 1835   1.702   1.681   3.934 -0.9897  1.3473 -1.3069
  505SOL    HW2 1836   1.778   1.817   3.887  1.1281  1.2258  1.4732
  506SOL     OW 1837   0.200   1.936   4.517 -0.6353 -0.2835  0.6286
  506SOL    HW1 1838   0.229   1.841   4.529 -0.5580 -0.4908 -0.9821
  506SOL    HW2 1839   0.102   1.944   4.539 -0.9172 -0.9924 -0.3068
  507SOL     OW 1840   1.813   0.900   4.351  0.2263 -0.4360  0.2680
  507SOL    HW1 1841   1.840   0.864   4.262 -0.3320 -0.3815  0.0730
  507SOL    HW2 1842   1.862   0.852   4.423  1.4670  0.2180 -0.1105
  508SOL     OW 1843   4.628   2.721   0.377  0.5114  0.3563  0.4539
  508SOL    HW1 1844   4.727   2.730   0.368  1.0209 -1.8520  2.7849
  508SOL    HW2 1845   4.599   2.635   0.336  0.1639 -0.7539  2.8829
  509SOL     OW 1846   1.462   0.360   4.900  0.0598 -0.5161  0.4862
  509SOL    HW1 1847   1.379   0.306   4.919 -0.1180 -1.3696 -2.3215
  509SOL    HW2 1848   1.539   0.298   4.884  0.7425  0.2125  0.9129
  510SOL     OW 1849   0.636   5.348   3.821 -0.5032  0.0483 -0.2236
  510SOL    HW1 1850   0.564   5.398   3.772  1.1015  1.5050 -1.2152
  510SOL    HW2 1851   0.666   5.270   3.766 -0.4623  0.1758 -0.3820
  511SOL     OW 1852   1.986   0.109   0.029  0.0176 -0.1697  0.1870
  511SOL    HW1 1853   1.984   0.172  -0.049 -1.3698 -0.4356 -0.0342
  511SOL    HW2 1854   1.998   0.161   0.114  1.2945  0.1434 -0.1650
  512SOL     OW 1855   0.539   4.856   5.128  0.4970 -0.2324 -0.2964
  512SOL    HW1 1856   0.577   4.948   5.134 -0.3126  0.2821 -2.2611
  512SOL    HW2 1857   0.588   4.804   5.058  1.5084 -1.6270  1.3822
  513SOL     OW 1858   0.544   0.020   0.773 -0.0980  0.0047  0.3724
  513SOL    HW1 1859   0.506   0.112   0.779 -0.5881 -0.2328  1.0415
  513SOL    HW2 1860   0.641   0.021   0.798 -0.4303  0.1384  1.7305
  514SOL     OW 1861   5.085   1.802   5.272 -0.1198 -0.3145  0.1945
  514SOL    HW1 1862   5.148   1.811   5.195  2.5886  0.3167  2.3044
  514SOL    HW2 1863   5.040   1.889   5.289  0.6597  0.0649  0.3747
  515SOL     OW 1864   2.857   0.515   5.234 -0.5254 -0.2172  0.4464
  515SOL    HW1 1865   2.846   0.611   5.260 -2.2915 -0.9940  3.0337
  515SOL    HW2 1866   2.955   0.493   5.231 -0.0766  1.6803 -0.4197
  516SOL     OW 1867   0.085   1.535   4.368  0.4854  0.6057  0.5279
  516SOL    HW1 1868   0.025   1.461   4.338  0.3878  0.3326  1.3658
  516SOL    HW2 1869   0.116   1.517   4.461 -0.3495  2.1172  1.1224
  517SOL     OW 1870   1.939   0.776   4.553  0.3669 -0.2320  0.2504
  517SOL    HW1 1871   1.980   0.689   4.578  0.2341 -0.4434 -0.2607
  517SOL    HW2 1872   1.865   0.798   4.617  0.8758 -0.1371  0.8151
  518SOL     OW 1873   1.344   1.362   3.618  0.0362 -0.4486 -0.0106
  518SOL    HW1 1874   1.433   1.399   3.589 -1.0574  2.4808 -0.0096
  518SOL    HW2 1875   1.331   1.380   3.716  0.4592 -3.2891  0.6665
  519SOL     OW 1876   1.583   1.547   3.967  0.2399 -0.5170  0.4157
  519SOL    HW1 1877   1.632   1.460   3.975  0.0956 -0.6316  0.0642
  519SOL    HW2 1878   1.489   1.531   3.937 -0.0117 -0.2933  1.0524
  520SOL     OW 1879   0.214   5.350   2.569 -0.5702 -0.2946  0.2385
  520SOL    HW1 1880   0.274   5.287   2.619 -0.8496 -0.2367  0.6537
  520SOL    HW2 1881   0.244   5.444   2.585 -0.1483 -0.3171 -0.3881
  521SOL     OW 1882   0.721   0.495   5.301  0.4581  0.1418  0.1983
  521SOL    HW1 1883   0.629   0.458   5.288  1.2959 -2.3150  0.8001
  521SOL    HW2 1884   0.730   0.581   5.250 -1.5793 -0.4819 -1.3270
  522SOL     OW 1885   1.396   0.203   4.356 -0.3456 -0.3388  0.1039
  522SOL    HW1 1886   1.388   0.290   4.307 -0.7485 -1.8171 -2.6382
  522SOL    HW2 1887   1.305   0.164   4.370 -0.1138 -0.7781  0.4078
  523SOL     OW 1888   0.531   1.359   3.990 -0.2130 -0.1289 -0.0882
  523SOL    HW1 1889   0.457   1.319   4.044  1.9052  0.3270  3.4678
  523SOL    HW2 1890   0.582   1.286   3.945 -0.5425 -0.7955  0.5946
  524SOL     OW 1891   1.277   1.741   4.882  0.2307 -0.0083 -0.1092
  524SOL    HW1 1892   1.306   1.713   4.974 -0.2400 -0.3962 -0.0722
  524SOL    HW2 1893   1.180   1.722   4.871 -0.1174  1.6307 -0.0915
  525SOL     OW 1894   1.183   1.498   4.096  0.0159  0.3663 -0.3104
  525SOL    HW1 1895   1.191   1.430   4.168 -2.2031 -1.1945 -1.4233
  525SOL    HW2 1896   1.109   1.562   4.118  0.2179  0.6928 -0.5714
  526SOL     OW 1897   1.101   0.119   4.461 -0.1278 -0.0687 -0.4850
  526SOL    HW1 1898   1.016   0.071   4.482 -0.4286  0.6327 -0.0693
  526SOL    HW2 1899   1.103   0.207   4.509  0.1244  0.6292 -1.7166
  527SOL     OW 1900   0.928   5.576   0.223  0.2382 -0.3317  0.3689
  527SOL    HW1 1901   0.925   5.579   0.123  0.4692 -0.0222  0.3704
  527SOL    HW2 1902   0.951   5.483   0.252  1.1792 -0.1908  0.1049
  528SOL     OW 1903   0.824   5.184   5.032  0.3224  0.1478  0.6007
  528SOL    HW1 1904   0.756   5.155   5.100 -0.9265  1.6006  0.0317
  528SOL    HW2 1905   0.867   5.269   5.063  0.4510  0.2887  0.0386
  529SOL     OW 1906   1.314   4.571   4.382  0.1643  0.1569 -0.0118
  529SOL    HW1 1907   1.220   4.564   4.349 -0.7541 -1.2791  2.6372
  529SOL    HW2 1908   1.370   4.616   4.312 -1.9385 -1.0361 -2.6610
  530SOL     OW 1909   0.639   4.294   0.102  0.3411  0.2149  0.3712
  530SOL    HW1 1910   0.648   4.371   0.038  0.9374 -1.0733 -1.1526
  530SOL    HW2 1911   0.664   4.209   0.056  0.0986 -0.8655  2.1400
  531SOL     OW 1912   0.127   0.114   4.380 -0.0705 -0.7434 -0.1511
  531SOL    HW1 1913   0.163   0.069   4.298 -1.8351 -2.8747  0.1531
  531SOL    HW2 1914   0.031   0.139   4.365  0.3821  1.4770  0.3212
  532SOL     OW 1915   2.027   0.101   4.988 -0.1099  0.4380  0.3584
  532SOL    HW1 1916   1.994   0.148   4.907  0.2072  2.3365  1.2689
  532SOL    HW2 1917   2.108   0.148   5.023  0.2618 -0.8453  1.2965
  533SOL     OW 1918   2.953   0.140   3.797  0.3724  0.3412  0.1264
  533SOL    HW1 1919   2.882   0.128   3.867 -0.6654  1.1482 -0.7605
  533SOL    HW2 1920   2.989   0.050   3.772  0.7653  0.0289  1.6712
  534SOL     OW 1921   1.562   1.727   3.598 -0.6479 -0.4916 -0.1616
  534SOL    HW1 1922   1.527   1.775   3.518 -0.3028  1.0822  0.5927
  534SOL    HW2 1923   1.596   1.637   3.570 -1.5014 -0.4127 -1.5824
  535SOL     OW 1924   1.444   0.952   4.853  0.1166  0.1108 -0.6868
  535SOL    HW1 1925   1.372   0.887   4.830 -0.8361  0.7169  0.4602
  535SOL    HW2 1926   1.504   0.966   4.774 -0.1611 -1.5014 -1.2040
  536SOL     OW 1927   0.544   5.368   4.098  0.2168 -0.4604  0.1330
  536SOL    HW1 1928   0.557   5.465   4.120  1.1922 -0.4522 -0.4311
  536SOL    HW2 1929   0.592   5.346   4.014  0.5073 -1.5793  0.5738
  537SOL     OW 1930   0.211   4.598   5.338  0.0921  1.4791  0.6223
  537SOL    HW1 1931   0.296   4.550   5.359 -0.3697  0.7614  0.8618
  537SOL    HW2 1932   0.232   4.689   5.303  1.0316  0.5941 -1.2576
  538SOL     OW 1933   1.602   2.210   5.148  0.0630  0.3459  0.1095
  538SOL    HW1 1934   1.591   2.292   5.092  0.4108 -0.1041 -0.6304
  538SOL    HW2 1935   1.653   2.141   5.097 -1.7358 -0.9956  0.0387
  539SOL     OW 1936   0.858   0.519   4.444 -0.1821  0.1113 -0.1281
  539SOL    HW1 1937   0.768   0.528   4.485 -0.2614 -1.5626  0.1465
  539SOL    HW2 1938   0.853   0.460   4.364  1.0396 -2.2735  1.4314
  540SOL     OW 1939   2.264   1.825   0.455 -0.0508 -0.2297 -0.0650
  540SOL    HW1 1940   2.226   1.820   0.547  0.9371 -0.4584  0.3427
  540SOL    HW2 1941   2.328   1.902   0.450  0.7021 -0.8529 -0.2389
  541SOL     OW 1942   1.345   1.112   0.104  0.1423  0.0211  0.6185
  541SOL    HW1 1943   1.381   1.105   0.198  2.9829  3.1194 -0.0549
  541SOL    HW2 1944   1.261   1.165   0.104  0.1706  0.0780  1.4288
  542SOL     OW 1945   1.472   0.548   4.672 -0.2551 -0.3398  0.0807
  542SOL    HW1 1946   1.454   0.501   4.759 -1.5346 -1.1134 -0.5650
  542SOL    HW2 1947   1.424   0.635   4.672 -0.9853 -0.7271 -0.1631
  543SOL     OW 1948   1.465   1.528   5.408  0.0729  0.5282  0.1292
  543SOL    HW1 1949   1.500   1.490   5.323  0.9649  1.4645  0.0576
  543SOL    HW2 1950   1.475   1.461   5.482  0.9170  0.3455 -0.1429
  544SOL     OW 1951   1.546   1.180   5.172  0.2043  0.0417  0.1499
  544SOL    HW1 1952   1.480   1.188   5.097  1.0202  3.4878 -0.4072
  544SOL    HW2 1953   1.501   1.143   5.253 -1.5651 -0.6574 -1.0911
  545SOL     OW 1954   0.920   1.096   4.629  0.0417 -0.3490  0.0023
  545SOL    HW1 1955   0.874   1.088   4.717  0.8323 -2.1096  0.2988
  545SOL    HW2 1956   1.011   1.136   4.644 -0.2252  0.3346 -0.1727
  546SOL     OW 1957   1.480   4.672   4.841 -0.5530 -0.0929 -0.1173
  546SOL    HW1 1958   1.454   4.575   4.838 -1.4299  0.1367 -0.2184
  546SOL    HW2 1959   1.416   4.725   4.786 -1.1971  0.7849  1.4077
  547SOL     OW 1960   1.960   0.227   4.765 -0.1523  0.1363 -0.0464
  547SOL    HW1 1961   2.025   0.297   4.734  0.2273 -0.3980 -0.4680
  547SOL    HW2 1962   1.905   0.196   4.688  0.8629 -1.2738 -0.2341
  548SOL     OW 1963   4.959   0.565   5.413  0.2378 -0.6012 -0.3144
  548SOL    HW1 1964   4.993   0.587   5.504 -2.2174 -2.1714  1.0914
  548SOL    HW2 1965   4.923   0.471   5.413 -0.9343 -0.2210 -2.5616
  549SOL     OW 1966   5.362   0.742   4.007  0.0834 -0.0176  0.0716
  549SOL    HW1 1967   5.370   0.723   4.105  1.5784 -1.3020 -0.2700
  549SOL    HW2 1968   5.452   0.764   3.970  0.2676 -3.1524 -1.6781
  550SOL     OW 1969   0.884   0.680   4.807 -0.2209  0.2979 -0.0463
  550SOL    HW1 1970   0.806   0.708   4.750  0.7032  1.9204 -0.5636
  550SOL    HW2 1971   0.953   0.635   4.751  0.8466  2.2077 -0.3425
  551SOL     OW 1972   0.807   0.052   5.081  0.1338  0.4945 -0.2089
  551SOL    HW1 1973   0.896   0.020   5.048  1.0551 -0.2630  2.6949
  551SOL    HW2 1974   0.742   0.053   5.006  1.0390 -4.6565 -1.4541
  552SOL     OW 1975   2.006   2.423   0.471  0.5422 -0.1615 -0.3724
  552SOL    HW1 1976   1.944   2.463   0.404  0.5477 -0.5000 -0.5790
  552SOL    HW2 1977   2.098   2.417   0.432  0.8327  0.8315  0.1145
  553SOL     OW 1978   2.225   0.266   4.263 -0.0157  0.6587 -0.2219
  553SOL    HW1 1979   2.299   0.236   4.203  1.3031  0.7146  1.2945
  553SOL    HW2 1980   2.176   0.342   4.220 -0.1636 -0.3441 -1.9045
  554SOL     OW 1981   5.324   1.341   4.977 -0.0868 -0.2358 -0.6550
  554SOL    HW1 1982   5.414   1.329   5.017  0.4350  1.5048 -1.2085
  554SOL    HW2 1983   5.255   1.340   5.050  0.5465  0.0430 -0.0414
  555SOL     OW 1984   0.286   0.044   5.327  0.0964  0.2713  0.2306
  555SOL    HW1 1985   0.313   0.002   5.413  1.4855  0.0346 -0.3043
  555SOL    HW2 1986   0.281  -0.026   5.256 -2.0289  0.2864  0.3041
  556SOL     OW 1987   2.162   0.537   4.460  0.1266  0.1774 -0.6187
  556SOL    HW1 1988   2.094   0.550   4.388  0.7816 -2.1227 -1.7623
  556SOL    HW2 1989   2.250   0.573   4.429  0.0888  0.5235 -0.3346
  557SOL     OW 1990   2.193   4.921   4.463 -0.0032  0.6557  0.2366
  557SOL    HW1 1991   2.181   5.019   4.476  0.8709  0.9737 -1.1363
  557SOL    HW2 1992   2.179   4.874   4.551  0.6913  2.1145  1.1811
  558SOL     OW 1993   1.088   0.826   1.153  0.0573  0.3374  0.3728
  558SOL    HW1 1994   1.076   0.881   1.236  2.7437  0.8473  0.5261
  558SOL    HW2 1995   1.078   0.884   1.072  1.1562  0.7219  0.4903
  559SOL     OW 1996   0.364   0.845   4.286 -0.4600  0.1537  0.1427
  559SOL    HW1 1997   0.342   0.768   4.346 -1.5240 -0.5432 -1.0878
  559SOL    HW2 1998   0.282   0.872   4.236  0.2082  1.2857 -0.3686
  560SOL     OW 1999   0.762   1.300   4.254  0.1653  0.3686 -0.1416
  560SOL    HW1 2000   0.760   1.209   4.296  2.8762  0.5932  0.6883
  560SOL    HW2 2001   0.692   1.358   4.295  1.3082 -0.0583  2.6142
  561SOL     OW 2002   1.622   5.102   5.399 -0.5198  0.6785 -0.4717
  561SOL    HW1 2003   1.560   5.132   5.472 -0.0486  0.3084  0.0889
  561SOL    HW2 2004   1.716   5.105   5.432 -0.3622 -0.2167 -0.8151
  562SOL     OW 2005   0.036   4.967   0.253 -0.3367 -0.6929 -0.0425
  562SOL    HW1 2006   0.124   4.941   0.293 -0.8423 -0.6250  1.1864
  562SOL    HW2 2007  -0.038   4.924   0.306 -1.1732  2.2972  1.4589
  563SOL     OW 2008   5.180   3.160   5.453  0.2255  0.2911 -0.0353
  563SOL    HW1 2009   5.136   3.084   5.501 -0.5085  1.6250  1.5186
  563SOL    HW2 2010   5.188   3.138   5.356 -0.4844 -1.5137  0.2672
  564SOL     OW 2011   5.072   5.054   5.552 -0.4629  0.5482  0.0537
  564SOL    HW1 2012   5.153   5.057   5.610  0.3402  1.6679 -1.0812
  564SOL    HW2 2013   5.020   5.139   5.563  0.0064  1.0354 -1.2476
  565SOL     OW 2014   2.134   1.233   0.620  0.2740  0.4325  0.2458
  565SOL    HW1 2015   2.119   1.143   0.579  0.8556  0.3647  0.1748
  565SOL    HW2 2016   2.228   1.239   0.654 -0.3467  0.2399  2.1508
  566SOL     OW 2017   0.146   5.140   4.879 -0.2008  1.7382  0.6066
  566SOL    HW1 2018   0.237   5.171   4.850  0.4439  0.4875  1.2031
  566SOL    HW2 2019   0.087   5.133   4.799  0.2773  2.4265  0.1845
  567SOL     OW 2020   2.044   5.360   4.690  0.0030 -0.2948 -0.1026
  567SOL    HW1 2021   1.952   5.376   4.654 -1.0818 -2.3230  1.5385
  567SOL    HW2 2022   2.099   5.443   4.682 -3.4856  2.7098  3.3417
  568SOL     OW 2023   0.242   0.264   4.566  0.2858 -0.3333 -0.0879
  568SOL    HW1 2024   0.225   0.199   4.493  1.3346  0.9161 -1.4982
  568SOL    HW2 2025   0.195   0.350   4.547  1.3118  0.3190  0.1871
  569SOL     OW 2026   5.519   0.276   4.790 -0.5884 -0.1151 -0.8756
  569SOL    HW1 2027   5.578   0.354   4.770  1.7521 -1.2347  1.1208
  569SOL    HW2 2028   5.456   0.262   4.714  0.2771  2.4411 -2.1962
  570SOL     OW 2029   0.874   3.369   5.459  0.1401  0.3218  0.0582
  570SOL    HW1 2030   0.788   3.336   5.497 -0.5211  1.2066 -0.6073
  570SOL    HW2 2031   0.944   3.369   5.530 -0.1308 -1.3610  0.3602
  571SOL     OW 2032   0.208   5.036   5.128 -0.1205  0.8496  0.4520
  571SOL    HW1 2033   0.123   5.051   5.179  0.1278  0.6485  0.9320
  571SOL    HW2 2034   0.193   5.056   5.032 -0.9977 -0.1569  0.3571
  572SOL     OW 2035   2.453   0.648   5.055  0.2729 -0.0603  0.1046
  572SOL    HW1 2036   2.416   0.635   4.963 -1.2069  1.2737  0.4748
  572SOL    HW2 2037   2.380   0.677   5.116  0.5711 -3.5705  2.4030
  573SOL     OW 2038   0.890   5.500   4.311 -0.6400  0.4224  0.0168
  573SOL    HW1 2039   0.857   5.544   4.394  0.2408  0.8997  0.1213
  573SOL    HW2 2040   0.982   5.465   4.326 -0.9261 -0.5537 -0.3900
  574SOL     OW 2041   5.414   5.535   3.882  0.0359 -0.4626  0.1306
  574SOL    HW1 2042   5.349   5.601   3.918 -0.2460 -1.5200  1.6663
  574SOL    HW2 2043   5.500   5.581   3.857 -0.5377  0.6139  0.0968
  575SOL     OW 2044   0.222   5.497   4.517 -0.2847  0.7908 -0.9217
  575SOL    HW1 2045   0.178   5.577   4.476  0.4119  1.9441  0.4906
  575SOL    HW2 2046   0.239   5.515   4.614 -0.4983 -1.2566 -0.4629
  576SOL     OW 2047   1.150   4.882   4.985 -0.2562 -0.0643  0.2217
  576SOL    HW1 2048   1.086   4.900   5.060  0.4259 -0.1918  0.8518
  576SOL    HW2 2049   1.177   4.969   4.943 -2.5872 -0.1101 -1.5981
  577SOL     OW 2050   3.385   4.564   5.349  0.7261 -0.9389  0.1962
  577SOL    HW1 2051   3.437   4.480   5.364  1.1330 -0.2808  3.1604
  577SOL    HW2 2052   3.292   4.552   5.385  1.1109  0.1320  1.6730
  578SOL     OW 2053   3.040   4.789   0.439 -0.4554 -0.3260  0.1532
  578SOL    HW1 2054   3.137   4.774   0.420  0.4795  1.5601  2.8792
  578SOL    HW2 2055   3.017   4.752   0.529 -0.9964  3.3068  1.6666
  579SOL     OW 2056   0.138   2.120   3.302 -0.1723 -0.1642  0.2252
  579SOL    HW1 2057   0.116   2.114   3.205  0.6886  0.6324 -0.0350
  579SOL    HW2 2058   0.236   2.104   3.315 -0.3569 -0.7121  1.0150
  580SOL     OW 2059   5.360   1.112   4.266 -0.7588  0.5060 -0.4229
  580SOL    HW1 2060   5.285   1.096   4.329 -2.5208  3.3620 -1.6040
  580SOL    HW2 2061   5.339   1.070   4.177 -0.7192  0.9003 -0.6200
  581SOL     OW 2062   0.390   5.193   5.274 -0.6406 -0.1976 -1.0865
  581SOL    HW1 2063   0.336   5.124   5.226 -0.1728 -0.6772 -0.9380
  581SOL    HW2 2064   0.377   5.282   5.231 -1.0535 -0.4296 -1.4405
  582SOL     OW 2065   1.544   0.856   4.331  0.0974 -0.3706  0.1708
  582SOL    HW1 2066   1.509   0.888   4.243  1.9223  0.2680 -0.3678
  582SOL    HW2 2067   1.641   0.879   4.339  0.4149 -1.9831  1.6082
  583SOL     OW 2068   0.984   5.381   5.150  0.3102 -0.1803  0.3209
  583SOL    HW1 2069   0.920   5.413   5.221  2.1074 -0.6858  2.2756
  583SOL    HW2 2070   1.049   5.316   5.190 -0.1843 -2.5741 -2.4344
  584SOL     OW 2071   5.596   5.395   5.083  0.1163  0.3205  0.0830
  584SOL    HW1 2072   5.527   5.465   5.061 -0.3355 -0.0627  0.2695
  584SOL    HW2 2073   5.563   5.305   5.056  0.8465  0.2137 -0.4785
  585SOL     OW 2074   0.583   2.584   5.425  0.2523 -0.1847  0.1539
  585SOL    HW1 2075   0.547   2.640   5.499  0.2474 -0.7573  0.5862
  585SOL    HW2 2076   0.606   2.493   5.459 -1.6568 -1.1364 -0.9456
  586SOL     OW 2077   0.527   4.857   0.024  0.7286  0.1548 -0.1455
  586SOL    HW1 2078   0.547   4.794   0.098 -1.0024  0.5071  0.6826
  586SOL    HW2 2079   0.441   4.830  -0.020 -0.8698  2.6804  1.1926
  587SOL     OW 2080   2.223   0.751   4.666 -0.4392  0.0514  0.2070
  587SOL    HW1 2081   2.195   0.696   4.587  1.2082 -0.4600 -0.0725
  587SOL    HW2 2082   2.281   0.826   4.635 -0.7029  0.5145  0.8322
  588SOL     OW 2083   0.875   0.528   0.386 -0.0119 -0.3468 -0.2068
  588SOL    HW1 2084   0.974   0.536   0.396  0.1503 -1.3119 -0.8757
  588SOL    HW2 2085   0.839   0.613   0.346  0.4609  0.2145  0.5373
  589SOL     OW 2086   1.562   0.109   0.722  0.4077 -0.4142 -0.1640
  589SOL    HW1 2087   1.580   0.204   0.699  0.0944 -0.3945 -0.3347
  589SOL    HW2 2088   1.509   0.104   0.807  1.9831 -0.5031  0.8484
  590SOL     OW 2089   0.429   2.439   5.050  0.0889  0.3675 -0.3495
  590SOL    HW1 2090   0.398   2.435   4.955 -0.2591 -0.1787 -0.2204
  590SOL    HW2 2091   0.492   2.364   5.068 -1.5644 -0.9302  0.4261
  591SOL     OW 2092   5.463   0.162   4.353 -0.7402  0.0510 -0.1278
  591SOL    HW1 2093   5.426   0.069   4.348  2.1042 -1.1135 -1.6194
  591SOL    HW2 2094   5.426   0.208   4.434 -2.0733 -2.4349  0.7757
  592SOL     OW 2095   5.532   1.540   4.000  0.8402 -0.1666 -0.6830
  592SOL    HW1 2096   5.578   1.628   3.988  0.8067  0.3995  2.4424
  592SOL    HW2 2097   5.539   1.487   3.916 -1.0752  3.6166 -3.5293
  593SOL     OW 2098   0.981   0.143   4.735 -0.2146 -0.3965  0.5043
  593SOL    HW1 2099   1.061   0.102   4.779 -0.2355 -1.9477 -0.8054
  593SOL    HW2 2100   0.944   0.215   4.794  1.1866 -0.7236  1.8632
  594SOL     OW 2101   1.057   0.295   4.220 -0.1703  0.6313  0.3398
  594SOL    HW1 2102   1.086   0.246   4.303  0.4977 -0.7872 -0.6827
  594SOL    HW2 2103   1.089   0.244   4.140  0.2409  2.6060 -0.7906
  595SOL     OW 2104   1.094   1.311   5.418 -0.3992 -0.2064 -0.1980
  595SOL    HW1 2105   1.088   1.241   5.346  0.8782 -0.6214  0.0593
  595SOL    HW2 2106   1.097   1.267   5.507  1.8429  0.0184 -0.0891
  596SOL     OW 2107   2.214   2.648   5.082  0.3907 -0.4964 -0.6430
  596SOL    HW1 2108   2.259   2.724   5.130 -0.1422 -1.4432  1.4529
  596SOL    HW2 2109   2.202   2.571   5.144  0.2636 -2.0769 -2.5223
  597SOL     OW 2110   0.461   1.693   4.839  0.2006 -0.1553  0.2478
  597SOL    HW1 2111   0.543   1.654   4.880  0.1585 -0.4083  0.0858
  597SOL    HW2 2112   0.381   1.668   4.894  0.1378 -0.5365 -0.0174
  598SOL     OW 2113   1.107   2.019   0.648  0.8612 -0.0782 -0.3651
  598SOL    HW1 2114   1.111   1.967   0.562 -1.9871 -2.5011  0.8093
  598SOL    HW2 2115   1.175   1.984   0.712  1.8761  0.6559 -0.9883
  599SOL     OW 2116   2.541   0.352   4.146 -0.0985  0.4586  0.1682
  599SOL    HW1 2117   2.505   0.435   4.102  0.4145  0.2232 -0.7284
  599SOL    HW2 2118   2.637   0.340   4.122  0.4031  0.6754  1.9406
  600SOL     OW 2119   1.968   1.671   4.507 -0.0012  0.1166 -0.4377
  600SOL    HW1 2120   1.913   1.755   4.511 -0.2405 -0.0307 -0.5881
  600SOL    HW2 2121   1.907   1.593   4.493  0.0621 -0.2659  1.2468
  601SOL     OW 2122   0.401   0.389   4.743 -0.0087 -0.3461 -0.3179
  601SOL    HW1 2123   0.351   0.446   4.808 -0.1641 -0.3040 -0.4746
  601SOL    HW2 2124   0.337   0.335   4.690  0.1149 -0.3301 -0.4851
  602SOL     OW 2125   5.580   1.501   3.487  0.0632  0.3722 -0.5917
  602SOL    HW1 2126   5.507   1.543   3.540 -1.0363 -0.8232 -1.1157
  602SOL    HW2 2127   5.560   1.508   3.389  1.6769  1.8433 -0.8664
  603SOL     OW 2128   1.053   1.147   0.088 -0.2302  0.1298  0.6019
  603SOL    HW1 2129   1.025   1.160   0.184  2.0407 -1.3150  1.5396
  603SOL    HW2 2130   0.979   1.103   0.038 -1.2512  0.3789  1.8287
  604SOL     OW 2131   0.807   2.432   3.588  0.3613  0.0541 -0.2463
  604SOL    HW1 2132   0.861   2.457   3.507 -2.4588 -0.7396 -2.5489
  604SOL    HW2 2133   0.718   2.477   3.584 -0.9988 -2.3575  0.7843
  605SOL     OW 2134   2.102   1.673   4.740 -0.0501 -0.0002  0.1147
  605SOL    HW1 2135   2.055   1.684   4.652  0.2418  0.7391  0.0455
  605SOL    HW2 2136   2.200   1.662   4.723 -0.2050 -1.8186  0.2394
  606SOL     OW 2137   3.283   4.599   4.524  0.3131 -0.0461  0.0447
  606SOL    HW1 2138   3.322   4.657   4.452  1.1215  0.9610  1.2531
  606SOL    HW2 2139   3.308   4.504   4.507  1.8729  0.3709 -0.1484
  607SOL     OW 2140   4.916   5.071   4.642 -0.4211 -0.3774 -0.3017
  607SOL    HW1 2141   4.853   4.993   4.636 -1.1316  0.2823 -1.7577
  607SOL    HW2 2142   4.939   5.087   4.738 -1.6175 -1.3012  0.1743
  608SOL     OW 2143   2.362   1.670   4.832  0.1575 -0.0598 -0.5468
  608SOL    HW1 2144   2.317   1.709   4.913  0.2522 -2.1479  0.5795
  608SOL    HW2 2145   2.432   1.734   4.800  1.2862  0.1686  2.0861
  609SOL     OW 2146   0.910   0.274   5.249 -0.3610  0.0836  0.0940
  609SOL    HW1 2147   0.837   0.337   5.272 -0.1426  0.4850 -0.2798
  609SOL    HW2 2148   0.877   0.205   5.185 -0.6448 -0.2910  0.6371
  610SOL     OW 2149   1.304   0.859   0.044  0.2954  0.2526  0.0197
  610SOL    HW1 2150   1.326   0.954   0.066  0.3509  0.1288  0.5038
  610SOL    HW2 2151   1.373   0.799   0.083 -0.5859 -0.1047  1.0725
  611SOL     OW 2152   1.155   2.280   3.019 -0.0015 -0.1061 -0.8026
  611SOL    HW1 2153   1.237   2.227   3.040 -1.2903 -0.9896  2.4537
  611SOL    HW2 2154   1.170   2.376   3.044 -0.1169 -0.3744  0.3335
  612SOL     OW 2155   4.673   0.247   4.690 -0.0201  0.2065 -0.5044
  612SOL    HW1 2156   4.748   0.300   4.650  0.4779 -0.4032 -0.3994
  612SOL    HW2 2157   4.711   0.180   4.755 -0.8106  1.4393  1.3201
  613SOL     OW 2158   1.232   0.584   5.249  0.2685 -0.4939 -0.1919
  613SOL    HW1 2159   1.298   0.605   5.177 -0.1606  1.0243 -0.1812
  613SOL    HW2 2160   1.179   0.666   5.271  0.1601 -0.9963  1.6337
  614SOL     OW 2161   0.683   1.025   4.130  0.5852  0.0346 -0.2870
  614SOL    HW1 2162   0.700   1.039   4.228  1.8518  4.2022 -0.9381
  614SOL    HW2 2163   0.586   1.033   4.111  0.1348 -2.1836  0.6770
  615SOL     OW 2164   2.004   0.640   5.079 -0.1220  0.6356  0.3024
  615SOL    HW1 2165   2.071   0.571   5.049  0.4167  1.2909 -0.0346
  615SOL    HW2 2166   1.942   0.599   5.146  1.8176  0.5345  2.1337
  616SOL     OW 2167   0.060   0.156   5.182 -0.0793 -0.0668 -0.2202
  616SOL    HW1 2168   0.138   0.102   5.213 -1.2211 -1.8678 -0.3497
  616SOL    HW2 2169   0.091   0.248   5.157  2.1384 -1.0059 -1.1422
  617SOL     OW 2170   2.199   0.468   4.999 -0.8648  0.1951 -0.3441
  617SOL    HW1 2171   2.208   0.381   5.047 -0.6352  0.9346  1.0167
  617SOL    HW2 2172   2.266   0.472   4.924 -1.0364 -0.8736 -0.5655
  618SOL     OW 2173   4.570   1.206   3.245 -1.2584  0.5368 -0.4736
  618SOL    HW1 2174   4.650   1.193   3.303 -1.2022  1.5194 -0.3100
  618SOL    HW2 2175   4.550   1.121   3.196 -2.0842 -0.7238  1.9262
  619SOL     OW 2176   0.133   1.540   5.585 -0.5261  0.0553  0.6960
  619SOL    HW1 2177   0.069   1.498   5.649 -1.7580  1.6196  0.5637
  619SOL    HW2 2178   0.126   1.496   5.496  0.4469 -1.4468  1.3176
  620SOL     OW 2179   2.273   5.526   0.156 -0.1497 -0.4891  0.1437
  620SOL    HW1 2180   2.194   5.465   0.163 -1.0803  0.5479 -0.7165
  620SOL    HW2 2181   2.308   5.524   0.062  0.1834 -0.1393  0.2584
  621SOL     OW 2182   5.129   0.634   3.335  0.0362  0.2443  0.4706
  621SOL    HW1 2183   5.167   0.723   3.309 -1.0034  1.1043  1.7512
  621SOL    HW2 2184   5.106   0.583   3.252 -0.6255  1.7448 -0.3249
  622SOL     OW 2185   2.269   0.982   5.116 -0.0866  0.4832 -0.2934
  622SOL    HW1 2186   2.345   1.011   5.058  2.3270 -0.0837  2.4034
  622SOL    HW2 2187   2.189   1.038   5.095  0.7363  0.5864 -3.7736
  623SOL     OW 2188   4.522   0.195   2.825  0.2228  0.6139 -0.1533
  623SOL    HW1 2189   4.476   0.202   2.914 -0.1000 -0.0652 -0.2621
  623SOL    HW2 2190   4.454   0.204   2.752  0.6316  2.2538 -0.3581
  624SOL     OW 2191   1.107   0.667   3.787 -0.2421  0.2216 -0.2602
  624SOL    HW1 2192   1.087   0.621   3.700 -0.9544 -0.2304  0.1297
  624SOL    HW2 2193   1.087   0.605   3.862 -0.3254  0.8614  0.2506
  625SOL     OW 2194   1.972   0.337   5.445  0.4480  0.2518 -0.0739
  625SOL    HW1 2195   1.964   0.391   5.362 -0.1992  0.9652  0.4516
  625SOL    HW2 2196   1.905   0.367   5.512  1.0112 -0.2671  0.7426
  626SOL     OW 2197   2.050   2.841   3.800 -0.4695 -0.5762 -0.2980
  626SOL    HW1 2198   2.054   2.860   3.702 -2.7045  1.6203 -0.0468
  626SOL    HW2 2199   2.019   2.746   3.814 -1.6866 -0.4422 -1.7619
  627SOL     OW 2200   0.712   2.041   0.958  0.2012 -0.4454 -0.8763
  627SOL    HW1 2201   0.775   2.044   1.035  0.0097 -3.7142 -0.4221
  627SOL    HW2 2202   0.762   2.060   0.873  0.9877  0.5261 -0.2207
  628SOL     OW 2203   0.622   0.035   4.881 -0.4639 -0.1186  0.2552
  628SOL    HW1 2204   0.528   0.017   4.907 -0.6989  1.8114  0.9244
  628SOL    HW2 2205   0.628   0.124   4.836  0.8685 -0.7453 -0.8841
  629SOL     OW 2206   2.224   0.441   5.339 -0.0624  0.3650 -0.6420
  629SOL    HW1 2207   2.162   0.496   5.395 -0.2685  0.1438 -0.6532
  629SOL    HW2 2208   2.240   0.487   5.252 -0.5835  0.1949 -0.8287
  630SOL     OW 2209   1.169   5.259   4.551  0.4002 -0.0317  0.5960
  630SOL    HW1 2210   1.123   5.327   4.608  1.4030  0.7988  0.4441
  630SOL    HW2 2211   1.183   5.175   4.604 -0.9920 -0.2092  0.7330
  631SOL     OW 2212   2.749   5.502   3.540  0.1276 -0.0008  0.2622
  631SOL    HW1 2213   2.819   5.443   3.579  1.2496  1.7038  0.9389
  631SOL    HW2 2214   2.688   5.533   3.613  0.5048  0.9262  0.1899
  632SOL     OW 2215   1.022   4.798   4.490  0.2906  0.0152 -0.8120
  632SOL    HW1 2216   0.956   4.867   4.517  1.8051  1.4038 -0.4817
  632SOL    HW2 2217   1.097   4.796   4.556  0.9220 -1.0583 -1.5189
  633SOL     OW 2218   3.429   0.131   5.381  0.3272 -0.4564 -0.0080
  633SOL    HW1 2219   3.387   0.049   5.342  0.8201 -0.1377 -1.2291
  633SOL    HW2 2220   3.464   0.110   5.472  0.1073 -1.4953 -0.1518
  634SOL     OW 2221   1.098   5.095   5.505  0.2536  0.5936  0.0847
  634SOL    HW1 2222   1.132   5.124   5.416  1.8416  1.1557  0.8379
  634SOL    HW2 2223   1.069   4.999   5.500  0.4573  0.5782 -0.9902
  635SOL     OW 2224   0.435   1.385   4.749 -0.6516 -0.1099 -0.2499
  635SOL    HW1 2225   0.409   1.312   4.813 -1.0600 -0.5672 -0.9218
  635SOL    HW2 2226   0.503   1.445   4.793 -1.1262 -0.2463  0.7048
  636SOL     OW 2227   5.406   2.135   5.157  0.2637 -0.0261  0.1827
  636SOL    HW1 2228   5.431   2.041   5.184 -0.0214 -0.8335 -2.1432
  636SOL    HW2 2229   5.471   2.199   5.197  0.3061 -1.1655  2.0693
  637SOL     OW 2230   5.280   1.338   5.513  0.6223 -0.1262  0.2059
  637SOL    HW1 2231   5.278   1.271   5.587 -1.3531 -0.5129 -0.1389
  637SOL    HW2 2232   5.213   1.409   5.531  2.1060  1.3613  0.1420
  638SOL     OW 2233   0.142   0.292   3.928  0.0934  0.4788  0.8988
  638SOL    HW1 2234   0.228   0.254   3.961  0.5886  0.8655  0.0957
  638SOL    HW2 2235   0.116   0.371   3.983  0.7454  0.9289  0.5701
  639SOL     OW 2236   1.035   0.875   4.506  0.4072 -0.1019 -0.0310
  639SOL    HW1 2237   0.973   0.930   4.561 -1.0262 -0.9335 -0.7536
  639SOL    HW2 2238   1.129   0.889   4.537 -0.1676  0.8914  1.3488
  640SOL     OW 2239   5.012   0.016   5.013  0.2972 -0.2356 -0.7003
  640SOL    HW1 2240   5.055   0.080   5.076  2.0758 -0.7417 -1.3441
  640SOL    HW2 2241   5.026  -0.078   5.045  1.2218 -0.4977 -1.8129
  641SOL     OW 2242   0.249   1.642   4.992 -0.6816 -0.1719  0.1244
  641SOL    HW1 2243   0.230   1.637   5.090  0.6125  2.2623  0.5770
  641SOL    HW2 2244   0.162   1.641   4.942 -1.4547  0.0175  1.3971
  642SOL     OW 2245   0.549   0.929   1.099 -0.7282 -0.3599  0.8011
  642SOL    HW1 2246   0.614   1.005   1.095 -3.7962  2.5746  1.2163
  642SOL    HW2 2247   0.520   0.915   1.193 -1.2009 -1.1152  0.5502
  643SOL     OW 2248   2.081   5.230   5.169 -0.8015 -0.2541 -0.0675
  643SOL    HW1 2249   1.984   5.253   5.178 -1.9007 -4.4181  0.7087
  643SOL    HW2 2250   2.104   5.219   5.072 -1.1291  0.5283 -0.2406
  644SOL     OW 2251   0.642   5.473   5.179 -0.5036  0.6709  0.1691
  644SOL    HW1 2252   0.568   5.447   5.117  0.0439  0.8500 -0.5677
  644SOL    HW2 2253   0.704   5.537   5.133  2.0231 -2.0119 -0.4773
  645SOL     OW 2254   0.839   1.383   0.838  0.0279 -0.2563  0.0054
  645SOL    HW1 2255   0.787   1.339   0.766  0.9174  1.4790 -1.8054
  645SOL    HW2 2256   0.778   1.412   0.912 -1.1017 -0.8819 -0.6713
  646SOL     OW 2257   1.852   5.261   5.424  0.2094 -0.3328 -0.2824
  646SOL    HW1 2258   1.927   5.302   5.476  0.6535  0.5468 -1.5560
  646SOL    HW2 2259   1.804   5.333   5.373 -0.4315 -1.1130 -0.8084
  647SOL     OW 2260   1.775   1.452   4.480 -0.1366 -0.0347  0.1526
  647SOL    HW1 2261   1.789   1.364   4.525  0.2782  0.0131  0.1163
  647SOL    HW2 2262   1.811   1.448   4.387  0.6324  0.4295  0.4243
  648SOL     OW 2263   1.776   0.636   4.881  0.4091 -0.0810 -0.1594
  648SOL    HW1 2264   1.784   0.536   4.884 -0.3311 -0.1325  2.5434
  648SOL    HW2 2265   1.848   0.677   4.937  0.1275  0.8505 -0.4608
  649SOL     OW 2266   1.328   5.425   0.102 -0.4049 -0.6339  0.1115
  649SOL    HW1 2267   1.274   5.342   0.089  0.1150 -0.7455 -1.5707
  649SOL    HW2 2268   1.351   5.434   0.199 -1.4925 -1.7881  0.5174
  650SOL     OW 2269   0.745   1.083   4.419 -0.0998  0.5395  0.3713
  650SOL    HW1 2270   0.659   1.055   4.461  0.3865  0.0352  1.0607
  650SOL    HW2 2271   0.817   1.088   4.489  0.7484 -0.4016 -0.3967
  651SOL     OW 2272   0.134   0.527   4.115 -0.1413 -0.2291  0.5643
  651SOL    HW1 2273   0.051   0.531   4.171  0.3074 -1.4574  1.3578
  651SOL    HW2 2274   0.211   0.501   4.173  0.2057 -2.3200 -0.7630
  652SOL     OW 2275   1.803   5.281   5.088  0.1757  0.3445 -0.3719
  652SOL    HW1 2276   1.756   5.337   5.157 -1.0654  0.4275 -1.2544
  652SOL    HW2 2277   1.742   5.209   5.057  1.3108 -0.7091 -0.2063
  653SOL     OW 2278   1.415   0.107   5.250 -0.1167  0.1878  0.3033
  653SOL    HW1 2279   1.415   0.026   5.310  1.8372 -0.2243 -0.1837
  653SOL    HW2 2280   1.455   0.184   5.299  0.2925  0.1975 -0.0460
  654SOL     OW 2281   2.451   4.302   5.011  0.0244 -0.0083 -0.1557
  654SOL    HW1 2282   2.524   4.237   5.032  0.2264  1.0346  2.8095
  654SOL    HW2 2283   2.481   4.363   4.938  2.6899  1.1307  1.7377
  655SOL     OW 2284   0.474   0.577   3.919  0.5331  0.4873  0.1666
  655SOL    HW1 2285   0.411   0.506   3.951 -1.8358  1.5849 -1.6830
  655SOL    HW2 2286   0.564   0.537   3.904 -0.1130 -1.5642  1.3583
  656SOL     OW 2287   0.079   1.259   4.556 -0.1855  0.0934  0.1613
  656SOL    HW1 2288   0.117   1.173   4.591  1.3735  0.3810 -0.7337
  656SOL    HW2 2289   0.122   1.336   4.602  0.7559  0.4399 -1.2471
  657SOL     OW 2290   0.197   2.800   0.477 -0.0526  0.6321  0.4181
  657SOL    HW1 2291   0.167   2.813   0.571 -0.8224  0.2352  0.2354
  657SOL    HW2 2292   0.146   2.861   0.416  0.3810  0.8266  0.2456
  658SOL     OW 2293   5.365   2.209   1.114 -0.4129 -0.0901  0.0746
  658SOL    HW1 2294   5.295   2.187   1.047 -1.2030  2.3426 -0.0196
  658SOL    HW2 2295   5.418   2.127   1.136 -1.9168 -1.5385 -1.4124
  659SOL     OW 2296   4.566   2.877   0.710  0.2572 -0.3519 -0.1963
  659SOL    HW1 2297   4.517   2.805   0.660 -1.0416 -0.3442  0.9945
  659SOL    HW2 2298   4.559   2.963   0.659 -2.7734  0.1294  0.8215
  660SOL     OW 2299   0.749   2.973   1.308  0.5398  0.3237  0.7949
  660SOL    HW1 2300   0.825   3.020   1.353  0.7969  0.4820  0.1945
  660SOL    HW2 2301   0.663   3.018   1.332  0.8122  1.2935 -0.0254
  661SOL     OW 2302   1.820   4.288   0.841 -0.0053 -0.1170  0.1587
  661SOL    HW1 2303   1.899   4.349   0.843 -0.2407  0.1757  0.8711
  661SOL    HW2 2304   1.832   4.215   0.909  0.3891 -1.0250 -0.8553
  662SOL     OW 2305   1.822   2.955   0.802  0.3080 -0.2558  0.5623
  662SOL    HW1 2306   1.765   3.003   0.735  0.6704 -0.5094  0.0620
  662SOL    HW2 2307   1.832   2.859   0.774 -0.5549 -0.6744  1.6375
  663SOL     OW 2308   1.703   2.889   5.152  0.3644  0.4139  0.1203
  663SOL    HW1 2309   1.695   2.959   5.223 -0.0596 -0.0937  0.5754
  663SOL    HW2 2310   1.742   2.930   5.070  0.9488  0.9855  0.6726
  664SOL     OW 2311   0.859   3.620   0.792  0.5994  0.9060  0.0113
  664SOL    HW1 2312   0.761   3.633   0.808  0.6072 -1.8968  3.8065
  664SOL    HW2 2313   0.910   3.685   0.849  0.8173 -0.4890  1.4670
  665SOL     OW 2314   4.993   2.200   1.129  0.0404  0.3566  0.3058
  665SOL    HW1 2315   5.013   2.298   1.132  0.5344  0.3739 -1.9998
  665SOL    HW2 2316   5.069   2.151   1.086 -0.4033 -0.9944  1.0003
  666SOL     OW 2317   0.805   2.387   0.155  0.0143  0.2287  0.3012
  666SOL    HW1 2318   0.889   2.437   0.132 -0.3001  0.9041  0.6007
  666SOL    HW2 2319   0.755   2.365   0.071  0.1530  0.4066  0.1711
  667SOL     OW 2320   1.549   2.731   1.458  0.1546 -0.4283  0.1877
  667SOL    HW1 2321   1.475   2.667   1.477 -1.0491  1.0361  0.7263
  667SOL    HW2 2322   1.536   2.771   1.367 -0.4483  0.7116  0.7480
  668SOL     OW 2323   1.181   3.090   0.835 -0.0476 -0.4173  0.3524
  668SOL    HW1 2324   1.110   3.090   0.905  1.2592  2.0170  1.8434
  668SOL    HW2 2325   1.220   2.998   0.827 -2.4936 -1.5103  0.3412
  669SOL     OW 2326   1.727   3.428   0.642  0.1525 -0.1506 -0.0386
  669SOL    HW1 2327   1.676   3.510   0.617  0.4653  0.3397  0.8703
  669SOL    HW2 2328   1.700   3.400   0.735  1.7250  0.2911  0.5875
  670SOL     OW 2329   0.765   2.849   0.549 -0.3763 -0.1595  0.2811
  670SOL    HW1 2330   0.716   2.894   0.625  0.8929 -0.5580  1.3627
  670SOL    HW2 2331   0.856   2.889   0.539 -0.0453 -0.9951 -0.1808
  671SOL     OW 2332   2.175   1.601   0.735 -0.3561 -0.1251 -0.1553
  671SOL    HW1 2333   2.167   1.700   0.731  0.8674  0.0898  1.7289
  671SOL    HW2 2334   2.089   1.560   0.705 -0.6992  1.4591 -1.4851
  672SOL     OW 2335   5.406   2.987   1.370  0.4460 -0.3859 -0.0506
  672SOL    HW1 2336   5.427   3.078   1.405  1.2680 -0.6482  0.1676
  672SOL    HW2 2337   5.338   2.943   1.429 -0.3503  0.2781 -0.4565
  673SOL     OW 2338   1.259   3.503   1.143  0.1093  0.3490 -0.4219
  673SOL    HW1 2339   1.235   3.453   1.060  1.0216 -1.8023  0.5275
  673SOL    HW2 2340   1.353   3.481   1.169 -0.0764  1.1794  1.0349
  674SOL     OW 2341   4.361   2.998   1.093 -0.0577 -0.4213  0.3322
  674SOL    HW1 2342   4.356   2.982   1.192 -0.0481 -3.9652 -0.0972
  674SOL    HW2 2343   4.272   2.980   1.052  0.4324 -1.0497 -0.4944
  675SOL     OW 2344   0.094   3.086   1.019  0.3268 -0.1811  0.1576
  675SOL    HW1 2345   0.020   3.152   1.008 -0.6483 -1.1338  0.7889
  675SOL    HW2 2346   0.177   3.134   1.049  0.5166  1.1474 -2.2565
  676SOL     OW 2347   1.502   4.335   5.321  0.5320  0.1742  0.1558
  676SOL    HW1 2348   1.430   4.323   5.388  0.5245 -0.4794  0.0333
  676SOL    HW2 2349   1.462   4.346   5.230  0.5757  0.1674  0.1355
  677SOL     OW 2350   0.464   3.805   5.221 -0.2048  0.0055 -0.5846
  677SOL    HW1 2351   0.495   3.890   5.264  2.4424 -1.1599 -0.0536
  677SOL    HW2 2352   0.447   3.736   5.290 -3.4848  0.2899 -0.9061
  678SOL     OW 2353   1.045   2.868   0.543 -0.1801  0.0329 -0.5820
  678SOL    HW1 2354   1.087   2.862   0.634 -0.5311  1.2397 -0.3285
  678SOL    HW2 2355   1.073   2.788   0.489 -0.6284 -1.1492  0.8460
  679SOL     OW 2356   0.385   2.581   0.525  0.8009 -0.4472  0.1572
  679SOL    HW1 2357   0.349   2.671   0.501  0.0901 -0.1338  2.2053
  679SOL    HW2 2358   0.312   2.513   0.522  0.6302 -0.3538  1.5444
  680SOL     OW 2359   1.366   4.269   0.717  0.5317 -0.4120 -0.4582
  680SOL    HW1 2360   1.367   4.181   0.670 -1.5575 -1.7512  1.8460
  680SOL    HW2 2361   1.387   4.256   0.814  1.8001  1.8995 -0.3361
  681SOL     OW 2362   4.968   4.133   1.684  0.5658  0.1511 -0.1429
  681SOL    HW1 2363   4.907   4.186   1.624 -0.4645 -0.0531  0.6966
  681SOL    HW2 2364   5.055   4.180   1.693  0.9953 -0.1088 -2.2966
  682SOL     OW 2365   1.011   3.062   0.089 -0.4666  0.0810  0.4630
  682SOL    HW1 2366   0.937   3.081   0.153 -0.3378  2.2889  0.0264
  682SOL    HW2 2367   1.096   3.045   0.139 -0.4774  1.2628  0.8924
  683SOL     OW 2368   0.999   3.645   0.346  0.2422  0.5216  0.3731
  683SOL    HW1 2369   1.090   3.603   0.344 -0.0597 -0.1693  0.9646
  683SOL    HW2 2370   0.938   3.592   0.405 -1.1795 -0.2720 -1.6869
  684SOL     OW 2371   4.777   2.218   2.960  0.3125  0.3461  0.0276
  684SOL    HW1 2372   4.692   2.219   3.012  0.3416  2.5662  0.1119
  684SOL    HW2 2373   4.853   2.250   3.017  1.1040 -0.9445 -0.2517
  685SOL     OW 2374   5.576   2.470   0.639  0.5221  0.0527  0.4725
  685SOL    HW1 2375   5.492   2.498   0.594  1.6375 -0.0663 -1.8220
  685SOL    HW2 2376   5.556   2.396   0.703 -1.2086  0.5902  0.6111
  686SOL     OW 2377   1.936   2.999   5.413 -0.1701  0.1918 -0.7512
  686SOL    HW1 2378   2.010   2.957   5.465 -0.5900  1.5034  1.0085
  686SOL    HW2 2379   1.852   2.946   5.426  0.1263 -0.5291 -1.6501
  687SOL     OW 2380   0.148   1.946   0.214  0.0869  0.4614  0.4029
  687SOL    HW1 2381   0.150   1.872   0.147 -1.6111  0.5178  0.2532
  687SOL    HW2 2382   0.223   2.009   0.196  1.5900 -1.1940  0.5410
  688SOL     OW 2383   0.175   2.360   0.445 -0.3528 -0.0326  0.4515
  688SOL    HW1 2384   0.117   2.427   0.491 -0.0055  0.1616  0.6118
  688SOL    HW2 2385   0.183   2.385   0.348 -2.0989 -1.1351 -0.0222
  689SOL     OW 2386   1.728   4.160   0.310  0.2602 -0.1800 -0.0701
  689SOL    HW1 2387   1.635   4.194   0.317  0.2235 -0.1788 -0.5143
  689SOL    HW2 2388   1.792   4.237   0.305  0.1746 -0.1638 -1.1037
  690SOL     OW 2389   2.435   4.554   0.825 -0.5095 -0.2139 -0.1199
  690SOL    HW1 2390   2.345   4.564   0.783 -0.4832  1.0868  0.1005
  690SOL    HW2 2391   2.426   4.508   0.913 -0.7716 -1.4026 -0.7527
  691SOL     OW 2392   0.015   2.312   1.286 -0.7225  0.5468 -0.5357
  691SOL    HW1 2393   0.046   2.218   1.300  0.7871  1.1380  0.2446
  691SOL    HW2 2394  -0.047   2.338   1.360  0.7967  0.9439  0.6510
  692SOL     OW 2395   2.059   2.819   1.887 -0.2583 -0.7233  0.2766
  692SOL    HW1 2396   2.112   2.831   1.971 -0.7767 -0.9641  0.6477
  692SOL    HW2 2397   2.053   2.722   1.864 -1.2192 -0.7857  0.7076
  693SOL     OW 2398   2.378   4.197   0.007 -0.4059  0.1301 -0.8144
  693SOL    HW1 2399   2.305   4.130   0.017  0.2276 -0.6274 -1.1167
  693SOL    HW2 2400   2.459   4.165   0.057 -0.4654  1.2608  0.0581
  694SOL     OW 2401   1.083   3.407   4.770  0.9304  0.1944 -0.6897
  694SOL    HW1 2402   1.018   3.369   4.836  0.3905  0.9198 -0.8008
  694SOL    HW2 2403   1.134   3.482   4.811  2.0564 -0.6614 -0.4479
  695SOL     OW 2404   1.707   3.036   0.093  0.3375  0.1094  0.4236
  695SOL    HW1 2405   1.683   2.976   0.017 -1.5770  0.7328  0.4683
  695SOL    HW2 2406   1.741   3.123   0.058  1.9915 -0.5324  0.3495
  696SOL     OW 2407   1.180   2.136   1.542 -0.2999 -0.0102  0.0141
  696SOL    HW1 2408   1.255   2.166   1.601  0.0729 -1.0793  0.1040
  696SOL    HW2 2409   1.117   2.079   1.595 -1.8039  1.7812  0.2323
  697SOL     OW 2410   1.202   3.278   1.328 -0.1222  0.6921  0.0130
  697SOL    HW1 2411   1.172   3.206   1.266  2.0337  0.8310 -1.2676
  697SOL    HW2 2412   1.216   3.363   1.277  2.9360  0.4786  0.3374
  698SOL     OW 2413   1.789   2.568   0.572 -0.2984 -0.0542 -0.3860
  698SOL    HW1 2414   1.816   2.482   0.528 -0.8249 -1.0980  1.2353
  698SOL    HW2 2415   1.756   2.631   0.503 -1.1055 -1.6181 -1.5028
  699SOL     OW 2416   0.646   2.627   0.429  0.1212  0.0755 -0.2903
  699SOL    HW1 2417   0.695   2.706   0.466 -1.6194  1.7650 -1.4010
  699SOL    HW2 2418   0.551   2.629   0.461 -0.6683 -0.0183 -2.4582
  700SOL     OW 2419   1.288   2.531   4.942 -0.2132  0.5991 -0.0995
  700SOL    HW1 2420   1.259   2.625   4.961  0.7063  0.6915  0.9767
  700SOL    HW2 2421   1.255   2.470   5.014  1.3184  0.5432  0.6012
  701SOL     OW 2422   0.265   3.443   5.269 -0.0697  0.5836 -0.0218
  701SOL    HW1 2423   0.306   3.509   5.333  0.9957 -1.9936  2.1556
  701SOL    HW2 2424   0.173   3.419   5.301  0.6761 -1.1312  1.0031
  702SOL     OW 2425   0.164   4.777   0.713 -0.3174  0.5721  0.3827
  702SOL    HW1 2426   0.236   4.771   0.782  0.2286 -1.2287 -0.2863
  702SOL    HW2 2427   0.085   4.723   0.741 -0.2572  0.1725 -0.1958
  703SOL     OW 2428   0.026   3.446   0.812  0.3070 -0.0133 -0.2513
  703SOL    HW1 2429   0.074   3.534   0.810  1.0335 -0.3914 -1.8411
  703SOL    HW2 2430  -0.057   3.452   0.756  1.0849 -0.6805 -1.5293
  704SOL     OW 2431   0.201   2.531   1.157 -0.3369  0.0703  0.1614
  704SOL    HW1 2432   0.143   2.473   1.100 -0.3863 -1.5331  1.7400
  704SOL    HW2 2433   0.150   2.613   1.183 -1.1556 -0.3273 -0.1508
  705SOL     OW 2434   1.522   3.963   5.573  0.2319 -0.7663  0.0837
  705SOL    HW1 2435   1.423   3.958   5.580  0.0465 -0.0654 -1.5116
  705SOL    HW2 2436   1.548   4.037   5.510  1.7364 -1.3525 -0.0491
  706SOL     OW 2437   5.373   2.188   0.265 -0.4406  0.6961  0.5271
  706SOL    HW1 2438   5.453   2.164   0.320  0.9195  1.7382 -0.9368
  706SOL    HW2 2439   5.291   2.154   0.311  0.9265 -1.9004  1.2211
  707SOL     OW 2440   0.248   4.814   0.434 -0.3386  0.0204  0.1143
  707SOL    HW1 2441   0.342   4.847   0.445 -0.2762 -0.0196 -0.2723
  707SOL    HW2 2442   0.205   4.805   0.524 -0.6085  1.8405  0.2122
  708SOL     OW 2443   5.507   4.209   0.376 -0.5333 -0.3179  0.1128
  708SOL    HW1 2444   5.576   4.160   0.323 -0.7944 -1.9024  1.1491
  708SOL    HW2 2445   5.456   4.144   0.432 -2.4680  0.8914 -0.1530
  709SOL     OW 2446   1.607   4.551   1.531  0.3453 -0.8479  0.6109
  709SOL    HW1 2447   1.540   4.482   1.558  1.6112 -1.1118  3.3899
  709SOL    HW2 2448   1.678   4.509   1.474 -1.8306 -0.5042 -2.6265
  710SOL     OW 2449   2.748   2.364   1.858 -0.3629  0.1225 -0.5107
  710SOL    HW1 2450   2.845   2.359   1.882 -0.3898  0.0240 -0.4226
  710SOL    HW2 2451   2.707   2.274   1.867 -0.6676  0.3379  0.3168
  711SOL     OW 2452   1.258   3.017   0.251  0.4002 -0.3060  0.6289
  711SOL    HW1 2453   1.300   2.998   0.340  1.3277 -0.4509  0.1706
  711SOL    HW2 2454   1.275   2.942   0.188 -0.3267 -0.2441  0.3416
  712SOL     OW 2455   2.061   3.871   0.434 -0.4084  0.7660  0.1652
  712SOL    HW1 2456   2.085   3.951   0.380  0.2239 -0.1645 -0.9677
  712SOL    HW2 2457   2.043   3.793   0.374  1.1997 -0.5432  1.2809
  713SOL     OW 2458   4.403   1.922   0.835  0.5888 -0.2337 -0.4143
  713SOL    HW1 2459   4.439   1.979   0.909 -1.5411  1.6675 -0.7210
  713SOL    HW2 2460   4.419   1.968   0.747 -0.0313 -0.7595 -0.8100
  714SOL     OW 2461   1.422   3.169   5.143 -0.3282  0.2691  0.4761
  714SOL    HW1 2462   1.355   3.215   5.201 -0.9216  0.4455 -0.3289
  714SOL    HW2 2463   1.515   3.194   5.172 -0.6258  0.7441  1.0275
  715SOL     OW 2464   5.307   3.015   0.846  0.2670  0.0453 -0.8981
  715SOL    HW1 2465   5.344   2.927   0.873 -0.4716 -0.4970 -1.5854
  715SOL    HW2 2466   5.339   3.086   0.908  1.5142 -0.5737 -0.8168
  716SOL     OW 2467   1.845   3.797   0.580  0.1188 -0.2917  0.0720
  716SOL    HW1 2468   1.779   3.735   0.537  0.1692  0.1325 -0.6401
  716SOL    HW2 2469   1.907   3.832   0.510 -1.6355  2.7505 -0.1608
  717SOL     OW 2470   0.613   3.942   0.882 -0.6740 -0.0284 -0.1269
  717SOL    HW1 2471   0.674   3.946   0.803  2.2767  0.2265  1.9911
  717SOL    HW2 2472   0.583   3.848   0.897  1.6518 -0.7275  0.4464
  718SOL     OW 2473   1.072   2.248   0.110 -0.3837  0.9680 -0.1234
  718SOL    HW1 2474   1.100   2.189   0.033 -1.4654  0.7250 -0.3564
  718SOL    HW2 2475   1.141   2.244   0.182 -0.6119 -0.9365  0.0425
  719SOL     OW 2476   0.374   3.483   0.499 -0.0954 -0.1827 -0.2028
  719SOL    HW1 2477   0.373   3.463   0.597 -1.8016 -1.3714 -0.3983
  719SOL    HW2 2478   0.280   3.477   0.463  0.5462 -0.2490 -1.9879
  720SOL     OW 2479   2.167   2.896   5.463 -0.2607  0.0329 -0.1295
  720SOL    HW1 2480   2.234   2.896   5.389  0.0743  0.1012  0.1678
  720SOL    HW2 2481   2.212   2.924   5.548 -0.4156 -1.0110  0.3050
  721SOL     OW 2482   0.089   2.865   0.077 -0.3135  0.0633 -0.2592
  721SOL    HW1 2483   0.060   2.895   0.168 -0.3227  1.0633 -0.5795
  721SOL    HW2 2484   0.145   2.937   0.034  1.0377 -1.0401 -0.4188
  722SOL     OW 2485   1.232   2.764   5.299  0.4477  0.1057 -0.0118
  722SOL    HW1 2486   1.305   2.769   5.231 -0.2086  1.3924 -0.6572
  722SOL    HW2 2487   1.180   2.849   5.298  0.3242  0.1025  2.0163
  723SOL     OW 2488   0.961   3.729   5.327 -0.1124  0.6250  0.6697
  723SOL    HW1 2489   1.053   3.764   5.344  0.4687  0.1501 -1.2663
  723SOL    HW2 2490   0.904   3.744   5.408  0.6037  4.3522  0.6687
  724SOL     OW 2491   1.014   0.752   1.919  0.1104 -0.4811 -0.4197
  724SOL    HW1 2492   0.946   0.818   1.951  0.0023 -0.6306 -0.3409
  724SOL    HW2 2493   1.004   0.739   1.821  1.1726  0.8322 -0.7371
  725SOL     OW 2494   1.246   3.528   0.372 -0.5166 -0.4006 -0.3326
  725SOL    HW1 2495   1.313   3.471   0.419  0.2062 -0.9362 -1.9578
  725SOL    HW2 2496   1.290   3.577   0.297 -1.4977  0.9868 -0.0630
  726SOL     OW 2497   1.976   2.830   0.480  0.2191  0.1298 -0.6829
  726SOL    HW1 2498   1.886   2.820   0.439 -0.3335 -0.5798  0.6410
  726SOL    HW2 2499   2.030   2.747   0.465  0.5686  0.4414 -1.2209
  727SOL     OW 2500   0.654   4.718   0.719 -0.1617 -0.5291 -0.3305
  727SOL    HW1 2501   0.669   4.714   0.620 -1.6856  0.5038 -0.6352
  727SOL    HW2 2502   0.567   4.673   0.741  0.0297 -0.5014  0.5137
  728SOL     OW 2503   0.405   3.628   5.427  0.1966  0.0723 -0.6155
  728SOL    HW1 2504   0.378   3.679   5.509 -0.8689 -0.8853 -0.3509
  728SOL    HW2 2505   0.497   3.590   5.441  0.0812  0.0309  0.0733
  729SOL     OW 2506   1.367   3.649   0.159  0.5579 -0.5230 -0.3194
  729SOL    HW1 2507   1.354   3.745   0.133 -1.2421 -0.9433 -1.1385
  729SOL    HW2 2508   1.425   3.604   0.091 -1.0563 -0.6962 -1.6637
  730SOL     OW 2509   1.447   3.181   1.282  0.0976 -0.5643  0.0410
  730SOL    HW1 2510   1.483   3.258   1.230  0.3146 -1.7647 -1.6621
  730SOL    HW2 2511   1.353   3.200   1.310  0.5552  0.8009  0.7280
  731SOL     OW 2512   1.079   1.890   0.399 -0.3016  0.3320 -0.3412
  731SOL    HW1 2513   0.990   1.920   0.364 -2.9402 -3.0477  2.7172
  731SOL    HW2 2514   1.082   1.790   0.401  3.0761  0.3337  1.0276
  732SOL     OW 2515   0.500   1.799   5.545 -0.8272  0.2606  0.1044
  732SOL    HW1 2516   0.581   1.841   5.587  0.3346 -0.6839 -1.1024
  732SOL    HW2 2517   0.480   1.712   5.591  0.4527 -0.7798 -1.1930
  733SOL     OW 2518   1.365   2.348   1.748  0.0126 -0.2034  0.3398
  733SOL    HW1 2519   1.405   2.382   1.663 -2.5508 -0.3597 -1.0244
  733SOL    HW2 2520   1.436   2.305   1.804  1.5499 -1.3640 -2.3457
  734SOL     OW 2521   0.829   3.836  -0.027  0.7601 -0.1672  0.3037
  734SOL    HW1 2522   0.913   3.863   0.020  1.6626 -1.3017 -0.5810
  734SOL    HW2 2523   0.799   3.747   0.008  0.0473  0.1214  0.4458
  735SOL     OW 2524   0.661   3.105   5.412 -0.3078  0.2511 -0.6478
  735SOL    HW1 2525   0.672   3.155   5.326 -1.8609  0.7833 -0.5691
  735SOL    HW2 2526   0.607   3.160   5.476  1.4552  0.1860  0.9702
  736SOL     OW 2527   1.586   3.604   0.495 -0.6222 -0.6018 -0.4238
  736SOL    HW1 2528   1.616   3.595   0.400 -0.0492 -2.3693 -0.1038
  736SOL    HW2 2529   1.503   3.660   0.498  0.2817  0.9035 -1.7597
  737SOL     OW 2530   1.113   2.333   0.593  0.2382 -0.3615  0.0896
  737SOL    HW1 2531   1.106   2.237   0.567 -0.6668 -0.1860 -0.3380
  737SOL    HW2 2532   1.204   2.368   0.566 -0.2687 -0.4705 -1.9736
  738SOL     OW 2533   0.743   2.117   0.461  0.1107 -0.6317 -0.0509
  738SOL    HW1 2534   0.733   2.215   0.441  0.9931 -0.9889 -2.6051
  738SOL    HW2 2535   0.654   2.072   0.454 -0.0843 -0.2224 -0.2207
  739SOL     OW 2536   4.953   3.321   0.840  0.0337 -0.4295 -0.1519
  739SOL    HW1 2537   4.939   3.384   0.916 -1.3738  0.0015 -0.7250
  739SOL    HW2 2538   5.042   3.338   0.798  0.3363  0.0962  0.6750
  740SOL     OW 2539   0.338   2.846   5.349  0.6077  0.1933 -0.9537
  740SOL    HW1 2540   0.400   2.794   5.290 -0.1042 -0.5245 -1.0765
  740SOL    HW2 2541   0.249   2.856   5.304  0.4882  0.8430 -0.5903
  741SOL     OW 2542   1.171   1.899   0.924  0.2901 -0.2673  0.6252
  741SOL    HW1 2543   1.139   1.821   0.978  0.2369 -0.3077  0.5349
  741SOL    HW2 2544   1.156   1.983   0.975  0.1555 -0.2971  0.6339
  742SOL     OW 2545   1.021   3.809   0.938 -0.6689  0.0778  0.5058
  742SOL    HW1 2546   0.999   3.905   0.920 -0.1824 -0.0870 -1.1766
  742SOL    HW2 2547   1.119   3.794   0.924 -0.9990 -0.9740 -0.9595
  743SOL     OW 2548   2.342   2.851   0.553 -0.2702  0.5326  0.7062
  743SOL    HW1 2549   2.433   2.829   0.588 -0.6045 -0.2872  1.0864
  743SOL    HW2 2550   2.301   2.921   0.610 -0.1697  0.3611  0.9954
  744SOL     OW 2551   2.187   2.520   0.734  0.2614  0.1351 -0.6440
  744SOL    HW1 2552   2.238   2.434   0.729  1.2877  0.7911 -2.0646
  744SOL    HW2 2553   2.124   2.525   0.657  0.4761  0.8060 -0.7791
  745SOL     OW 2554   1.877   3.183   0.950 -0.0734  0.3084 -0.1414
  745SOL    HW1 2555   1.861   3.089   0.919  1.9925 -0.0262 -0.3685
  745SOL    HW2 2556   1.880   3.185   1.050 -1.0617  0.3186 -0.1071
  746SOL     OW 2557   2.361   2.467   1.036 -0.1914 -0.2437  0.0226
  746SOL    HW1 2558   2.280   2.520   1.062 -0.6707 -0.4757 -0.9528
  746SOL    HW2 2559   2.422   2.525   0.983 -0.1831 -0.3503 -0.0840
  747SOL     OW 2560   1.045   2.527   0.097  0.4256 -0.1387 -0.1067
  747SOL    HW1 2561   1.072   2.559   0.006 -1.4395 -1.6595 -1.2888
  747SOL    HW2 2562   1.076   2.432   0.109  0.5576  0.0117  0.8244
  748SOL     OW 2563   0.192   2.059   4.913  0.7258  0.6792 -0.0727
  748SOL    HW1 2564   0.129   1.987   4.882  0.0196  1.8556 -1.4563
  748SOL    HW2 2565   0.195   2.059   5.013 -0.2414 -0.4378 -0.0190
  749SOL     OW 2566   1.941   3.222   1.211 -0.0485 -0.2910 -0.3325
  749SOL    HW1 2567   1.922   3.289   1.283 -0.4554 -0.2472 -0.4797
  749SOL    HW2 2568   2.031   3.181   1.227 -0.0636 -0.1608  0.1111
  750SOL     OW 2569   2.038   3.342   0.370 -0.1249 -0.1904 -0.4723
  750SOL    HW1 2570   2.082   3.264   0.327 -0.6755  0.4146 -2.2101
  750SOL    HW2 2571   1.943   3.320   0.391 -0.6740  0.3946 -2.1893
  751SOL     OW 2572   0.761   4.009   0.670 -0.1716 -0.0550  0.6170
  751SOL    HW1 2573   0.743   4.096   0.624 -0.4819 -0.4867 -0.0860
  751SOL    HW2 2574   0.756   3.935   0.604  0.8882 -0.5358  1.0501
  752SOL     OW 2575   1.774   3.306   0.420  0.4423 -0.8425 -0.0637
  752SOL    HW1 2576   1.738   3.330   0.510  1.1280 -0.6442  0.1634
  752SOL    HW2 2577   1.720   3.354   0.350 -0.5037 -1.5031  0.1925
  753SOL     OW 2578   2.777   2.791   5.007  0.4892  0.2310 -0.7889
  753SOL    HW1 2579   2.778   2.811   4.909 -1.4443  1.7176 -0.5566
  753SOL    HW2 2580   2.757   2.875   5.058  2.1733 -0.3578  0.9697
  754SOL     OW 2581   1.789   2.266   0.078 -0.0151 -0.2551  0.0977
  754SOL    HW1 2582   1.724   2.208   0.128 -1.3538  1.0182 -0.0788
  754SOL    HW2 2583   1.755   2.281  -0.015  0.5012  0.4733  0.0205
  755SOL     OW 2584   1.329   3.077   2.009  0.3642 -0.3569  0.1602
  755SOL    HW1 2585   1.331   2.988   1.965 -1.2343 -1.2657  1.7759
  755SOL    HW2 2586   1.294   3.145   1.945 -2.0814 -1.6627 -0.0285
  756SOL     OW 2587   0.682   3.291   5.203  0.7928 -0.5473 -0.1452
  756SOL    HW1 2588   0.602   3.325   5.153  0.9217 -1.3419 -0.9209
  756SOL    HW2 2589   0.764   3.303   5.146  1.0095 -1.0416  0.0648
  757SOL     OW 2590   1.212   3.935   1.586 -0.0962  0.1103 -0.6319
  757SOL    HW1 2591   1.188   3.950   1.490 -0.0905 -0.6112 -0.7462
  757SOL    HW2 2592   1.311   3.932   1.596 -0.0165  2.2493 -0.2830
  758SOL     OW 2593   1.007   1.833   2.052  0.2327  0.4199  0.1513
  758SOL    HW1 2594   0.992   1.921   2.007 -0.5255  0.4985  0.5388
  758SOL    HW2 2595   1.044   1.768   1.986  1.6669  1.2671  0.0757
  759SOL     OW 2596   0.049   3.548   0.090  0.3038  0.0293  0.5288
  759SOL    HW1 2597   0.028   3.457   0.055 -1.7740  1.4019 -2.2962
  759SOL    HW2 2598   0.052   3.547   0.189 -0.6754 -2.8915  0.6079
  760SOL     OW 2599   5.164   2.108   0.941 -0.1324  0.8005 -0.4587
  760SOL    HW1 2600   5.209   2.026   0.908  0.1791  1.2951 -1.3018
  760SOL    HW2 2601   5.187   2.185   0.882  0.4128  1.7244  0.9059
  761SOL     OW 2602   0.856   2.705   1.379 -0.2734  0.2701  0.6871
  761SOL    HW1 2603   0.821   2.612   1.385 -0.6297  0.3151 -0.4574
  761SOL    HW2 2604   0.782   2.766   1.351 -0.6561  1.3158  3.6714
  762SOL     OW 2605   1.148   3.294   0.246  0.0054 -0.1517  0.5852
  762SOL    HW1 2606   1.186   3.348   0.321  3.7811 -0.0908 -1.1414
  762SOL    HW2 2607   1.161   3.197   0.264  0.9217 -0.1375  0.0580
  763SOL     OW 2608   1.907   4.104   1.017 -0.3145 -0.1697  0.7230
  763SOL    HW1 2609   1.844   4.028   1.034 -3.3742  1.5523 -1.9263
  763SOL    HW2 2610   1.990   4.069   0.974 -1.6224 -2.0644 -0.4140
  764SOL     OW 2611   1.747   1.376   1.627  0.3685 -0.4475  0.6192
  764SOL    HW1 2612   1.680   1.316   1.672  0.4698 -1.2223 -0.2241
  764SOL    HW2 2613   1.702   1.422   1.550  1.2811 -2.7137 -1.4109
  765SOL     OW 2614   5.132   4.490   5.508 -0.5503 -0.5049 -0.0866
  765SOL    HW1 2615   5.099   4.520   5.418  1.5285  0.6187 -0.5460
  765SOL    HW2 2616   5.058   4.497   5.574 -1.6038  0.6162 -1.3039
  766SOL     OW 2617   4.677   1.528   1.778  0.0422  0.0990  0.4482
  766SOL    HW1 2618   4.777   1.527   1.784  0.1546 -1.8057 -0.8491
  766SOL    HW2 2619   4.649   1.604   1.719  0.8114 -0.0564 -0.1333
  767SOL     OW 2620   1.064   2.873   1.395  0.1850 -0.3100 -0.0639
  767SOL    HW1 2621   0.980   2.819   1.393 -0.6914  0.8992  1.6264
  767SOL    HW2 2622   1.131   2.829   1.456  0.4782 -0.8134 -0.7302
  768SOL     OW 2623   1.164   2.526   1.265 -0.1561 -0.2654 -0.4606
  768SOL    HW1 2624   1.203   2.564   1.182 -0.0750 -0.3951 -0.4826
  768SOL    HW2 2625   1.068   2.500   1.248 -0.1594 -0.2307 -0.4942
  769SOL     OW 2626   1.024   2.446   2.296  0.1916  0.2427 -0.8225
  769SOL    HW1 2627   1.102   2.481   2.244 -0.1649  0.0298 -1.5207
  769SOL    HW2 2628   1.042   2.454   2.394  1.0463  0.2780 -0.9788
  770SOL     OW 2629   5.388   3.602   1.154 -0.3067 -0.4321 -0.0277
  770SOL    HW1 2630   5.341   3.593   1.067  0.3148 -2.3627 -0.2112
  770SOL    HW2 2631   5.442   3.686   1.154  0.8874 -1.1193 -2.1288
  771SOL     OW 2632   1.689   3.903   0.970 -0.1924  0.2468 -0.0893
  771SOL    HW1 2633   1.656   3.968   0.901 -1.2387 -0.6564 -0.4546
  771SOL    HW2 2634   1.752   3.839   0.927 -0.9332 -0.3872 -0.2435
  772SOL     OW 2635   2.062   1.166   5.061 -0.4605 -0.0847 -0.1351
  772SOL    HW1 2636   1.984   1.157   5.122  0.8576 -1.0449  1.4980
  772SOL    HW2 2637   2.038   1.130   4.971 -1.4934 -1.6675  0.7254
  773SOL     OW 2638   4.185   1.377   1.103 -0.3890  0.1493  0.4236
  773SOL    HW1 2639   4.227   1.287   1.090  1.0747  0.9810 -0.9802
  773SOL    HW2 2640   4.255   1.448   1.092 -1.6509  1.4938  0.8124
  774SOL     OW 2641   0.082   3.856   1.814 -0.0954  0.0962 -0.3399
  774SOL    HW1 2642   0.171   3.822   1.844  0.0299 -0.8357 -1.6820
  774SOL    HW2 2643   0.022   3.779   1.796 -1.5473  0.7257  1.4902
  775SOL     OW 2644   0.445   3.715   2.136  0.1596 -0.0067 -0.5812
  775SOL    HW1 2645   0.433   3.814   2.138  0.4100  0.0212  0.9002
  775SOL    HW2 2646   0.518   3.690   2.072  1.2861  0.9151  0.3186
  776SOL     OW 2647   1.314   2.687   1.060 -0.2069  0.2403  0.2245
  776SOL    HW1 2648   1.342   2.758   1.124 -0.1058  1.0534 -0.7059
  776SOL    HW2 2649   1.394   2.645   1.018 -0.2903  0.0905  0.2115
  777SOL     OW 2650   3.711   2.676   0.297 -0.7085  0.0542  0.0419
  777SOL    HW1 2651   3.666   2.739   0.361 -3.1128 -1.2240 -0.2535
  777SOL    HW2 2652   3.745   2.596   0.346 -0.5924  0.0809  0.0049
  778SOL     OW 2653   2.538   2.105   5.130  0.1516 -0.2749 -0.2309
  778SOL    HW1 2654   2.446   2.144   5.122  0.4376  0.6027  0.5635
  778SOL    HW2 2655   2.569   2.074   5.040 -0.8826 -0.4953 -0.5240
  779SOL     OW 2656   1.347   2.987   1.588  0.2836 -0.4620  0.5902
  779SOL    HW1 2657   1.314   3.074   1.623 -0.4807  0.4345 -2.1176
  779SOL    HW2 2658   1.441   2.997   1.555  0.2877 -0.7348  0.5111
  780SOL     OW 2659   2.398   3.353   1.649 -0.3303  0.4973  0.4652
  780SOL    HW1 2660   2.373   3.257   1.650 -1.6126  0.8199  0.3150
  780SOL    HW2 2661   2.360   3.397   1.568 -1.3901  1.5370  1.4797
  781SOL     OW 2662   2.293   2.736   1.660  0.3990 -0.4717 -0.4767
  781SOL    HW1 2663   2.354   2.677   1.608 -0.3772 -1.8682  0.1528
  781SOL    HW2 2664   2.231   2.680   1.715  0.7935  0.9362  1.5034
  782SOL     OW 2665   5.336   2.531   0.512 -0.2174 -0.0615 -0.3701
  782SOL    HW1 2666   5.243   2.509   0.541 -0.3637  0.6518 -0.2789
  782SOL    HW2 2667   5.355   2.487   0.424 -1.3104  1.2778 -1.3269
  783SOL     OW 2668   1.180   2.345   5.115 -0.1035 -0.0946  0.4057
  783SOL    HW1 2669   1.084   2.334   5.141 -0.0336  1.2463  1.3470
  783SOL    HW2 2670   1.225   2.256   5.112 -1.0156 -0.6061  1.4287
  784SOL     OW 2671   1.067   3.326   4.025  0.1687  0.1882  0.2175
  784SOL    HW1 2672   1.058   3.236   4.068 -1.0116 -0.2757 -0.9313
  784SOL    HW2 2673   0.987   3.382   4.047  0.5899  0.7341  0.3913
  785SOL     OW 2674   5.425   3.867   1.260 -0.2463 -0.5250  0.5418
  785SOL    HW1 2675   5.399   3.963   1.274  0.4538 -0.0932 -0.9704
  785SOL    HW2 2676   5.353   3.808   1.297 -1.0388  0.5808  0.8416
  786SOL     OW 2677   4.438   1.974   3.777  0.1535  0.2020  0.4112
  786SOL    HW1 2678   4.342   1.969   3.749 -0.1624 -2.0547  1.6320
  786SOL    HW2 2679   4.456   2.063   3.818 -1.9180  0.1037  1.6959
  787SOL     OW 2680   4.969   3.236   1.279 -0.5588  0.3349  0.1800
  787SOL    HW1 2681   4.881   3.262   1.240 -0.6944 -0.8376 -0.3176
  787SOL    HW2 2682   5.030   3.204   1.207  0.1170  0.6628  0.5887
  788SOL     OW 2683   1.749   2.589   1.340 -0.0003 -0.0082  0.3688
  788SOL    HW1 2684   1.675   2.616   1.401 -0.4918  1.1776 -0.7145
  788SOL    HW2 2685   1.829   2.565   1.394 -1.2696 -1.7710  1.6064
  789SOL     OW 2686   1.316   2.075   1.294 -0.7227  0.1784  0.5069
  789SOL    HW1 2687   1.246   2.110   1.357 -1.5792  2.0513 -1.3538
  789SOL    HW2 2688   1.395   2.136   1.294  0.2721 -1.0468  1.3786
  790SOL     OW 2689   0.709   2.659   0.117 -0.0440 -0.0549 -0.1620
  790SOL    HW1 2690   0.798   2.664   0.073 -0.6524  0.4784 -1.3869
  790SOL    HW2 2691   0.717   2.612   0.205  1.5571  0.6013  0.0727
  791SOL     OW 2692   0.027   3.975   5.436 -0.0989  0.1845 -0.2422
  791SOL    HW1 2693   0.112   4.000   5.482 -0.0373  0.5212 -0.5318
  791SOL    HW2 2694  -0.051   4.015   5.484 -0.2684 -1.7273  1.1725
  792SOL     OW 2695   0.882   3.209   2.263  0.0698  0.4805 -0.4420
  792SOL    HW1 2696   0.967   3.169   2.230 -0.2928  0.3722 -1.2703
  792SOL    HW2 2697   0.820   3.136   2.292 -0.7472  0.3622 -2.3298
  793SOL     OW 2698   1.585   3.710   4.472  0.1974  0.3763  0.5249
  793SOL    HW1 2699   1.628   3.730   4.560 -1.4569  0.1205  1.4174
  793SOL    HW2 2700   1.551   3.616   4.471 -1.6651  1.0035  0.4532
  794SOL     OW 2701   0.536   2.483   1.861  0.2784 -0.2479 -0.3400
  794SOL    HW1 2702   0.447   2.472   1.817  0.8947 -0.8561 -1.4837
  794SOL    HW2 2703   0.528   2.464   1.959 -1.1768  1.3513 -0.0970
  795SOL     OW 2704   0.170   1.363   1.626  0.0904  0.3653 -0.1379
  795SOL    HW1 2705   0.192   1.448   1.674 -0.3141 -0.7173  2.1291
  795SOL    HW2 2706   0.072   1.359   1.607 -0.0085  0.1295  0.3934
  796SOL     OW 2707   1.284   2.783   0.124  0.6029 -0.4794  0.0048
  796SOL    HW1 2708   1.329   2.726   0.193  0.2698 -0.2007  0.4599
  796SOL    HW2 2709   1.191   2.749   0.109  0.9316 -1.0165 -0.8856
  797SOL     OW 2710   2.072   2.156   0.122  0.4029 -0.0844 -0.0279
  797SOL    HW1 2711   2.096   2.066   0.157 -0.0238  0.6387  2.2846
  797SOL    HW2 2712   1.975   2.174   0.139  0.8354  1.4218  1.0581
  798SOL     OW 2713   2.147   1.933   1.784 -0.5499  0.6667  0.3980
  798SOL    HW1 2714   2.225   1.873   1.770 -0.2989  1.4496 -2.0045
  798SOL    HW2 2715   2.062   1.880   1.777 -0.3330  0.5189 -1.6143
  799SOL     OW 2716   0.280   3.497   1.467 -0.3563 -0.2460  0.5188
  799SOL    HW1 2717   0.202   3.481   1.406 -0.1375  1.4943 -0.2872
  799SOL    HW2 2718   0.306   3.412   1.512 -1.2095 -1.3631 -1.0257
  800SOL     OW 2719   1.069   2.668   0.358 -0.1869  0.0687 -0.6004
  800SOL    HW1 2720   1.168   2.671   0.366 -0.2509  1.6029  0.1146
  800SOL    HW2 2721   1.042   2.591   0.301  1.4016 -0.4218 -0.7358
  801SOL     OW 2722   0.989   2.985   1.026  0.0553 -0.0255 -0.3144
  801SOL    HW1 2723   0.907   3.030   1.061  0.5510  1.7382 -1.2709
  801SOL    HW2 2724   1.065   3.000   1.089 -0.2588 -1.3951  0.4189
  802SOL     OW 2725   1.096   1.172   4.960 -0.1937  0.5828 -0.1797
  802SOL    HW1 2726   1.192   1.170   4.932 -0.1093  1.5590  0.0133
  802SOL    HW2 2727   1.047   1.095   4.918  0.3175  0.9855 -1.5727
  803SOL     OW 2728   1.465   2.884   1.195  0.1126  0.1068  0.1114
  803SOL    HW1 2729   1.524   2.887   1.114  2.7094 -1.5033  1.8161
  803SOL    HW2 2730   1.472   2.970   1.245  0.3986  0.2235 -0.1278
  804SOL     OW 2731   1.430   2.898   5.128  0.1920 -0.5207  0.5223
  804SOL    HW1 2732   1.526   2.882   5.106  0.6456  0.0725  1.9659
  804SOL    HW2 2733   1.418   2.993   5.157 -0.6575 -0.8364  1.2513
  805SOL     OW 2734   2.578   3.423   0.950 -0.1545 -0.0905 -0.3528
  805SOL    HW1 2735   2.580   3.330   0.914  0.3194 -0.0239 -0.5025
  805SOL    HW2 2736   2.485   3.445   0.981 -0.5720 -0.1392 -1.5447
  806SOL     OW 2737   1.805   2.087   0.350 -0.3762 -0.2023  0.0516
  806SOL    HW1 2738   1.836   2.137   0.431  1.1332  1.1171 -1.2716
  806SOL    HW2 2739   1.718   2.127   0.318 -1.1067 -0.8885  1.1203
  807SOL     OW 2740   5.062   2.844   2.083  0.0487  0.2280  0.8103
  807SOL    HW1 2741   5.121   2.904   2.029  1.1569 -0.5326  1.1587
  807SOL    HW2 2742   5.031   2.769   2.025 -2.6500  1.8909 -0.1098
  808SOL     OW 2743   0.675   3.852   1.219  0.5779  0.0030 -0.5699
  808SOL    HW1 2744   0.774   3.862   1.231  0.4453  0.1708  0.5051
  808SOL    HW2 2745   0.627   3.916   1.279 -0.2056 -1.8441  0.9128
  809SOL     OW 2746   1.318   1.975   0.299 -0.8463 -0.3584  0.1089
  809SOL    HW1 2747   1.335   1.930   0.211 -2.0324 -0.0457 -0.3050
  809SOL    HW2 2748   1.224   1.957   0.328 -1.5646  2.2569 -0.3626
  810SOL     OW 2749   1.128   2.543   5.434 -0.1816 -0.6988 -0.5659
  810SOL    HW1 2750   1.147   2.634   5.396  0.2255 -1.4254 -2.1983
  810SOL    HW2 2751   1.206   2.482   5.415  0.3136 -0.9655  2.0413
  811SOL     OW 2752   1.923   4.645   1.713  0.3926  0.8112  0.2468
  811SOL    HW1 2753   1.994   4.641   1.642 -0.8127 -1.8186 -0.9666
  811SOL    HW2 2754   1.848   4.703   1.681  0.1692  0.2116 -0.3331
  812SOL     OW 2755   0.572   2.533   2.135  0.0846 -1.0361  0.6579
  812SOL    HW1 2756   0.669   2.512   2.121 -0.2677 -1.0314 -2.9295
  812SOL    HW2 2757   0.559   2.632   2.131 -0.2424 -1.1196 -1.1046
  813SOL     OW 2758   0.151   2.782   1.313 -0.0687 -0.6575  0.0378
  813SOL    HW1 2759   0.116   2.737   1.395 -1.4483 -1.0455 -0.7313
  813SOL    HW2 2760   0.076   2.827   1.265  1.0414  1.3032  0.0292
  814SOL     OW 2761   5.074   3.140   1.646  0.5082  0.4082  0.3453
  814SOL    HW1 2762   4.984   3.098   1.633 -0.0898  1.7521 -0.0804
  814SOL    HW2 2763   5.062   3.234   1.679  1.7574  0.6301  0.2108
  815SOL     OW 2764   0.601   3.386   0.407 -0.1407  0.1856  0.2322
  815SOL    HW1 2765   0.515   3.435   0.422 -0.9860 -0.4816 -2.1020
  815SOL    HW2 2766   0.584   3.287   0.409  0.1701  0.0432 -2.0177
  816SOL     OW 2767   1.680   4.496   0.750 -0.0017 -0.6422  0.5499
  816SOL    HW1 2768   1.738   4.415   0.757  0.0414 -0.6768 -0.1192
  816SOL    HW2 2769   1.655   4.511   0.654  0.5449  0.5095  0.5672
  817SOL     OW 2770   2.882   1.389   0.435  0.1709 -0.1772  0.6591
  817SOL    HW1 2771   2.812   1.459   0.454  1.1655  0.8447  0.6903
  817SOL    HW2 2772   2.853   1.333   0.358 -1.0316 -0.2631  1.1638
  818SOL     OW 2773   0.031   2.904   0.754 -0.5810 -0.3602 -0.0775
  818SOL    HW1 2774   0.051   2.972   0.823 -0.6516  0.3850 -0.7750
  818SOL    HW2 2775  -0.045   2.935   0.696 -0.9657 -1.2645 -0.0787
  819SOL     OW 2776   0.354   3.196   5.388  0.6090 -0.4064 -0.6150
  819SOL    HW1 2777   0.391   3.222   5.478 -0.3470  0.6999 -0.5143
  819SOL    HW2 2778   0.331   3.279   5.337  2.5561 -0.9388 -2.5220
  820SOL     OW 2779   1.267   2.848   0.729  0.0908  0.1665  0.2680
  820SOL    HW1 2780   1.362   2.817   0.724 -0.6402 -2.0752 -2.4547
  820SOL    HW2 2781   1.216   2.789   0.792  0.0025 -0.3286 -0.2516
  821SOL     OW 2782   0.791   3.133   0.256 -0.0397  0.3187  0.1560
  821SOL    HW1 2783   0.719   3.063   0.258  0.7285 -0.4956  0.1350
  821SOL    HW2 2784   0.834   3.139   0.345 -0.0882  0.7562  0.1496
  822SOL     OW 2785   1.228   4.524   0.248  0.4196 -0.3757  0.0350
  822SOL    HW1 2786   1.269   4.499   0.336  0.7207 -0.1801 -0.0477
  822SOL    HW2 2787   1.144   4.576   0.264  0.9906  0.5217  0.2160
  823SOL     OW 2788   0.941   4.114   1.187  0.1242 -0.2003 -0.9329
  823SOL    HW1 2789   1.028   4.147   1.150 -0.0056 -0.6829 -1.6912
  823SOL    HW2 2790   0.937   4.015   1.180  0.1305 -0.3183  0.4943
  824SOL     OW 2791   2.182   4.469   1.039  0.2477  0.3952  0.6055
  824SOL    HW1 2792   2.146   4.476   0.946  1.4174 -1.6435 -0.0685
  824SOL    HW2 2793   2.137   4.536   1.098 -1.2802  1.0091 -1.1821
  825SOL     OW 2794   2.129   3.115   0.284  0.5766  0.0651 -0.7807
  825SOL    HW1 2795   2.082   3.034   0.319  1.1107  0.4219  0.8372
  825SOL    HW2 2796   2.151   3.101   0.188 -0.4325 -1.1991 -0.8608
  826SOL     OW 2797   1.382   1.936   0.748  0.4998  0.4313  0.5956
  826SOL    HW1 2798   1.456   1.870   0.757 -0.6210 -1.1637 -1.3031
  826SOL    HW2 2799   1.318   1.925   0.824  0.3994 -0.5917  0.3758
  827SOL     OW 2800   1.176   4.236   1.085 -0.0497 -0.1209 -0.0525
  827SOL    HW1 2801   1.134   4.265   0.999  2.0357  2.9782 -0.1988
  827SOL    HW2 2802   1.271   4.209   1.069 -0.0044 -0.7366  1.1329
  828SOL     OW 2803   1.748   0.968   1.069 -0.2577  0.7051 -0.0859
  828SOL    HW1 2804   1.820   0.989   1.135 -1.7224 -0.5383  2.0259
  828SOL    HW2 2805   1.742   1.042   1.001  0.6705  2.5426  1.7357
  829SOL     OW 2806   0.807   3.645   4.643 -0.5997 -0.5910  0.2279
  829SOL    HW1 2807   0.722   3.640   4.589 -0.6244  2.1913 -0.1533
  829SOL    HW2 2808   0.791   3.606   4.733 -1.3857 -2.7558 -0.7687
  830SOL     OW 2809   4.645   0.468   2.587  0.2905 -0.1518 -0.4836
  830SOL    HW1 2810   4.698   0.491   2.506 -0.3828  1.8860 -0.4056
  830SOL    HW2 2811   4.615   0.552   2.632 -0.7621 -1.2430  0.9550
  831SOL     OW 2812   0.343   3.388   0.031 -0.0770 -0.1514 -0.0090
  831SOL    HW1 2813   0.269   3.337   0.074 -0.8130  0.5095 -0.4398
  831SOL    HW2 2814   0.321   3.486   0.035  0.8251  0.0570 -0.0652
  832SOL     OW 2815   5.077   2.627   5.144 -0.1851  0.2567 -0.1646
  832SOL    HW1 2816   5.055   2.718   5.111  0.4899 -0.5725 -3.2715
  832SOL    HW2 2817   5.162   2.630   5.197  1.0055  1.2400 -1.9960
  833SOL     OW 2818   0.623   2.673   1.096  0.1440  0.1468 -0.6230
  833SOL    HW1 2819   0.546   2.730   1.126  0.9782  1.4973 -0.9382
  833SOL    HW2 2820   0.606   2.578   1.122 -0.6578  0.7325  1.1880
  834SOL     OW 2821   1.748   5.519   4.659 -0.0185  0.4296 -0.2163
  834SOL    HW1 2822   1.773   5.436   4.608 -1.5405 -0.6855  0.7793
  834SOL    HW2 2823   1.754   5.501   4.757  0.6670  1.8597  0.0305
  835SOL     OW 2824   1.472   3.274   4.620 -0.0098 -0.3289  0.4591
  835SOL    HW1 2825   1.496   3.186   4.578 -1.6128 -0.0816 -1.0929
  835SOL    HW2 2826   1.462   3.262   4.719  2.9263 -1.1436  0.7552
  836SOL     OW 2827   1.228   3.941   0.700 -0.2504  0.3276 -0.1844
  836SOL    HW1 2828   1.272   3.881   0.768  0.6720  2.9817  1.7518
  836SOL    HW2 2829   1.151   3.988   0.743  0.1919  1.8845 -1.0210
  837SOL     OW 2830   1.590   4.610   0.119  0.5945 -0.0100 -0.5966
  837SOL    HW1 2831   1.527   4.669   0.067  0.7139 -0.5333 -1.3545
  837SOL    HW2 2832   1.558   4.515   0.115  1.6285 -0.3517 -1.3391
  838SOL     OW 2833   0.170   1.528   0.920 -0.0638 -0.3758  0.2668
  838SOL    HW1 2834   0.201   1.618   0.951  0.4920 -0.9033  1.3174
  838SOL    HW2 2835   0.154   1.469   0.999 -0.4320 -1.1992 -0.4034
  839SOL     OW 2836   1.448   2.867   1.858 -0.0063  0.1506 -0.2415
  839SOL    HW1 2837   1.387   2.793   1.830 -0.4074  0.0843  0.7502
  839SOL    HW2 2838   1.487   2.911   1.777  0.0810 -1.0068 -0.8526
  840SOL     OW 2839   5.188   4.341   0.615 -0.2913  0.3129 -0.1677
  840SOL    HW1 2840   5.259   4.412   0.619 -0.6452  0.6783 -0.3135
  840SOL    HW2 2841   5.232   4.251   0.609  0.1589  0.5343 -0.2848
  841SOL     OW 2842   3.059   2.890   0.655 -0.1508 -0.1242 -0.1889
  841SOL    HW1 2843   3.003   2.906   0.573  1.6548  0.8503 -1.3169
  841SOL    HW2 2844   3.003   2.849   0.726 -1.8358 -0.9018 -1.8660
  842SOL     OW 2845   1.500   3.109   4.882 -0.0905 -0.0335  0.2956
  842SOL    HW1 2846   1.456   3.123   4.971 -0.4306  0.9266 -0.0129
  842SOL    HW2 2847   1.587   3.061   4.895  0.0637  0.4643  1.1867
  843SOL     OW 2848   0.150   2.378   5.504  0.0856  0.3305  1.2018
  843SOL    HW1 2849   0.191   2.462   5.539  1.6424 -0.0647  0.3925
  843SOL    HW2 2850   0.189   2.356   5.415 -1.1051 -0.6715  0.9038
  844SOL     OW 2851   2.756   2.883   4.770  0.2936  0.5603  0.2024
  844SOL    HW1 2852   2.732   2.796   4.726  1.3849 -0.9390  2.3681
  844SOL    HW2 2853   2.687   2.952   4.749 -1.0337 -1.0483 -0.9270
  845SOL     OW 2854   1.350   2.965   0.493 -0.0885 -0.6299 -0.2643
  845SOL    HW1 2855   1.324   3.061   0.505 -0.4147 -0.4091 -2.3839
  845SOL    HW2 2856   1.300   2.909   0.559 -2.7775  0.2539 -1.4081
  846SOL     OW 2857   0.590   3.651   0.849 -0.0280 -0.0698  0.4842
  846SOL    HW1 2858   0.539   3.691   0.773  1.9921 -0.4077 -1.1714
  846SOL    HW2 2859   0.584   3.551   0.845  2.1955 -0.2281 -0.9493
  847SOL     OW 2860   0.144   3.415   1.249  0.1714 -0.4389  0.0362
  847SOL    HW1 2861   0.049   3.397   1.276  0.0823 -2.2417 -1.3011
  847SOL    HW2 2862   0.148   3.497   1.192 -0.5006 -0.1299  0.4172
  848SOL     OW 2863   5.363   2.491   0.238  0.0830 -0.2219 -0.1874
  848SOL    HW1 2864   5.415   2.407   0.221 -0.0299 -0.1372 -1.0270
  848SOL    HW2 2865   5.408   2.568   0.192 -0.9962 -0.2216 -1.2953
  849SOL     OW 2866   0.408   3.088   5.154 -0.2248 -0.1360 -0.4267
  849SOL    HW1 2867   0.391   3.121   5.247 -0.6830 -1.3210 -0.0619
  849SOL    HW2 2868   0.490   3.132   5.118 -0.9392  1.5370 -0.0853
  850SOL     OW 2869   2.326   3.233   0.458  0.3495  0.2809  0.4913
  850SOL    HW1 2870   2.354   3.315   0.408 -1.4563  2.0012  2.1099
  850SOL    HW2 2871   2.244   3.195   0.415 -0.8970  1.4590  1.7109
  851SOL     OW 2872   0.196   2.406   1.458 -0.0960  0.1900  0.2734
  851SOL    HW1 2873   0.147   2.374   1.377 -0.6151  0.7690  0.3442
  851SOL    HW2 2874   0.294   2.390   1.447 -0.0123  1.3788 -1.0303
  852SOL     OW 2875   0.076   3.771   1.268 -0.1101  0.0011 -0.8542
  852SOL    HW1 2876  -0.005   3.831   1.271  0.0071  0.1159  0.8224
  852SOL    HW2 2877   0.123   3.783   1.181 -1.3379  0.6804 -1.4501
  853SOL     OW 2878   1.162   3.176   1.708 -0.0674  0.5229  0.0260
  853SOL    HW1 2879   1.099   3.100   1.690 -0.0869  0.0657  1.8945
  853SOL    HW2 2880   1.121   3.238   1.774  1.2169  0.5108  0.8593
  854SOL     OW 2881   1.613   3.052   1.514  0.0504 -0.8336  0.3220
  854SOL    HW1 2882   1.578   3.112   1.442 -0.2887 -2.1269 -0.6396
  854SOL    HW2 2883   1.669   3.105   1.577  1.1111  0.1898 -1.3898
  855SOL     OW 2884   5.515   0.888   0.554  0.0539  0.2464  0.0856
  855SOL    HW1 2885   5.460   0.840   0.622  1.0381 -0.0889  0.6720
  855SOL    HW2 2886   5.561   0.822   0.494  1.9104  0.3555  1.2869
  856SOL     OW 2887   1.401   2.396   0.493 -0.2988 -0.3176  0.1784
  856SOL    HW1 2888   1.486   2.354   0.460 -1.0770 -1.4960 -0.3809
  856SOL    HW2 2889   1.402   2.400   0.593 -0.4107 -2.1674  0.2852
  857SOL     OW 2890   0.193   3.231   0.735 -0.1983  0.4626 -0.3988
  857SOL    HW1 2891   0.243   3.211   0.819 -2.1238 -1.0492  0.4525
  857SOL    HW2 2892   0.164   3.327   0.735  1.5095  1.0061 -0.3107
  858SOL     OW 2893   1.640   3.013   0.617 -0.5332  0.4363 -0.3299
  858SOL    HW1 2894   1.547   2.980   0.601 -0.6409  0.8415 -0.5524
  858SOL    HW2 2895   1.686   3.029   0.529  0.0563 -0.6102 -0.2242
  859SOL     OW 2896   1.670   3.405   4.943  0.2764 -0.3267  0.0158
  859SOL    HW1 2897   1.758   3.447   4.917 -0.2778  0.0053 -1.4221
  859SOL    HW2 2898   1.645   3.338   4.874 -0.4418 -0.6732  0.6103
  860SOL     OW 2899   2.313   3.034   0.082 -0.2885 -0.5787  0.1910
  860SOL    HW1 2900   2.345   2.975   0.156 -1.8718  0.7860  2.0915
  860SOL    HW2 2901   2.391   3.078   0.038  0.6639  0.3429  2.6298
  861SOL     OW 2902   5.388   2.568   1.600 -0.4706 -0.4632 -0.2945
  861SOL    HW1 2903   5.295   2.606   1.600 -0.8727 -1.4063 -0.2759
  861SOL    HW2 2904   5.385   2.475   1.565  0.6521 -0.1020 -1.4275
  862SOL     OW 2905   0.831   3.487   0.523  0.3897  0.3729  0.5766
  862SOL    HW1 2906   0.839   3.503   0.621  0.2590 -0.2307  0.6903
  862SOL    HW2 2907   0.761   3.418   0.506  1.2657 -0.4400  0.1524
  863SOL     OW 2908   1.811   2.088   5.030  0.3114 -0.4085 -0.3628
  863SOL    HW1 2909   1.869   2.164   5.057 -0.0125 -0.3383  0.1326
  863SOL    HW2 2910   1.824   2.012   5.093  1.3434 -1.1249 -1.3917
  864SOL     OW 2911   1.118   2.402   0.871  0.2869 -0.0896 -0.2872
  864SOL    HW1 2912   1.125   2.341   0.950  0.5537  0.8051  0.3926
  864SOL    HW2 2913   1.112   2.347   0.787  3.3585 -1.1189  0.0092
  865SOL     OW 2914   0.319   2.171   0.595 -0.0835  0.0876 -0.2646
  865SOL    HW1 2915   0.318   2.206   0.688 -2.0973  0.7900 -0.4911
  865SOL    HW2 2916   0.284   2.241   0.532  2.1620  0.0005 -1.7404
  866SOL     OW 2917   5.203   3.322   0.655 -0.2243 -0.0534 -0.1895
  866SOL    HW1 2918   5.272   3.394   0.647  1.1964 -1.2741  0.6999
  866SOL    HW2 2919   5.212   3.259   0.578  0.9608 -1.2793  0.9125
  867SOL     OW 2920   1.295   3.759   0.898  0.3698  0.5189  0.9271
  867SOL    HW1 2921   1.324   3.781   0.992  2.2667 -0.5487  0.6344
  867SOL    HW2 2922   1.344   3.678   0.866 -0.6310  0.5632 -0.8183
  868SOL     OW 2923   1.085   2.744   0.923 -0.5746 -0.0534 -0.6247
  868SOL    HW1 2924   1.054   2.829   0.966 -0.8035 -0.8343  0.8347
  868SOL    HW2 2925   1.163   2.708   0.974 -0.6575 -0.8618 -1.0548
  869SOL     OW 2926   0.059   2.198   2.313 -0.2879 -0.0449 -0.0342
  869SOL    HW1 2927   0.044   2.107   2.350 -0.1853 -0.3824 -0.7908
  869SOL    HW2 2928   0.154   2.208   2.285 -0.2571  0.3547  0.2050
  870SOL     OW 2929   1.550   2.655   3.155 -0.0156 -0.2094  0.0077
  870SOL    HW1 2930   1.549   2.753   3.135 -2.9457  0.0953  1.2430
  870SOL    HW2 2931   1.611   2.637   3.232  0.2895  0.6449 -0.0236
  871SOL     OW 2932   1.214   2.822   3.446 -0.3961 -0.5563 -0.5006
  871SOL    HW1 2933   1.120   2.796   3.470  0.1239 -1.3898  0.7500
  871SOL    HW2 2934   1.227   2.920   3.461 -0.4648 -0.8230  1.5081
  872SOL     OW 2935   1.998   3.393   0.665  0.2099 -0.4500  0.5936
  872SOL    HW1 2936   1.900   3.410   0.656  0.5640  1.5420  0.0220
  872SOL    HW2 2937   2.027   3.331   0.592 -0.5358 -0.7692  0.5494
  873SOL     OW 2938   0.411   2.328   1.174  0.6321  0.0985  0.0992
  873SOL    HW1 2939   0.374   2.250   1.124  2.2671 -0.1262 -0.8207
  873SOL    HW2 2940   0.356   2.409   1.154  1.0182 -0.0638 -1.8373
  874SOL     OW 2941   2.193   3.416   1.432  0.2534 -0.1472  0.2471
  874SOL    HW1 2942   2.227   3.337   1.381  1.4377 -0.8003  1.9768
  874SOL    HW2 2943   2.094   3.407   1.445 -0.1760  0.2693 -2.2510
  875SOL     OW 2944   0.951   2.975   3.298 -0.3441  0.3490  0.8109
  875SOL    HW1 2945   0.947   3.042   3.372  3.0340 -0.3410  1.7804
  875SOL    HW2 2946   0.988   2.888   3.332 -1.1972 -0.8600 -1.1541
  876SOL     OW 2947   0.923   3.438   2.418  0.4022 -0.3679  0.6425
  876SOL    HW1 2948   0.907   3.356   2.363  0.3484 -0.1048  0.2607
  876SOL    HW2 2949   0.926   3.413   2.515 -0.6061 -0.6902  0.6109
  877SOL     OW 2950   1.207   3.241   2.812  0.0760  0.0411 -0.1627
  877SOL    HW1 2951   1.183   3.147   2.787  0.0661 -0.2759  0.9684
  877SOL    HW2 2952   1.151   3.270   2.889  1.3841  0.2848  0.7334
  878SOL     OW 2953   0.532   2.542   3.604 -0.3422 -0.6371 -0.1369
  878SOL    HW1 2954   0.496   2.633   3.583 -0.8730 -1.0486 -1.1140
  878SOL    HW2 2955   0.538   2.530   3.703 -0.2293  0.4689  0.0002
  879SOL     OW 2956   0.627   2.853   2.700 -0.1128 -0.1222  0.0441
  879SOL    HW1 2957   0.559   2.927   2.705  1.9014  1.7744  1.0108
  879SOL    HW2 2958   0.639   2.826   2.604 -2.0856 -0.4277 -0.1655
  880SOL     OW 2959   1.635   3.811   3.774  0.2923 -0.1793 -0.4187
  880SOL    HW1 2960   1.677   3.795   3.863 -0.1856 -0.0143 -0.1543
  880SOL    HW2 2961   1.548   3.762   3.769  1.7055 -2.7104 -1.9653
  881SOL     OW 2962   5.391   1.952   3.935 -0.6261 -0.3426  0.8514
  881SOL    HW1 2963   5.433   1.940   3.845 -0.7599 -0.8011  0.8463
  881SOL    HW2 2964   5.462   1.944   4.005 -0.4338  0.5232  0.7708
  882SOL     OW 2965   2.194   1.919   2.718  0.5340 -0.3169  0.4198
  882SOL    HW1 2966   2.157   1.876   2.800  0.4407  0.9839  1.0936
  882SOL    HW2 2967   2.178   2.018   2.722  0.3722 -0.2521 -1.2632
  883SOL     OW 2968   0.688   2.037   2.074  0.1585 -0.8328  0.2886
  883SOL    HW1 2969   0.782   2.069   2.088 -0.1510 -0.1397  0.8593
  883SOL    HW2 2970   0.690   1.945   2.036  1.0742 -0.4320 -0.6929
  884SOL     OW 2971   0.317   3.172   2.876 -0.0943  0.1998 -0.1107
  884SOL    HW1 2972   0.362   3.256   2.905 -0.1256 -0.0322  0.6442
  884SOL    HW2 2973   0.369   3.093   2.911 -1.2289 -0.0691  1.0462
  885SOL     OW 2974   1.858   2.223   1.664  0.0316  0.6433 -0.2552
  885SOL    HW1 2975   1.794   2.295   1.689 -0.4541  0.3741 -0.7098
  885SOL    HW2 2976   1.836   2.140   1.716  0.0150  0.5497 -0.4128
  886SOL     OW 2977   5.512   3.748   3.151  0.2788 -0.1142 -0.4969
  886SOL    HW1 2978   5.571   3.791   3.220  0.0617  0.8351 -0.8984
  886SOL    HW2 2979   5.555   3.663   3.120  2.6616  1.6585 -2.4547
  887SOL     OW 2980   0.160   3.965   2.891  0.0781  0.3343  0.1835
  887SOL    HW1 2981   0.184   4.001   2.981 -1.9786 -0.3925  1.0591
  887SOL    HW2 2982   0.226   3.894   2.865 -0.2568 -0.6575  1.8869
  888SOL     OW 2983   0.754   2.620   1.739 -0.2365 -0.1951  0.2015
  888SOL    HW1 2984   0.772   2.704   1.789  0.5533 -0.6863  0.7724
  888SOL    HW2 2985   0.700   2.558   1.796 -1.1887  0.0891 -0.3795
  889SOL     OW 2986   1.519   2.908   3.058  0.0473 -0.3535 -0.5532
  889SOL    HW1 2987   1.527   2.980   3.127  2.1364  0.5194 -1.6191
  889SOL    HW2 2988   1.434   2.920   3.006  0.0170  0.9151 -0.2292
  890SOL     OW 2989   0.141   1.655   1.282  0.0895  0.4591  0.2930
  890SOL    HW1 2990   0.080   1.577   1.268 -0.9794  1.2629  0.4416
  890SOL    HW2 2991   0.155   1.703   1.196  2.3116 -0.9911 -0.2311
  891SOL     OW 2992   2.654   5.009   2.873  0.4674 -0.1596  0.3665
  891SOL    HW1 2993   2.615   4.946   2.806  2.8971 -1.2201 -0.1623
  891SOL    HW2 2994   2.623   5.102   2.853  0.0787 -0.6260 -1.4021
  892SOL     OW 2995   1.129   3.653   0.633  0.0586 -0.2287 -0.0722
  892SOL    HW1 2996   1.034   3.632   0.656 -0.5943  0.5036 -1.9102
  892SOL    HW2 2997   1.143   3.643   0.534  2.4840 -2.4288  0.3784
  893SOL     OW 2998   1.491   1.894   1.621 -0.5576  0.2585 -0.1524
  893SOL    HW1 2999   1.396   1.871   1.602  0.1162 -0.7865 -2.5444
  893SOL    HW2 3000   1.508   1.887   1.720 -2.8437  0.1577  0.2809
  894SOL     OW 3001   1.658   5.030   2.236 -0.3124 -0.1980 -0.0268
  894SOL    HW1 3002   1.720   5.083   2.177 -0.7838  1.0421  0.5671
  894SOL    HW2 3003   1.666   5.062   2.330 -0.3586 -1.4420  0.4146
  895SOL     OW 3004   1.268   2.220   2.437  0.0712  0.1359  0.1439
  895SOL    HW1 3005   1.266   2.181   2.530  0.2874  0.5264  0.3142
  895SOL    HW2 3006   1.176   2.220   2.399 -0.3377  1.6058  1.0551
  896SOL     OW 3007   0.384   2.810   2.038 -0.4516 -0.2427  0.1063
  896SOL    HW1 3008   0.332   2.843   2.118 -0.3903  0.0743  0.0182
  896SOL    HW2 3009   0.329   2.743   1.988 -0.9042  0.3053 -0.1512
  897SOL     OW 3010   2.331   3.192   4.195 -0.0919  0.1682  0.1727
  897SOL    HW1 3011   2.356   3.105   4.238  3.8400  0.4140 -1.1506
  897SOL    HW2 3012   2.368   3.267   4.249 -1.7723  0.9567  0.2746
  898SOL     OW 3013   0.828   1.417   2.795  0.1289  0.3898  0.9586
  898SOL    HW1 3014   0.915   1.466   2.804  1.5366 -1.4293 -1.5117
  898SOL    HW2 3015   0.807   1.371   2.881  1.2325  1.4064  1.8113
  899SOL     OW 3016   0.320   3.756   3.328  0.1879 -0.1485 -0.0524
  899SOL    HW1 3017   0.362   3.823   3.389  0.2180  1.0201 -1.2968
  899SOL    HW2 3018   0.228   3.733   3.362  0.2265  0.4292  0.4597
  900SOL     OW 3019   2.516   1.629   2.095 -0.1043  0.4084 -0.0185
  900SOL    HW1 3020   2.511   1.538   2.053  0.5204  0.9221 -1.2797
  900SOL    HW2 3021   2.572   1.625   2.178 -0.1947 -0.3832  0.0106
  901SOL     OW 3022   1.268   4.846   3.459 -0.1617 -0.0435  0.5253
  901SOL    HW1 3023   1.212   4.775   3.415 -0.5272 -0.2688  1.3471
  901SOL    HW2 3024   1.350   4.862   3.404 -1.1101  0.4218 -0.8102
  902SOL     OW 3025   0.269   1.550   3.981 -0.5410  0.1918 -0.4064
  902SOL    HW1 3026   0.345   1.554   3.917  0.0010  0.4997  0.2474
  902SOL    HW2 3027   0.192   1.603   3.944  0.0191  0.9665 -0.4832
  903SOL     OW 3028   1.321   3.755   3.562 -0.2752  0.0280 -0.2914
  903SOL    HW1 3029   1.269   3.782   3.481 -0.5529 -1.1512 -0.5379
  903SOL    HW2 3030   1.344   3.657   3.555 -0.7832 -0.2330  1.3103
  904SOL     OW 3031   1.008   3.700   2.047 -0.4518  0.3292  0.1733
  904SOL    HW1 3032   1.008   3.600   2.054 -0.1051  0.0963 -2.1129
  904SOL    HW2 3033   1.102   3.732   2.030 -0.3764  1.1872  2.0336
  905SOL     OW 3034   5.488   2.090   1.681 -0.3576  0.1493 -0.9382
  905SOL    HW1 3035   5.503   2.124   1.774 -1.6314 -0.4922 -0.4729
  905SOL    HW2 3036   5.390   2.092   1.660 -0.4202 -2.3244 -1.1983
  906SOL     OW 3037   1.573   1.378   4.221 -0.0440 -0.0642 -0.6085
  906SOL    HW1 3038   1.649   1.402   4.160  0.6788  1.6566  0.8690
  906SOL    HW2 3039   1.597   1.296   4.273 -0.8650 -1.8464 -2.8754
  907SOL     OW 3040   1.198   3.586   1.516  0.0555  0.7134 -0.1835
  907SOL    HW1 3041   1.293   3.555   1.526  0.8356  2.7473 -0.9007
  907SOL    HW2 3042   1.169   3.630   1.601 -1.1831 -2.0543  0.9751
  908SOL     OW 3043   1.802   2.420   2.678  0.2655 -0.5953 -0.0519
  908SOL    HW1 3044   1.894   2.453   2.698  0.2312 -0.1236 -0.6213
  908SOL    HW2 3045   1.735   2.490   2.705  0.1241 -0.6166 -0.3425
  909SOL     OW 3046   1.467   1.166   4.004  1.0116  0.3181  0.2202
  909SOL    HW1 3047   1.420   1.088   4.045  0.8242  0.1304 -0.3378
  909SOL    HW2 3048   1.539   1.198   4.066 -0.2705  1.0308  1.3731
  910SOL     OW 3049   2.583   3.254   3.710  0.1938  0.5428 -0.3150
  910SOL    HW1 3050   2.564   3.201   3.627 -0.1689 -1.5616  1.0233
  910SOL    HW2 3051   2.503   3.250   3.770  0.0115  3.0060 -0.3077
  911SOL     OW 3052   0.885   1.349   2.547  0.0090  0.2115  0.6458
  911SOL    HW1 3053   0.970   1.394   2.520  0.1143 -0.3774 -0.0156
  911SOL    HW2 3054   0.856   1.384   2.636  0.1129  1.5694  0.1739
  912SOL     OW 3055   1.678   2.412   1.779  0.4547 -0.6014  0.0933
  912SOL    HW1 3056   1.626   2.341   1.827  1.6602 -1.2397  0.4887
  912SOL    HW2 3057   1.655   2.501   1.818 -1.0194 -0.7472 -0.3560
  913SOL     OW 3058   1.791   2.853   1.936 -0.2499  0.0157 -0.0843
  913SOL    HW1 3059   1.761   2.855   1.841 -1.3138  2.3176  0.2417
  913SOL    HW2 3060   1.891   2.842   1.940  0.0571  1.9205 -1.5525
  914SOL     OW 3061   0.592   4.445   2.658  0.3715  0.1442 -0.5676
  914SOL    HW1 3062   0.579   4.533   2.703  1.0961 -0.1645  0.2673
  914SOL    HW2 3063   0.690   4.423   2.655  0.1312 -1.1643  0.2966
  915SOL     OW 3064   1.932   1.748   1.788 -0.0562 -0.2538  0.1125
  915SOL    HW1 3065   1.869   1.763   1.712  0.7857  2.9172 -0.1030
  915SOL    HW2 3066   1.881   1.736   1.872 -0.9703 -0.2189 -0.4298
  916SOL     OW 3067   1.539   3.160   3.175  0.2266 -0.3848  0.4776
  916SOL    HW1 3068   1.569   3.141   3.269 -0.3866 -2.2638  0.3337
  916SOL    HW2 3069   1.615   3.200   3.124  1.5129 -2.0135  1.0155
  917SOL     OW 3070   1.870   2.180   1.408  0.2289 -0.3264 -0.3844
  917SOL    HW1 3071   1.878   2.206   1.505  0.5273 -1.6612 -0.0300
  917SOL    HW2 3072   1.774   2.163   1.387  0.1709 -0.1008 -0.3126
  918SOL     OW 3073   0.624   2.355   2.436  0.1099 -0.3367 -0.2464
  918SOL    HW1 3074   0.704   2.403   2.473  0.8034 -0.5163 -1.4697
  918SOL    HW2 3075   0.648   2.260   2.418 -0.1960 -0.2434 -1.1877
  919SOL     OW 3076   2.023   4.326   1.844 -0.6299  0.7014 -0.4314
  919SOL    HW1 3077   2.107   4.353   1.795 -1.1242  2.0038 -0.5997
  919SOL    HW2 3078   1.944   4.345   1.786 -1.0840 -0.0644 -0.0759
  920SOL     OW 3079   5.236   3.299   1.478 -0.4258  0.1219 -0.0326
  920SOL    HW1 3080   5.271   3.340   1.562  1.8357  1.2953 -1.4362
  920SOL    HW2 3081   5.182   3.218   1.500  0.7908 -0.0969  2.5057
  921SOL     OW 3082   1.150   3.443   2.647  0.2602 -0.1357 -0.2647
  921SOL    HW1 3083   1.053   3.443   2.669  0.5888  2.0978  1.5448
  921SOL    HW2 3084   1.200   3.392   2.717  0.7622  2.4543  1.3934
  922SOL     OW 3085   1.258   3.677   2.576 -0.0686  0.3353 -0.9920
  922SOL    HW1 3086   1.302   3.667   2.487  0.4606 -0.2399 -0.6683
  922SOL    HW2 3087   1.204   3.595   2.596  0.3376  0.1869 -0.4974
  923SOL     OW 3088   0.145   3.166   2.388 -0.3070 -0.4122  0.4722
  923SOL    HW1 3089   0.157   3.239   2.320 -1.6372 -1.6987 -1.2528
  923SOL    HW2 3090   0.050   3.166   2.419 -0.7408 -2.2652 -0.6852
  924SOL     OW 3091   1.851   3.716   3.485 -0.0918  0.3645 -0.3334
  924SOL    HW1 3092   1.835   3.814   3.494  0.8436  0.4957 -0.0216
  924SOL    HW2 3093   1.888   3.680   3.570  0.8352 -0.0024 -0.8785
  925SOL     OW 3094   1.128   3.319   3.758  0.0183 -0.0102 -0.5185
  925SOL    HW1 3095   1.034   3.319   3.723 -0.1180 -0.5263 -0.1671
  925SOL    HW2 3096   1.126   3.314   3.857  0.4154  0.7565 -0.4643
  926SOL     OW 3097   1.487   3.908   1.575 -0.2453 -0.2098  0.5839
  926SOL    HW1 3098   1.467   3.926   1.479 -1.8343  0.6452  1.0447
  926SOL    HW2 3099   1.543   3.983   1.612  0.0892 -0.3746  0.4137
  927SOL     OW 3100   0.325   1.933   3.899  0.3494  0.7673  0.4029
  927SOL    HW1 3101   0.395   1.919   3.969  1.2715  1.7381 -0.2993
  927SOL    HW2 3102   0.299   2.029   3.895  0.1058  0.6812 -0.3950
  928SOL     OW 3103   1.596   3.886   1.217  0.3719 -0.0240  0.3462
  928SOL    HW1 3104   1.611   3.880   1.118  1.2335 -0.1138  0.4811
  928SOL    HW2 3105   1.675   3.928   1.260  0.9837 -2.0162  1.2718
  929SOL     OW 3106   1.662   2.917   2.399 -0.6201 -0.0056  0.1693
  929SOL    HW1 3107   1.741   2.957   2.445 -0.2536 -0.1838 -0.2963
  929SOL    HW2 3108   1.693   2.861   2.322 -1.2263  0.6132 -0.5532
  930SOL     OW 3109   0.437   1.657   2.854 -0.0493 -0.5284 -0.4330
  930SOL    HW1 3110   0.403   1.654   2.948 -0.8653 -1.1667 -0.7411
  930SOL    HW2 3111   0.400   1.738   2.808  2.1203  1.0640  0.4233
  931SOL     OW 3112   5.313   3.345   3.593 -0.3029 -0.2765  0.1742
  931SOL    HW1 3113   5.270   3.291   3.521 -1.2492 -2.9273  2.5112
  931SOL    HW2 3114   5.381   3.288   3.641  0.0145  1.2396  1.6245
  932SOL     OW 3115   1.281   3.751   2.075  0.0118 -0.0057 -0.0270
  932SOL    HW1 3116   1.344   3.692   2.023 -0.3033  0.3634 -0.8482
  932SOL    HW2 3117   1.310   3.754   2.171  0.3961 -0.9931 -0.0993
  933SOL     OW 3118   0.553   3.166   1.347 -0.2995  0.1218 -0.2219
  933SOL    HW1 3119   0.471   3.188   1.401  0.3520  0.9842  0.4503
  933SOL    HW2 3120   0.609   3.248   1.339  0.2023 -0.3146 -1.2048
  934SOL     OW 3121   0.963   0.717   4.299 -0.1161  0.0629 -0.3137
  934SOL    HW1 3122   0.989   0.794   4.358  0.5548 -0.7674  0.5093
  934SOL    HW2 3123   0.914   0.649   4.353  1.2440 -1.0960 -0.4950
  935SOL     OW 3124   4.642   1.260   1.710 -0.5723  0.1452 -0.2047
  935SOL    HW1 3125   4.677   1.353   1.719  0.7068 -0.3529  0.3213
  935SOL    HW2 3126   4.630   1.220   1.801  1.8193 -1.1987 -0.3713
  936SOL     OW 3127   5.167   1.172   3.360  0.5163  0.2502  0.1666
  936SOL    HW1 3128   5.204   1.236   3.428 -0.3669 -0.0087  0.9174
  936SOL    HW2 3129   5.202   1.195   3.269  0.0569  1.9291  0.3861
  937SOL     OW 3130   1.938   3.282   2.986  0.2909  0.0275 -0.0670
  937SOL    HW1 3131   2.029   3.306   2.951  0.0323  1.1568 -0.0094
  937SOL    HW2 3132   1.923   3.328   3.074 -0.5245  0.2573 -0.3168
  938SOL     OW 3133   0.653   1.573   2.466 -0.3742  0.2854 -0.0191
  938SOL    HW1 3134   0.599   1.545   2.546  0.1834  2.0200  1.0137
  938SOL    HW2 3135   0.747   1.592   2.494 -0.6088  2.7663 -0.6472
  939SOL     OW 3136   5.479   1.598   3.025 -0.2212  0.3926 -0.4591
  939SOL    HW1 3137   5.438   1.559   2.943 -0.0305 -0.1599 -0.2991
  939SOL    HW2 3138   5.417   1.586   3.102 -0.7573  1.6489 -0.6775
  940SOL     OW 3139   1.548   1.590   1.711  0.4922 -0.1589 -0.2738
  940SOL    HW1 3140   1.596   1.556   1.792 -1.7001  0.2403  1.2812
  940SOL    HW2 3141   1.473   1.529   1.688  1.7571 -0.8977 -2.7964
  941SOL     OW 3142   1.270   3.122   3.193  0.4113  0.1392  0.4448
  941SOL    HW1 3143   1.364   3.156   3.185  0.3442  0.1516 -0.4469
  941SOL    HW2 3144   1.245   3.075   3.108  0.2504 -1.4960  1.3529
  942SOL     OW 3145   1.314   4.275   2.410  0.5217 -0.5909  0.1872
  942SOL    HW1 3146   1.230   4.329   2.399 -0.8005 -2.1044  2.1584
  942SOL    HW2 3147   1.365   4.307   2.489  1.0915 -0.5890 -0.1726
  943SOL     OW 3148   5.413   1.764   1.822 -0.1515  0.1805 -0.1033
  943SOL    HW1 3149   5.497   1.816   1.831  0.3736 -0.6186 -0.2714
  943SOL    HW2 3150   5.393   1.749   1.725 -0.8187  0.8826 -0.0824
  944SOL     OW 3151   1.350   1.914   2.033 -0.4993  0.0953 -0.0563
  944SOL    HW1 3152   1.355   1.882   2.128  1.4862 -0.9185 -0.4567
  944SOL    HW2 3153   1.333   2.012   2.032  0.3874  0.2937  1.3945
  945SOL     OW 3154   1.786   2.300   2.183 -0.0639 -1.0177  0.1352
  945SOL    HW1 3155   1.850   2.320   2.257  0.6702 -0.4877 -0.6263
  945SOL    HW2 3156   1.833   2.307   2.095 -1.4248  0.5411 -0.5266
  946SOL     OW 3157   0.850   3.872   1.684 -0.5748  0.0230  0.0866
  946SOL    HW1 3158   0.917   3.871   1.609  2.9040 -1.1992  2.8815
  946SOL    HW2 3159   0.838   3.779   1.718  0.3056  0.8395  2.8510
  947SOL     OW 3160   1.646   3.050   3.416 -0.2194 -0.2867 -0.1990
  947SOL    HW1 3161   1.573   3.081   3.477  1.2252 -0.0077  1.4869
  947SOL    HW2 3162   1.706   2.987   3.466  1.9326  1.1778 -0.7950
  948SOL     OW 3163   5.317   3.283   2.019 -0.2926 -0.3058 -0.4742
  948SOL    HW1 3164   5.269   3.206   1.977  0.0973  0.2239 -1.9571
  948SOL    HW2 3165   5.250   3.345   2.062 -0.7600 -0.5562 -0.8366
  949SOL     OW 3166   0.496   3.118   0.384  0.1599  0.1502  1.0578
  949SOL    HW1 3167   0.464   3.132   0.477  2.4583 -0.8214  2.0707
  949SOL    HW2 3168   0.534   3.026   0.375 -1.3223 -0.3172 -1.2915
  950SOL     OW 3169   4.536   3.273   3.197  0.3764  0.3256  0.0025
  950SOL    HW1 3170   4.449   3.226   3.182  1.0580 -1.3149  0.9420
  950SOL    HW2 3171   4.545   3.347   3.130 -0.8289 -0.7647 -1.4523
  951SOL     OW 3172   0.765   1.188   3.917 -0.4538 -0.6924 -0.1326
  951SOL    HW1 3173   0.741   1.107   3.970 -1.4367  1.3460  2.7946
  951SOL    HW2 3174   0.838   1.238   3.964 -0.4461  0.5857 -1.4319
  952SOL     OW 3175   0.870   1.733   1.778  0.2871  0.0256 -0.6950
  952SOL    HW1 3176   0.963   1.696   1.770 -0.4136 -1.9577 -0.2997
  952SOL    HW2 3177   0.819   1.713   1.695  0.4056  1.8195 -1.2404
  953SOL     OW 3178   1.743   2.723   2.197  0.0558  0.0191 -0.2845
  953SOL    HW1 3179   1.829   2.746   2.243  0.8556  0.6282 -2.0141
  953SOL    HW2 3180   1.750   2.746   2.100 -1.4808 -1.4890 -0.7929
  954SOL     OW 3181   0.497   3.682   1.118  0.0920  0.1021  0.0278
  954SOL    HW1 3182   0.575   3.733   1.155  1.2941 -3.0210  2.1505
  954SOL    HW2 3183   0.512   3.664   1.021  1.3618  0.6879  0.0974
  955SOL     OW 3184   1.668   2.754   3.728 -0.6182  0.2724 -0.2920
  955SOL    HW1 3185   1.600   2.714   3.667 -0.2620 -0.2049 -0.3798
  955SOL    HW2 3186   1.621   2.792   3.808 -1.1961  1.9376 -1.3855
  956SOL     OW 3187   2.364   2.338   2.466 -0.8736  0.5618  0.1282
  956SOL    HW1 3188   2.391   2.308   2.558  0.9528  1.3182 -0.1268
  956SOL    HW2 3189   2.295   2.410   2.473  0.5913  1.9206  0.9872
  957SOL     OW 3190   0.588   4.021   1.409  0.8994  0.5258 -0.2016
  957SOL    HW1 3191   0.515   4.045   1.474  1.3747  0.5387  0.3384
  957SOL    HW2 3192   0.643   3.946   1.447  1.0683  0.4055 -0.6774
  958SOL     OW 3193   1.670   3.626   1.186 -0.1838 -0.2031  0.2931
  958SOL    HW1 3194   1.651   3.724   1.188 -0.1918 -0.0675 -2.5718
  958SOL    HW2 3195   1.743   3.607   1.120  1.3867 -1.9543  2.3695
  959SOL     OW 3196   1.948   2.776   2.332  0.0095 -0.4519 -0.4802
  959SOL    HW1 3197   2.025   2.736   2.281 -0.2206  0.8283 -1.9039
  959SOL    HW2 3198   1.966   2.770   2.430  1.7629 -0.5111 -0.7801
  960SOL     OW 3199   1.229   1.824   1.606  0.2009  0.2135 -0.6832
  960SOL    HW1 3200   1.235   1.818   1.507 -1.2640 -1.2683 -0.7349
  960SOL    HW2 3201   1.144   1.869   1.632  0.1651 -0.1839 -0.0964
  961SOL     OW 3202   0.344   3.793   2.794 -0.9297 -0.1767 -0.0847
  961SOL    HW1 3203   0.317   3.703   2.757 -1.1107 -0.5478  0.9091
  961SOL    HW2 3204   0.444   3.799   2.797 -0.8737  0.4072 -1.8929
  962SOL     OW 3205   0.712   1.920   3.734  0.3441 -0.2486 -0.3371
  962SOL    HW1 3206   0.751   2.010   3.756  0.4275 -0.3375 -0.1231
  962SOL    HW2 3207   0.783   1.864   3.691  1.0675 -1.1194  1.8613
  963SOL     OW 3208   2.218   3.519   2.354  0.1993 -0.4787 -0.7045
  963SOL    HW1 3209   2.205   3.611   2.392 -0.3188 -1.3617  1.4448
  963SOL    HW2 3210   2.298   3.477   2.397  0.3197 -1.0988 -1.5331
  964SOL     OW 3211   1.512   3.314   1.772  0.0327 -0.3579  0.2490
  964SOL    HW1 3212   1.448   3.353   1.838 -2.4844 -1.4484 -1.4198
  964SOL    HW2 3213   1.577   3.254   1.821 -2.2427 -1.7850  1.6960
  965SOL     OW 3214   2.011   3.241   4.084 -0.1365 -0.6265  0.2199
  965SOL    HW1 3215   1.999   3.332   4.123 -0.4530 -1.0792  1.2095
  965SOL    HW2 3216   2.043   3.178   4.155 -3.0756 -2.0368  0.4347
  966SOL     OW 3217   1.186   1.686   2.585  0.1358 -0.0721  0.7462
  966SOL    HW1 3218   1.217   1.622   2.515  0.0760  1.3247 -0.5969
  966SOL    HW2 3219   1.259   1.751   2.605 -0.7373  1.1640  0.0186
  967SOL     OW 3220   0.815   3.470   3.025 -0.1020  0.0326 -0.4191
  967SOL    HW1 3221   0.754   3.454   2.947  0.9378  0.0494 -1.2485
  967SOL    HW2 3222   0.765   3.521   3.095 -1.5480 -1.3746 -0.3782
  968SOL     OW 3223   0.767   4.242   3.223  0.2193 -0.5754  0.0998
  968SOL    HW1 3224   0.786   4.335   3.193  0.5667 -0.5039  0.5338
  968SOL    HW2 3225   0.834   4.214   3.292 -0.8510 -0.5383  1.1925
  969SOL     OW 3226   1.221   2.174   2.050 -0.1486 -0.0435  0.1820
  969SOL    HW1 3227   1.202   2.262   2.007 -1.0981 -0.1902  0.2845
  969SOL    HW2 3228   1.285   2.187   2.126 -1.3935  0.7960  1.1276
  970SOL     OW 3229   2.065   3.279   2.409 -0.1972  0.5269 -0.0492
  970SOL    HW1 3230   2.151   3.331   2.410  0.5777 -0.7119 -0.3596
  970SOL    HW2 3231   1.988   3.342   2.405  0.7402  1.6393 -2.2497
  971SOL     OW 3232   5.025   3.207   2.853  0.2922 -0.4937 -0.5121
  971SOL    HW1 3233   5.123   3.189   2.851  0.7544  1.5943  0.1816
  971SOL    HW2 3234   4.981   3.142   2.916  1.3094 -1.1100 -0.4075
  972SOL     OW 3235   0.863   3.478   3.416 -0.6591  0.4543  0.1326
  972SOL    HW1 3236   0.830   3.387   3.391 -0.3489  0.2717  0.3766
  972SOL    HW2 3237   0.847   3.541   3.341 -1.4143  0.3334  0.1809
  973SOL     OW 3238   2.153   2.515   2.457  0.1118 -0.6663  0.6529
  973SOL    HW1 3239   2.185   2.588   2.396  0.2160 -1.0717  0.2123
  973SOL    HW2 3240   2.078   2.466   2.412 -0.0242 -0.7674  0.9896
  974SOL     OW 3241   2.136   2.750   3.151 -0.0708  0.0928 -0.6118
  974SOL    HW1 3242   2.037   2.743   3.167  0.3889 -0.9194  2.3147
  974SOL    HW2 3243   2.170   2.665   3.110 -0.0711 -0.5626  0.7046
  975SOL     OW 3244   1.841   3.499   3.912  0.5212 -0.3324  0.0963
  975SOL    HW1 3245   1.756   3.445   3.915  0.3414 -0.1400 -1.1682
  975SOL    HW2 3246   1.901   3.470   3.987 -0.9350  0.0076  1.4547
  976SOL     OW 3247   2.204   2.511   3.061 -0.1680  0.2312 -0.1441
  976SOL    HW1 3248   2.261   2.536   2.983 -0.7904  1.8361 -0.1360
  976SOL    HW2 3249   2.139   2.440   3.034  0.8040 -0.5193 -0.5677
  977SOL     OW 3250   0.326   2.841   2.512  0.0775  0.1339 -0.0964
  977SOL    HW1 3251   0.407   2.782   2.514  1.3611  1.7821 -0.9978
  977SOL    HW2 3252   0.303   2.864   2.417  0.2203  1.8603  0.2575
  978SOL     OW 3253   1.267   2.638   2.577  0.6529 -0.5710 -0.0902
  978SOL    HW1 3254   1.346   2.580   2.554  1.4828  0.2613  0.5648
  978SOL    HW2 3255   1.184   2.582   2.578  1.1237 -1.3336 -1.4688
  979SOL     OW 3256   0.729   2.972   3.857  0.1510 -0.9605  0.4186
  979SOL    HW1 3257   0.637   2.936   3.838  0.8079 -2.2578 -0.4887
  979SOL    HW2 3258   0.721   3.059   3.904 -1.5644 -0.5179 -0.5781
  980SOL     OW 3259   0.822   0.704   5.119 -0.3867  0.1557 -0.2804
  980SOL    HW1 3260   0.725   0.715   5.098 -0.6699  0.8895  1.3165
  980SOL    HW2 3261   0.873   0.689   5.034 -1.9628 -0.9055 -1.0875
  981SOL     OW 3262   0.105   1.469   2.668  0.3883  0.1860  0.1242
  981SOL    HW1 3263   0.045   1.491   2.744  0.0692 -3.9194  1.3009
  981SOL    HW2 3264   0.063   1.497   2.582 -2.1415 -0.4198  1.0842
  982SOL     OW 3265   0.846   2.177   3.716 -0.0820 -0.1401 -0.1367
  982SOL    HW1 3266   0.864   2.217   3.805  1.6041 -2.1422  0.5063
  982SOL    HW2 3267   0.807   2.246   3.655 -0.0494  1.6040  1.7331
  983SOL     OW 3268   0.620   3.579   3.184 -0.1876  0.2861 -0.1204
  983SOL    HW1 3269   0.586   3.528   3.263 -0.4857 -0.7251 -0.8831
  983SOL    HW2 3270   0.543   3.609   3.128  0.0404  0.7231 -0.2066
  984SOL     OW 3271   1.562   1.241   2.872 -0.0332 -0.4005 -0.2348
  984SOL    HW1 3272   1.527   1.199   2.788 -0.3986 -3.2658  1.2276
  984SOL    HW2 3273   1.534   1.336   2.876 -2.0391 -0.8366 -2.2464
  985SOL     OW 3274   0.931   1.799   3.625  0.0089  0.7403  0.1485
  985SOL    HW1 3275   1.000   1.867   3.601  0.3333 -0.3065 -2.1641
  985SOL    HW2 3276   0.975   1.710   3.638 -0.8391  0.0114 -1.5670
  986SOL     OW 3277   4.547   3.462   2.997  0.0557 -0.6344  0.3823
  986SOL    HW1 3278   4.628   3.506   2.958  0.3150 -1.7081 -0.3553
  986SOL    HW2 3279   4.465   3.499   2.955  0.1492  0.4506  1.1224
  987SOL     OW 3280   0.188   1.783   1.013 -0.2132 -0.2805  0.4695
  987SOL    HW1 3281   0.265   1.846   1.022 -0.0377 -0.2672 -0.8445
  987SOL    HW2 3282   0.119   1.824   0.954 -0.5776 -0.8881  0.4667
  988SOL     OW 3283   0.978   2.971   4.371  0.1299  0.4657  0.2490
  988SOL    HW1 3284   0.882   2.999   4.365 -0.2967 -0.9039  0.4479
  988SOL    HW2 3285   1.019   3.008   4.454 -1.1127 -1.4207  1.7855
  989SOL     OW 3286   2.108   1.175   3.645  0.6731 -0.0382  0.1515
  989SOL    HW1 3287   2.147   1.135   3.562  2.0823  0.7207  0.4162
  989SOL    HW2 3288   2.155   1.137   3.725  0.6237  0.6198  0.4988
  990SOL     OW 3289   0.433   1.280   1.644 -0.0147  0.4336 -0.3072
  990SOL    HW1 3290   0.341   1.274   1.682  0.5513  1.8273  1.4312
  990SOL    HW2 3291   0.500   1.287   1.718  1.5043 -0.4320 -1.5296
  991SOL     OW 3292   0.734   3.022   1.781 -0.2148  0.5493  0.0948
  991SOL    HW1 3293   0.706   3.116   1.763  0.9559  1.1886  1.3794
  991SOL    HW2 3294   0.821   3.004   1.735  0.4195  0.6746  1.2122
  992SOL     OW 3295   5.306   3.117   2.926  0.7411  0.0398  0.1578
  992SOL    HW1 3296   5.350   3.038   2.967 -0.7613 -1.2297 -0.5534
  992SOL    HW2 3297   5.339   3.128   2.832 -0.3562 -0.9101 -0.3743
  993SOL     OW 3298   2.387   3.648   1.729 -0.2687  0.1829  0.1092
  993SOL    HW1 3299   2.392   3.694   1.641 -5.3268  1.9078  0.4237
  993SOL    HW2 3300   2.400   3.550   1.717 -1.9944  0.2207 -2.8350
  994SOL     OW 3301   1.536   2.012   2.718  0.6500  0.6619 -0.2842
  994SOL    HW1 3302   1.525   2.109   2.741 -1.2340  0.1743  1.0827
  994SOL    HW2 3303   1.597   1.969   2.785 -0.3139  0.4627  0.4997
  995SOL     OW 3304   0.729   3.171   1.053  0.4584  0.1847  0.6277
  995SOL    HW1 3305   0.643   3.121   1.037  0.9993 -0.0453 -1.9921
  995SOL    HW2 3306   0.725   3.216   1.142 -2.3252  0.0714  0.6550
  996SOL     OW 3307   0.234   2.929   2.258  0.0343  1.0407  0.3258
  996SOL    HW1 3308   0.233   2.995   2.183  0.5089 -0.2073 -0.8265
  996SOL    HW2 3309   0.156   2.944   2.318 -0.5170  1.8894 -0.5873
  997SOL     OW 3310   0.536   2.819   3.223  0.4772  0.6613  0.2738
  997SOL    HW1 3311   0.620   2.869   3.244  0.9308 -0.2744  0.7909
  997SOL    HW2 3312   0.556   2.721   3.219 -0.3725  0.5106 -0.7592
  998SOL     OW 3313   0.758   2.616   4.316  0.0738 -0.2846 -0.3842
  998SOL    HW1 3314   0.736   2.524   4.349  0.2168  0.1357  0.9312
  998SOL    HW2 3315   0.721   2.684   4.380 -0.0803  0.5865 -1.3658
  999SOL     OW 3316   0.650   3.285   3.388 -0.3235  0.0160  0.6019
  999SOL    HW1 3317   0.645   3.228   3.469  0.0839  0.4228  0.9212
  999SOL    HW2 3318   0.586   3.361   3.396  2.1497  2.1276  2.2298
 1000SOL     OW 3319   0.036   1.021   3.241 -0.0881 -0.2993 -0.0416
 1000SOL    HW1 3320   0.080   0.953   3.183  1.7456  0.0688  0.8304
 1000SOL    HW2 3321   0.005   1.098   3.185  0.6128 -0.4648 -0.6745
 1001SOL     OW 3322   1.505   2.442   2.957  0.0617  0.3252 -0.3829
 1001SOL    HW1 3323   1.496   2.530   2.909 -0.3960  0.1959 -0.5406
 1001SOL    HW2 3324   1.510   2.459   3.056 -1.1854  0.4697 -0.3310
 1002SOL     OW 3325   0.656   3.423   1.834  0.3734  0.4762 -0.0802
 1002SOL    HW1 3326   0.684   3.427   1.930 -0.8411  1.3562  0.2649
 1002SOL    HW2 3327   0.569   3.375   1.826  0.3848  0.5492 -0.7199
 1003SOL     OW 3328   0.403   3.443   2.913 -0.4001 -0.4774  0.4178
 1003SOL    HW1 3329   0.382   3.514   2.981 -0.1907 -1.2646  1.3232
 1003SOL    HW2 3330   0.340   3.451   2.836 -0.8246  0.2503  0.8270
 1004SOL     OW 3331   0.782   3.623   1.519 -0.6149  0.4235 -0.4248
 1004SOL    HW1 3332   0.786   3.541   1.576 -0.4174  0.6193 -0.1510
 1004SOL    HW2 3333   0.687   3.653   1.510 -0.6684  0.2716 -0.3712
 1005SOL     OW 3334   2.051   2.104   2.466  0.3830 -0.4699 -0.0664
 1005SOL    HW1 3335   2.127   2.074   2.408  1.3478  0.4507  0.6959
 1005SOL    HW2 3336   1.970   2.047   2.447  1.9183 -3.1101  0.7977
 1006SOL     OW 3337   4.221   2.187   4.141  0.4446  0.2454 -0.2222
 1006SOL    HW1 3338   4.227   2.287   4.139  0.1896  0.2908  0.9687
 1006SOL    HW2 3339   4.130   2.159   4.169  1.1127 -0.2952  1.5452
 1007SOL     OW 3340   1.293   3.077   3.822 -0.7456  0.1733 -0.1013
 1007SOL    HW1 3341   1.245   3.160   3.794 -2.5012 -1.5201 -2.5425
 1007SOL    HW2 3342   1.232   3.020   3.877  0.6648  0.6969  2.1352
 1008SOL     OW 3343   0.531   3.640   2.536 -0.1817  0.0237  0.3152
 1008SOL    HW1 3344   0.595   3.663   2.463 -0.3651 -0.0475  0.1295
 1008SOL    HW2 3345   0.456   3.585   2.498 -0.6672  0.6114  0.4139
 1009SOL     OW 3346   0.089   2.054   1.322  0.2017 -0.5244  0.6965
 1009SOL    HW1 3347   0.088   2.003   1.408  0.6220 -2.2223 -0.2498
 1009SOL    HW2 3348   0.183   2.071   1.294  0.0988  1.7710  1.4914
 1010SOL     OW 3349   2.131   3.104   3.863 -0.0886  0.3746  0.2600
 1010SOL    HW1 3350   2.113   3.007   3.883  3.1911 -0.0844  1.6963
 1010SOL    HW2 3351   2.106   3.159   3.942  0.7129  0.2890  0.5827
 1011SOL     OW 3352   1.486   3.145   3.626 -0.2135  0.6792 -0.3121
 1011SOL    HW1 3353   1.444   3.235   3.618  0.1413  1.0901  1.8942
 1011SOL    HW2 3354   1.426   3.085   3.679  1.6419  1.1550  2.5533
 1012SOL     OW 3355   0.641   3.415   2.788 -0.1658 -0.0509  0.4582
 1012SOL    HW1 3356   0.625   3.331   2.736  0.1002 -1.2746  2.2391
 1012SOL    HW2 3357   0.554   3.449   2.824 -0.5471  1.5516 -1.7662
 1013SOL     OW 3358   0.942   4.154   3.395  1.0172 -0.0757  0.0302
 1013SOL    HW1 3359   1.035   4.116   3.397  1.5249  1.1561  1.9649
 1013SOL    HW2 3360   0.933   4.225   3.464 -0.6058  1.7296 -1.8911
 1014SOL     OW 3361   0.880   3.200   0.797  0.1548  0.1162 -0.5136
 1014SOL    HW1 3362   0.811   3.147   0.846 -0.0172  0.3818 -0.4641
 1014SOL    HW2 3363   0.894   3.161   0.707 -2.9971  2.3058 -2.1612
 1015SOL     OW 3364   5.480   3.207   2.377  0.0607  0.1011 -0.3793
 1015SOL    HW1 3365   5.491   3.304   2.356  1.4231 -0.2539 -1.4762
 1015SOL    HW2 3366   5.391   3.192   2.420 -0.2182  1.8098 -0.2888
 1016SOL     OW 3367   5.616   3.408   2.778  0.3421  0.0445 -0.1041
 1016SOL    HW1 3368   5.543   3.428   2.713  0.1819 -0.6495 -0.1451
 1016SOL    HW2 3369   5.608   3.314   2.809  1.6877 -0.2837 -0.7029
 1017SOL     OW 3370   0.533   3.601   1.384  0.4825  0.0320 -0.2378
 1017SOL    HW1 3371   0.449   3.571   1.430  0.5067  0.8127  0.3350
 1017SOL    HW2 3372   0.512   3.623   1.289  0.0509  0.1475 -0.1187
 1018SOL     OW 3373   1.806   3.293   2.752 -0.5397 -0.4319  0.2382
 1018SOL    HW1 3374   1.837   3.297   2.847 -0.0435 -1.1227  0.1218
 1018SOL    HW2 3375   1.716   3.335   2.744 -0.2916  0.2382  0.8854
 1019SOL     OW 3376   2.230   3.775   2.456  0.3805  0.3218 -0.2733
 1019SOL    HW1 3377   2.257   3.745   2.547 -0.2242  0.3766 -0.0672
 1019SOL    HW2 3378   2.269   3.865   2.437  1.3541 -0.1345 -0.4846
 1020SOL     OW 3379   0.437   3.473   3.436  0.0025 -0.1091 -0.1716
 1020SOL    HW1 3380   0.366   3.523   3.387 -1.3192 -2.2623 -0.5961
 1020SOL    HW2 3381   0.441   3.505   3.531  0.3133  1.8236 -0.7892
 1021SOL     OW 3382   1.536   2.791   3.947  0.2197 -0.6719 -0.0416
 1021SOL    HW1 3383   1.545   2.888   3.969  0.3658  0.1584 -3.2892
 1021SOL    HW2 3384   1.590   2.737   4.012  0.3825  1.4048  1.6604
 1022SOL     OW 3385   1.632   3.513   1.445 -0.4073  0.5264  0.2292
 1022SOL    HW1 3386   1.550   3.471   1.482 -0.4166 -0.4034 -0.8105
 1022SOL    HW2 3387   1.620   3.528   1.346  0.2962  1.2864  0.2505
 1023SOL     OW 3388   2.343   3.600   2.634  0.1029 -0.3277  0.7213
 1023SOL    HW1 3389   2.386   3.538   2.567 -0.0835  1.9270 -1.6632
 1023SOL    HW2 3390   2.255   3.562   2.663 -0.8965 -0.4103 -2.1147
 1024SOL     OW 3391   5.583   2.749   3.688 -0.0822 -0.0753  0.1869
 1024SOL    HW1 3392   5.635   2.681   3.739  0.5140 -0.0101 -0.3187
 1024SOL    HW2 3393   5.523   2.799   3.750  0.7371  0.1018  0.8560
 1025SOL     OW 3394   0.916   2.489   2.929 -0.4452  0.8537 -0.0719
 1025SOL    HW1 3395   0.846   2.544   2.973 -0.0293 -0.3243  2.2067
 1025SOL    HW2 3396   1.006   2.532   2.942 -0.3842  0.7791 -0.2433
 1026SOL     OW 3397   4.806   4.162   3.739  0.2975  0.2038 -0.0493
 1026SOL    HW1 3398   4.906   4.165   3.743  0.3034  0.6644 -0.3777
 1026SOL    HW2 3399   4.772   4.086   3.794  0.7850  0.5542  0.7610
 1027SOL     OW 3400   2.209   2.901   2.094  0.6490 -0.5232 -0.9601
 1027SOL    HW1 3401   2.284   2.935   2.037  0.2687 -0.4499 -1.4230
 1027SOL    HW2 3402   2.164   2.978   2.140 -0.3619 -0.3462 -2.1914
 1028SOL     OW 3403   2.609   3.652   3.436  0.5857  0.2378  1.0866
 1028SOL    HW1 3404   2.570   3.654   3.344 -0.7801  0.0820  1.6452
 1028SOL    HW2 3405   2.536   3.639   3.503  1.6325 -0.3067  2.1557
 1029SOL     OW 3406   1.883   1.641   2.281  0.3930  0.2520 -0.4247
 1029SOL    HW1 3407   1.892   1.542   2.280  3.8084  0.3869  1.5918
 1029SOL    HW2 3408   1.821   1.668   2.356 -1.0143 -0.3154 -1.3549
 1030SOL     OW 3409   2.052   2.540   1.438 -0.6080 -0.0937  0.1983
 1030SOL    HW1 3410   1.978   2.552   1.504  0.0678 -0.9846  1.1597
 1030SOL    HW2 3411   2.023   2.479   1.365 -1.6826  1.6394 -0.8756
 1031SOL     OW 3412   1.138   3.992   2.057 -0.3585  0.2033  0.5868
 1031SOL    HW1 3413   1.195   3.910   2.061  4.2426  3.0129 -0.2009
 1031SOL    HW2 3414   1.110   4.009   1.962  0.1647  0.3977  0.4631
 1032SOL     OW 3415   0.898   3.067   2.982 -0.3569  0.6297 -0.3006
 1032SOL    HW1 3416   0.868   3.124   3.059  0.9624  1.0456 -0.0709
 1032SOL    HW2 3417   0.956   2.993   3.016 -1.5871 -0.5487 -0.6668
 1033SOL     OW 3418   1.944   2.974   2.876  0.2086 -0.6242 -0.2620
 1033SOL    HW1 3419   1.953   3.072   2.858 -0.7632 -0.8465 -2.2879
 1033SOL    HW2 3420   1.922   2.960   2.972 -3.5707  1.4882 -0.6163
 1034SOL     OW 3421   2.530   5.510   1.460 -0.0469  0.0220  0.4104
 1034SOL    HW1 3422   2.623   5.523   1.426 -0.1395 -0.4276 -0.0235
 1034SOL    HW2 3423   2.499   5.594   1.506  0.2006  0.5350 -0.3447
 1035SOL     OW 3424   1.062   2.198   3.563 -1.2184 -0.0481  0.5482
 1035SOL    HW1 3425   1.111   2.111   3.559 -1.9044 -0.4668  0.9404
 1035SOL    HW2 3426   0.974   2.184   3.610 -1.8255  0.6301 -0.3684
 1036SOL     OW 3427   1.637   3.544   2.007 -0.6022 -0.3379  0.0108
 1036SOL    HW1 3428   1.554   3.494   1.980 -0.8064  0.8406 -1.6825
 1036SOL    HW2 3429   1.613   3.613   2.075 -0.9199 -0.3530 -0.0805
 1037SOL     OW 3430   1.474   3.056   4.024  0.2409  0.1193  0.3120
 1037SOL    HW1 3431   1.399   3.095   3.971  0.3442  1.1958  0.9393
 1037SOL    HW2 3432   1.561   3.087   3.986  0.3374  0.0645  0.4876
 1038SOL     OW 3433   4.813   1.243   2.731  0.4264 -0.2189 -0.2800
 1038SOL    HW1 3434   4.785   1.192   2.812  0.8065  2.9792  2.0768
 1038SOL    HW2 3435   4.912   1.236   2.720  0.3004 -1.1579 -0.8694
 1039SOL     OW 3436   2.411   2.920   1.848 -0.4915 -0.1214  0.3371
 1039SOL    HW1 3437   2.391   3.007   1.804  0.2056 -0.7530 -1.3066
 1039SOL    HW2 3438   2.385   2.845   1.787 -0.9789 -1.0796  1.6711
 1040SOL     OW 3439   1.493   3.726   1.819 -0.3615  0.4251 -0.4343
 1040SOL    HW1 3440   1.510   3.817   1.856 -2.6550  0.1611  1.5198
 1040SOL    HW2 3441   1.431   3.733   1.741  0.8031  0.6290 -1.3638
 1041SOL     OW 3442   0.296   2.263   0.860  0.1561  0.0602 -0.1986
 1041SOL    HW1 3443   0.212   2.244   0.911  0.6104 -0.1121  0.5064
 1041SOL    HW2 3444   0.332   2.353   0.888  1.2403 -0.6991  0.9617
 1042SOL     OW 3445   0.285   2.425   1.793  0.3824  0.1784  0.2054
 1042SOL    HW1 3446   0.229   2.437   1.712 -0.6754 -0.4040  0.8326
 1042SOL    HW2 3447   0.246   2.353   1.851  1.7692 -0.2491  0.6694
 1043SOL     OW 3448   1.862   1.045   3.475 -0.1452 -0.0766 -0.3998
 1043SOL    HW1 3449   1.825   0.971   3.419 -1.0091  0.5257 -0.6528
 1043SOL    HW2 3450   1.961   1.051   3.462 -0.2710 -0.2445 -1.5101
 1044SOL     OW 3451   4.905   1.673   0.249  0.1429  0.1868 -0.0698
 1044SOL    HW1 3452   4.839   1.744   0.271  0.4916  0.6783 -0.5813
 1044SOL    HW2 3453   4.866   1.583   0.272 -1.1727  0.3688 -1.4494
 1045SOL     OW 3454   1.680   2.890   2.831  0.1698  0.3421  0.7927
 1045SOL    HW1 3455   1.642   2.898   2.923  1.7760 -0.9220  1.6188
 1045SOL    HW2 3456   1.771   2.931   2.829  0.1162  0.4467 -0.2824
 1046SOL     OW 3457   0.222   2.199   1.946 -0.0565  0.2219 -0.1741
 1046SOL    HW1 3458   0.264   2.188   2.036 -1.3412 -0.7248  0.3525
 1046SOL    HW2 3459   0.262   2.135   1.881  2.0613  2.0430 -0.7827
 1047SOL     OW 3460   1.816   3.926   1.464  0.5700  0.3438  0.5808
 1047SOL    HW1 3461   1.749   3.976   1.520 -0.4608 -0.2931 -0.0492
 1047SOL    HW2 3462   1.860   3.988   1.400 -0.1144  0.6129  0.3613
 1048SOL     OW 3463   1.509   3.529   3.744  0.4007  0.2954  0.2177
 1048SOL    HW1 3464   1.447   3.482   3.680 -0.0532  1.3073 -0.1149
 1048SOL    HW2 3465   1.597   3.544   3.699 -0.1935  1.7768 -0.5315
 1049SOL     OW 3466   1.519   4.829   3.330  0.0456  0.1255  0.0701
 1049SOL    HW1 3467   1.520   4.730   3.313  0.4772  0.3582 -1.4350
 1049SOL    HW2 3468   1.582   4.874   3.267 -3.3251  1.8133 -2.4157
 1050SOL     OW 3469   0.088   1.754   3.923 -0.1918  0.3404  0.1662
 1050SOL    HW1 3470   0.158   1.826   3.929 -0.2337  0.2740  1.9983
 1050SOL    HW2 3471   0.020   1.780   3.854 -1.0364  2.8482  1.7815
 1051SOL     OW 3472   1.687   2.250   4.567  0.1192  0.3901  0.3892
 1051SOL    HW1 3473   1.712   2.197   4.486 -0.6896 -0.3462  0.6005
 1051SOL    HW2 3474   1.741   2.220   4.645 -0.4903 -0.3003  0.5582
 1052SOL     OW 3475   1.986   2.955   4.230 -0.1980  0.4945  0.4286
 1052SOL    HW1 3476   1.953   2.903   4.152 -0.0282  0.7738  0.1693
 1052SOL    HW2 3477   2.022   2.893   4.299  0.8316  0.3097 -0.2617
 1053SOL     OW 3478   1.417   3.754   2.963  0.5706  0.6237  0.2669
 1053SOL    HW1 3479   1.422   3.656   2.945 -2.0417  0.2808  1.0077
 1053SOL    HW2 3480   1.344   3.794   2.907  0.4994  1.8209  1.1689
 1054SOL     OW 3481   1.952   0.779   2.602 -0.0299  0.1984 -0.4648
 1054SOL    HW1 3482   2.045   0.799   2.634 -0.4313  0.0806  0.8457
 1054SOL    HW2 3483   1.887   0.800   2.675 -0.8840 -1.2681 -0.7632
 1055SOL     OW 3484   0.392   3.346   1.744  0.3594  0.2871 -0.2611
 1055SOL    HW1 3485   0.391   3.285   1.665  0.5840 -0.0254 -0.0256
 1055SOL    HW2 3486   0.299   3.364   1.775  0.1851  1.4304 -1.3732
 1056SOL     OW 3487   2.027   2.228   2.056  0.1307  0.1716  0.3574
 1056SOL    HW1 3488   2.046   2.259   1.963 -0.8388  1.2666  0.4982
 1056SOL    HW2 3489   2.095   2.266   2.118 -0.8633  1.8818  0.4822
 1057SOL     OW 3490   1.745   1.894   3.706  0.4230  0.5416  0.1713
 1057SOL    HW1 3491   1.693   1.967   3.750 -0.9173 -2.4596  4.1435
 1057SOL    HW2 3492   1.683   1.821   3.677  1.9445 -0.2870 -1.1908
 1058SOL     OW 3493   1.201   3.196   2.484 -0.1653 -0.0417  0.3985
 1058SOL    HW1 3494   1.189   3.285   2.528  2.5935 -0.2950  1.9061
 1058SOL    HW2 3495   1.171   3.124   2.546 -0.7968 -0.2352 -0.1273
 1059SOL     OW 3496   1.045   4.035   1.800 -0.2681 -0.1185 -0.2539
 1059SOL    HW1 3497   0.954   3.995   1.788  0.1950 -1.1169 -0.6018
 1059SOL    HW2 3498   1.099   4.020   1.717  0.4760 -0.2709  0.2453
 1060SOL     OW 3499   1.269   2.823   2.338 -0.3414  0.4213 -0.5078
 1060SOL    HW1 3500   1.278   2.792   2.432 -0.2454 -0.3150 -0.7509
 1060SOL    HW2 3501   1.360   2.828   2.296 -0.4355  0.0612 -0.7671
 1061SOL     OW 3502   1.509   3.394   1.141  0.3971 -0.5018  0.0311
 1061SOL    HW1 3503   1.565   3.478   1.142 -2.5962  1.6699 -1.1647
 1061SOL    HW2 3504   1.543   3.332   1.071  3.6357 -1.1512  1.9582
 1062SOL     OW 3505   2.354   2.227   2.209 -0.2019 -0.2716 -0.2535
 1062SOL    HW1 3506   2.389   2.273   2.291 -0.3808 -0.0594 -0.2935
 1062SOL    HW2 3507   2.319   2.137   2.233  0.7145 -0.6503 -0.2751
 1063SOL     OW 3508   0.670   1.965   2.713 -0.2167  0.4725  0.0490
 1063SOL    HW1 3509   0.594   1.954   2.649  0.0367  0.9275 -0.3391
 1063SOL    HW2 3510   0.756   1.946   2.666  0.0584  1.8302 -0.0503
 1064SOL     OW 3511   0.430   3.030   1.713 -0.2295  0.3141 -0.1594
 1064SOL    HW1 3512   0.527   3.005   1.714 -0.2781 -0.0226  2.1838
 1064SOL    HW2 3513   0.374   2.947   1.713 -0.4656  0.4595  0.9375
 1065SOL     OW 3514   0.988   4.536   4.043 -0.0557  0.2564 -0.4295
 1065SOL    HW1 3515   0.899   4.572   4.014  0.2429 -0.8742 -3.1135
 1065SOL    HW2 3516   0.990   4.527   4.142 -1.4338  4.0327  0.0954
 1066SOL     OW 3517   2.866   1.484   3.519  0.1151  0.4172 -0.0403
 1066SOL    HW1 3518   2.924   1.487   3.601  0.2550 -1.7908  0.0079
 1066SOL    HW2 3519   2.771   1.499   3.545  0.1820 -0.0598  0.5062
 1067SOL     OW 3520   1.785   2.172   3.281  0.3513 -0.3951  0.1581
 1067SOL    HW1 3521   1.767   2.237   3.354 -0.4596  0.4382 -0.7505
 1067SOL    HW2 3522   1.833   2.219   3.206  1.6471 -1.3535  0.3606
 1068SOL     OW 3523   1.527   3.336   2.693 -0.4212  0.1813 -0.1845
 1068SOL    HW1 3524   1.480   3.260   2.738 -0.2020 -0.2979 -0.7500
 1068SOL    HW2 3525   1.528   3.321   2.594  0.5771  0.3776 -0.2139
 1069SOL     OW 3526   1.341   2.094   3.078  0.3795 -0.4253 -0.4046
 1069SOL    HW1 3527   1.438   2.076   3.089  0.2892 -0.3192  0.6752
 1069SOL    HW2 3528   1.297   2.016   3.033  0.6174 -1.3784  0.9651
 1070SOL     OW 3529   0.942   4.111   2.197 -0.3328 -0.2700 -0.3372
 1070SOL    HW1 3530   1.019   4.085   2.139 -0.7383 -0.2766 -0.8770
 1070SOL    HW2 3531   0.976   4.136   2.288  0.3308 -0.0383 -0.6409
 1071SOL     OW 3532   1.955   2.332   3.116  0.6418 -0.2024 -0.0025
 1071SOL    HW1 3533   2.011   2.383   3.182 -0.4808  2.6020 -1.0704
 1071SOL    HW2 3534   1.881   2.390   3.083 -1.3561 -2.9187 -0.6502
 1072SOL     OW 3535   1.364   2.671   2.852  0.2605 -0.6636  0.2392
 1072SOL    HW1 3536   1.365   2.752   2.911 -0.5654 -1.3993  1.3039
 1072SOL    HW2 3537   1.344   2.699   2.758 -2.9381  0.1622  1.0460
 1073SOL     OW 3538   0.878   2.771   1.965 -0.4227 -0.1726 -0.2496
 1073SOL    HW1 3539   0.832   2.857   1.987 -1.2433 -1.0504  1.6717
 1073SOL    HW2 3540   0.977   2.783   1.975 -0.5206  0.5495 -0.0426
 1074SOL     OW 3541   0.959   4.215   2.493 -0.4061 -0.2320  0.3838
 1074SOL    HW1 3542   0.944   4.117   2.507 -0.1890 -0.3936 -0.4349
 1074SOL    HW2 3543   0.912   4.267   2.565  1.2225 -0.9959  2.0735
 1075SOL     OW 3544   1.931   1.988   2.108 -0.3304  0.1149  0.2516
 1075SOL    HW1 3545   1.971   2.071   2.069 -1.9864  0.0026 -1.9144
 1075SOL    HW2 3546   1.842   2.010   2.148  0.0028 -0.3290  1.2465
 1076SOL     OW 3547   2.992   1.186   1.476 -0.1749 -0.0638  0.0243
 1076SOL    HW1 3548   2.974   1.173   1.379 -0.6955 -1.8405  0.3232
 1076SOL    HW2 3549   3.070   1.247   1.488 -0.3537  0.4950 -1.4928
 1077SOL     OW 3550   0.832   2.510   2.055  0.7195  0.3038  0.0054
 1077SOL    HW1 3551   0.875   2.474   2.138 -1.8225 -2.0391  0.4821
 1077SOL    HW2 3552   0.858   2.605   2.042  2.2084  0.3779  2.7552
 1078SOL     OW 3553   0.379   3.198   3.521  0.4610  0.2896  0.3424
 1078SOL    HW1 3554   0.382   3.169   3.425  0.0320 -0.0506  0.4260
 1078SOL    HW2 3555   0.472   3.210   3.555  0.6091  1.3761 -0.3968
 1079SOL     OW 3556   1.324   3.260   2.252  0.4420 -0.4084  0.3607
 1079SOL    HW1 3557   1.287   3.224   2.337 -0.1649 -0.6521  0.0027
 1079SOL    HW2 3558   1.351   3.184   2.193  1.3353 -0.2339  0.5386
 1080SOL     OW 3559   4.832   2.399   4.054  0.0827  0.2871 -0.1109
 1080SOL    HW1 3560   4.733   2.412   4.052 -0.2074 -1.5571  0.6297
 1080SOL    HW2 3561   4.869   2.408   3.961 -0.5115  2.5494 -0.1851
 1081SOL     OW 3562   5.331   2.230   4.917 -0.2119 -0.3121 -0.1912
 1081SOL    HW1 3563   5.306   2.320   4.951  0.9165 -0.0660  0.0414
 1081SOL    HW2 3564   5.345   2.168   4.994  1.3363 -0.0277 -0.1931
 1082SOL     OW 3565   0.114   2.372   4.688 -0.0153 -0.3650  0.0269
 1082SOL    HW1 3566   0.110   2.363   4.787  2.5728 -0.5402  0.1881
 1082SOL    HW2 3567   0.027   2.343   4.648 -1.1416 -0.1871  2.2252
 1083SOL     OW 3568   0.407   4.155   5.143 -0.1777  0.1198  0.5619
 1083SOL    HW1 3569   0.374   4.222   5.077  0.2801 -0.0332  0.1687
 1083SOL    HW2 3570   0.360   4.068   5.127  0.5324 -0.1543 -0.1290
 1084SOL     OW 3571   2.130   3.496   2.102 -0.0774  0.0273  0.2195
 1084SOL    HW1 3572   2.162   3.515   2.194 -0.4859 -0.3253  0.4369
 1084SOL    HW2 3573   2.159   3.570   2.041 -0.6477  0.7600  0.8209
 1085SOL     OW 3574   1.333   2.423   4.668 -0.1197 -0.2213 -0.2245
 1085SOL    HW1 3575   1.323   2.472   4.755 -0.1894 -0.7556  0.0702
 1085SOL    HW2 3576   1.332   2.324   4.684 -0.8586 -0.3421 -0.9123
 1086SOL     OW 3577   1.311   2.323   3.906 -0.0234 -0.1276 -0.6861
 1086SOL    HW1 3578   1.277   2.417   3.902 -0.7086 -0.3473 -0.3070
 1086SOL    HW2 3579   1.335   2.292   3.814  1.0413  0.7061 -0.7007
 1087SOL     OW 3580   0.908   1.396   4.964 -0.1106  0.3394 -0.0248
 1087SOL    HW1 3581   0.940   1.460   5.034  0.3719  1.3759 -1.1584
 1087SOL    HW2 3582   0.974   1.322   4.953 -0.9832 -0.7702  1.7561
 1088SOL     OW 3583   1.289   2.157   4.733  0.5073  0.2148  0.3024
 1088SOL    HW1 3584   1.327   2.087   4.793  0.3138 -0.4637 -0.3524
 1088SOL    HW2 3585   1.221   2.115   4.672  1.1292  0.7729 -0.7937
 1089SOL     OW 3586   5.171   2.602   3.846  0.3350 -0.2433 -0.2821
 1089SOL    HW1 3587   5.175   2.652   3.759  2.4600  1.5832  0.7524
 1089SOL    HW2 3588   5.243   2.533   3.848  0.1453 -0.4348 -0.0514
 1090SOL     OW 3589   0.174   3.096   5.560  0.3770  0.2545  0.0943
 1090SOL    HW1 3590   0.237   3.119   5.634  1.1085  2.3077 -1.0805
 1090SOL    HW2 3591   0.217   3.116   5.472 -2.1821  2.7184 -0.7509
 1091SOL     OW 3592   0.479   3.995   4.502  0.4389 -0.1498  0.3144
 1091SOL    HW1 3593   0.459   3.925   4.571  0.7483  0.0717  0.6337
 1091SOL    HW2 3594   0.574   3.988   4.473  0.9589  1.1612  1.5598
 1092SOL     OW 3595   1.323   3.764   1.165  0.4608 -0.0460 -0.0915
 1092SOL    HW1 3596   1.411   3.736   1.204  0.5959  0.9760  0.3774
 1092SOL    HW2 3597   1.264   3.684   1.156  1.1184 -0.6091  0.4253
 1093SOL     OW 3598  -0.022   1.089   0.213 -0.0731  1.0315  0.4207
 1093SOL    HW1 3599  -0.035   1.093   0.312  1.6712  2.7458  0.6371
 1093SOL    HW2 3600   0.059   1.034   0.193  0.4334  1.8875  0.0652
 1094SOL     OW 3601   0.665   2.117   5.407 -0.2936 -0.1452  0.4216
 1094SOL    HW1 3602   0.611   2.088   5.328  0.6780 -0.6665 -0.0699
 1094SOL    HW2 3603   0.714   2.038   5.444  1.1174  0.5347  0.0752
 1095SOL     OW 3604   1.018   2.599   4.802 -0.0592  0.6528 -0.4726
 1095SOL    HW1 3605   1.023   2.682   4.857 -2.0876  0.4248  0.1371
 1095SOL    HW2 3606   1.091   2.600   4.734  0.0720  2.8556 -0.3752
 1096SOL     OW 3607   1.308   4.255   4.607 -0.0955 -0.0996  0.1190
 1096SOL    HW1 3608   1.220   4.292   4.578 -0.0055  0.4755  0.5550
 1096SOL    HW2 3609   1.375   4.267   4.534 -0.0213  0.7914  0.3094
 1097SOL     OW 3610   1.101   2.250   4.278 -0.0722  0.2900 -0.1957
 1097SOL    HW1 3611   1.005   2.269   4.301  0.2698  0.9620  0.7284
 1097SOL    HW2 3612   1.159   2.320   4.318  0.8540 -0.3311 -0.4266
 1098SOL     OW 3613   1.309   2.875   4.325 -0.4079 -0.2963  0.9487
 1098SOL    HW1 3614   1.282   2.949   4.386  0.9305  0.5049  0.5957
 1098SOL    HW2 3615   1.347   2.800   4.379  2.1599  0.9988  1.0977
 1099SOL     OW 3616   0.510   3.997   5.418 -0.3205 -0.2910 -0.1296
 1099SOL    HW1 3617   0.565   4.053   5.356 -0.6886  0.5447  0.3005
 1099SOL    HW2 3618   0.547   4.004   5.510 -0.4108 -0.7105 -0.0593
 1100SOL     OW 3619   0.097   3.210   3.165  0.1874  0.1270 -0.5395
 1100SOL    HW1 3620   0.007   3.225   3.204  0.8796  1.3237  0.6864
 1100SOL    HW2 3621   0.102   3.117   3.128  0.2028 -2.2300  4.5311
 1101SOL     OW 3622   1.974   2.316   5.132 -0.0956  0.1259  0.2831
 1101SOL    HW1 3623   1.899   2.381   5.142 -1.1186 -1.0870  0.7532
 1101SOL    HW2 3624   2.030   2.316   5.215  0.2765  0.8128  0.0469
 1102SOL     OW 3625   4.872   1.602   4.869  0.3242  0.2955  0.5055
 1102SOL    HW1 3626   4.960   1.560   4.850 -0.7803 -2.0321  0.2164
 1102SOL    HW2 3627   4.799   1.536   4.853 -1.8281  3.1303 -2.9551
 1103SOL     OW 3628   0.975   3.861   4.640 -0.5950  0.3494  0.3180
 1103SOL    HW1 3629   0.931   3.772   4.648 -0.9257  0.4695 -0.1276
 1103SOL    HW2 3630   1.074   3.850   4.648 -0.6600 -0.0104  0.6296
 1104SOL     OW 3631   5.190   3.228   3.132  0.0948 -0.5819  0.0314
 1104SOL    HW1 3632   5.093   3.210   3.148  0.3503 -1.4277  0.7495
 1104SOL    HW2 3633   5.221   3.174   3.054 -0.0818 -0.0547 -0.4087
 1105SOL     OW 3634   2.088   2.900   3.507  0.5279 -0.2410 -0.0714
 1105SOL    HW1 3635   2.084   2.991   3.465  2.8752  0.1168  0.3548
 1105SOL    HW2 3636   2.157   2.845   3.460  0.2242 -1.2839  0.6812
 1106SOL     OW 3637   1.666   3.314   5.182 -0.5196  0.0693  0.3803
 1106SOL    HW1 3638   1.755   3.288   5.219 -0.0709  1.0765  0.0429
 1106SOL    HW2 3639   1.678   3.354   5.091 -1.1333  1.5234  0.9038
 1107SOL     OW 3640   1.449   2.039   5.516  0.0781  0.3724  0.2944
 1107SOL    HW1 3641   1.461   1.952   5.470  2.1104  1.4705 -1.4311
 1107SOL    HW2 3642   1.351   2.061   5.520 -0.3279 -0.8878 -1.3971
 1108SOL     OW 3643   0.505   2.885   3.724  0.0195 -0.0650 -0.2632
 1108SOL    HW1 3644   0.475   2.824   3.651  0.0644  0.8068 -1.0290
 1108SOL    HW2 3645   0.443   2.963   3.731  0.0956 -0.0622  0.5380
 1109SOL     OW 3646   0.908   3.408   4.996 -0.1994 -0.2005 -0.5165
 1109SOL    HW1 3647   0.820   3.451   4.978 -0.4439  0.2905  1.6187
 1109SOL    HW2 3648   0.943   3.439   5.084  2.9223  0.9129 -2.0044
 1110SOL     OW 3649   0.958   2.443   4.474 -0.0560 -0.5389  0.3593
 1110SOL    HW1 3650   0.864   2.429   4.445 -0.1062  0.8516 -0.1858
 1110SOL    HW2 3651   1.003   2.508   4.413  0.2829  1.3171  2.4861
 1111SOL     OW 3652   0.847   2.689   5.358 -0.2205 -0.0867  0.3485
 1111SOL    HW1 3653   0.864   2.773   5.409 -0.3843 -1.0710  2.0987
 1111SOL    HW2 3654   0.762   2.647   5.391  0.2253 -1.2984  0.0155
 1112SOL     OW 3655   1.255   2.432   4.407  0.4828  0.2469  0.8749
 1112SOL    HW1 3656   1.218   2.524   4.395 -0.2604  0.1300  2.1233
 1112SOL    HW2 3657   1.261   2.410   4.504 -1.4037 -1.8225  0.5945
 1113SOL     OW 3658   0.640   2.736   4.950 -0.5195 -0.0506 -0.2991
 1113SOL    HW1 3659   0.618   2.831   4.926 -0.0533  0.2154  0.2843
 1113SOL    HW2 3660   0.634   2.725   5.049  0.7365 -0.2815 -0.2326
 1114SOL     OW 3661   5.494   1.975   4.510  0.1838 -0.5052 -0.2360
 1114SOL    HW1 3662   5.460   2.046   4.449 -1.0147  0.8008  1.8580
 1114SOL    HW2 3663   5.476   1.885   4.470 -1.0908  0.2877 -1.5187
 1115SOL     OW 3664   1.555   2.467   4.525  0.4076 -0.1296  0.0163
 1115SOL    HW1 3665   1.474   2.446   4.579 -0.3497 -0.5061 -1.2496
 1115SOL    HW2 3666   1.620   2.390   4.530  0.5758  0.0539  0.7912
 1116SOL     OW 3667   2.085   3.661   3.305 -0.5162 -0.1609 -0.4638
 1116SOL    HW1 3668   2.094   3.727   3.230 -2.4515  1.5904  0.7099
 1116SOL    HW2 3669   2.013   3.693   3.368  1.6982 -0.9644  2.7187
 1117SOL     OW 3670   0.880   2.276   3.970 -0.0147  0.7742 -0.3755
 1117SOL    HW1 3671   0.964   2.224   3.985 -0.3869  0.3385  0.2765
 1117SOL    HW2 3672   0.801   2.221   4.000 -0.4281  1.6729  0.2421
 1118SOL     OW 3673   0.834   0.046   4.090  0.1149  0.5613 -0.5327
 1118SOL    HW1 3674   0.851  -0.023   4.160 -1.3966 -0.0053 -0.6905
 1118SOL    HW2 3675   0.781   0.121   4.130  1.1896  1.3323 -0.5245
 1119SOL     OW 3676   1.350   3.716   3.838 -0.0389  0.0127  0.2437
 1119SOL    HW1 3677   1.417   3.643   3.854 -0.6971 -0.5675  0.3745
 1119SOL    HW2 3678   1.325   3.719   3.742  0.4932  0.5131  0.1172
 1120SOL     OW 3679   2.463   1.141   5.008  0.6713 -0.1745  0.3094
 1120SOL    HW1 3680   2.403   1.220   5.023 -0.0023 -0.4260 -0.9986
 1120SOL    HW2 3681   2.488   1.135   4.912  2.3596 -0.4135  0.7285
 1121SOL     OW 3682   0.817   1.835   5.486 -0.3301 -0.1518  0.0366
 1121SOL    HW1 3683   0.772   1.877   5.564 -1.5970  0.0805 -0.7867
 1121SOL    HW2 3684   0.916   1.850   5.493 -0.1905 -1.6952  2.4993
 1122SOL     OW 3685   0.438   3.772   0.668 -0.5652  0.0441 -0.1445
 1122SOL    HW1 3686   0.349   3.734   0.645 -0.4380 -0.4539  0.1758
 1122SOL    HW2 3687   0.426   3.862   0.711 -0.9973 -0.6737  1.2722
 1123SOL     OW 3688   0.276   2.322   5.253 -0.4072  0.1969  1.0444
 1123SOL    HW1 3689   0.349   2.375   5.210 -1.4065  1.6828  1.0816
 1123SOL    HW2 3690   0.267   2.234   5.207  0.2869  0.6861 -0.0760
 1124SOL     OW 3691   1.978   3.122   3.419 -0.0498  0.0445 -0.1143
 1124SOL    HW1 3692   2.006   3.190   3.486 -0.6066  0.6891 -0.5289
 1124SOL    HW2 3693   1.881   3.099   3.433  0.4646 -1.7363  0.9409
 1125SOL     OW 3694   1.631   2.209   4.082  0.1058 -0.2256  0.4269
 1125SOL    HW1 3695   1.578   2.129   4.056 -1.2608  0.7471  0.0490
 1125SOL    HW2 3696   1.571   2.273   4.131  0.5545  1.5215 -1.2044
 1126SOL     OW 3697   0.285   3.474   4.860 -0.0077  0.0538  0.3126
 1126SOL    HW1 3698   0.321   3.440   4.773 -1.4076 -0.7366  0.0140
 1126SOL    HW2 3699   0.244   3.564   4.846 -0.6065 -0.2547  0.0495
 1127SOL     OW 3700   0.915   2.514   4.091 -0.1275  0.6063 -0.0529
 1127SOL    HW1 3701   0.891   2.427   4.047 -0.3109  0.8854 -0.5101
 1127SOL    HW2 3702   0.835   2.549   4.140 -0.2476  0.8494 -0.4241
 1128SOL     OW 3703   1.913   3.258   5.346  0.1277  0.1688  0.1972
 1128SOL    HW1 3704   1.989   3.318   5.370  0.3078 -0.5430  1.5678
 1128SOL    HW2 3705   1.939   3.163   5.364  0.3543 -0.5188 -3.2263
 1129SOL     OW 3706   0.233   2.975   3.660  0.1418  0.3558  0.3499
 1129SOL    HW1 3707   0.138   3.003   3.671 -0.2040  0.3904 -2.2110
 1129SOL    HW2 3708   0.281   3.042   3.603  1.0317 -0.9073 -0.4238
 1130SOL     OW 3709   1.520   1.785   5.465  0.3894  0.2394 -0.1004
 1130SOL    HW1 3710   1.616   1.799   5.440  0.6644 -2.2966 -0.7345
 1130SOL    HW2 3711   1.497   1.688   5.458 -1.7514  0.5124  1.8485
 1131SOL     OW 3712   0.969   2.672   3.266  0.5418 -0.1457 -0.8108
 1131SOL    HW1 3713   1.019   2.616   3.331 -0.2052  0.9665  0.7739
 1131SOL    HW2 3714   0.872   2.646   3.267 -0.3370  2.6498  1.7891
 1132SOL     OW 3715   0.738   2.711   4.695  0.3274 -0.5736  0.1074
 1132SOL    HW1 3716   0.836   2.713   4.715  0.2831 -0.8535  0.3637
 1132SOL    HW2 3717   0.687   2.714   4.781  0.1162 -0.9609 -0.0048
 1133SOL     OW 3718   0.991   2.433   3.391 -0.2440  0.4828  0.0160
 1133SOL    HW1 3719   1.013   2.403   3.298 -0.1011  0.3046  0.1075
 1133SOL    HW2 3720   1.023   2.365   3.456  0.8883  1.2449  0.2858
 1134SOL     OW 3721   2.345   5.073   4.970 -0.4346  0.1833  0.1666
 1134SOL    HW1 3722   2.428   5.100   4.922 -1.3026  1.2491 -0.8101
 1134SOL    HW2 3723   2.267   5.123   4.931 -1.2736  0.6184  2.2766
 1135SOL     OW 3724   0.325   1.999   2.963  0.6096  0.0980 -0.0728
 1135SOL    HW1 3725   0.343   1.949   3.048 -1.1100  0.1406  0.3462
 1135SOL    HW2 3726   0.329   1.935   2.885 -1.7665 -0.8100  0.4733
 1136SOL     OW 3727   2.333   3.350   4.668 -0.2313 -0.3606 -0.1244
 1136SOL    HW1 3728   2.427   3.371   4.693 -0.2624  0.6476 -0.7737
 1136SOL    HW2 3729   2.310   3.257   4.695  1.1306 -0.8075 -0.4573
 1137SOL     OW 3730   0.210   3.084   4.604 -0.0971 -0.1542  0.1206
 1137SOL    HW1 3731   0.124   3.129   4.580 -0.5433 -1.5267 -1.0175
 1137SOL    HW2 3732   0.248   3.039   4.523  0.5504 -1.4326  1.0987
 1138SOL     OW 3733   1.385   4.396   5.098  0.1516  0.6116  0.4798
 1138SOL    HW1 3734   1.346   4.488   5.091 -1.4152 -0.0490  0.0792
 1138SOL    HW2 3735   1.380   4.351   5.009  0.9850  0.1591  0.6536
 1139SOL     OW 3736   0.505   2.668   5.175 -0.0865 -0.3560  0.3862
 1139SOL    HW1 3737   0.477   2.592   5.115 -0.2704  0.1166 -0.1351
 1139SOL    HW2 3738   0.552   2.632   5.255  0.3270 -0.9844 -0.1362
 1140SOL     OW 3739   2.404   3.760   4.396 -0.0132 -0.1971  0.5359
 1140SOL    HW1 3740   2.501   3.759   4.416  0.0730  1.0690  0.2873
 1140SOL    HW2 3741   2.357   3.819   4.461 -0.4365  0.1220 -0.0463
 1141SOL     OW 3742   1.123   2.901   3.938  0.7721  0.0641  0.0952
 1141SOL    HW1 3743   1.036   2.853   3.951  0.0223  1.3533 -0.0508
 1141SOL    HW2 3744   1.193   2.857   3.994  0.3182 -1.6858 -0.6180
 1142SOL     OW 3745   0.502   1.976   3.543 -0.1877 -0.3733 -0.6837
 1142SOL    HW1 3746   0.423   1.930   3.584  1.2624 -2.1365  0.3025
 1142SOL    HW2 3747   0.575   1.983   3.610  0.5369  1.2105 -1.5776
 1143SOL     OW 3748   3.564   3.348   4.952  0.0103 -0.8747 -0.6352
 1143SOL    HW1 3749   3.470   3.334   4.982 -0.4987  0.3290 -1.5687
 1143SOL    HW2 3750   3.565   3.369   4.854  0.6274  4.0713  0.1575
 1144SOL     OW 3751   1.142   2.152   4.046 -0.2286  0.2634  0.1535
 1144SOL    HW1 3752   1.197   2.202   3.979  1.1799  0.4016  1.3674
 1144SOL    HW2 3753   1.144   2.200   4.134  0.3545 -1.3775  1.0902
 1145SOL     OW 3754   0.032   2.180   4.115 -0.7988  0.0885  0.4200
 1145SOL    HW1 3755   0.052   2.087   4.146 -0.8523  0.2511  0.9508
 1145SOL    HW2 3756   0.087   2.200   4.034 -0.1089 -0.0868  0.8359
 1146SOL     OW 3757   0.937   1.554   5.457  0.7670  0.2612  0.5310
 1146SOL    HW1 3758   0.877   1.631   5.479 -1.8176 -1.6994  0.8217
 1146SOL    HW2 3759   1.022   1.589   5.418 -0.6324  3.2053 -0.2067
 1147SOL     OW 3760   0.730   1.817   3.443 -0.2222 -0.5280  0.2745
 1147SOL    HW1 3761   0.660   1.875   3.483  0.7425 -0.3005  1.6903
 1147SOL    HW2 3762   0.801   1.798   3.510  1.5465 -0.0253 -1.3527
 1148SOL     OW 3763   2.502   2.430   4.964  0.7980 -0.0612 -0.3535
 1148SOL    HW1 3764   2.460   2.446   5.054  2.1139 -1.8447  0.6310
 1148SOL    HW2 3765   2.598   2.457   4.968  1.1557 -1.2271 -0.8706
 1149SOL     OW 3766   0.304   4.832   5.262 -0.2051 -0.0639  0.0604
 1149SOL    HW1 3767   0.250   4.908   5.227  0.1175  0.5924  0.9506
 1149SOL    HW2 3768   0.396   4.834   5.223 -0.0008  0.3767  0.5538
 1150SOL     OW 3769   0.822   2.507   5.051 -0.0430 -0.2691  0.3315
 1150SOL    HW1 3770   0.733   2.542   5.023 -0.3337 -0.5491  0.8898
 1150SOL    HW2 3771   0.889   2.581   5.047 -0.3616  0.0196  0.2052
 1151SOL     OW 3772   1.565   1.828   4.408  0.0584 -0.4145  0.1004
 1151SOL    HW1 3773   1.641   1.814   4.344  0.9588  0.6571  0.9064
 1151SOL    HW2 3774   1.538   1.924   4.409 -1.1343 -0.7262  0.0458
 1152SOL     OW 3775   5.425   1.319   3.859 -0.0673  0.2985  0.4038
 1152SOL    HW1 3776   5.327   1.299   3.860 -0.0592  0.2411  0.1342
 1152SOL    HW2 3777   5.462   1.298   3.769  0.7105 -2.0845  1.2097
 1153SOL     OW 3778   0.965   0.961   4.876 -0.8056  0.0604 -0.1807
 1153SOL    HW1 3779   0.886   1.020   4.892 -1.3560  0.3281 -3.3111
 1153SOL    HW2 3780   0.934   0.873   4.840  0.2086 -0.9888  1.3906
 1154SOL     OW 3781   1.687   2.625   3.385 -0.2920 -0.3008 -0.3670
 1154SOL    HW1 3782   1.673   2.533   3.421 -0.5419 -0.2945 -0.4510
 1154SOL    HW2 3783   1.616   2.686   3.419 -1.6511 -0.6911 -2.3342
 1155SOL     OW 3784   0.038   1.108   3.500 -0.1968  0.2850  0.0413
 1155SOL    HW1 3785   0.029   1.088   3.402 -0.6410  1.3618 -0.1493
 1155SOL    HW2 3786   0.133   1.127   3.522 -0.3372  1.8072 -0.5573
 1156SOL     OW 3787   1.226   1.812   4.387 -0.5852 -0.2878  0.0438
 1156SOL    HW1 3788   1.153   1.753   4.423 -0.2176 -0.6221  0.2435
 1156SOL    HW2 3789   1.296   1.756   4.343 -0.6899  0.0691 -0.5901
 1157SOL     OW 3790   1.259   2.582   3.892 -0.8750 -0.2736 -0.1510
 1157SOL    HW1 3791   1.280   2.648   3.965  0.6170 -0.9765  0.1183
 1157SOL    HW2 3792   1.169   2.600   3.854 -1.0464  1.0652  0.8376
 1158SOL     OW 3793   1.875   3.113   4.517  0.3536 -0.7092 -0.8810
 1158SOL    HW1 3794   1.810   3.038   4.529 -1.1166  0.6924  0.1677
 1158SOL    HW2 3795   1.872   3.145   4.422 -1.0648 -0.1735 -0.6765
 1159SOL     OW 3796   0.886   2.774   3.983  0.2710 -0.0266  0.2553
 1159SOL    HW1 3797   0.849   2.736   4.067  0.0356  1.0412  0.6511
 1159SOL    HW2 3798   0.815   2.825   3.935  0.3893 -0.6661 -0.6284
 1160SOL     OW 3799   1.948   4.094   0.658  0.3052  0.1013  0.2389
 1160SOL    HW1 3800   1.907   4.181   0.686  0.5559  0.2092  0.2764
 1160SOL    HW2 3801   1.878   4.035   0.618  0.3898  0.8804 -1.1353
 1161SOL     OW 3802   1.138   1.949   3.322 -0.2656 -0.0258 -0.2145
 1161SOL    HW1 3803   1.210   1.901   3.272 -0.4278  0.9955 -1.4735
 1161SOL    HW2 3804   1.050   1.936   3.276 -0.2486  1.7632 -0.8610
 1162SOL     OW 3805   0.033   3.363   5.394 -0.3019  0.0877 -0.0070
 1162SOL    HW1 3806  -0.059   3.402   5.402 -0.2181  0.5646 -1.2259
 1162SOL    HW2 3807   0.030   3.280   5.338 -0.0709 -0.2280  0.4380
 1163SOL     OW 3808   0.620   2.204   4.061  0.3287 -0.3499 -0.6287
 1163SOL    HW1 3809   0.532   2.202   4.109  0.8933  1.6692  0.5852
 1163SOL    HW2 3810   0.682   2.139   4.104 -0.4112 -1.5301 -1.2694
 1164SOL     OW 3811   1.654   2.648   2.706 -0.1001 -0.1346 -0.5163
 1164SOL    HW1 3812   1.604   2.717   2.758 -0.1592  0.0174 -0.7777
 1164SOL    HW2 3813   1.590   2.596   2.650 -0.4846 -2.1815  1.6430
 1165SOL     OW 3814   1.474   0.028   4.055 -0.7150 -0.1206 -0.0622
 1165SOL    HW1 3815   1.460  -0.014   4.145  1.3585 -1.0198 -0.1006
 1165SOL    HW2 3816   1.570   0.052   4.044 -0.1580 -3.0005 -3.1962
 1166SOL     OW 3817   1.650   3.740   4.722 -0.1555  0.1252 -0.2378
 1166SOL    HW1 3818   1.573   3.705   4.776 -0.1911 -1.1298 -1.0592
 1166SOL    HW2 3819   1.735   3.725   4.773 -0.1894 -1.0416 -0.4862
 1167SOL     OW 3820   1.012   2.253   4.676  0.7260  0.1525  0.6843
 1167SOL    HW1 3821   1.087   2.270   4.740 -1.6740  2.0143  3.2565
 1167SOL    HW2 3822   1.010   2.326   4.608  2.8547 -1.4473 -1.2251
 1168SOL     OW 3823   1.168   2.066   4.490  0.2148 -0.0347 -0.1256
 1168SOL    HW1 3824   1.143   2.128   4.416  2.7386  0.8557 -0.3532
 1168SOL    HW2 3825   1.188   1.975   4.453  0.4084  0.1133 -0.3869
 1169SOL     OW 3826   4.868   1.732   4.039  0.4814 -0.8836  0.2629
 1169SOL    HW1 3827   4.947   1.674   4.058  1.6081  0.6023  0.3324
 1169SOL    HW2 3828   4.844   1.784   4.121  0.9892  0.4609 -0.4067
 1170SOL     OW 3829   2.220   4.097   3.788 -0.2959 -0.0079  0.7418
 1170SOL    HW1 3830   2.169   4.016   3.759  0.6165 -0.0666 -0.8152
 1170SOL    HW2 3831   2.318   4.078   3.782 -0.0661  1.2438  0.2143
 1171SOL     OW 3832   1.618   2.109   3.814 -0.3444 -0.0417 -0.1707
 1171SOL    HW1 3833   1.666   2.195   3.828 -0.2195 -0.1391 -0.0009
 1171SOL    HW2 3834   1.575   2.079   3.899  0.6972 -0.8023  0.1066
 1172SOL     OW 3835   0.872   2.239   3.179  0.6004 -1.0135  0.5131
 1172SOL    HW1 3836   0.775   2.251   3.201  0.6993 -0.4884  0.6822
 1172SOL    HW2 3837   0.903   2.151   3.214  0.3821 -0.8317  1.1797
 1173SOL     OW 3838   1.931   3.848   0.002  0.0793 -0.0162 -0.1902
 1173SOL    HW1 3839   1.971   3.766   0.041  0.1580  0.3202  0.4552
 1173SOL    HW2 3840   1.861   3.884   0.064 -3.2235 -2.0358 -2.3736
 1174SOL     OW 3841   5.397   2.620   3.546 -0.3183  0.1033 -0.2005
 1174SOL    HW1 3842   5.298   2.635   3.544 -0.1653  1.1246 -1.9015
 1174SOL    HW2 3843   5.439   2.681   3.612 -0.7597  0.0487  0.1337
 1175SOL     OW 3844   2.217   3.766   5.421 -0.0611  0.1448 -0.0412
 1175SOL    HW1 3845   2.300   3.810   5.388 -0.8075  3.3478  1.8854
 1175SOL    HW2 3846   2.171   3.718   5.346  2.0621  0.6585 -1.7409
 1176SOL     OW 3847   0.910   2.963   5.430  0.5122 -0.2942  0.3048
 1176SOL    HW1 3848   0.819   3.004   5.431  1.2888  1.4955  1.3403
 1176SOL    HW2 3849   0.960   2.990   5.512  2.1200 -0.9399 -0.4224
 1177SOL     OW 3850   1.245   2.823   4.960  1.0720 -0.0751 -0.4752
 1177SOL    HW1 3851   1.158   2.873   4.962  0.9123 -0.3107  2.2796
 1177SOL    HW2 3852   1.311   2.869   5.020  2.3244 -0.8381 -1.2250
 1178SOL     OW 3853   1.442   2.375   4.173 -0.2859 -0.1259 -0.1652
 1178SOL    HW1 3854   1.403   2.385   4.082  1.1580 -1.8028 -1.0246
 1178SOL    HW2 3855   1.370   2.386   4.242 -1.5540  0.3491 -1.5277
 1179SOL     OW 3856   1.637   3.057   5.360 -0.2108 -0.7700  0.0814
 1179SOL    HW1 3857   1.646   3.153   5.386 -2.4084 -0.6505  0.6096
 1179SOL    HW2 3858   1.552   3.020   5.399 -0.0752 -2.5616 -1.2095
 1180SOL     OW 3859   1.779   2.103   4.316  0.6429  0.7009  0.2049
 1180SOL    HW1 3860   1.709   2.139   4.255  0.5598 -0.0885 -0.1759
 1180SOL    HW2 3861   1.798   2.008   4.293  0.3466  0.2594  1.6278
 1181SOL     OW 3862   0.994   3.479   5.244  0.0983  0.2033 -0.0505
 1181SOL    HW1 3863   0.927   3.434   5.303 -0.1025  0.7682  0.1585
 1181SOL    HW2 3864   0.992   3.577   5.261  1.4838  0.1640  0.4737
 1182SOL     OW 3865   1.404   2.423   3.418  0.3276 -0.0184 -0.2293
 1182SOL    HW1 3866   1.355   2.494   3.367 -0.5554  1.2691  2.2489
 1182SOL    HW2 3867   1.363   2.334   3.398 -0.2979  0.4913 -1.3596
 1183SOL     OW 3868   5.358   2.938   5.166  0.0076 -0.2525  0.2707
 1183SOL    HW1 3869   5.315   2.879   5.234  0.0440 -0.0607  0.4602
 1183SOL    HW2 3870   5.396   2.882   5.092 -0.2458 -0.4451  0.2856
 1184SOL     OW 3871   1.686   1.972   4.819 -0.2964  0.0754 -0.6397
 1184SOL    HW1 3872   1.695   1.873   4.829 -0.1793  0.2298  1.0577
 1184SOL    HW2 3873   1.745   2.018   4.885  0.0604  1.3013 -1.7674
 1185SOL     OW 3874   5.246   1.799   0.066 -0.2105 -0.1303  0.5529
 1185SOL    HW1 3875   5.156   1.819   0.104 -0.1678  0.1159  0.5244
 1185SOL    HW2 3876   5.245   1.707   0.025 -1.8809  1.5073 -3.6334
 1186SOL     OW 3877   0.960   2.988   3.720 -0.0857 -0.2270 -0.1156
 1186SOL    HW1 3878   1.027   2.962   3.790 -2.1660 -2.5804  1.1399
 1186SOL    HW2 3879   0.869   2.994   3.761 -0.8104  2.5730 -1.8355
 1187SOL     OW 3880   1.000   2.609   3.779 -0.0065  0.7848 -0.4917
 1187SOL    HW1 3881   0.955   2.656   3.855  0.8982  0.4884  0.2467
 1187SOL    HW2 3882   0.948   2.527   3.755  1.0410 -0.5390  1.5434
 1188SOL     OW 3883   1.449   2.033   4.003  0.0378  0.5273  0.2542
 1188SOL    HW1 3884   1.366   2.085   3.982  0.6737  1.8118  0.8162
 1188SOL    HW2 3885   1.424   1.938   4.021 -0.9577  0.1779 -2.4790
 1189SOL     OW 3886   4.755   2.272   0.252 -0.1644  0.4125 -0.6342
 1189SOL    HW1 3887   4.775   2.174   0.251 -1.1161  0.1880  0.3589
 1189SOL    HW2 3888   4.683   2.292   0.186 -1.2822  0.1096  0.4502
 1190SOL     OW 3889   1.877   3.472   4.797  0.4199 -0.8170  0.5328
 1190SOL    HW1 3890   1.966   3.434   4.820  1.2535  0.0626 -1.0982
 1190SOL    HW2 3891   1.842   3.429   4.714 -0.3177 -0.5942  0.7179
 1191SOL     OW 3892   0.767   1.309   5.415 -0.1584 -0.0990 -0.1226
 1191SOL    HW1 3893   0.839   1.372   5.446 -1.4416 -0.1324  3.3813
 1191SOL    HW2 3894   0.791   1.216   5.443  0.4460 -0.8611 -2.8971
 1192SOL     OW 3895   5.369   1.993   5.484 -0.4491 -0.5892  0.0678
 1192SOL    HW1 3896   5.347   1.920   5.549 -1.5332  0.6132  1.1067
 1192SOL    HW2 3897   5.285   2.024   5.439  0.0689 -0.3264 -0.7388
 1193SOL     OW 3898   0.953   4.510   0.076 -0.6309 -0.2460  0.2206
 1193SOL    HW1 3899   0.863   4.499   0.034 -0.8764  0.7903  0.4287
 1193SOL    HW2 3900   1.010   4.431   0.055 -0.9319 -0.0255 -1.5913
 1194SOL     OW 3901   1.979   3.636   4.550  0.5858 -0.3724 -0.2072
 1194SOL    HW1 3902   2.075   3.612   4.563  0.3896 -0.0119  2.4529
 1194SOL    HW2 3903   1.923   3.586   4.616 -0.7915  1.2294 -0.0972
 1195SOL     OW 3904   0.775   1.981   4.163 -0.0187  0.1944 -0.3363
 1195SOL    HW1 3905   0.860   1.929   4.169  0.3594  0.6739 -1.2512
 1195SOL    HW2 3906   0.745   2.009   4.254  1.2141  0.6613 -0.0641
 1196SOL     OW 3907   5.106   2.162   5.465 -0.0468 -0.0598 -0.2012
 1196SOL    HW1 3908   5.010   2.190   5.455  0.2472  0.3646 -2.4714
 1196SOL    HW2 3909   5.152   2.222   5.530 -1.0138  0.5423 -0.0469
 1197SOL     OW 3910   5.400   4.061   5.555 -0.0730  0.5705 -0.3246
 1197SOL    HW1 3911   5.365   4.134   5.614  1.1712  0.6608  0.3257
 1197SOL    HW2 3912   5.336   4.046   5.480 -1.6597  0.5258  0.9770
 1198SOL     OW 3913   1.034   1.869   0.085 -0.2792 -0.6704 -0.0417
 1198SOL    HW1 3914   1.004   1.933   0.155 -1.2441 -1.9136  0.7394
 1198SOL    HW2 3915   1.000   1.777   0.108 -0.8068 -1.0789 -2.2535
 1199SOL     OW 3916   1.739   3.276   5.566  0.0103  0.1357 -0.3388
 1199SOL    HW1 3917   1.792   3.292   5.483  2.1783 -0.0305  0.9461
 1199SOL    HW2 3918   1.654   3.328   5.562  0.6912  1.1694 -2.0841
 1200SOL     OW 3919   0.531   1.732   3.801  0.2730 -0.6086 -0.5157
 1200SOL    HW1 3920   0.568   1.680   3.879  0.6137  0.7795  0.2819
 1200SOL    HW2 3921   0.593   1.807   3.779 -0.2494 -0.4826 -1.5895
 1201SOL     OW 3922   0.908   0.886   4.063 -0.4105  0.1455  0.3644
 1201SOL    HW1 3923   0.830   0.944   4.087 -1.6513 -1.8175  1.3541
 1201SOL    HW2 3924   0.936   0.834   4.144 -1.1612 -2.6498 -1.0387
 1202SOL     OW 3925   1.670   1.460   5.218  0.1653  0.3692  0.2211
 1202SOL    HW1 3926   1.770   1.456   5.215  0.1666  0.6275 -1.2445
 1202SOL    HW2 3927   1.633   1.371   5.194  0.0474  0.4190  0.2207
 1203SOL     OW 3928   1.501   3.433   5.576 -0.3167  0.0697 -0.1645
 1203SOL    HW1 3929   1.420   3.480   5.539 -1.3623  0.4320  2.3838
 1203SOL    HW2 3930   1.472   3.358   5.635  1.1846  0.2625  0.8799
 1204SOL     OW 3931   2.182   4.003   0.073 -0.4020 -0.0938 -0.0458
 1204SOL    HW1 3932   2.122   3.954   0.009  0.5707 -1.6089  0.1526
 1204SOL    HW2 3933   2.130   4.027   0.155 -1.3686  0.8759 -0.9095
 1205SOL     OW 3934   5.517   3.211   4.918  0.0231 -0.1167  0.0591
 1205SOL    HW1 3935   5.596   3.273   4.917  0.6320 -0.8758 -0.7173
 1205SOL    HW2 3936   5.433   3.264   4.920  0.5291  0.7174  2.2161
 1206SOL     OW 3937   1.506   2.517   2.515 -0.2190  0.2140 -0.1327
 1206SOL    HW1 3938   1.539   2.506   2.421 -1.0594 -0.2749 -0.3853
 1206SOL    HW2 3939   1.476   2.429   2.551  1.0361  0.2125  0.9801
 1207SOL     OW 3940   1.834   1.829   5.152 -0.6141  0.5696  0.0950
 1207SOL    HW1 3941   1.749   1.785   5.123 -0.4561 -0.2635  0.8505
 1207SOL    HW2 3942   1.911   1.794   5.098 -0.5151  0.0367  0.5704
 1208SOL     OW 3943   1.154   3.598   4.276  0.0342 -0.6554 -0.1607
 1208SOL    HW1 3944   1.230   3.536   4.256 -0.3170 -1.6850  1.4431
 1208SOL    HW2 3945   1.132   3.592   4.373 -1.4522  0.3775 -0.4070
 1209SOL     OW 3946   1.316   0.908   4.473  0.0414  0.2724  0.2608
 1209SOL    HW1 3947   1.274   0.998   4.480  0.4056  0.4169  0.6417
 1209SOL    HW2 3948   1.399   0.913   4.418  0.5932  0.3744  1.0743
 1210SOL     OW 3949   5.351   2.620   3.286 -1.1179 -0.4872 -0.3524
 1210SOL    HW1 3950   5.376   2.527   3.258 -4.0934 -1.6989  0.5906
 1210SOL    HW2 3951   5.396   2.642   3.373 -1.5340 -1.6988  0.1962
 1211SOL     OW 3952   1.310   1.375   4.307  0.0159  1.0074 -0.1110
 1211SOL    HW1 3953   1.404   1.376   4.273  0.1303 -0.1936  0.1518
 1211SOL    HW2 3954   1.301   1.443   4.380  0.9095  0.5634  0.4391
 1212SOL     OW 3955   0.881   1.998   4.616  0.2473 -0.2410  0.1246
 1212SOL    HW1 3956   0.920   2.086   4.645  0.3466 -0.2286 -0.0434
 1212SOL    HW2 3957   0.952   1.944   4.571 -0.1139  0.0897 -0.8734
 1213SOL     OW 3958   0.102   2.626   4.567 -0.1226  0.0697 -0.1381
 1213SOL    HW1 3959   0.086   2.674   4.653 -0.4014  0.2206 -0.2747
 1213SOL    HW2 3960   0.124   2.530   4.586  0.0345  0.1543  0.1115
 1214SOL     OW 3961   0.956   2.854   4.977 -0.2207 -0.2341  0.4083
 1214SOL    HW1 3962   0.969   2.795   5.057  0.5980  0.5969  0.9150
 1214SOL    HW2 3963   0.871   2.905   4.986 -0.6050 -0.8362  0.2794
 1215SOL     OW 3964   0.790   4.062   3.732 -0.0882 -0.0526 -0.2324
 1215SOL    HW1 3965   0.690   4.064   3.734 -0.1852 -1.7759 -1.3993
 1215SOL    HW2 3966   0.823   4.141   3.681 -0.9280 -0.1309 -0.9364
 1216SOL     OW 3967   0.223   2.917   5.090 -0.4271 -0.0764 -0.2589
 1216SOL    HW1 3968   0.287   2.981   5.132 -0.5763 -0.6970  0.9659
 1216SOL    HW2 3969   0.172   2.963   5.018  2.3414  0.0833 -2.2696
 1217SOL     OW 3970   0.302   1.835   3.634 -0.2445 -0.0602 -0.0516
 1217SOL    HW1 3971   0.325   1.859   3.729  0.0700  2.2290 -0.6484
 1217SOL    HW2 3972   0.315   1.736   3.621  1.4907 -0.1584  1.8049
 1218SOL     OW 3973   0.376   1.699   4.565  0.3294  0.0638 -0.3723
 1218SOL    HW1 3974   0.414   1.618   4.519 -0.3651 -0.5303  0.0692
 1218SOL    HW2 3975   0.395   1.694   4.663 -0.5655 -0.0750 -0.1939
 1219SOL     OW 3976   1.356   2.146   5.113 -0.1268  0.7450 -0.5974
 1219SOL    HW1 3977   1.444   2.180   5.144 -0.1952  0.3741  0.0188
 1219SOL    HW2 3978   1.370   2.071   5.048  0.0268  0.1601  0.0867
 1220SOL     OW 3979   1.305   2.628   3.282 -0.3235  0.3778 -0.1964
 1220SOL    HW1 3980   1.399   2.653   3.259  0.0109 -1.0742 -0.5255
 1220SOL    HW2 3981   1.270   2.690   3.353  1.3148  0.2124  0.8123
 1221SOL     OW 3982   1.885   2.698   3.227  0.1572 -0.2466  0.3753
 1221SOL    HW1 3983   1.832   2.658   3.302 -1.1952  2.2039  0.8598
 1221SOL    HW2 3984   1.843   2.785   3.200  2.4423  0.4880 -1.0863
 1222SOL     OW 3985   1.306   3.723   5.242 -0.2835  0.3282 -0.2663
 1222SOL    HW1 3986   1.310   3.800   5.177  3.6741  1.5212  1.1217
 1222SOL    HW2 3987   1.375   3.655   5.217 -1.1146 -0.9181  0.7268
 1223SOL     OW 3988   1.347   1.593   5.112 -0.3194 -0.1400  0.4708
 1223SOL    HW1 3989   1.432   1.641   5.131  0.3024 -1.3473  0.8209
 1223SOL    HW2 3990   1.305   1.564   5.198 -0.2377 -0.9830  0.2316
 1224SOL     OW 3991   0.844   3.364   0.180  0.7752 -0.0177 -0.6350
 1224SOL    HW1 3992   0.831   3.266   0.195 -0.3820  0.1053 -0.7961
 1224SOL    HW2 3993   0.883   3.405   0.262 -0.1331 -0.3606 -0.0201
 1225SOL     OW 3994   0.973   2.876   2.576 -0.4987  0.0217  0.6871
 1225SOL    HW1 3995   0.962   2.797   2.636 -1.0291  0.5215  1.2527
 1225SOL    HW2 3996   0.956   2.848   2.481 -2.7685 -0.1299  1.0764
 1226SOL     OW 3997   5.086   2.588   4.117  0.0989 -0.5532 -0.1926
 1226SOL    HW1 3998   5.049   2.496   4.100 -0.5774 -0.3579  0.1684
 1226SOL    HW2 3999   5.136   2.619   4.036 -0.8988 -0.6728 -0.8830
 1227SOL     OW 4000   1.088   2.089   5.284  0.2643  0.3061 -0.2312
 1227SOL    HW1 4001   1.026   2.166   5.272  0.8389  1.4478  3.0469
 1227SOL    HW2 4002   1.157   2.090   5.211 -2.5097 -0.1255 -3.0831
 1228SOL     OW 4003   1.831   2.382   4.048 -1.1400  0.1422  0.2304
 1228SOL    HW1 4004   1.902   2.357   4.114 -0.0021 -0.8810 -1.3180
 1228SOL    HW2 4005   1.756   2.315   4.053 -1.2040  0.2450  0.6872
 1229SOL     OW 4006   1.730   3.932   0.158 -0.2503  0.3290  0.1888
 1229SOL    HW1 4007   1.651   3.951   0.099 -0.0493  0.2957 -0.0914
 1229SOL    HW2 4008   1.739   4.006   0.225 -2.1730 -0.9868  2.0252
 1230SOL     OW 4009   3.331   3.208   4.997 -0.1865 -0.4111 -0.4994
 1230SOL    HW1 4010   3.248   3.202   5.053 -0.2544 -0.5922 -0.6171
 1230SOL    HW2 4011   3.401   3.146   5.034 -0.1389 -0.3309 -0.4569
 1231SOL     OW 4012   5.363   2.932   3.760  0.1161  0.2188  0.5331
 1231SOL    HW1 4013   5.273   2.936   3.718 -0.4363  0.4815  1.6941
 1231SOL    HW2 4014   5.420   3.006   3.724 -1.1907  2.0724  2.0632
 1232SOL     OW 4015   0.702   4.119   4.810  0.0693  0.4035 -0.7478
 1232SOL    HW1 4016   0.686   4.180   4.888 -0.5193  0.2214 -0.7218
 1232SOL    HW2 4017   0.717   4.026   4.843 -2.1828 -0.0772 -0.9136
 1233SOL     OW 4018   2.120   1.212   4.646  0.1401 -0.3504  0.1962
 1233SOL    HW1 4019   2.201   1.155   4.633  1.7816  1.6513  0.8951
 1233SOL    HW2 4020   2.127   1.294   4.589 -0.9873  0.2597  0.8907
 1234SOL     OW 4021   0.890   3.381   2.706  0.1859  0.3862 -0.3405
 1234SOL    HW1 4022   0.888   3.282   2.697  0.4665  0.5255 -2.6623
 1234SOL    HW2 4023   0.805   3.413   2.746  0.1589 -0.7856  0.5795
 1235SOL     OW 4024   0.897   4.408   0.422 -0.1061  0.5309 -0.2665
 1235SOL    HW1 4025   0.923   4.426   0.327 -3.3324  0.2904 -1.3440
 1235SOL    HW2 4026   0.960   4.455   0.484  1.5126  1.5420 -2.5359
 1236SOL     OW 4027   1.460   2.723   3.488 -0.0788 -0.2062 -0.3975
 1236SOL    HW1 4028   1.384   2.784   3.467 -0.9072 -1.7977 -2.2797
 1236SOL    HW2 4029   1.428   2.648   3.546 -0.0743 -1.1260 -1.5649
 1237SOL     OW 4030   1.877   3.897   4.191 -0.0110 -0.3498  0.2784
 1237SOL    HW1 4031   1.934   3.838   4.249 -0.6697 -0.9876  0.3024
 1237SOL    HW2 4032   1.810   3.840   4.142 -0.4278  0.3443  0.0256
 1238SOL     OW 4033   2.262   3.466   3.301 -0.3764  0.0185  0.4967
 1238SOL    HW1 4034   2.192   3.535   3.323 -0.5738  0.1166 -0.3822
 1238SOL    HW2 4035   2.271   3.402   3.377 -4.6513 -2.6970 -0.8967
 1239SOL     OW 4036   1.721   3.757   5.159  0.1366 -0.2626 -0.1587
 1239SOL    HW1 4037   1.795   3.771   5.092 -1.5857 -0.0673 -2.1223
 1239SOL    HW2 4038   1.715   3.838   5.218  2.2255 -0.7837  0.8849
 1240SOL     OW 4039   2.173   2.143   4.457  0.2346  0.2115 -0.1480
 1240SOL    HW1 4040   2.213   2.062   4.415  2.4095  0.7219  0.7833
 1240SOL    HW2 4041   2.210   2.225   4.414  0.8652  0.7182  1.3013
 1241SOL     OW 4042   0.421   2.075   3.306  0.0655 -0.1427 -0.1049
 1241SOL    HW1 4043   0.442   2.038   3.397  1.4345 -1.4652 -0.9121
 1241SOL    HW2 4044   0.495   2.136   3.278 -0.0577 -0.2152 -0.5846
 1242SOL     OW 4045   0.698   3.011   2.263 -0.2103  0.3160  0.0992
 1242SOL    HW1 4046   0.616   3.013   2.319  0.3944 -2.0215  1.2170
 1242SOL    HW2 4047   0.674   2.986   2.169 -0.8962  1.0053  0.0824
 1243SOL     OW 4048   1.066   3.527   0.044  0.0599  0.3826 -0.6259
 1243SOL    HW1 4049   1.024   3.610   0.080  2.1495  0.3731  2.1977
 1243SOL    HW2 4050   1.073   3.459   0.117  1.9689 -0.7841 -1.7996
 1244SOL     OW 4051   0.574   2.566   4.126  0.5487  0.1403 -0.2968
 1244SOL    HW1 4052   0.484   2.528   4.147  1.6947 -3.3834 -1.1133
 1244SOL    HW2 4053   0.614   2.603   4.209 -0.7742 -0.2357  0.5505
 1245SOL     OW 4054   1.482   3.671   4.177  0.1141 -0.0796 -0.7890
 1245SOL    HW1 4055   1.396   3.720   4.166 -0.0461 -0.3221 -0.6125
 1245SOL    HW2 4056   1.526   3.698   4.262  0.6799  0.7546 -1.3228
 1246SOL     OW 4057   0.411   3.183   3.982  0.3973 -0.0466  0.6258
 1246SOL    HW1 4058   0.334   3.203   3.922 -0.6277  0.8381  2.1728
 1246SOL    HW2 4059   0.398   3.093   4.023 -0.4643  0.5786  1.7879
 1247SOL     OW 4060   2.749   2.278   5.121  0.1216  0.1190  0.3651
 1247SOL    HW1 4061   2.801   2.239   5.045 -2.5260  0.2074 -1.6262
 1247SOL    HW2 4062   2.665   2.226   5.134 -0.4460  1.3403  1.9030
 1248SOL     OW 4063   2.669   3.975   4.569  0.5485  0.1994 -0.0740
 1248SOL    HW1 4064   2.693   3.901   4.507  0.5485  0.0358  0.1213
 1248SOL    HW2 4065   2.613   3.940   4.644  0.5351  0.3981  0.0120
 1249SOL     OW 4066   0.928   1.650   0.196  0.0797  0.1082 -0.6234
 1249SOL    HW1 4067   0.845   1.680   0.244 -1.2782 -1.0137 -2.1458
 1249SOL    HW2 4068   0.992   1.611   0.262 -0.9372  0.2878  0.5045
 1250SOL     OW 4069   1.087   3.756   3.389  0.1022  0.1493  0.1674
 1250SOL    HW1 4070   1.026   3.808   3.449 -1.4160  0.1867 -1.3312
 1250SOL    HW2 4071   1.117   3.815   3.314  0.1117 -0.5245 -0.3640
 1251SOL     OW 4072   1.752   2.488   5.176 -0.0928  0.2444  0.1176
 1251SOL    HW1 4073   1.791   2.574   5.144  1.2304 -0.4024 -0.0537
 1251SOL    HW2 4074   1.664   2.472   5.130 -0.3071  1.4458  0.0838
 1252SOL     OW 4075   5.141   3.189   3.438  0.2858 -0.2909 -0.1040
 1252SOL    HW1 4076   5.060   3.247   3.436 -1.2474 -2.3271 -2.5096
 1252SOL    HW2 4077   5.189   3.196   3.350 -0.7647 -3.5828 -1.0771
 1253SOL     OW 4078   0.329   3.143   0.172 -0.1025  0.0166 -0.1576
 1253SOL    HW1 4079   0.398   3.088   0.127 -0.7612 -1.3938  0.4972
 1253SOL    HW2 4080   0.363   3.171   0.262  1.0093  2.4065 -1.2161
 1254SOL     OW 4081   1.537   2.446   5.011  0.6685  0.7683 -0.1827
 1254SOL    HW1 4082   1.443   2.478   4.999  0.6154  0.9628  0.6552
 1254SOL    HW2 4083   1.586   2.453   4.925  0.0922  1.2626 -0.4768
 1255SOL     OW 4084   0.236   1.576   3.615 -0.3798 -0.0968 -0.6094
 1255SOL    HW1 4085   0.246   1.501   3.680 -0.5544  0.5896  0.2262
 1255SOL    HW2 4086   0.157   1.558   3.556  1.6353 -2.3012 -2.8507
 1256SOL     OW 4087   1.581   2.093   0.164 -0.7989  0.0999 -0.0158
 1256SOL    HW1 4088   1.527   2.066   0.085 -1.1902  0.9465 -0.0411
 1256SOL    HW2 4089   1.534   2.064   0.248  0.4728 -2.4392 -0.0719
 1257SOL     OW 4090   0.516   1.886   4.098 -0.1899  0.6118  0.4911
 1257SOL    HW1 4091   0.611   1.913   4.080 -0.3634  0.8544 -0.0925
 1257SOL    HW2 4092   0.515   1.802   4.151  0.3936 -1.5516 -2.6525
 1258SOL     OW 4093   0.350   3.159   3.246  0.4537 -0.1533  0.7839
 1258SOL    HW1 4094   0.421   3.127   3.183  1.8386 -0.7164  2.5403
 1258SOL    HW2 4095   0.264   3.168   3.197  1.2096 -1.6216 -0.9335
 1259SOL     OW 4096   1.294   2.772   4.086 -0.4950  0.6421 -0.2029
 1259SOL    HW1 4097   1.305   2.814   4.176  1.4441 -2.4319  1.1686
 1259SOL    HW2 4098   1.382   2.772   4.038 -1.1361  0.7612 -1.4344
 1260SOL     OW 4099   1.732   4.324   4.524  0.6045 -0.0953  0.1401
 1260SOL    HW1 4100   1.795   4.351   4.451  0.1048 -0.0473 -0.2897
 1260SOL    HW2 4101   1.638   4.332   4.490  0.3531  0.1320  0.8609
 1261SOL     OW 4102   1.318   1.626   0.749  0.3330 -0.1744  0.3193
 1261SOL    HW1 4103   1.236   1.667   0.708 -1.0637 -2.3496  0.8058
 1261SOL    HW2 4104   1.375   1.586   0.678  1.5720  2.2086 -0.1330
 1262SOL     OW 4105   1.484   3.461   4.416  0.6794  0.5619  1.0158
 1262SOL    HW1 4106   1.520   3.427   4.329 -1.4473  1.2783 -0.2290
 1262SOL    HW2 4107   1.469   3.384   4.478  2.2338  0.0409  0.7961
 1263SOL     OW 4108   5.376   3.397   5.355 -0.1186 -0.3593 -0.1673
 1263SOL    HW1 4109   5.338   3.366   5.268  3.3620  0.7380 -2.2617
 1263SOL    HW2 4110   5.325   3.475   5.388 -2.0271 -1.3168 -0.7219
 1264SOL     OW 4111   2.508   2.806   5.407 -0.3274 -0.2460 -0.3468
 1264SOL    HW1 4112   2.485   2.795   5.503 -0.5739  1.0191 -0.2481
 1264SOL    HW2 4113   2.597   2.851   5.399 -0.0669 -0.8081 -0.7227
 1265SOL     OW 4114   1.071   1.876   4.161  0.2856 -0.3485  0.2350
 1265SOL    HW1 4115   1.127   1.865   4.243 -1.2665 -1.1940  1.2095
 1265SOL    HW2 4116   1.086   1.967   4.123  2.1907 -0.4819  0.5324
 1266SOL     OW 4117   5.390   2.355   3.471 -0.4452  0.0615  0.1912
 1266SOL    HW1 4118   5.416   2.444   3.509 -0.5260  0.5709 -0.9248
 1266SOL    HW2 4119   5.439   2.339   3.386  0.8750 -1.7468  1.2267
 1267SOL     OW 4120   1.397   1.253   5.469 -1.1680  0.1306  0.3896
 1267SOL    HW1 4121   1.370   1.222   5.378 -0.3353  0.6000 -0.0363
 1267SOL    HW2 4122   1.372   1.184   5.537 -0.4350 -0.9215 -0.3756
 1268SOL     OW 4123   1.679   2.185   5.405  0.4150  0.6048 -0.3096
 1268SOL    HW1 4124   1.591   2.151   5.440  1.7815 -1.3994  1.4676
 1268SOL    HW2 4125   1.670   2.207   5.308 -1.6909 -0.9693 -0.5499
 1269SOL     OW 4126   0.653   3.855   3.195 -1.0270 -0.0905 -0.1131
 1269SOL    HW1 4127   0.617   3.903   3.275 -0.7467  0.0211 -0.0559
 1269SOL    HW2 4128   0.632   3.758   3.202  1.0164 -0.4880  1.2384
 1270SOL     OW 4129   1.709   3.960   5.359  0.6053 -0.6758 -0.2532
 1270SOL    HW1 4130   1.797   4.008   5.357 -0.0085  0.5906  1.2530
 1270SOL    HW2 4131   1.708   3.893   5.433 -0.3456  0.7195  1.0588
 1271SOL     OW 4132   0.389   3.117   4.812 -0.0907  0.8487 -0.0511
 1271SOL    HW1 4133   0.353   3.104   4.905  1.1517  0.8542  0.4438
 1271SOL    HW2 4134   0.325   3.078   4.746 -0.7355  0.3684  0.8378
 1272SOL     OW 4135   1.084   3.387   3.010 -0.5067  0.2882  0.3052
 1272SOL    HW1 4136   1.080   3.348   3.102  0.7565  2.2793  1.2634
 1272SOL    HW2 4137   0.991   3.410   2.980 -1.1111 -1.8024  0.3672
 1273SOL     OW 4138   2.812   2.512   4.746 -0.1605  0.1317 -0.0887
 1273SOL    HW1 4139   2.753   2.560   4.682  0.8339  0.3032 -0.8961
 1273SOL    HW2 4140   2.783   2.532   4.839 -0.8776  0.8419 -0.4512
 1274SOL     OW 4141   0.664   3.644   0.317 -0.2362 -0.3190 -0.3274
 1274SOL    HW1 4142   0.656   3.556   0.363 -2.3527 -0.3800 -0.6737
 1274SOL    HW2 4143   0.713   3.633   0.231  1.1779 -0.7650  0.5092
 1275SOL     OW 4144   5.566   1.911   4.876 -0.2996  0.1184  0.6126
 1275SOL    HW1 4145   5.549   1.877   4.969 -0.6467 -0.4237  0.3628
 1275SOL    HW2 4146   5.493   1.974   4.850 -1.3574 -1.3148 -0.0324
 1276SOL     OW 4147   2.224   3.998   5.190  0.5882  0.1667  0.3383
 1276SOL    HW1 4148   2.230   4.073   5.124  2.0096 -0.9715 -0.9035
 1276SOL    HW2 4149   2.305   3.999   5.249  0.9805 -0.7992 -0.1672
 1277SOL     OW 4150   2.296   1.141   5.326  0.2772  0.3296 -0.3489
 1277SOL    HW1 4151   2.317   1.230   5.286  0.1529  0.3661 -0.3343
 1277SOL    HW2 4152   2.281   1.075   5.253  0.4965  0.2899 -0.3591
 1278SOL     OW 4153   4.783   2.401   4.942  0.0989  0.5761 -0.7721
 1278SOL    HW1 4154   4.755   2.494   4.918 -2.4568 -0.0561 -0.4743
 1278SOL    HW2 4155   4.855   2.371   4.879 -1.1235  1.6987 -2.8278
 1279SOL     OW 4156   1.420   5.432   5.014 -0.2756 -0.2972 -0.6717
 1279SOL    HW1 4157   1.414   5.383   5.101 -0.0426 -1.8704 -1.5044
 1279SOL    HW2 4158   1.472   5.517   5.027 -1.8556  0.4793  1.0909
 1280SOL     OW 4159   0.985   1.619   5.112 -0.8513  0.3901 -0.4357
 1280SOL    HW1 4160   1.066   1.658   5.156 -1.1859  1.1006 -0.4367
 1280SOL    HW2 4161   0.903   1.668   5.143 -1.1778  0.3313 -1.1941
 1281SOL     OW 4162   0.668   3.542   4.867 -0.1015  0.2387 -0.1435
 1281SOL    HW1 4163   0.623   3.454   4.866 -1.9846  1.1493  0.1721
 1281SOL    HW2 4164   0.634   3.596   4.944 -0.5857  2.0093 -1.5300
 1282SOL     OW 4165   2.123   1.931   0.255 -0.3377 -0.5307  0.1666
 1282SOL    HW1 4166   2.047   1.870   0.230 -0.1274 -0.6723 -0.1375
 1282SOL    HW2 4167   2.174   1.890   0.330 -2.2615  0.9108  2.3784
 1283SOL     OW 4168   1.085   0.584   4.661  0.1774 -0.7145 -0.5134
 1283SOL    HW1 4169   1.128   0.496   4.679  1.9650 -0.1326 -1.6396
 1283SOL    HW2 4170   1.041   0.582   4.572  1.2516 -0.1405 -1.0761
 1284SOL     OW 4171   1.893   3.452   4.179  0.0859 -0.0032 -0.7873
 1284SOL    HW1 4172   1.795   3.429   4.183  0.0416  0.2707  0.0956
 1284SOL    HW2 4173   1.908   3.540   4.223  0.7092  0.0407 -1.0799
 1285SOL     OW 4174   5.276   1.875   1.230  0.2100  0.1642 -0.1844
 1285SOL    HW1 4175   5.250   1.872   1.133 -0.3756  0.7451 -0.0540
 1285SOL    HW2 4176   5.374   1.892   1.237  0.4186 -0.7605 -0.6786
 1286SOL     OW 4177   1.568   1.088   3.750  0.3300 -0.2568  0.1974
 1286SOL    HW1 4178   1.613   1.164   3.702  1.0317 -0.2943  0.7841
 1286SOL    HW2 4179   1.527   1.122   3.835 -0.6395 -0.2546 -0.2556
 1287SOL     OW 4180   1.044   1.586   2.791 -0.2708  0.1714 -0.3141
 1287SOL    HW1 4181   1.117   1.554   2.851  0.1543  0.0648 -0.8780
 1287SOL    HW2 4182   1.084   1.627   2.708 -0.8409  0.4991 -0.4351
 1288SOL     OW 4183   5.608   1.627   4.819 -1.2244 -0.5787  0.0177
 1288SOL    HW1 4184   5.543   1.580   4.760 -1.2204 -0.3467 -0.1727
 1288SOL    HW2 4185   5.570   1.715   4.847 -1.0856 -0.5402  0.0869
 1289SOL     OW 4186   0.634   2.802   4.471 -0.2469  0.2934 -0.0362
 1289SOL    HW1 4187   0.692   2.772   4.547  0.4988  1.4178 -0.1265
 1289SOL    HW2 4188   0.538   2.785   4.493 -0.1443  1.6986  1.7151
 1290SOL     OW 4189   1.526   4.719   5.116  0.7093  1.1074 -0.5202
 1290SOL    HW1 4190   1.507   4.812   5.148 -2.1140  0.5146 -0.1777
 1290SOL    HW2 4191   1.463   4.695   5.042 -0.1535 -1.2303  0.8405
 1291SOL     OW 4192   4.894   4.284   0.498 -0.7040 -0.2265 -0.0616
 1291SOL    HW1 4193   4.960   4.313   0.568 -0.3000  0.8938 -0.8810
 1291SOL    HW2 4194   4.918   4.191   0.468 -0.0493 -0.1887  0.3033
 1292SOL     OW 4195   0.240   4.240   0.528 -0.3208 -0.3245 -0.4589
 1292SOL    HW1 4196   0.266   4.147   0.503  0.7174 -0.2843  0.4141
 1292SOL    HW2 4197   0.144   4.255   0.505 -1.0805 -2.2668  1.2183
 1293SOL     OW 4198   0.993   4.550   1.024  0.3113 -0.2029  0.0625
 1293SOL    HW1 4199   0.978   4.627   0.962  1.1314 -1.5141 -1.8382
 1293SOL    HW2 4200   1.010   4.467   0.972  0.3213 -1.5414  2.0597
 1294SOL     OW 4201   1.094   5.390   1.802  0.1462  0.1249 -0.6504
 1294SOL    HW1 4202   1.052   5.300   1.794  0.9809 -0.2978 -0.4099
 1294SOL    HW2 4203   1.069   5.431   1.890  0.0803 -0.0428 -0.5924
 1295SOL     OW 4204   1.284   5.111   1.384 -0.4063  0.2513 -0.2145
 1295SOL    HW1 4205   1.201   5.127   1.437 -0.0341  0.3297  0.3541
 1295SOL    HW2 4206   1.294   5.182   1.314 -2.6787 -1.6559 -2.7076
 1296SOL     OW 4207   0.945   4.111   0.255  0.3133 -0.1028 -0.3832
 1296SOL    HW1 4208   0.854   4.151   0.269 -0.7183 -2.2268 -0.6165
 1296SOL    HW2 4209   0.994   4.109   0.342 -1.2586 -2.0634  0.5459
 1297SOL     OW 4210   2.348   5.050   0.500  0.4342 -0.3102  0.1279
 1297SOL    HW1 4211   2.251   5.051   0.477  0.7754  0.2978 -1.4183
 1297SOL    HW2 4212   2.400   5.095   0.428  1.7411  0.7184  1.6404
 1298SOL     OW 4213   0.999   5.141   2.055 -0.4983  0.0479 -0.4165
 1298SOL    HW1 4214   1.097   5.162   2.059 -0.5916  0.2567  1.4909
 1298SOL    HW2 4215   0.953   5.184   2.132 -1.8296 -1.4412 -0.3410
 1299SOL     OW 4216   1.671   0.166   1.659  0.0035 -0.0321 -0.7517
 1299SOL    HW1 4217   1.714   0.102   1.723 -0.3870  1.1442  0.7359
 1299SOL    HW2 4218   1.735   0.187   1.585  1.0060 -0.3151  0.0205
 1300SOL     OW 4219   1.049   5.347   0.303 -0.0774  0.3273  0.3126
 1300SOL    HW1 4220   1.111   5.377   0.375  0.6490  1.3160 -0.6699
 1300SOL    HW2 4221   1.097   5.283   0.243 -0.0193  0.9817 -0.3636
 1301SOL     OW 4222   0.853   5.334   2.925 -0.3307  0.4510  0.3869
 1301SOL    HW1 4223   0.859   5.397   2.848 -0.9463 -0.4697 -0.4411
 1301SOL    HW2 4224   0.938   5.283   2.934  0.3471  1.7079  1.3573
 1302SOL     OW 4225   5.563   5.582   0.647  0.1698  0.4194  0.6661
 1302SOL    HW1 4226   5.653   5.606   0.610  1.1662 -0.8816  2.0990
 1302SOL    HW2 4227   5.528   5.502   0.599  2.0057 -2.0184  3.0554
 1303SOL     OW 4228   2.109   5.599   1.184  0.2590 -0.1587  0.3967
 1303SOL    HW1 4229   2.136   5.507   1.213  0.5413 -0.6551 -1.3502
 1303SOL    HW2 4230   2.119   5.662   1.261  0.7014 -1.4527  1.4395
 1304SOL     OW 4231   0.304   4.660   1.445 -0.5754  0.5207  0.0701
 1304SOL    HW1 4232   0.323   4.562   1.438 -0.7647  0.5283 -0.5713
 1304SOL    HW2 4233   0.237   4.675   1.518 -0.6809  0.1541  0.0526
 1305SOL     OW 4234   1.331   4.880   1.535 -0.4848 -0.5671  0.2558
 1305SOL    HW1 4235   1.311   4.964   1.484 -1.1687 -1.0092 -0.2113
 1305SOL    HW2 4236   1.407   4.832   1.491 -0.9068 -0.8179 -0.2027
 1306SOL     OW 4237   4.826   0.976   2.139 -0.6656 -0.0807  0.4593
 1306SOL    HW1 4238   4.875   0.928   2.211  0.4486  0.0304 -0.1966
 1306SOL    HW2 4239   4.892   1.008   2.070 -1.8124 -1.4223 -1.3394
 1307SOL     OW 4240   1.231   0.359   2.311 -0.1116  0.0049 -1.0165
 1307SOL    HW1 4241   1.271   0.415   2.238  3.7456 -0.4202  0.4862
 1307SOL    HW2 4242   1.261   0.264   2.300 -1.5302 -0.5554 -0.2203
 1308SOL     OW 4243   0.467   0.401   0.601 -0.2502  0.1160  0.7304
 1308SOL    HW1 4244   0.499   0.496   0.600 -0.0896  0.0887  2.0235
 1308SOL    HW2 4245   0.541   0.342   0.568  0.1790  0.3026  1.3322
 1309SOL     OW 4246   5.234   4.820   0.605 -0.5404  0.5279  0.2017
 1309SOL    HW1 4247   5.241   4.883   0.682 -0.8112  1.9740 -0.9099
 1309SOL    HW2 4248   5.143   4.827   0.564 -0.0794  0.5415 -0.8516
 1310SOL     OW 4249   1.727   1.317   4.000 -0.1543 -0.6251  0.7127
 1310SOL    HW1 4250   1.760   1.258   4.073  1.5798  0.1971  0.6476
 1310SOL    HW2 4251   1.784   1.306   3.918 -0.5477  0.2360  0.2990
 1311SOL     OW 4252   1.130   3.989   0.433  0.6391  0.4275  0.2302
 1311SOL    HW1 4253   1.217   4.003   0.385  0.6811  0.6219  0.3617
 1311SOL    HW2 4254   1.146   3.935   0.515  0.5056 -0.2418 -0.1798
 1312SOL     OW 4255   0.477   2.616   1.560 -0.2352  0.1833  0.3030
 1312SOL    HW1 4256   0.500   2.542   1.497 -0.8604  1.8997 -2.0627
 1312SOL    HW2 4257   0.484   2.582   1.654  0.9832 -2.4130 -0.6131
 1313SOL     OW 4258   4.949   3.956   1.407  0.4941 -0.0413  0.1910
 1313SOL    HW1 4259   5.022   3.962   1.338  0.9440  1.6015  0.7639
 1313SOL    HW2 4260   4.877   3.896   1.374  1.0726  0.0775 -1.3762
 1314SOL     OW 4261   2.811   0.163   4.760  0.3926 -0.4615 -0.8167
 1314SOL    HW1 4262   2.727   0.178   4.708 -1.0784 -3.0638  0.5874
 1314SOL    HW2 4263   2.796   0.192   4.855  0.7631 -1.6938 -0.3677
 1315SOL     OW 4264   0.258   5.111   0.842 -0.2520  0.6594 -0.1781
 1315SOL    HW1 4265   0.299   5.178   0.904  0.2452  0.6009 -0.4345
 1315SOL    HW2 4266   0.287   5.019   0.868  0.8158  0.7129 -1.1218
 1316SOL     OW 4267   1.890   4.568   0.122 -0.3972  0.0818  0.1080
 1316SOL    HW1 4268   1.885   4.596   0.026 -0.0007  0.0629  0.0805
 1316SOL    HW2 4269   1.798   4.559   0.159 -0.8003 -3.4837 -1.3171
 1317SOL     OW 4270   5.543   4.480   5.569 -0.0434 -0.1835  0.6229
 1317SOL    HW1 4271   5.606   4.423   5.516  0.9363  0.6912  0.8132
 1317SOL    HW2 4272   5.564   4.472   5.667  0.4778  0.8946  0.6220
 1318SOL     OW 4273   0.328   3.972   2.017 -0.0532  0.0667  0.0916
 1318SOL    HW1 4274   0.329   4.009   1.924 -0.6202 -0.3718 -0.0951
 1318SOL    HW2 4275   0.419   3.982   2.058  0.7192 -1.3511 -1.1626
 1319SOL     OW 4276   1.764   0.318   0.682  0.5621  0.9277 -0.3202
 1319SOL    HW1 4277   1.824   0.295   0.758 -0.3285 -1.1096 -0.1577
 1319SOL    HW2 4278   1.786   0.409   0.648  2.1883  1.1455  1.1852
 1320SOL     OW 4279   1.263   4.376   1.299 -0.5240  0.6059 -0.2137
 1320SOL    HW1 4280   1.243   4.473   1.287  0.2209  0.8102  0.1115
 1320SOL    HW2 4281   1.232   4.325   1.219 -0.7775  1.1323 -0.4526
 1321SOL     OW 4282   0.252   3.945   1.530  0.0445 -0.7395  0.3519
 1321SOL    HW1 4283   0.223   4.005   1.456  0.8924 -0.4202  0.2598
 1321SOL    HW2 4284   0.173   3.901   1.571 -0.5877  0.4004  0.3846
 1322SOL     OW 4285   4.968   5.290   1.079  0.0040  0.0956  0.2896
 1322SOL    HW1 4286   5.050   5.345   1.067  0.2417 -0.2208  0.4607
 1322SOL    HW2 4287   4.899   5.317   1.012 -0.3876  1.5536  1.2194
 1323SOL     OW 4288   1.563   4.500   1.008 -0.2357 -0.6273 -0.2442
 1323SOL    HW1 4289   1.579   4.454   0.921 -0.1178 -1.3965  0.1781
 1323SOL    HW2 4290   1.646   4.550   1.035  0.3908 -1.9658  0.3633
 1324SOL     OW 4291   0.994   4.057   0.806  0.1541 -0.1040  0.1225
 1324SOL    HW1 4292   1.028   4.151   0.805  1.0176 -0.4072 -0.0672
 1324SOL    HW2 4293   0.917   4.048   0.743  0.3994  0.3585 -0.2491
 1325SOL     OW 4294   4.744   3.777   1.341  0.4056 -0.2440  0.1911
 1325SOL    HW1 4295   4.769   3.690   1.385  0.3238 -0.2188  0.2864
 1325SOL    HW2 4296   4.674   3.823   1.395  0.2921 -0.2219  0.0232
 1326SOL     OW 4297   1.437   5.144   0.874 -0.1545 -0.1178  0.2059
 1326SOL    HW1 4298   1.469   5.235   0.899  1.4785 -1.3751  3.1976
 1326SOL    HW2 4299   1.342   5.132   0.903 -0.1155  0.3476  0.5230
 1327SOL     OW 4300   3.474   0.606   0.672  0.0133 -0.0367  0.2160
 1327SOL    HW1 4301   3.557   0.608   0.615 -0.4234  0.7494 -0.4171
 1327SOL    HW2 4302   3.500   0.618   0.768  0.5939  0.8508 -0.0370
 1328SOL     OW 4303  -0.007   5.010   0.688 -0.1094 -0.2331 -0.0940
 1328SOL    HW1 4304   0.060   4.936   0.679 -0.8326 -1.3037  2.4796
 1328SOL    HW2 4305   0.037   5.089   0.730 -0.2901 -0.7573  1.1249
 1329SOL     OW 4306   1.499   5.216   0.010  0.0572 -0.0888  0.0197
 1329SOL    HW1 4307   1.450   5.297   0.041  0.7433  0.8077 -1.1355
 1329SOL    HW2 4308   1.583   5.205   0.064  0.0782  0.1163  0.0313
 1330SOL     OW 4309   2.846   5.524   0.044 -0.5728 -0.3318  0.6289
 1330SOL    HW1 4310   2.801   5.434   0.040 -1.3994  0.0438  1.2118
 1330SOL    HW2 4311   2.777   5.595   0.059 -0.0087  0.4824 -0.4569
 1331SOL     OW 4312   1.341   3.987   2.488  0.1407 -0.6055 -0.5012
 1331SOL    HW1 4313   1.271   4.046   2.528 -2.2785 -1.7362 -2.7201
 1331SOL    HW2 4314   1.431   4.026   2.504 -1.1235  2.1142  0.6146
 1332SOL     OW 4315   0.892   4.794   1.402 -0.5035 -0.3527  0.0422
 1332SOL    HW1 4316   0.849   4.711   1.367 -2.1720  0.1931  0.6748
 1332SOL    HW2 4317   0.987   4.775   1.427 -0.3228 -1.6083 -1.4491
 1333SOL     OW 4318   0.379   5.015   1.587  0.0349  0.0169 -0.4066
 1333SOL    HW1 4319   0.465   4.964   1.594 -0.0042 -0.1724 -1.2643
 1333SOL    HW2 4320   0.398   5.108   1.555  0.2252  0.9274  2.0670
 1334SOL     OW 4321   0.999   0.098   1.275  0.2546  0.0610  0.5846
 1334SOL    HW1 4322   0.938   0.139   1.343 -0.0608  1.5099 -0.5333
 1334SOL    HW2 4323   1.034   0.169   1.214  1.2629 -1.0815 -0.2133
 1335SOL     OW 4324   1.688   5.478   1.119  0.0612 -0.6081  0.4804
 1335SOL    HW1 4325   1.667   5.402   1.057 -0.1656 -0.6495  0.6063
 1335SOL    HW2 4326   1.767   5.528   1.085  0.5958 -1.2724  0.7215
 1336SOL     OW 4327   3.536   4.270   1.684 -0.2642  0.8925 -0.2869
 1336SOL    HW1 4328   3.537   4.171   1.671  0.8030  0.8636 -0.0553
 1336SOL    HW2 4329   3.571   4.293   1.775  0.2371  1.5110 -0.6237
 1337SOL     OW 4330   0.795   0.451   1.462 -0.1319  0.1643 -0.8747
 1337SOL    HW1 4331   0.824   0.484   1.372 -0.8748  1.9972 -0.4837
 1337SOL    HW2 4332   0.874   0.415   1.511  0.4591  0.0548 -1.8807
 1338SOL     OW 4333   5.483   4.952  -0.015  0.3752 -0.0208  0.1711
 1338SOL    HW1 4334   5.549   4.924   0.055 -0.9034 -2.1401  0.6282
 1338SOL    HW2 4335   5.424   5.024   0.022  1.0973  0.4240  0.4786
 1339SOL     OW 4336   1.710   0.052   1.345  0.3927 -0.5291 -0.2870
 1339SOL    HW1 4337   1.715   0.008   1.256 -0.5743 -1.6980  0.2272
 1339SOL    HW2 4338   1.657  -0.004   1.408 -0.9393  1.3857  0.3782
 1340SOL     OW 4339   2.194   0.798   0.025 -0.6307  0.3993 -0.8376
 1340SOL    HW1 4340   2.206   0.772  -0.071  1.2765  0.6934 -0.7045
 1340SOL    HW2 4341   2.269   0.761   0.080 -1.6697  0.2626  0.5590
 1341SOL     OW 4342   1.531   4.346   1.239  0.0181  0.1937  0.2127
 1341SOL    HW1 4343   1.552   4.405   1.161 -0.1969  1.2160  0.9115
 1341SOL    HW2 4344   1.445   4.375   1.280  0.3355 -0.0740  1.0768
 1342SOL     OW 4345   5.453   4.899   4.993  0.7530 -0.3242  0.0524
 1342SOL    HW1 4346   5.363   4.895   4.950  0.3129 -2.4013  1.0367
 1342SOL    HW2 4347   5.500   4.811   4.982  2.8789  0.8372 -0.7937
 1343SOL     OW 4348   0.305   0.344   1.043  0.0996 -0.2047  0.1120
 1343SOL    HW1 4349   0.389   0.321   1.093 -0.0314  1.0362  0.9636
 1343SOL    HW2 4350   0.284   0.441   1.058 -0.1007  0.1643 -2.1483
 1344SOL     OW 4351   0.981   5.425   1.358 -0.0320 -0.2850  0.3304
 1344SOL    HW1 4352   1.078   5.401   1.347 -0.1510 -0.1623 -1.2056
 1344SOL    HW2 4353   0.971   5.524   1.354 -0.2336 -0.3073  0.2376
 1345SOL     OW 4354   3.210   0.606   0.937  0.6158  0.3829  0.3594
 1345SOL    HW1 4355   3.309   0.597   0.935  0.5785 -0.6797  1.8005
 1345SOL    HW2 4356   3.172   0.569   0.852  1.4707  1.5889 -0.5853
 1346SOL     OW 4357   0.145   0.272   1.262  0.0681 -0.0451 -0.3858
 1346SOL    HW1 4358   0.172   0.259   1.167  0.1428 -1.6093 -0.1692
 1346SOL    HW2 4359   0.173   0.193   1.317 -0.9474  0.3246  0.7227
 1347SOL     OW 4360   2.206   5.354   1.270  0.0399 -0.3925 -0.0117
 1347SOL    HW1 4361   2.232   5.350   1.367 -0.4942  0.5755  0.1784
 1347SOL    HW2 4362   2.257   5.284   1.220  0.2256 -0.9992  0.9888
 1348SOL     OW 4363   5.578   4.597   0.450  0.2233 -0.1035 -0.1592
 1348SOL    HW1 4364   5.511   4.559   0.513 -2.4309  2.1205 -1.3856
 1348SOL    HW2 4365   5.592   4.534   0.373 -0.9667 -0.3671 -0.1756
 1349SOL     OW 4366   5.174   5.331   0.621  0.5494  0.0263  0.3266
 1349SOL    HW1 4367   5.092   5.277   0.598 -0.4513  1.5015  0.3209
 1349SOL    HW2 4368   5.255   5.275   0.606 -0.4237 -1.3108 -0.1750
 1350SOL     OW 4369   0.942   3.430   0.960 -0.2013  0.3452 -0.0386
 1350SOL    HW1 4370   0.895   3.503   0.911 -2.5659  0.6489  2.4495
 1350SOL    HW2 4371   0.918   3.341   0.920 -2.1319  0.5753  0.5203
 1351SOL     OW 4372   2.535   3.714   0.621 -0.0261 -0.1195 -0.4988
 1351SOL    HW1 4373   2.556   3.705   0.718  0.0999 -3.7328 -0.7240
 1351SOL    HW2 4374   2.462   3.782   0.609 -0.5680 -0.0979  2.1851
 1352SOL     OW 4375   0.564   1.936   1.610  0.4783  0.3317 -0.7045
 1352SOL    HW1 4376   0.629   1.998   1.654  0.0112  0.5601 -0.3255
 1352SOL    HW2 4377   0.479   1.985   1.591 -0.0562 -0.3083  0.0014
 1353SOL     OW 4378   1.169   3.665   4.914  0.2361 -0.0234  0.1824
 1353SOL    HW1 4379   1.211   3.692   4.828  2.5368 -3.1813  0.1264
 1353SOL    HW2 4380   1.239   3.659   4.985 -0.7820 -1.7709  1.1115
 1354SOL     OW 4381   0.707   5.372   1.196 -0.0382  0.1730 -0.2964
 1354SOL    HW1 4382   0.799   5.395   1.229 -0.3593 -0.5360  1.1885
 1354SOL    HW2 4383   0.656   5.327   1.269 -2.3973  2.6628 -0.2513
 1355SOL     OW 4384   0.646   5.350   2.524 -0.7738 -0.1065 -0.0556
 1355SOL    HW1 4385   0.628   5.397   2.438  0.5684 -0.4897 -0.5664
 1355SOL    HW2 4386   0.634   5.252   2.511 -0.0489 -0.2111  0.0486
 1356SOL     OW 4387   4.815   4.716   4.977 -0.5228  0.1754  0.1329
 1356SOL    HW1 4388   4.783   4.649   5.044  0.8429  0.5553  1.2073
 1356SOL    HW2 4389   4.885   4.774   5.018  0.8763 -0.0213 -1.8099
 1357SOL     OW 4390   2.184   2.677   2.240 -0.3790 -0.0836 -0.2707
 1357SOL    HW1 4391   2.198   2.766   2.198  1.6294 -0.4279 -0.4357
 1357SOL    HW2 4392   2.188   2.606   2.170 -2.5338 -0.2958 -0.2208
 1358SOL     OW 4393   5.586   4.433   0.235  0.0261  0.2061 -0.1788
 1358SOL    HW1 4394   5.646   4.354   0.222  0.3594  0.6677 -1.7525
 1358SOL    HW2 4395   5.498   4.404   0.273  0.6514 -0.6992  0.6242
 1359SOL     OW 4396   5.439   3.145   1.688 -0.2902 -0.7899  0.3794
 1359SOL    HW1 4397   5.387   3.060   1.684  0.0536 -0.9956  0.2540
 1359SOL    HW2 4398   5.377   3.221   1.706 -0.3136 -1.3250  2.7587
 1360SOL     OW 4399   1.453   4.109   1.407  0.4887 -0.2782  0.0167
 1360SOL    HW1 4400   1.369   4.092   1.356  1.1472  1.8423 -1.8949
 1360SOL    HW2 4401   1.528   4.127   1.344  1.7442  0.7199  1.7030
 1361SOL     OW 4402   1.459   4.853   0.518 -0.0773  0.0985  0.3171
 1361SOL    HW1 4403   1.530   4.857   0.447  0.6550  0.9876  1.0710
 1361SOL    HW2 4404   1.501   4.842   0.608 -1.0174 -1.4106  0.6175
 1362SOL     OW 4405   0.859   5.151   0.009  0.1743 -0.0959  0.8584
 1362SOL    HW1 4406   0.950   5.156  -0.032  0.4444  2.4861  1.5465
 1362SOL    HW2 4407   0.855   5.211   0.089 -1.3620 -2.2606  2.5354
 1363SOL     OW 4408   1.185   3.931   5.375  0.9234  0.2499 -0.5071
 1363SOL    HW1 4409   1.239   3.853   5.342  0.8505  0.4627 -1.1409
 1363SOL    HW2 4410   1.184   4.003   5.306  1.7171  1.1846  0.4197
 1364SOL     OW 4411   1.356   2.670   0.369  0.0384 -0.1156  0.3609
 1364SOL    HW1 4412   1.380   2.745   0.431 -1.0905  0.0420  0.6411
 1364SOL    HW2 4413   1.382   2.583   0.411 -0.7574 -0.0140  1.1006
 1365SOL     OW 4414   0.268   4.035   5.533 -0.2430 -0.3397 -0.3564
 1365SOL    HW1 4415   0.310   4.062   5.620 -0.4275 -1.7503  0.1861
 1365SOL    HW2 4416   0.326   3.968   5.488 -0.2535  0.2354 -1.2397
 1366SOL     OW 4417   4.432   4.205   0.895  0.3192 -0.1520  0.5405
 1366SOL    HW1 4418   4.397   4.274   0.960  0.7942 -0.4943  1.1717
 1366SOL    HW2 4419   4.442   4.247   0.805  2.0001  1.0393  1.2277
 1367SOL     OW 4420   1.741   2.987   4.911 -0.2209 -0.0667  0.2317
 1367SOL    HW1 4421   1.812   3.053   4.888  0.2606 -0.0178  1.7026
 1367SOL    HW2 4422   1.754   2.903   4.857  1.9549 -0.6701  1.5377
 1368SOL     OW 4423   1.715   3.675   0.237 -0.2294 -0.7081  0.2884
 1368SOL    HW1 4424   1.815   3.674   0.249 -0.3966  0.4970  2.3789
 1368SOL    HW2 4425   1.686   3.765   0.205 -0.7236 -0.6217  0.9457
 1369SOL     OW 4426   0.209   5.128   0.151 -0.3135  0.0696 -0.3617
 1369SOL    HW1 4427   0.200   5.137   0.052  0.2295 -1.2638 -0.5411
 1369SOL    HW2 4428   0.135   5.070   0.186  0.0935 -0.3164 -0.1327
 1370SOL     OW 4429   0.145   4.994   1.483  0.0802  0.0057 -0.0874
 1370SOL    HW1 4430   0.090   4.967   1.562 -0.0296  0.3104 -0.0565
 1370SOL    HW2 4431   0.242   4.980   1.503  0.0343 -0.2155 -0.0168
 1371SOL     OW 4432   1.159   0.527   0.395  0.0550 -0.0386 -0.2906
 1371SOL    HW1 4433   1.215   0.535   0.313  0.4481 -1.7224 -0.2276
 1371SOL    HW2 4434   1.211   0.480   0.467 -0.6120  0.5477  0.6018
 1372SOL     OW 4435   0.136   4.196   0.238  0.6657 -0.0302  0.4909
 1372SOL    HW1 4436   0.233   4.174   0.252  0.7952  0.3972  0.2787
 1372SOL    HW2 4437   0.094   4.129   0.178  1.0451  0.2690 -0.1124
 1373SOL     OW 4438   1.230   4.505   1.644 -0.3747 -0.3427 -0.1144
 1373SOL    HW1 4439   1.178   4.474   1.723  0.6886  1.0757  1.2067
 1373SOL    HW2 4440   1.180   4.579   1.598 -1.1720 -1.4182 -1.0613
 1374SOL     OW 4441   5.299   4.519   1.102  0.0680  0.0942  0.4441
 1374SOL    HW1 4442   5.311   4.611   1.066  2.6310 -0.0039  0.8976
 1374SOL    HW2 4443   5.363   4.503   1.177  0.1285 -2.2510 -0.0260
 1375SOL     OW 4444   1.785   4.430   1.378  0.0201 -0.1443 -0.3856
 1375SOL    HW1 4445   1.870   4.463   1.418  0.7838 -1.0287 -1.2232
 1375SOL    HW2 4446   1.778   4.331   1.391 -1.8457  0.1563  1.3954
 1376SOL     OW 4447   0.251   3.974   0.417  0.5615  0.2099 -0.0693
 1376SOL    HW1 4448   0.324   3.934   0.362  0.7432  0.2235  0.1635
 1376SOL    HW2 4449   0.172   3.913   0.417  1.1815 -0.6182  1.0904
 1377SOL     OW 4450   1.604   0.415   0.478 -0.6036 -0.3826  0.3557
 1377SOL    HW1 4451   1.648   0.356   0.546 -0.2237  0.2691  0.6836
 1377SOL    HW2 4452   1.663   0.424   0.398 -0.5720 -0.2837  0.3902
 1378SOL     OW 4453   2.137   4.218   1.562  0.3428 -0.1789 -0.0694
 1378SOL    HW1 4454   2.232   4.192   1.576  0.1918  0.0930  1.6056
 1378SOL    HW2 4455   2.077   4.152   1.608 -0.1897  0.7562  0.6106
 1379SOL     OW 4456   0.606   4.674   0.230  0.3203  1.0502 -0.4412
 1379SOL    HW1 4457   0.668   4.662   0.308 -0.1671 -0.6470 -0.2781
 1379SOL    HW2 4458   0.525   4.616   0.243 -0.4657  1.8739 -1.5130
 1380SOL     OW 4459   0.414   4.548   0.736  0.2111 -0.1573  0.2661
 1380SOL    HW1 4460   0.419   4.449   0.744  0.8300 -0.2570 -1.0842
 1380SOL    HW2 4461   0.336   4.573   0.679 -0.5827  0.1974  1.4866
 1381SOL     OW 4462   1.701   5.227   1.264  0.6072  0.2603 -0.4608
 1381SOL    HW1 4463   1.664   5.310   1.224  1.1661  1.5284  1.5185
 1381SOL    HW2 4464   1.801   5.227   1.255  0.6110 -0.1884 -0.4494
 1382SOL     OW 4465   1.422   3.376   0.551  0.0114  0.2679  0.7110
 1382SOL    HW1 4466   1.433   3.437   0.629  1.4567 -0.1804  0.8890
 1382SOL    HW2 4467   1.486   3.403   0.478  0.7442 -1.0695  0.8338
 1383SOL     OW 4468   1.008   4.198   4.223 -0.0080 -0.1808 -0.1834
 1383SOL    HW1 4469   0.977   4.142   4.145 -1.3291 -0.2800  0.3828
 1383SOL    HW2 4470   1.089   4.157   4.263 -0.3294 -1.0993 -0.4442
 1384SOL     OW 4471   0.605   5.137   1.883 -0.6333 -0.6224  1.1536
 1384SOL    HW1 4472   0.508   5.148   1.861 -0.3240 -1.8807 -1.0728
 1384SOL    HW2 4473   0.615   5.071   1.957 -1.4158 -2.3028 -0.1869
 1385SOL     OW 4474   0.282   0.309   1.575 -0.8938  0.1001 -0.3433
 1385SOL    HW1 4475   0.293   0.233   1.511 -1.8433 -0.5790  0.2747
 1385SOL    HW2 4476   0.224   0.379   1.535 -0.3190  0.3431 -0.7702
 1386SOL     OW 4477   1.319   5.217   3.499 -0.9742 -0.3407 -0.3344
 1386SOL    HW1 4478   1.266   5.224   3.584  1.9982  0.4822  1.5805
 1386SOL    HW2 4479   1.377   5.297   3.489  0.5110 -1.5384 -1.8985
 1387SOL     OW 4480   2.357   0.625   1.397  0.3516 -0.3455 -0.0942
 1387SOL    HW1 4481   2.396   0.577   1.475 -1.3402 -1.9811 -0.1770
 1387SOL    HW2 4482   2.409   0.709   1.379  1.9693 -0.9480  1.5240
 1388SOL     OW 4483   0.625   5.001   2.129  0.2363 -0.6446  0.3589
 1388SOL    HW1 4484   0.539   5.018   2.179 -0.4752  0.0664 -1.0625
 1388SOL    HW2 4485   0.643   4.902   2.129  0.8692 -0.6182  2.9320
 1389SOL     OW 4486   1.398   4.404   0.072 -0.3794  0.4850  0.4940
 1389SOL    HW1 4487   1.339   4.373  -0.003  1.0492 -0.1534 -0.4003
 1389SOL    HW2 4488   1.341   4.445   0.143 -1.7023  2.4153 -1.5091
 1390SOL     OW 4489   0.573   4.603   1.735  0.1550 -0.2387  0.0938
 1390SOL    HW1 4490   0.568   4.678   1.669  1.0216 -1.8210 -1.8931
 1390SOL    HW2 4491   0.626   4.528   1.695  1.4591 -0.9686  2.9545
 1391SOL     OW 4492   0.731   5.174   0.630  0.4313  0.4628  0.1610
 1391SOL    HW1 4493   0.633   5.156   0.639 -0.6066  2.2290 -4.6726
 1391SOL    HW2 4494   0.767   5.207   0.717 -3.1793 -0.2814  2.1299
 1392SOL     OW 4495   0.096   5.401   5.548  0.1606 -0.2084 -0.2634
 1392SOL    HW1 4496   0.118   5.330   5.481  0.3032  0.6221 -1.1239
 1392SOL    HW2 4497   0.027   5.366   5.612  2.3979 -2.1520  1.2376
 1393SOL     OW 4498   0.863   5.010   0.945 -0.5091  0.6071 -0.2540
 1393SOL    HW1 4499   0.885   5.031   1.040 -0.5009 -0.7947  0.0776
 1393SOL    HW2 4500   0.883   5.090   0.887 -0.2379  1.3736  0.8657
 1394SOL     OW 4501   0.752   0.112   0.954 -0.1727  0.2610 -0.1754
 1394SOL    HW1 4502   0.810   0.066   0.886 -0.9727 -0.5002 -0.3734
 1394SOL    HW2 4503   0.802   0.187   0.996  0.5018  0.4441 -1.2742
 1395SOL     OW 4504   5.184   4.986   5.306 -0.0339  0.0841  0.5836
 1395SOL    HW1 4505   5.211   5.067   5.253 -1.6019 -0.4523 -1.1447
 1395SOL    HW2 4506   5.141   5.014   5.391  0.2137  1.0366  0.4101
 1396SOL     OW 4507   5.552   4.579   5.218 -0.0626 -0.3317  0.2668
 1396SOL    HW1 4508   5.650   4.565   5.236  0.2616  0.8139 -0.4387
 1396SOL    HW2 4509   5.539   4.592   5.120 -0.8222  0.2516  0.4384
 1397SOL     OW 4510   1.993   5.433   0.012  0.6134  0.5096  0.2608
 1397SOL    HW1 4511   1.974   5.529   0.031 -0.4537  0.6018 -1.0687
 1397SOL    HW2 4512   1.961   5.377   0.089 -0.3228  1.0976  0.3204
 1398SOL     OW 4513   1.977   4.476   2.064 -0.4690 -0.9028 -0.1529
 1398SOL    HW1 4514   1.992   4.405   1.995  0.4874 -1.1368  0.2730
 1398SOL    HW2 4515   1.955   4.562   2.018  1.1986 -0.7904 -0.8478
 1399SOL     OW 4516   1.980   4.858   0.885  0.1701 -0.4281  0.1828
 1399SOL    HW1 4517   2.043   4.852   0.808  0.0815 -2.5130  0.2244
 1399SOL    HW2 4518   1.890   4.824   0.857  0.1898 -1.3997  1.2264
 1400SOL     OW 4519   5.286   1.216   3.123 -0.0669  0.1598 -0.2932
 1400SOL    HW1 4520   5.299   1.127   3.079 -1.8643 -0.1451 -0.2564
 1400SOL    HW2 4521   5.211   1.264   3.079 -0.6839  0.6414  1.2302
 1401SOL     OW 4522   1.463   4.037   0.542 -0.0283  0.2741  0.6943
 1401SOL    HW1 4523   1.389   3.995   0.594 -1.7045  1.1612 -0.8460
 1401SOL    HW2 4524   1.442   4.032   0.445  2.6757 -0.7070  0.0841
 1402SOL     OW 4525   1.975   4.055   2.201 -0.0235 -0.3109 -0.8378
 1402SOL    HW1 4526   1.947   3.979   2.259 -0.2243  0.3539 -0.0580
 1402SOL    HW2 4527   1.925   4.137   2.225 -0.2193 -0.0465 -2.0544
 1403SOL     OW 4528   1.659   4.726   2.052 -0.2585 -0.6064 -0.1042
 1403SOL    HW1 4529   1.622   4.714   2.144  1.7994 -0.3619  0.8016
 1403SOL    HW2 4530   1.602   4.790   2.001 -0.1786  1.0516  1.7846
 1404SOL     OW 4531   5.063   1.860   0.734  0.3634  0.3941 -0.0262
 1404SOL    HW1 4532   5.107   1.886   0.820 -0.7008  1.3105  0.2665
 1404SOL    HW2 4533   5.128   1.868   0.659  1.2885 -0.3494  0.6752
 1405SOL     OW 4534   1.277   4.694   0.655 -0.2687 -0.4095  0.0185
 1405SOL    HW1 4535   1.334   4.740   0.586  0.1247  1.4964  1.5476
 1405SOL    HW2 4536   1.327   4.688   0.741 -1.5890 -0.7262  0.7861
 1406SOL     OW 4537   0.767   4.562   1.204 -0.0484 -0.2416 -0.2642
 1406SOL    HW1 4538   0.823   4.577   1.122 -0.4384  0.6960 -0.3674
 1406SOL    HW2 4539   0.743   4.465   1.209  0.9978 -0.5366 -0.5877
 1407SOL     OW 4540   0.834   4.405   4.365 -0.4675  0.3627 -0.1678
 1407SOL    HW1 4541   0.764   4.360   4.421 -0.3512 -0.4620 -0.6654
 1407SOL    HW2 4542   0.868   4.341   4.296 -1.4344  1.6898 -1.9531
 1408SOL     OW 4543   0.417   4.366   0.354  0.2367  0.0821  0.4024
 1408SOL    HW1 4544   0.357   4.439   0.321  1.0160  0.4863 -0.1366
 1408SOL    HW2 4545   0.374   4.320   0.432 -1.1360 -0.1669 -0.4660
 1409SOL     OW 4546   0.831   0.389   1.056  0.7340 -0.2653 -0.7457
 1409SOL    HW1 4547   0.882   0.464   1.098  1.4004 -1.0764 -0.0852
 1409SOL    HW2 4548   0.736   0.391   1.088  1.0450 -0.4148  0.2172
 1410SOL     OW 4549   0.033   0.567   0.946  0.4341 -0.1504  0.3139
 1410SOL    HW1 4550  -0.035   0.595   1.014  1.1016  3.4461 -0.2872
 1410SOL    HW2 4551   0.125   0.572   0.985  0.7239  0.6215 -0.4243
 1411SOL     OW 4552   1.447   4.323   1.595  0.1461  0.4283  0.1308
 1411SOL    HW1 4553   1.418   4.249   1.534 -0.4687  0.6644  0.1204
 1411SOL    HW2 4554   1.371   4.388   1.605 -0.0794 -0.0385  1.8114
 1412SOL     OW 4555   2.075   3.372   0.920  0.5938 -0.2705  0.1275
 1412SOL    HW1 4556   2.012   3.313   0.971 -0.4120  0.7319  0.0911
 1412SOL    HW2 4557   2.047   3.374   0.824  0.8174  0.0153  0.0679
 1413SOL     OW 4558   1.186   3.954   1.315  0.2452 -0.2084  0.0811
 1413SOL    HW1 4559   1.248   3.889   1.272  1.3915  1.0548 -0.2585
 1413SOL    HW2 4560   1.098   3.953   1.267 -0.2666 -2.4639  0.9520
 1414SOL     OW 4561   1.310   0.514   2.560  0.1887  0.2372 -0.3442
 1414SOL    HW1 4562   1.294   0.474   2.470 -0.2518  0.6288 -0.4452
 1414SOL    HW2 4563   1.226   0.558   2.592  0.7980  1.4878 -0.4335
 1415SOL     OW 4564   1.397   0.061   2.957 -0.1581 -0.3048  0.0751
 1415SOL    HW1 4565   1.469   0.072   2.889 -1.0011 -0.1294 -0.8106
 1415SOL    HW2 4566   1.322   0.008   2.918  0.2284 -2.0413  1.5541
 1416SOL     OW 4567   0.426   4.357   1.138 -0.3081  0.1050 -0.7172
 1416SOL    HW1 4568   0.525   4.344   1.141 -0.2232  0.4113 -1.7940
 1416SOL    HW2 4569   0.381   4.271   1.116 -0.3990 -0.3475  1.0621
 1417SOL     OW 4570   1.993   3.638   0.310 -0.0369  0.2011 -0.2508
 1417SOL    HW1 4571   2.042   3.648   0.223 -0.3106 -0.0857 -0.4409
 1417SOL    HW2 4572   1.996   3.542   0.339 -0.3266  0.2189 -0.1661
 1418SOL     OW 4573   0.354   3.344   4.624  0.2978 -0.5846  0.2346
 1418SOL    HW1 4574   0.450   3.362   4.646  0.5514 -2.0473  0.3952
 1418SOL    HW2 4575   0.332   3.249   4.644 -1.8439  0.2737  2.5157
 1419SOL     OW 4576   1.277   5.463   0.552 -0.1177 -0.5088 -0.4766
 1419SOL    HW1 4577   1.256   5.558   0.531 -0.6391 -0.8979 -1.8141
 1419SOL    HW2 4578   1.253   5.443   0.646  1.3900  1.0707  0.3018
 1420SOL     OW 4579   1.166   4.646   1.237 -0.5431  0.5051 -0.2648
 1420SOL    HW1 4580   1.214   4.718   1.187  1.3011 -0.5560 -0.0862
 1420SOL    HW2 4581   1.092   4.610   1.181  0.4798  0.4318 -1.6010
 1421SOL     OW 4582   1.123   4.696   1.497  0.0953  0.0146 -0.1073
 1421SOL    HW1 4583   1.194   4.758   1.530 -1.8058  2.3084 -0.0370
 1421SOL    HW2 4584   1.143   4.668   1.403  1.9252 -0.8460  0.4866
 1422SOL     OW 4585   2.009   3.872   1.195  0.1589 -0.0058 -0.2166
 1422SOL    HW1 4586   2.009   3.967   1.225 -0.0521  0.1844 -0.7974
 1422SOL    HW2 4587   2.076   3.860   1.121  0.8897 -0.5330  0.5196
 1423SOL     OW 4588   1.418   2.973   5.482  0.7524  0.7674  1.2055
 1423SOL    HW1 4589   1.374   2.923   5.556  0.9526  0.2254  0.9619
 1423SOL    HW2 4590   1.349   3.025   5.432  0.5198  0.6206  1.3714
 1424SOL     OW 4591   4.993   5.437   0.334  0.0405  0.4587 -0.2899
 1424SOL    HW1 4592   5.054   5.423   0.413 -0.3071  0.5220 -0.0085
 1424SOL    HW2 4593   4.990   5.535   0.313 -1.2367  0.6601  0.7293
 1425SOL     OW 4594   0.647   1.270   0.667 -0.2095 -0.1870 -0.0550
 1425SOL    HW1 4595   0.596   1.339   0.615 -1.5574 -1.8231 -1.0250
 1425SOL    HW2 4596   0.584   1.220   0.726  0.8287 -0.3182  0.9732
 1426SOL     OW 4597   5.559   0.300   1.641 -0.3299 -0.3262 -0.1803
 1426SOL    HW1 4598   5.632   0.337   1.582 -0.2603 -1.5140 -0.8737
 1426SOL    HW2 4599   5.494   0.249   1.585 -1.6757  0.6619  0.4496
 1427SOL     OW 4600   0.875   4.991   0.498 -0.5975 -0.1102 -0.0103
 1427SOL    HW1 4601   0.819   5.069   0.524  0.7193  1.5866 -1.9417
 1427SOL    HW2 4602   0.969   5.004   0.530 -0.1085 -0.3274 -1.2727
 1428SOL     OW 4603   5.533   4.455   1.291 -1.0021  0.1597 -0.6132
 1428SOL    HW1 4604   5.581   4.494   1.370 -0.6429 -0.9479 -0.2664
 1428SOL    HW2 4605   5.517   4.357   1.307 -0.9357 -0.0756 -1.9061
 1429SOL     OW 4606   0.669   4.235   0.868  0.6887  0.4942  0.1210
 1429SOL    HW1 4607   0.686   4.140   0.892  1.0717  0.7141  0.7415
 1429SOL    HW2 4608   0.584   4.242   0.817  0.0259 -0.0269  1.1304
 1430SOL     OW 4609   0.815   0.156   1.467 -0.0180 -0.5063 -1.2110
 1430SOL    HW1 4610   0.813   0.129   1.564 -0.6131 -0.4287 -1.1973
 1430SOL    HW2 4611   0.733   0.119   1.422 -0.2409  0.2909 -1.4606
 1431SOL     OW 4612   0.947   4.129   4.710  0.0448 -0.1725  0.0691
 1431SOL    HW1 4613   0.957   4.032   4.686  2.1659 -0.0685  0.2860
 1431SOL    HW2 4614   0.856   4.145   4.746  0.1787 -2.4526  1.6382
 1432SOL     OW 4615   2.162   4.247   0.600  0.6298 -0.0602 -0.8499
 1432SOL    HW1 4616   2.250   4.198   0.598  0.4500 -0.3835 -0.8486
 1432SOL    HW2 4617   2.087   4.182   0.588  0.3429  0.0902  0.0743
 1433SOL     OW 4618   5.467   4.800   1.480  0.3388 -0.2684 -0.0829
 1433SOL    HW1 4619   5.516   4.867   1.425  0.9336 -0.0101  0.7373
 1433SOL    HW2 4620   5.380   4.777   1.436 -0.2428  1.6297 -0.0016
 1434SOL     OW 4621   5.530   5.361   0.470 -0.0922  0.0326 -0.0654
 1434SOL    HW1 4622   5.516   5.339   0.373  1.6725 -0.6778 -0.2017
 1434SOL    HW2 4623   5.500   5.284   0.525  0.9179 -0.4843 -0.2077
 1435SOL     OW 4624   1.439   4.986   2.075 -0.1696  0.2780 -0.7991
 1435SOL    HW1 4625   1.519   5.028   2.117  0.8390 -0.3463 -2.0336
 1435SOL    HW2 4626   1.464   4.948   1.986 -2.0602  0.9089 -1.6570
 1436SOL     OW 4627   1.255   4.081   4.297  0.1707 -0.2384 -0.2727
 1436SOL    HW1 4628   1.318   4.139   4.246 -1.3137  1.4572 -0.2591
 1436SOL    HW2 4629   1.302   4.043   4.377  1.4218  0.2275 -0.7700
 1437SOL     OW 4630   0.058   4.048   1.083  1.3403 -0.3051 -0.1581
 1437SOL    HW1 4631   0.115   4.091   1.012 -1.7118  2.2914 -1.2538
 1437SOL    HW2 4632   0.000   3.978   1.041  0.8674 -0.0873  0.1260
 1438SOL     OW 4633   0.996   0.569   1.164  0.3121 -0.3272  0.3028
 1438SOL    HW1 4634   1.073   0.506   1.170 -0.1076 -0.8702  0.0239
 1438SOL    HW2 4635   1.030   0.663   1.162  0.9632 -0.5627  0.2069
 1439SOL     OW 4636   5.500   4.579   4.681  0.1783  0.1653  0.2512
 1439SOL    HW1 4637   5.560   4.499   4.688  2.0407  1.5006  0.4587
 1439SOL    HW2 4638   5.421   4.557   4.625  1.6265 -1.2645 -1.3487
 1440SOL     OW 4639   1.464   5.446   0.357 -0.1407  0.3031 -0.0017
 1440SOL    HW1 4640   1.548   5.495   0.381  1.4891 -2.7837  1.1615
 1440SOL    HW2 4641   1.397   5.456   0.431  2.3427 -3.6046  3.2351
 1441SOL     OW 4642   1.188   0.128   0.543  0.0698  0.4371  0.3116
 1441SOL    HW1 4643   1.160   0.129   0.447 -0.4265  3.2476  0.4129
 1441SOL    HW2 4644   1.229   0.216   0.567  0.0080 -0.1350  2.7460
 1442SOL     OW 4645   0.932   4.589   1.658 -0.4665  0.4631  0.5945
 1442SOL    HW1 4646   0.873   4.513   1.633 -0.5148  0.1888  1.5016
 1442SOL    HW2 4647   0.976   4.626   1.576 -1.6481  0.4769 -0.0521
 1443SOL     OW 4648   5.227   1.005   2.819  0.8024 -0.3400  0.3965
 1443SOL    HW1 4649   5.165   1.081   2.800 -1.0670 -1.5233  1.5260
 1443SOL    HW2 4650   5.243   0.998   2.917 -1.1311 -2.8866  0.6245
 1444SOL     OW 4651   1.448   4.187   1.000 -0.3771 -0.4084 -0.4411
 1444SOL    HW1 4652   1.486   4.202   1.092 -0.0862 -1.9656 -0.2781
 1444SOL    HW2 4653   1.518   4.147   0.942 -0.9531 -0.6699 -0.9610
 1445SOL     OW 4654   2.188   3.754   0.986  0.0363 -1.0898 -0.1748
 1445SOL    HW1 4655   2.208   3.692   1.061  0.9666 -1.0379 -0.3683
 1445SOL    HW2 4656   2.219   3.714   0.900  2.7320  0.5089 -0.0751
 1446SOL     OW 4657   1.440   0.465   1.703  0.3916  0.3970 -0.0725
 1446SOL    HW1 4658   1.468   0.529   1.774 -1.6307 -0.1155  1.2724
 1446SOL    HW2 4659   1.433   0.373   1.741 -2.1961  0.3533 -0.4696
 1447SOL     OW 4660   0.848   5.286   0.857  0.7733 -0.0650 -0.6825
 1447SOL    HW1 4661   0.757   5.263   0.892  0.6359  0.5942 -0.6042
 1447SOL    HW2 4662   0.846   5.377   0.815  1.2285 -0.3344 -1.3067
 1448SOL     OW 4663   2.166   4.187   2.064  0.1452  0.1626 -0.2150
 1448SOL    HW1 4664   2.089   4.147   2.113  0.0244  0.4572 -0.1606
 1448SOL    HW2 4665   2.149   4.182   1.966  0.3261 -0.3077 -0.2211
 1449SOL     OW 4666   0.753   0.429   2.538 -0.5933 -0.1397  0.2131
 1449SOL    HW1 4667   0.756   0.504   2.472  0.2438  0.1742  0.5874
 1449SOL    HW2 4668   0.843   0.385   2.542 -1.0635 -1.1421  0.0279
 1450SOL     OW 4669   4.753   5.261   0.284 -0.1218  0.0015  0.0716
 1450SOL    HW1 4670   4.728   5.266   0.188  1.0768  0.3783 -0.2421
 1450SOL    HW2 4671   4.838   5.312   0.299  0.4760 -1.2200  1.0486
 1451SOL     OW 4672   1.274   5.192   2.060  0.5140 -0.0887  0.1593
 1451SOL    HW1 4673   1.349   5.130   2.080  1.8761  1.4634  0.0970
 1451SOL    HW2 4674   1.293   5.240   1.974 -0.7134  0.1077 -0.0224
 1452SOL     OW 4675   1.602   3.429   0.265 -0.1775 -0.1424 -0.1258
 1452SOL    HW1 4676   1.557   3.370   0.197  1.4515  0.3037 -1.6548
 1452SOL    HW2 4677   1.638   3.510   0.220  2.3107 -0.5523  0.9577
 1453SOL     OW 4678   4.743   4.090   1.272  0.6225 -0.0149 -0.0286
 1453SOL    HW1 4679   4.801   4.051   1.344  0.8251  0.0409 -0.1603
 1453SOL    HW2 4680   4.798   4.149   1.214  0.3874  0.2001 -0.0339
 1454SOL     OW 4681   0.397   4.107   0.196 -0.4983 -0.2336  0.1207
 1454SOL    HW1 4682   0.462   4.034   0.217  0.6483  0.8191  0.3960
 1454SOL    HW2 4683   0.417   4.186   0.254 -0.4214  0.9963 -1.5136
 1455SOL     OW 4684   0.907   5.238   2.294  0.2531  0.0102 -0.0387
 1455SOL    HW1 4685   0.807   5.240   2.292  0.1992 -0.8063  1.1749
 1455SOL    HW2 4686   0.941   5.326   2.327 -0.0552  0.2793 -0.4217
 1456SOL     OW 4687   1.140   4.181   5.267  0.3980  0.2481  0.6725
 1456SOL    HW1 4688   1.126   4.184   5.168 -0.9024  0.9538  0.8722
 1456SOL    HW2 4689   1.234   4.210   5.287  0.7277 -0.0289 -0.3453
 1457SOL     OW 4690   0.622   5.212   0.991 -0.1821  0.4504 -0.4278
 1457SOL    HW1 4691   0.524   5.198   0.996  0.2955 -3.2155  1.9517
 1457SOL    HW2 4692   0.651   5.273   1.065 -0.5891  1.4573 -1.0758
 1458SOL     OW 4693   0.738   0.620   2.345 -0.5300 -0.2614 -0.1298
 1458SOL    HW1 4694   0.665   0.684   2.322 -0.5239  0.3931  1.4977
 1458SOL    HW2 4695   0.751   0.555   2.270 -2.1775  0.1467 -0.8124
 1459SOL     OW 4696   1.762   5.259   0.954  0.1967  0.0803  0.4118
 1459SOL    HW1 4697   1.763   5.316   0.872  0.0481 -0.9963 -0.3622
 1459SOL    HW2 4698   1.677   5.206   0.956  0.8563 -1.0216  0.4483
 1460SOL     OW 4699   1.102   5.528   1.037  0.6473 -0.0355  0.0753
 1460SOL    HW1 4700   1.006   5.510   1.060  0.1910 -0.0920 -1.7241
 1460SOL    HW2 4701   1.134   5.608   1.088 -0.6727  0.6032 -0.0570
 1461SOL     OW 4702   0.950   4.373   5.327  0.2016 -0.4260 -0.0742
 1461SOL    HW1 4703   0.890   4.368   5.408  0.0790  0.1277 -0.1280
 1461SOL    HW2 4704   1.001   4.287   5.319 -0.2935 -0.7587  0.1964
 1462SOL     OW 4705   0.108   0.221   5.513 -0.2246 -0.4802 -1.0548
 1462SOL    HW1 4706   0.153   0.310   5.520 -0.7811 -0.0165 -2.8752
 1462SOL    HW2 4707   0.167   0.157   5.464  0.7082 -1.5595  1.3027
 1463SOL     OW 4708   4.875   4.900   1.181 -0.1601  0.1192  0.0419
 1463SOL    HW1 4709   4.886   4.971   1.251 -1.8134 -0.7082  1.1832
 1463SOL    HW2 4710   4.946   4.912   1.111  0.3412  2.1539  0.8185
 1464SOL     OW 4711   0.777   5.399   1.547 -0.0168  0.0961  0.0935
 1464SOL    HW1 4712   0.850   5.400   1.478 -0.8767  0.2359 -0.8315
 1464SOL    HW2 4713   0.790   5.475   1.610  1.0704 -0.3328  0.4153
 1465SOL     OW 4714   1.677   4.113   1.625 -0.2631  0.2999 -0.5155
 1465SOL    HW1 4715   1.621   4.171   1.567  0.6234  0.4620 -1.2329
 1465SOL    HW2 4716   1.726   4.170   1.691 -1.8469  0.0533  0.9428
 1466SOL     OW 4717   5.267   4.572   5.018  0.5648 -0.1234  0.6178
 1466SOL    HW1 4718   5.366   4.587   5.011  0.9966 -2.7403  0.3378
 1466SOL    HW2 4719   5.227   4.567   4.927  0.5395 -1.0625  0.6703
 1467SOL     OW 4720   2.037   4.716   1.112  0.7097  0.0761  0.6001
 1467SOL    HW1 4721   2.057   4.784   1.182  0.0998  0.3361  0.5254
 1467SOL    HW2 4722   2.021   4.762   1.024 -2.9347  0.1852  1.1676
 1468SOL     OW 4723   0.665   3.814   0.529 -0.1441 -0.3240  0.2081
 1468SOL    HW1 4724   0.680   3.744   0.459 -0.0434  1.0306 -1.1569
 1468SOL    HW2 4725   0.577   3.797   0.574 -1.0230 -0.2398 -1.4308
 1469SOL     OW 4726   4.573   5.341   0.588  1.0916 -0.2289 -0.4570
 1469SOL    HW1 4727   4.654   5.399   0.574  0.7061  0.3738 -0.2381
 1469SOL    HW2 4728   4.584   5.256   0.537  2.3550 -0.6455  0.4531
 1470SOL     OW 4729   0.717   4.230   0.357  0.2493  0.7286  0.2481
 1470SOL    HW1 4730   0.678   4.271   0.274  0.7332 -0.2782 -0.4970
 1470SOL    HW2 4731   0.776   4.297   0.402  0.6319  1.0364 -0.6765
 1471SOL     OW 4732   1.804   0.364   4.961  0.1896 -0.2717 -0.6914
 1471SOL    HW1 4733   1.738   0.295   4.931  1.2541 -0.8150 -1.8844
 1471SOL    HW2 4734   1.895   0.339   4.928  0.9995  0.4872  0.8771
 1472SOL     OW 4735   0.632   3.357   0.743  0.4557  0.3728 -0.1095
 1472SOL    HW1 4736   0.703   3.308   0.793 -0.3758 -0.4749  0.2864
 1472SOL    HW2 4737   0.611   3.310   0.658 -0.5495 -0.1575  0.4077
 1473SOL     OW 4738   2.403   0.067   1.688  0.2058 -0.3906 -0.0146
 1473SOL    HW1 4739   2.309   0.058   1.720 -0.2410  0.4386 -1.0203
 1473SOL    HW2 4740   2.453   0.130   1.748  0.1368 -0.8556  0.5378
 1474SOL     OW 4741   0.410   4.256   0.744 -0.0652 -0.0558  0.1341
 1474SOL    HW1 4742   0.377   4.212   0.828  1.3688 -1.5678 -0.0272
 1474SOL    HW2 4743   0.339   4.248   0.673 -0.4064 -0.8486  0.5390
 1475SOL     OW 4744   2.486   4.515   1.085  0.6968 -0.3906  0.5678
 1475SOL    HW1 4745   2.410   4.500   1.147  0.8818 -2.4945  0.3704
 1475SOL    HW2 4746   2.508   4.612   1.081  0.8280 -0.1836  3.9509
 1476SOL     OW 4747   2.627   4.899   1.385  0.3260  0.0437  0.2806
 1476SOL    HW1 4748   2.672   4.988   1.377 -0.9280  0.6585 -0.1071
 1476SOL    HW2 4749   2.559   4.902   1.458 -0.9960 -0.0134 -0.9028
 1477SOL     OW 4750   1.253   4.300   5.467 -0.1926 -0.5362  0.0367
 1477SOL    HW1 4751   1.245   4.387   5.420 -0.2606  0.2322  1.4220
 1477SOL    HW2 4752   1.162   4.261   5.482 -0.3575  0.4016  1.6365
 1478SOL     OW 4753   1.765   4.402   1.765 -0.4072 -0.2665 -0.7449
 1478SOL    HW1 4754   1.698   4.425   1.836  0.6834  0.5284  0.0462
 1478SOL    HW2 4755   1.796   4.485   1.720  0.6463 -0.5391 -0.5459
 1479SOL     OW 4756   2.118   5.373   1.944 -0.7451  0.0353 -0.1013
 1479SOL    HW1 4757   2.185   5.302   1.922  0.0226  0.7814 -0.2370
 1479SOL    HW2 4758   2.029   5.348   1.906 -0.3109 -0.4961 -0.7891
 1480SOL     OW 4759   5.380   5.152   0.594  0.2879  0.4044 -0.4132
 1480SOL    HW1 4760   5.442   5.109   0.660  3.3295  3.6275 -0.8618
 1480SOL    HW2 4761   5.349   5.084   0.528  2.5660 -1.6040  0.4415
 1481SOL     OW 4762   1.448   0.113   0.975  0.0157  0.2201  0.0294
 1481SOL    HW1 4763   1.392   0.083   1.052  1.0876 -1.0593  0.3403
 1481SOL    HW2 4764   1.469   0.211   0.985 -0.9268  0.3705  0.6635
 1482SOL     OW 4765   0.909   0.296   1.863  0.0762  0.6209  0.1880
 1482SOL    HW1 4766   0.954   0.377   1.901 -0.4607  0.6252  0.8504
 1482SOL    HW2 4767   0.818   0.287   1.905 -0.3987  0.4253 -0.8660
 1483SOL     OW 4768   0.789   4.736   0.485  0.1508  0.2432 -0.0156
 1483SOL    HW1 4769   0.854   4.695   0.421  0.5653  0.1679  0.4521
 1483SOL    HW2 4770   0.824   4.824   0.517  0.5690 -0.3014  1.0931
 1484SOL     OW 4771   2.259   0.181   5.367  0.7481 -0.2178  0.0785
 1484SOL    HW1 4772   2.173   0.130   5.365  0.9998 -0.6266 -0.6456
 1484SOL    HW2 4773   2.239   0.279   5.365  0.2949 -0.2936 -1.9421
 1485SOL     OW 4774   0.588   3.955   1.797 -0.2267 -0.1863  0.1185
 1485SOL    HW1 4775   0.567   3.883   1.863  1.1713  0.6111  1.5015
 1485SOL    HW2 4776   0.662   3.925   1.737 -1.0325 -0.6488 -0.6699
 1486SOL     OW 4777   4.807   0.420   1.149  0.5306 -0.1270 -0.4111
 1486SOL    HW1 4778   4.770   0.494   1.206  2.8080 -0.5603  1.7937
 1486SOL    HW2 4779   4.898   0.446   1.117 -0.0620 -0.5835 -2.6160
 1487SOL     OW 4780   5.263   5.523   3.232 -0.1623  0.7523  0.1537
 1487SOL    HW1 4781   5.333   5.567   3.176 -1.5314  3.7192  0.6117
 1487SOL    HW2 4782   5.261   5.565   3.322 -1.5332 -0.3254  0.6587
 1488SOL     OW 4783   1.876   1.615   1.221 -0.2308 -0.1600 -0.0691
 1488SOL    HW1 4784   1.920   1.547   1.162 -0.9841  1.3135 -2.5094
 1488SOL    HW2 4785   1.945   1.674   1.261  0.2412  0.5156 -1.7700
 1489SOL     OW 4786   0.343   4.875   0.931 -0.2002  0.0388  0.3469
 1489SOL    HW1 4787   0.324   4.811   1.005  2.0371 -0.2786  0.7151
 1489SOL    HW2 4788   0.435   4.911   0.941 -0.2165  0.7916 -1.7150
 1490SOL     OW 4789   2.421   5.167   1.173  0.3004 -0.6429 -0.1652
 1490SOL    HW1 4790   2.512   5.159   1.133  0.4121  0.0027 -0.0548
 1490SOL    HW2 4791   2.411   5.099   1.247  0.5536 -0.9663 -0.4252
 1491SOL     OW 4792   5.550   3.569   1.775 -0.4411 -0.1657  0.2147
 1491SOL    HW1 4793   5.483   3.624   1.825 -0.5479 -0.7786  0.7642
 1491SOL    HW2 4794   5.636   3.567   1.827 -0.9202 -1.8061  1.0468
 1492SOL     OW 4795   5.314   0.828   1.169  0.5098 -0.2222 -0.0488
 1492SOL    HW1 4796   5.377   0.902   1.192 -0.0599  1.3101 -2.9734
 1492SOL    HW2 4797   5.245   0.862   1.105 -2.3176 -2.2726  1.6886
 1493SOL     OW 4798   1.726   4.139   1.266  0.2893  0.2488 -0.1832
 1493SOL    HW1 4799   1.818   4.161   1.233  0.0541  0.1751 -0.8910
 1493SOL    HW2 4800   1.667   4.219   1.258  0.0556  0.0409 -0.5680
 1494SOL     OW 4801   1.590   3.824   2.215 -0.4923 -0.5012 -0.1454
 1494SOL    HW1 4802   1.641   3.857   2.294 -0.8565  0.7075 -0.3966
 1494SOL    HW2 4803   1.629   3.862   2.132 -1.7785  0.4391 -0.3480
 1495SOL     OW 4804   0.491   4.927   0.451 -0.1704 -0.0093  0.5495
 1495SOL    HW1 4805   0.588   4.909   0.467  0.5824  1.4465 -1.8046
 1495SOL    HW2 4806   0.479   4.964   0.359 -3.0560 -0.6594  0.5732
 1496SOL     OW 4807   0.382   5.428   0.650  0.0258 -0.1699  0.6952
 1496SOL    HW1 4808   0.395   5.329   0.651  0.8092 -0.1620 -1.5800
 1496SOL    HW2 4809   0.468   5.473   0.676  0.4760 -0.1405 -0.7098
 1497SOL     OW 4810   1.252   3.961   0.041 -0.2829  0.3870 -0.5610
 1497SOL    HW1 4811   1.213   3.943  -0.049 -0.8829 -2.0375  0.1037
 1497SOL    HW2 4812   1.187   3.934   0.111  1.1220 -0.0928  0.6036
 1498SOL     OW 4813   1.567   4.491   1.967  0.1179  0.4768 -0.4046
 1498SOL    HW1 4814   1.480   4.499   1.919  0.5559  1.1543 -1.1146
 1498SOL    HW2 4815   1.602   4.582   1.988  0.7246  0.2168 -0.2604
 1499SOL     OW 4816   0.067   4.243   5.159  0.6288 -0.6653  0.0156
 1499SOL    HW1 4817   0.108   4.243   5.250  1.3807 -1.2723 -0.3149
 1499SOL    HW2 4818   0.121   4.302   5.098  1.0878 -1.5521 -0.4480
 1500SOL     OW 4819   0.193   0.050   1.463  0.0237 -0.2454  0.2903
 1500SOL    HW1 4820   0.120  -0.013   1.489  0.7463 -0.8550  0.8942
 1500SOL    HW2 4821   0.280   0.001   1.459  0.1000 -0.0357 -2.6330
 1501SOL     OW 4822   0.150   5.552   0.249  0.0503  0.2258  0.2306
 1501SOL    HW1 4823   0.226   5.508   0.201 -0.0072 -0.0038  0.3499
 1501SOL    HW2 4824   0.167   5.551   0.347  0.3904  1.1169  0.1835
 1502SOL     OW 4825   0.323   3.708   1.655 -0.4208  0.1465 -0.3651
 1502SOL    HW1 4826   0.308   3.628   1.597 -0.3040 -1.1615  1.3101
 1502SOL    HW2 4827   0.317   3.791   1.600 -2.0519 -0.9087 -1.8951
 1503SOL     OW 4828   0.233   3.347   3.777  0.1391 -0.5840  0.3258
 1503SOL    HW1 4829   0.321   3.389   3.759 -0.9842  1.6700 -0.2340
 1503SOL    HW2 4830   0.188   3.323   3.691 -0.2389 -0.7504  0.5637
 1504SOL     OW 4831   4.923   3.653   2.227 -0.5837  0.5093  0.0314
 1504SOL    HW1 4832   4.995   3.650   2.297 -0.5792 -0.2021  0.0082
 1504SOL    HW2 4833   4.883   3.562   2.218  0.0853  0.3492 -1.5844
 1505SOL     OW 4834   5.411   0.078   3.033  0.0334  0.5178 -0.0622
 1505SOL    HW1 4835   5.477   0.103   3.104 -0.3961 -0.5028  0.7259
 1505SOL    HW2 4836   5.324   0.124   3.050  0.0810  0.6715 -0.2282
 1506SOL     OW 4837   1.237   4.609   3.966  0.0214  0.1626  0.3364
 1506SOL    HW1 4838   1.174   4.550   4.017  2.0265 -0.2052  2.5959
 1506SOL    HW2 4839   1.260   4.689   4.022  0.9590  0.6649 -0.7449
 1507SOL     OW 4840   1.483   4.073   3.383 -0.1035 -0.1116  0.0415
 1507SOL    HW1 4841   1.449   4.155   3.337  1.3360  0.1437 -0.6495
 1507SOL    HW2 4842   1.513   4.007   3.315  2.5914  0.4917  0.5116
 1508SOL     OW 4843   2.701   4.339   1.096  0.6283  0.4775 -0.2223
 1508SOL    HW1 4844   2.633   4.410   1.079  0.6859  0.7430  0.6151
 1508SOL    HW2 4845   2.700   4.314   1.193  0.4718 -0.8099 -0.5373
 1509SOL     OW 4846   0.378   5.015   2.284  0.3357 -0.3054 -0.4778
 1509SOL    HW1 4847   0.326   4.929   2.291  0.0967 -0.0459  2.2834
 1509SOL    HW2 4848   0.315   5.092   2.288  0.7100 -0.0033 -0.3950
 1510SOL     OW 4849   1.114   4.295   3.110 -0.1709 -0.4428  0.7922
 1510SOL    HW1 4850   1.068   4.211   3.081  1.1388 -0.5667 -1.0893
 1510SOL    HW2 4851   1.050   4.371   3.107 -1.1279 -1.1996  1.6066
 1511SOL     OW 4852   0.055   5.372   3.083 -0.2662 -0.3598  0.0509
 1511SOL    HW1 4853   0.126   5.430   3.123 -0.8789 -0.5622  1.4971
 1511SOL    HW2 4854   0.003   5.425   3.016  2.6665 -0.8353 -2.8678
 1512SOL     OW 4855   0.745   4.687   4.565  1.2147 -0.5821 -0.2962
 1512SOL    HW1 4856   0.709   4.684   4.471 -0.4841  2.0694  0.1418
 1512SOL    HW2 4857   0.800   4.770   4.577  2.8069 -1.7287  0.6510
 1513SOL     OW 4858   0.659   5.015   3.644  0.2617  0.2378 -0.1580
 1513SOL    HW1 4859   0.566   5.040   3.669 -0.6888  0.8220 -3.6722
 1513SOL    HW2 4860   0.689   5.072   3.567  3.6347  0.1858  0.9456
 1514SOL     OW 4861   0.459   5.100   3.831 -0.1452 -0.5775 -0.5636
 1514SOL    HW1 4862   0.546   5.098   3.881 -1.9114 -1.0161  2.7468
 1514SOL    HW2 4863   0.405   5.178   3.860 -1.5741 -1.2843 -1.2263
 1515SOL     OW 4864   0.615   3.791   2.762  0.2616 -0.0590 -0.1624
 1515SOL    HW1 4865   0.713   3.785   2.783  0.3490 -0.5636 -0.6952
 1515SOL    HW2 4866   0.595   3.735   2.682 -0.7625 -1.3676  0.9649
 1516SOL     OW 4867   1.109   4.769   2.330 -0.4870  0.0428  0.2844
 1516SOL    HW1 4868   1.070   4.856   2.358 -1.6401 -0.2193 -0.4298
 1516SOL    HW2 4869   1.209   4.777   2.325 -0.6638  2.0164 -1.9448
 1517SOL     OW 4870   0.323   5.160   1.859  0.3148 -0.0844 -0.2133
 1517SOL    HW1 4871   0.274   5.116   1.934  0.1005 -0.2367 -0.4397
 1517SOL    HW2 4872   0.298   5.116   1.773 -0.7304  1.1497 -0.5802
 1518SOL     OW 4873   1.536   4.541   4.161  0.0275 -0.1452  0.1973
 1518SOL    HW1 4874   1.547   4.441   4.157 -3.2549 -0.5776 -0.7192
 1518SOL    HW2 4875   1.544   4.578   4.068  0.5101  0.3877  0.4445
 1519SOL     OW 4876   0.220   0.696   2.395  0.0238 -0.6191  0.3358
 1519SOL    HW1 4877   0.130   0.653   2.399  0.0229 -0.6061  0.4640
 1519SOL    HW2 4878   0.219   0.770   2.328  0.1963 -1.2134 -0.3320
 1520SOL     OW 4879   5.150  -0.001   2.729 -0.4433  0.0360 -0.4230
 1520SOL    HW1 4880   5.052  -0.017   2.742 -0.2110 -0.5572  0.7327
 1520SOL    HW2 4881   5.175   0.088   2.768 -0.5368  0.2702 -0.8797
 1521SOL     OW 4882   5.101   5.279   2.818  0.7154  0.1580 -0.1380
 1521SOL    HW1 4883   5.050   5.256   2.900  0.8575 -0.8936 -0.3204
 1521SOL    HW2 4884   5.086   5.375   2.794  0.5028  0.4138  0.9810
 1522SOL     OW 4885   0.700   5.156   1.630  0.9264  0.2815  0.5781
 1522SOL    HW1 4886   0.669   5.148   1.725 -0.5217 -0.4622  0.0770
 1522SOL    HW2 4887   0.749   5.242   1.618  0.1316  0.9261  1.7271
 1523SOL     OW 4888   1.211   3.861   2.788  0.2924 -0.1487 -0.5200
 1523SOL    HW1 4889   1.193   3.955   2.761 -2.3188 -0.6078 -0.5811
 1523SOL    HW2 4890   1.241   3.808   2.709 -1.6406 -0.1327 -1.3088
 1524SOL     OW 4891   0.007   4.996   2.374 -0.4356 -0.3333 -0.2852
 1524SOL    HW1 4892   0.079   5.061   2.351 -0.7034 -0.0776 -0.4074
 1524SOL    HW2 4893  -0.051   4.981   2.294 -1.1419  0.2681  0.1041
 1525SOL     OW 4894   1.536   0.693   2.589  0.2108 -0.2990  0.6218
 1525SOL    HW1 4895   1.507   0.744   2.670  0.3563  0.8179 -0.0205
 1525SOL    HW2 4896   1.462   0.632   2.560  0.0676 -0.5265  1.4461
 1526SOL     OW 4897   5.487   0.508   2.136  0.2512 -0.0576 -0.4357
 1526SOL    HW1 4898   5.438   0.479   2.053  0.7409  0.2696 -0.8460
 1526SOL    HW2 4899   5.585   0.501   2.121  0.3393 -1.0130  0.4998
 1527SOL     OW 4900   1.780   5.406   2.760 -0.2032  0.0126  0.4266
 1527SOL    HW1 4901   1.857   5.464   2.786 -2.3121  2.7392  1.0906
 1527SOL    HW2 4902   1.751   5.351   2.838  0.0863  0.1593  0.6377
 1528SOL     OW 4903   2.605   4.547   1.835 -1.3079 -0.6093  0.3252
 1528SOL    HW1 4904   2.606   4.513   1.741  0.8747 -0.6213  0.2849
 1528SOL    HW2 4905   2.700   4.563   1.865 -2.0012  0.1902  2.2371
 1529SOL     OW 4906   1.636   3.313   4.223  0.1236  0.4109 -0.5303
 1529SOL    HW1 4907   1.616   3.339   4.128  1.2782  1.9170 -0.4043
 1529SOL    HW2 4908   1.676   3.222   4.225  1.5775  0.9873 -1.6837
 1530SOL     OW 4909   0.823   0.060   1.723  0.8450  0.2145  0.7659
 1530SOL    HW1 4910   0.738   0.015   1.750  0.2705 -0.3144 -1.7067
 1530SOL    HW2 4911   0.854   0.119   1.797 -0.3107 -1.4874  2.6957
 1531SOL     OW 4912   2.318   4.962   2.783 -0.3549 -0.1629  0.2211
 1531SOL    HW1 4913   2.389   4.941   2.716 -0.6072  1.0168 -0.4383
 1531SOL    HW2 4914   2.275   4.877   2.813 -0.4535 -0.6976 -1.3405
 1532SOL     OW 4915   1.410   4.170   1.821 -0.7415  0.0023 -0.0398
 1532SOL    HW1 4916   1.355   4.233   1.876 -1.3636  0.0583 -0.7120
 1532SOL    HW2 4917   1.449   4.220   1.743 -0.0876 -0.1386  0.1869
 1533SOL     OW 4918   0.531   3.585   4.006  0.3692  0.0831  0.2684
 1533SOL    HW1 4919   0.581   3.634   4.077 -1.1853  2.9599 -0.4179
 1533SOL    HW2 4920   0.583   3.588   3.920  0.9913 -0.9288  0.5977
 1534SOL     OW 4921   1.236   4.642   2.591 -0.5905  0.0276  0.4830
 1534SOL    HW1 4922   1.213   4.545   2.586 -0.5344 -0.0474  1.4656
 1534SOL    HW2 4923   1.284   4.670   2.508  2.7328 -1.6621  1.6707
 1535SOL     OW 4924   2.161   4.076   4.252 -0.2838  0.4677  0.3861
 1535SOL    HW1 4925   2.127   4.149   4.191 -1.2509 -0.6946 -0.5191
 1535SOL    HW2 4926   2.086   4.042   4.308  0.1437  0.0982  0.7402
 1536SOL     OW 4927   1.303   3.520   2.929  0.2217  0.0493 -0.0877
 1536SOL    HW1 4928   1.269   3.532   2.836  0.5152 -1.4602 -0.4203
 1536SOL    HW2 4929   1.231   3.483   2.987  0.7010 -1.2798 -0.3144
 1537SOL     OW 4930   0.968   5.476   2.033  0.1751  0.3320  0.1729
 1537SOL    HW1 4931   0.873   5.447   2.019  0.6197 -1.3227  0.3588
 1537SOL    HW2 4932   0.994   5.462   2.128  0.5634  0.9143  0.1580
 1538SOL     OW 4933   1.743   5.267   2.538  0.1908 -0.8265 -0.1437
 1538SOL    HW1 4934   1.727   5.168   2.548  2.8620 -1.1523  1.9478
 1538SOL    HW2 4935   1.750   5.309   2.628  0.0997  1.1224 -0.9952
 1539SOL     OW 4936   0.590   4.243   2.064 -0.2261  0.3279  0.6937
 1539SOL    HW1 4937   0.596   4.172   2.135  0.4004 -0.6876 -0.3459
 1539SOL    HW2 4938   0.501   4.289   2.071  0.0723  0.7246  2.5511
 1540SOL     OW 4939   1.100   0.149   2.682 -0.0397 -0.2363  0.9291
 1540SOL    HW1 4940   1.036   0.198   2.741 -1.0919 -1.6447  1.0010
 1540SOL    HW2 4941   1.127   0.064   2.726  0.6989 -0.3862  0.2125
 1541SOL     OW 4942   0.714   5.339   3.155  0.3315  0.0542  0.0402
 1541SOL    HW1 4943   0.756   5.343   3.064 -0.8322  0.9834 -0.4832
 1541SOL    HW2 4944   0.764   5.398   3.218  0.1165  0.7626 -0.4463
 1542SOL     OW 4945   0.538   2.555   2.741  0.3279 -0.4073  0.5278
 1542SOL    HW1 4946   0.571   2.649   2.747 -0.4762 -0.0179 -0.7834
 1542SOL    HW2 4947   0.587   2.506   2.669 -1.2966 -0.0612 -0.8821
 1543SOL     OW 4948   2.111   3.457   2.662  0.3476  0.4821 -0.5914
 1543SOL    HW1 4949   2.062   3.370   2.671  1.6626 -0.4136 -1.5837
 1543SOL    HW2 4950   2.081   3.520   2.733  0.0607 -1.1345  0.7869
 1544SOL     OW 4951   1.563   3.929   3.085 -0.2416  0.3358 -0.3165
 1544SOL    HW1 4952   1.507   3.860   3.041 -1.4522 -1.0018  3.0325
 1544SOL    HW2 4953   1.655   3.892   3.102 -0.6875 -0.2956  0.8696
 1545SOL     OW 4954   0.780   4.948   2.543  0.5243 -0.0636  0.2220
 1545SOL    HW1 4955   0.775   4.859   2.497 -0.2528 -0.1339  0.4354
 1545SOL    HW2 4956   0.865   4.994   2.517  2.1116 -1.8620  1.8856
 1546SOL     OW 4957   0.909   4.687   2.618 -0.3700 -0.1202  0.6872
 1546SOL    HW1 4958   0.968   4.767   2.632 -0.0145 -0.4540  1.1299
 1546SOL    HW2 4959   0.962   4.604   2.632 -0.1870 -0.4975 -1.8603
 1547SOL     OW 4960   0.217   4.559   2.779 -0.1533  0.0755  0.1498
 1547SOL    HW1 4961   0.208   4.659   2.779  0.3487  0.1264 -0.8700
 1547SOL    HW2 4962   0.205   4.524   2.687  0.9044 -0.7002  0.2863
 1548SOL     OW 4963   0.680   3.238   3.910  0.1473 -0.1071  0.1817
 1548SOL    HW1 4964   0.582   3.256   3.917  0.2419  1.8648 -2.2532
 1548SOL    HW2 4965   0.726   3.270   3.993 -1.2670 -1.5571  1.5956
 1549SOL     OW 4966   0.583   4.748   1.250  0.4221  0.3873 -0.0374
 1549SOL    HW1 4967   0.652   4.676   1.248 -0.0091 -0.0115 -1.2518
 1549SOL    HW2 4968   0.501   4.718   1.202 -0.2262  1.2426  0.4917
 1550SOL     OW 4969   1.917   4.427   3.661 -0.3681 -0.2704  0.6256
 1550SOL    HW1 4970   1.934   4.499   3.729  0.4814  1.1866 -1.0267
 1550SOL    HW2 4971   1.875   4.348   3.706  0.0630  0.6468  2.7975
 1551SOL     OW 4972   0.283   4.778   3.422  0.2793  0.2795 -0.1410
 1551SOL    HW1 4973   0.363   4.736   3.465 -0.2773 -0.5829  0.0806
 1551SOL    HW2 4974   0.286   4.763   3.324 -0.2824 -0.9398  0.0158
 1552SOL     OW 4975   1.070   4.351   1.872  0.1722 -0.0634 -0.1041
 1552SOL    HW1 4976   1.029   4.294   1.800 -1.7642  0.4143  0.5730
 1552SOL    HW2 4977   0.999   4.382   1.935  1.9903 -1.9940  3.1907
 1553SOL     OW 4978   2.488   4.324   1.929  0.0222 -0.0491  0.1580
 1553SOL    HW1 4979   2.542   4.402   1.898  0.1827 -0.7308 -1.3649
 1553SOL    HW2 4980   2.427   4.352   2.003 -0.8689  1.8332 -1.2185
 1554SOL     OW 4981   0.254   4.140   4.548  0.3942  0.5844  0.0685
 1554SOL    HW1 4982   0.239   4.223   4.493  0.1340  2.0479  2.2039
 1554SOL    HW2 4983   0.350   4.114   4.544  0.4779  0.9750 -0.6465
 1555SOL     OW 4984   2.299   4.074   2.384  0.0620  0.9507 -0.4785
 1555SOL    HW1 4985   2.337   4.035   2.300 -0.6831  0.9821 -0.8349
 1555SOL    HW2 4986   2.243   4.154   2.362 -2.2684 -0.5297 -0.2528
 1556SOL     OW 4987   1.723   5.460   5.285 -0.7673 -0.3683 -0.0466
 1556SOL    HW1 4988   1.757   5.550   5.256  0.3661 -0.7017  0.2136
 1556SOL    HW2 4989   1.653   5.473   5.356  0.2434  0.3061  0.8740
 1557SOL     OW 4990   1.479   2.830   2.169 -0.1065 -0.4642 -0.3158
 1557SOL    HW1 4991   1.574   2.804   2.186 -0.0006 -0.0822 -0.3179
 1557SOL    HW2 4992   1.468   2.857   2.073 -0.0484  0.2012 -0.1432
 1558SOL     OW 4993   2.352   5.003   1.421 -0.4031 -0.1252  0.4109
 1558SOL    HW1 4994   2.409   4.928   1.454  1.3504  0.8370 -0.3016
 1558SOL    HW2 4995   2.321   5.058   1.499  0.9604  0.2356  0.7233
 1559SOL     OW 4996   1.098   4.938   4.253 -0.6598  0.3374 -0.2929
 1559SOL    HW1 4997   1.099   4.868   4.324 -1.3719  1.4049  0.8070
 1559SOL    HW2 4998   1.176   4.925   4.191  1.2277  0.5908  1.8905
 1560SOL     OW 4999   1.662   4.937   3.114  0.8810 -0.2677 -0.0330
 1560SOL    HW1 5000   1.604   4.984   3.047  0.0657  0.3016  1.0400
 1560SOL    HW2 5001   1.756   4.972   3.108  0.5733  0.5426 -0.1455
 1561SOL     OW 5002   0.321   2.384   2.755  0.0748  0.5593  0.9977
 1561SOL    HW1 5003   0.386   2.460   2.751 -1.4432  1.9371  1.5230
 1561SOL    HW2 5004   0.231   2.415   2.726 -0.0567 -1.7530 -1.4983
 1562SOL     OW 5005   2.250   5.133   1.646 -0.4748  0.0042  0.0758
 1562SOL    HW1 5006   2.241   5.228   1.615  1.8932  0.0898 -0.4897
 1562SOL    HW2 5007   2.254   5.131   1.745 -0.1265  0.5280  0.0746
 1563SOL     OW 5008   0.431   5.457   1.516  0.1896 -0.3487  0.1703
 1563SOL    HW1 5009   0.414   5.444   1.614  0.1128  0.4738  0.2716
 1563SOL    HW2 5010   0.465   5.371   1.477  1.9222 -0.2291  1.2722
 1564SOL     OW 5011   0.967   2.997   1.627  0.7696 -0.2616  0.1421
 1564SOL    HW1 5012   1.002   2.910   1.591  0.9185  0.0127 -0.3751
 1564SOL    HW2 5013   0.965   3.065   1.555 -0.8725 -0.2717  0.1473
 1565SOL     OW 5014   0.385   0.557   3.631 -0.3108 -0.0210  0.3163
 1565SOL    HW1 5015   0.403   0.591   3.724 -0.6250  0.3440  0.2462
 1565SOL    HW2 5016   0.452   0.596   3.568 -0.6305  0.4243  0.2472
 1566SOL     OW 5017   0.192   0.920   2.555  0.0407 -0.2028  0.3456
 1566SOL    HW1 5018   0.213   0.835   2.507  0.3851 -0.6181  1.2050
 1566SOL    HW2 5019   0.256   0.991   2.526  0.1363 -0.3967  0.0731
 1567SOL     OW 5020   0.425   5.435   3.068  0.1832 -0.2177  0.5395
 1567SOL    HW1 5021   0.430   5.454   3.166 -1.2510  2.3904  0.2046
 1567SOL    HW2 5022   0.473   5.507   3.018 -1.3797  0.0042 -0.7242
 1568SOL     OW 5023   1.550   3.964   1.928  0.2168  0.1172  0.0991
 1568SOL    HW1 5024   1.485   4.033   1.896  1.1017  1.1239  0.4181
 1568SOL    HW2 5025   1.643   4.000   1.924  0.5273 -0.3244  2.1217
 1569SOL     OW 5026   1.899   2.760   2.635 -0.0877 -0.9149 -0.2421
 1569SOL    HW1 5027   1.894   2.860   2.638  1.4080 -0.7823 -0.8935
 1569SOL    HW2 5028   1.807   2.721   2.642 -0.5676  0.4165  1.9558
 1570SOL     OW 5029   2.208   3.834   4.100 -0.9341  0.1218 -0.1057
 1570SOL    HW1 5030   2.185   3.906   4.166  0.9977  0.6989  0.0081
 1570SOL    HW2 5031   2.222   3.748   4.148  1.7429  0.8072  0.5349
 1571SOL     OW 5032   0.022   4.882   3.460  0.2909  0.4257  0.1149
 1571SOL    HW1 5033   0.107   4.829   3.453  1.3186  2.1181 -0.6403
 1571SOL    HW2 5034   0.014   4.943   3.382 -1.5367  0.4838  0.2981
 1572SOL     OW 5035   2.506   4.148   3.877  0.0009  0.4353 -0.2240
 1572SOL    HW1 5036   2.605   4.147   3.865  0.0037  1.2219 -0.2801
 1572SOL    HW2 5037   2.479   4.229   3.929 -0.4753 -0.5027  1.0465
 1573SOL     OW 5038   2.015   5.097   2.180 -0.2263  0.1202 -0.3764
 1573SOL    HW1 5039   1.997   5.148   2.265  0.0640 -0.3363 -0.0388
 1573SOL    HW2 5040   2.000   5.158   2.102 -0.9117  0.4285 -0.0210
 1574SOL     OW 5041   0.724   4.691   2.396 -0.4252 -0.2846 -0.1900
 1574SOL    HW1 5042   0.640   4.655   2.437  0.5219 -0.7294  1.4216
 1574SOL    HW2 5043   0.803   4.663   2.450  0.6669  1.2820 -0.8935
 1575SOL     OW 5044  -0.013   3.499   2.383 -0.1970  0.0338 -0.4623
 1575SOL    HW1 5045   0.015   3.587   2.420  0.2724  0.0249 -0.7811
 1575SOL    HW2 5046   0.067   3.450   2.348 -0.6782  0.3226 -2.0744
 1576SOL     OW 5047   2.114   4.861   2.532  0.0404  0.1770  0.4023
 1576SOL    HW1 5048   2.029   4.859   2.480 -0.8115  0.0822  1.7313
 1576SOL    HW2 5049   2.098   4.822   2.623  0.6934  2.9581  1.8232
 1577SOL     OW 5050   4.991   3.970   1.912 -0.2817 -0.1263 -0.8948
 1577SOL    HW1 5051   4.992   3.872   1.892  0.6658 -0.0818 -1.0894
 1577SOL    HW2 5052   4.978   4.021   1.827 -1.4342 -0.0954 -0.7108
 1578SOL     OW 5053   0.546   3.959   2.173 -0.4490 -0.1115 -0.3422
 1578SOL    HW1 5054   0.559   3.966   2.271 -2.2302  0.1264 -0.0862
 1578SOL    HW2 5055   0.632   3.934   2.129  0.5497  0.5205  1.1850
 1579SOL     OW 5056   0.489   4.377   4.315 -0.2513 -0.7253  0.0754
 1579SOL    HW1 5057   0.524   4.354   4.405  0.6998  0.7271  0.1160
 1579SOL    HW2 5058   0.543   4.331   4.245 -1.1674 -2.0776  0.2252
 1580SOL     OW 5059   0.151   0.095   2.774  0.0767 -0.2408 -0.3998
 1580SOL    HW1 5060   0.076   0.031   2.790 -0.3345 -1.2543 -4.8504
 1580SOL    HW2 5061   0.237   0.045   2.767  0.2614  0.1234 -0.7969
 1581SOL     OW 5062   0.047   5.467   2.381 -0.0767 -0.1864 -0.1918
 1581SOL    HW1 5063   0.084   5.424   2.464 -0.9860  0.5216  0.5983
 1581SOL    HW2 5064   0.086   5.558   2.370 -0.8977  0.2173  0.1636
 1582SOL     OW 5065   4.490   0.500   1.405  0.4071 -0.2018  0.6302
 1582SOL    HW1 5066   4.423   0.545   1.463 -0.3561 -0.6891  0.1457
 1582SOL    HW2 5067   4.491   0.402   1.424  1.2319 -0.1585  0.8658
 1583SOL     OW 5068   1.067   4.620   2.100  0.0954  0.4065 -0.2224
 1583SOL    HW1 5069   1.144   4.558   2.083 -0.9012 -1.5077  1.7143
 1583SOL    HW2 5070   1.079   4.665   2.188 -1.1022 -0.1381  0.2462
 1584SOL     OW 5071   4.216   4.461   3.991  0.2497  0.3231 -0.2477
 1584SOL    HW1 5072   4.216   4.424   4.084  0.7307  0.2051 -0.2935
 1584SOL    HW2 5073   4.123   4.458   3.954 -0.0384  0.8343  0.4087
 1585SOL     OW 5074   5.269   3.474   3.029  0.6834 -0.0694 -0.0436
 1585SOL    HW1 5075   5.228   3.400   3.084  2.0863 -1.4788 -0.8168
 1585SOL    HW2 5076   5.368   3.469   3.036  0.8739  3.1947  1.6851
 1586SOL     OW 5077   1.322   3.399   3.603 -0.4288 -0.0645 -0.3011
 1586SOL    HW1 5078   1.285   3.436   3.518 -0.4082  1.9879  0.5047
 1586SOL    HW2 5079   1.246   3.372   3.663 -0.4460 -1.3431 -0.8692
 1587SOL     OW 5080   4.998   3.739   3.017  0.2399  0.1608  0.0689
 1587SOL    HW1 5081   4.942   3.706   3.093  2.1847 -3.3469  0.2422
 1587SOL    HW2 5082   5.076   3.790   3.053  0.2725 -0.0695  0.3330
 1588SOL     OW 5083  -0.002   5.236   1.467 -0.4908  0.4068  0.1412
 1588SOL    HW1 5084   0.073   5.171   1.477  0.0973  1.0487 -0.0010
 1588SOL    HW2 5085  -0.000   5.275   1.375 -2.1267 -0.9236 -0.5043
 1589SOL     OW 5086   0.854   3.623   1.834  0.7799  0.3526  0.2038
 1589SOL    HW1 5087   0.801   3.540   1.853 -1.4253  1.4467 -0.7944
 1589SOL    HW2 5088   0.898   3.655   1.917  0.3894 -0.9646  0.9373
 1590SOL     OW 5089   2.397   5.317   2.306  0.3538  0.1230 -0.2107
 1590SOL    HW1 5090   2.453   5.355   2.380 -0.3810 -0.4360  0.6437
 1590SOL    HW2 5091   2.373   5.390   2.241  1.9326  0.4043 -0.5241
 1591SOL     OW 5092   0.836   4.919   1.645 -0.0460  0.7773  0.5148
 1591SOL    HW1 5093   0.873   4.876   1.563 -0.3832 -0.0265  0.7808
 1591SOL    HW2 5094   0.777   4.996   1.618 -0.6450  0.1396 -0.0265
 1592SOL     OW 5095   0.659   4.741   2.139  0.0626 -0.7621  0.4758
 1592SOL    HW1 5096   0.679   4.727   2.236  1.6889  0.4282  0.3495
 1592SOL    HW2 5097   0.717   4.680   2.084  0.0595 -0.5259  0.2101
 1593SOL     OW 5098   0.999   3.603   1.360  0.2211 -0.4421  0.0617
 1593SOL    HW1 5099   0.925   3.598   1.427  0.8125 -1.7332  0.6384
 1593SOL    HW2 5100   1.087   3.603   1.407  0.6363 -1.0535 -0.6975
 1594SOL     OW 5101   0.118   3.247   1.884 -0.0181 -0.1459 -0.1773
 1594SOL    HW1 5102   0.071   3.314   1.941 -1.1189 -0.3581 -0.7864
 1594SOL    HW2 5103   0.050   3.200   1.827  0.8289 -1.2066 -0.3384
 1595SOL     OW 5104   1.859   4.112   3.382  0.2120 -0.0327  0.3232
 1595SOL    HW1 5105   1.955   4.084   3.382  0.0815 -0.4943  0.8146
 1595SOL    HW2 5106   1.810   4.063   3.454 -0.1870  0.9100  0.7163
 1596SOL     OW 5107   0.106   4.255   4.083 -0.3529  0.0306 -0.1666
 1596SOL    HW1 5108   0.144   4.334   4.034 -1.5876 -0.0635 -1.3271
 1596SOL    HW2 5109   0.174   4.222   4.149  0.5550  1.4607 -0.3258
 1597SOL     OW 5110   0.201   4.652   3.770  0.2813  0.4690  0.1805
 1597SOL    HW1 5111   0.158   4.697   3.692  1.5318  0.8688 -0.3054
 1597SOL    HW2 5112   0.268   4.585   3.737  0.5768  0.3921  0.9196
 1598SOL     OW 5113   0.553   5.100   2.482 -1.0923 -0.7604  0.0248
 1598SOL    HW1 5114   0.493   5.068   2.408 -1.4011 -0.9522  0.3564
 1598SOL    HW2 5115   0.634   5.043   2.485 -0.4929  0.0054 -0.9564
 1599SOL     OW 5116   0.672   4.989   2.793  0.2830  0.1058 -0.2274
 1599SOL    HW1 5117   0.652   5.087   2.795 -1.3922 -0.1963 -0.7668
 1599SOL    HW2 5118   0.703   4.963   2.702 -1.1363 -0.1726 -0.6581
 1600SOL     OW 5119   1.448   4.383   2.623  0.3493 -0.3004  0.2748
 1600SOL    HW1 5120   1.459   4.406   2.719  2.9689 -0.3792  0.0735
 1600SOL    HW2 5121   1.446   4.467   2.568  0.7233 -0.3028  0.2564
 1601SOL     OW 5122   1.726   4.671   4.343  0.6671  0.3548 -0.2787
 1601SOL    HW1 5123   1.698   4.743   4.406  0.7398 -0.7027  1.0116
 1601SOL    HW2 5124   1.645   4.627   4.304  0.4948 -1.0270  1.5022
 1602SOL     OW 5125   5.346   5.176   2.510 -0.3032 -0.2170  0.2763
 1602SOL    HW1 5126   5.266   5.124   2.539 -0.0453 -0.2715  0.9085
 1602SOL    HW2 5127   5.422   5.112   2.494 -0.4935 -0.2084 -0.7206
 1603SOL     OW 5128   1.343   3.763   2.332 -0.1203 -0.3950 -0.5230
 1603SOL    HW1 5129   1.434   3.762   2.289  1.2273  0.5398  2.0680
 1603SOL    HW2 5130   1.330   3.850   2.379 -1.7315 -1.1352  0.4716
 1604SOL     OW 5131   1.401   3.385   1.521  0.0341 -0.3163 -0.1539
 1604SOL    HW1 5132   1.336   3.335   1.464 -2.8716  1.4163  1.3849
 1604SOL    HW2 5133   1.419   3.334   1.605  1.7977 -1.3886 -1.1216
 1605SOL     OW 5134   4.631   0.666   3.711  0.1008  0.5629  0.1236
 1605SOL    HW1 5135   4.584   0.592   3.758  1.7962  0.9699  2.6534
 1605SOL    HW2 5136   4.622   0.654   3.612 -3.3376 -0.5347  0.4651
 1606SOL     OW 5137   0.543   5.223   1.413 -0.4479  0.1339  0.1978
 1606SOL    HW1 5138   0.554   5.143   1.355 -0.4464 -0.6533  1.2502
 1606SOL    HW2 5139   0.608   5.218   1.489  1.1567  2.2856 -0.9249
 1607SOL     OW 5140   4.991   3.479   2.837 -0.0119  0.7103 -0.2654
 1607SOL    HW1 5141   4.894   3.498   2.845 -0.6119 -1.0755 -2.1945
 1607SOL    HW2 5142   5.007   3.381   2.846  1.8677  1.1120  1.6163
 1608SOL     OW 5143   0.701   0.859   2.936  0.3958  0.4903  0.1769
 1608SOL    HW1 5144   0.699   0.926   3.010 -1.7835  0.3184  0.3441
 1608SOL    HW2 5145   0.674   0.770   2.972  0.8122  0.0782 -0.5286
 1609SOL     OW 5146   0.248   0.594   3.329  0.4039 -0.6428 -0.6524
 1609SOL    HW1 5147   0.169   0.606   3.269  1.0943  0.6404 -1.3325
 1609SOL    HW2 5148   0.246   0.662   3.401 -1.4980 -3.3514  2.1187
 1610SOL     OW 5149   0.871   4.908   1.994 -0.2208 -0.3065  0.4983
 1610SOL    HW1 5150   0.802   4.955   2.049 -0.0176  2.0756 -1.1392
 1610SOL    HW2 5151   0.958   4.956   2.000  0.5842 -1.6789  0.3530
 1611SOL     OW 5152   0.344   4.004   4.243 -0.5081 -0.4539 -0.2899
 1611SOL    HW1 5153   0.287   3.923   4.225 -1.1547 -0.2711  0.8400
 1611SOL    HW2 5154   0.377   4.001   4.338 -0.1366  0.3610 -0.3869
 1612SOL     OW 5155   1.619   5.127   2.911 -0.3630 -0.1194  0.2082
 1612SOL    HW1 5156   1.521   5.146   2.898 -1.2355 -1.7954  3.2723
 1612SOL    HW2 5157   1.659   5.198   2.969 -0.5582 -0.9720  1.4263
 1613SOL     OW 5158   1.582   3.433   3.982 -0.6774  0.0731 -0.6623
 1613SOL    HW1 5159   1.549   3.431   3.887 -1.3105  0.3594 -0.4533
 1613SOL    HW2 5160   1.508   3.463   4.042  0.2826  1.8495 -0.3045
 1614SOL     OW 5161   1.729   3.068   4.271 -0.4664  0.1028  0.3336
 1614SOL    HW1 5162   1.653   3.002   4.269 -1.0959  0.7932  1.1182
 1614SOL    HW2 5163   1.813   3.021   4.245 -0.6431 -1.3855  2.2565
 1615SOL     OW 5164   0.482   4.923   2.975  0.0721 -0.4930 -0.2325
 1615SOL    HW1 5165   0.504   4.992   3.045 -1.3175  0.5522 -0.7983
 1615SOL    HW2 5166   0.562   4.908   2.917  2.0888 -3.0409  2.8320
 1616SOL     OW 5167   0.271   4.763   2.307 -0.6068 -0.3715  0.6752
 1616SOL    HW1 5168   0.300   4.711   2.226 -0.3468 -0.0396  0.5553
 1616SOL    HW2 5169   0.171   4.759   2.315 -0.5703 -1.1401  0.8343
 1617SOL     OW 5170   0.319   3.207   1.531  0.0779  0.5223  0.2833
 1617SOL    HW1 5171   0.223   3.204   1.503  0.1763  0.0559 -0.0225
 1617SOL    HW2 5172   0.337   3.135   1.598  0.2941  0.3732  0.0682
 1618SOL     OW 5173   5.564   2.853   2.462 -0.3608 -0.1272 -0.4213
 1618SOL    HW1 5174   5.484   2.796   2.483 -1.1695  1.3041  0.5579
 1618SOL    HW2 5175   5.625   2.855   2.541  0.0069 -0.1898 -0.7030
 1619SOL     OW 5176   4.931   0.034   0.732 -0.2382 -0.1676 -0.4026
 1619SOL    HW1 5177   4.883   0.089   0.801  1.6641 -0.9478  1.6930
 1619SOL    HW2 5178   4.978   0.095   0.668 -0.6080  0.6101  0.0438
 1620SOL     OW 5179   1.100   4.431   2.417  0.4164  0.2943  0.0953
 1620SOL    HW1 5180   1.018   4.483   2.394 -0.1142 -0.4695  0.2134
 1620SOL    HW2 5181   1.074   4.342   2.455  1.2927  0.4365  1.0887
 1621SOL     OW 5182   1.714   3.717   4.055  1.1949 -0.3764 -0.2956
 1621SOL    HW1 5183   1.764   3.637   4.023  1.5429 -0.5760  0.6998
 1621SOL    HW2 5184   1.620   3.691   4.076  0.9076 -0.1997 -1.3111
 1622SOL     OW 5185   0.849   4.316   0.688 -0.2709 -0.6815 -0.1361
 1622SOL    HW1 5186   0.770   4.308   0.749 -1.1771 -2.7919 -1.4497
 1622SOL    HW2 5187   0.818   4.337   0.596  0.9199  0.5925 -0.2752
 1623SOL     OW 5188   0.733   4.427   1.585 -0.2236 -0.0609  0.4378
 1623SOL    HW1 5189   0.692   4.353   1.639 -0.9615 -1.7357 -2.2104
 1623SOL    HW2 5190   0.785   4.388   1.509 -1.8829  2.0557 -1.9655
 1624SOL     OW 5191   1.558   4.537   3.549  0.5886 -0.5210 -0.5182
 1624SOL    HW1 5192   1.498   4.515   3.626  0.8973 -0.8947 -0.3836
 1624SOL    HW2 5193   1.624   4.463   3.536  1.6170  0.2962 -0.0842
 1625SOL     OW 5194   0.827   5.260   4.080  0.5529 -0.8462 -0.0676
 1625SOL    HW1 5195   0.846   5.246   4.177  0.2437  0.4927  0.2058
 1625SOL    HW2 5196   0.905   5.307   4.037 -0.2849  0.7605  0.0986
 1626SOL     OW 5197   0.628   3.137   3.623 -0.4101  0.1750 -0.5597
 1626SOL    HW1 5198   0.623   3.037   3.625 -1.1762  0.2040 -0.7363
 1626SOL    HW2 5199   0.662   3.171   3.711 -1.7353 -0.1674  0.1142
 1627SOL     OW 5200   1.098   4.748   1.857 -0.4961  0.3722 -0.1473
 1627SOL    HW1 5201   1.190   4.760   1.821 -0.2650 -0.4809  0.1263
 1627SOL    HW2 5202   1.103   4.708   1.949 -1.1509 -0.9714 -0.6561
 1628SOL     OW 5203   1.341   4.836   1.137  0.4033  0.1015  0.3588
 1628SOL    HW1 5204   1.436   4.865   1.145  0.9644 -1.6522  0.4542
 1628SOL    HW2 5205   1.284   4.914   1.110  1.9835  0.9834 -0.5536
 1629SOL     OW 5206   0.135   4.907   3.113  0.0504  0.2458 -0.4561
 1629SOL    HW1 5207   0.207   4.838   3.118  0.1744  0.2915 -1.3997
 1629SOL    HW2 5208   0.053   4.867   3.071 -0.2694  0.3624  0.0479
 1630SOL     OW 5209   0.193   4.261   2.181  0.2403 -0.1882  0.1661
 1630SOL    HW1 5210   0.196   4.170   2.223  2.5141 -0.4715 -0.4597
 1630SOL    HW2 5211   0.114   4.267   2.120  0.8836 -2.3116 -0.9626
 1631SOL     OW 5212   0.635   4.381   3.670 -0.1571  0.5879 -0.1319
 1631SOL    HW1 5213   0.554   4.436   3.688 -0.7459  0.2096 -1.5246
 1631SOL    HW2 5214   0.620   4.324   3.590  1.0979 -0.2951  0.2278
 1632SOL     OW 5215   0.424   5.034   3.424  0.0309 -0.6306  0.0967
 1632SOL    HW1 5216   0.380   4.944   3.430  0.7881 -1.0326 -0.2636
 1632SOL    HW2 5217   0.466   5.045   3.334  1.4580 -0.6377  0.7312
 1633SOL     OW 5218   1.171   4.656   3.310 -0.2365 -0.0546 -0.2914
 1633SOL    HW1 5219   1.083   4.636   3.353 -0.4288  2.7464  0.8524
 1633SOL    HW2 5220   1.237   4.585   3.336 -1.5770 -1.0151  0.6723
 1634SOL     OW 5221   4.380   4.930   1.623  0.1186 -0.2498  0.3471
 1634SOL    HW1 5222   4.313   4.855   1.625  0.0235 -0.1606  1.2058
 1634SOL    HW2 5223   4.377   4.979   1.710  0.1796  0.7616 -0.2017
 1635SOL     OW 5224   4.989   0.978   3.503  0.1919 -0.2724  0.3030
 1635SOL    HW1 5225   4.981   0.903   3.569 -0.1895 -1.3012 -0.8624
 1635SOL    HW2 5226   5.076   1.026   3.518  1.6155 -2.4466 -0.3705
 1636SOL     OW 5227   0.323   4.469   3.015  0.3191  0.6569  0.3078
 1636SOL    HW1 5228   0.313   4.484   2.916 -0.2997  0.9292  0.4079
 1636SOL    HW2 5229   0.240   4.499   3.061 -0.2286 -1.3818  0.7196
 1637SOL     OW 5230   0.289   3.748   3.965 -0.4455  0.6171 -0.0492
 1637SOL    HW1 5231   0.295   3.846   3.982  0.7812  0.3310  1.4545
 1637SOL    HW2 5232   0.375   3.704   3.992 -1.8938 -1.2031  1.9482
 1638SOL     OW 5233   0.668   3.720   4.200 -0.4247  0.1425  0.4068
 1638SOL    HW1 5234   0.750   3.665   4.184 -0.7848  0.0101 -1.0960
 1638SOL    HW2 5235   0.691   3.817   4.190 -1.0136  0.0244 -3.1283
 1639SOL     OW 5236   5.016   5.089   3.201  0.1227  0.1251 -0.0694
 1639SOL    HW1 5237   4.942   5.064   3.264  0.4260 -1.9052 -0.4579
 1639SOL    HW2 5238   5.042   5.185   3.216 -0.8197  0.1203  1.8546
 1640SOL     OW 5239   1.490   4.554   3.291  0.2409 -0.0139  0.4628
 1640SOL    HW1 5240   1.496   4.551   3.390  2.0461 -0.9102  0.3709
 1640SOL    HW2 5241   1.506   4.462   3.254 -0.0364  0.3798 -0.6671
 1641SOL     OW 5242   0.386   4.602   2.109 -0.2450  0.5002 -0.1969
 1641SOL    HW1 5243   0.355   4.563   2.022  1.4941  0.2874 -0.7558
 1641SOL    HW2 5244   0.474   4.647   2.096  0.2305  0.1495  1.5272
 1642SOL     OW 5245   2.939   4.055   2.532 -0.3972 -0.5945 -0.4805
 1642SOL    HW1 5246   2.946   4.081   2.628 -0.0594  2.4409 -1.2226
 1642SOL    HW2 5247   2.993   3.972   2.515 -0.1236 -0.9339  1.8264
 1643SOL     OW 5248   0.917   4.606   3.420 -0.3230 -0.2100 -0.2737
 1643SOL    HW1 5249   0.879   4.662   3.493 -1.9232 -0.1446 -1.1058
 1643SOL    HW2 5250   0.925   4.511   3.450 -0.3350 -0.0647  0.1910
 1644SOL     OW 5251   5.537   4.112   2.545 -0.0772  0.4091  0.3449
 1644SOL    HW1 5252   5.491   4.193   2.508  0.5359 -0.0819 -1.6259
 1644SOL    HW2 5253   5.610   4.141   2.607  0.8616  1.4667 -1.1800
 1645SOL     OW 5254   0.650   5.235   4.325  0.0549  0.1390 -0.0754
 1645SOL    HW1 5255   0.644   5.263   4.230 -0.9832 -0.9641 -0.3715
 1645SOL    HW2 5256   0.745   5.240   4.356  0.6900 -1.0421 -1.6751
 1646SOL     OW 5257   5.111   3.734   1.757  0.0065  0.3165  0.4795
 1646SOL    HW1 5258   5.126   3.817   1.703 -0.2066 -0.2773 -0.5075
 1646SOL    HW2 5259   5.194   3.714   1.809  0.7708  0.0924 -0.7667
 1647SOL     OW 5260   0.036   4.264   3.053  0.4047  0.4569 -0.1688
 1647SOL    HW1 5261   0.121   4.215   3.073 -0.0848 -0.3044  0.0996
 1647SOL    HW2 5262  -0.018   4.271   3.136 -2.0144 -3.4150 -1.1515
 1648SOL     OW 5263   1.188   4.911   3.706 -0.1853 -0.3509  0.4785
 1648SOL    HW1 5264   1.134   4.995   3.709  0.1505 -0.1457  0.8961
 1648SOL    HW2 5265   1.231   4.902   3.616  1.4650  1.0123  1.0781
 1649SOL     OW 5266   1.393   4.832   2.291  0.3173 -0.0717  0.4965
 1649SOL    HW1 5267   1.423   4.900   2.225  0.0276  0.5997  1.0480
 1649SOL    HW2 5268   1.471   4.776   2.319  0.5217 -0.0822 -0.0896
 1650SOL     OW 5269   1.945   0.586   2.232 -0.2477  0.6296 -0.4512
 1650SOL    HW1 5270   1.988   0.673   2.255  1.7427 -0.5233  0.3644
 1650SOL    HW2 5271   1.913   0.541   2.315  0.1730 -0.1458 -0.7050
 1651SOL     OW 5272   0.717   4.655   3.988 -0.2634  0.2416 -0.4251
 1651SOL    HW1 5273   0.668   4.648   3.901 -0.1264  0.2250 -0.5022
 1651SOL    HW2 5274   0.676   4.728   4.043 -0.7546 -0.1719 -0.2361
 1652SOL     OW 5275   1.022   4.517   2.879  0.0080 -0.1809 -0.3711
 1652SOL    HW1 5276   1.021   4.597   2.939  1.8110  1.0632 -1.8555
 1652SOL    HW2 5277   1.117   4.488   2.864 -0.4429 -1.0023 -1.8573
 1653SOL     OW 5278   1.506   0.574   2.199  0.2269 -0.1632 -0.0646
 1653SOL    HW1 5279   1.527   0.657   2.250  0.2001 -0.6543  0.7558
 1653SOL    HW2 5280   1.581   0.554   2.136 -0.6793  1.6390 -1.8419
 1654SOL     OW 5281   1.782   4.589   1.136  0.1811 -0.2308  0.2809
 1654SOL    HW1 5282   1.782   4.522   1.210 -1.1779  0.7340  1.2087
 1654SOL    HW2 5283   1.875   4.622   1.122  0.5117 -0.6028  1.4082
 1655SOL     OW 5284   1.556   5.525   3.181  0.2796  0.4824 -0.2191
 1655SOL    HW1 5285   1.552   5.600   3.115  0.7302 -0.4610 -1.3450
 1655SOL    HW2 5286   1.467   5.480   3.186  0.1734  0.7143  0.0218
 1656SOL     OW 5287   0.434   4.889   4.638  0.1262  0.4451  1.0570
 1656SOL    HW1 5288   0.433   4.944   4.554  2.1594 -0.3930  0.4188
 1656SOL    HW2 5289   0.493   4.932   4.706  1.0497 -0.4548  0.8600
 1657SOL     OW 5290   0.815   4.461   3.098 -0.2974  0.2564 -0.0484
 1657SOL    HW1 5291   0.738   4.486   3.039 -0.6614  0.5617  0.5408
 1657SOL    HW2 5292   0.901   4.482   3.053 -0.4628 -2.3807 -1.7849
 1658SOL     OW 5293   0.917   4.349   3.598  0.1898 -0.2683 -0.0322
 1658SOL    HW1 5294   0.821   4.373   3.607  0.6083  2.0934 -1.0766
 1658SOL    HW2 5295   0.959   4.340   3.689 -0.6726  0.1241  0.4075
 1659SOL     OW 5296   1.892   0.538   2.491 -0.0789 -0.5703 -0.0802
 1659SOL    HW1 5297   1.891   0.637   2.505  1.5024 -0.6046  0.4048
 1659SOL    HW2 5298   1.822   0.497   2.550  0.6377  0.0868  1.2735
 1660SOL     OW 5299   1.803   5.012   2.756 -0.1163  0.0822 -0.5435
 1660SOL    HW1 5300   1.734   5.050   2.818  2.1273 -2.4570  3.9580
 1660SOL    HW2 5301   1.887   5.065   2.763  0.4440 -0.7669 -0.7505
 1661SOL     OW 5302   1.811   4.283   2.202  0.4480 -0.5629 -0.2862
 1661SOL    HW1 5303   1.860   4.352   2.149 -0.8947  2.1167  1.6745
 1661SOL    HW2 5304   1.712   4.298   2.193  0.1073 -2.1626  0.3620
 1662SOL     OW 5305   1.459   4.559   2.431  0.1136 -0.4655  0.2074
 1662SOL    HW1 5306   1.532   4.623   2.457  0.6988 -1.2182  0.4359
 1662SOL    HW2 5307   1.492   4.496   2.361 -0.0408 -1.3530  0.9161
 1663SOL     OW 5308   1.251   5.322   1.190 -0.1827 -0.3078  0.5609
 1663SOL    HW1 5309   1.315   5.394   1.217 -0.5912 -0.2946  1.5245
 1663SOL    HW2 5310   1.193   5.355   1.115 -0.4407  0.4131  1.0690
 1664SOL     OW 5311   5.463   0.626   3.652 -0.0522  0.1262 -0.5307
 1664SOL    HW1 5312   5.545   0.576   3.680 -1.0923 -1.3616 -0.0402
 1664SOL    HW2 5313   5.485   0.723   3.643  1.3649  0.0316  1.2675
 1665SOL     OW 5314   0.404   4.280   2.547  0.3486 -0.6072  0.9986
 1665SOL    HW1 5315   0.361   4.313   2.463 -0.9955 -0.8211  1.5616
 1665SOL    HW2 5316   0.467   4.349   2.582 -0.0211  0.0129  0.4660
 1666SOL     OW 5317   2.211   4.855   1.867  0.4601 -0.8679 -0.0102
 1666SOL    HW1 5318   2.114   4.878   1.861  0.9417  1.5176  0.3181
 1666SOL    HW2 5319   2.232   4.819   1.958  0.3928  1.6897  1.0971
 1667SOL     OW 5320   0.055   5.005   3.721  0.2764  0.5001  0.2109
 1667SOL    HW1 5321   0.044   4.956   3.635 -1.2832  0.0037  0.6482
 1667SOL    HW2 5322   0.048   5.104   3.705 -2.0820  0.3504 -0.0254
 1668SOL     OW 5323   1.370   3.153   4.299  0.3088 -0.2026  0.0035
 1668SOL    HW1 5324   1.382   3.099   4.215  0.9647 -0.1152  0.0349
 1668SOL    HW2 5325   1.434   3.121   4.368 -0.4106 -0.4460  0.5712
 1669SOL     OW 5326   0.321   4.351   1.662  0.5841 -0.5800  0.1094
 1669SOL    HW1 5327   0.330   4.256   1.690 -0.0924 -0.8150 -0.4478
 1669SOL    HW2 5328   0.340   4.360   1.565 -0.0225 -0.2699  0.0086
 1670SOL     OW 5329   0.659   3.522   2.116  0.3499  0.1971 -0.2457
 1670SOL    HW1 5330   0.666   3.596   2.183  1.9583  0.9229 -1.1718
 1670SOL    HW2 5331   0.587   3.459   2.145  0.8682  0.5700  2.0639
 1671SOL     OW 5332   1.033   0.721   2.383  0.1697 -0.3855 -0.8492
 1671SOL    HW1 5333   1.044   0.675   2.471 -0.6121  0.3865 -0.3313
 1671SOL    HW2 5334   1.099   0.684   2.317  1.7494  0.0331  0.4534
 1672SOL     OW 5335   1.788   3.782   3.206 -0.0169 -0.1691  0.1823
 1672SOL    HW1 5336   1.862   3.850   3.194  0.2370 -0.4700  0.0290
 1672SOL    HW2 5337   1.802   3.734   3.292  0.4974 -0.8693 -0.2802
 1673SOL     OW 5338   0.217   0.928   2.226  0.2129  0.2049 -0.1908
 1673SOL    HW1 5339   0.256   0.974   2.306  0.7145 -0.9068  0.2181
 1673SOL    HW2 5340   0.122   0.956   2.215  0.0749  0.2159  0.9194
 1674SOL     OW 5341   0.859   3.927   3.513 -0.5618 -0.3541  0.2855
 1674SOL    HW1 5342   0.862   3.997   3.443 -1.4336 -0.2028  0.3976
 1674SOL    HW2 5343   0.830   3.967   3.600 -1.8698 -1.0014  0.1603
 1675SOL     OW 5344  -0.031   4.425   2.829 -0.3678 -0.1585 -0.2037
 1675SOL    HW1 5345   0.029   4.499   2.797 -1.0671 -0.1262 -1.5053
 1675SOL    HW2 5346   0.015   4.375   2.902  3.0402 -2.5779 -3.5594
 1676SOL     OW 5347   5.524   4.179   1.433  0.2631 -0.0009  0.4422
 1676SOL    HW1 5348   5.450   4.140   1.378  1.2467  1.3385 -2.0117
 1676SOL    HW2 5349   5.486   4.223   1.514 -1.4103 -0.8149  0.1429
 1677SOL     OW 5350   1.172   4.130   2.739  0.4137 -0.3067 -0.2819
 1677SOL    HW1 5351   1.140   4.094   2.826 -0.2684  0.5597 -0.1628
 1677SOL    HW2 5352   1.167   4.230   2.740  0.0611 -0.3009 -1.4359
 1678SOL     OW 5353   5.547   3.421   2.061 -0.3262  0.3540  0.8743
 1678SOL    HW1 5354   5.517   3.496   2.120 -1.4684  0.5045  0.1162
 1678SOL    HW2 5355   5.469   3.364   2.035  0.4475 -0.8068  1.0100
 1679SOL     OW 5356   1.069   4.878   2.697 -0.3717  0.2358  0.1299
 1679SOL    HW1 5357   1.153   4.848   2.653 -1.0689  1.5877 -2.3471
 1679SOL    HW2 5358   1.086   4.899   2.793  2.6339  2.4753 -0.7698
 1680SOL     OW 5359   1.016   3.739   2.404  0.5161 -0.1219 -0.0736
 1680SOL    HW1 5360   0.976   3.648   2.416 -0.6141  0.1901 -1.2075
 1680SOL    HW2 5361   1.109   3.730   2.369  0.6900 -0.8403  0.5349
 1681SOL     OW 5362   0.933   0.476   2.895  0.0071  0.2948  0.2321
 1681SOL    HW1 5363   0.897   0.388   2.863 -0.8278  0.7418 -0.1004
 1681SOL    HW2 5364   0.872   0.513   2.965 -0.4928  1.3040 -0.7049
 1682SOL     OW 5365   5.125   4.824   3.672  0.0113  0.4765  0.1149
 1682SOL    HW1 5366   5.213   4.814   3.625 -0.7828  0.8911 -1.5604
 1682SOL    HW2 5367   5.137   4.876   3.756  1.4304  0.1637  0.1183
 1683SOL     OW 5368   1.472   4.123   3.828  0.2704  0.1692  0.3116
 1683SOL    HW1 5369   1.550   4.185   3.821  1.4231 -1.3135 -0.7797
 1683SOL    HW2 5370   1.504   4.029   3.834 -1.4314 -0.3919  1.4235
 1684SOL     OW 5371   1.481   4.919   4.310 -0.5388 -0.6540 -0.3046
 1684SOL    HW1 5372   1.501   5.013   4.282 -2.0200 -0.0755  0.5027
 1684SOL    HW2 5373   1.510   4.906   4.405 -0.7204 -0.8810 -0.2805
 1685SOL     OW 5374   2.313   5.366   3.074  0.2909 -0.0171 -0.0367
 1685SOL    HW1 5375   2.359   5.416   3.147  0.2365 -3.0081  2.2364
 1685SOL    HW2 5376   2.382   5.325   3.014  0.4481 -0.4230  0.4174
 1686SOL     OW 5377   2.583   4.082   1.877 -0.2382  0.1080  0.3280
 1686SOL    HW1 5378   2.567   4.174   1.911  0.4616  0.0710  0.7778
 1686SOL    HW2 5379   2.657   4.039   1.929  0.0027 -0.4095 -0.4177
 1687SOL     OW 5380   1.647   5.002   2.525 -0.1289 -0.0301  0.2046
 1687SOL    HW1 5381   1.555   4.989   2.562 -0.4040  0.8197 -0.1643
 1687SOL    HW2 5382   1.714   4.988   2.598 -0.5058 -1.2966  0.3262
 1688SOL     OW 5383   2.467   3.484   4.011 -0.1403 -0.3309 -0.7798
 1688SOL    HW1 5384   2.406   3.498   4.089 -0.3908  1.6383 -1.2911
 1688SOL    HW2 5385   2.439   3.401   3.962 -0.0372 -1.5512  1.1178
 1689SOL     OW 5386   1.653   4.290   3.477  0.2648  0.2086  0.1242
 1689SOL    HW1 5387   1.728   4.265   3.416 -0.0257 -0.4386  0.0274
 1689SOL    HW2 5388   1.585   4.216   3.480 -0.9995  1.2929 -0.7706
 1690SOL     OW 5389   0.168   0.712   3.742 -0.4564  0.1806  0.3347
 1690SOL    HW1 5390   0.142   0.797   3.696  0.3851  0.3203  0.1000
 1690SOL    HW2 5391   0.246   0.671   3.694 -0.7869 -0.6683  0.5129
 1691SOL     OW 5392   1.337   4.619   3.070 -0.2176 -0.9013 -0.0442
 1691SOL    HW1 5393   1.269   4.642   3.139 -0.7591 -1.4207 -0.3897
 1691SOL    HW2 5394   1.422   4.590   3.114 -0.5177 -1.1065  0.3975
 1692SOL     OW 5395   1.077   4.326   0.835  0.6332  0.2235  0.2963
 1692SOL    HW1 5396   0.986   4.345   0.799  0.4995 -0.1888  0.4051
 1692SOL    HW2 5397   1.146   4.348   0.766  0.4052 -0.1442 -0.0527
 1693SOL     OW 5398   1.828   4.595   2.423  0.0380  0.4221  0.0898
 1693SOL    HW1 5399   1.928   4.586   2.423 -0.0639 -0.8431 -0.4558
 1693SOL    HW2 5400   1.788   4.520   2.476 -0.6601  0.5435 -0.2570
 1694SOL     OW 5401   4.250   4.860   3.458 -0.3339 -0.4380  0.1469
 1694SOL    HW1 5402   4.150   4.860   3.458 -0.3671  0.7598 -0.9689
 1694SOL    HW2 5403   4.284   4.776   3.415 -0.9526  0.3999 -2.1311
 1695SOL     OW 5404   4.635   4.846   1.930  0.8901  0.1474  0.0939
 1695SOL    HW1 5405   4.641   4.748   1.907  0.6247  0.2710 -0.5471
 1695SOL    HW2 5406   4.726   4.887   1.925  1.1107 -0.2098  1.0585
 1696SOL     OW 5407   1.058   3.644   3.909  0.1998 -1.2190 -0.1648
 1696SOL    HW1 5408   1.157   3.650   3.919  0.0467 -1.3007  2.0707
 1696SOL    HW2 5409   1.031   3.673   3.817  2.2304 -0.6597 -0.6283
 1697SOL     OW 5410   3.092   4.489   1.668  0.2752  0.7118 -0.0875
 1697SOL    HW1 5411   3.051   4.561   1.724 -0.1030  0.3726  0.0722
 1697SOL    HW2 5412   3.156   4.531   1.603 -2.2327  1.5943 -2.1872
 1698SOL     OW 5413   5.434   2.942   1.951  0.1628  0.5912 -0.3590
 1698SOL    HW1 5414   5.505   2.949   1.881  0.0980  0.1754 -0.4669
 1698SOL    HW2 5415   5.472   2.968   2.040  0.2276  1.1892 -0.5567
 1699SOL     OW 5416   0.421   0.497   2.521  0.1981 -0.7697  0.3699
 1699SOL    HW1 5417   0.383   0.542   2.440 -0.0478  1.1330  1.4736
 1699SOL    HW2 5418   0.489   0.557   2.564  0.5593 -1.8651  1.3976
 1700SOL     OW 5419   0.638   4.691   2.746  0.0108  0.1519  0.2186
 1700SOL    HW1 5420   0.568   4.739   2.693 -0.6838 -0.1540  0.8315
 1700SOL    HW2 5421   0.729   4.720   2.717 -0.3793  0.8986 -0.2761
 1701SOL     OW 5422   1.961   4.339   3.281  0.1963 -0.4943  0.0907
 1701SOL    HW1 5423   1.990   4.411   3.343 -2.0870  0.0422  0.6165
 1701SOL    HW2 5424   1.914   4.267   3.332 -0.8404 -0.5242 -0.8521
 1702SOL     OW 5425   1.735   4.394   3.134  0.2681  0.4233  0.2135
 1702SOL    HW1 5426   1.817   4.358   3.179  0.5541 -0.4751 -0.9705
 1702SOL    HW2 5427   1.731   4.493   3.148  1.3039  0.4214  0.6768
 1703SOL     OW 5428   5.410   4.580   1.983 -0.0708  0.0791 -0.3620
 1703SOL    HW1 5429   5.352   4.653   2.019 -0.3738  0.2384 -1.1633
 1703SOL    HW2 5430   5.404   4.500   2.042  0.0033  0.5784  0.3405
 1704SOL     OW 5431   0.248   0.762   2.789 -0.0306  0.0320 -1.0632
 1704SOL    HW1 5432   0.213   0.830   2.725 -1.7378 -0.9959 -1.2875
 1704SOL    HW2 5433   0.228   0.670   2.755 -1.8288 -0.5693  1.3038
 1705SOL     OW 5434   2.124   3.761   1.773  0.0945  0.2977  0.5018
 1705SOL    HW1 5435   2.109   3.789   1.868 -0.2469  1.7627  0.0415
 1705SOL    HW2 5436   2.216   3.724   1.764 -0.1753 -0.7137  1.5788
 1706SOL     OW 5437   0.899   3.436   2.067 -0.8287  0.2219 -0.4865
 1706SOL    HW1 5438   0.818   3.491   2.088 -1.4003 -0.6493 -0.3519
 1706SOL    HW2 5439   0.907   3.362   2.134 -0.5734 -0.3757 -1.1704
 1707SOL     OW 5440   1.676   3.141   1.938  0.4216 -0.3132  0.0976
 1707SOL    HW1 5441   1.679   3.048   1.973 -1.2797 -0.8915 -1.1444
 1707SOL    HW2 5442   1.706   3.205   2.009  1.9231 -1.8101  0.8532
 1708SOL     OW 5443   0.555   0.330   1.463  0.3623 -0.1337  0.9952
 1708SOL    HW1 5444   0.539   0.231   1.460  0.7050 -0.1747 -1.3135
 1708SOL    HW2 5445   0.652   0.347   1.477  0.2083 -0.1070  2.0493
 1709SOL     OW 5446   1.803   5.565   1.795  0.2448 -0.6082 -0.1084
 1709SOL    HW1 5447   1.720   5.518   1.824  0.8002 -1.0895  0.7640
 1709SOL    HW2 5448   1.847   5.606   1.875  0.7132 -0.1404 -0.5965
 1710SOL     OW 5449   5.520   3.150   4.588  0.3053 -0.1334  0.0459
 1710SOL    HW1 5450   5.534   3.186   4.496  0.3984 -0.2925 -0.0027
 1710SOL    HW2 5451   5.433   3.184   4.624  0.2221 -0.1475 -0.1392
 1711SOL     OW 5452   5.449   3.138   4.101  0.1397 -0.1694 -0.5275
 1711SOL    HW1 5453   5.460   3.039   4.099  0.7706 -0.0971 -0.9363
 1711SOL    HW2 5454   5.510   3.180   4.034  0.9039  0.5807  0.5877
 1712SOL     OW 5455   0.087   3.018   4.870  0.3196  0.5065 -0.1345
 1712SOL    HW1 5456   0.021   3.087   4.898  1.0582  1.9415 -1.7871
 1712SOL    HW2 5457   0.134   3.047   4.787  0.0154 -2.3945 -1.4641
 1713SOL     OW 5458   0.255   5.011   2.858  0.1012  0.5113  0.0020
 1713SOL    HW1 5459   0.323   4.969   2.918  0.4453 -0.0674 -0.7787
 1713SOL    HW2 5460   0.301   5.067   2.789 -0.2293  0.4130 -0.3037
 1714SOL     OW 5461   2.140   5.217   0.145  0.0498 -0.1357 -0.1330
 1714SOL    HW1 5462   2.168   5.221   0.049 -1.2093 -0.7528 -0.5496
 1714SOL    HW2 5463   2.221   5.206   0.203  0.8698  0.7875 -1.0768
 1715SOL     OW 5464   1.862   4.799   4.137 -0.4028 -0.5419  0.0459
 1715SOL    HW1 5465   1.837   4.762   4.048 -0.8631  1.6041 -0.7804
 1715SOL    HW2 5466   1.809   4.752   4.209 -1.8885 -0.6247 -1.0558
 1716SOL     OW 5467   1.888   4.095   4.391 -0.2824  0.2668 -0.2859
 1716SOL    HW1 5468   1.819   4.165   4.409  0.0401  1.0056 -1.7340
 1716SOL    HW2 5469   1.847   4.021   4.338  0.1671  1.1364 -1.9532
 1717SOL     OW 5470   5.089   5.456   5.425 -0.0463 -0.1301 -0.7243
 1717SOL    HW1 5471   5.180   5.468   5.386  0.4112  1.6399  0.7327
 1717SOL    HW2 5472   5.097   5.426   5.521 -1.0397 -0.9261 -0.8634
 1718SOL     OW 5473   4.915   0.048   5.333 -0.0707  0.2690  0.3146
 1718SOL    HW1 5474   4.837   0.005   5.288  0.6560 -0.0849 -0.6480
 1718SOL    HW2 5475   4.978  -0.024   5.364  0.6279  0.5804 -0.3402
 1719SOL     OW 5476   1.034   3.082   4.129 -0.4454  0.2224  0.2464
 1719SOL    HW1 5477   1.006   3.028   4.208  0.4004 -0.5813  0.0121
 1719SOL    HW2 5478   1.073   3.022   4.059  0.1993  1.0874 -0.1572
 1720SOL     OW 5479   5.164   5.442   0.865  0.0391  0.0574 -0.2156
 1720SOL    HW1 5480   5.167   5.395   0.777  0.7979  1.7486 -1.1484
 1720SOL    HW2 5481   5.097   5.517   0.861 -0.7883 -0.5833  1.0555
 1721SOL     OW 5482   4.949   4.768   4.550  0.0905 -0.2628  0.1617
 1721SOL    HW1 5483   4.935   4.732   4.642 -0.4312  0.1643  0.2526
 1721SOL    HW2 5484   4.960   4.691   4.486  1.5840 -0.5512  0.7316
 1722SOL     OW 5485   0.851   4.778   5.337  0.1533 -0.7448  0.4143
 1722SOL    HW1 5486   0.779   4.837   5.374 -0.0888  0.1973 -1.4522
 1722SOL    HW2 5487   0.928   4.776   5.401 -0.7654 -0.2750  1.5797
 1723SOL     OW 5488   1.467   3.577   4.900 -0.3487  0.0188 -0.3641
 1723SOL    HW1 5489   1.523   3.494   4.897  1.1637  0.9385  0.7991
 1723SOL    HW2 5490   1.457   3.607   4.995  0.1691  1.8252 -0.8413
 1724SOL     OW 5491   1.742   3.247   3.686  0.0787  0.0663 -0.2780
 1724SOL    HW1 5492   1.726   3.337   3.644 -0.9349 -0.2017 -0.5063
 1724SOL    HW2 5493   1.663   3.188   3.667  0.2934 -0.5540  0.7099
 1725SOL     OW 5494   0.055   4.551   4.274 -0.3223 -0.7012 -0.6490
 1725SOL    HW1 5495   0.071   4.638   4.320 -1.2436  0.4086 -2.3275
 1725SOL    HW2 5496   0.108   4.479   4.320  0.5344  0.7291  0.7221
 1726SOL     OW 5497   0.635   4.302   4.543  0.1463  0.5470  0.1908
 1726SOL    HW1 5498   0.653   4.351   4.628  0.5517  0.6221  0.0608
 1726SOL    HW2 5499   0.659   4.205   4.554  1.1412  0.7431 -0.1405
 1727SOL     OW 5500   4.548   5.059   4.115  0.4583 -0.2479 -0.4213
 1727SOL    HW1 5501   4.577   5.077   4.021  1.7389 -0.4417 -0.0861
 1727SOL    HW2 5502   4.511   4.966   4.121  1.3020 -0.6006 -0.5447
 1728SOL     OW 5503   1.315   3.377   4.160  1.0094  0.0949  0.1060
 1728SOL    HW1 5504   1.331   3.304   4.227  1.3453 -0.3856 -0.4884
 1728SOL    HW2 5505   1.233   3.356   4.107 -0.9012  1.8509  2.1938
 1729SOL     OW 5506   0.256   5.424   5.138 -0.5737  1.0101 -0.0874
 1729SOL    HW1 5507   0.293   5.462   5.053 -0.3068 -3.4682 -2.2528
 1729SOL    HW2 5508   0.160   5.399   5.125 -0.8986  1.3547  1.4051
 1730SOL     OW 5509   1.003   4.304   3.872 -0.3002  0.4323  0.1423
 1730SOL    HW1 5510   0.980   4.221   3.924 -1.5343  1.5471  1.4541
 1730SOL    HW2 5511   0.983   4.384   3.928 -0.0041  1.6589 -1.4588
 1731SOL     OW 5512   0.839   4.117   5.431 -0.0865 -0.1102 -0.2952
 1731SOL    HW1 5513   0.826   4.026   5.470 -0.3059  0.4890  1.0912
 1731SOL    HW2 5514   0.786   4.125   5.347  0.5101 -1.4855 -0.8402
 1732SOL     OW 5515   5.584   5.065   5.309  0.0652 -0.1248 -0.4300
 1732SOL    HW1 5516   5.549   4.981   5.351  0.5359 -0.4784 -0.7296
 1732SOL    HW2 5517   5.530   5.087   5.228 -0.5940  0.3392  0.1207
 1733SOL     OW 5518   2.121   4.834   4.086 -0.2877  0.5955  0.3445
 1733SOL    HW1 5519   2.165   4.924   4.083  0.5321  0.1788 -1.0951
 1733SOL    HW2 5520   2.024   4.845   4.107 -0.8350  2.0837 -2.4642
 1734SOL     OW 5521   5.463   4.259   3.281 -0.4569  0.0940  0.1849
 1734SOL    HW1 5522   5.474   4.265   3.380 -2.3345  0.0131  0.4391
 1734SOL    HW2 5523   5.439   4.350   3.245 -1.9583 -0.2829  0.1529
 1735SOL     OW 5524   2.902   4.553   4.946 -0.3825 -0.2710  0.1926
 1735SOL    HW1 5525   2.893   4.467   4.896 -1.7913  0.3219 -0.6064
 1735SOL    HW2 5526   2.996   4.561   4.980  0.4309 -1.0770 -1.6742
 1736SOL     OW 5527   2.553   5.028   4.724 -0.3649  0.1872  0.1081
 1736SOL    HW1 5528   2.537   5.096   4.652  0.2737  1.3021  0.9707
 1736SOL    HW2 5529   2.574   4.940   4.683  1.5515  1.1506 -1.1173
 1737SOL     OW 5530   0.261   4.341   4.990  0.8121  0.1636 -0.2736
 1737SOL    HW1 5531   0.235   4.264   4.932 -0.7966  0.6886 -0.3010
 1737SOL    HW2 5532   0.320   4.403   4.939  0.9867 -0.3518 -0.7056
 1738SOL     OW 5533   1.037   4.335   4.538 -0.2126 -0.0287 -0.1161
 1738SOL    HW1 5534   1.018   4.257   4.597  1.1703  1.0714  1.9018
 1738SOL    HW2 5535   0.956   4.358   4.485 -0.8743 -2.3250 -0.2159
 1739SOL     OW 5536   0.104   3.545   3.974 -0.1060  0.2525  0.6045
 1739SOL    HW1 5537   0.117   3.471   3.908 -0.3886 -1.0932  2.0216
 1739SOL    HW2 5538   0.159   3.624   3.946  2.8663 -1.6145  0.7804
 1740SOL     OW 5539   1.109   3.143   4.536  0.4001 -0.1824  0.1927
 1740SOL    HW1 5540   1.141   3.176   4.448  0.7057 -0.4578  0.1965
 1740SOL    HW2 5541   1.174   3.171   4.608  0.0675  0.1810  0.3501
 1741SOL     OW 5542   1.277   4.743   4.622 -0.2256 -0.0600  0.2756
 1741SOL    HW1 5543   1.225   4.663   4.651  2.4269 -1.5802  1.2486
 1741SOL    HW2 5544   1.324   4.723   4.537 -1.0434  1.2277 -0.5184
 1742SOL     OW 5545   1.135   4.966   0.631  0.4699 -0.2374 -0.2549
 1742SOL    HW1 5546   1.167   4.873   0.650  2.2530  0.1146 -1.3067
 1742SOL    HW2 5547   1.201   5.013   0.573 -0.6654  1.5254 -0.2055
 1743SOL     OW 5548   5.003   4.021   0.470 -0.1056 -0.3200 -0.2151
 1743SOL    HW1 5549   5.099   4.008   0.494 -0.8114 -1.2925  2.3561
 1743SOL    HW2 5550   4.977   3.954   0.400  0.8948 -0.5337 -0.3961
 1744SOL     OW 5551   2.290   5.443   5.214  0.1911  0.2599  0.6037
 1744SOL    HW1 5552   2.241   5.364   5.175  0.4896 -0.0976  0.9463
 1744SOL    HW2 5553   2.354   5.478   5.146  0.4974 -0.1791  0.6566
 1745SOL     OW 5554   2.801   4.902   0.119  0.2058 -0.4977 -0.1008
 1745SOL    HW1 5555   2.853   4.988   0.118 -0.7693  0.1367  0.9765
 1745SOL    HW2 5556   2.758   4.889   0.030  0.5262  0.0307 -0.3391
 1746SOL     OW 5557   5.258   4.536   4.528  0.0587  0.4163  0.1325
 1746SOL    HW1 5558   5.240   4.439   4.516 -4.5370  0.9874  0.6765
 1746SOL    HW2 5559   5.227   4.586   4.446  0.3571  1.5902  0.7116
 1747SOL     OW 5560   2.197   5.201   4.527 -0.3760  0.4330  0.2841
 1747SOL    HW1 5561   2.138   5.221   4.449  1.0698  2.4517 -0.3846
 1747SOL    HW2 5562   2.158   5.241   4.609 -0.7149  0.4020  0.1379
 1748SOL     OW 5563   1.893   0.768   4.113  0.1051  0.3619 -0.1025
 1748SOL    HW1 5564   1.820   0.813   4.062 -2.2328 -2.2853  0.6515
 1748SOL    HW2 5565   1.977   0.768   4.059 -0.9658  1.7280 -1.8682
 1749SOL     OW 5566   5.314   5.191   1.105  0.1534  0.2495  0.1156
 1749SOL    HW1 5567   5.413   5.204   1.113  0.0200  1.6979 -0.1967
 1749SOL    HW2 5568   5.270   5.281   1.100 -1.3788 -0.2838  2.4231
 1750SOL     OW 5569   1.636   4.083   0.770  0.4896 -0.5154 -0.0100
 1750SOL    HW1 5570   1.720   4.136   0.776  0.3659 -0.4203  1.0742
 1750SOL    HW2 5571   1.591   4.101   0.682  0.3030  1.3895  0.4381
 1751SOL     OW 5572   0.781   3.965   4.155 -0.8848  0.2893 -0.2793
 1751SOL    HW1 5573   0.853   3.975   4.087 -0.3831 -0.9227  0.0431
 1751SOL    HW2 5574   0.714   4.039   4.145 -0.3563  0.6161 -1.5076
 1752SOL     OW 5575   0.819   3.158   4.672  0.2715 -0.4924 -0.9644
 1752SOL    HW1 5576   0.793   3.115   4.586 -0.9436  0.0283 -0.8857
 1752SOL    HW2 5577   0.914   3.187   4.668  0.5411 -1.4360 -1.7234
 1753SOL     OW 5578   1.952   4.014   3.948  0.1991  0.0101 -0.2836
 1753SOL    HW1 5579   2.033   3.956   3.940 -0.0546 -0.2424 -1.1824
 1753SOL    HW2 5580   1.911   4.003   4.039 -0.3388 -1.9178 -0.7124
 1754SOL     OW 5581   5.216   5.306   4.971 -0.6647  0.4915 -0.3157
 1754SOL    HW1 5582   5.144   5.293   5.038  1.1679 -0.7225  1.5358
 1754SOL    HW2 5583   5.265   5.392   4.990  1.4294 -1.0184  1.5824
 1755SOL     OW 5584   1.022   0.849   0.139  0.2747 -0.0105 -0.3913
 1755SOL    HW1 5585   1.039   0.857   0.237  0.5596 -1.6551 -0.2778
 1755SOL    HW2 5586   1.108   0.854   0.089  0.1627  0.4924 -0.5408
 1756SOL     OW 5587   0.946   4.043   3.954 -0.8312  0.4923  0.2768
 1756SOL    HW1 5588   1.026   3.988   3.927 -0.8642  0.3258  0.5139
 1756SOL    HW2 5589   0.877   4.039   3.882 -1.3139 -0.7287  0.7846
 1757SOL     OW 5590   3.232   4.575   1.255  0.2235 -0.2750 -0.6429
 1757SOL    HW1 5591   3.251   4.568   1.157  0.2962  1.2478 -0.7583
 1757SOL    HW2 5592   3.133   4.571   1.270  0.1554  0.4048 -0.8773
 1758SOL     OW 5593   0.206   4.920   3.934 -0.4885 -0.3102 -0.5721
 1758SOL    HW1 5594   0.152   4.922   3.849  1.6866 -1.0881 -2.0723
 1758SOL    HW2 5595   0.289   4.974   3.921 -0.0623 -0.5385  1.0626
 1759SOL     OW 5596   0.734   3.580   0.039 -0.1188 -0.1687  0.1174
 1759SOL    HW1 5597   0.759   3.506   0.101  0.2073 -0.4455 -0.3319
 1759SOL    HW2 5598   0.704   3.541  -0.049  0.9070  0.2402 -0.4356
 1760SOL     OW 5599   5.521   1.749   4.393 -0.0676  0.4185 -0.1015
 1760SOL    HW1 5600   5.591   1.678   4.401 -0.6729 -0.0249  1.9828
 1760SOL    HW2 5601   5.431   1.707   4.405 -0.5463  1.2988 -0.5692
 1761SOL     OW 5602   1.165   5.353   3.980  0.1168  1.3132  0.3599
 1761SOL    HW1 5603   1.186   5.445   3.948  2.5668  0.6781  0.0051
 1761SOL    HW2 5604   1.248   5.298   3.983 -1.0775 -0.5517  1.7523
 1762SOL     OW 5605   2.917   3.864   5.131 -0.0022 -0.3104  0.3957
 1762SOL    HW1 5606   3.015   3.875   5.117  0.4929 -1.4348  2.5099
 1762SOL    HW2 5607   2.880   3.801   5.062  1.5370 -2.7820  1.6970
 1763SOL     OW 5608   5.209   4.860   0.234 -0.6858  0.2180 -0.4433
 1763SOL    HW1 5609   5.193   4.764   0.209  0.4862  0.3352 -1.7674
 1763SOL    HW2 5610   5.291   4.865   0.291 -1.1360  0.3712  0.1960
 1764SOL     OW 5611   4.576   4.209   3.605  0.4078 -0.4412 -0.8523
 1764SOL    HW1 5612   4.622   4.123   3.583  1.2527 -0.5978  1.3088
 1764SOL    HW2 5613   4.644   4.281   3.618 -0.2337  0.3166 -1.5450
 1765SOL     OW 5614   2.324   3.680   4.780  0.0445 -0.6525 -0.0150
 1765SOL    HW1 5615   2.412   3.726   4.769 -0.1517 -0.2054  0.2702
 1765SOL    HW2 5616   2.294   3.644   4.692 -0.2793  0.6420 -0.4524
 1766SOL     OW 5617   5.028   5.341   5.162 -0.1598 -0.7762 -0.0820
 1766SOL    HW1 5618   5.042   5.364   5.258 -1.3852 -0.0111 -0.0635
 1766SOL    HW2 5619   4.937   5.301   5.150 -0.2432 -0.3416 -1.0125
 1767SOL     OW 5620   1.035   1.000   3.694  0.2119 -0.0303  0.5493
 1767SOL    HW1 5621   0.943   0.963   3.701  0.4368 -0.4333  1.5585
 1767SOL    HW2 5622   1.054   1.025   3.599 -0.4866 -1.0983  0.1092
 1768SOL     OW 5623   1.226   3.318   5.264 -0.1314  0.0299  0.0775
 1768SOL    HW1 5624   1.278   3.374   5.328 -0.6068  0.1317  0.3807
 1768SOL    HW2 5625   1.139   3.362   5.243  0.2475  0.2669 -1.0817
 1769SOL     OW 5626   0.863   5.469   3.340  0.2990 -0.1944  0.6038
 1769SOL    HW1 5627   0.834   5.493   3.433 -0.8087 -1.2205  0.5412
 1769SOL    HW2 5628   0.953   5.424   3.343  0.9972  1.1671  1.0029
 1770SOL     OW 5629   1.253   0.094   4.763  0.0500  0.3314  0.3826
 1770SOL    HW1 5630   1.323   0.028   4.735  1.4419  1.8573  0.0926
 1770SOL    HW2 5631   1.279   0.135   4.851  0.1839  1.7821 -0.2980
 1771SOL     OW 5632   1.458   4.208   4.164 -0.0455  0.0821  0.6244
 1771SOL    HW1 5633   1.474   4.203   4.066  0.1061  1.7242  0.5403
 1771SOL    HW2 5634   1.522   4.147   4.212  0.2109 -0.3492 -0.2560
 1772SOL     OW 5635   0.562   5.305   0.088 -0.6305  0.2254 -0.1395
 1772SOL    HW1 5636   0.605   5.348   0.167 -2.3305  0.4414  0.7022
 1772SOL    HW2 5637   0.553   5.207   0.105  0.0360  0.0735 -0.5811
 1773SOL     OW 5638   0.062   3.948   4.563  0.5030  0.4799 -0.1764
 1773SOL    HW1 5639   0.116   4.030   4.579  0.0441  0.6596  0.5405
 1773SOL    HW2 5640  -0.035   3.972   4.557  0.5397  0.2531 -2.1839
 1774SOL     OW 5641   1.577   4.593   3.888  0.2047  0.0919  0.1601
 1774SOL    HW1 5642   1.624   4.680   3.906 -0.4248  0.3516  0.5783
 1774SOL    HW2 5643   1.501   4.608   3.825  0.5082 -0.2843 -0.3068
 1775SOL     OW 5644   0.950   2.339   5.263  0.2618  0.0775  0.1224
 1775SOL    HW1 5645   0.911   2.382   5.182  0.3898 -0.2777 -0.1265
 1775SOL    HW2 5646   0.980   2.410   5.327  0.5690  0.3603 -0.3307
 1776SOL     OW 5647   0.341   3.433   2.455 -0.5139  0.0073 -0.5594
 1776SOL    HW1 5648   0.344   3.337   2.483  0.9991 -0.3520 -1.7956
 1776SOL    HW2 5649   0.329   3.438   2.356  1.3582  1.0236 -0.7808
 1777SOL     OW 5650   1.360   4.100   4.846 -0.3262 -0.3059 -0.1837
 1777SOL    HW1 5651   1.452   4.061   4.847  1.0978  2.7770  1.0043
 1777SOL    HW2 5652   1.348   4.156   4.764  0.4650  2.5375  1.5191
 1778SOL     OW 5653   1.251   5.192   0.483 -0.0002  0.0315  0.1167
 1778SOL    HW1 5654   1.246   5.277   0.537 -1.0405  1.6991 -2.4374
 1778SOL    HW2 5655   1.346   5.176   0.456  0.0477  1.1154 -0.4264
 1779SOL     OW 5656   0.519   5.019   4.385  0.3157 -0.1498 -0.4120
 1779SOL    HW1 5657   0.593   4.954   4.402  0.5689  0.3067  0.2652
 1779SOL    HW2 5658   0.556   5.098   4.337  0.3057  0.1564  0.0812
 1780SOL     OW 5659   1.790   4.838   5.243 -0.1065  0.4131  0.5713
 1780SOL    HW1 5660   1.702   4.866   5.205  0.4383  0.5478 -0.6622
 1780SOL    HW2 5661   1.820   4.904   5.312 -0.9119  0.4196  0.9238
 1781SOL     OW 5662   1.226   4.651   5.586 -0.1493 -0.4199 -0.0134
 1781SOL    HW1 5663   1.200   4.590   5.510  0.8690 -0.3232 -0.4444
 1781SOL    HW2 5664   1.222   4.600   5.672  1.5106 -1.3634 -0.4593
 1782SOL     OW 5665   0.572   2.563   3.158 -0.1425 -0.0938  0.3475
 1782SOL    HW1 5666   0.567   2.528   3.251 -2.9390  0.9882  0.6905
 1782SOL    HW2 5667   0.490   2.536   3.108  0.1360  1.4444 -1.0103
 1783SOL     OW 5668   5.370   4.666   4.243 -0.3819  0.2966  0.5039
 1783SOL    HW1 5669   5.387   4.759   4.275 -0.1320 -0.1167  1.6261
 1783SOL    HW2 5670   5.458   4.620   4.228 -0.4852 -0.2789  1.5730
 1784SOL     OW 5671   5.520   3.129   3.570  0.0648  0.2233 -0.0859
 1784SOL    HW1 5672   5.509   3.059   3.499  1.4046 -1.5629  1.3716
 1784SOL    HW2 5673   5.602   3.183   3.551  1.9705 -1.9835  1.3629
 1785SOL     OW 5674   1.731   2.619   4.392  0.3177 -0.4357 -0.1123
 1785SOL    HW1 5675   1.656   2.574   4.441 -1.8888  2.2905 -0.7240
 1785SOL    HW2 5676   1.709   2.623   4.294  1.0339  0.7976 -0.2441
 1786SOL     OW 5677   0.379   5.228   4.796  0.2312  0.2352 -0.1177
 1786SOL    HW1 5678   0.447   5.177   4.849  0.0705 -0.3170 -0.4308
 1786SOL    HW2 5679   0.410   5.237   4.702  0.6033  1.3781  0.1041
 1787SOL     OW 5680  -0.008   5.210   1.083 -0.1587 -0.1642 -0.0940
 1787SOL    HW1 5681   0.034   5.145   1.146  0.2673 -0.4187 -0.6320
 1787SOL    HW2 5682   0.011   5.304   1.114  0.3541 -0.2826 -0.0476
 1788SOL     OW 5683   5.457   4.372   3.881  0.0958 -0.6861  0.1301
 1788SOL    HW1 5684   5.405   4.361   3.965  0.1514 -0.9548  0.1324
 1788SOL    HW2 5685   5.525   4.444   3.892  0.6385 -1.2554  0.5858
 1789SOL     OW 5686   0.678   0.446   3.787 -0.0042 -0.2322 -0.2561
 1789SOL    HW1 5687   0.717   0.529   3.826  0.2021 -0.8627  0.9209
 1789SOL    HW2 5688   0.710   0.436   3.693 -0.6234  1.3899 -0.6617
 1790SOL     OW 5689   0.701   3.641   3.801  0.3537 -0.4312  0.2373
 1790SOL    HW1 5690   0.793   3.654   3.764  0.2043 -1.4362 -0.5266
 1790SOL    HW2 5691   0.661   3.730   3.822  0.7032  0.1582 -1.4358
 1791SOL     OW 5692   0.185   3.288   5.024  0.2170  0.0605 -0.1622
 1791SOL    HW1 5693   0.195   3.374   4.974  0.8888  1.4357  2.1858
 1791SOL    HW2 5694   0.217   3.300   5.118 -1.3375 -2.2880  0.7566
 1792SOL     OW 5695   0.047   2.491   4.179 -0.0647  0.7199  0.1272
 1792SOL    HW1 5696   0.023   2.514   4.085  0.9364  0.1478 -0.2868
 1792SOL    HW2 5697   0.024   2.395   4.197 -2.5769  1.4641  1.2807
 1793SOL     OW 5698   1.822   4.326   4.765  0.9100  1.0015  0.8599
 1793SOL    HW1 5699   1.819   4.238   4.813  1.3967  1.0796  1.0369
 1793SOL    HW2 5700   1.781   4.315   4.674  0.4183  0.7403  1.1098
 1794SOL     OW 5701   1.594   3.973   4.827 -0.2654 -0.8690  0.1053
 1794SOL    HW1 5702   1.677   4.020   4.858 -0.0242 -0.0122 -1.7077
 1794SOL    HW2 5703   1.619   3.886   4.784 -0.1385 -0.0687 -1.5167
 1795SOL     OW 5704   1.991   5.258   3.668  0.1924  0.4279  0.6910
 1795SOL    HW1 5705   2.064   5.212   3.617 -1.1764 -1.2513  0.1333
 1795SOL    HW2 5706   2.030   5.323   3.733  2.1320 -0.0369  0.0370
 1796SOL     OW 5707   1.887   5.000   4.853  0.3928  0.3007  0.0338
 1796SOL    HW1 5708   1.808   4.941   4.870 -0.1456  0.8341 -0.5997
 1796SOL    HW2 5709   1.971   4.946   4.861 -0.1549 -1.3099 -3.3818
 1797SOL     OW 5710   0.699   5.051   3.979 -0.5411 -0.4229 -0.4032
 1797SOL    HW1 5711   0.725   5.142   4.013 -1.6781  0.2195 -1.1742
 1797SOL    HW2 5712   0.780   4.993   3.973  0.0606  0.2315  0.9993
 1798SOL     OW 5713   5.472   4.902   3.977 -0.0494  0.2198 -0.0471
 1798SOL    HW1 5714   5.531   4.946   4.044 -0.5192 -0.2226  0.6706
 1798SOL    HW2 5715   5.498   4.806   3.967  0.2921  0.3863 -0.8205
 1799SOL     OW 5716   2.468   5.484   5.038 -0.4584  0.4282  0.2507
 1799SOL    HW1 5717   2.486   5.411   4.973 -0.9626  0.1093  0.4583
 1799SOL    HW2 5718   2.488   5.572   4.996 -1.9858  0.3124 -0.7838
 1800SOL     OW 5719   0.781   5.168   3.439  0.2616 -0.2481 -0.4228
 1800SOL    HW1 5720   0.770   5.093   3.373  0.1402 -0.7462  0.1502
 1800SOL    HW2 5721   0.779   5.256   3.391 -2.4023 -0.4634 -0.8388
 1801SOL     OW 5722   5.215   2.415   4.280  0.0318  0.1494  0.3099
 1801SOL    HW1 5723   5.213   2.344   4.209 -1.0660  1.3361 -0.8890
 1801SOL    HW2 5724   5.140   2.479   4.265  1.6525  2.2203  0.6818
 1802SOL     OW 5725   2.115   0.974   4.452  0.0220 -0.6711  0.4672
 1802SOL    HW1 5726   2.183   0.975   4.525  1.2351 -1.1101 -0.6202
 1802SOL    HW2 5727   2.051   0.899   4.466 -0.4802 -0.0408  1.6918
 1803SOL     OW 5728   5.253   4.873   4.800  0.4836 -0.3535 -0.4255
 1803SOL    HW1 5729   5.217   4.782   4.778  0.7901 -0.6766  0.3813
 1803SOL    HW2 5730   5.181   4.928   4.843  0.7079 -0.7322  0.4615
 1804SOL     OW 5731   2.643   0.149   5.557  0.2702  0.1022 -0.3728
 1804SOL    HW1 5732   2.687   0.231   5.594 -0.8800 -0.3210  2.0675
 1804SOL    HW2 5733   2.600   0.172   5.469  0.3043  2.0067  0.0680
 1805SOL     OW 5734   0.704   5.428   4.718  0.4922 -0.3596 -0.0845
 1805SOL    HW1 5735   0.623   5.385   4.678  0.3196  0.2734 -0.4153
 1805SOL    HW2 5736   0.677   5.494   4.787  0.7949 -1.5963  1.2727
 1806SOL     OW 5737   2.459   4.828   3.963  0.4590 -0.5620 -0.0793
 1806SOL    HW1 5738   2.535   4.769   3.937 -0.0631 -3.2220  3.6419
 1806SOL    HW2 5739   2.439   4.816   4.060 -3.3444  1.7059 -0.3745
 1807SOL     OW 5740   1.925   3.143   4.783  0.1181 -0.0276 -0.2466
 1807SOL    HW1 5741   2.001   3.209   4.782 -0.1164  0.2451 -0.1374
 1807SOL    HW2 5742   1.904   3.116   4.690  0.2718 -0.0122 -0.2872
 1808SOL     OW 5743   5.033   4.925   0.433  0.2512 -0.1708  0.1071
 1808SOL    HW1 5744   4.945   4.913   0.387 -0.0218  1.9915 -0.0759
 1808SOL    HW2 5745   5.107   4.918   0.366  0.0229  0.4467 -0.2217
 1809SOL     OW 5746   1.297   5.514   4.457 -0.0521 -0.0747  0.2503
 1809SOL    HW1 5747   1.235   5.588   4.430  0.7787  1.1669  1.5838
 1809SOL    HW2 5748   1.244   5.437   4.492 -0.9013  0.1206 -0.5443
 1810SOL     OW 5749   0.282   4.589   0.304 -0.2188  0.1732  0.0810
 1810SOL    HW1 5750   0.233   4.601   0.218 -0.6625 -0.8197  0.1885
 1810SOL    HW2 5751   0.271   4.671   0.360  0.2127  0.9019 -0.8619
 1811SOL     OW 5752   1.025   4.570   0.632  0.7870  0.4031 -0.0485
 1811SOL    HW1 5753   1.116   4.609   0.618  0.2532  2.2275  1.2033
 1811SOL    HW2 5754   0.968   4.635   0.683 -1.3661 -0.5145 -1.1434
 1812SOL     OW 5755   0.206   4.821   4.783  0.1896  0.1442 -0.3836
 1812SOL    HW1 5756   0.127   4.866   4.742  0.0243 -0.3547 -0.6218
 1812SOL    HW2 5757   0.290   4.853   4.739  0.0136 -0.3754 -1.1102
 1813SOL     OW 5758   0.742   4.033   4.438 -0.5180  0.3778 -0.1299
 1813SOL    HW1 5759   0.785   4.015   4.349 -1.1200  0.3265 -0.4151
 1813SOL    HW2 5760   0.800   3.998   4.511  0.5973  1.5235 -0.4306
 1814SOL     OW 5761   1.884   4.613   4.729 -0.3540  0.4375 -0.7362
 1814SOL    HW1 5762   1.845   4.521   4.732  1.6438 -0.4270  1.9436
 1814SOL    HW2 5763   1.950   4.618   4.654  0.0945 -0.5519 -0.4140
 1815SOL     OW 5764   5.242   4.422   3.710  0.2993 -0.1905 -0.3464
 1815SOL    HW1 5765   5.164   4.477   3.740 -0.9230 -0.0982 -3.3453
 1815SOL    HW2 5766   5.315   4.429   3.778 -1.5795  1.1892  1.7005
 1816SOL     OW 5767   1.916   4.976   5.434 -0.5638  0.1894 -0.0842
 1816SOL    HW1 5768   1.981   4.958   5.508 -1.1586  1.0432  0.6541
 1816SOL    HW2 5769   1.919   5.073   5.410 -1.1263  0.1113 -0.4781
 1817SOL     OW 5770   2.801   5.069   4.459 -0.3238 -0.0430  0.2084
 1817SOL    HW1 5771   2.862   5.099   4.533  0.2736  1.2504 -0.7754
 1817SOL    HW2 5772   2.730   5.138   4.444 -0.7941 -0.5746 -0.0524
 1818SOL     OW 5773   0.370   0.243   4.053 -0.0376  0.1010 -0.2320
 1818SOL    HW1 5774   0.371   0.148   4.083 -0.2777  0.1346 -0.1220
 1818SOL    HW2 5775   0.365   0.303   4.132 -3.7591  0.1595 -0.3759
 1819SOL     OW 5776   5.580   5.117   4.630  0.1150 -0.0393  0.5077
 1819SOL    HW1 5777   5.503   5.180   4.642  0.6856  1.2129 -1.8072
 1819SOL    HW2 5778   5.548   5.023   4.645 -2.0486  0.3840 -0.9679
 1820SOL     OW 5779   0.680   4.495   4.731 -0.0512 -0.2887  0.0437
 1820SOL    HW1 5780   0.708   4.568   4.668  1.2499 -0.8777 -0.0755
 1820SOL    HW2 5781   0.581   4.503   4.748  0.2505  2.2638  1.0328
 1821SOL     OW 5782   1.876   4.379   0.300  0.0602 -0.2803  0.6172
 1821SOL    HW1 5783   1.876   4.414   0.206 -0.4481 -1.5589  0.1172
 1821SOL    HW2 5784   1.969   4.375   0.334  0.2772 -0.0696  0.0650
 1822SOL     OW 5785   5.463   3.392   1.365  0.6121 -0.6568  0.3250
 1822SOL    HW1 5786   5.430   3.468   1.308  0.8135 -0.3581  0.6053
 1822SOL    HW2 5787   5.385   3.347   1.407  0.3896 -1.4311 -0.8715
 1823SOL     OW 5788   4.658   4.695   4.344  0.5602 -0.7981  0.2055
 1823SOL    HW1 5789   4.730   4.765   4.340 -1.1339  0.9430 -1.5409
 1823SOL    HW2 5790   4.689   4.614   4.294  1.1780  0.0907 -0.9157
 1824SOL     OW 5791   0.466   5.052   0.204 -0.4209  0.4427  0.4363
 1824SOL    HW1 5792   0.493   5.000   0.124 -1.6724 -1.0476  0.9284
 1824SOL    HW2 5793   0.367   5.068   0.202 -0.1299  2.6484  0.4322
 1825SOL     OW 5794   1.203   4.036   3.500 -0.5711 -0.1806 -0.4995
 1825SOL    HW1 5795   1.299   4.035   3.472 -0.1998 -0.3588  0.7287
 1825SOL    HW2 5796   1.188   4.112   3.564 -0.6772 -1.5424  1.1725
 1826SOL     OW 5797   0.782   3.347   4.115 -0.3588 -0.2962 -0.4970
 1826SOL    HW1 5798   0.814   3.442   4.124  0.3550 -0.5923  0.1799
 1826SOL    HW2 5799   0.783   3.303   4.204 -1.3072 -0.7583 -0.7039
 1827SOL     OW 5800   0.581   3.666   4.493 -0.2874 -0.2527  0.3648
 1827SOL    HW1 5801   0.519   3.719   4.551  1.5386  1.2292  1.0955
 1827SOL    HW2 5802   0.610   3.723   4.416  2.8475  0.4891  1.9393
 1828SOL     OW 5803   0.523   3.217   4.267 -0.2867 -0.2666 -0.3552
 1828SOL    HW1 5804   0.498   3.310   4.296  0.1706  0.1841 -1.3557
 1828SOL    HW2 5805   0.488   3.201   4.175 -0.5678 -1.1881 -0.0999
 1829SOL     OW 5806   1.955   5.233   1.233 -0.1465 -0.0312 -0.0816
 1829SOL    HW1 5807   1.973   5.174   1.155  1.0936 -1.2173  1.0456
 1829SOL    HW2 5808   2.035   5.290   1.251  0.2202 -0.9233  1.2683
 1830SOL     OW 5809   0.071   2.765   4.809  0.1128  0.1121 -0.6733
 1830SOL    HW1 5810   0.160   2.733   4.842 -0.6345 -0.2926  1.0994
 1830SOL    HW2 5811   0.064   2.864   4.824 -0.2549 -0.0811  0.5777
 1831SOL     OW 5812   1.813   4.288   2.471 -0.5865  0.4210  0.1795
 1831SOL    HW1 5813   1.823   4.307   2.374 -0.0892  0.4695  0.2355
 1831SOL    HW2 5814   1.755   4.207   2.484 -0.1517  0.0424 -0.1887
 1832SOL     OW 5815   0.473   3.423   5.080 -0.4113 -0.2065  0.1140
 1832SOL    HW1 5816   0.436   3.441   4.989  0.4897 -0.5891 -0.3465
 1832SOL    HW2 5817   0.403   3.441   5.149 -2.5748 -3.8755 -0.8407
 1833SOL     OW 5818   1.557   5.166   5.000  0.4226  0.0099  0.4762
 1833SOL    HW1 5819   1.585   5.197   4.909 -1.5552  0.4074 -0.0472
 1833SOL    HW2 5820   1.465   5.200   5.020  0.5986 -0.5318  2.4129
 1834SOL     OW 5821   2.577   0.016   3.866 -0.2536  0.4113  0.0053
 1834SOL    HW1 5822   2.529   0.092   3.909 -0.9055  0.9091 -1.5151
 1834SOL    HW2 5823   2.604  -0.051   3.935  0.9562  2.3354  1.4662
 1835SOL     OW 5824   0.195   4.684   5.018  0.1055 -0.7835 -0.2596
 1835SOL    HW1 5825   0.193   4.743   4.937 -1.9775 -0.1815  0.1832
 1835SOL    HW2 5826   0.208   4.740   5.100 -2.9366 -0.7014  0.2699
 1836SOL     OW 5827   2.615   3.627   2.422  0.1982  0.2692 -0.3008
 1836SOL    HW1 5828   2.569   3.681   2.492  0.7331 -1.6865  1.6445
 1836SOL    HW2 5829   2.714   3.645   2.426  0.1033  1.2786 -1.6317
 1837SOL     OW 5830   2.138   4.274   3.568  0.2392  0.1974  0.0700
 1837SOL    HW1 5831   2.063   4.328   3.606 -0.0479  0.5509 -0.9748
 1837SOL    HW2 5832   2.188   4.229   3.642 -0.0157  1.2467  0.8947
 1838SOL     OW 5833   1.823   0.113   5.264 -0.4974 -0.3963 -0.2730
 1838SOL    HW1 5834   1.910   0.072   5.290 -0.4081  0.5059  0.9280
 1838SOL    HW2 5835   1.833   0.162   5.178  0.0444 -0.7192 -0.3983
 1839SOL     OW 5836   0.553   4.623   5.289 -0.5887  0.1209 -0.5107
 1839SOL    HW1 5837   0.640   4.577   5.268 -0.7364 -0.8959  0.9553
 1839SOL    HW2 5838   0.557   4.717   5.256  1.3875  0.3366  0.1580
 1840SOL     OW 5839   0.704   3.686   5.123  0.5321  0.4685  0.4188
 1840SOL    HW1 5840   0.630   3.749   5.144 -0.4424 -1.3051  2.6626
 1840SOL    HW2 5841   0.785   3.738   5.095 -0.5440  2.6412  1.1541
 1841SOL     OW 5842   0.379   4.540   4.795  0.0375  0.1439 -0.1721
 1841SOL    HW1 5843   0.358   4.570   4.702  0.9193  0.3144 -0.3266
 1841SOL    HW2 5844   0.343   4.605   4.861 -1.6049 -0.5611 -0.3340
 1842SOL     OW 5845   0.651   3.528   5.387  0.6113 -0.0428 -0.1284
 1842SOL    HW1 5846   0.663   3.437   5.348  1.2665 -0.6186  1.3116
 1842SOL    HW2 5847   0.673   3.597   5.319  1.2468 -0.9864 -0.9069
 1843SOL     OW 5848   0.056   4.555   3.980 -0.0266 -0.0993 -0.2109
 1843SOL    HW1 5849   0.136   4.598   3.939  0.7646  1.0048  2.3354
 1843SOL    HW2 5850   0.070   4.544   4.078 -3.8882  2.3493  0.8452
 1844SOL     OW 5851   4.433   5.437   4.905 -0.4875 -0.6641 -0.0153
 1844SOL    HW1 5852   4.432   5.372   4.981  1.8469 -0.1717  0.5143
 1844SOL    HW2 5853   4.453   5.390   4.820 -0.4707 -0.8656  0.1008
 1845SOL     OW 5854   2.272   4.672   5.102 -0.2462  0.6007 -0.5683
 1845SOL    HW1 5855   2.276   4.754   5.159 -1.1136 -0.9561  1.8826
 1845SOL    HW2 5856   2.340   4.607   5.132 -1.4859 -0.7197 -0.5207
 1846SOL     OW 5857   0.389   2.772   4.560 -0.1358 -0.1511 -0.4834
 1846SOL    HW1 5858   0.375   2.776   4.659  0.4690  2.3394 -0.4368
 1846SOL    HW2 5859   0.310   2.729   4.517 -0.8574 -0.3587  0.9974
 1847SOL     OW 5860   5.527   4.630   4.952  0.0069  0.0128 -0.2587
 1847SOL    HW1 5861   5.501   4.613   4.857 -1.8084  0.9061  0.0445
 1847SOL    HW2 5862   5.627   4.623   4.961  0.2468  0.3307 -2.3066
 1848SOL     OW 5863   0.643   4.000   0.052  0.5901 -0.1969  0.2589
 1848SOL    HW1 5864   0.711   3.936   0.017  0.1532 -0.9992  0.8624
 1848SOL    HW2 5865   0.634   3.989   0.151  0.6678  0.9518  0.4066
 1849SOL     OW 5866   1.032   3.854   0.168  0.2286  0.1388  0.3462
 1849SOL    HW1 5867   1.007   3.944   0.203  1.8082  0.5504  0.4947
 1849SOL    HW2 5868   1.038   3.789   0.244  1.2114  0.4337  0.5247
 1850SOL     OW 5869   0.707   3.054   4.388 -0.1416 -0.0279 -0.5946
 1850SOL    HW1 5870   0.660   2.966   4.396  0.8144 -0.4205  1.1571
 1850SOL    HW2 5871   0.643   3.123   4.355 -1.4020 -0.9780 -0.2225
 1851SOL     OW 5872   1.725   4.774   4.878 -0.3664 -0.6760  0.4341
 1851SOL    HW1 5873   1.637   4.733   4.856  0.1211 -0.7096 -1.6565
 1851SOL    HW2 5874   1.794   4.740   4.814  0.5049  1.7033  0.0245
 1852SOL     OW 5875   0.180   0.419   5.137  0.7093 -0.5301 -0.2299
 1852SOL    HW1 5876   0.113   0.444   5.207 -0.2036  0.2489 -1.3516
 1852SOL    HW2 5877   0.257   0.373   5.181 -0.1879 -0.7578  1.1890
 1853SOL     OW 5878   0.280   3.920   5.044  0.0555 -0.2323  0.0176
 1853SOL    HW1 5879   0.196   3.911   5.097 -0.6987 -1.5668 -1.3329
 1853SOL    HW2 5880   0.348   3.854   5.079  0.4472  0.5873  0.8637
 1854SOL     OW 5881   1.177   5.490   5.450  0.2311  0.4522 -0.2538
 1854SOL    HW1 5882   1.211   5.467   5.541 -0.8649 -0.7472 -0.1249
 1854SOL    HW2 5883   1.152   5.587   5.447  2.3053  1.0337  0.0494
 1855SOL     OW 5884   0.453   3.455   4.336  0.6532 -0.2274 -0.6031
 1855SOL    HW1 5885   0.412   3.516   4.267  0.2639  0.1620 -0.0379
 1855SOL    HW2 5886   0.476   3.508   4.417  0.1676 -0.8540 -0.0432
 1856SOL     OW 5887   5.364   4.548   0.618  0.7272  0.5568  0.1079
 1856SOL    HW1 5888   5.434   4.562   0.687 -0.2216  1.6437  0.8887
 1856SOL    HW2 5889   5.319   4.635   0.598 -1.6652 -0.3771  1.0193
 1857SOL     OW 5890   1.182   4.521   5.313 -0.0488  0.3368  0.1076
 1857SOL    HW1 5891   1.199   4.574   5.230 -0.7772  0.4130 -0.0000
 1857SOL    HW2 5892   1.092   4.479   5.307 -0.9642  1.9732  1.7250
 1858SOL     OW 5893   0.346   5.325   3.929 -0.1876  0.0924 -0.1102
 1858SOL    HW1 5894   0.423   5.339   3.992  0.4309 -0.8220 -0.6496
 1858SOL    HW2 5895   0.260   5.329   3.981  0.3045 -0.5767  0.7916
 1859SOL     OW 5896   2.063   0.486   3.535  0.2562 -0.3432 -0.0352
 1859SOL    HW1 5897   2.122   0.434   3.597  0.7905 -0.1188 -0.3610
 1859SOL    HW2 5898   2.065   0.583   3.559  0.3265 -0.2800 -0.2917
 1860SOL     OW 5899   1.515   5.258   4.738 -0.1527  0.0146 -0.2659
 1860SOL    HW1 5900   1.446   5.186   4.748 -0.5721  0.6872  2.3797
 1860SOL    HW2 5901   1.470   5.345   4.715  0.0522  0.0465 -0.5622
 1861SOL     OW 5902   1.267   3.852   4.161 -0.3224 -0.8863 -0.2913
 1861SOL    HW1 5903   1.272   3.926   4.229  1.2382 -2.8719  1.9231
 1861SOL    HW2 5904   1.203   3.782   4.193  0.6318 -1.9863 -0.7238
 1862SOL     OW 5905   0.615   0.072   5.560  0.0611 -0.0268 -0.1172
 1862SOL    HW1 5906   0.549   0.003   5.588 -0.5340  1.2500  1.8736
 1862SOL    HW2 5907   0.684   0.031   5.501 -1.2110 -1.9009 -0.3782
 1863SOL     OW 5908   2.284   4.417   5.419  0.1526 -0.2663  0.1859
 1863SOL    HW1 5909   2.298   4.333   5.471  1.2989  0.2164  0.6922
 1863SOL    HW2 5910   2.191   4.418   5.382 -1.2409 -0.0735  3.2818
 1864SOL     OW 5911   0.819   4.796   3.586  0.2717  0.0918 -0.2286
 1864SOL    HW1 5912   0.778   4.887   3.593 -0.9661 -0.5067  0.8420
 1864SOL    HW2 5913   0.873   4.778   3.668  1.2398  0.1853 -0.8354
 1865SOL     OW 5914   5.334   5.502   5.341 -0.3929  0.3060  0.6131
 1865SOL    HW1 5915   5.361   5.598   5.337  1.0857 -0.1140 -0.9737
 1865SOL    HW2 5916   5.415   5.445   5.355 -1.1963 -0.7447  1.1554
 1866SOL     OW 5917   1.422   4.403   4.793  0.1985  0.0573 -0.3299
 1866SOL    HW1 5918   1.520   4.384   4.785  0.2485  0.0002  0.3636
 1866SOL    HW2 5919   1.374   4.362   4.715  0.6848 -0.1837 -0.5089
 1867SOL     OW 5920   0.725   4.969   5.470 -0.1718  0.0149 -0.4151
 1867SOL    HW1 5921   0.669   4.918   5.536  0.7135  1.1488  1.2743
 1867SOL    HW2 5922   0.774   5.041   5.518  2.9154 -1.0469 -1.7628
 1868SOL     OW 5923   5.345   4.833   3.490 -0.6564 -0.0185  0.4236
 1868SOL    HW1 5924   5.301   4.880   3.414 -0.3924 -1.1020 -0.4224
 1868SOL    HW2 5925   5.444   4.846   3.483 -0.5897 -0.6053  0.2382
 1869SOL     OW 5926   1.226   0.700   4.273  0.4063  0.3996  0.7386
 1869SOL    HW1 5927   1.251   0.763   4.347 -0.3012  1.4818  0.0883
 1869SOL    HW2 5928   1.127   0.697   4.264  0.4966  1.2293 -0.9381
 1870SOL     OW 5929   1.898   2.629   3.816  0.1056 -0.1309  0.1496
 1870SOL    HW1 5930   1.808   2.663   3.791  0.6913  1.9178  0.6249
 1870SOL    HW2 5931   1.892   2.532   3.838 -2.3711  0.3233  1.9802
 1871SOL     OW 5932   0.299   2.746   4.251 -0.5933  0.3741 -0.0080
 1871SOL    HW1 5933   0.331   2.654   4.230  0.4782  1.0165 -1.2978
 1871SOL    HW2 5934   0.200   2.750   4.239 -1.1977 -1.3979  3.1482
 1872SOL     OW 5935   5.336   4.942   2.765  0.3177  0.4536 -0.0004
 1872SOL    HW1 5936   5.252   4.967   2.717 -0.9651 -1.8727  0.8669
 1872SOL    HW2 5937   5.405   4.914   2.698 -0.4544  0.0309 -0.6513
 1873SOL     OW 5938   1.022   4.447   4.904  0.3512  0.1884 -0.1453
 1873SOL    HW1 5939   0.923   4.460   4.910  0.3084 -0.4959  0.8527
 1873SOL    HW2 5940   1.044   4.351   4.919  1.0975  0.1247 -1.5092
 1874SOL     OW 5941   2.571   4.443   4.836  0.0301  1.0867 -0.6028
 1874SOL    HW1 5942   2.624   4.413   4.757  0.6364  1.0041 -0.1720
 1874SOL    HW2 5943   2.610   4.528   4.872 -2.1058  2.9111 -2.2708
 1875SOL     OW 5944   1.803   0.150   3.537 -0.0590 -0.8967  0.0409
 1875SOL    HW1 5945   1.724   0.104   3.497 -0.3795 -0.3548  0.0423
 1875SOL    HW2 5946   1.773   0.215   3.607  0.2282  0.6197 -1.1897
 1876SOL     OW 5947   0.704   4.773   4.902 -0.5412  0.5544 -0.2271
 1876SOL    HW1 5948   0.669   4.695   4.851 -0.9080 -0.1968  1.1106
 1876SOL    HW2 5949   0.803   4.779   4.892 -0.2406 -1.2841  1.1737
 1877SOL     OW 5950   0.983   5.188   4.331 -0.4372 -0.0695 -0.1726
 1877SOL    HW1 5951   1.052   5.221   4.396 -1.8979 -1.5489  2.2851
 1877SOL    HW2 5952   1.009   5.098   4.298 -1.5669 -1.1114  1.5864
 1878SOL     OW 5953   1.830   4.108   4.910  0.2505  0.4845  0.2694
 1878SOL    HW1 5954   1.836   4.127   5.007  2.8752 -1.9207  0.7137
 1878SOL    HW2 5955   1.916   4.067   4.878 -1.2783 -0.8292 -2.5795
 1879SOL     OW 5956   2.684   3.749   4.409  0.3836 -0.2009  0.2044
 1879SOL    HW1 5957   2.670   3.744   4.311 -1.0108  0.6187  0.3342
 1879SOL    HW2 5958   2.727   3.665   4.441  0.7522 -0.5180 -1.0818
 1880SOL     OW 5959   5.566   5.447   4.202  0.7947 -0.3181 -0.3776
 1880SOL    HW1 5960   5.539   5.434   4.298  0.8574  1.2542 -0.1302
 1880SOL    HW2 5961   5.489   5.482   4.149  1.4984  1.4674 -0.2794
 1881SOL     OW 5962   0.966   4.934   5.153 -0.2956  0.3777  1.1143
 1881SOL    HW1 5963   0.920   4.852   5.188 -2.3219  1.2344  0.6183
 1881SOL    HW2 5964   0.899   5.007   5.142  1.1219  1.5437 -0.2081
 1882SOL     OW 5965   0.261   4.717   4.087  0.6005 -0.0650  0.1461
 1882SOL    HW1 5966   0.248   4.772   4.004  1.8175  0.4586  0.2790
 1882SOL    HW2 5967   0.179   4.723   4.144  0.8891  2.0834  0.4112
 1883SOL     OW 5968   0.043   5.428   1.250  0.4665  0.1544  0.0565
 1883SOL    HW1 5969  -0.016   5.486   1.306 -0.1732 -0.6207  0.1855
 1883SOL    HW2 5970   0.121   5.483   1.218  0.4416  0.8049  1.0615
 1884SOL     OW 5971   0.622   2.992   4.873 -0.3444 -0.4119 -0.2237
 1884SOL    HW1 5972   0.690   2.986   4.801 -1.1440 -1.4757 -0.9188
 1884SOL    HW2 5973   0.545   3.049   4.842 -1.1802 -1.7259 -0.6638
 1885SOL     OW 5974   1.188   3.477   3.380  0.5944  0.0393  0.3328
 1885SOL    HW1 5975   1.137   3.563   3.384  1.5679  1.0549 -3.9021
 1885SOL    HW2 5976   1.131   3.407   3.336  0.8991 -0.5327  0.8366
 1886SOL     OW 5977   1.527   5.187   0.394  0.0139  0.1115  0.0458
 1886SOL    HW1 5978   1.591   5.163   0.321 -1.3589  1.1032 -1.5640
 1886SOL    HW2 5979   1.527   5.286   0.407  1.2543 -0.1253  2.4412
 1887SOL     OW 5980   1.700   3.486   3.536 -0.1620  0.2127 -0.1427
 1887SOL    HW1 5981   1.749   3.572   3.521  0.0560  0.1530  0.2152
 1887SOL    HW2 5982   1.638   3.469   3.459  0.2063  0.4030 -0.4839
 1888SOL     OW 5983   1.650   4.323   3.880  0.0241 -0.1403  0.1941
 1888SOL    HW1 5984   1.627   4.420   3.890 -1.6274 -0.7366  5.0770
 1888SOL    HW2 5985   1.749   4.311   3.886  0.2780  1.1905 -0.7770
 1889SOL     OW 5986   0.466   4.664   2.466 -0.4040  0.3120 -0.2480
 1889SOL    HW1 5987   0.416   4.723   2.402 -1.9102 -0.7616 -0.0985
 1889SOL    HW2 5988   0.402   4.620   2.528  0.9507  0.5770  1.3980
 1890SOL     OW 5989   2.115   0.968   0.545  0.5935  0.6371  0.3602
 1890SOL    HW1 5990   2.172   0.920   0.611  1.0807  1.5638  0.6255
 1890SOL    HW2 5991   2.141   0.940   0.453  2.4438  2.0429  0.4031
 1891SOL     OW 5992   0.608   3.975   0.329 -0.3749 -0.1901 -0.2603
 1891SOL    HW1 5993   0.639   3.917   0.405 -0.8926 -0.2472 -0.0942
 1891SOL    HW2 5994   0.652   4.065   0.336  0.8385 -0.7059 -0.8074
 1892SOL     OW 5995   0.235   5.584   0.506 -0.1282  0.5532 -0.1340
 1892SOL    HW1 5996   0.280   5.524   0.573 -1.2556  1.7311  1.8003
 1892SOL    HW2 5997   0.291   5.665   0.491  0.6217 -0.1888 -1.4803
 1893SOL     OW 5998   5.299   0.275   4.547  0.4246 -0.0695  0.0914
 1893SOL    HW1 5999   5.251   0.363   4.551  0.1680 -0.1899 -0.2646
 1893SOL    HW2 6000   5.233   0.202   4.530  0.8062 -0.1496 -1.1905
 1894SOL     OW 6001   2.181   4.848   4.919  0.0785  0.0362 -0.3463
 1894SOL    HW1 6002   2.203   4.772   4.980 -0.1438  0.1652 -0.0996
 1894SOL    HW2 6003   2.254   4.916   4.922 -0.3820  0.5053  0.5335
 1895SOL     OW 6004   2.922   3.868   4.173  0.5538 -0.3534 -0.7689
 1895SOL    HW1 6005   2.824   3.849   4.174  0.3095  0.7270  1.2166
 1895SOL    HW2 6006   2.960   3.852   4.264  1.9715  0.4726 -1.1824
 1896SOL     OW 6007   5.145   4.645   4.763  0.0067 -0.1900  0.3713
 1896SOL    HW1 6008   5.198   4.601   4.690  1.4753  0.5272  0.9760
 1896SOL    HW2 6009   5.054   4.604   4.766 -0.1707 -0.1328 -1.9818
 1897SOL     OW 6010   1.633   4.560   5.304 -0.0727 -0.0258  0.3255
 1897SOL    HW1 6011   1.555   4.593   5.250 -0.1238 -1.1467 -0.3138
 1897SOL    HW2 6012   1.618   4.464   5.329  1.2852 -0.3923 -0.1809
 1898SOL     OW 6013   2.663   4.152   5.132  0.3735  0.2239 -0.6361
 1898SOL    HW1 6014   2.762   4.167   5.124  0.7110 -0.3910  1.5083
 1898SOL    HW2 6015   2.630   4.195   5.216 -0.2110 -3.3202  1.1885
 1899SOL     OW 6016   0.850   4.951   4.652 -0.0526 -0.1760 -0.4812
 1899SOL    HW1 6017   0.838   5.047   4.679 -2.1577 -0.3791 -0.4980
 1899SOL    HW2 6018   0.878   4.897   4.731  1.6332  0.5043 -0.5799
 1900SOL     OW 6019   0.692   4.544   5.567 -0.5846 -0.3040 -0.6717
 1900SOL    HW1 6020   0.666   4.589   5.653  1.2502  1.3676 -0.9087
 1900SOL    HW2 6021   0.652   4.593   5.490  0.5886  0.3760 -0.8825
 1901SOL     OW 6022   2.012   5.242   4.331  0.7709 -0.0720 -0.3365
 1901SOL    HW1 6023   2.010   5.322   4.272 -1.1018 -0.6965 -1.2307
 1901SOL    HW2 6024   1.972   5.164   4.282 -0.1746 -0.8014  1.4768
 1902SOL     OW 6025   0.676   0.036   3.879  0.2096 -0.2241 -0.1163
 1902SOL    HW1 6026   0.759   0.064   3.927  1.0774  0.9139 -2.1771
 1902SOL    HW2 6027   0.681  -0.061   3.856  0.5141 -0.3829  0.5828
 1903SOL     OW 6028   2.294   5.218   3.582  0.5718  0.0348  0.0228
 1903SOL    HW1 6029   2.372   5.271   3.549 -1.3239  2.7738 -0.4647
 1903SOL    HW2 6030   2.249   5.172   3.506  0.5789  0.0948 -0.0176
 1904SOL     OW 6031   0.208   5.146   5.462  0.6147  0.5098  0.2959
 1904SOL    HW1 6032   0.286   5.167   5.404 -0.4127 -0.9478 -1.7441
 1904SOL    HW2 6033   0.131   5.116   5.405 -0.6003 -0.6267  2.3991
 1905SOL     OW 6034   5.298   4.082   3.113  0.3798  0.1286 -0.3566
 1905SOL    HW1 6035   5.345   4.159   3.156  1.4916 -0.9985  0.5298
 1905SOL    HW2 6036   5.358   4.042   3.043 -0.4762  0.4802 -1.3222
 1906SOL     OW 6037   5.294   5.140   4.120 -0.1570 -0.3882  0.2303
 1906SOL    HW1 6038   5.345   5.069   4.073  0.4165 -0.6828  1.2541
 1906SOL    HW2 6039   5.340   5.162   4.207 -1.3045 -0.0588  0.7754
 1907SOL     OW 6040   2.057   5.563   5.346  0.0904  0.0108 -0.0981
 1907SOL    HW1 6041   2.056   5.491   5.415 -0.2152  0.6242  0.5573
 1907SOL    HW2 6042   2.121   5.539   5.273  0.3316 -0.7035  0.3394
 1908SOL     OW 6043   0.066   2.799   3.428  0.5040  0.2850  1.1484
 1908SOL    HW1 6044   0.029   2.772   3.517 -0.9541 -0.4338  0.3697
 1908SOL    HW2 6045   0.023   2.884   3.399  0.3971  0.1103  0.7925
 1909SOL     OW 6046   1.503   5.430   4.276  0.5479 -0.7507  0.7688
 1909SOL    HW1 6047   1.426   5.458   4.333 -0.7541 -1.7417 -0.4317
 1909SOL    HW2 6048   1.580   5.493   4.290 -0.5608  0.4232  1.7983
 1910SOL     OW 6049   0.222   5.583   4.155 -0.1634 -0.3364 -0.0932
 1910SOL    HW1 6050   0.143   5.522   4.159  0.3019 -0.9597 -0.2598
 1910SOL    HW2 6051   0.264   5.577   4.064 -0.2396  0.3980 -0.1829
 1911SOL     OW 6052   1.094   4.553   4.685  0.0991  0.2043 -0.2177
 1911SOL    HW1 6053   1.068   4.512   4.773 -2.2742  2.5151  0.2699
 1911SOL    HW2 6054   1.067   4.491   4.611 -0.0187 -0.7223  0.5719
 1912SOL     OW 6055   0.693   4.135   5.194  0.7849  0.3628 -0.2062
 1912SOL    HW1 6056   0.715   4.214   5.137  1.0851 -1.1857 -2.3458
 1912SOL    HW2 6057   0.599   4.105   5.175  1.0909 -0.5309 -0.3420
 1913SOL     OW 6058   1.324   3.935   5.075 -0.5806 -0.2248  0.2841
 1913SOL    HW1 6059   1.324   3.976   4.984 -1.4996 -0.7058  0.0614
 1913SOL    HW2 6060   1.388   3.985   5.134 -0.6486  0.6505 -0.3665
 1914SOL     OW 6061   2.745   0.573   4.034  0.2140  0.4230 -0.1151
 1914SOL    HW1 6062   2.652   0.560   4.000 -0.0298 -3.7005  1.5541
 1914SOL    HW2 6063   2.809   0.523   3.976  0.4240 -2.2895  2.2362
 1915SOL     OW 6064   4.957   5.146   0.594 -0.3235  0.3590  0.5709
 1915SOL    HW1 6065   4.884   5.188   0.539 -0.3530 -0.7663 -0.2885
 1915SOL    HW2 6066   5.011   5.085   0.536  2.2549  2.2270  0.8174
 1916SOL     OW 6067   1.048   3.273   3.249 -0.0704  0.0053  0.3326
 1916SOL    HW1 6068   1.004   3.247   3.335  1.7869  0.4562  1.4610
 1916SOL    HW2 6069   1.120   3.208   3.226 -0.4043  0.0009 -0.7981
 1917SOL     OW 6070   0.795   4.548   5.181 -0.0416 -0.3789  0.4496
 1917SOL    HW1 6071   0.858   4.476   5.212 -1.0454 -0.6373  2.0240
 1917SOL    HW2 6072   0.823   4.636   5.221  0.3534 -0.1506 -0.3151
 1918SOL     OW 6073   3.205   3.835   4.002 -0.3865 -0.0964  0.3832
 1918SOL    HW1 6074   3.136   3.766   3.981  0.4122 -0.9524  0.5479
 1918SOL    HW2 6075   3.227   3.886   3.919 -0.3477 -0.6194  0.0660
 1919SOL     OW 6076   0.378   4.024   3.970  0.3902 -0.3172  0.3674
 1919SOL    HW1 6077   0.402   4.110   3.926  0.4731  0.0817  1.1747
 1919SOL    HW2 6078   0.373   4.037   4.069 -1.1359 -0.8561  0.3970
 1920SOL     OW 6079   0.403   4.279   3.892  0.4968 -0.2178  0.3097
 1920SOL    HW1 6080   0.375   4.345   3.962 -0.7320 -0.1985 -0.1709
 1920SOL    HW2 6081   0.374   4.312   3.802  0.2190 -1.2252  0.0204
 1921SOL     OW 6082   1.356   1.068   0.394 -0.0073 -0.0627  0.6742
 1921SOL    HW1 6083   1.377   1.155   0.440  1.0021  0.0218  0.0867
 1921SOL    HW2 6084   1.407   0.994   0.438  1.6293  0.1496 -0.8056
 1922SOL     OW 6085   1.528   1.243   1.717 -0.4662  0.1286 -0.6407
 1922SOL    HW1 6086   1.494   1.161   1.762  1.0679  0.0449  0.4070
 1922SOL    HW2 6087   1.460   1.316   1.725 -1.0094 -0.4516  0.1390
 1923SOL     OW 6088   0.813   5.547   0.721  0.2840 -0.0830  0.2265
 1923SOL    HW1 6089   0.831   5.482   0.646  0.0603 -2.1134  1.8427
 1923SOL    HW2 6090   0.883   5.618   0.721  2.7069 -2.3249  0.4976
 1924SOL     OW 6091   2.359   1.774   1.731 -0.4771  0.3042 -0.6354
 1924SOL    HW1 6092   2.296   1.707   1.693  1.9665 -2.7554  0.2817
 1924SOL    HW2 6093   2.453   1.753   1.702  0.4411  3.5628 -0.5081
 1925SOL     OW 6094   3.244   2.622   0.189 -0.1772  0.1248 -0.1065
 1925SOL    HW1 6095   3.212   2.633   0.095  1.1114  2.0015 -0.3747
 1925SOL    HW2 6096   3.316   2.688   0.208  2.9381 -3.1746  0.7608
 1926SOL     OW 6097   1.752   1.768   1.581 -0.3830  0.7062 -0.1483
 1926SOL    HW1 6098   1.709   1.858   1.574  0.1225  1.1905  2.1905
 1926SOL    HW2 6099   1.684   1.701   1.610 -0.1928  0.8921  0.7434
 1927SOL     OW 6100   2.847   1.755   0.550 -1.0968 -0.1317 -0.2696
 1927SOL    HW1 6101   2.945   1.765   0.533 -1.1011  0.0790 -0.1766
 1927SOL    HW2 6102   2.816   1.666   0.516 -0.4545 -1.1088  1.5885
 1928SOL     OW 6103   3.081   1.174   2.607 -0.2093  0.8079  0.4080
 1928SOL    HW1 6104   3.033   1.185   2.519  1.4320  1.7746 -0.4186
 1928SOL    HW2 6105   3.046   1.093   2.654 -2.3293  1.2203 -0.3209
 1929SOL     OW 6106   1.715   1.663   2.500  0.0503 -0.1486  0.3036
 1929SOL    HW1 6107   1.660   1.595   2.452 -0.2819  0.7415 -0.5976
 1929SOL    HW2 6108   1.774   1.617   2.567 -0.2447 -1.3051 -0.2132
 1930SOL     OW 6109   2.046   0.457   0.701  0.3758  0.0382 -0.5219
 1930SOL    HW1 6110   2.076   0.364   0.679  0.0385 -0.3128  0.4584
 1930SOL    HW2 6111   2.112   0.500   0.762 -0.3371 -0.1923  0.4245
 1931SOL     OW 6112   3.277   1.794   2.498 -0.4028 -0.4464  0.4938
 1931SOL    HW1 6113   3.196   1.846   2.527  0.5355  2.3876 -1.5356
 1931SOL    HW2 6114   3.281   1.790   2.398  2.9865  1.4979  0.3852
 1932SOL     OW 6115   1.262   1.194   2.401  0.3068 -0.1094 -0.2258
 1932SOL    HW1 6116   1.191   1.125   2.417  1.2194 -0.5570  2.3896
 1932SOL    HW2 6117   1.308   1.175   2.315 -1.5638 -0.8265 -1.1347
 1933SOL     OW 6118   2.614   1.466   0.971  0.5988 -0.6540 -0.0968
 1933SOL    HW1 6119   2.611   1.375   0.929 -1.2460 -1.2123  1.1315
 1933SOL    HW2 6120   2.630   1.535   0.900  0.9244 -1.8247 -1.2055
 1934SOL     OW 6121   1.465   0.890   1.899  0.6694  0.0908 -0.1752
 1934SOL    HW1 6122   1.506   0.946   1.971  1.1083 -0.4418  0.0002
 1934SOL    HW2 6123   1.531   0.820   1.870 -0.1610 -0.8680  0.2066
 1935SOL     OW 6124   2.951   0.990   0.840  0.5348 -0.0045  0.2129
 1935SOL    HW1 6125   2.909   0.937   0.767  0.4923 -0.1193  0.3216
 1935SOL    HW2 6126   3.033   1.036   0.805 -0.1454  0.9096 -0.2373
 1936SOL     OW 6127   1.125   2.135   1.076  0.2656  0.1526  0.3122
 1936SOL    HW1 6128   1.048   2.160   1.135 -1.4258 -0.6156 -1.4669
 1936SOL    HW2 6129   1.208   2.125   1.132 -0.5960  2.2315  2.1172
 1937SOL     OW 6130   1.327   1.428   1.680  0.2089  0.5412  0.4929
 1937SOL    HW1 6131   1.312   1.428   1.581  0.7654 -0.6628  0.3932
 1937SOL    HW2 6132   1.251   1.475   1.725 -0.5696  0.2013 -0.4266
 1938SOL     OW 6133   1.711   0.748   5.534 -0.2484  0.0289 -0.4663
 1938SOL    HW1 6134   1.676   0.765   5.442 -1.3109 -0.9048 -0.2643
 1938SOL    HW2 6135   1.764   0.826   5.566 -1.7396  1.2968 -1.0017
 1939SOL     OW 6136   1.404   5.565   2.544  0.3796 -0.1467 -0.2854
 1939SOL    HW1 6137   1.354   5.629   2.487  1.5709 -0.1791 -1.4052
 1939SOL    HW2 6138   1.363   5.474   2.535 -0.1908  0.0856 -0.1110
 1940SOL     OW 6139   2.891   2.318   1.571 -0.8867  0.2439 -0.1082
 1940SOL    HW1 6140   2.836   2.299   1.490 -0.4785  1.3977 -0.6806
 1940SOL    HW2 6141   2.871   2.410   1.604 -0.2777  0.1741  0.4664
 1941SOL     OW 6142   2.384   1.078   1.400 -0.2490  0.0222 -0.0945
 1941SOL    HW1 6143   2.394   1.151   1.333  0.9182  0.2481  0.3106
 1941SOL    HW2 6144   2.326   1.109   1.475 -0.4521  0.2321 -0.3357
 1942SOL     OW 6145   2.081   0.613   1.437  0.2800  0.9832 -0.1011
 1942SOL    HW1 6146   2.180   0.602   1.432  0.3031  1.6911 -2.5787
 1942SOL    HW2 6147   2.059   0.708   1.460  0.0983  0.2237  3.3213
 1943SOL     OW 6148   1.558   0.523   1.169  0.5441 -0.0033 -0.1239
 1943SOL    HW1 6149   1.580   0.619   1.185  0.8233 -0.3311  1.6621
 1943SOL    HW2 6150   1.612   0.466   1.229  1.2493 -1.3967 -1.9843
 1944SOL     OW 6151   2.858   2.173   0.540 -0.2126  0.0303 -0.4327
 1944SOL    HW1 6152   2.819   2.091   0.499  0.5240 -1.0152  0.8803
 1944SOL    HW2 6153   2.916   2.219   0.473  0.2458 -1.1384 -0.8770
 1945SOL     OW 6154   2.633   0.535   5.470  0.2044 -0.0917 -0.6505
 1945SOL    HW1 6155   2.706   0.467   5.474  1.6692  1.4589  0.7896
 1945SOL    HW2 6156   2.651   0.599   5.395 -0.7621 -0.8095 -1.5225
 1946SOL     OW 6157   2.994   2.402   1.293 -0.3630  0.3858 -1.0090
 1946SOL    HW1 6158   3.056   2.453   1.352  1.9509 -0.6511 -2.4306
 1946SOL    HW2 6159   2.908   2.453   1.283  0.6194  2.3807  0.1891
 1947SOL     OW 6160   4.695   1.395   0.357 -0.2164 -0.1063  0.3240
 1947SOL    HW1 6161   4.601   1.410   0.325 -0.2695  1.6010  1.1602
 1947SOL    HW2 6162   4.693   1.355   0.448 -0.0870 -1.9235 -0.4380
 1948SOL     OW 6163   1.878   0.957   2.144  0.3238 -0.3938  0.4065
 1948SOL    HW1 6164   1.939   0.937   2.068  1.0788  1.5064  0.4732
 1948SOL    HW2 6165   1.783   0.941   2.116  0.5421  0.8242 -1.1230
 1949SOL     OW 6166   1.818   2.686   0.802  0.0491  0.1031 -0.0890
 1949SOL    HW1 6167   1.902   2.648   0.840 -0.0612 -0.6915 -0.6196
 1949SOL    HW2 6168   1.799   2.643   0.713 -1.8078 -0.9320  0.7636
 1950SOL     OW 6169   4.129   0.430   1.310  0.2606 -0.1944  0.0940
 1950SOL    HW1 6170   4.151   0.436   1.407  0.6028 -1.6425  0.1236
 1950SOL    HW2 6171   4.188   0.362   1.266 -1.0470 -0.8153 -0.7638
 1951SOL     OW 6172   2.548   5.584   0.730  0.4341 -0.4642  0.5361
 1951SOL    HW1 6173   2.522   5.509   0.669 -0.9757 -0.1248  0.6914
 1951SOL    HW2 6174   2.499   5.575   0.817 -0.9611  1.4270  0.0188
 1952SOL     OW 6175   2.229   5.110   0.929  0.3891  0.1417 -0.1159
 1952SOL    HW1 6176   2.294   5.098   1.004  1.0699 -2.1904 -1.0125
 1952SOL    HW2 6177   2.136   5.101   0.964  0.5159  2.1759  0.9342
 1953SOL     OW 6178   2.396   2.074   4.769  0.4423  0.2799  0.1132
 1953SOL    HW1 6179   2.405   2.021   4.684  0.0864  1.3200 -0.5957
 1953SOL    HW2 6180   2.367   2.167   4.747  0.5093  0.6164  1.3766
 1954SOL     OW 6181   3.101   0.396   1.661  0.0713  0.3562 -0.4938
 1954SOL    HW1 6182   3.143   0.336   1.593  0.2232  1.3099 -1.2541
 1954SOL    HW2 6183   3.006   0.415   1.634 -0.7661 -1.4319  0.9841
 1955SOL     OW 6184   2.145   1.059   3.401  0.0024  0.2600  0.0066
 1955SOL    HW1 6185   2.190   0.972   3.380  0.9621  1.0148 -1.1984
 1955SOL    HW2 6186   2.135   1.113   3.317 -2.5984  0.4132  0.3418
 1956SOL     OW 6187   3.037   0.773   1.317  0.3073 -0.2148 -0.0354
 1956SOL    HW1 6188   3.060   0.804   1.225 -0.2004  0.9056  0.2016
 1956SOL    HW2 6189   2.955   0.820   1.349  0.5089 -0.5419  1.0166
 1957SOL     OW 6190   3.376   2.486   0.684 -0.0039 -0.5285 -0.0909
 1957SOL    HW1 6191   3.367   2.431   0.600  0.9128 -1.5439  0.4471
 1957SOL    HW2 6192   3.323   2.444   0.757 -1.3273  0.7131 -0.2903
 1958SOL     OW 6193   3.027   0.239   5.415 -0.2750 -0.1781 -0.1631
 1958SOL    HW1 6194   3.066   0.300   5.345 -0.8655 -0.8601 -1.1181
 1958SOL    HW2 6195   2.943   0.198   5.379 -0.2052 -1.0890  0.6988
 1959SOL     OW 6196   1.876   0.568   1.013 -0.5960  0.0415  0.4464
 1959SOL    HW1 6197   1.900   0.603   1.104 -0.4593 -3.0442  1.7207
 1959SOL    HW2 6198   1.959   0.557   0.959 -0.5811  1.0478  0.2478
 1960SOL     OW 6199   2.309   1.750   0.985  0.3695  0.7406  0.3071
 1960SOL    HW1 6200   2.280   1.700   0.903  4.2172 -1.1574 -0.1126
 1960SOL    HW2 6201   2.397   1.794   0.968  1.0977  0.6659  3.3029
 1961SOL     OW 6202   1.154   0.238   1.078  0.5899 -0.0023 -0.0800
 1961SOL    HW1 6203   1.111   0.260   0.991 -1.5433 -0.0225  0.8991
 1961SOL    HW2 6204   1.228   0.303   1.097 -0.0311  1.0475 -1.1300
 1962SOL     OW 6205   3.431   1.315   0.495 -0.2681 -0.0195 -0.2892
 1962SOL    HW1 6206   3.489   1.255   0.439  0.2365  0.5174 -0.3526
 1962SOL    HW2 6207   3.342   1.325   0.452 -0.5943 -1.2512  0.0552
 1963SOL     OW 6208   1.777   1.366   0.995 -0.0714  0.0460 -0.5568
 1963SOL    HW1 6209   1.715   1.402   0.925  0.4487 -1.5881 -1.9164
 1963SOL    HW2 6210   1.738   1.382   1.085 -2.1931 -0.3671 -1.3446
 1964SOL     OW 6211   2.740   0.444   0.511 -0.3058 -0.1071  0.3043
 1964SOL    HW1 6212   2.690   0.368   0.553 -1.2288 -0.2386 -0.9855
 1964SOL    HW2 6213   2.689   0.529   0.523 -0.1680 -0.0043  0.1744
 1965SOL     OW 6214   2.523   0.228   5.315  0.4073  0.1833 -0.7673
 1965SOL    HW1 6215   2.533   0.322   5.282  0.4109  1.3035  2.1490
 1965SOL    HW2 6216   2.427   0.212   5.339  0.9366  0.8391  2.2300
 1966SOL     OW 6217   0.850   5.382   0.504 -0.1366 -0.9231 -0.0234
 1966SOL    HW1 6218   0.923   5.355   0.441 -0.1246 -1.1774  0.0982
 1966SOL    HW2 6219   0.782   5.309   0.509 -0.5150 -0.5970 -0.3072
 1967SOL     OW 6220   3.034   0.892   2.725  0.5437 -0.1970  0.1126
 1967SOL    HW1 6221   3.007   0.829   2.653  0.5881 -1.0576  0.8389
 1967SOL    HW2 6222   2.996   0.862   2.813 -0.1220  1.2357  0.3462
 1968SOL     OW 6223   3.612   4.377   1.218 -0.0471  0.1915  0.9703
 1968SOL    HW1 6224   3.676   4.342   1.287  2.0911  2.1156  0.1178
 1968SOL    HW2 6225   3.545   4.437   1.262 -0.2743 -0.5778  1.6841
 1969SOL     OW 6226   4.054   5.454   2.132 -0.0614 -0.3372  0.0924
 1969SOL    HW1 6227   4.102   5.441   2.219 -0.1674 -0.2176  0.1683
 1969SOL    HW2 6228   4.098   5.399   2.062 -1.5218 -2.5457  0.7798
 1970SOL     OW 6229   2.693   1.240   0.838 -0.2628  0.2439  0.0191
 1970SOL    HW1 6230   2.746   1.235   0.754 -1.2698  0.1826 -0.6246
 1970SOL    HW2 6231   2.682   1.148   0.876 -0.1775  0.2210 -0.0123
 1971SOL     OW 6232   2.410   0.918   0.909  0.3550 -0.2421 -0.1139
 1971SOL    HW1 6233   2.448   0.845   0.966 -1.0847  0.0599  1.3037
 1971SOL    HW2 6234   2.409   1.003   0.960  1.2458  0.6145 -1.4716
 1972SOL     OW 6235   2.981   0.788   1.748  0.1221  0.2682 -0.0932
 1972SOL    HW1 6236   2.925   0.846   1.689  1.3304  0.6551 -0.8845
 1972SOL    HW2 6237   3.078   0.805   1.731  0.5393 -2.1702 -0.5482
 1973SOL     OW 6238   2.619   1.831   1.342  0.2382 -0.4293  0.2167
 1973SOL    HW1 6239   2.676   1.776   1.281  0.2323  0.8258 -0.9647
 1973SOL    HW2 6240   2.522   1.809   1.326  0.2899 -1.1171  0.8006
 1974SOL     OW 6241   3.127   0.200   1.890 -0.1389  0.6210 -0.7880
 1974SOL    HW1 6242   3.214   0.160   1.921  0.9148  1.4063 -2.6164
 1974SOL    HW2 6243   3.142   0.256   1.809 -2.4643  0.2475 -1.5758
 1975SOL     OW 6244   4.224   2.182   1.981 -0.2113  0.2259 -0.3903
 1975SOL    HW1 6245   4.156   2.130   1.929  0.2152  0.1556 -0.8860
 1975SOL    HW2 6246   4.235   2.141   2.072 -3.3078  2.1985  1.0449
 1976SOL     OW 6247   1.554   0.670   0.403  0.1806 -0.7648  0.2449
 1976SOL    HW1 6248   1.562   0.573   0.425  0.4041 -0.5658  1.0792
 1976SOL    HW2 6249   1.643   0.705   0.373 -0.2329 -1.1488 -1.5178
 1977SOL     OW 6250   2.660   2.046   4.907  0.3329 -0.2468  0.1961
 1977SOL    HW1 6251   2.753   2.068   4.877 -0.0875  0.6518 -0.5113
 1977SOL    HW2 6252   2.608   2.009   4.830 -0.0279 -0.2931  0.4603
 1978SOL     OW 6253   3.034   0.705   2.002  0.2670  0.1316  0.3490
 1978SOL    HW1 6254   3.078   0.780   2.052  1.3133 -0.5558  0.4968
 1978SOL    HW2 6255   2.994   0.740   1.917 -1.3604  1.2921  1.5113
 1979SOL     OW 6256   2.139   2.656   0.150  0.0474  0.4182  0.4151
 1979SOL    HW1 6257   2.150   2.610   0.238  0.2702  1.2178  0.8226
 1979SOL    HW2 6258   2.150   2.755   0.163  2.1210  0.4073 -0.8342
 1980SOL     OW 6259   1.732   5.039   1.540  0.3644  0.3907  0.1345
 1980SOL    HW1 6260   1.713   5.109   1.472  0.8777  0.5888  0.1910
 1980SOL    HW2 6261   1.831   5.021   1.543  0.2856 -0.0145  0.4310
 1981SOL     OW 6262   3.150   1.079   0.692  0.0949 -0.1322  0.4942
 1981SOL    HW1 6263   3.247   1.061   0.711 -0.2723 -2.4296  0.5361
 1981SOL    HW2 6264   3.128   1.044   0.601 -1.0984 -1.4170  1.2425
 1982SOL     OW 6265   1.952   1.046   4.789 -0.4223 -0.5880  0.5424
 1982SOL    HW1 6266   1.999   0.961   4.811  1.0386 -0.1570 -0.7628
 1982SOL    HW2 6267   2.003   1.096   4.719 -0.8266  1.7402  1.8034
 1983SOL     OW 6268   3.365   0.178   0.707  0.5558  0.0867  0.2708
 1983SOL    HW1 6269   3.427   0.181   0.629 -0.0799  1.0096 -0.2279
 1983SOL    HW2 6270   3.270   0.177   0.674  0.2586  1.1584  1.0191
 1984SOL     OW 6271   3.158   2.320   0.788 -0.4870  0.0779 -0.1028
 1984SOL    HW1 6272   3.143   2.324   0.886 -0.3909 -2.2017  0.0633
 1984SOL    HW2 6273   3.071   2.324   0.740 -0.5924  0.4046  0.1155
 1985SOL     OW 6274   2.388   3.338   5.317 -0.4123  0.1724 -0.3129
 1985SOL    HW1 6275   2.304   3.347   5.371 -0.1099 -0.7193  0.3302
 1985SOL    HW2 6276   2.447   3.417   5.333  0.4316 -0.8642  2.0462
 1986SOL     OW 6277   2.349   0.547   4.803  0.2666 -0.3425  0.7696
 1986SOL    HW1 6278   2.307   0.629   4.765 -1.2237 -1.7588 -0.7786
 1986SOL    HW2 6279   2.428   0.521   4.749  0.1505 -0.4741  0.6624
 1987SOL     OW 6280   1.249   0.670   2.207  0.1156  0.2962 -0.0163
 1987SOL    HW1 6281   1.254   0.761   2.166  2.7240 -0.6945 -2.2006
 1987SOL    HW2 6282   1.336   0.623   2.194 -1.1406 -2.5527  1.0254
 1988SOL     OW 6283   2.269   5.576   0.440  0.4416 -0.6946 -0.5892
 1988SOL    HW1 6284   2.170   5.581   0.446  0.4185 -0.6201 -1.0526
 1988SOL    HW2 6285   2.296   5.548   0.348  0.8525 -0.6369 -0.4889
 1989SOL     OW 6286   1.253   2.355   2.754  0.5173 -0.3211 -0.2452
 1989SOL    HW1 6287   1.309   2.437   2.758 -0.3129  0.3073 -1.1828
 1989SOL    HW2 6288   1.225   2.329   2.846  1.3718  0.0220  0.1221
 1990SOL     OW 6289   1.645   1.765   1.161 -0.3305 -0.6098  0.5902
 1990SOL    HW1 6290   1.714   1.698   1.186 -0.3988 -0.4274  1.2910
 1990SOL    HW2 6291   1.564   1.753   1.218 -0.2424  0.2237  0.9183
 1991SOL     OW 6292   3.982   1.265   0.573  0.5091  0.3563  0.6415
 1991SOL    HW1 6293   4.039   1.209   0.514 -0.2453  0.3804 -0.1357
 1991SOL    HW2 6294   3.978   1.358   0.537 -1.4083 -0.0486 -0.3523
 1992SOL     OW 6295   2.757   1.921   1.561  0.1331  0.3007  0.5551
 1992SOL    HW1 6296   2.707   1.901   1.477  1.0736  1.0591 -0.2175
 1992SOL    HW2 6297   2.855   1.927   1.540  0.2392  2.0938  1.3854
 1993SOL     OW 6298   3.293   0.735   0.025 -0.0015  0.3075 -0.1361
 1993SOL    HW1 6299   3.330   0.706   0.113 -0.2910  1.1566  0.2697
 1993SOL    HW2 6300   3.367   0.771  -0.032  0.5327 -1.8968 -0.9747
 1994SOL     OW 6301   2.871   0.447   0.270 -0.0491  0.1384  1.0765
 1994SOL    HW1 6302   2.813   0.436   0.351  2.1549 -0.0857  2.6903
 1994SOL    HW2 6303   2.963   0.414   0.290  0.7192  0.6434 -1.3526
 1995SOL     OW 6304   3.999   1.851   5.365 -0.0953 -0.8873 -0.2605
 1995SOL    HW1 6305   3.992   1.792   5.445 -1.3028  0.2750  0.5449
 1995SOL    HW2 6306   3.909   1.858   5.321 -0.2413  1.0923  0.2576
 1996SOL     OW 6307   1.644   0.063   0.438 -0.4261 -0.3066  0.1963
 1996SOL    HW1 6308   1.645   0.116   0.353  1.5868 -1.0135 -0.2890
 1996SOL    HW2 6309   1.619   0.123   0.514  0.1981  0.9542 -0.5583
 1997SOL     OW 6310   2.156   1.364   0.905  0.7548 -0.0811 -0.1849
 1997SOL    HW1 6311   2.158   1.451   0.855  0.8118 -0.5306 -0.9819
 1997SOL    HW2 6312   2.093   1.301   0.860  0.0004 -0.1449  0.9228
 1998SOL     OW 6313   2.928   1.880   2.198 -0.2945 -0.1588  0.4554
 1998SOL    HW1 6314   2.862   1.905   2.127 -0.3940 -0.6331  0.3773
 1998SOL    HW2 6315   2.948   1.960   2.254 -0.1447  0.2406 -0.1601
 1999SOL     OW 6316   2.911   2.940   0.110 -0.6275 -0.4564 -0.4992
 1999SOL    HW1 6317   2.929   2.852   0.155 -3.5332 -1.1422 -0.4397
 1999SOL    HW2 6318   2.876   2.922   0.018  0.7816  0.7739 -1.3106
 2000SOL     OW 6319   1.280   0.189   5.013 -0.4546 -0.1528  0.1286
 2000SOL    HW1 6320   1.206   0.242   5.055 -1.3357 -2.7525  2.1428
 2000SOL    HW2 6321   1.343   0.158   5.084  1.8589  0.8234 -1.3881
 2001SOL     OW 6322   4.034   1.044   0.970 -0.2680 -0.3978 -0.2150
 2001SOL    HW1 6323   4.019   1.037   1.069 -0.5700 -1.3463 -0.3175
 2001SOL    HW2 6324   4.112   1.104   0.953 -0.1506 -0.3012  0.6069
 2002SOL     OW 6325   3.281   0.115   5.099  0.0996 -0.0810 -0.0101
 2002SOL    HW1 6326   3.190   0.153   5.079  0.3782  0.1284 -0.9045
 2002SOL    HW2 6327   3.271   0.041   5.165 -0.9031 -1.0038 -1.1428
 2003SOL     OW 6328   1.115   0.157   2.139  0.2628  0.3013  0.7600
 2003SOL    HW1 6329   1.097   0.102   2.058  1.0060  0.5694  0.4043
 2003SOL    HW2 6330   1.103   0.253   2.118  3.6355  0.6612  0.0033
 2004SOL     OW 6331   1.192   5.565   1.622  0.1226  0.3575  0.0939
 2004SOL    HW1 6332   1.242   5.618   1.690 -0.4915  1.0934 -0.0212
 2004SOL    HW2 6333   1.143   5.491   1.667  0.2448  0.4442  0.3720
 2005SOL     OW 6334   2.012   0.244   0.263  0.0955  0.6770  0.2523
 2005SOL    HW1 6335   2.110   0.263   0.265 -0.1341  1.8653  1.2823
 2005SOL    HW2 6336   1.993   0.164   0.319  0.8635 -1.8453 -2.7995
 2006SOL     OW 6337   2.984   0.319   0.543  0.2478 -0.0311 -0.4370
 2006SOL    HW1 6338   3.048   0.340   0.470  0.0618  2.3056  0.0030
 2006SOL    HW2 6339   2.920   0.395   0.554  0.3572 -0.2358  2.2388
 2007SOL     OW 6340   3.266   1.062   0.016  0.2890  0.1938  0.1463
 2007SOL    HW1 6341   3.344   1.090   0.073  1.1917 -0.6216 -0.6535
 2007SOL    HW2 6342   3.213   0.992   0.064  2.9022 -2.9594 -1.1657
 2008SOL     OW 6343   3.066   0.093   0.046 -0.2628 -0.2075  0.5482
 2008SOL    HW1 6344   2.995   0.024   0.029  1.6981 -1.6742 -2.6716
 2008SOL    HW2 6345   3.070   0.156  -0.032  2.7415 -0.9634 -0.0143
 2009SOL     OW 6346   3.676   0.821   0.107 -0.0704  0.1444  0.0429
 2009SOL    HW1 6347   3.748   0.833   0.176 -1.4404  3.1542  1.1205
 2009SOL    HW2 6348   3.718   0.803   0.018  1.9897  1.1211  0.7447
 2010SOL     OW 6349   1.676   1.299   1.248 -0.2473 -0.1626  0.7748
 2010SOL    HW1 6350   1.772   1.273   1.259 -0.1703  0.1479  0.8350
 2010SOL    HW2 6351   1.657   1.381   1.301 -0.6082 -0.3605  0.9564
 2011SOL     OW 6352   4.925   1.372   0.240  0.1947  0.2621 -0.3735
 2011SOL    HW1 6353   4.830   1.390   0.263  0.5387  0.1353  1.2737
 2011SOL    HW2 6354   4.933   1.280   0.202 -0.2129 -0.1642  0.5326
 2012SOL     OW 6355   3.429   1.130   5.233  0.1413  0.6236 -0.1908
 2012SOL    HW1 6356   3.455   1.044   5.189 -0.5546 -0.3595  1.2238
 2012SOL    HW2 6357   3.492   1.202   5.206  1.0433 -0.4491 -1.0263
 2013SOL     OW 6358   2.075   1.135   0.194  0.1355 -0.2521  0.4090
 2013SOL    HW1 6359   2.045   1.199   0.265  0.6141 -0.0851  0.4569
 2013SOL    HW2 6360   2.142   1.071   0.232 -0.8877 -1.2729  0.5705
 2014SOL     OW 6361   3.188   2.527   1.755  0.0757 -0.0886  0.5637
 2014SOL    HW1 6362   3.158   2.432   1.742  0.6495 -0.1437 -0.4520
 2014SOL    HW2 6363   3.143   2.586   1.688  1.2796  0.0132 -0.1868
 2015SOL     OW 6364   1.638   1.243   2.300  0.9191 -0.0556  0.4011
 2015SOL    HW1 6365   1.655   1.212   2.393  2.3715  0.6912  0.4187
 2015SOL    HW2 6366   1.722   1.284   2.263 -0.4892  2.5031 -0.1359
 2016SOL     OW 6367   3.745   1.395   1.344 -0.5661  0.0159 -0.1629
 2016SOL    HW1 6368   3.770   1.337   1.266 -0.2606  0.5134 -0.4394
 2016SOL    HW2 6369   3.705   1.480   1.310  1.8882  1.3531  0.1194
 2017SOL     OW 6370   3.471   0.658   2.528  0.0716 -0.0309 -0.2780
 2017SOL    HW1 6371   3.463   0.693   2.622 -1.9763 -0.0848 -0.3824
 2017SOL    HW2 6372   3.566   0.635   2.509  0.5946  0.3510  1.6478
 2018SOL     OW 6373   3.032   1.233   0.968  0.0158  0.1128 -0.5248
 2018SOL    HW1 6374   2.971   1.186   0.904 -0.5415  1.6584 -1.1765
 2018SOL    HW2 6375   3.086   1.301   0.918  1.6330 -0.5839  0.1981
 2019SOL     OW 6376   1.860   1.147   1.543  0.7536 -0.1204  0.7806
 2019SOL    HW1 6377   1.821   1.238   1.561  0.1572 -0.4411  1.1305
 2019SOL    HW2 6378   1.788   1.085   1.511  1.6154  0.2365 -2.1987
 2020SOL     OW 6379   2.190   1.595   1.552 -0.6985 -0.2701  0.1980
 2020SOL    HW1 6380   2.260   1.525   1.540 -0.1901  0.4187 -1.0054
 2020SOL    HW2 6381   2.151   1.587   1.643  0.3840 -1.1728  0.6081
 2021SOL     OW 6382   1.824   1.463   1.868  0.0022  0.2572  0.3336
 2021SOL    HW1 6383   1.825   1.433   1.773  0.2419  0.0431  0.4039
 2021SOL    HW2 6384   1.841   1.385   1.928  3.1210  0.8835  0.4256
 2022SOL     OW 6385   1.364   1.034   2.960 -0.3807  0.3333 -0.2014
 2022SOL    HW1 6386   1.432   1.107   2.960  0.4621 -0.4214 -0.8243
 2022SOL    HW2 6387   1.310   1.038   2.876 -0.7584  0.6090  0.0500
 2023SOL     OW 6388   2.364   1.594   0.076  0.3284 -0.0037  0.0765
 2023SOL    HW1 6389   2.289   1.562   0.019  1.6122 -2.3353 -0.4179
 2023SOL    HW2 6390   2.413   1.668   0.029 -1.6603  1.6518  0.4754
 2024SOL     OW 6391   1.461   2.553   1.894  0.2541  0.1139 -0.1682
 2024SOL    HW1 6392   1.453   2.562   1.993 -0.8501  1.7814 -0.3557
 2024SOL    HW2 6393   1.389   2.493   1.860  1.0466 -1.0047  0.0804
 2025SOL     OW 6394   0.457   2.361   1.425 -0.2197 -0.5322 -0.8368
 2025SOL    HW1 6395   0.555   2.348   1.442 -0.3392 -1.1759 -0.6064
 2025SOL    HW2 6396   0.436   2.330   1.332 -0.3085 -0.9391 -0.6805
 2026SOL     OW 6397   2.380   0.461   0.526 -0.5600 -0.0218 -0.3544
 2026SOL    HW1 6398   2.348   0.478   0.433 -0.8928  1.4190 -0.0138
 2026SOL    HW2 6399   2.363   0.366   0.551 -2.6213  0.1324 -0.9654
 2027SOL     OW 6400   3.704   2.293   1.131  0.0753  0.8821  0.1218
 2027SOL    HW1 6401   3.775   2.269   1.064  0.2089  0.6838  0.3319
 2027SOL    HW2 6402   3.742   2.285   1.223  0.2123  2.2076  0.1989
 2028SOL     OW 6403   1.434   1.661   1.281  0.8282  0.1886  0.7225
 2028SOL    HW1 6404   1.404   1.654   1.186  0.8942 -0.7449  0.7601
 2028SOL    HW2 6405   1.386   1.735   1.326  0.6369  0.4979  0.0170
 2029SOL     OW 6406   3.481   0.890   5.128  0.2319  0.2169  0.1974
 2029SOL    HW1 6407   3.415   0.817   5.148  1.1731 -0.4099  1.1378
 2029SOL    HW2 6408   3.547   0.857   5.061 -0.6814  1.0170 -1.1280
 2030SOL     OW 6409   3.476   1.311   1.028  0.1684 -0.2421 -0.3683
 2030SOL    HW1 6410   3.385   1.323   1.068  0.8189  1.2055  0.7655
 2030SOL    HW2 6411   3.467   1.277   0.934 -1.6726  2.6311 -1.3425
 2031SOL     OW 6412   3.729   0.971   2.428 -0.1615 -0.3776 -0.2067
 2031SOL    HW1 6413   3.636   0.952   2.459  0.1237 -0.4336  0.6187
 2031SOL    HW2 6414   3.779   1.022   2.498  0.1139  0.5867 -1.0661
 2032SOL     OW 6415   2.601   0.936   1.891  0.0585 -0.2414  0.2929
 2032SOL    HW1 6416   2.683   0.993   1.898  0.7291 -1.2323  0.8858
 2032SOL    HW2 6417   2.626   0.840   1.907 -1.3071 -0.5051  1.0362
 2033SOL     OW 6418   3.219   1.354   1.138  0.0668  0.1542 -0.5565
 2033SOL    HW1 6419   3.164   1.423   1.185 -0.6232 -0.1644 -0.8780
 2033SOL    HW2 6420   3.159   1.289   1.091  0.7363  0.7075 -2.2528
 2034SOL     OW 6421   2.750   0.265   1.302 -0.0042  0.0459 -0.2269
 2034SOL    HW1 6422   2.748   0.222   1.212  0.4395 -1.7470  0.5860
 2034SOL    HW2 6423   2.815   0.216   1.361 -2.7061 -0.9724  2.1125
 2035SOL     OW 6424   2.416   2.931   0.889  0.1751 -0.1837  0.2723
 2035SOL    HW1 6425   2.401   2.832   0.889 -1.4344  0.0229 -0.8132
 2035SOL    HW2 6426   2.329   2.977   0.906  0.6325  1.0532 -0.6414
 2036SOL     OW 6427   2.452   1.226   1.807 -0.9553  0.6407  0.5943
 2036SOL    HW1 6428   2.539   1.196   1.767 -0.7470  1.9369  0.0370
 2036SOL    HW2 6429   2.410   1.149   1.856  0.7846  0.1406  1.3935
 2037SOL     OW 6430   3.139   1.388   0.199  0.0860 -0.0646 -0.0570
 2037SOL    HW1 6431   3.138   1.425   0.292  0.1255  0.0053 -0.0840
 2037SOL    HW2 6432   3.071   1.315   0.191  0.8348 -0.8211  0.3329
 2038SOL     OW 6433   2.349   5.512   5.489 -0.6483  0.0462 -0.3551
 2038SOL    HW1 6434   2.352   5.423   5.443  0.7654 -0.2404  0.2403
 2038SOL    HW2 6435   2.311   5.580   5.427  2.3263 -0.0583 -2.5384
 2039SOL     OW 6436   2.069   2.551   1.868 -0.4658 -0.4226 -0.1859
 2039SOL    HW1 6437   2.047   2.473   1.809  0.0017  0.2175 -1.2420
 2039SOL    HW2 6438   2.150   2.530   1.923 -1.7537 -1.5862  1.3757
 2040SOL     OW 6439   1.334   0.385   0.548 -0.4139  0.4082 -0.2305
 2040SOL    HW1 6440   1.420   0.393   0.498 -1.2132  1.4015 -1.5127
 2040SOL    HW2 6441   1.342   0.431   0.636 -0.2480  2.4131 -1.2267
 2041SOL     OW 6442   2.911   0.629   0.746 -0.1931  0.3791 -0.4538
 2041SOL    HW1 6443   2.861   0.707   0.709  1.9494  3.1718  2.0518
 2041SOL    HW2 6444   3.006   0.633   0.716 -0.0113 -1.2212 -0.1643
 2042SOL     OW 6445   2.527   0.733   1.093  0.8486  0.8000  0.4208
 2042SOL    HW1 6446   2.625   0.739   1.074  0.9607 -1.0537  0.2845
 2042SOL    HW2 6447   2.511   0.747   1.191  1.3361  0.3595  0.5660
 2043SOL     OW 6448   3.534   0.136   0.496  0.7376 -0.3299 -0.4422
 2043SOL    HW1 6449   3.611   0.142   0.560 -0.4398 -1.4458  1.1515
 2043SOL    HW2 6450   3.558   0.073   0.422  0.7545 -2.2111  1.0626
 2044SOL     OW 6451   2.374   1.534   0.565  0.1991  0.0153 -0.3443
 2044SOL    HW1 6452   2.301   1.536   0.634  0.3149 -3.9780  0.1357
 2044SOL    HW2 6453   2.334   1.539   0.474 -0.2303  1.8231 -0.1098
 2045SOL     OW 6454   2.773   1.475   3.113  0.0023  0.1369  0.4475
 2045SOL    HW1 6455   2.824   1.561   3.102  0.7247 -0.4411 -0.8596
 2045SOL    HW2 6456   2.791   1.438   3.204  1.2813  0.3683  0.3104
 2046SOL     OW 6457   2.704   1.959   0.455 -0.7909  0.6177 -0.3677
 2046SOL    HW1 6458   2.747   1.877   0.493  0.4387  1.1268 -0.6069
 2046SOL    HW2 6459   2.674   1.940   0.361 -3.4380 -0.5049  0.6199
 2047SOL     OW 6460   1.070   5.178   1.542 -0.6914  0.6799 -0.4718
 2047SOL    HW1 6461   1.022   5.159   1.628  0.3614  0.5712  0.1239
 2047SOL    HW2 6462   1.050   5.270   1.511 -0.0297  1.2279  0.6472
 2048SOL     OW 6463   3.344   0.210   2.459  0.2312 -0.2011  0.3560
 2048SOL    HW1 6464   3.257   0.251   2.484  0.2073 -0.4981  0.7725
 2048SOL    HW2 6465   3.334   0.110   2.456 -0.2959 -0.1597 -2.7704
 2049SOL     OW 6466   4.506   1.217   5.233  0.3949  0.5713  0.1578
 2049SOL    HW1 6467   4.562   1.294   5.203  1.0756  0.0698  0.1123
 2049SOL    HW2 6468   4.432   1.201   5.168  0.6310  0.7887 -0.1660
 2050SOL     OW 6469   1.705   0.336   1.323 -0.1387  0.4810 -0.4648
 2050SOL    HW1 6470   1.800   0.314   1.301 -0.3795 -1.0932 -0.0905
 2050SOL    HW2 6471   1.659   0.254   1.357 -0.5591  2.0662  3.2112
 2051SOL     OW 6472   0.785   0.812   0.845  0.9136  0.0165 -0.7520
 2051SOL    HW1 6473   0.791   0.716   0.818 -1.7108 -0.2093 -0.8712
 2051SOL    HW2 6474   0.726   0.861   0.780  1.1311  1.3855  0.0406
 2052SOL     OW 6475   1.097   1.005   1.400 -0.1387  0.2640 -0.0721
 2052SOL    HW1 6476   1.161   1.082   1.405 -1.5656  1.4343  1.2116
 2052SOL    HW2 6477   1.132   0.930   1.456 -0.5912  1.4954  1.9720
 2053SOL     OW 6478   1.595   0.787   1.241  0.4233  0.0838  0.2439
 2053SOL    HW1 6479   1.616   0.851   1.167  0.1356 -0.5846 -0.4217
 2053SOL    HW2 6480   1.499   0.795   1.266 -0.0189 -1.1730 -0.9266
 2054SOL     OW 6481   1.406   0.893   1.001 -0.3979  0.5865  0.3593
 2054SOL    HW1 6482   1.372   0.819   1.059  1.8004  0.4883  1.6293
 2054SOL    HW2 6483   1.451   0.962   1.058  1.4912  0.6968 -1.1638
 2055SOL     OW 6484   2.253   2.166   5.178  0.2536 -0.5564  0.2417
 2055SOL    HW1 6485   2.224   2.257   5.209 -1.5348 -0.6943 -0.9122
 2055SOL    HW2 6486   2.227   2.098   5.245  1.3698 -0.2768  0.9896
 2056SOL     OW 6487   1.186   5.414   0.798 -0.1225 -0.1756 -0.6509
 2056SOL    HW1 6488   1.141   5.464   0.872 -0.9141  1.8206 -2.3619
 2056SOL    HW2 6489   1.172   5.316   0.811 -3.7873  0.2544 -0.2748
 2057SOL     OW 6490   1.942   1.242   1.285  0.0121 -0.6278 -0.4913
 2057SOL    HW1 6491   2.004   1.303   1.236 -0.0985 -0.6770 -0.6920
 2057SOL    HW2 6492   1.973   1.233   1.380 -0.2951  0.1888 -0.3045
 2058SOL     OW 6493   1.993   0.953   1.225 -0.3221  0.6979  0.2985
 2058SOL    HW1 6494   2.002   1.012   1.305 -0.5646  1.8431 -0.5005
 2058SOL    HW2 6495   2.042   0.993   1.148  0.2249 -0.5821 -0.0410
 2059SOL     OW 6496   2.290   0.342   0.234 -0.0681 -0.2795 -0.0167
 2059SOL    HW1 6497   2.314   0.410   0.164 -0.1024  0.3095  0.5368
 2059SOL    HW2 6498   2.360   0.270   0.235 -0.8399 -1.1245 -1.6897
 2060SOL     OW 6499   1.148   1.384   2.085  0.7845 -0.5540 -0.5694
 2060SOL    HW1 6500   1.189   1.292   2.082 -0.3190 -1.0491 -1.3007
 2060SOL    HW2 6501   1.054   1.377   2.119  1.5433  0.6763  1.9528
 2061SOL     OW 6502   2.643   0.721   2.714  0.2589  0.0629  0.1031
 2061SOL    HW1 6503   2.561   0.748   2.663 -0.6671 -1.7366  0.5606
 2061SOL    HW2 6504   2.669   0.795   2.776 -0.8163  0.7983 -0.2780
 2062SOL     OW 6505   2.665   0.598   0.153  0.9174 -0.5600  0.1121
 2062SOL    HW1 6506   2.734   0.559   0.215 -0.2127 -2.1035  0.4706
 2062SOL    HW2 6507   2.676   0.558   0.062  0.7896 -0.4517  0.0490
 2063SOL     OW 6508   4.083   0.495   0.599  0.2680 -0.2114  0.1596
 2063SOL    HW1 6509   4.013   0.437   0.558 -0.0929  1.3622 -1.5898
 2063SOL    HW2 6510   4.045   0.542   0.678  0.2828 -1.5983  1.0197
 2064SOL     OW 6511   0.835   2.319   1.853  0.1254 -0.0269 -0.7016
 2064SOL    HW1 6512   0.744   2.278   1.863  0.8094 -1.2758  0.6534
 2064SOL    HW2 6513   0.844   2.396   1.917 -0.1810  0.5109 -1.2903
 2065SOL     OW 6514   1.516   0.753   0.779 -0.6907  0.5172  0.4717
 2065SOL    HW1 6515   1.461   0.807   0.844  0.3156  0.3789  1.4600
 2065SOL    HW2 6516   1.606   0.735   0.818  0.0002  0.5454 -1.0398
 2066SOL     OW 6517   2.061   0.881   1.553  0.1164  0.1538 -0.5922
 2066SOL    HW1 6518   2.108   0.968   1.566  1.6747 -0.9059  1.4018
 2066SOL    HW2 6519   1.978   0.879   1.609  0.6302 -0.0076  0.1795
 2067SOL     OW 6520   3.137   5.542   0.474  0.6171  0.6229  0.2277
 2067SOL    HW1 6521   3.168   5.536   0.569  2.5196 -0.1230 -0.3963
 2067SOL    HW2 6522   3.065   5.475   0.458  0.2164  0.8092  1.1473
 2068SOL     OW 6523   1.895   1.575   2.695 -0.2656  0.2149 -0.1805
 2068SOL    HW1 6524   1.953   1.641   2.646  0.7834 -0.2592  0.3931
 2068SOL    HW2 6525   1.875   1.611   2.786  0.5827 -0.3752  0.2560
 2069SOL     OW 6526   3.160   1.601   1.885  0.4868  0.0949  0.0542
 2069SOL    HW1 6527   3.185   1.606   1.982  0.9219  0.2183 -0.0640
 2069SOL    HW2 6528   3.113   1.686   1.859  1.7298  0.7200 -0.2206
 2070SOL     OW 6529   4.348   2.259   5.173  0.2983  0.6316 -0.1438
 2070SOL    HW1 6530   4.299   2.235   5.257 -0.0314  0.0581 -0.5016
 2070SOL    HW2 6531   4.421   2.193   5.157  1.6554  1.8263  0.7370
 2071SOL     OW 6532   2.450   1.784   5.492  0.2644 -0.4910 -0.4268
 2071SOL    HW1 6533   2.515   1.748   5.425  1.1822  1.2647 -0.5383
 2071SOL    HW2 6534   2.443   1.883   5.481 -1.7732 -0.5273  0.1847
 2072SOL     OW 6535   2.836   1.187   0.628 -0.1881 -0.5900 -0.7058
 2072SOL    HW1 6536   2.847   1.249   0.550 -0.8916 -0.5395 -0.7693
 2072SOL    HW2 6537   2.907   1.117   0.625 -0.7395 -1.1296 -1.9179
 2073SOL     OW 6538   0.931   1.164   1.261  0.1109  0.4231  0.0159
 2073SOL    HW1 6539   1.006   1.100   1.276  0.8996  1.2812 -0.1792
 2073SOL    HW2 6540   0.856   1.144   1.324  1.5433  1.1731  2.0678
 2074SOL     OW 6541   0.767   1.728   1.217 -0.1431 -0.0015  0.4227
 2074SOL    HW1 6542   0.774   1.748   1.119 -1.2669 -0.1877  0.2934
 2074SOL    HW2 6543   0.803   1.637   1.236 -0.6406 -0.2811  0.0501
 2075SOL     OW 6544   4.631   4.956   0.675 -0.1555 -0.1499  0.4839
 2075SOL    HW1 6545   4.690   5.007   0.737  1.6584  0.1602 -1.3647
 2075SOL    HW2 6546   4.611   5.012   0.594 -0.3272 -1.4046 -0.3740
 2076SOL     OW 6547   4.297   0.258   0.158  0.1907  0.7248  0.1151
 2076SOL    HW1 6548   4.392   0.285   0.139 -0.5425  2.3306 -1.4855
 2076SOL    HW2 6549   4.281   0.166   0.122  0.9552  0.7132 -0.2181
 2077SOL     OW 6550   3.254   1.970   0.975  0.2820  0.3541  0.1265
 2077SOL    HW1 6551   3.291   2.007   0.890  0.7276 -0.5850 -0.1054
 2077SOL    HW2 6552   3.273   1.871   0.979 -1.3633  0.0266  0.4509
 2078SOL     OW 6553   2.415   1.301   2.280  0.3276  0.1049 -0.6249
 2078SOL    HW1 6554   2.434   1.378   2.339  1.4165 -1.1691  0.7585
 2078SOL    HW2 6555   2.452   1.319   2.188  0.8305  1.0837 -0.2412
 2079SOL     OW 6556   3.414   5.302   5.377  0.6170 -0.6702  0.3132
 2079SOL    HW1 6557   3.393   5.360   5.456 -1.4873  0.4999 -1.0184
 2079SOL    HW2 6558   3.343   5.233   5.366  1.2780 -1.2888 -0.1410
 2080SOL     OW 6559   2.107   1.770   1.383  0.8886  0.1274 -0.6144
 2080SOL    HW1 6560   2.089   1.859   1.427  0.8411 -0.4773  0.6454
 2080SOL    HW2 6561   2.116   1.700   1.454  0.3746 -0.9760 -1.6080
 2081SOL     OW 6562   2.825   0.935   5.472  0.2336  0.0542 -0.2373
 2081SOL    HW1 6563   2.787   1.026   5.457  0.7051  0.1819 -0.6912
 2081SOL    HW2 6564   2.898   0.918   5.406  0.5751 -0.4102  0.2475
 2082SOL     OW 6565   2.335   2.515   1.460 -0.7269  0.0037 -0.4321
 2082SOL    HW1 6566   2.362   2.425   1.494 -1.0840  0.3272  0.7583
 2082SOL    HW2 6567   2.236   2.525   1.467 -1.0494 -0.5074 -3.1092
 2083SOL     OW 6568   3.738   0.461   0.881 -0.0837  0.2859 -0.7353
 2083SOL    HW1 6569   3.821   0.505   0.846  0.3980 -0.4883 -0.5940
 2083SOL    HW2 6570   3.665   0.529   0.890  0.8309  1.1957  0.1012
 2084SOL     OW 6571   0.983   0.163   0.750 -0.9568  0.2429 -0.2142
 2084SOL    HW1 6572   0.959   0.260   0.744 -0.6766  0.3802  0.7150
 2084SOL    HW2 6573   1.062   0.145   0.691 -0.4334  0.7873  0.3023
 2085SOL     OW 6574   3.098   0.534   1.402 -0.1194 -0.1094 -0.9051
 2085SOL    HW1 6575   3.185   0.485   1.391 -0.9658 -2.0555  0.4479
 2085SOL    HW2 6576   3.113   0.632   1.389  2.7040 -0.1088  1.3892
 2086SOL     OW 6577   3.248   1.010   1.208 -0.0019 -0.4945 -0.6075
 2086SOL    HW1 6578   3.227   0.949   1.131  0.0505  1.1909 -2.0206
 2086SOL    HW2 6579   3.333   0.979   1.252 -0.3656 -1.8546 -0.7915
 2087SOL     OW 6580   3.594   1.550   0.507  0.2850 -0.8863  0.1735
 2087SOL    HW1 6581   3.573   1.592   0.419 -0.2630 -0.7025  0.3883
 2087SOL    HW2 6582   3.541   1.465   0.518 -1.4943  0.2821  1.2984
 2088SOL     OW 6583   2.446   2.068   0.451  0.1398  0.3622  0.1296
 2088SOL    HW1 6584   2.380   2.123   0.501 -0.5729 -0.8548  0.5429
 2088SOL    HW2 6585   2.536   2.075   0.495  0.2157  1.6661 -0.1833
 2089SOL     OW 6586   1.646   1.533   1.402  1.0860 -0.0624 -0.5037
 2089SOL    HW1 6587   1.568   1.585   1.368  1.5335  0.5085 -0.6789
 2089SOL    HW2 6588   1.731   1.582   1.381  1.4500 -0.3005  0.3403
 2090SOL     OW 6589   2.701   1.002   0.988  0.3778 -0.0881 -0.3645
 2090SOL    HW1 6590   2.770   0.989   0.918 -0.7828 -2.6985 -1.1833
 2090SOL    HW2 6591   2.722   0.944   1.067 -0.6951 -0.7699 -0.5445
 2091SOL     OW 6592   3.474   0.903   1.302  0.1228 -0.1318  0.0599
 2091SOL    HW1 6593   3.493   0.924   1.398 -0.8629  1.7276 -0.1019
 2091SOL    HW2 6594   3.534   0.959   1.243  0.4855 -1.0103 -0.4229
 2092SOL     OW 6595   3.759   5.527   5.426  0.7469 -0.1091  0.4760
 2092SOL    HW1 6596   3.739   5.593   5.497  2.0408 -0.3295  1.0729
 2092SOL    HW2 6597   3.826   5.461   5.459  1.8795  0.1628 -1.1406
 2093SOL     OW 6598   2.152   2.003   5.378 -0.9510  0.4671 -0.0774
 2093SOL    HW1 6599   2.068   2.041   5.418 -1.4622 -0.4945 -0.2101
 2093SOL    HW2 6600   2.139   1.906   5.360  0.0297  0.4177 -0.5692
 2094SOL     OW 6601   4.823   5.011   1.773  0.2538  0.1233  0.3031
 2094SOL    HW1 6602   4.845   4.990   1.869  1.3212  2.7010  0.6996
 2094SOL    HW2 6603   4.897   4.980   1.714 -0.2793 -1.2180  0.2987
 2095SOL     OW 6604   0.605   2.896   0.270  0.0315 -0.1189 -0.2579
 2095SOL    HW1 6605   0.558   2.876   0.184  1.6584  2.0467 -1.7622
 2095SOL    HW2 6606   0.648   2.812   0.304 -1.6280 -1.2735 -0.8892
 2096SOL     OW 6607   1.454   1.181   2.615  0.4471  0.0964  0.2388
 2096SOL    HW1 6608   1.554   1.180   2.604  0.4323 -1.7774 -0.1964
 2096SOL    HW2 6609   1.412   1.151   2.530 -0.3643 -1.2399  1.0746
 2097SOL     OW 6610   2.618   0.256   0.658 -0.5051  0.4832  0.9539
 2097SOL    HW1 6611   2.615   0.171   0.710 -1.9962 -0.3329 -0.3663
 2097SOL    HW2 6612   2.659   0.328   0.713 -0.6143 -0.7194  2.6640
 2098SOL     OW 6613   2.579   0.662   0.568 -0.1724 -0.3068 -0.4777
 2098SOL    HW1 6614   2.554   0.755   0.594 -1.1747 -0.6094 -0.3214
 2098SOL    HW2 6615   2.500   0.601   0.580  0.2125 -1.0126 -1.4008
 2099SOL     OW 6616   3.359   0.848   2.098  0.6229  0.1073 -0.4831
 2099SOL    HW1 6617   3.351   0.772   2.163 -0.4598  1.3291  0.8803
 2099SOL    HW2 6618   3.377   0.933   2.148 -1.8036  1.3584 -1.5764
 2100SOL     OW 6619   2.905   5.192   0.428 -0.6098  0.4653 -0.0681
 2100SOL    HW1 6620   2.927   5.271   0.372 -2.9387 -0.1032 -1.9309
 2100SOL    HW2 6621   2.833   5.216   0.493 -1.3402 -0.0905 -0.6533
 2101SOL     OW 6622   2.803   0.853   0.659 -0.1829 -0.0151  0.4874
 2101SOL    HW1 6623   2.709   0.881   0.678  0.5317  4.2044 -0.9787
 2101SOL    HW2 6624   2.806   0.803   0.573 -0.9439  2.1368 -0.8747
 2102SOL     OW 6625   3.104   2.063   1.976  0.2697  0.2023 -0.2391
 2102SOL    HW1 6626   3.163   2.072   2.057  1.1167 -1.8415 -0.5726
 2102SOL    HW2 6627   3.159   2.077   1.893  0.0732 -0.7366 -0.5298
 2103SOL     OW 6628   3.444   2.269   2.267 -0.7444 -0.2831 -0.0225
 2103SOL    HW1 6629   3.438   2.238   2.362  0.3631  0.3908  0.2923
 2103SOL    HW2 6630   3.410   2.363   2.261 -1.0866 -0.4242 -0.3600
 2104SOL     OW 6631   0.883   0.831   1.426 -0.0729  0.0762 -0.1703
 2104SOL    HW1 6632   0.790   0.859   1.399  0.9332  3.2697 -0.7099
 2104SOL    HW2 6633   0.943   0.910   1.426  2.4373 -1.6864  1.4076
 2105SOL     OW 6634   4.065   0.254   2.295  0.4584 -0.3632  0.0129
 2105SOL    HW1 6635   3.966   0.255   2.280  0.2367 -0.1730  1.3639
 2105SOL    HW2 6636   4.110   0.208   2.219 -0.5717  0.4686 -1.1382
 2106SOL     OW 6637   1.787   1.102   3.014  0.2025  0.1505 -0.2151
 2106SOL    HW1 6638   1.724   1.165   2.970 -0.2987 -0.0094  0.2637
 2106SOL    HW2 6639   1.785   1.116   3.113 -0.4318 -1.0723 -0.0387
 2107SOL     OW 6640   2.629   0.664   2.378  0.2256 -0.2943  0.3135
 2107SOL    HW1 6641   2.608   0.738   2.441  2.2427  0.0331  0.6570
 2107SOL    HW2 6642   2.707   0.689   2.321 -2.6251  0.2350 -3.7933
 2108SOL     OW 6643   1.053   0.501   1.985 -0.0801  0.7047 -0.1693
 2108SOL    HW1 6644   1.146   0.486   2.018 -0.3100 -0.3818  0.0109
 2108SOL    HW2 6645   1.043   0.597   1.957  1.3980  0.5909 -1.1858
 2109SOL     OW 6646   0.832   1.372   0.386 -0.5829  0.5736 -0.0051
 2109SOL    HW1 6647   0.792   1.280   0.392 -2.9266  1.4732 -0.9728
 2109SOL    HW2 6648   0.867   1.387   0.294  1.2867  0.1427  0.5767
 2110SOL     OW 6649   4.180   5.569   1.832 -0.2975  0.8074 -0.2150
 2110SOL    HW1 6650   4.183   5.486   1.888 -0.3286 -0.2591 -1.7219
 2110SOL    HW2 6651   4.200   5.545   1.737 -3.0685  2.0641 -1.2130
 2111SOL     OW 6652   2.507   0.245   1.852 -0.4519 -0.1533  0.0742
 2111SOL    HW1 6653   2.602   0.248   1.883 -0.3055 -0.6596 -0.3171
 2111SOL    HW2 6654   2.446   0.249   1.931 -0.0876 -1.1196  0.4187
 2112SOL     OW 6655   1.423   1.553   0.512 -0.0733  0.0186 -0.5771
 2112SOL    HW1 6656   1.452   1.637   0.466 -1.0944  0.3212 -0.6953
 2112SOL    HW2 6657   1.476   1.476   0.477  1.8778  0.7805  0.5388
 2113SOL     OW 6658   1.339   1.598   1.032 -0.0797  0.1351 -0.4493
 2113SOL    HW1 6659   1.324   1.604   0.934 -0.7437  0.5371 -0.3355
 2113SOL    HW2 6660   1.334   1.503   1.062  3.5421 -0.4792 -1.2819
 2114SOL     OW 6661   2.115   0.199   0.647 -0.3151 -0.1113  0.2131
 2114SOL    HW1 6662   2.118   0.118   0.707  0.3737  0.5552  1.1160
 2114SOL    HW2 6663   2.202   0.207   0.598  0.4869  1.2407  1.7550
 2115SOL     OW 6664   3.528   0.898   0.495 -0.3490 -0.4886  0.1333
 2115SOL    HW1 6665   3.591   0.961   0.451  2.0506 -1.8062  1.4678
 2115SOL    HW2 6666   3.570   0.807   0.501 -1.1953 -0.7852  3.4923
 2116SOL     OW 6667   4.001   2.600   0.397 -0.4810 -0.4657 -0.1472
 2116SOL    HW1 6668   3.940   2.527   0.366 -0.5140 -1.2345  1.6502
 2116SOL    HW2 6669   4.093   2.583   0.362 -0.3243 -1.7970  0.8158
 2117SOL     OW 6670   2.022  -0.002   2.380  0.5671  0.1146 -0.2741
 2117SOL    HW1 6671   2.118   0.010   2.407  0.4095 -1.7617  1.3459
 2117SOL    HW2 6672   1.966   0.070   2.421  1.0789  0.3155  0.0817
 2118SOL     OW 6673   1.253   0.784   1.523  0.2439  0.0538 -0.1468
 2118SOL    HW1 6674   1.209   0.755   1.608 -0.9538 -0.9605 -1.0668
 2118SOL    HW2 6675   1.308   0.866   1.540 -1.2640  0.8338  1.2471
 2119SOL     OW 6676   2.809   1.787   2.657 -0.7269 -0.2349  0.1409
 2119SOL    HW1 6677   2.759   1.741   2.731 -0.9564 -0.5067 -0.1795
 2119SOL    HW2 6678   2.744   1.820   2.589 -0.4175 -2.0807 -1.1422
 2120SOL     OW 6679   3.179   0.063   2.176 -0.1473  0.0375  0.2610
 2120SOL    HW1 6680   3.151  -0.001   2.104  0.6317  1.1526 -1.0714
 2120SOL    HW2 6681   3.097   0.100   2.221 -0.6205 -1.6539  0.8867
 2121SOL     OW 6682   2.240   0.930   0.301 -0.0157  0.1399  0.3338
 2121SOL    HW1 6683   2.246   0.837   0.264  1.3761  1.1789 -2.3218
 2121SOL    HW2 6684   2.320   0.947   0.359 -0.4615 -0.3902  1.1328
 2122SOL     OW 6685   4.457   0.907   0.880 -0.5461  0.5235 -0.1834
 2122SOL    HW1 6686   4.536   0.881   0.935 -0.1078  1.0571 -0.5553
 2122SOL    HW2 6687   4.412   0.825   0.845 -0.1111  0.2219 -0.0393
 2123SOL     OW 6688   1.552   0.101   2.729 -0.3707 -0.8246 -0.1565
 2123SOL    HW1 6689   1.638   0.053   2.746 -0.1995 -0.5480 -0.2323
 2123SOL    HW2 6690   1.501   0.052   2.658 -0.1587 -0.8491 -0.2946
 2124SOL     OW 6691   3.183   2.889   5.451  0.6173  0.6326 -0.4446
 2124SOL    HW1 6692   3.178   2.943   5.535  1.5124  1.4744 -0.9075
 2124SOL    HW2 6693   3.096   2.896   5.402  0.4190  0.9196 -0.0571
 2125SOL     OW 6694   2.408   1.440   1.157 -0.0458 -0.5593 -0.1365
 2125SOL    HW1 6695   2.465   1.368   1.195  0.3254  1.2411  3.0675
 2125SOL    HW2 6696   2.460   1.493   1.090  0.8341 -1.0308  0.1654
 2126SOL     OW 6697   3.191   5.443   1.518 -0.3487  0.4305  0.5488
 2126SOL    HW1 6698   3.203   5.542   1.515 -1.2351  0.5580  0.8697
 2126SOL    HW2 6699   3.222   5.403   1.432 -1.8009  1.2070 -0.3756
 2127SOL     OW 6700   0.758   1.119   0.311  0.5685  0.3630 -0.3561
 2127SOL    HW1 6701   0.659   1.105   0.313  0.3558  1.8536  0.7862
 2127SOL    HW2 6702   0.802   1.061   0.379  0.5212 -0.3829 -0.9405
 2128SOL     OW 6703   1.865   1.146   0.832  0.4581 -0.1009 -0.4000
 2128SOL    HW1 6704   1.852   1.217   0.901  2.7870 -0.4628  0.5009
 2128SOL    HW2 6705   1.949   1.095   0.851  0.3023 -1.3278 -2.5814
 2129SOL     OW 6706   2.729   4.958   4.962  0.6261  0.0488 -0.0460
 2129SOL    HW1 6707   2.823   4.961   4.928  1.1327 -0.5440  1.2624
 2129SOL    HW2 6708   2.668   4.998   4.893  2.0435  2.2049 -0.1504
 2130SOL     OW 6709   3.118   0.837   1.041  0.1583 -0.0185  0.0180
 2130SOL    HW1 6710   3.149   0.745   1.017  0.5979  0.0579  0.2847
 2130SOL    HW2 6711   3.061   0.873   0.967 -0.0660 -0.5246 -0.0617
 2131SOL     OW 6712   2.603   1.091   1.604  0.0644 -0.1828 -0.4564
 2131SOL    HW1 6713   2.581   1.092   1.507 -1.2878  0.6644 -0.1655
 2131SOL    HW2 6714   2.666   1.016   1.623  0.1798 -0.4909 -1.9406
 2132SOL     OW 6715   1.362   0.265   0.169 -0.4216  0.0979 -0.4141
 2132SOL    HW1 6716   1.295   0.193   0.189 -0.5000  0.1490 -0.4883
 2132SOL    HW2 6717   1.454   0.233   0.189 -0.3588 -0.3747 -1.3912
 2133SOL     OW 6718   1.456   1.279   0.817  0.0668 -0.0606  0.4634
 2133SOL    HW1 6719   1.514   1.213   0.770  1.1874  0.6591  0.8079
 2133SOL    HW2 6720   1.372   1.294   0.763  0.8760  0.0091 -0.8208
 2134SOL     OW 6721   1.334   1.768   3.764  0.2530  0.6514  0.0390
 2134SOL    HW1 6722   1.338   1.773   3.863  0.7255  0.1181  0.0482
 2134SOL    HW2 6723   1.426   1.758   3.726  0.0689  0.7305 -0.4463
 2135SOL     OW 6724   1.886   0.883   3.695  0.4652 -0.8172  0.7461
 2135SOL    HW1 6725   1.864   0.954   3.628 -0.6819 -0.2362  1.6953
 2135SOL    HW2 6726   1.890   0.924   3.787  1.0594 -1.7625  1.1564
 2136SOL     OW 6727   3.129   0.141   3.022 -0.1173 -0.4572  0.0837
 2136SOL    HW1 6728   3.089   0.087   3.095  0.9509 -0.2060  0.8790
 2136SOL    HW2 6729   3.183   0.082   2.962  0.9124 -0.3238  0.8556
 2137SOL     OW 6730   1.913   3.435   3.242  0.2861 -0.0308 -0.2773
 2137SOL    HW1 6731   1.994   3.494   3.242 -0.8581  1.6648  1.2409
 2137SOL    HW2 6732   1.898   3.400   3.335 -0.0201 -1.3845 -0.8164
 2138SOL     OW 6733   3.363   1.278   3.032  0.2272  0.0540 -0.3567
 2138SOL    HW1 6734   3.293   1.347   3.050 -0.0019  0.0111 -1.0763
 2138SOL    HW2 6735   3.449   1.307   3.075  0.0476  0.6264 -0.3767
 2139SOL     OW 6736   2.502   5.567   2.736 -0.3697  0.1681 -0.5133
 2139SOL    HW1 6737   2.556   5.584   2.818  0.0129  1.0754 -0.9405
 2139SOL    HW2 6738   2.428   5.503   2.757  1.8640 -2.5384 -0.2977
 2140SOL     OW 6739   2.733   1.205   2.101  0.2212  0.8586  0.0503
 2140SOL    HW1 6740   2.712   1.132   2.165  0.7932  0.1390 -0.5605
 2140SOL    HW2 6741   2.830   1.200   2.076  0.6389  2.7271  1.1247
 2141SOL     OW 6742   1.792   0.307   3.759  0.1567 -0.1309 -0.3772
 2141SOL    HW1 6743   1.877   0.285   3.807  0.6920 -0.6716 -1.5323
 2141SOL    HW2 6744   1.716   0.310   3.825  1.0812  0.4970  0.6837
 2142SOL     OW 6745   1.957   0.088   2.820  0.3851  0.8734 -0.0344
 2142SOL    HW1 6746   2.041   0.036   2.836  0.5043  0.6023 -1.4484
 2142SOL    HW2 6747   1.921   0.120   2.908  0.9302 -0.6111  0.7715
 2143SOL     OW 6748   3.284   0.560   3.223  0.3818  0.4140 -0.6276
 2143SOL    HW1 6749   3.229   0.546   3.306 -0.7764  1.6453 -1.1436
 2143SOL    HW2 6750   3.241   0.511   3.147 -1.1278  2.8157 -1.4380
 2144SOL     OW 6751   3.155   0.434   4.076  0.5734 -0.2958  0.2090
 2144SOL    HW1 6752   3.108   0.522   4.061  0.4836 -0.0299  1.8593
 2144SOL    HW2 6753   3.145   0.377   3.995 -2.5228 -0.1994  0.4002
 2145SOL     OW 6754   3.318   1.764   3.680 -0.5156  0.4617 -0.5396
 2145SOL    HW1 6755   3.379   1.824   3.733 -1.5651  0.3481  0.8801
 2145SOL    HW2 6756   3.230   1.758   3.727 -0.3510 -2.4831 -0.4476
 2146SOL     OW 6757   4.272   0.537   4.082 -0.0556  0.0852 -0.4151
 2146SOL    HW1 6758   4.201   0.515   4.149  0.9653  0.4777  0.8289
 2146SOL    HW2 6759   4.311   0.453   4.044 -1.1561 -0.1350 -1.1133
 2147SOL     OW 6760   2.310   5.045   3.835 -0.2965 -0.1207  0.4415
 2147SOL    HW1 6761   2.360   5.108   3.775 -0.5327 -0.2633  0.0935
 2147SOL    HW2 6762   2.375   4.986   3.882 -0.2036 -1.6371 -1.4830
 2148SOL     OW 6763   2.139   0.376   2.771 -0.3421  0.0192 -0.0005
 2148SOL    HW1 6764   2.189   0.291   2.754 -2.3602 -1.0500 -0.9613
 2148SOL    HW2 6765   2.186   0.451   2.725 -0.1476 -1.1198 -1.7809
 2149SOL     OW 6766   1.910   1.303   2.705 -0.0165 -0.0588 -1.0328
 2149SOL    HW1 6767   1.888   1.398   2.726  0.5406 -0.1557  0.1199
 2149SOL    HW2 6768   1.985   1.299   2.639 -0.8525  0.2786 -2.0291
 2150SOL     OW 6769   2.585   1.066   3.411 -0.6804 -0.1888  0.4010
 2150SOL    HW1 6770   2.494   1.026   3.405 -1.1489  0.4636  2.4726
 2150SOL    HW2 6771   2.596   1.134   3.338 -1.3851 -1.1198 -0.6010
 2151SOL     OW 6772   2.860   0.722   3.289  0.7120 -0.5168 -0.1807
 2151SOL    HW1 6773   2.847   0.780   3.369  1.1083 -0.2200 -0.3258
 2151SOL    HW2 6774   2.952   0.737   3.252 -0.1195  0.8187 -1.8515
 2152SOL     OW 6775   2.600   1.249   3.201 -0.4481  0.0703  0.0695
 2152SOL    HW1 6776   2.567   1.328   3.254 -0.5831  0.4129 -0.5096
 2152SOL    HW2 6777   2.523   1.208   3.152 -0.1395  0.4478 -0.7453
 2153SOL     OW 6778   2.494   0.555   2.933 -0.2566  0.2723  0.3296
 2153SOL    HW1 6779   2.553   0.483   2.970 -1.0777 -0.4107  0.3258
 2153SOL    HW2 6780   2.543   0.603   2.859 -0.8787 -2.5342 -2.0872
 2154SOL     OW 6781   2.960   5.470   2.854 -0.1979 -0.3132 -0.9005
 2154SOL    HW1 6782   2.930   5.390   2.906  0.6467  0.3783  0.7137
 2154SOL    HW2 6783   2.921   5.553   2.895  0.2780  0.2308 -1.5216
 2155SOL     OW 6784   1.919   0.194   2.556  0.1232  0.1656  0.1836
 2155SOL    HW1 6785   1.939   0.156   2.647  0.9494  0.2182  0.0349
 2155SOL    HW2 6786   1.856   0.271   2.565 -0.4455 -0.3403  0.6291
 2156SOL     OW 6787   3.685   0.649   2.951  0.1915 -0.1169  0.3796
 2156SOL    HW1 6788   3.586   0.635   2.958  0.0489 -0.9180 -2.1334
 2156SOL    HW2 6789   3.705   0.747   2.947 -0.9054  0.1056 -2.2951
 2157SOL     OW 6790   2.107   1.447   1.168 -0.5379 -0.2095  0.2873
 2157SOL    HW1 6791   2.114   1.394   1.083  1.8118  0.2718  0.0918
 2157SOL    HW2 6792   2.195   1.492   1.186 -1.3228  0.6101  2.4105
 2158SOL     OW 6793   2.559   0.170   4.638 -0.7410 -0.2671  0.5078
 2158SOL    HW1 6794   2.474   0.222   4.624 -0.3959  0.1530 -0.1016
 2158SOL    HW2 6795   2.581   0.121   4.554  0.2837  0.6357  0.2314
 2159SOL     OW 6796   4.104   1.335   2.755  0.8128  0.3051  0.2799
 2159SOL    HW1 6797   4.124   1.395   2.677 -0.2508 -0.5496 -0.6999
 2159SOL    HW2 6798   4.068   1.389   2.831 -1.5228  0.8082 -1.0878
 2160SOL     OW 6799   2.739   0.850   3.508  0.2037 -0.2323 -0.1103
 2160SOL    HW1 6800   2.671   0.903   3.459 -0.2441 -1.1846 -0.5444
 2160SOL    HW2 6801   2.703   0.826   3.599  1.4239  2.4007  1.1742
 2161SOL     OW 6802   3.381   1.117   2.237  0.0654 -0.2136 -0.4214
 2161SOL    HW1 6803   3.474   1.145   2.261  0.2998 -0.3614 -1.1368
 2161SOL    HW2 6804   3.326   1.111   2.320 -0.2236  3.0992 -0.2186
 2162SOL     OW 6805   2.822   1.450   3.834 -0.0628  0.3438 -0.4803
 2162SOL    HW1 6806   2.756   1.471   3.762  1.3527  0.8112 -1.6950
 2162SOL    HW2 6807   2.913   1.436   3.794  0.2051 -2.7161  0.8296
 2163SOL     OW 6808   2.128   0.154   1.911  0.2003 -0.5246  0.3868
 2163SOL    HW1 6809   2.096   0.240   1.873  2.2891 -0.1391 -0.6535
 2163SOL    HW2 6810   2.198   0.172   1.980 -1.8586 -1.3150  2.8022
 2164SOL     OW 6811   2.165   0.827   3.968  0.1765 -0.1259 -0.1559
 2164SOL    HW1 6812   2.167   0.876   4.056 -3.2962 -0.5944  0.3112
 2164SOL    HW2 6813   2.236   0.755   3.969  0.3240 -0.0447  2.2151
 2165SOL     OW 6814   3.746   0.676   2.319 -0.2019 -0.5315  0.0528
 2165SOL    HW1 6815   3.776   0.657   2.226 -2.5359 -1.3191 -0.6192
 2165SOL    HW2 6816   3.768   0.771   2.343 -1.6089  0.4287 -2.2063
 2166SOL     OW 6817   3.770   1.830   2.709 -0.4884  0.2782 -0.3934
 2166SOL    HW1 6818   3.847   1.818   2.771 -0.0556  2.2996 -0.4513
 2166SOL    HW2 6819   3.800   1.815   2.615 -0.1757  0.9075 -0.4028
 2167SOL     OW 6820   1.372   0.122   3.650  0.3201 -0.3473 -0.3189
 2167SOL    HW1 6821   1.347   0.164   3.563 -1.1175 -0.4373  0.0106
 2167SOL    HW2 6822   1.439   0.049   3.635  1.3964  0.7782 -1.1154
 2168SOL     OW 6823   3.323   1.068   2.508 -0.0603  0.0949  0.2426
 2168SOL    HW1 6824   3.241   1.122   2.527  1.2393  2.4051 -0.3489
 2168SOL    HW2 6825   3.388   1.079   2.583 -0.1860 -1.6725  0.6767
 2169SOL     OW 6826   3.743   1.039   3.647 -0.0095 -0.3037 -0.8635
 2169SOL    HW1 6827   3.716   0.946   3.669  0.5677 -0.0532  1.2055
 2169SOL    HW2 6828   3.837   1.054   3.678 -0.5758  1.3473  0.2260
 2170SOL     OW 6829   2.287   5.516   2.109 -0.1817 -0.0620 -0.5805
 2170SOL    HW1 6830   2.225   5.457   2.057  0.2891 -0.4781 -0.6728
 2170SOL    HW2 6831   2.314   5.594   2.052  1.5659 -1.3087 -1.5681
 2171SOL     OW 6832   1.664   0.937   1.472  0.3844 -0.8247 -0.1760
 2171SOL    HW1 6833   1.650   0.902   1.380 -0.8461 -0.5466 -0.1104
 2171SOL    HW2 6834   1.581   0.983   1.503  1.3663  0.6133  0.4101
 2172SOL     OW 6835   2.170   1.031   2.428 -0.1406  0.0815 -0.2634
 2172SOL    HW1 6836   2.146   0.976   2.348  0.6489  0.1639 -0.5641
 2172SOL    HW2 6837   2.179   0.970   2.507 -0.7137 -0.0282 -0.2777
 2173SOL     OW 6838   1.725   5.104   4.669  0.7803 -0.2362 -0.2709
 2173SOL    HW1 6839   1.770   5.078   4.755  0.0336  1.3435  0.6502
 2173SOL    HW2 6840   1.655   5.172   4.688  1.8343  1.5509 -2.3774
 2174SOL     OW 6841   3.146   0.547   3.529 -0.3092 -0.0381  0.2497
 2174SOL    HW1 6842   3.092   0.463   3.542  1.2266 -0.8241  2.0350
 2174SOL    HW2 6843   3.084   0.625   3.521 -1.7700 -1.2256 -0.8111
 2175SOL     OW 6844   2.707   1.077   3.906 -0.3846 -0.5715  0.5287
 2175SOL    HW1 6845   2.785   1.135   3.926 -0.9010  0.1376  0.5325
 2175SOL    HW2 6846   2.666   1.105   3.819 -1.5724  0.1203  1.2816
 2176SOL     OW 6847   1.915   1.217   2.032  0.5490 -0.6298  0.6438
 2176SOL    HW1 6848   1.995   1.200   1.975  0.8302  0.6824  0.6064
 2176SOL    HW2 6849   1.892   1.134   2.084  1.1910 -1.3819 -0.2443
 2177SOL     OW 6850   1.010   1.888   2.329  0.3362 -0.6280  0.2863
 2177SOL    HW1 6851   1.009   1.864   2.232  0.5592  0.0754  0.1062
 2177SOL    HW2 6852   1.014   1.987   2.339  2.6589 -0.7381  0.9925
 2178SOL     OW 6853   1.577   5.369   3.787  1.2340  0.0576  0.7993
 2178SOL    HW1 6854   1.523   5.335   3.864  1.1331  0.3315  0.8526
 2178SOL    HW2 6855   1.641   5.299   3.757  0.9912 -0.1953  0.8710
 2179SOL     OW 6856   2.875   0.793   4.202  0.5114 -0.4941 -0.0273
 2179SOL    HW1 6857   2.971   0.820   4.205 -0.0044  1.4873  0.0037
 2179SOL    HW2 6858   2.862   0.724   4.130  1.7302  0.1594 -0.9168
 2180SOL     OW 6859   2.271   0.623   2.021 -0.0822 -0.4567 -0.2289
 2180SOL    HW1 6860   2.267   0.679   1.938  0.7020 -0.7847 -0.4961
 2180SOL    HW2 6861   2.359   0.575   2.025  0.0972 -0.0480  1.0642
 2181SOL     OW 6862   3.359   1.590   5.279  0.5815  0.2717  0.4362
 2181SOL    HW1 6863   3.323   1.497   5.268  0.9521  0.1935 -0.1702
 2181SOL    HW2 6864   3.284   1.651   5.306  0.2200 -0.1019  0.2983
 2182SOL     OW 6865   3.875   0.757   2.658 -0.5378 -0.3314 -0.4408
 2182SOL    HW1 6866   3.903   0.729   2.566 -0.1925 -2.2709  0.2163
 2182SOL    HW2 6867   3.836   0.679   2.706 -0.1008  0.4842  1.3112
 2183SOL     OW 6868   1.474   0.386   2.733  0.9691 -0.6871 -0.1723
 2183SOL    HW1 6869   1.429   0.428   2.654  0.6513 -1.0354 -0.1817
 2183SOL    HW2 6870   1.487   0.288   2.714  0.1493 -0.9426  0.5364
 2184SOL     OW 6871   3.584   1.221   3.784 -0.0852  0.0192  0.0718
 2184SOL    HW1 6872   3.561   1.307   3.739  0.3238  0.9010  1.4537
 2184SOL    HW2 6873   3.634   1.162   3.721 -0.5757  0.6875 -0.9712
 2185SOL     OW 6874   2.108   2.460   2.699 -0.2220 -0.1469 -0.3041
 2185SOL    HW1 6875   2.113   2.529   2.771  0.4141 -1.0400  0.5444
 2185SOL    HW2 6876   2.137   2.500   2.612  0.3251  0.6068  0.2107
 2186SOL     OW 6877   3.325   1.675   2.740  0.6973  0.1414 -0.0223
 2186SOL    HW1 6878   3.295   1.719   2.656 -0.5365 -0.6474 -0.0231
 2186SOL    HW2 6879   3.275   1.714   2.818  1.0214  0.0945  0.2118
 2187SOL     OW 6880   3.226   0.529   1.863  0.6350  0.7121  0.2588
 2187SOL    HW1 6881   3.158   0.594   1.895  0.1019  0.7023 -0.8051
 2187SOL    HW2 6882   3.186   0.470   1.792  1.4803  0.0945  0.2692
 2188SOL     OW 6883   1.289   1.201   1.364  0.3026 -0.1442 -0.1837
 2188SOL    HW1 6884   1.267   1.298   1.371 -0.0350 -0.3017  1.4638
 2188SOL    HW2 6885   1.340   1.184   1.280 -0.8753  1.2036 -1.2079
 2189SOL     OW 6886   2.636   0.288   2.645 -0.4299  0.9667 -0.3186
 2189SOL    HW1 6887   2.579   0.244   2.715 -1.0446  1.0123 -0.7781
 2189SOL    HW2 6888   2.577   0.322   2.572  0.3967 -1.9979 -2.5399
 2190SOL     OW 6889   1.417   1.561   4.738  0.3128  0.3017 -0.0397
 2190SOL    HW1 6890   1.374   1.623   4.803  0.8015  0.6485 -0.0347
 2190SOL    HW2 6891   1.500   1.604   4.701 -0.2101  0.3216 -1.2591
 2191SOL     OW 6892   3.146   2.399   1.061 -0.5497  0.0218  0.4736
 2191SOL    HW1 6893   3.089   2.383   1.142  0.1526  1.7694  1.3743
 2191SOL    HW2 6894   3.241   2.410   1.090 -0.1188 -0.3679 -0.7350
 2192SOL     OW 6895   0.848   5.473   2.666  0.2317  0.0011  0.4363
 2192SOL    HW1 6896   0.851   5.566   2.629 -0.8868  0.0150  0.3589
 2192SOL    HW2 6897   0.795   5.414   2.604 -0.9793 -0.1645  1.5830
 2193SOL     OW 6898   3.604   1.042   1.517  0.2873  0.7504  0.0614
 2193SOL    HW1 6899   3.597   0.975   1.592 -1.1270  0.3518 -0.3867
 2193SOL    HW2 6900   3.687   1.096   1.528 -0.0818  0.9867  2.1766
 2194SOL     OW 6901   2.499   1.518   1.445  0.0985  0.0154  0.1732
 2194SOL    HW1 6902   2.426   1.535   1.379 -0.6126 -1.1675  0.6180
 2194SOL    HW2 6903   2.476   1.437   1.500  0.9543  0.6018  1.4515
 2195SOL     OW 6904   2.931   5.148   2.570  0.2564  0.0567  0.4531
 2195SOL    HW1 6905   3.015   5.186   2.609  0.4766 -1.3787  1.4276
 2195SOL    HW2 6906   2.854   5.169   2.629  0.1220  0.2947  0.1983
 2196SOL     OW 6907   2.179   0.792   3.378  0.1519  0.4050  0.1138
 2196SOL    HW1 6908   2.126   0.742   3.310 -0.7510  1.9308 -0.3714
 2196SOL    HW2 6909   2.144   0.774   3.469 -0.3653  0.3984 -0.0870
 2197SOL     OW 6910   2.765   1.225   2.601  0.4323  0.4391  0.5052
 2197SOL    HW1 6911   2.814   1.179   2.527 -0.5511 -0.1073  0.1714
 2197SOL    HW2 6912   2.686   1.169   2.628  0.2943  1.0442  1.3819
 2198SOL     OW 6913   2.164   0.078   3.161 -0.0055  0.2959  0.1693
 2198SOL    HW1 6914   2.085   0.031   3.199  0.1640  0.5807  0.9027
 2198SOL    HW2 6915   2.152   0.177   3.172 -0.0535  0.4003 -0.7388
 2199SOL     OW 6916   3.690   1.380   3.295 -0.7984  0.3915 -0.0942
 2199SOL    HW1 6917   3.776   1.424   3.320  0.1310 -0.5853 -1.4453
 2199SOL    HW2 6918   3.700   1.280   3.301 -1.8052  0.2623 -0.3582
 2200SOL     OW 6919   2.900   5.121   1.906  0.3576  0.2666 -0.1536
 2200SOL    HW1 6920   2.983   5.094   1.858  0.2732  0.5658 -0.4696
 2200SOL    HW2 6921   2.838   5.042   1.912  1.4258 -0.5077  1.7364
 2201SOL     OW 6922   2.081   0.630   3.194 -0.1818  0.2926 -0.1521
 2201SOL    HW1 6923   2.011   0.567   3.226  1.9648 -2.6399 -0.8089
 2201SOL    HW2 6924   2.140   0.584   3.127  2.0692  2.7592 -0.0507
 2202SOL     OW 6925   3.128   1.404   4.706  0.2991 -0.5857 -0.3935
 2202SOL    HW1 6926   3.136   1.321   4.761 -0.0706 -1.4936 -1.6430
 2202SOL    HW2 6927   3.089   1.477   4.762  0.4851 -1.2909  0.6990
 2203SOL     OW 6928   3.382   0.452   4.537  0.3449  0.2086  0.3774
 2203SOL    HW1 6929   3.353   0.421   4.447  0.8195 -1.3085  0.7262
 2203SOL    HW2 6930   3.452   0.391   4.573  1.3712  1.7466  1.0844
 2204SOL     OW 6931   1.162   1.941   3.601  0.4257 -0.3902 -0.5282
 2204SOL    HW1 6932   1.233   1.882   3.641 -0.7519 -2.7406 -1.6828
 2204SOL    HW2 6933   1.144   1.911   3.507 -2.1072  0.0916 -0.2527
 2205SOL     OW 6934   2.811   0.583   1.714  0.1009  0.0206 -0.6307
 2205SOL    HW1 6935   2.877   0.658   1.706 -0.0604  0.1834 -0.4274
 2205SOL    HW2 6936   2.802   0.538   1.625  0.3426  0.1203 -0.7061
 2206SOL     OW 6937   2.983   5.243   1.551 -0.0773  0.1050 -0.2700
 2206SOL    HW1 6938   2.968   5.232   1.649  0.8088 -2.1220 -0.3212
 2206SOL    HW2 6939   3.041   5.323   1.535  1.6611 -0.7548  1.2730
 2207SOL     OW 6940   3.510   2.089   0.478 -0.3899 -0.2698  0.8480
 2207SOL    HW1 6941   3.599   2.059   0.512 -0.1637 -0.2383  0.2971
 2207SOL    HW2 6942   3.462   2.011   0.437  0.2951  0.1253 -0.7937
 2208SOL     OW 6943   3.219   0.113   1.081  0.0455  0.5949  0.4438
 2208SOL    HW1 6944   3.289   0.134   1.013 -1.2181  0.5433 -0.9226
 2208SOL    HW2 6945   3.133   0.160   1.057 -0.4565  0.5010  1.9585
 2209SOL     OW 6946   2.951   4.277   2.374  0.2187 -0.4228 -0.4227
 2209SOL    HW1 6947   2.940   4.195   2.431 -2.3402 -0.4916 -0.9051
 2209SOL    HW2 6948   3.020   4.337   2.415 -0.1655 -1.3360  1.7222
 2210SOL     OW 6949   2.736   0.099   2.352 -0.3436 -0.1330  0.0307
 2210SOL    HW1 6950   2.750   0.030   2.281  0.3966 -0.0282  0.0634
 2210SOL    HW2 6951   2.812   0.165   2.349 -1.1422  0.8013 -0.1392
 2211SOL     OW 6952   3.309   1.148   4.451  0.4245  0.1654  0.1478
 2211SOL    HW1 6953   3.259   1.234   4.439  1.7727  1.1352  1.1289
 2211SOL    HW2 6954   3.392   1.150   4.395 -0.3692 -1.2481 -1.1481
 2212SOL     OW 6955   2.969   0.334   3.611  0.5295  0.3606  0.0251
 2212SOL    HW1 6956   2.941   0.275   3.687  2.0959  1.3180  1.4463
 2212SOL    HW2 6957   3.019   0.281   3.544 -0.7308 -0.4760 -0.2777
 2213SOL     OW 6958   2.523   1.369   2.018  0.2502 -0.3566 -0.1783
 2213SOL    HW1 6959   2.468   1.351   1.936 -1.5337  0.9762  0.6738
 2213SOL    HW2 6960   2.593   1.297   2.027 -0.4006 -1.3103 -2.0771
 2214SOL     OW 6961   1.998   0.389   1.321 -0.4245 -0.2597  0.2843
 2214SOL    HW1 6962   2.082   0.350   1.284 -0.9197  0.2062 -1.3908
 2214SOL    HW2 6963   2.014   0.484   1.348 -0.4135 -0.1631 -0.0586
 2215SOL     OW 6964   1.415   5.211   3.962 -0.6789 -0.0135 -0.0366
 2215SOL    HW1 6965   1.479   5.215   4.040 -0.9814  0.6764  0.1827
 2215SOL    HW2 6966   1.420   5.120   3.920  0.5387  0.0676 -0.1043
 2216SOL     OW 6967   1.160   0.522   3.545 -0.4128  0.0501 -0.2938
 2216SOL    HW1 6968   1.153   0.424   3.525 -0.3880 -0.0779  0.3131
 2216SOL    HW2 6969   1.256   0.545   3.564 -0.4784  0.1127 -0.0383
 2217SOL     OW 6970   2.295   0.165   2.763 -0.3705  0.2029  0.2464
 2217SOL    HW1 6971   2.236   0.106   2.818 -0.1265 -0.4783 -0.2090
 2217SOL    HW2 6972   2.376   0.114   2.734 -0.6685  0.4374 -1.0417
 2218SOL     OW 6973   2.484   0.428   2.461 -0.2381  0.1170 -0.1017
 2218SOL    HW1 6974   2.533   0.512   2.436 -0.1540 -0.4197 -1.8796
 2218SOL    HW2 6975   2.399   0.452   2.508  0.9241  1.1024  1.5859
 2219SOL     OW 6976   3.402   0.085   4.436  0.2177  0.2939 -0.1952
 2219SOL    HW1 6977   3.325   0.025   4.459  1.0003 -0.5962  0.1777
 2219SOL    HW2 6978   3.370   0.159   4.377 -0.8258 -0.3420 -0.4606
 2220SOL     OW 6979   3.562   0.634   3.234  0.2223 -0.0466 -0.1917
 2220SOL    HW1 6980   3.473   0.626   3.190 -0.1933 -0.8439  0.7672
 2220SOL    HW2 6981   3.552   0.685   3.319  0.4111 -1.3333  0.6240
 2221SOL     OW 6982   3.242   5.354   1.760  0.3044  0.7377  0.1873
 2221SOL    HW1 6983   3.219   5.383   1.667  2.2443  1.5914 -0.0671
 2221SOL    HW2 6984   3.341   5.360   1.773 -0.0355  1.8005  2.7090
 2222SOL     OW 6985   2.334   0.996   1.894  0.4432 -0.2155  0.2389
 2222SOL    HW1 6986   2.424   0.954   1.909  0.5718  0.0637  0.2652
 2222SOL    HW2 6987   2.278   0.936   1.839  1.3584  0.4768 -1.5297
 2223SOL     OW 6988   4.971   1.038   1.883 -0.2228 -0.4704 -0.0553
 2223SOL    HW1 6989   5.061   1.001   1.862  0.0545  0.6304 -0.9093
 2223SOL    HW2 6990   4.917   1.043   1.799 -0.5710  0.1909  0.2015
 2224SOL     OW 6991   2.272   0.048   2.364  0.2509 -0.4381 -0.5296
 2224SOL    HW1 6992   2.362   0.017   2.393 -0.7331 -2.3904  0.6557
 2224SOL    HW2 6993   2.259   0.027   2.267  0.6001 -1.3346 -0.3893
 2225SOL     OW 6994   2.647   0.011   2.966 -0.1233 -0.1090  0.3549
 2225SOL    HW1 6995   2.725   0.071   2.948 -0.2634  0.3060  1.0688
 2225SOL    HW2 6996   2.589   0.053   3.036 -2.4890  0.9652 -2.0871
 2226SOL     OW 6997   3.820   1.141   4.322  0.3478 -0.3855 -0.3922
 2226SOL    HW1 6998   3.847   1.234   4.347  1.3575 -0.9112  0.5501
 2226SOL    HW2 6999   3.798   1.089   4.404 -1.8805 -0.5268 -1.0021
 2227SOL     OW 7000   2.704   1.618   4.039 -0.1504 -0.1398 -0.1257
 2227SOL    HW1 7001   2.647   1.698   4.022 -1.0928 -0.6810  0.3867
 2227SOL    HW2 7002   2.747   1.589   3.954 -0.9333  0.0611 -0.6019
 2228SOL     OW 7003   3.710   1.827   4.363 -0.2516 -0.6915  0.1439
 2228SOL    HW1 7004   3.658   1.875   4.434  0.8087  2.1874 -0.8453
 2228SOL    HW2 7005   3.651   1.813   4.283 -0.0060  1.2981 -0.4550
 2229SOL     OW 7006   3.780   1.109   3.364 -0.2938  0.5682 -0.1412
 2229SOL    HW1 7007   3.863   1.062   3.333  0.1469  1.1872  0.0684
 2229SOL    HW2 7008   3.760   1.083   3.458 -1.4232 -1.0303 -0.7941
 2230SOL     OW 7009   3.984   1.744   2.829 -0.2391  0.1229 -0.3861
 2230SOL    HW1 7010   4.013   1.658   2.870  0.4312  0.9100  0.8642
 2230SOL    HW2 7011   4.064   1.796   2.799 -0.5890  0.6308 -0.4619
 2231SOL     OW 7012   1.926   0.399   3.328  0.0130  0.0570 -0.5708
 2231SOL    HW1 7013   1.827   0.393   3.327  0.0687 -1.1424  0.1567
 2231SOL    HW2 7014   1.957   0.422   3.420  0.4504 -0.3250 -0.6203
 2232SOL     OW 7015   2.278   5.035   4.135 -0.2365  0.3951  0.0875
 2232SOL    HW1 7016   2.296   4.990   4.222  0.6033  0.1960 -0.1812
 2232SOL    HW2 7017   2.362   5.077   4.102 -0.5397  0.4279 -0.6496
 2233SOL     OW 7018   0.933   1.427   3.246  0.1679 -0.3469  0.3782
 2233SOL    HW1 7019   1.003   1.461   3.308  1.2103  2.1568 -1.9389
 2233SOL    HW2 7020   0.952   1.332   3.223  0.4580 -0.9406  2.7994
 2234SOL     OW 7021   0.014   1.187   2.876 -0.0486 -0.2344  0.1047
 2234SOL    HW1 7022  -0.019   1.183   2.970  2.0400  0.8091  0.9522
 2234SOL    HW2 7023   0.114   1.182   2.875 -0.0579 -1.2544 -2.1573
 2235SOL     OW 7024   4.411   0.416   3.401 -0.3945 -0.6027 -0.1845
 2235SOL    HW1 7025   4.331   0.419   3.461 -0.5049 -0.4644 -0.3374
 2235SOL    HW2 7026   4.476   0.349   3.436 -1.5677 -2.4092 -1.2921
 2236SOL     OW 7027   1.321   2.160   3.364 -0.1887 -0.0524  0.4218
 2236SOL    HW1 7028   1.362   2.153   3.273 -1.0997 -0.3848  0.0174
 2236SOL    HW2 7029   1.228   2.122   3.361 -0.7514  1.1970  1.1532
 2237SOL     OW 7030   2.101   1.281   2.436 -0.6724 -0.1592 -0.7645
 2237SOL    HW1 7031   2.185   1.334   2.448 -1.2998  0.4813  1.2821
 2237SOL    HW2 7032   2.123   1.184   2.430  0.2182  0.0125 -0.4177
 2238SOL     OW 7033   2.079   0.080   1.643 -0.1954 -0.3469 -0.7819
 2238SOL    HW1 7034   1.993   0.105   1.599  0.5393  2.8259 -0.7195
 2238SOL    HW2 7035   2.076   0.107   1.740  1.6361  2.2857 -1.3462
 2239SOL     OW 7036   3.143   1.478   2.388 -1.0180  0.5191 -0.0781
 2239SOL    HW1 7037   3.096   1.543   2.448  0.9254  1.9956 -0.0638
 2239SOL    HW2 7038   3.237   1.465   2.420 -1.3018 -2.3269 -0.1194
 2240SOL     OW 7039   3.571   1.065   2.649 -0.3441 -0.8968 -0.5734
 2240SOL    HW1 7040   3.663   1.102   2.664 -1.1804  0.9721  0.2703
 2240SOL    HW2 7041   3.543   1.012   2.729 -1.1771  1.2371  0.6482
 2241SOL     OW 7042   4.142   0.956   2.321  0.4995 -0.5070 -0.0757
 2241SOL    HW1 7043   4.097   1.042   2.346  0.8855 -0.7007  1.3546
 2241SOL    HW2 7044   4.239   0.974   2.303  0.5165 -0.5958 -0.0713
 2242SOL     OW 7045   3.512   1.570   3.289  0.2903  0.2916 -0.8705
 2242SOL    HW1 7046   3.584   1.502   3.284 -0.2404 -0.3652  0.0412
 2242SOL    HW2 7047   3.528   1.630   3.368  0.1571  0.5202 -1.0139
 2243SOL     OW 7048   1.857   0.188   3.070 -0.2809  0.4885  0.5516
 2243SOL    HW1 7049   1.759   0.202   3.056 -0.4706 -0.1898  1.1457
 2243SOL    HW2 7050   1.871   0.128   3.148  0.5630 -0.6104 -0.4143
 2244SOL     OW 7051   4.394   1.029   3.622  0.2030  0.1093 -0.9052
 2244SOL    HW1 7052   4.401   1.114   3.571  0.7236  0.5101 -0.1923
 2244SOL    HW2 7053   4.480   1.013   3.671 -0.8090  0.6205  1.1739
 2245SOL     OW 7054   2.929   5.262   3.653  0.4046  0.0454 -0.7648
 2245SOL    HW1 7055   2.931   5.223   3.561 -1.2358 -3.1955  0.4227
 2245SOL    HW2 7056   2.972   5.199   3.717  0.8306  1.8888  0.8693
 2246SOL     OW 7057   1.202   0.068   3.209 -0.2484  0.5693  0.1097
 2246SOL    HW1 7058   1.244  -0.010   3.163 -0.9578 -0.9651  1.9577
 2246SOL    HW2 7059   1.110   0.083   3.173 -0.0737  0.6320 -0.3169
 2247SOL     OW 7060   1.608   5.467   2.402  0.5247  0.1646  0.1910
 2247SOL    HW1 7061   1.536   5.507   2.459 -2.4655 -2.0217 -1.7202
 2247SOL    HW2 7062   1.658   5.399   2.455 -0.6124 -0.1649  0.8742
 2248SOL     OW 7063   3.551   1.626   4.173 -0.1160 -0.1083  0.0715
 2248SOL    HW1 7064   3.643   1.585   4.174  0.9052  1.9870 -0.6997
 2248SOL    HW2 7065   3.510   1.613   4.083 -1.1012 -2.0099  0.7443
 2249SOL     OW 7066   2.435   0.255   1.394 -0.0819 -0.3314  0.6820
 2249SOL    HW1 7067   2.404   0.301   1.477  1.5965 -1.1145  1.7969
 2249SOL    HW2 7068   2.535   0.255   1.391 -0.0868 -1.6657 -0.5745
 2250SOL     OW 7069   1.739   5.450   2.160  0.5161 -0.1373  0.1327
 2250SOL    HW1 7070   1.824   5.500   2.174  0.2358  0.4759 -0.2812
 2250SOL    HW2 7071   1.691   5.440   2.247  1.3651 -1.1663  0.5065
 2251SOL     OW 7072   2.397   0.913   3.219 -0.3753 -0.3989  0.3088
 2251SOL    HW1 7073   2.323   0.855   3.254  0.1654 -1.0832  0.3423
 2251SOL    HW2 7074   2.462   0.856   3.168 -1.6541  0.6500 -2.7417
 2252SOL     OW 7075   1.303   1.147   2.133 -0.3535  0.3235  0.0174
 2252SOL    HW1 7076   1.244   1.071   2.103 -0.6927 -0.4255  2.3268
 2252SOL    HW2 7077   1.399   1.124   2.116 -0.3532 -1.2812  1.8239
 2253SOL     OW 7078   3.830   1.331   3.891  0.6844 -0.0236  0.2001
 2253SOL    HW1 7079   3.734   1.319   3.866  0.4059 -0.7664  1.5065
 2253SOL    HW2 7080   3.883   1.252   3.858  0.2470 -1.2034  2.1285
 2254SOL     OW 7081   3.403   5.263   2.248 -0.0336  0.1756  0.0917
 2254SOL    HW1 7082   3.475   5.279   2.181  0.1084 -0.6454  0.0458
 2254SOL    HW2 7083   3.314   5.260   2.202  0.2132 -2.0477 -0.3212
 2255SOL     OW 7084   3.079   4.988   1.541  0.1219 -0.0736  0.1803
 2255SOL    HW1 7085   3.030   5.075   1.534 -0.6755 -0.4792  0.6065
 2255SOL    HW2 7086   3.134   4.974   1.459 -0.9435  0.1095 -0.5835
 2256SOL     OW 7087   2.111   0.744   3.629  0.8922  0.0132 -0.8461
 2256SOL    HW1 7088   2.018   0.769   3.655  1.0888 -0.9813  1.0059
 2256SOL    HW2 7089   2.175   0.774   3.700  1.8031 -0.5732 -1.3950
 2257SOL     OW 7090   1.726   1.140   4.240 -0.1289 -0.1296 -0.6293
 2257SOL    HW1 7091   1.745   1.042   4.237 -2.1246 -0.5526 -1.3924
 2257SOL    HW2 7092   1.761   1.179   4.325  0.9336 -1.4422 -0.4429
 2258SOL     OW 7093   4.290   1.469   3.745  0.1467 -0.2550 -0.0303
 2258SOL    HW1 7094   4.362   1.457   3.814  0.9136 -2.7240 -1.1525
 2258SOL    HW2 7095   4.237   1.385   3.736 -0.4564  0.2654 -1.8594
 2259SOL     OW 7096   3.146   5.288   4.126 -0.0635 -0.3036  0.0027
 2259SOL    HW1 7097   3.153   5.291   4.026  1.1413  0.7650  0.1048
 2259SOL    HW2 7098   3.101   5.371   4.158 -1.5393 -1.1826  0.2934
 2260SOL     OW 7099   2.876   0.773   2.224 -0.6538 -0.5724 -0.0188
 2260SOL    HW1 7100   2.941   0.774   2.300 -0.9845  2.3848  0.3353
 2260SOL    HW2 7101   2.917   0.726   2.146  1.3974  0.0380  0.6348
 2261SOL     OW 7102   1.803   0.793   1.693 -0.7981  0.1821  0.9578
 2261SOL    HW1 7103   1.821   0.710   1.640  2.2777  1.0807  0.4299
 2261SOL    HW2 7104   1.753   0.858   1.637  2.3799  1.1068 -1.0625
 2262SOL     OW 7105   3.798   0.970   4.544  0.4473  0.0764 -0.1684
 2262SOL    HW1 7106   3.766   0.877   4.525 -1.7832  0.7578 -0.1047
 2262SOL    HW2 7107   3.764   0.999   4.633 -1.5282  1.9354 -1.4139
 2263SOL     OW 7108   1.888   0.188   1.489  0.2733 -0.1346 -0.4158
 2263SOL    HW1 7109   1.822   0.148   1.426  1.8786 -1.8322 -1.0932
 2263SOL    HW2 7110   1.938   0.261   1.443  1.0349 -0.9769 -0.9530
 2264SOL     OW 7111   1.929   5.045   3.091  0.1389  0.3094 -0.1725
 2264SOL    HW1 7112   2.002   4.980   3.113  0.6294 -0.2671 -3.1074
 2264SOL    HW2 7113   1.968   5.131   3.058 -0.3040 -0.5813 -3.4089
 2265SOL     OW 7114   3.307   5.381   5.004 -0.4948 -0.3892 -0.2237
 2265SOL    HW1 7115   3.393   5.427   4.980  0.5824 -1.4934  1.3054
 2265SOL    HW2 7116   3.261   5.432   5.076 -0.0953 -0.8521  0.3655
 2266SOL     OW 7117   3.505   1.477   3.674  0.1021  0.5176  0.2586
 2266SOL    HW1 7118   3.419   1.440   3.639  0.5436 -0.7783  0.4652
 2266SOL    HW2 7119   3.536   1.552   3.616 -1.0401  0.8424  0.0488
 2267SOL     OW 7120   2.047   2.311   1.260 -0.3718 -0.7697 -0.2321
 2267SOL    HW1 7121   2.142   2.282   1.272  0.2392  1.1563 -0.0138
 2267SOL    HW2 7122   1.987   2.252   1.314  0.8615 -1.0175  0.9302
 2268SOL     OW 7123   0.645   1.265   2.937 -0.5227  0.8311 -0.0834
 2268SOL    HW1 7124   0.568   1.287   2.998 -1.5267 -3.2356  0.4344
 2268SOL    HW2 7125   0.610   1.219   2.855  1.2954 -2.0720  0.6412
 2269SOL     OW 7126   3.218   1.854   3.415  0.0416 -0.7693 -0.0574
 2269SOL    HW1 7127   3.121   1.879   3.412  0.3288  0.2651 -1.7039
 2269SOL    HW2 7128   3.249   1.851   3.510 -1.2472  0.2647  0.4168
 2270SOL     OW 7129   3.371   0.774   3.903  0.0856  0.1771  0.4706
 2270SOL    HW1 7130   3.442   0.844   3.913 -0.4237  0.7644  0.1047
 2270SOL    HW2 7131   3.333   0.778   3.810  1.3799 -1.9022 -0.2210
 2271SOL     OW 7132   1.754   1.916   2.854  0.2366 -0.3920 -0.1357
 2271SOL    HW1 7133   1.725   1.822   2.868  0.2945 -0.3724  0.1364
 2271SOL    HW2 7134   1.852   1.924   2.876  0.5292 -0.5201 -1.3136
 2272SOL     OW 7135   1.747   0.400   2.667  0.3810 -0.3942 -0.1678
 2272SOL    HW1 7136   1.808   0.414   2.745  1.4876 -1.0029 -0.8935
 2272SOL    HW2 7137   1.653   0.423   2.693  0.7575 -0.3959  1.2725
 2273SOL     OW 7138   3.264   1.022   2.834  1.0019  0.1051  0.7636
 2273SOL    HW1 7139   3.177   0.982   2.807  1.4887 -0.6797  0.3327
 2273SOL    HW2 7140   3.249   1.115   2.867  0.1903  0.5475 -0.7725
 2274SOL     OW 7141   1.742   0.503   2.070 -0.9221 -0.1670  0.3854
 2274SOL    HW1 7142   1.757   0.406   2.052 -1.0296 -0.2449  0.7092
 2274SOL    HW2 7143   1.821   0.542   2.117 -1.5193 -0.4728  1.6858
 2275SOL     OW 7144   2.009   1.034   2.866  0.7786  0.1975 -0.1168
 2275SOL    HW1 7145   1.931   1.081   2.910 -1.5584  0.2465 -3.8691
 2275SOL    HW2 7146   2.064   1.101   2.817  1.9657 -0.1299  0.7348
 2276SOL     OW 7147   1.718   0.906   3.963 -0.1719  0.1802  0.1501
 2276SOL    HW1 7148   1.796   0.967   3.955 -1.0926  1.6596  1.7840
 2276SOL    HW2 7149   1.642   0.942   3.908  0.3556 -1.4795 -1.7882
 2277SOL     OW 7150   1.951   1.032   3.914 -0.0307 -0.2710 -0.2286
 2277SOL    HW1 7151   1.988   1.117   3.952 -0.3620  0.0526 -0.6224
 2277SOL    HW2 7152   2.021   0.961   3.918 -0.2397 -0.4222  1.5336
 2278SOL     OW 7153   1.902   0.537   1.642 -0.0221 -0.0382 -0.5857
 2278SOL    HW1 7154   1.813   0.493   1.631  0.5906 -1.2407 -0.9155
 2278SOL    HW2 7155   1.942   0.554   1.552 -0.4471  1.6512 -0.4772
 2279SOL     OW 7156   0.782   0.669   3.871 -0.3346 -0.3394 -0.1523
 2279SOL    HW1 7157   0.792   0.715   3.783  1.3337 -1.0915 -0.4102
 2279SOL    HW2 7158   0.834   0.719   3.940 -1.6342  0.2448  0.4317
 2280SOL     OW 7159   4.143   1.680   3.799 -0.2798 -0.0612  0.2622
 2280SOL    HW1 7160   4.192   1.600   3.764  0.6341  0.3112  0.6619
 2280SOL    HW2 7161   4.167   1.695   3.895 -1.9220 -0.4295  0.7637
 2281SOL     OW 7162   3.010   0.682   2.525  0.2312  0.2560  0.5634
 2281SOL    HW1 7163   3.052   0.662   2.437 -2.4657 -1.1857 -0.4982
 2281SOL    HW2 7164   2.942   0.613   2.546  0.0099  1.1790  3.3000
 2282SOL     OW 7165   2.981   1.380   2.804  0.1644  0.0148  0.1625
 2282SOL    HW1 7166   3.009   1.316   2.732  2.2685  1.2504 -0.2094
 2282SOL    HW2 7167   2.882   1.374   2.818  0.1515 -2.5471 -0.5527
 2283SOL     OW 7168   3.129   0.947   2.361  0.1653 -0.1185  0.2406
 2283SOL    HW1 7169   3.194   0.953   2.437 -1.2521  3.0938  1.3869
 2283SOL    HW2 7170   3.047   1.000   2.383 -0.5553  0.5099 -3.3255
 2284SOL     OW 7171   1.696   2.064   2.282  0.1809  0.1808 -0.1642
 2284SOL    HW1 7172   1.733   2.153   2.255  1.1579 -0.4645 -1.0452
 2284SOL    HW2 7173   1.723   2.044   2.376 -0.2649  0.9162  0.1298
 2285SOL     OW 7174   4.170   0.004   3.132 -0.0771 -0.3117  0.3761
 2285SOL    HW1 7175   4.128  -0.048   3.206 -0.3293 -0.3026  0.2404
 2285SOL    HW2 7176   4.173   0.101   3.158 -0.7262 -0.2209  0.1207
 2286SOL     OW 7177   3.805   2.534   2.868  0.6114 -0.4007 -0.4961
 2286SOL    HW1 7178   3.809   2.437   2.844 -1.2561 -0.9344  1.1194
 2286SOL    HW2 7179   3.880   2.555   2.931  2.2748 -0.2365 -2.4075
 2287SOL     OW 7180   3.162   1.141   3.679 -0.3332  0.1559  0.5202
 2287SOL    HW1 7181   3.066   1.127   3.654 -0.3209  1.7880 -0.6092
 2287SOL    HW2 7182   3.173   1.128   3.778 -1.6375 -0.4330  0.6058
 2288SOL     OW 7183   3.059   1.779   3.809 -0.1535 -0.2508 -0.7125
 2288SOL    HW1 7184   2.962   1.767   3.786 -0.2862 -2.0805  0.5859
 2288SOL    HW2 7185   3.082   1.876   3.808 -1.8994  0.1853 -1.4297
 2289SOL     OW 7186   2.238   1.983   2.323 -0.4458 -0.2378 -0.0644
 2289SOL    HW1 7187   2.181   1.920   2.270  1.7406 -1.2357 -1.4298
 2289SOL    HW2 7188   2.292   1.931   2.389  0.3450  0.3745 -0.2146
 2290SOL     OW 7189   4.676   3.158   3.408 -0.0512 -0.1951  0.1446
 2290SOL    HW1 7190   4.621   3.134   3.487 -0.3788  0.4019  0.1079
 2290SOL    HW2 7191   4.624   3.220   3.349  0.6263  0.3225  0.0703
 2291SOL     OW 7192   2.184   5.584   2.920 -0.0056 -0.7411  0.3497
 2291SOL    HW1 7193   2.214   5.489   2.910 -0.9654 -1.0728  0.5987
 2291SOL    HW2 7194   2.192   5.612   3.015  2.4825  0.2010 -0.0441
 2292SOL     OW 7195   0.432   0.759   3.178 -0.1558  0.3893  0.2359
 2292SOL    HW1 7196   0.402   0.673   3.218 -1.6038  1.1972  0.9998
 2292SOL    HW2 7197   0.532   0.766   3.183  0.0867 -1.7067 -0.8962
 2293SOL     OW 7198   3.157   1.386   1.535 -0.5706  0.1964 -0.2096
 2293SOL    HW1 7199   3.200   1.358   1.620 -0.8277  1.8489  0.5143
 2293SOL    HW2 7200   3.225   1.386   1.462  0.6742  2.3912  0.8262
 2294SOL     OW 7201   3.173   1.402   4.451 -0.5207 -0.0578 -0.1292
 2294SOL    HW1 7202   3.166   1.405   4.551  0.4107  0.1696 -0.0625
 2294SOL    HW2 7203   3.220   1.484   4.418  1.9009 -1.4943 -0.4766
 2295SOL     OW 7204   3.784   0.302   2.230  0.0670  0.6679 -0.2628
 2295SOL    HW1 7205   3.692   0.342   2.239 -0.9375 -1.3112 -1.1408
 2295SOL    HW2 7206   3.789   0.250   2.145  2.1076  0.9189 -0.3311
 2296SOL     OW 7207   3.980   0.903   2.095  0.3347  0.4199 -0.2385
 2296SOL    HW1 7208   4.053   0.923   2.161 -0.1714  0.3515  0.3591
 2296SOL    HW2 7209   3.956   0.806   2.100 -0.2304  0.5670  0.0359
 2297SOL     OW 7210   1.996   1.682   3.225  0.2671 -0.0711 -0.3411
 2297SOL    HW1 7211   2.062   1.664   3.298  0.0788  0.7512  0.0496
 2297SOL    HW2 7212   1.941   1.762   3.249  0.3118  0.3207 -1.4647
 2298SOL     OW 7213   4.024   1.194   2.354  0.2350 -0.4634  0.0073
 2298SOL    HW1 7214   3.980   1.284   2.359  0.3409 -0.4396  0.7171
 2298SOL    HW2 7215   4.108   1.201   2.301  0.8592  0.1315  1.0357
 2299SOL     OW 7216   2.801   1.134   3.051 -0.8512  0.5641  0.2409
 2299SOL    HW1 7217   2.872   1.204   3.035 -0.8683  0.2656 -1.1752
 2299SOL    HW2 7218   2.745   1.163   3.129  0.5193  1.0358  1.1130
 2300SOL     OW 7219   3.112   0.789   3.172  0.0847  0.0772 -0.4040
 2300SOL    HW1 7220   3.181   0.722   3.200  0.1378  0.1884 -0.2694
 2300SOL    HW2 7221   3.156   0.876   3.151  0.0800 -0.0800 -1.1044
 2301SOL     OW 7222   3.156   1.466   3.012 -0.1818 -0.5512 -0.0602
 2301SOL    HW1 7223   3.109   1.432   2.930  0.9680 -1.7462 -0.2572
 2301SOL    HW2 7224   3.172   1.564   3.003 -1.8226 -0.2797 -0.3718
 2302SOL     OW 7225   2.950   0.522   2.898 -0.2597 -0.3450 -0.7163
 2302SOL    HW1 7226   2.906   0.488   2.815 -1.3006  0.7257 -0.6434
 2302SOL    HW2 7227   2.928   0.619   2.909  1.0781 -0.1080  0.0412
 2303SOL     OW 7228   1.022   2.139   2.708  0.4809  0.7381  0.4593
 2303SOL    HW1 7229   0.999   2.043   2.688  0.1495  0.5357  1.7149
 2303SOL    HW2 7230   1.120   2.153   2.697  0.5367  0.2432  0.3052
 2304SOL     OW 7231   2.866   1.503   4.244  0.5036  0.0990 -0.2425
 2304SOL    HW1 7232   2.810   1.543   4.172 -1.4905 -1.3584  0.3950
 2304SOL    HW2 7233   2.944   1.563   4.264 -0.6796  2.0996 -1.3446
 2305SOL     OW 7234   1.983   4.504   2.789  0.0495 -0.1891  0.4070
 2305SOL    HW1 7235   1.933   4.589   2.806 -1.6646 -1.2226  0.6904
 2305SOL    HW2 7236   2.055   4.494   2.858 -0.7072  0.3030  1.2903
 2306SOL     OW 7237   1.792   2.037   1.855 -0.1225  0.1459  0.2243
 2306SOL    HW1 7238   1.722   1.966   1.849  0.8556 -0.7246 -1.8501
 2306SOL    HW2 7239   1.857   2.014   1.927 -1.6015  0.7185  1.8417
 2307SOL     OW 7240   3.137   1.150   4.001 -0.6306  0.1737 -0.8262
 2307SOL    HW1 7241   3.039   1.169   3.998 -0.5434  1.4939  1.5811
 2307SOL    HW2 7242   3.186   1.235   4.020  0.7729 -0.7862 -0.0026
 2308SOL     OW 7243   2.291   5.176   1.908  0.2493  0.2764  0.8284
 2308SOL    HW1 7244   2.270   5.093   1.959 -0.8135 -0.4394 -0.7017
 2308SOL    HW2 7245   2.385   5.173   1.875  0.0718 -0.5824  0.3636
 2309SOL     OW 7246   3.708   1.849   2.290  0.3690  0.3477  0.5986
 2309SOL    HW1 7247   3.616   1.823   2.261  0.7248 -1.2854  0.8521
 2309SOL    HW2 7248   3.756   1.892   2.214  0.6646 -2.2196 -0.7465
 2310SOL     OW 7249   2.994   0.742   3.599 -0.2741  0.8651 -0.0556
 2310SOL    HW1 7250   3.010   0.748   3.697 -0.3512 -1.0930  0.1147
 2310SOL    HW2 7251   2.897   0.756   3.580 -0.2781  1.1280  0.1581
 2311SOL     OW 7252   4.173   0.667   2.289 -0.0083  0.3846 -0.7441
 2311SOL    HW1 7253   4.163   0.761   2.322  1.8277  0.2581  0.3757
 2311SOL    HW2 7254   4.144   0.604   2.361 -0.2029  0.0998 -1.0733
 2312SOL     OW 7255   2.024   5.394   3.263  0.0675  0.3164 -0.4717
 2312SOL    HW1 7256   2.031   5.339   3.180  2.9448 -2.4480  1.3500
 2312SOL    HW2 7257   1.985   5.339   3.337 -1.2574  2.2984  0.4238
 2313SOL     OW 7258   3.382   2.566   3.737 -0.0259 -0.1674  0.1998
 2313SOL    HW1 7259   3.390   2.518   3.650  0.7100 -0.8740  0.6391
 2313SOL    HW2 7260   3.425   2.511   3.809  0.3990  0.9386  0.8129
 2314SOL     OW 7261   1.467   1.870   3.372  0.1059  0.4570  0.5488
 2314SOL    HW1 7262   1.515   1.865   3.284 -0.1382  0.7249  0.4004
 2314SOL    HW2 7263   1.456   1.966   3.399 -2.6005  0.5762 -0.6642
 2315SOL     OW 7264   3.396   0.577   4.096 -0.2068  0.2485 -0.0739
 2315SOL    HW1 7265   3.386   0.669   4.058  0.4495  0.6753  0.7576
 2315SOL    HW2 7266   3.317   0.522   4.071  0.4664  0.3012 -2.6074
 2316SOL     OW 7267   3.607   5.392   2.517  0.2122 -0.5889  0.3422
 2316SOL    HW1 7268   3.578   5.464   2.580  0.1361 -0.4881  0.1932
 2316SOL    HW2 7269   3.562   5.404   2.429  0.8988 -0.2839  0.0241
 2317SOL     OW 7270   1.637   0.660   1.878  0.2072 -0.7630 -0.4881
 2317SOL    HW1 7271   1.664   0.594   1.949  1.5761 -0.5571 -0.7909
 2317SOL    HW2 7272   1.718   0.686   1.825 -0.4353  0.6667 -0.7905
 2318SOL     OW 7273   3.526   1.145   4.276 -0.2911 -0.2341 -0.3528
 2318SOL    HW1 7274   3.483   1.179   4.193 -1.5492  2.3175  1.2189
 2318SOL    HW2 7275   3.620   1.177   4.280 -1.3180  2.9960  0.8769
 2319SOL     OW 7276   4.115   0.588   3.336  0.7891  0.0363  0.0497
 2319SOL    HW1 7277   4.126   0.628   3.427  1.8549 -1.4613  0.6186
 2319SOL    HW2 7278   4.039   0.633   3.289  0.5915  1.2380  1.4447
 2320SOL     OW 7279   3.595   1.068   3.154  0.4475  0.1289 -0.4277
 2320SOL    HW1 7280   3.645   1.081   3.239  0.5834  0.1562 -0.5110
 2320SOL    HW2 7281   3.498   1.089   3.168  0.4133 -0.1847 -0.2015
 2321SOL     OW 7282   3.205   1.738   2.980 -0.1974  0.3019  0.5471
 2321SOL    HW1 7283   3.130   1.804   2.977 -0.3210  0.1252 -1.5162
 2321SOL    HW2 7284   3.260   1.754   3.062 -1.9336  1.0172  1.6430
 2322SOL     OW 7285   3.258   1.005   3.464  0.2799  0.3876 -0.0282
 2322SOL    HW1 7286   3.249   1.056   3.549 -1.1001 -1.8577  1.2861
 2322SOL    HW2 7287   3.169   1.000   3.419 -0.0679 -2.2228  0.7937
 2323SOL     OW 7288   3.008   1.565   2.601  0.0195 -0.4170 -0.1429
 2323SOL    HW1 7289   3.017   1.506   2.681  1.7744  0.4400  0.3405
 2323SOL    HW2 7290   2.980   1.656   2.629  1.3958  0.1078 -0.3598
 2324SOL     OW 7291   4.583   1.212   4.757  0.1540  0.0078 -0.2036
 2324SOL    HW1 7292   4.599   1.119   4.723 -0.6092 -0.2386  0.0925
 2324SOL    HW2 7293   4.486   1.224   4.776  0.2342  0.9003 -0.3236
 2325SOL     OW 7294   2.969   1.337   3.312  0.4280 -0.4558 -0.1390
 2325SOL    HW1 7295   3.056   1.384   3.298  1.6162 -2.6778 -0.7658
 2325SOL    HW2 7296   2.920   1.378   3.389  1.8239  1.1118 -0.0408
 2326SOL     OW 7297   3.229   1.437   3.278 -0.6927 -0.0684  0.0252
 2326SOL    HW1 7298   3.326   1.462   3.290 -1.0435  0.8681  1.0825
 2326SOL    HW2 7299   3.199   1.466   3.187  0.3123 -1.4305 -0.7771
 2327SOL     OW 7300   2.779   1.750   3.742  0.0833  0.5206  0.0132
 2327SOL    HW1 7301   2.750   1.842   3.766  0.2322  0.4111  0.6290
 2327SOL    HW2 7302   2.715   1.710   3.676  0.8247  1.6079 -1.4177
 2328SOL     OW 7303   2.249   0.468   3.017 -0.1596 -0.1460 -0.3934
 2328SOL    HW1 7304   2.223   0.427   2.929  0.7660  2.1450 -1.8200
 2328SOL    HW2 7305   2.343   0.503   3.011 -0.9318  2.2877  0.6408
 2329SOL     OW 7306   1.286   4.748   2.850 -0.5642  0.1124 -0.1279
 2329SOL    HW1 7307   1.306   4.693   2.931  0.2693  0.5322 -0.0429
 2329SOL    HW2 7308   1.263   4.688   2.774  1.8325 -0.4596 -0.4611
 2330SOL     OW 7309   4.124   1.625   2.234 -0.2467 -0.4696  0.4896
 2330SOL    HW1 7310   4.167   1.654   2.320 -0.1684 -0.3783  0.4208
 2330SOL    HW2 7311   4.081   1.703   2.190 -1.8194 -0.8439  1.3018
 2331SOL     OW 7312   3.626   4.904   4.173 -0.5468  0.1643 -0.3190
 2331SOL    HW1 7313   3.557   4.976   4.167 -0.9966 -0.3593 -3.4757
 2331SOL    HW2 7314   3.708   4.939   4.218 -1.0538  2.4248 -1.0349
 2332SOL     OW 7315   2.612   0.759   3.133 -0.5955  0.1648  0.0793
 2332SOL    HW1 7316   2.672   0.701   3.187  0.0676 -1.2474 -2.0192
 2332SOL    HW2 7317   2.549   0.701   3.080  1.3829  1.0714 -3.5940
 2333SOL     OW 7318   2.891   0.169   2.674 -0.0179  0.3821 -0.1034
 2333SOL    HW1 7319   2.902   0.074   2.645  0.8318 -0.2262  2.0037
 2333SOL    HW2 7320   2.803   0.204   2.641 -0.1773 -1.0005 -1.2357
 2334SOL     OW 7321   2.562   0.525   3.534 -0.1382  0.2259  0.3646
 2334SOL    HW1 7322   2.632   0.476   3.482 -1.0292  0.1639 -0.8326
 2334SOL    HW2 7323   2.476   0.522   3.483 -1.2649 -0.4786  2.2133
 2335SOL     OW 7324   2.526   0.258   2.251 -0.0381 -0.1029 -0.5770
 2335SOL    HW1 7325   2.599   0.192   2.263  2.7594  2.6554 -1.2132
 2335SOL    HW2 7326   2.514   0.310   2.335 -1.1277 -0.3424 -0.5673
 2336SOL     OW 7327   2.254   1.203   2.840  0.3414  0.4663  0.4550
 2336SOL    HW1 7328   2.259   1.182   2.938  0.2461  0.6851  0.5056
 2336SOL    HW2 7329   2.303   1.288   2.822 -0.3832  0.8791  0.4401
 2337SOL     OW 7330   4.083   0.675   3.605 -0.0382  0.8486 -0.3042
 2337SOL    HW1 7331   3.997   0.683   3.555  0.0178 -0.2918 -0.6172
 2337SOL    HW2 7332   4.067   0.699   3.701 -0.9987 -0.4945 -0.0956
 2338SOL     OW 7333   1.932   0.056   2.106  0.3938 -0.1833  0.3709
 2338SOL    HW1 7334   1.983   0.062   2.192  1.9649 -0.3012 -0.5059
 2338SOL    HW2 7335   1.986   0.098   2.033 -2.0600  2.3545 -0.1148
 2339SOL     OW 7336   3.035   0.716   3.882 -0.3983 -0.0329 -0.3005
 2339SOL    HW1 7337   3.113   0.776   3.901  0.7685 -0.2637 -3.7363
 2339SOL    HW2 7338   2.950   0.769   3.885  0.1106  0.7456  1.1274
 2340SOL     OW 7339   3.095   0.998   2.073 -0.0401  0.1325  0.6116
 2340SOL    HW1 7340   3.066   0.995   2.168 -0.3247  0.5542  0.5411
 2340SOL    HW2 7341   3.194   0.987   2.067  0.0217  0.4892  0.9821
 2341SOL     OW 7342   2.122   1.283   1.865  0.3366 -0.5945  0.2478
 2341SOL    HW1 7343   2.106   1.375   1.827 -1.3304 -0.4739  1.1120
 2341SOL    HW2 7344   2.167   1.292   1.954  0.2390 -0.6004  0.2988
 2342SOL     OW 7345   2.581   0.708   3.744  0.1051 -0.1080  0.3438
 2342SOL    HW1 7346   2.576   0.640   3.670  0.8105 -2.0606  2.0081
 2342SOL    HW2 7347   2.522   0.679   3.819  0.3950  1.1710  1.0843
 2343SOL     OW 7348   0.586   0.533   4.175 -0.5649 -0.3842  0.2858
 2343SOL    HW1 7349   0.591   0.604   4.105  0.6365 -1.2915 -0.5883
 2343SOL    HW2 7350   0.665   0.472   4.167 -1.0472 -1.2419  1.6501
 2344SOL     OW 7351   2.124   0.422   4.707 -0.3061  0.0020  0.2127
 2344SOL    HW1 7352   2.147   0.463   4.795 -1.3528 -0.5207  0.7450
 2344SOL    HW2 7353   2.163   0.477   4.634  0.9974  0.1802  1.0044
 2345SOL     OW 7354   0.817   0.401   4.208  0.3199 -0.2350  0.3037
 2345SOL    HW1 7355   0.911   0.368   4.204 -0.1193 -1.4515 -0.6341
 2345SOL    HW2 7356   0.755   0.325   4.229 -0.4921  0.4783  0.5741
 2346SOL     OW 7357   4.312   1.497   5.175 -0.9260 -0.3436  0.0987
 2346SOL    HW1 7358   4.248   1.452   5.237 -0.9975  1.9309  1.8064
 2346SOL    HW2 7359   4.263   1.557   5.112 -0.6242 -0.2793 -0.0823
 2347SOL     OW 7360   2.747   0.267   3.954 -0.1757 -0.9920  0.5970
 2347SOL    HW1 7361   2.673   0.284   3.887  0.9145 -0.7832 -0.6003
 2347SOL    HW2 7362   2.830   0.313   3.923  0.6483 -1.7815  1.5817
 2348SOL     OW 7363   3.462   0.740   4.469 -0.2582  0.3084 -0.1949
 2348SOL    HW1 7364   3.445   0.812   4.537 -0.9301  0.7295 -0.8059
 2348SOL    HW2 7365   3.415   0.657   4.497  0.8773 -0.0552  0.7446
 2349SOL     OW 7366   3.219   4.777   4.732 -0.1344  0.4696  0.3282
 2349SOL    HW1 7367   3.286   4.742   4.798 -0.4674 -0.4898  0.1703
 2349SOL    HW2 7368   3.227   4.727   4.646  0.8365  2.2465 -0.6718
 2350SOL     OW 7369   3.102   2.240   0.096  0.0555 -0.7275 -1.2158
 2350SOL    HW1 7370   3.145   2.150   0.098  1.6540 -0.0162  1.7767
 2350SOL    HW2 7371   3.162   2.305   0.049  0.3246 -0.5953 -0.6907
 2351SOL     OW 7372   3.071   5.536   4.214  0.1679 -0.2598  0.3855
 2351SOL    HW1 7373   3.070   5.540   4.313 -0.3261  1.2912  0.3505
 2351SOL    HW2 7374   2.997   5.593   4.178 -0.2485 -1.5368 -0.8632
 2352SOL     OW 7375   3.198   1.374   5.330 -0.1852  0.5057  0.2911
 2352SOL    HW1 7376   3.261   1.299   5.351 -1.3527 -0.0617  1.9731
 2352SOL    HW2 7377   3.135   1.386   5.406 -2.0823  1.1153 -1.3082
 2353SOL     OW 7378   1.246   0.338   4.644  0.2913  0.0018 -0.6035
 2353SOL    HW1 7379   1.245   0.252   4.695 -1.5175 -0.3953 -1.2404
 2353SOL    HW2 7380   1.340   0.364   4.625  0.9376 -0.9253  1.0865
 2354SOL     OW 7381   3.986   1.691  -0.003 -0.3541 -0.0387 -0.0100
 2354SOL    HW1 7382   4.060   1.706   0.063 -0.3302  0.8012 -0.2114
 2354SOL    HW2 7383   3.912   1.640   0.040 -0.5411  0.8967  0.8185
 2355SOL     OW 7384   3.123   1.478   0.448 -0.0033 -0.7553  0.1632
 2355SOL    HW1 7385   3.121   1.577   0.467  0.3564 -0.5914 -0.5842
 2355SOL    HW2 7386   3.030   1.443   0.443 -0.1673 -0.2412 -0.5726
 2356SOL     OW 7387   4.957   1.310   4.243 -0.1145 -0.0054 -0.0170
 2356SOL    HW1 7388   5.047   1.296   4.203 -0.4704 -1.7419 -0.3152
 2356SOL    HW2 7389   4.966   1.329   4.340  0.6519  1.9890 -0.4370
 2357SOL     OW 7390   2.106   2.427   4.922  0.0706  0.0306 -0.3682
 2357SOL    HW1 7391   2.067   2.381   5.002  0.1780  1.1572  0.3423
 2357SOL    HW2 7392   2.134   2.520   4.946 -0.8747  0.7758 -1.9747
 2358SOL     OW 7393   3.043   1.478   5.533  0.4317 -0.0214  1.0083
 2358SOL    HW1 7394   3.083   1.445   5.618 -0.7901  1.9247  2.4240
 2358SOL    HW2 7395   2.947   1.504   5.548  0.3800  1.0338 -0.7725
 2359SOL     OW 7396   2.147   1.448   4.495 -0.2546 -0.4940 -0.1606
 2359SOL    HW1 7397   2.067   1.507   4.499 -0.1410 -0.2416 -1.3855
 2359SOL    HW2 7398   2.194   1.460   4.408  0.5047 -1.4400  0.0958
 2360SOL     OW 7399   1.112   5.114   4.823  0.0263  0.2486 -0.3090
 2360SOL    HW1 7400   1.149   5.206   4.832  0.9103 -0.0690 -0.5425
 2360SOL    HW2 7401   1.013   5.117   4.826  0.0635  1.1245  0.4057
 2361SOL     OW 7402   1.838   0.435   0.287  0.0395 -0.0854  0.4375
 2361SOL    HW1 7403   1.905   0.361   0.284  0.3009  0.1672  0.0236
 2361SOL    HW2 7404   1.863   0.498   0.361  0.6460  0.3658 -0.1358
 2362SOL     OW 7405   2.016   1.352   2.973  0.0504  0.1187 -0.1150
 2362SOL    HW1 7406   1.984   1.329   2.881  0.8834 -1.2575 -0.0937
 2362SOL    HW2 7407   2.095   1.412   2.967 -0.3195  0.5877 -0.2791
 2363SOL     OW 7408   3.451   4.883   0.493 -0.0702  0.1084 -0.4176
 2363SOL    HW1 7409   3.520   4.829   0.542  0.4623  0.6132 -0.5933
 2363SOL    HW2 7410   3.384   4.822   0.450 -0.0960 -0.3696  0.2796
 2364SOL     OW 7411   2.675   0.930   2.912  0.0046  0.0897  0.0108
 2364SOL    HW1 7412   2.649   0.883   2.997 -2.8381  1.5938  0.1041
 2364SOL    HW2 7413   2.732   1.009   2.934 -0.4859  0.3098  0.5194
 2365SOL     OW 7414   3.708   2.728   4.158 -0.4685 -0.9899  0.0552
 2365SOL    HW1 7415   3.608   2.728   4.153 -0.5639 -1.1754  1.4507
 2365SOL    HW2 7416   3.737   2.750   4.251  0.8064 -0.6289 -0.4012
 2366SOL     OW 7417   1.828   2.913   3.572 -0.1513 -0.5193 -0.4237
 2366SOL    HW1 7418   1.777   2.874   3.649 -0.9908  1.8777  0.3446
 2366SOL    HW2 7419   1.915   2.865   3.562 -0.1762 -1.1557  1.7851
 2367SOL     OW 7420   3.120   1.642   4.138 -0.2447  0.3617 -0.3508
 2367SOL    HW1 7421   3.135   1.717   4.203 -0.7506  0.2019 -0.0421
 2367SOL    HW2 7422   3.074   1.678   4.056 -1.3292  0.2410  0.1862
 2368SOL     OW 7423   3.261   5.058   4.685 -0.5153  0.5252  0.3099
 2368SOL    HW1 7424   3.254   5.104   4.774  0.5237 -0.6545  1.0161
 2368SOL    HW2 7425   3.216   4.969   4.690  0.3686  0.0482 -0.0562
 2369SOL     OW 7426   1.820   2.483   0.274  0.1738 -0.6707 -0.3034
 2369SOL    HW1 7427   1.838   2.417   0.201  3.2388  0.7120 -0.9724
 2369SOL    HW2 7428   1.766   2.559   0.238  0.6272 -0.5858 -0.8136
 2370SOL     OW 7429   1.605   0.875   5.047 -0.1834  0.1436  0.4800
 2370SOL    HW1 7430   1.699   0.883   5.014 -0.3491  0.7440  0.1268
 2370SOL    HW2 7431   1.542   0.896   4.972 -0.5948 -0.0578  0.7668
 2371SOL     OW 7432   3.172   1.205   4.895 -0.1112 -0.0847 -0.3713
 2371SOL    HW1 7433   3.210   1.114   4.882 -2.4427 -1.2241  0.1379
 2371SOL    HW2 7434   3.081   1.197   4.937  0.3797  2.5706  1.4220
 2372SOL     OW 7435   4.607   4.750   4.604 -0.3713  0.0889  0.3181
 2372SOL    HW1 7436   4.618   4.729   4.506 -0.4663 -1.2701  0.5837
 2372SOL    HW2 7437   4.533   4.695   4.642 -1.4732  1.8327  0.8056
 2373SOL     OW 7438   1.636   0.154   4.867 -0.2075  0.2457 -0.4539
 2373SOL    HW1 7439   1.578   0.117   4.794  0.7402 -0.9521 -0.6261
 2373SOL    HW2 7440   1.714   0.093   4.882  0.8560  1.6747 -0.0129
 2374SOL     OW 7441   4.239   0.741   4.888  0.1987  0.3040  0.3465
 2374SOL    HW1 7442   4.312   0.808   4.900  0.1880  0.1446  1.4504
 2374SOL    HW2 7443   4.272   0.651   4.916  0.3795 -0.2895 -1.6081
 2375SOL     OW 7444   3.544   1.723   5.459 -0.4861  0.0542 -0.7876
 2375SOL    HW1 7445   3.466   1.676   5.416 -0.0033 -1.0822 -0.4493
 2375SOL    HW2 7446   3.536   1.821   5.443 -2.2993  0.0313 -0.2927
 2376SOL     OW 7447   2.606   5.361   0.346  0.4773  0.0937  0.0474
 2376SOL    HW1 7448   2.573   5.346   0.440 -0.9715 -0.5990 -0.5365
 2376SOL    HW2 7449   2.634   5.456   0.336  0.3709  0.2534  1.1086
 2377SOL     OW 7450   3.026   2.332   4.400 -0.1465 -0.7925 -0.0738
 2377SOL    HW1 7451   2.934   2.368   4.386 -0.0020 -0.0595  0.7472
 2377SOL    HW2 7452   3.023   2.251   4.458 -0.2100 -0.2286  0.7300
 2378SOL     OW 7453   3.263   0.949   4.903  0.5861 -0.0863  0.3251
 2378SOL    HW1 7454   3.333   0.930   4.973 -0.3108 -1.5562  0.8940
 2378SOL    HW2 7455   3.175   0.914   4.935 -0.2663  1.0679 -0.6933
 2379SOL     OW 7456   1.308   4.828   4.100  0.3141 -0.2923 -0.2551
 2379SOL    HW1 7457   1.377   4.868   4.040  0.2922 -0.9187 -0.7030
 2379SOL    HW2 7458   1.329   4.851   4.196  1.7495 -1.3725 -0.2822
 2380SOL     OW 7459   3.621   4.899   5.151 -0.0230 -0.1741  0.2529
 2380SOL    HW1 7460   3.672   4.955   5.215  2.0595 -0.5369 -1.0029
 2380SOL    HW2 7461   3.586   4.956   5.077  1.1009 -0.3208 -0.4126
 2381SOL     OW 7462   4.722   2.533   2.709 -0.5909 -0.2893  0.2735
 2381SOL    HW1 7463   4.800   2.481   2.742 -0.2704  0.2822  0.4269
 2381SOL    HW2 7464   4.698   2.502   2.617  0.4861  0.2518 -0.2018
 2382SOL     OW 7465   2.750   1.333   5.162 -0.3783  0.2628 -0.2086
 2382SOL    HW1 7466   2.747   1.237   5.191 -1.2801  0.7840  1.5175
 2382SOL    HW2 7467   2.844   1.359   5.142 -0.0520 -0.8246 -0.1350
 2383SOL     OW 7468   2.869   1.222   0.200  0.0622  0.2024  0.0312
 2383SOL    HW1 7469   2.806   1.145   0.206  0.3480 -0.3082 -2.4012
 2383SOL    HW2 7470   2.832   1.290   0.135  0.9414  0.9759  0.3191
 2384SOL     OW 7471   4.096   1.271   4.392  0.8495  0.0267 -0.5103
 2384SOL    HW1 7472   4.056   1.180   4.392  1.6878 -0.3838  0.9451
 2384SOL    HW2 7473   4.024   1.340   4.384 -0.2359 -0.6885  2.0405
 2385SOL     OW 7474   3.624   0.909   4.797  0.1988  0.1546  0.1628
 2385SOL    HW1 7475   3.614   0.815   4.831 -0.8140  0.5510  1.0235
 2385SOL    HW2 7476   3.558   0.925   4.724 -0.0647  0.3847  0.4493
 2386SOL     OW 7477   1.084   5.303   3.348  0.2383 -0.3858 -0.5862
 2386SOL    HW1 7478   1.088   5.210   3.312 -0.0588  0.0056 -1.6588
 2386SOL    HW2 7479   1.159   5.317   3.413  0.5457 -1.2335 -0.7523
 2387SOL     OW 7480   1.217   1.171   4.487 -0.1902  0.3321  0.4518
 2387SOL    HW1 7481   1.269   1.232   4.428  0.7082  1.2364  2.1121
 2387SOL    HW2 7482   1.206   1.213   4.577 -0.6426 -1.4386  1.2594
 2388SOL     OW 7483   3.715   5.462   4.276 -0.1148 -0.0329  0.2379
 2388SOL    HW1 7484   3.766   5.384   4.241  1.7729  0.8536  0.8966
 2388SOL    HW2 7485   3.629   5.430   4.317  0.5497 -1.7471  0.3801
 2389SOL     OW 7486   4.158   1.463   5.474 -0.1043  0.2989 -0.6895
 2389SOL    HW1 7487   4.065   1.434   5.449  0.2041  0.1528 -1.7230
 2389SOL    HW2 7488   4.154   1.552   5.521 -0.8551 -0.2753  0.3763
 2390SOL     OW 7489   4.016   0.839   4.182 -0.5487 -0.2582 -0.5286
 2390SOL    HW1 7490   3.939   0.775   4.185  0.8005 -1.9118  1.1296
 2390SOL    HW2 7491   4.076   0.816   4.106 -0.4812 -0.4559 -0.4156
 2391SOL     OW 7492   3.389   5.077   0.088  0.5089 -0.4550  0.3633
 2391SOL    HW1 7493   3.325   5.126   0.030  0.2593 -0.3073  0.7548
 2391SOL    HW2 7494   3.482   5.106   0.068  0.3211  0.7222  1.0855
 2392SOL     OW 7495   3.603   0.367   0.151 -0.4389  0.2536  0.4297
 2392SOL    HW1 7496   3.560   0.412   0.073  0.8499 -1.0260 -1.0667
 2392SOL    HW2 7497   3.535   0.357   0.224 -1.5275  1.9718 -0.2774
 2393SOL     OW 7498   2.889   2.219   4.780 -0.3030 -0.7485 -0.0973
 2393SOL    HW1 7499   2.958   2.206   4.852  0.7842  0.3278 -0.9131
 2393SOL    HW2 7500   2.855   2.313   4.783 -1.2053 -1.0618 -0.1826
 2394SOL     OW 7501   3.697   0.293   5.052  0.4062  0.2906 -0.1817
 2394SOL    HW1 7502   3.607   0.273   5.013  0.1722  1.2812 -0.1767
 2394SOL    HW2 7503   3.730   0.214   5.104 -0.2443 -0.2515 -0.5874
 2395SOL     OW 7504   3.978   1.962   0.537 -0.2309  0.1469  0.0710
 2395SOL    HW1 7505   3.901   1.902   0.512 -0.5437  1.5486 -2.8071
 2395SOL    HW2 7506   4.037   1.916   0.603 -3.5107 -0.9787  2.4796
 2396SOL     OW 7507   3.079   1.018   4.426  0.1585  0.7974  0.1634
 2396SOL    HW1 7508   3.167   1.058   4.451  0.2617  1.6243 -1.3498
 2396SOL    HW2 7509   3.088   0.968   4.339 -0.2572 -1.5496  1.3777
 2397SOL     OW 7510   3.882   0.343   0.498  0.2866 -0.1328  0.4530
 2397SOL    HW1 7511   3.827   0.293   0.564 -3.1155 -0.7263 -2.4717
 2397SOL    HW2 7512   3.927   0.279   0.436 -1.1106  0.2833 -1.0832
 2398SOL     OW 7513   3.009   0.883   5.270 -0.5718 -0.1665 -0.2757
 2398SOL    HW1 7514   3.001   0.894   5.171  0.8526 -1.6573 -0.5929
 2398SOL    HW2 7515   3.092   0.930   5.302  0.0441 -1.3500 -0.1040
 2399SOL     OW 7516   3.816   2.247   3.595 -0.4084 -0.3779 -0.2920
 2399SOL    HW1 7517   3.770   2.314   3.653  0.0568  1.2648 -1.7474
 2399SOL    HW2 7518   3.893   2.206   3.645 -0.6689  0.1970  0.5973
 2400SOL     OW 7519   3.593   1.068   5.425 -0.0037 -0.4820 -0.2736
 2400SOL    HW1 7520   3.546   1.017   5.497 -0.4492 -0.0897 -0.2803
 2400SOL    HW2 7521   3.528   1.090   5.352  0.6634 -1.7749 -1.3041
 2401SOL     OW 7522   3.195   1.905   4.781  0.0931  0.0962  0.4538
 2401SOL    HW1 7523   3.241   1.992   4.768  0.8676 -0.1744  1.2562
 2401SOL    HW2 7524   3.103   1.909   4.743 -0.1931  1.5477  1.2410
 2402SOL     OW 7525   2.504   1.819   3.955  0.4923  0.2685  0.2949
 2402SOL    HW1 7526   2.462   1.850   4.040  0.1424 -0.0828  0.2533
 2402SOL    HW2 7527   2.550   1.895   3.910  2.1879  0.1250  1.6611
 2403SOL     OW 7528   3.793   0.137   4.232  0.3160  0.0487  0.0390
 2403SOL    HW1 7529   3.785   0.182   4.321  2.3338  0.0482  0.2827
 2403SOL    HW2 7530   3.751   0.047   4.236 -0.5187  0.4523  0.6635
 2404SOL     OW 7531   1.328   1.043   5.278 -0.2527  0.1341 -0.1506
 2404SOL    HW1 7532   1.231   1.056   5.260 -0.1537  0.1318 -0.6869
 2404SOL    HW2 7533   1.343   0.950   5.313  0.0135 -1.2568 -3.6168
 2405SOL     OW 7534   1.885   1.603   0.081 -0.6420  0.3747 -0.0286
 2405SOL    HW1 7535   1.806   1.541   0.089 -0.4127  0.1797  0.9317
 2405SOL    HW2 7536   1.853   1.697   0.076 -1.0325  0.1692 -2.2983
 2406SOL     OW 7537   2.448   1.283   4.580 -0.0057 -0.0332 -0.6810
 2406SOL    HW1 7538   2.486   1.331   4.502 -1.5848 -0.4089 -1.7284
 2406SOL    HW2 7539   2.422   1.349   4.651  0.9636  0.3490 -0.6701
 2407SOL     OW 7540   3.703   5.053   5.418  0.0319 -0.2472 -0.0959
 2407SOL    HW1 7541   3.745   5.127   5.366  1.3468  0.7726  2.2384
 2407SOL    HW2 7542   3.667   5.089   5.504 -2.4830 -1.7703 -0.3987
 2408SOL     OW 7543   0.839   5.584   3.630 -0.0312  0.3717  0.0834
 2408SOL    HW1 7544   0.865   5.495   3.668  0.2253 -0.3543 -1.6809
 2408SOL    HW2 7545   0.756   5.616   3.676 -0.1337 -0.7701  0.7521
 2409SOL     OW 7546   2.420   1.052   0.458 -0.2625 -0.0624 -0.0059
 2409SOL    HW1 7547   2.437   1.069   0.361 -0.9118 -1.6075 -0.4206
 2409SOL    HW2 7548   2.427   1.138   0.509 -3.1414  1.4076 -1.8608
 2410SOL     OW 7549   2.369   1.401   4.811  0.0681  0.3369 -0.3705
 2410SOL    HW1 7550   2.288   1.384   4.867 -0.1989  0.1988 -0.7946
 2410SOL    HW2 7551   2.385   1.500   4.806 -0.4629  0.4032 -0.8278
 2411SOL     OW 7552   1.341   0.438   4.215 -0.1633 -0.3888 -0.0636
 2411SOL    HW1 7553   1.320   0.401   4.124 -1.2124 -1.1917  0.4871
 2411SOL    HW2 7554   1.282   0.517   4.233 -1.3722 -1.4368  0.6925
 2412SOL     OW 7555   1.810   1.166   4.515 -0.6409  0.5075 -0.6447
 2412SOL    HW1 7556   1.871   1.086   4.519  0.0890  1.0599 -0.5175
 2412SOL    HW2 7557   1.772   1.183   4.605 -0.1884  0.7577 -0.4965
 2413SOL     OW 7558   3.048   5.064   4.260  0.4328  0.0760  0.3062
 2413SOL    HW1 7559   3.085   5.141   4.208  0.8006 -0.1825  0.1862
 2413SOL    HW2 7560   2.968   5.095   4.312 -0.0200  0.3079 -0.5026
 2414SOL     OW 7561   2.484   0.109   3.184 -0.1183  0.1642  0.1753
 2414SOL    HW1 7562   2.390   0.140   3.170 -0.7668 -0.8931  1.9317
 2414SOL    HW2 7563   2.514   0.135   3.276  0.7635 -0.8422  0.1863
 2415SOL     OW 7564   3.855   0.962   4.923  0.0804 -0.1131 -0.0746
 2415SOL    HW1 7565   3.762   0.953   4.888  0.4140 -1.4291 -0.6930
 2415SOL    HW2 7566   3.871   0.894   4.994  0.7914 -0.3862 -0.4798
 2416SOL     OW 7567   3.130   5.285   4.558 -0.2599  0.0638  0.4684
 2416SOL    HW1 7568   3.185   5.203   4.577  0.1729  0.3466  0.4581
 2416SOL    HW2 7569   3.056   5.291   4.624  0.3822  0.2696  1.1840
 2417SOL     OW 7570   4.263   1.538   2.597 -0.3245  0.4906 -0.4602
 2417SOL    HW1 7571   4.165   1.542   2.577 -0.3576 -0.7198 -0.5690
 2417SOL    HW2 7572   4.308   1.476   2.534  0.7132  1.8386 -1.1001
 2418SOL     OW 7573   1.306   0.760   4.695 -0.7096 -0.4110  0.0300
 2418SOL    HW1 7574   1.230   0.695   4.692 -0.1702 -1.0633  0.2270
 2418SOL    HW2 7575   1.309   0.812   4.610 -1.4121 -0.3335  0.0458
 2419SOL     OW 7576   2.757   1.796   4.297  0.0565  0.0441 -0.3391
 2419SOL    HW1 7577   2.693   1.721   4.282 -0.8477  0.7174  0.0244
 2419SOL    HW2 7578   2.706   1.880   4.316  1.0634  0.4795  0.5466
 2420SOL     OW 7579   1.722   0.797   4.700  0.3187 -0.4526 -0.0352
 2420SOL    HW1 7580   1.648   0.759   4.645 -1.5359  2.1346  0.4833
 2420SOL    HW2 7581   1.739   0.737   4.778 -1.4627 -0.9937 -0.0089
 2421SOL     OW 7582   2.891   1.970   4.098 -0.0200  0.2313 -0.6675
 2421SOL    HW1 7583   2.840   1.904   4.153  0.4130  2.2031  2.3817
 2421SOL    HW2 7584   2.827   2.032   4.053 -0.4516  1.2802  1.2820
 2422SOL     OW 7585   4.220   0.954   4.672 -0.1800  1.2299  0.0095
 2422SOL    HW1 7586   4.179   0.936   4.583 -0.6204 -1.9087  0.7360
 2422SOL    HW2 7587   4.193   0.882   4.736  1.3669  2.5541  2.2812
 2423SOL     OW 7588   2.276   0.169   5.057  0.8329 -0.1952 -0.7225
 2423SOL    HW1 7589   2.358   0.166   5.000  1.4673 -0.2066  0.1721
 2423SOL    HW2 7590   2.298   0.139   5.150 -0.2653 -0.5566 -0.5516
 2424SOL     OW 7591   2.964   0.253   1.018  0.0707 -0.5572  0.0039
 2424SOL    HW1 7592   2.869   0.224   1.010  0.3387 -1.2054 -0.9254
 2424SOL    HW2 7593   2.967   0.351   1.040 -0.8048 -0.6037  0.3585
 2425SOL     OW 7594   2.574   0.435   5.173 -0.3574 -0.2799 -0.1413
 2425SOL    HW1 7595   2.656   0.468   5.220 -1.2661  0.7979  0.7526
 2425SOL    HW2 7596   2.522   0.514   5.139 -0.4140 -0.9898 -1.7969
 2426SOL     OW 7597   4.274   4.855   4.573 -0.3453  0.5496 -0.1875
 2426SOL    HW1 7598   4.228   4.768   4.554  1.3843 -0.8062  1.4203
 2426SOL    HW2 7599   4.271   4.873   4.671 -0.8252  2.4575 -0.5108
 2427SOL     OW 7600   2.707   1.682   4.952  0.1796 -0.4841  0.3340
 2427SOL    HW1 7601   2.679   1.728   4.867  0.2754 -0.4734  0.3079
 2427SOL    HW2 7602   2.691   1.584   4.943 -0.1362 -0.4450  0.4332
 2428SOL     OW 7603   2.855   0.185   4.358 -0.0812 -0.0196 -0.5217
 2428SOL    HW1 7604   2.856   0.175   4.259  0.0220  0.9067 -0.6247
 2428SOL    HW2 7605   2.796   0.116   4.399  0.0297 -0.5282 -1.2108
 2429SOL     OW 7606   4.497   0.767   5.116 -0.1863 -0.3336 -0.0727
 2429SOL    HW1 7607   4.496   0.834   5.042 -0.4935 -0.1472  0.0946
 2429SOL    HW2 7608   4.561   0.796   5.187  0.0453 -0.4688 -0.2290
 2430SOL     OW 7609   3.484   1.916   3.830 -0.5716  0.1671 -0.3244
 2430SOL    HW1 7610   3.447   1.919   3.923  0.1171  0.3202 -0.0431
 2430SOL    HW2 7611   3.583   1.904   3.835 -0.5959 -0.3909 -1.0560
 2431SOL     OW 7612   3.598   1.273   4.902  0.4908 -0.0360  0.0923
 2431SOL    HW1 7613   3.585   1.277   5.001 -1.7586 -1.2366 -0.0985
 2431SOL    HW2 7614   3.696   1.261   4.882  1.1065  1.1337  2.0864
 2432SOL     OW 7615   2.738   0.269   5.021 -0.6747 -0.1727  0.1937
 2432SOL    HW1 7616   2.675   0.334   5.064 -0.0509  0.0490  0.7947
 2432SOL    HW2 7617   2.829   0.311   5.014 -0.7086 -0.2644 -1.1983
 2433SOL     OW 7618   2.188   0.859   2.911  0.1260  0.4383 -0.4306
 2433SOL    HW1 7619   2.119   0.931   2.902  0.6996  1.1437  0.6251
 2433SOL    HW2 7620   2.178   0.815   3.000  0.6138  0.0900 -0.5475
 2434SOL     OW 7621   3.116   0.978   0.432 -0.4275  0.2885  0.3367
 2434SOL    HW1 7622   3.135   0.880   0.433  1.5074  0.6166 -0.1890
 2434SOL    HW2 7623   3.079   1.003   0.342  1.0753  0.3367 -0.3042
 2435SOL     OW 7624   3.384   0.517   0.435  0.0389 -0.6312  0.0935
 2435SOL    HW1 7625   3.433   0.581   0.376 -0.1771 -0.2805  0.2940
 2435SOL    HW2 7626   3.406   0.536   0.531  0.2071 -1.0497  0.1421
 2436SOL     OW 7627   4.462   0.602   1.152 -0.3881 -0.1133  0.1316
 2436SOL    HW1 7628   4.455   0.517   1.205  0.3127 -0.4456 -0.2841
 2436SOL    HW2 7629   4.432   0.679   1.208 -1.3933 -0.6742  0.3907
 2437SOL     OW 7630   1.705   2.807   5.510 -0.6422 -0.1867  0.4975
 2437SOL    HW1 7631   1.751   2.720   5.493 -1.5374 -0.7763  0.9962
 2437SOL    HW2 7632   1.652   2.833   5.429  0.1326  0.2254  0.1158
 2438SOL     OW 7633   2.720   1.185   4.324 -0.2690  0.1252  0.3307
 2438SOL    HW1 7634   2.659   1.263   4.314  2.2927  2.2426 -0.0254
 2438SOL    HW2 7635   2.789   1.205   4.394  2.0542 -0.6100 -1.5919
 2439SOL     OW 7636   2.216  -0.031   4.608  0.1750  0.2974  0.1061
 2439SOL    HW1 7637   2.134  -0.010   4.556  1.0308  0.9284 -1.0184
 2439SOL    HW2 7638   2.267   0.053   4.627 -0.1609  0.1132  2.0940
 2440SOL     OW 7639   3.280   2.365   4.912  0.4296 -0.1172 -0.3663
 2440SOL    HW1 7640   3.285   2.343   4.815  0.1447  0.2283 -0.4607
 2440SOL    HW2 7641   3.190   2.403   4.933  0.8139  0.6995 -0.1504
 2441SOL     OW 7642   4.741   0.577   4.815  0.0702  0.2436  0.6832
 2441SOL    HW1 7643   4.666   0.517   4.845 -0.0375 -0.1259 -0.2840
 2441SOL    HW2 7644   4.746   0.656   4.876 -3.3238  2.0584 -1.0497
 2442SOL     OW 7645   1.846   0.469   5.222  0.0468  0.3086  0.2609
 2442SOL    HW1 7646   1.829   0.427   5.133  3.2094 -0.8137  0.0425
 2442SOL    HW2 7647   1.768   0.453   5.282 -1.3325 -0.6466 -1.6823
 2443SOL     OW 7648   2.713   0.738   5.292  0.0234  0.2136 -0.1841
 2443SOL    HW1 7649   2.713   0.810   5.362  0.6706 -0.9297  1.0342
 2443SOL    HW2 7650   2.711   0.780   5.201  1.5111  1.8005  0.4616
 2444SOL     OW 7651   2.100   1.052   0.963 -0.0868  0.5426 -0.1495
 2444SOL    HW1 7652   2.173   1.106   1.005 -0.1717  0.0840  0.6046
 2444SOL    HW2 7653   2.137   0.963   0.935 -0.7550 -0.4941  2.0485
 2445SOL     OW 7654   2.860   0.999   4.594  0.1518  0.3379 -0.2288
 2445SOL    HW1 7655   2.877   1.083   4.645 -1.0548 -0.1526  1.0493
 2445SOL    HW2 7656   2.906   1.004   4.505 -0.8284  2.8178 -0.6771
 2446SOL     OW 7657   1.812   2.582   5.414  0.3108 -0.3756 -0.1387
 2446SOL    HW1 7658   1.772   2.531   5.338  1.9521 -0.2561 -1.1259
 2446SOL    HW2 7659   1.911   2.570   5.414  0.4437  0.4555  1.3885
 2447SOL     OW 7660   2.859   1.621   5.179 -0.1624 -0.1073 -0.3266
 2447SOL    HW1 7661   2.818   1.634   5.088  0.8285  0.2765 -0.7406
 2447SOL    HW2 7662   2.928   1.549   5.174  1.3145  1.2660 -0.3725
 2448SOL     OW 7663   3.399   1.459   4.778 -0.3607 -0.1425 -0.4698
 2448SOL    HW1 7664   3.311   1.414   4.761 -0.7319 -0.2544  1.4357
 2448SOL    HW2 7665   3.460   1.394   4.824  0.6932 -0.0176 -1.6425
 2449SOL     OW 7666   2.054   1.798   4.276  0.0859  0.3604 -0.0385
 2449SOL    HW1 7667   2.013   1.776   4.365  0.3941 -2.0600 -0.4348
 2449SOL    HW2 7668   2.138   1.850   4.291 -0.4185  0.9157  1.0244
 2450SOL     OW 7669   1.337   2.409   5.334 -0.3264  0.1249  0.4834
 2450SOL    HW1 7670   1.293   2.407   5.244 -0.7583 -0.9647  0.7079
 2450SOL    HW2 7671   1.429   2.371   5.327 -0.6008 -0.5665  0.6269
 2451SOL     OW 7672   3.300   0.692   5.151  0.7679 -0.2085  0.3876
 2451SOL    HW1 7673   3.341   0.632   5.083  1.4596 -0.8461  1.3349
 2451SOL    HW2 7674   3.213   0.654   5.182  0.5384 -0.0081 -0.0093
 2452SOL     OW 7675   5.143   0.142   0.048 -0.7278 -0.5269 -0.0081
 2452SOL    HW1 7676   5.163   0.196  -0.034  0.0147 -0.2899  0.3161
 2452SOL    HW2 7677   5.106   0.201   0.119 -2.3272 -0.9041 -0.4832
 2453SOL     OW 7678   3.198   5.130   5.409 -0.5227  0.2045 -0.2315
 2453SOL    HW1 7679   3.100   5.119   5.397 -0.7392  0.1097  1.4454
 2453SOL    HW2 7680   3.246   5.053   5.367 -1.1202  0.4071 -1.3303
 2454SOL     OW 7681   3.024   0.173   0.770 -0.0612  0.2218  0.0963
 2454SOL    HW1 7682   3.026   0.234   0.690  0.0290 -0.0234 -0.0887
 2454SOL    HW2 7683   2.989   0.224   0.849 -2.3366 -0.1425 -0.6054
 2455SOL     OW 7684   3.400   0.517   4.954 -0.0297  0.1852 -0.1515
 2455SOL    HW1 7685   3.411   0.418   4.942  2.5847  0.4720 -0.7732
 2455SOL    HW2 7686   3.342   0.553   4.881 -1.2116 -0.8895  0.2204
 2456SOL     OW 7687   3.577   0.295   4.171 -0.3803  0.2583 -0.1991
 2456SOL    HW1 7688   3.647   0.224   4.163  0.5977  0.9985  1.2555
 2456SOL    HW2 7689   3.612   0.369   4.227 -1.8738  1.2831 -0.5705
 2457SOL     OW 7690   3.409   0.873   4.229  0.3441  0.0101  0.5446
 2457SOL    HW1 7691   3.462   0.950   4.194 -1.8695  1.6503  0.5927
 2457SOL    HW2 7692   3.459   0.829   4.304  3.2582 -0.9169 -1.7629
 2458SOL     OW 7693   2.982   5.416   0.284  0.2578  0.1754 -0.2208
 2458SOL    HW1 7694   3.073   5.418   0.244 -0.3388 -0.9056 -1.6830
 2458SOL    HW2 7695   2.924   5.484   0.239  0.4242  1.2052  1.0313
 2459SOL     OW 7696   2.256   1.529   4.243 -0.9900 -0.1460  0.3066
 2459SOL    HW1 7697   2.291   1.467   4.172 -0.6163 -0.8277  1.0742
 2459SOL    HW2 7698   2.160   1.550   4.225 -1.7885 -2.6740  1.1913
 2460SOL     OW 7699   1.564   0.588   4.272  0.0469  0.0008  0.2632
 2460SOL    HW1 7700   1.545   0.675   4.316  1.6359  0.7667 -0.4757
 2460SOL    HW2 7701   1.478   0.538   4.259 -0.9427  1.5820  0.4086
 2461SOL     OW 7702   2.628   1.157   3.652  1.0732  0.0774 -0.0130
 2461SOL    HW1 7703   2.607   1.254   3.638 -0.3500 -0.0440  1.0590
 2461SOL    HW2 7704   2.625   1.110   3.564  0.2388  0.7462 -0.3661
 2462SOL     OW 7705   2.515   0.116   4.909 -0.5385  0.1465  0.3032
 2462SOL    HW1 7706   2.605   0.136   4.948 -0.7317  1.7451  0.0328
 2462SOL    HW2 7707   2.521   0.120   4.809 -0.8700  0.1089  0.2808
 2463SOL     OW 7708   3.943   0.317   3.625 -0.2069  0.0253  0.2027
 2463SOL    HW1 7709   3.940   0.241   3.689  0.8770 -0.7722 -0.6430
 2463SOL    HW2 7710   3.851   0.338   3.593 -0.3229 -3.1608 -2.0265
 2464SOL     OW 7711   2.830   0.369   0.011  0.2870 -0.0850  0.1351
 2464SOL    HW1 7712   2.913   0.382  -0.043 -0.2827 -0.2002 -0.7938
 2464SOL    HW2 7713   2.844   0.404   0.103  1.6337 -0.8345  0.2448
 2465SOL     OW 7714   2.819   2.588   5.313  0.2705  0.5079 -0.2136
 2465SOL    HW1 7715   2.762   2.517   5.356  0.6743 -1.0928 -2.1822
 2465SOL    HW2 7716   2.780   2.678   5.332 -1.3963 -0.3598  0.6956
 2466SOL     OW 7717   4.312   1.840   5.046  0.4552  0.1714 -0.2716
 2466SOL    HW1 7718   4.294   1.871   4.953  2.6541 -0.7829 -1.1064
 2466SOL    HW2 7719   4.411   1.846   5.064  0.3136 -1.4148  1.3207
 2467SOL     OW 7720   3.369   1.974   1.460  0.2717 -0.3134 -0.2360
 2467SOL    HW1 7721   3.464   1.947   1.445  0.4215  0.3686 -0.5259
 2467SOL    HW2 7722   3.330   2.008   1.374 -0.2252 -0.5653 -0.1119
 2468SOL     OW 7723   3.250   1.394   4.181 -0.3500  0.2235  0.7618
 2468SOL    HW1 7724   3.211   1.363   4.267 -0.3088 -1.2995  0.2696
 2468SOL    HW2 7725   3.207   1.479   4.153 -1.0713  0.2128  1.7845
 2469SOL     OW 7726   4.052   2.250   3.375 -0.1254 -0.4836  0.0073
 2469SOL    HW1 7727   3.998   2.307   3.313 -0.0771 -0.2520  0.1781
 2469SOL    HW2 7728   4.023   2.266   3.469  1.2016  0.6992  0.2395
 2470SOL     OW 7729   1.753   0.841   3.303 -0.3542 -0.3890  0.4485
 2470SOL    HW1 7730   1.820   0.792   3.247 -1.4324 -2.2603  0.6792
 2470SOL    HW2 7731   1.666   0.846   3.253 -0.5025  0.5610  0.7912
 2471SOL     OW 7732   2.032   5.471   3.860 -0.5035 -0.3658  0.0342
 2471SOL    HW1 7733   2.092   5.541   3.897  0.4360 -0.7460 -0.7184
 2471SOL    HW2 7734   1.944   5.512   3.834  0.8913  1.1374 -2.7779
 2472SOL     OW 7735   1.536   4.967   5.171 -0.4361  0.3569  0.1878
 2472SOL    HW1 7736   1.565   5.020   5.251  1.5373 -0.6748  0.2278
 2472SOL    HW2 7737   1.548   5.023   5.088  0.6725  0.3489  0.3257
 2473SOL     OW 7738   2.536   0.926   0.663 -0.2867  0.1759 -0.3274
 2473SOL    HW1 7739   2.475   0.965   0.594 -1.4302 -0.6029  0.1958
 2473SOL    HW2 7740   2.490   0.928   0.752  1.0913  1.0073  0.3987
 2474SOL     OW 7741   2.703   1.169   5.435  0.3065  0.5603  0.1864
 2474SOL    HW1 7742   2.693   1.260   5.396 -1.3967 -0.2844 -1.5502
 2474SOL    HW2 7743   2.613   1.132   5.458  0.9275 -0.7786  0.5661
 2475SOL     OW 7744   3.834   2.027   3.133 -0.0407  0.2178  0.0246
 2475SOL    HW1 7745   3.778   2.108   3.151 -1.7804 -0.6528 -1.2010
 2475SOL    HW2 7746   3.811   1.990   3.043 -0.2406 -2.3759  1.0509
 2476SOL     OW 7747   0.729   1.621   4.465  0.0495  0.1718 -0.0059
 2476SOL    HW1 7748   0.682   1.535   4.486 -0.4734  0.7454  1.3451
 2476SOL    HW2 7749   0.699   1.691   4.530  2.4266  0.6903  0.6115
 2477SOL     OW 7750   1.691   1.164   4.758 -0.4207  0.1758 -0.7603
 2477SOL    HW1 7751   1.666   1.241   4.817 -1.1701 -1.4072  1.1208
 2477SOL    HW2 7752   1.774   1.121   4.793 -1.0518 -0.9778 -0.6333
 2478SOL     OW 7753   3.905   0.068   3.754 -0.4981 -0.1018  0.8613
 2478SOL    HW1 7754   3.944   0.024   3.673  0.4114  0.9864  0.6791
 2478SOL    HW2 7755   3.806   0.071   3.746 -0.3294  3.2531 -2.0454
 2479SOL     OW 7756   2.061   5.461   4.191  0.1035 -0.2556 -0.2012
 2479SOL    HW1 7757   2.062   5.550   4.237  0.3319 -0.5211  0.3102
 2479SOL    HW2 7758   1.998   5.465   4.114  0.3783  0.4569 -0.3958
 2480SOL     OW 7759   1.853   0.552   0.550 -0.7539 -0.5696  0.1499
 2480SOL    HW1 7760   1.936   0.532   0.601 -0.4989 -0.6244 -0.2796
 2480SOL    HW2 7761   1.835   0.650   0.553 -0.0322 -0.3933 -0.7023
 2481SOL     OW 7762   3.258   2.043   1.227 -0.2445 -0.3563  0.6994
 2481SOL    HW1 7763   3.161   2.065   1.234  0.2563  2.4523 -0.0759
 2481SOL    HW2 7764   3.278   2.015   1.133 -0.4269 -1.8286  1.0783
 2482SOL     OW 7765   3.139   0.917   4.172  0.1029 -0.0137 -0.1736
 2482SOL    HW1 7766   3.135   1.006   4.126  0.7996 -0.2153 -0.6309
 2482SOL    HW2 7767   3.234   0.888   4.180  0.0174  0.0591  1.4893
 2483SOL     OW 7768   3.263   2.091   0.686 -0.5909 -0.6569 -0.3231
 2483SOL    HW1 7769   3.357   2.107   0.658 -0.5585  0.4309  0.3644
 2483SOL    HW2 7770   3.224   2.175   0.722 -1.3685 -1.4395  0.7255
 2484SOL     OW 7771   1.618   1.401   4.889 -0.5589  0.2270  0.2016
 2484SOL    HW1 7772   1.551   1.464   4.849 -1.6138  1.0708  3.0399
 2484SOL    HW2 7773   1.672   1.450   4.958  0.3760 -1.3953  0.6675
 2485SOL     OW 7774   2.993   5.504   5.294 -0.0911  0.5011  0.4829
 2485SOL    HW1 7775   2.946   5.589   5.270 -1.8467 -0.6263 -0.3430
 2485SOL    HW2 7776   2.950   5.464   5.375 -1.2620 -1.0102 -0.8090
 2486SOL     OW 7777   2.796   1.573   0.028  0.0164 -0.2991 -0.1395
 2486SOL    HW1 7778   2.810   1.662   0.071 -1.8947 -0.3581  0.7300
 2486SOL    HW2 7779   2.759   1.586  -0.064  1.8675 -0.1996 -0.8988
 2487SOL     OW 7780   2.595   1.451   4.389  0.0665 -0.3350  0.5729
 2487SOL    HW1 7781   2.545   1.533   4.362 -1.3607 -1.9880 -2.2324
 2487SOL    HW2 7782   2.692   1.461   4.366 -0.0233  0.6416  0.5647
 2488SOL     OW 7783   0.448   0.731   4.892  0.3765  0.2768 -0.6162
 2488SOL    HW1 7784   0.497   0.721   4.978  0.2893 -1.0197 -0.6962
 2488SOL    HW2 7785   0.367   0.671   4.892 -1.1277  2.2137 -0.5649
 2489SOL     OW 7786   3.062   0.988   0.181 -0.2289  0.3878  0.0299
 2489SOL    HW1 7787   2.995   1.056   0.154 -0.2661  1.1644  1.9092
 2489SOL    HW2 7788   3.046   0.903   0.130 -1.8337  0.9427 -0.4522
 2490SOL     OW 7789   2.575   0.308   3.762  0.0103  0.3985  0.1478
 2490SOL    HW1 7790   2.519   0.242   3.713  1.6656 -1.0455  0.0778
 2490SOL    HW2 7791   2.573   0.396   3.715 -2.4107  0.5052  0.3586
 2491SOL     OW 7792   4.868   2.249   5.430 -0.2294  0.6708 -0.0368
 2491SOL    HW1 7793   4.783   2.273   5.477 -1.3381  0.6305 -1.9317
 2491SOL    HW2 7794   4.875   2.300   5.344  0.6578 -0.8201 -0.9070
 2492SOL     OW 7795   2.806   0.848   3.846 -0.5611 -0.1031 -0.3794
 2492SOL    HW1 7796   2.719   0.807   3.818 -0.4368 -0.3971 -0.3405
 2492SOL    HW2 7797   2.792   0.944   3.871 -0.9744 -0.2946  0.1382
 2493SOL     OW 7798   1.044   5.127   3.817  0.3263  0.1439  0.1026
 2493SOL    HW1 7799   1.079   5.199   3.877 -3.1826  1.1331  1.2209
 2493SOL    HW2 7800   0.985   5.065   3.870 -0.2977 -0.9053 -1.7224
 2494SOL     OW 7801   2.065   0.823   4.882 -0.4854 -0.1432  0.6877
 2494SOL    HW1 7802   2.119   0.780   4.809 -0.1133  0.8758  0.3336
 2494SOL    HW2 7803   2.052   0.758   4.957 -0.1875 -0.9496  0.0600
 2495SOL     OW 7804   4.525   0.099   4.172 -0.2904  0.0859 -0.1773
 2495SOL    HW1 7805   4.549   0.013   4.126  3.1675  1.8705 -2.0540
 2495SOL    HW2 7806   4.563   0.100   4.264 -1.0093 -0.6379  0.1419
 2496SOL     OW 7807   4.063   1.726   4.267  0.2541  0.6811  0.2157
 2496SOL    HW1 7808   3.990   1.669   4.305  0.0796 -0.5629 -1.8222
 2496SOL    HW2 7809   4.151   1.681   4.280  0.6392  1.8703  2.0838
 2497SOL     OW 7810   2.460   1.050   5.543  0.3283 -0.2251 -0.1731
 2497SOL    HW1 7811   2.399   1.105   5.485 -0.8308  0.1663  1.3644
 2497SOL    HW2 7812   2.464   0.956   5.508 -1.3386 -0.3160 -0.1857
 2498SOL     OW 7813   1.991   0.577   4.257  0.0304  0.5647 -0.1269
 2498SOL    HW1 7814   1.921   0.507   4.240  1.6655 -1.1625 -0.1169
 2498SOL    HW2 7815   1.962   0.664   4.217 -2.3882  0.0957  0.4296
 2499SOL     OW 7816   2.368   0.967   4.584  0.5011  0.5825  0.0960
 2499SOL    HW1 7817   2.423   1.048   4.602  0.4064  0.8650 -0.8245
 2499SOL    HW2 7818   2.420   0.903   4.529  0.4558  0.1608  0.5400
 2500SOL     OW 7819   3.144   2.031   4.101  0.2341 -0.1219 -0.4712
 2500SOL    HW1 7820   3.052   2.008   4.132  0.6719 -0.6855  0.4738
 2500SOL    HW2 7821   3.173   2.118   4.141  1.3001 -1.4747  1.9088
 2501SOL     OW 7822   4.582   1.445   5.116 -0.1268 -0.6480  0.4749
 2501SOL    HW1 7823   4.507   1.504   5.145  0.6235  0.1005  0.9273
 2501SOL    HW2 7824   4.580   1.435   5.016  0.5671  1.3440  0.2125
 2502SOL     OW 7825   4.664   5.182   4.847  0.0544  0.0067 -0.1596
 2502SOL    HW1 7826   4.647   5.258   4.784  0.3758  0.6343  0.4975
 2502SOL    HW2 7827   4.683   5.099   4.794 -2.2176 -0.1068 -0.9015
 2503SOL     OW 7828   2.190   0.943   4.200 -0.5427 -0.3486  0.1981
 2503SOL    HW1 7829   2.154   0.958   4.293 -0.5285 -0.0512  0.1564
 2503SOL    HW2 7830   2.283   0.908   4.206 -0.3704  0.1271  0.2897
 2504SOL     OW 7831   3.110   2.034   3.834 -0.3319 -0.2404  0.4191
 2504SOL    HW1 7832   3.124   2.120   3.785  0.5446  0.0683  1.1739
 2504SOL    HW2 7833   3.148   2.042   3.926  0.0581 -1.5467  0.3910
 2505SOL     OW 7834   2.830   1.291   4.727 -0.0529 -0.4241  0.0750
 2505SOL    HW1 7835   2.846   1.324   4.634  2.1622 -1.4641  0.0069
 2505SOL    HW2 7836   2.797   1.365   4.784 -1.9127  0.1266 -1.6130
 2506SOL     OW 7837   4.031   0.558   4.317 -0.0558  0.6111 -0.1776
 2506SOL    HW1 7838   4.080   0.472   4.303  0.1233  0.7324 -0.3004
 2506SOL    HW2 7839   3.944   0.554   4.269  0.6422  1.0985 -1.5155
 2507SOL     OW 7840   3.564   1.900   4.583  0.2368 -0.1385  0.0121
 2507SOL    HW1 7841   3.567   1.800   4.590 -0.3065 -0.1508  0.0822
 2507SOL    HW2 7842   3.544   1.938   4.673 -0.2429  0.0002 -0.1501
 2508SOL     OW 7843   2.128   0.468   4.049 -0.0178 -0.1368 -0.3503
 2508SOL    HW1 7844   2.195   0.519   3.994 -1.8589 -0.2307 -2.8412
 2508SOL    HW2 7845   2.089   0.529   4.118 -0.0719  1.0286 -1.3668
 2509SOL     OW 7846   4.032   1.215   5.173  0.0627  0.6384 -0.4600
 2509SOL    HW1 7847   3.972   1.234   5.095 -1.1660  0.2204  0.3619
 2509SOL    HW2 7848   3.998   1.262   5.254 -0.2408 -1.0950  0.4599
 2510SOL     OW 7849   2.340   1.141   3.116  0.4269  0.4059 -0.4544
 2510SOL    HW1 7850   2.361   1.054   3.161  2.0606  1.2709  0.4964
 2510SOL    HW2 7851   2.268   1.188   3.166  0.8057  0.4251  0.0747
 2511SOL     OW 7852   2.619   5.261   4.310  1.2236 -0.4259 -0.0369
 2511SOL    HW1 7853   2.697   5.314   4.276  0.5394  0.6195 -0.0105
 2511SOL    HW2 7854   2.593   5.192   4.241  2.4839 -1.1454  0.1751
 2512SOL     OW 7855   1.933   1.340   3.775  0.3016 -0.0078 -0.3309
 2512SOL    HW1 7856   1.983   1.276   3.716 -1.4472  0.7280 -2.7948
 2512SOL    HW2 7857   1.975   1.430   3.770  0.0035  0.1145 -0.6826
 2513SOL     OW 7858   3.588   1.694   0.848  0.3185 -0.4105  0.5830
 2513SOL    HW1 7859   3.515   1.742   0.801  0.4524 -1.2258 -0.4948
 2513SOL    HW2 7860   3.557   1.667   0.939 -0.5130 -0.2394  0.3561
 2514SOL     OW 7861   2.010   1.662   4.046 -0.3025  0.8001 -0.4536
 2514SOL    HW1 7862   1.928   1.708   4.010  0.3047  0.5821 -2.2192
 2514SOL    HW2 7863   2.047   1.715   4.121 -1.5557  1.3795 -0.2090
 2515SOL     OW 7864   2.408   0.721   0.170  0.1185 -0.4923 -0.7164
 2515SOL    HW1 7865   2.416   0.622   0.183  1.5617 -0.1094  2.1132
 2515SOL    HW2 7866   2.494   0.756   0.133 -0.3633 -0.2377 -1.6375
 2516SOL     OW 7867   2.440   0.843   4.194 -0.2125  0.3322  0.0844
 2516SOL    HW1 7868   2.451   0.776   4.120 -0.1464 -0.0281  0.4176
 2516SOL    HW2 7869   2.529   0.875   4.224 -0.0870 -1.3273  1.6375
 2517SOL     OW 7870   2.126   4.366   3.009 -0.1439  0.5105  0.2653
 2517SOL    HW1 7871   2.119   4.269   2.985  2.9469  0.1947  0.3001
 2517SOL    HW2 7872   2.087   4.380   3.101  1.4901 -1.2112  1.2964
 2518SOL     OW 7873   1.769   1.711   4.860  0.2877  0.1259  0.1145
 2518SOL    HW1 7874   1.759   1.689   4.763  0.2864 -1.7315  0.4945
 2518SOL    HW2 7875   1.840   1.652   4.900 -1.5368 -1.0333  1.7953
 2519SOL     OW 7876   2.116   4.258   3.992 -0.7026 -0.9036 -0.5015
 2519SOL    HW1 7877   2.211   4.286   3.978 -0.7960 -0.7025 -0.7514
 2519SOL    HW2 7878   2.095   4.179   3.935 -0.5912 -1.1595 -0.1933
 2520SOL     OW 7879   3.017   0.871   4.992  0.6326 -0.7861 -0.1598
 2520SOL    HW1 7880   2.978   0.960   4.967  0.5546 -0.5669  0.7250
 2520SOL    HW2 7881   2.959   0.798   4.954 -0.9267 -0.4710  1.4661
 2521SOL     OW 7882   3.597   3.366   5.555  0.3270  0.0031  0.3409
 2521SOL    HW1 7883   3.576   3.321   5.642  0.1448 -0.5128  0.0350
 2521SOL    HW2 7884   3.527   3.434   5.534 -1.3414 -1.9642 -0.8579
 2522SOL     OW 7885   2.925   5.343   5.062  0.6913  0.5661  0.3121
 2522SOL    HW1 7886   2.830   5.344   5.092  1.0662  0.7773  1.5818
 2522SOL    HW2 7887   2.982   5.389   5.131  2.0647 -1.8158  0.8827
 2523SOL     OW 7888   3.782   0.766   5.427 -0.6316 -0.0754  0.2754
 2523SOL    HW1 7889   3.854   0.697   5.433  0.2175  0.6119 -1.1670
 2523SOL    HW2 7890   3.813   0.840   5.367 -2.0302  0.9120  0.7214
 2524SOL     OW 7891   2.599   1.460   0.173 -0.4044 -0.1057  0.0318
 2524SOL    HW1 7892   2.665   1.500   0.110 -0.0076  0.4459  0.7885
 2524SOL    HW2 7893   2.506   1.480   0.142 -0.2527 -1.3058 -1.3136
 2525SOL     OW 7894   3.511   0.718   5.455  0.3260  0.2506 -0.3354
 2525SOL    HW1 7895   3.477   0.727   5.362  2.2339 -1.5430 -1.2678
 2525SOL    HW2 7896   3.610   0.733   5.457  0.0085  2.8573  1.8785
 2526SOL     OW 7897   3.884   5.409   4.566 -0.1414 -0.5850  0.0411
 2526SOL    HW1 7898   3.904   5.439   4.473  0.6319  1.3051  0.7719
 2526SOL    HW2 7899   3.794   5.441   4.593 -0.6518 -1.7049 -0.2460
 2527SOL     OW 7900   2.574   5.357   4.823 -0.1704 -0.2771 -0.1333
 2527SOL    HW1 7901   2.509   5.337   4.750  0.3426 -0.8347 -0.4356
 2527SOL    HW2 7902   2.654   5.403   4.785 -0.5137  0.7076  0.2864
 2528SOL     OW 7903   3.768   0.506   0.312  0.0758  0.1487  0.1313
 2528SOL    HW1 7904   3.818   0.444   0.372 -0.1423 -0.7020 -0.5404
 2528SOL    HW2 7905   3.709   0.453   0.251  0.2449  0.9867 -0.7877
 2529SOL     OW 7906   3.689   1.096   0.345  0.0813  0.2450  0.3426
 2529SOL    HW1 7907   3.765   1.032   0.332 -0.0944  0.4763 -2.5509
 2529SOL    HW2 7908   3.720   1.189   0.327 -0.7710  0.3816 -0.5185
 2530SOL     OW 7909   3.399   0.922   4.641 -0.3749  0.5320  0.2375
 2530SOL    HW1 7910   3.346   0.918   4.726  1.5365  0.7438  1.5110
 2530SOL    HW2 7911   3.378   1.007   4.592 -3.3567 -0.7020 -0.8754
 2531SOL     OW 7912   1.978   2.306   4.244  0.2184 -0.4739 -0.2296
 2531SOL    HW1 7913   2.076   2.287   4.239  0.2566 -0.2485 -0.3347
 2531SOL    HW2 7914   1.932   2.230   4.290  0.6029 -0.0530  0.9041
 2532SOL     OW 7915   2.679   0.619   4.343 -0.4150 -0.2988 -0.4819
 2532SOL    HW1 7916   2.688   0.557   4.265 -0.5565 -0.7990 -0.1051
 2532SOL    HW2 7917   2.707   0.711   4.316  2.1932 -0.9796 -0.4171
 2533SOL     OW 7918   1.342   0.512   3.178 -0.1134 -0.5832 -0.1388
 2533SOL    HW1 7919   1.405   0.463   3.239  0.3324 -0.0738 -0.1789
 2533SOL    HW2 7920   1.388   0.528   3.091 -0.4886 -0.6577 -0.3491
 2534SOL     OW 7921   4.019   2.535   5.088 -0.8516 -0.2834  0.4171
 2534SOL    HW1 7922   3.969   2.453   5.060 -1.6494  0.5782 -0.7842
 2534SOL    HW2 7923   4.081   2.564   5.015  0.2299 -0.3941  1.2489
 2535SOL     OW 7924   2.043   0.636   5.447  0.2411  0.5722 -0.2204
 2535SOL    HW1 7925   1.945   0.628   5.434  0.2642 -1.0552  0.4241
 2535SOL    HW2 7926   2.064   0.639   5.545  0.9258 -0.7645 -0.3052
 2536SOL     OW 7927   2.399   1.599   3.855  0.8306 -0.1914  0.2279
 2536SOL    HW1 7928   2.456   1.555   3.786  0.8374 -0.9400  0.7016
 2536SOL    HW2 7929   2.441   1.687   3.881  0.8277  0.0945 -0.6982
 2537SOL     OW 7930   2.116   1.511   5.535 -0.7103 -0.2785 -0.3833
 2537SOL    HW1 7931   2.040   1.550   5.587 -2.6914 -0.4003 -3.0096
 2537SOL    HW2 7932   2.110   1.411   5.537 -1.1800 -0.2785 -1.3245
 2538SOL     OW 7933   4.076   0.886   0.075 -0.1701  0.1418 -0.1946
 2538SOL    HW1 7934   4.144   0.892   0.002  0.1912 -1.1894  0.0103
 2538SOL    HW2 7935   4.042   0.792   0.082  0.0197  0.1623  1.5394
 2539SOL     OW 7936   2.884   0.393   4.531  0.0597 -0.0078 -0.3656
 2539SOL    HW1 7937   2.892   0.322   4.462  0.2004 -0.9334  0.5763
 2539SOL    HW2 7938   2.908   0.482   4.491  2.5651 -0.8481 -0.9203
 2540SOL     OW 7939   2.912   1.123   4.940 -0.2661 -0.0089  0.0856
 2540SOL    HW1 7940   2.832   1.124   5.000  0.2152  0.3884  0.7295
 2540SOL    HW2 7941   2.887   1.158   4.850 -0.5249  1.3005  0.6551
 2541SOL     OW 7942   1.871   5.070   4.159  0.0650  0.2116  0.3142
 2541SOL    HW1 7943   1.847   4.974   4.147 -1.6805  0.6977 -0.3948
 2541SOL    HW2 7944   1.932   5.098   4.085  0.8961 -0.4298  0.7430
 2542SOL     OW 7945   2.512   2.342   4.482  0.4656  0.5521  0.0564
 2542SOL    HW1 7946   2.473   2.283   4.411  2.7212 -0.7657 -0.2199
 2542SOL    HW2 7947   2.460   2.332   4.567 -0.3185 -0.3895 -0.5165
 2543SOL     OW 7948   3.446   4.047   4.294 -0.3422 -0.3943 -0.5534
 2543SOL    HW1 7949   3.461   4.126   4.354 -3.0707 -0.3701  0.2110
 2543SOL    HW2 7950   3.411   4.079   4.205  0.2249 -0.6581 -0.8776
 2544SOL     OW 7951   2.925   4.671   0.212  0.2101 -0.2752 -0.0466
 2544SOL    HW1 7952   2.881   4.743   0.158  1.3453  0.4380 -0.0502
 2544SOL    HW2 7953   2.941   4.705   0.305 -1.4939 -1.4018  0.7096
 2545SOL     OW 7954   2.261   1.446   3.538  0.4634 -0.3977 -0.6238
 2545SOL    HW1 7955   2.233   1.360   3.581  0.9072 -0.2731 -0.0795
 2545SOL    HW2 7956   2.346   1.478   3.579  0.8016 -0.1767 -1.4700
 2546SOL     OW 7957   2.483   1.679   4.302  0.0756  0.2279 -0.0590
 2546SOL    HW1 7958   2.457   1.770   4.268 -1.9494 -0.2685  0.0350
 2546SOL    HW2 7959   2.403   1.619   4.301  1.5489 -1.8360 -0.8902
 2547SOL     OW 7960   3.850   0.405   4.870  0.6263 -0.7699 -0.2995
 2547SOL    HW1 7961   3.787   0.379   4.942 -0.9997 -0.3963 -1.5272
 2547SOL    HW2 7962   3.909   0.479   4.903 -1.2837  0.6558  0.1483
 2548SOL     OW 7963   3.073   0.791   4.608  0.0369 -0.5255 -0.3125
 2548SOL    HW1 7964   3.095   0.824   4.516 -0.2177 -2.4828 -1.1280
 2548SOL    HW2 7965   2.986   0.831   4.638  0.7009  1.0476 -0.3973
 2549SOL     OW 7966   3.267   5.487   5.239 -0.4232  0.4610  0.0847
 2549SOL    HW1 7967   3.177   5.470   5.280 -1.4293  1.1986 -1.7103
 2549SOL    HW2 7968   3.320   5.402   5.240 -1.9543 -0.5627 -0.7060
 2550SOL     OW 7969   2.880   1.243   4.031 -0.1652 -0.2841 -0.1433
 2550SOL    HW1 7970   2.852   1.320   3.975 -1.6021 -0.2983  0.4970
 2550SOL    HW2 7971   2.845   1.255   4.124 -0.0042 -1.4676  0.0925
 2551SOL     OW 7972   2.315   1.366   4.020 -0.0032  0.3513  0.0343
 2551SOL    HW1 7973   2.396   1.311   4.036  0.2459  1.0707  1.4398
 2551SOL    HW2 7974   2.335   1.436   3.951  0.5730  0.5121  0.3615
 2552SOL     OW 7975   2.030   3.250   5.048  0.0781  0.0737 -0.1205
 2552SOL    HW1 7976   2.051   3.277   5.142  2.4075 -0.9114 -0.3043
 2552SOL    HW2 7977   1.984   3.161   5.048  1.3460 -0.6013  0.0574
 2553SOL     OW 7978   2.185   1.721   5.368 -0.1271 -0.2844 -0.2767
 2553SOL    HW1 7979   2.258   1.734   5.435  1.1191 -2.4634 -1.1120
 2553SOL    HW2 7980   2.117   1.658   5.404  0.4868 -1.3715 -0.9784
 2554SOL     OW 7981   2.246   1.968   4.977  0.1916  0.1339  0.2754
 2554SOL    HW1 7982   2.240   2.029   5.056  0.2088 -0.1655  0.5136
 2554SOL    HW2 7983   2.300   2.012   4.905 -0.6482  0.8080  0.0413
 2555SOL     OW 7984   1.751   3.681   1.590 -0.6587 -0.2768 -0.0156
 2555SOL    HW1 7985   1.764   3.761   1.532 -0.8333  0.7244  1.2808
 2555SOL    HW2 7986   1.711   3.606   1.536  1.6899 -0.3341 -1.8341
 2556SOL     OW 7987   2.983   3.112   0.800  0.3533  0.2741  0.2979
 2556SOL    HW1 7988   3.038   3.037   0.761 -1.2684 -0.2930 -1.0174
 2556SOL    HW2 7989   2.999   3.195   0.747 -0.8646 -0.1721 -0.8076
 2557SOL     OW 7990   3.759   3.228   1.502 -0.5257 -0.3928 -0.2864
 2557SOL    HW1 7991   3.841   3.187   1.542 -0.2910  1.3775  1.2039
 2557SOL    HW2 7992   3.785   3.279   1.420  0.0304  0.6916  0.5291
 2558SOL     OW 7993   4.232   1.698   0.130  0.2439  0.4818  0.3240
 2558SOL    HW1 7994   4.229   1.786   0.178 -0.3629  0.8689 -0.3941
 2558SOL    HW2 7995   4.292   1.705   0.051 -0.3687  0.4823 -0.1543
 2559SOL     OW 7996   4.448   2.342   1.126  0.6273  0.1741 -0.2666
 2559SOL    HW1 7997   4.423   2.334   1.030  1.8571 -3.6573 -0.4450
 2559SOL    HW2 7998   4.533   2.392   1.136 -0.1330  1.6603 -0.9825
 2560SOL     OW 7999   2.196   2.137   0.858  0.1194  0.9461 -0.0464
 2560SOL    HW1 8000   2.100   2.141   0.885 -0.1368  0.3745 -0.8101
 2560SOL    HW2 8001   2.253   2.123   0.938 -0.6183 -0.9114  0.2123
 2561SOL     OW 8002   2.550   2.629   0.392  0.2462 -0.2280  0.2148
 2561SOL    HW1 8003   2.595   2.659   0.477 -2.8157  1.8345  1.2714
 2561SOL    HW2 8004   2.563   2.699   0.322  0.4296 -0.6302 -0.1560
 2562SOL     OW 8005   1.237   1.836   1.345 -0.4162  0.2663 -0.0813
 2562SOL    HW1 8006   1.160   1.808   1.287 -0.1722 -0.8989  0.1155
 2562SOL    HW2 8007   1.277   1.920   1.309 -0.0895 -0.5702 -1.7861
 2563SOL     OW 8008   2.885   2.823   0.841  0.1929  0.2909 -0.2866
 2563SOL    HW1 8009   2.910   2.726   0.848  2.4009  0.7766 -0.4968
 2563SOL    HW2 8010   2.821   2.847   0.914  1.3978 -0.8471  1.2072
 2564SOL     OW 8011   2.080   1.241   5.499  0.4106 -0.2015  0.5286
 2564SOL    HW1 8012   2.071   1.189   5.584  0.3361 -1.7085 -0.3719
 2564SOL    HW2 8013   2.145   1.196   5.439 -1.5852 -0.7618 -1.3482
 2565SOL     OW 8014   1.356   4.672   0.916 -0.1119 -0.2156 -0.0363
 2565SOL    HW1 8015   1.326   4.723   0.997  1.0024 -1.0232  0.9373
 2565SOL    HW2 8016   1.406   4.590   0.946 -0.5625 -1.0706 -1.5626
 2566SOL     OW 8017   1.005   4.257   5.587  0.1265  0.4164  0.2052
 2566SOL    HW1 8018   0.946   4.203   5.527 -1.0002  0.5542  1.1733
 2566SOL    HW2 8019   1.029   4.203   5.668  1.3606  0.3591 -0.1704
 2567SOL     OW 8020   2.296   2.984   1.330  0.1491 -0.0320 -0.7129
 2567SOL    HW1 8021   2.322   2.890   1.350 -0.4936 -0.3502 -1.3560
 2567SOL    HW2 8022   2.197   2.990   1.322  0.2049  0.6469 -0.9400
 2568SOL     OW 8023   1.460   4.064   5.256 -0.0970  0.1016  0.2043
 2568SOL    HW1 8024   1.485   4.161   5.256  0.9300 -0.1444  1.4480
 2568SOL    HW2 8025   1.542   4.008   5.261 -0.7495 -0.7792  1.8646
 2569SOL     OW 8026   2.870   1.834   0.047  0.0428 -0.1320 -0.2796
 2569SOL    HW1 8027   2.799   1.890   0.089  0.1514 -0.6806  0.6730
 2569SOL    HW2 8028   2.873   1.851  -0.051 -1.2535  0.0557 -0.2970
 2570SOL     OW 8029   2.575   3.173   0.875 -0.6205  0.7603  0.0696
 2570SOL    HW1 8030   2.510   3.097   0.883 -0.8103  0.7980 -0.9864
 2570SOL    HW2 8031   2.659   3.150   0.925 -0.7325 -0.0821 -0.1062
 2571SOL     OW 8032   3.535   3.445   0.656 -0.1455 -0.3340 -0.2745
 2571SOL    HW1 8033   3.566   3.461   0.750  0.7807 -1.3636 -0.3878
 2571SOL    HW2 8034   3.606   3.475   0.592  0.9862 -3.2447 -0.5269
 2572SOL     OW 8035   2.619   3.046   0.385  0.3846  0.1049 -0.0240
 2572SOL    HW1 8036   2.666   3.048   0.474 -1.0825  1.9903  0.7860
 2572SOL    HW2 8037   2.625   3.136   0.343  1.5912 -0.9272 -2.2037
 2573SOL     OW 8038   3.821   2.638   0.055 -0.7597 -0.6729  0.1408
 2573SOL    HW1 8039   3.784   2.663   0.145  0.2700  1.2002  0.0987
 2573SOL    HW2 8040   3.772   2.689  -0.016 -1.2903 -1.8327 -0.3391
 2574SOL     OW 8041   4.518   2.499   0.291 -0.0710 -0.3302 -0.0438
 2574SOL    HW1 8042   4.507   2.434   0.367 -0.9958 -0.0241  0.0935
 2574SOL    HW2 8043   4.548   2.449   0.210  1.9534 -0.5140  0.7667
 2575SOL     OW 8044   2.406   2.651   0.846  0.3576  0.5329  0.0889
 2575SOL    HW1 8045   2.326   2.623   0.792  0.7584  1.1059 -0.8243
 2575SOL    HW2 8046   2.489   2.638   0.791  1.0068 -0.9218  1.3402
 2576SOL     OW 8047   2.682   3.699   1.122  0.1706 -0.2023  0.3736
 2576SOL    HW1 8048   2.645   3.688   1.030  1.4157 -1.6073 -0.0007
 2576SOL    HW2 8049   2.614   3.744   1.180 -0.8496  0.1974 -1.0740
 2577SOL     OW 8050   2.656   2.558   0.780  0.0932  0.6089 -0.4747
 2577SOL    HW1 8051   2.711   2.559   0.864 -2.0008  0.0795  0.9793
 2577SOL    HW2 8052   2.670   2.471   0.733  1.6932  1.1223 -0.9973
 2578SOL     OW 8053   1.874   2.230   0.591  0.4016 -0.4549 -0.4768
 2578SOL    HW1 8054   1.938   2.303   0.566 -1.7290  2.7543  2.6252
 2578SOL    HW2 8055   1.890   2.202   0.686 -0.2736 -2.5584 -0.9195
 2579SOL     OW 8056   2.262   2.446   2.069 -0.2136 -0.1294  0.6402
 2579SOL    HW1 8057   2.322   2.376   2.108 -0.7468 -0.7670  0.3399
 2579SOL    HW2 8058   2.315   2.505   2.008 -0.2436 -1.9202 -1.2204
 2580SOL     OW 8059   2.902   3.406   5.546 -0.0198  0.3322  0.0393
 2580SOL    HW1 8060   2.956   3.488   5.561  0.9989 -0.3326  0.1243
 2580SOL    HW2 8061   2.914   3.344   5.624 -0.7090  0.0620 -0.0618
 2581SOL     OW 8062   1.425   2.141   2.220  0.3130 -0.1374 -0.9541
 2581SOL    HW1 8063   1.392   2.172   2.309 -0.0333  1.5032 -1.6242
 2581SOL    HW2 8064   1.517   2.103   2.230 -0.1229 -0.9595  0.2522
 2582SOL     OW 8065   4.925   3.891   0.687 -0.1050 -1.0410  0.4131
 2582SOL    HW1 8066   4.936   3.932   0.597 -1.0355 -2.5636 -0.4480
 2582SOL    HW2 8067   4.852   3.938   0.737  0.1029 -0.4795  0.1909
 2583SOL     OW 8068   3.972   2.690   1.028 -1.1681 -0.2942  0.4500
 2583SOL    HW1 8069   3.986   2.787   1.049 -1.6982 -0.1789  0.2783
 2583SOL    HW2 8070   3.874   2.672   1.017 -0.9325 -0.3005 -2.1244
 2584SOL     OW 8071   2.305   3.477   1.042  0.0338  0.2376  0.2628
 2584SOL    HW1 8072   2.210   3.451   1.022  0.6450 -0.8881 -1.3668
 2584SOL    HW2 8073   2.310   3.515   1.135 -1.6812 -1.4379  1.1150
 2585SOL     OW 8074   2.177   2.652   0.443 -0.3734 -0.2350 -0.3218
 2585SOL    HW1 8075   2.218   2.561   0.440 -1.0981 -0.7037  2.2455
 2585SOL    HW2 8076   2.241   2.716   0.486 -0.2836  0.2553 -1.1621
 2586SOL     OW 8077   2.802   3.665   4.844 -0.5208 -0.1910 -0.0621
 2586SOL    HW1 8078   2.885   3.704   4.804  0.6449 -0.6228  1.8210
 2586SOL    HW2 8079   2.823   3.575   4.882 -2.7154 -1.9388 -2.6404
 2587SOL     OW 8080   3.395   2.725   1.476  0.0581 -0.4689 -0.2078
 2587SOL    HW1 8081   3.470   2.718   1.410  0.7907  0.0497  0.5489
 2587SOL    HW2 8082   3.354   2.816   1.470 -0.2709 -0.6264 -0.3621
 2588SOL     OW 8083   4.186   1.939   1.473 -0.4919  0.3588  0.1399
 2588SOL    HW1 8084   4.195   2.013   1.539  1.5938  0.6021 -0.3467
 2588SOL    HW2 8085   4.114   1.876   1.503 -0.0468  0.7994  2.2842
 2589SOL     OW 8086   3.057   2.751   1.457 -0.7320 -0.5276 -0.1704
 2589SOL    HW1 8087   3.104   2.672   1.417  0.1158  0.0922 -0.4424
 2589SOL    HW2 8088   3.092   2.835   1.416 -1.1970  0.0238  0.5277
 2590SOL     OW 8089   2.340   1.325   1.578 -0.3293  0.2917  0.0532
 2590SOL    HW1 8090   2.401   1.298   1.652 -0.4349  1.2260  0.5048
 2590SOL    HW2 8091   2.249   1.288   1.595 -1.4068  3.5671  2.5317
 2591SOL     OW 8092   3.317   2.248   5.274 -0.0175 -0.0421 -0.3137
 2591SOL    HW1 8093   3.326   2.306   5.355 -1.3801  1.6098 -1.2965
 2591SOL    HW2 8094   3.371   2.286   5.199 -0.4853 -0.3306 -0.8081
 2592SOL     OW 8095   1.714   1.528   0.519  0.1758 -0.1680 -0.1260
 2592SOL    HW1 8096   1.713   1.469   0.438  1.1795 -1.1183  0.5364
 2592SOL    HW2 8097   1.716   1.624   0.490  2.4757 -0.5056 -1.2698
 2593SOL     OW 8098   2.418   4.124   1.504 -0.1121  0.0842  0.1448
 2593SOL    HW1 8099   2.417   4.025   1.489 -2.1116 -0.1560  1.4173
 2593SOL    HW2 8100   2.496   4.149   1.560 -0.5987 -1.0889  1.3963
 2594SOL     OW 8101   2.393   2.040   0.182 -0.5514 -0.4553 -0.5312
 2594SOL    HW1 8102   2.430   2.051   0.274 -0.7043  1.4649 -0.6492
 2594SOL    HW2 8103   2.308   1.987   0.187 -0.0683 -1.1689  0.3081
 2595SOL     OW 8104   3.487   3.223   1.451 -0.3183  0.1050 -0.1747
 2595SOL    HW1 8105   3.579   3.230   1.489  0.1089  2.1082 -1.4274
 2595SOL    HW2 8106   3.489   3.243   1.353 -2.1889  1.0988 -0.0589
 2596SOL     OW 8107   2.935   3.297   0.596 -0.1540  0.9276 -0.2419
 2596SOL    HW1 8108   2.864   3.331   0.534 -1.0256 -0.0892  0.1503
 2596SOL    HW2 8109   3.018   3.351   0.585 -0.2618  0.7631 -2.3263
 2597SOL     OW 8110   2.377   2.180   1.062 -0.3182  0.0508 -0.4898
 2597SOL    HW1 8111   2.375   2.277   1.040 -0.6940  0.0378 -0.5060
 2597SOL    HW2 8112   2.359   2.167   1.160 -0.1059  0.0055 -0.4543
 2598SOL     OW 8113   3.008   3.458   0.833 -0.4199  0.0312 -0.8117
 2598SOL    HW1 8114   2.929   3.511   0.803  0.7539  1.5966 -1.3014
 2598SOL    HW2 8115   3.074   3.451   0.758  0.3025 -0.4776 -0.1518
 2599SOL     OW 8116   2.597   4.990   0.623  0.3316 -0.3009 -0.0028
 2599SOL    HW1 8117   2.510   5.037   0.607 -0.7452 -2.4118 -0.7478
 2599SOL    HW2 8118   2.648   4.985   0.537  0.4411 -0.4650  0.0711
 2600SOL     OW 8119   2.414   2.723   0.052 -0.3352 -0.0955 -0.2857
 2600SOL    HW1 8120   2.377   2.635   0.081  0.6619 -0.4497 -0.0313
 2600SOL    HW2 8121   2.438   2.777   0.132  1.8846 -0.8400 -0.3792
 2601SOL     OW 8122   1.556   2.584   0.938  0.4180  0.5917  0.1887
 2601SOL    HW1 8123   1.626   2.655   0.929  1.8706 -1.0293 -2.8409
 2601SOL    HW2 8124   1.582   2.519   1.010  0.8150  1.2535  0.6471
 2602SOL     OW 8125   4.405   3.639   1.429 -0.3489  0.0131 -0.2673
 2602SOL    HW1 8126   4.311   3.615   1.454 -0.4275 -0.3061 -0.8310
 2602SOL    HW2 8127   4.449   3.687   1.505 -0.6391 -0.7231  0.3785
 2603SOL     OW 8128   2.494   2.179   1.960 -0.1203 -0.1061 -0.0371
 2603SOL    HW1 8129   2.494   2.240   2.039  0.1700 -0.3683  0.1701
 2603SOL    HW2 8130   2.526   2.088   1.988 -0.2764 -0.2776 -0.3989
 2604SOL     OW 8131   2.428   3.981   5.370  0.4745  0.1159 -0.4953
 2604SOL    HW1 8132   2.438   3.945   5.463  0.0407  0.3211 -0.3675
 2604SOL    HW2 8133   2.499   4.051   5.355 -0.0546  0.7863  0.0299
 2605SOL     OW 8134   1.829   1.488   3.107 -0.1912  0.5713 -0.4194
 2605SOL    HW1 8135   1.888   1.547   3.162 -0.8474  0.4771  0.4126
 2605SOL    HW2 8136   1.885   1.427   3.052  0.4928  0.1786  0.6827
 2606SOL     OW 8137   3.367   3.325   0.484 -0.4871  0.2029  0.2698
 2606SOL    HW1 8138   3.419   3.252   0.440 -0.9378 -0.5056  0.9082
 2606SOL    HW2 8139   3.429   3.380   0.540 -0.2495 -0.0164  0.2277
 2607SOL     OW 8140   1.852   4.925   0.615 -0.0491  0.0239 -0.7284
 2607SOL    HW1 8141   1.815   4.834   0.632  0.1737  0.0775  0.1012
 2607SOL    HW2 8142   1.778   4.992   0.620  0.0779  0.0955  0.6150
 2608SOL     OW 8143   3.781   1.924   0.756  0.4279 -0.3527 -0.0919
 2608SOL    HW1 8144   3.843   1.986   0.804 -1.6605  1.4280  0.4524
 2608SOL    HW2 8145   3.733   1.867   0.822 -0.0615 -0.2147 -0.3280
 2609SOL     OW 8146   0.394   3.446   0.825 -0.1050  0.6031 -0.0788
 2609SOL    HW1 8147   0.468   3.396   0.779 -1.7679 -0.3019 -1.9544
 2609SOL    HW2 8148   0.363   3.394   0.904 -0.5630 -0.4414 -0.9222
 2610SOL     OW 8149   3.081   3.176   0.360  0.0238  0.2361  0.3273
 2610SOL    HW1 8150   3.036   3.094   0.395  0.5369 -0.0125  0.4088
 2610SOL    HW2 8151   3.172   3.184   0.401 -0.5278  1.5862  1.4053
 2611SOL     OW 8152   2.668   3.491   0.516  0.1898 -0.0867 -0.1840
 2611SOL    HW1 8153   2.628   3.406   0.549 -0.1094 -0.0982 -0.5765
 2611SOL    HW2 8154   2.624   3.569   0.561  2.9385 -0.1685  3.0398
 2612SOL     OW 8155   4.571   2.498   2.446 -0.3727  0.4223 -0.2226
 2612SOL    HW1 8156   4.523   2.586   2.439 -1.7927 -0.4225 -2.1147
 2612SOL    HW2 8157   4.594   2.466   2.354 -1.5717 -2.0344  0.2584
 2613SOL     OW 8158   2.272   1.332   5.090  0.1483  0.1966  0.1485
 2613SOL    HW1 8159   2.271   1.430   5.111  1.6172  0.0478  1.0282
 2613SOL    HW2 8160   2.178   1.299   5.081 -0.4880  1.1602  2.4672
 2614SOL     OW 8161   2.513   0.867   2.518  0.6911 -0.3821  0.0746
 2614SOL    HW1 8162   2.533   0.941   2.583  2.6210 -0.2579 -0.5881
 2614SOL    HW2 8163   2.470   0.905   2.436 -1.3611 -0.4815  1.0573
 2615SOL     OW 8164   2.753   3.065   0.627 -0.3199 -0.0849 -0.2862
 2615SOL    HW1 8165   2.743   3.163   0.640 -1.3727  0.0527 -1.9502
 2615SOL    HW2 8166   2.826   3.031   0.686  0.4981  1.7909 -0.1652
 2616SOL     OW 8167   1.850   2.561   1.605  0.4248 -0.1524  0.1918
 2616SOL    HW1 8168   1.827   2.655   1.631 -2.9784 -0.7343 -0.2506
 2616SOL    HW2 8169   1.784   2.498   1.646  0.6371 -2.0284 -2.1443
 2617SOL     OW 8170   2.521   2.488   1.267  0.4885  0.1404 -0.0666
 2617SOL    HW1 8171   2.466   2.500   1.184  0.4999  0.7861  0.0182
 2617SOL    HW2 8172   2.463   2.500   1.348  0.1028 -2.0886  0.0569
 2618SOL     OW 8173   3.744   2.518   1.489 -0.4488 -0.2567 -0.2141
 2618SOL    HW1 8174   3.681   2.455   1.535  0.4794  0.0010  1.5220
 2618SOL    HW2 8175   3.800   2.468   1.424 -1.6756 -0.6771 -0.9788
 2619SOL     OW 8176   1.228   1.375   0.324  0.1479  0.2644  0.1321
 2619SOL    HW1 8177   1.279   1.385   0.410 -0.4430  0.2566  0.4940
 2619SOL    HW2 8178   1.160   1.302   0.335  2.3412 -2.2316 -1.4506
 2620SOL     OW 8179   3.644   3.011   4.483  0.3045 -0.0984 -0.0757
 2620SOL    HW1 8180   3.644   3.041   4.387  0.6302  0.5084  0.1044
 2620SOL    HW2 8181   3.557   3.036   4.526  0.8707  1.3401  0.2854
 2621SOL     OW 8182   2.245   2.419   5.287 -0.1768 -0.2294 -0.3634
 2621SOL    HW1 8183   2.339   2.452   5.296  0.5940 -2.2946 -0.2508
 2621SOL    HW2 8184   2.189   2.457   5.360  1.0039 -0.2886  0.6086
 2622SOL     OW 8185   3.347   2.563   5.227  0.6400 -0.2879  0.0280
 2622SOL    HW1 8186   3.259   2.527   5.258  1.1700 -0.7235  1.0705
 2622SOL    HW2 8187   3.393   2.494   5.171  0.6130 -0.3119  0.0353
 2623SOL     OW 8188   2.827   2.628   1.564  0.3168 -0.3900 -0.5595
 2623SOL    HW1 8189   2.901   2.695   1.560 -0.7500  0.9337  0.6817
 2623SOL    HW2 8190   2.761   2.657   1.633  0.1220 -3.0626  0.4754
 2624SOL     OW 8191   2.238   3.398   0.089  0.2449 -0.1294  0.3944
 2624SOL    HW1 8192   2.324   3.428   0.131 -0.8472  0.7339  2.1261
 2624SOL    HW2 8193   2.186   3.343   0.153 -1.1366  0.5525 -0.0935
 2625SOL     OW 8194   3.135   2.025   5.319  0.2077  0.5725 -0.1062
 2625SOL    HW1 8195   3.156   1.976   5.234  2.0068 -0.1519  0.7096
 2625SOL    HW2 8196   3.181   2.114   5.318  1.0504  0.1612  0.4860
 2626SOL     OW 8197   3.333   2.994   1.332 -0.0231  0.0732 -0.8051
 2626SOL    HW1 8198   3.346   2.929   1.257  0.2540  1.4147 -1.9456
 2626SOL    HW2 8199   3.419   3.041   1.351 -0.5631  1.1656 -1.0025
 2627SOL     OW 8200   2.697   1.065   5.099 -0.1105 -0.1415  0.0062
 2627SOL    HW1 8201   2.600   1.090   5.104 -0.1361 -0.4686  1.8233
 2627SOL    HW2 8202   2.705   0.969   5.073 -0.2574 -0.0883 -0.2451
 2628SOL     OW 8203   1.872   2.780   1.176 -0.1827  0.3772  0.1466
 2628SOL    HW1 8204   1.913   2.743   1.093  0.7829  0.3796  0.6121
 2628SOL    HW2 8205   1.850   2.705   1.239 -0.5647  0.4064  0.0524
 2629SOL     OW 8206   2.435   1.253   0.660  0.4481  0.1036 -0.2077
 2629SOL    HW1 8207   2.504   1.231   0.729  1.6337 -1.8342 -1.9007
 2629SOL    HW2 8208   2.421   1.352   0.657  3.2965  0.5953  0.0632
 2630SOL     OW 8209   2.749   1.745   0.892 -0.3321 -0.6630 -0.3195
 2630SOL    HW1 8210   2.666   1.791   0.862 -0.7559 -0.1033  1.5899
 2630SOL    HW2 8211   2.822   1.760   0.825 -1.6323 -0.8674 -1.8446
 2631SOL     OW 8212   2.768   1.679   1.149  0.0044  0.1853  0.7033
 2631SOL    HW1 8213   2.776   1.711   1.055  0.2686  0.5092  0.8311
 2631SOL    HW2 8214   2.744   1.583   1.150 -1.3575  0.5059  0.3127
 2632SOL     OW 8215   4.451   2.194   1.353  0.2140 -0.3321  0.1829
 2632SOL    HW1 8216   4.446   2.254   1.274 -0.2000 -2.6503 -1.6715
 2632SOL    HW2 8217   4.547   2.180   1.379  0.3371  0.6542  0.2691
 2633SOL     OW 8218   2.969   2.303   2.023 -0.2010 -0.0525  0.9443
 2633SOL    HW1 8219   3.044   2.350   2.069 -0.6427  2.6781 -0.8554
 2633SOL    HW2 8220   2.989   2.206   2.016  1.2646 -0.0559  3.9943
 2634SOL     OW 8221   4.058   3.206   0.971  0.2082 -0.4381 -0.3309
 2634SOL    HW1 8222   3.980   3.243   0.919 -0.0585 -0.7509 -0.1610
 2634SOL    HW2 8223   4.143   3.246   0.937 -0.1561  1.2199  0.6050
 2635SOL     OW 8224   2.750   3.749   0.038 -0.1574 -0.4651 -0.1785
 2635SOL    HW1 8225   2.691   3.684   0.085 -1.8863  0.3213 -1.1898
 2635SOL    HW2 8226   2.764   3.830   0.095 -0.3794 -0.4857 -0.0968
 2636SOL     OW 8227   5.434   2.767   0.929  0.3279 -0.2160 -0.2777
 2636SOL    HW1 8228   5.499   2.756   0.854  0.3132 -4.0735  0.1142
 2636SOL    HW2 8229   5.483   2.789   1.013  0.8422 -0.4818 -0.5051
 2637SOL     OW 8230   3.399   3.054   3.964 -0.0179 -0.6866 -0.0709
 2637SOL    HW1 8231   3.405   3.129   4.030  1.9004  1.2284 -2.2494
 2637SOL    HW2 8232   3.308   3.053   3.923 -0.2862 -0.0054  0.4962
 2638SOL     OW 8233   1.700   2.038   1.121 -0.7372 -0.0634  0.4413
 2638SOL    HW1 8234   1.687   1.944   1.154 -1.9416  0.2613  0.9195
 2638SOL    HW2 8235   1.771   2.038   1.051  1.2240 -0.9027  2.3270
 2639SOL     OW 8236   3.166   3.218   0.995  0.2209  0.0404  0.0634
 2639SOL    HW1 8237   3.088   3.236   0.936  0.1161 -2.9825 -0.9068
 2639SOL    HW2 8238   3.251   3.226   0.941  0.4205  0.9273  0.4932
 2640SOL     OW 8239   2.080   2.316   1.749 -0.6941 -0.0860  0.7874
 2640SOL    HW1 8240   2.143   2.244   1.720 -1.2417 -0.3680  0.2755
 2640SOL    HW2 8241   1.986   2.292   1.723 -0.7498  1.3649 -0.5350
 2641SOL     OW 8242   3.005   2.316   0.344  0.1539  0.2780 -0.0390
 2641SOL    HW1 8243   3.034   2.261   0.266 -2.3941  0.9269 -1.5609
 2641SOL    HW2 8244   2.922   2.367   0.320  0.0569  1.5676  2.6727
 2642SOL     OW 8245   3.387   1.748   0.680 -0.1769 -0.0617  0.0686
 2642SOL    HW1 8246   3.369   1.810   0.604  1.3222  2.1413  1.3602
 2642SOL    HW2 8247   3.454   1.680   0.653 -0.4213  0.0572 -0.8558
 2643SOL     OW 8248   2.678   2.881   1.039 -0.1167 -0.0176 -0.1359
 2643SOL    HW1 8249   2.588   2.900   0.999 -0.1915  0.7841  0.3904
 2643SOL    HW2 8250   2.708   2.960   1.093  1.3762  0.1492 -1.1537
 2644SOL     OW 8251   3.147   1.467   0.825 -0.4831 -0.7273 -0.2745
 2644SOL    HW1 8252   3.123   1.555   0.784 -1.8152 -0.4901  0.9341
 2644SOL    HW2 8253   3.220   1.424   0.771 -1.8293 -0.2601 -2.6398
 2645SOL     OW 8254   2.023   2.975   1.333 -0.3234  0.2913 -0.4601
 2645SOL    HW1 8255   1.962   2.932   1.266  0.0528 -2.3121  0.7201
 2645SOL    HW2 8256   2.004   2.939   1.424  0.6153  2.1189  0.5279
 2646SOL     OW 8257   2.017   2.558   0.952  0.0075 -0.1851 -0.0439
 2646SOL    HW1 8258   2.092   2.546   0.886  0.4501  0.5155  0.3184
 2646SOL    HW2 8259   1.970   2.471   0.964  0.5924 -0.5752 -0.4826
 2647SOL     OW 8260   2.315   2.293   0.176 -0.0127 -0.0234  0.3691
 2647SOL    HW1 8261   2.357   2.202   0.167  2.2210  0.8810  0.9139
 2647SOL    HW2 8262   2.216   2.285   0.167  0.0564 -2.6142  1.0479
 2648SOL     OW 8263   2.565   3.471   4.783  0.3063  0.5342 -0.0121
 2648SOL    HW1 8264   2.647   3.432   4.825  0.2071 -0.6678 -0.8954
 2648SOL    HW2 8265   2.548   3.561   4.823  1.2366  0.2080  1.2053
 2649SOL     OW 8266   3.305   2.755   0.622  0.0609  0.3548 -0.2804
 2649SOL    HW1 8267   3.216   2.801   0.620 -0.7404 -1.1667 -0.9110
 2649SOL    HW2 8268   3.292   2.656   0.628  1.7102  0.0752 -0.6935
 2650SOL     OW 8269   3.541   1.668   5.098 -0.7119  0.0131 -0.2201
 2650SOL    HW1 8270   3.508   1.631   5.184  1.2065  0.0650  0.5874
 2650SOL    HW2 8271   3.463   1.688   5.038 -1.9332 -4.0857 -0.2678
 2651SOL     OW 8272   2.045   1.915   1.084  0.0244  0.1992  0.0057
 2651SOL    HW1 8273   2.037   1.907   1.183 -1.6356 -1.4476 -0.2067
 2651SOL    HW2 8274   2.097   1.838   1.048  1.4705  1.3061 -0.3456
 2652SOL     OW 8275   2.754   2.010   2.038 -0.4626  0.4044  0.2030
 2652SOL    HW1 8276   2.672   1.954   2.022  0.0498  0.1312 -1.6057
 2652SOL    HW2 8277   2.793   2.038   1.951  0.4100  1.9941  1.0579
 2653SOL     OW 8278   3.601   2.851   5.546 -0.1629 -0.3466 -0.1360
 2653SOL    HW1 8279   3.672   2.916   5.519 -0.5956  0.4824  0.6574
 2653SOL    HW2 8280   3.537   2.838   5.470 -0.5292  0.7966 -0.0361
 2654SOL     OW 8281   2.921   1.084   1.887 -0.2322  0.3421  0.2065
 2654SOL    HW1 8282   2.990   1.035   1.941  0.5486  0.6159 -0.5321
 2654SOL    HW2 8283   2.937   1.182   1.893 -0.8521  0.4326  0.4160
 2655SOL     OW 8284   1.633   1.745   0.357  0.0940  0.3403  0.1118
 2655SOL    HW1 8285   1.606   1.827   0.406  1.3509  0.7693  0.1046
 2655SOL    HW2 8286   1.681   1.770   0.273 -1.8373 -0.3735 -1.3064
 2656SOL     OW 8287   1.211   2.997   1.205 -0.5359 -0.1577 -0.1577
 2656SOL    HW1 8288   1.300   2.955   1.189 -1.5764 -2.1060 -1.1921
 2656SOL    HW2 8289   1.161   2.945   1.275 -1.3384  0.1239 -0.5031
 2657SOL     OW 8290   2.980   2.537   0.896 -0.1698  0.0789 -0.1034
 2657SOL    HW1 8291   3.039   2.472   0.943  1.0040  2.9620  2.7358
 2657SOL    HW2 8292   2.905   2.564   0.956 -0.7062  1.2307 -1.2376
 2658SOL     OW 8293   3.241   2.436   0.408  0.0067  0.6547  0.1922
 2658SOL    HW1 8294   3.257   2.499   0.333  0.4436 -0.6094 -0.8248
 2658SOL    HW2 8295   3.152   2.391   0.395  0.7207 -0.6396 -0.4033
 2659SOL     OW 8296   1.553   2.167   1.595  0.0395  0.0175 -0.2700
 2659SOL    HW1 8297   1.544   2.184   1.496 -1.1377 -0.0492 -0.1916
 2659SOL    HW2 8298   1.535   2.070   1.613  3.4318 -0.7269 -0.3322
 2660SOL     OW 8299   2.283   3.060   1.608  0.1100 -0.3933 -0.2333
 2660SOL    HW1 8300   2.199   3.022   1.647 -1.9884  3.6388 -0.2307
 2660SOL    HW2 8301   2.293   3.031   1.513 -0.1601 -2.4492  0.3246
 2661SOL     OW 8302   0.778   2.030   1.388  0.0297 -0.1754 -0.2502
 2661SOL    HW1 8303   0.694   1.986   1.355 -0.2083 -0.8123  1.1465
 2661SOL    HW2 8304   0.763   2.065   1.481  1.4026 -0.5478  0.1286
 2662SOL     OW 8305   1.730   2.020   0.752 -0.5861  0.1032 -0.3932
 2662SOL    HW1 8306   1.661   2.092   0.745  1.1704  1.8588 -0.3988
 2662SOL    HW2 8307   1.686   1.934   0.779 -2.8627  0.9445 -1.2441
 2663SOL     OW 8308   4.569   3.220   5.529 -0.2875  0.1535  0.9727
 2663SOL    HW1 8309   4.500   3.282   5.491  0.7136 -0.0590 -1.3480
 2663SOL    HW2 8310   4.532   3.127   5.532 -0.1903  0.0748 -0.0677
 2664SOL     OW 8311   2.896   1.862   5.371  0.7506 -0.7049 -0.2780
 2664SOL    HW1 8312   2.960   1.938   5.359  0.6591 -0.7236 -0.9136
 2664SOL    HW2 8313   2.840   1.852   5.289  0.3798 -1.1082  0.0168
 2665SOL     OW 8314   3.129   3.185   1.299  0.2462  0.1382  0.3038
 2665SOL    HW1 8315   3.156   3.203   1.204  2.1610  3.0927  1.3046
 2665SOL    HW2 8316   3.184   3.110   1.336 -1.5900 -2.1502 -1.2426
 2666SOL     OW 8317   1.185   2.777   1.608 -0.1583 -0.4185  0.2981
 2666SOL    HW1 8318   1.173   2.740   1.700 -0.3984  1.9182  1.2748
 2666SOL    HW2 8319   1.248   2.855   1.612 -2.1295  1.3285 -1.0467
 2667SOL     OW 8320   3.674   2.620   5.247 -0.5886 -0.4276 -0.0627
 2667SOL    HW1 8321   3.759   2.672   5.247  0.9202 -2.6780  2.3992
 2667SOL    HW2 8322   3.598   2.681   5.272  0.6014  1.1436 -0.1196
 2668SOL     OW 8323   4.046   3.168   2.989 -0.0523  0.5370 -0.2089
 2668SOL    HW1 8324   4.137   3.180   3.030  0.0543  0.0717 -0.3100
 2668SOL    HW2 8325   4.013   3.257   2.956 -0.5308  1.1092  1.6728
 2669SOL     OW 8326   3.636   3.178   0.865  0.3502  0.6452 -0.2300
 2669SOL    HW1 8327   3.663   3.192   0.960  0.5334  0.6947 -0.2874
 2669SOL    HW2 8328   3.545   3.216   0.849  0.6527  1.3761 -0.2734
 2670SOL     OW 8329   1.550   1.029   2.125 -0.0838  0.1660  0.4023
 2670SOL    HW1 8330   1.591   1.108   2.170  0.1014  0.7639 -0.7654
 2670SOL    HW2 8331   1.527   0.960   2.193  0.3343  0.9602  1.3769
 2671SOL     OW 8332   2.429   2.284   1.542  0.2785  0.3551  0.5538
 2671SOL    HW1 8333   2.512   2.230   1.532 -0.2444 -0.4798  0.6750
 2671SOL    HW2 8334   2.375   2.250   1.619 -0.0333  1.0887  0.6758
 2672SOL     OW 8335   1.775   1.692   2.010 -0.0142 -0.2193  0.2414
 2672SOL    HW1 8336   1.789   1.598   1.978  1.2712  0.2675 -0.7405
 2672SOL    HW2 8337   1.764   1.692   2.109  2.8141 -1.2010  0.6572
 2673SOL     OW 8338   2.345   1.176   1.026  0.2684  0.1772  0.0300
 2673SOL    HW1 8339   2.426   1.203   1.077 -0.1646  0.9736  0.3050
 2673SOL    HW2 8340   2.295   1.257   0.995 -1.6798 -0.2110  1.8696
 2674SOL     OW 8341   2.529   3.275   0.624 -0.7182 -0.2457  0.5200
 2674SOL    HW1 8342   2.465   3.232   0.560  0.9086 -1.5965 -0.2718
 2674SOL    HW2 8343   2.531   3.222   0.709 -0.4077 -0.4155  0.4093
 2675SOL     OW 8344   2.158   4.313   0.336  0.7137 -0.1430  0.3939
 2675SOL    HW1 8345   2.177   4.273   0.426 -0.2399  0.0126  0.6708
 2675SOL    HW2 8346   2.244   4.344   0.295  1.0479  0.7317  1.6959
 2676SOL     OW 8347   3.463   2.555   1.679 -0.0064 -0.5891  0.7008
 2676SOL    HW1 8348   3.460   2.594   1.587  0.1831  0.8498  1.2745
 2676SOL    HW2 8349   3.371   2.552   1.717  0.1027  0.4860  1.1020
 2677SOL     OW 8350   2.067   2.004   1.512  0.8913  0.4321 -0.0363
 2677SOL    HW1 8351   2.092   2.003   1.609 -1.5111  0.1547  0.6276
 2677SOL    HW2 8352   2.004   2.079   1.494  1.1292  0.3450 -1.3691
 2678SOL     OW 8353   0.766   2.142   1.617 -0.0263 -0.2797 -0.6691
 2678SOL    HW1 8354   0.834   2.213   1.598 -0.8104  0.6918  0.0398
 2678SOL    HW2 8355   0.693   2.180   1.674 -1.5751 -1.0673 -2.0128
 2679SOL     OW 8356   1.349   2.573   1.491  0.2689  0.5402 -0.4202
 2679SOL    HW1 8357   1.307   2.653   1.534  0.7226  0.3344  0.4129
 2679SOL    HW2 8358   1.288   2.538   1.420  0.2372  1.8557 -1.0721
 2680SOL     OW 8359   1.657   2.882   1.010 -0.2753 -1.2571  0.4388
 2680SOL    HW1 8360   1.701   2.892   0.921 -1.3557  0.2495  0.0292
 2680SOL    HW2 8361   1.726   2.883   1.082  0.5802 -2.1025 -0.3395
 2681SOL     OW 8362   4.692   3.324   1.462 -0.4252 -0.1189  0.3189
 2681SOL    HW1 8363   4.611   3.323   1.403  1.5667 -0.9954 -2.6450
 2681SOL    HW2 8364   4.730   3.416   1.467 -3.1022  0.9958  4.2231
 2682SOL     OW 8365   2.246   3.235   1.245 -0.0793 -0.3442  0.2759
 2682SOL    HW1 8366   2.292   3.151   1.276  2.4749  1.0032  0.3849
 2682SOL    HW2 8367   2.272   3.255   1.151 -1.1204  0.0569  0.0597
 2683SOL     OW 8368   2.597   1.665   1.655 -0.0814  0.1868 -0.1795
 2683SOL    HW1 8369   2.649   1.729   1.599  0.7055 -0.1259  0.1760
 2683SOL    HW2 8370   2.565   1.589   1.598 -0.2616  0.4404 -0.4220
 2684SOL     OW 8371   2.507   1.133   0.202 -0.4726  0.6569  0.7276
 2684SOL    HW1 8372   2.526   1.231   0.194 -0.5460  0.6099 -0.0177
 2684SOL    HW2 8373   2.477   1.096   0.114  0.9014 -0.3288  0.6372
 2685SOL     OW 8374   1.238   1.495   1.378 -0.4705  0.1632 -0.6161
 2685SOL    HW1 8375   1.160   1.541   1.335 -0.7056  0.4655  0.1104
 2685SOL    HW2 8376   1.322   1.545   1.357 -0.7631  1.1593  0.4307
 2686SOL     OW 8377   2.338   2.237   0.625 -0.3503  0.1450 -0.2374
 2686SOL    HW1 8378   2.436   2.237   0.641 -0.4206  0.6352  0.1949
 2686SOL    HW2 8379   2.291   2.204   0.707 -0.4855 -1.2528 -0.8524
 2687SOL     OW 8380   2.090   4.485   4.541 -0.5195  0.0695  0.9981
 2687SOL    HW1 8381   2.015   4.472   4.476 -0.3238 -0.0378  0.7932
 2687SOL    HW2 8382   2.147   4.562   4.512 -0.4384  0.0290  1.0474
 2688SOL     OW 8383   2.729   4.191   1.330 -0.4495  0.4021  0.4305
 2688SOL    HW1 8384   2.701   4.215   1.423  0.7368 -3.5028  1.9820
 2688SOL    HW2 8385   2.823   4.222   1.315 -0.4331  0.5096  0.7461
 2689SOL     OW 8386   2.982   4.235   1.326  0.1791 -0.1482 -0.2452
 2689SOL    HW1 8387   3.051   4.217   1.255 -0.9282 -4.2754 -0.4809
 2689SOL    HW2 8388   3.020   4.214   1.416  0.3304  1.3230  0.0740
 2690SOL     OW 8389   1.933   1.922   0.588  0.2086 -0.3381 -0.2254
 2690SOL    HW1 8390   1.845   1.928   0.634  0.8994 -1.0834  1.2661
 2690SOL    HW2 8391   1.938   1.992   0.517 -1.1446  0.4503  0.4095
 2691SOL     OW 8392   3.850   1.053   0.755 -0.0170 -0.3560 -0.3920
 2691SOL    HW1 8393   3.875   1.123   0.688  0.3928 -1.5011 -1.4651
 2691SOL    HW2 8394   3.923   1.044   0.823  0.7654 -0.9888 -1.2943
 2692SOL     OW 8395   3.488   2.037   0.071  0.1059 -0.5264 -0.2806
 2692SOL    HW1 8396   3.568   1.978   0.081 -0.3854 -0.9967  1.1060
 2692SOL    HW2 8397   3.505   2.124   0.117 -0.8882 -1.3863  1.8218
 2693SOL     OW 8398   2.207   3.627   1.249 -0.4826 -0.0449  0.8619
 2693SOL    HW1 8399   2.224   3.559   1.321 -0.6822 -0.9635  0.0537
 2693SOL    HW2 8400   2.108   3.641   1.240 -0.8015 -2.9715 -1.9196
 2694SOL     OW 8401   1.303   4.428   1.975 -0.5509  0.5583  0.2802
 2694SOL    HW1 8402   1.216   4.396   1.939  0.8551 -0.2120 -2.7277
 2694SOL    HW2 8403   1.334   4.366   2.048 -1.5915 -0.2888  0.0172
 2695SOL     OW 8404   3.405   2.848   0.153 -0.2352  0.3331  0.1268
 2695SOL    HW1 8405   3.467   2.888   0.221 -0.0383 -2.1266  1.4922
 2695SOL    HW2 8406   3.455   2.833   0.068  1.1868 -1.7811  1.2665
 2696SOL     OW 8407   3.312   3.329   5.326  0.7393  0.0741 -0.1712
 2696SOL    HW1 8408   3.299   3.277   5.410 -1.4259  1.9441  0.7603
 2696SOL    HW2 8409   3.390   3.293   5.276  2.4172 -0.8142  2.8444
 2697SOL     OW 8410   3.911   2.059   5.161  0.4043  0.0602  0.3132
 2697SOL    HW1 8411   3.861   1.986   5.114  0.3803  0.2390  0.0594
 2697SOL    HW2 8412   3.962   2.020   5.238  0.1281 -0.1713  0.3806
 2698SOL     OW 8413   1.388   2.430   0.751  0.2306  0.7987 -0.4667
 2698SOL    HW1 8414   1.463   2.467   0.805 -1.0609  0.9281  1.3281
 2698SOL    HW2 8415   1.303   2.435   0.804 -0.4718 -2.5034 -1.0354
 2699SOL     OW 8416   2.736   2.176   5.404  0.0423  0.3447  0.4951
 2699SOL    HW1 8417   2.807   2.174   5.334 -1.5573  0.3096 -1.2049
 2699SOL    HW2 8418   2.661   2.115   5.377 -0.1417 -0.5388  2.8045
 2700SOL     OW 8419   3.061   2.910   4.786  0.0446 -0.1999  0.2351
 2700SOL    HW1 8420   3.108   2.849   4.851 -0.3282 -0.7137  0.0318
 2700SOL    HW2 8421   3.010   2.855   4.720 -1.1449  0.3527  0.6720
 2701SOL     OW 8422   2.890   4.091   0.486  0.5047 -0.1609  0.8701
 2701SOL    HW1 8423   2.836   4.173   0.507  1.9836  1.5447 -1.3942
 2701SOL    HW2 8424   2.835   4.009   0.499 -1.8791  1.3458  0.7837
 2702SOL     OW 8425   2.445   3.449   0.302  0.5888 -0.0141 -0.1412
 2702SOL    HW1 8426   2.479   3.464   0.395 -2.7747 -2.9748  1.8196
 2702SOL    HW2 8427   2.506   3.385   0.254  0.6299 -1.0985  1.2972
 2703SOL     OW 8428   3.796   4.036   1.556 -0.1141 -0.2119  0.1278
 2703SOL    HW1 8429   3.711   4.030   1.608 -0.5758  1.1651 -0.4342
 2703SOL    HW2 8430   3.779   4.006   1.462 -0.4565  1.8053 -0.4849
 2704SOL     OW 8431   2.426   2.881   0.292  0.0884 -0.2811  0.0964
 2704SOL    HW1 8432   2.354   2.877   0.361 -1.1924  0.1180 -1.1618
 2704SOL    HW2 8433   2.499   2.941   0.323 -0.5976  0.1230  0.9859
 2705SOL     OW 8434   2.931   2.926   0.422 -0.2397  0.4046  0.2303
 2705SOL    HW1 8435   2.995   2.878   0.362  0.7456  2.6814 -0.6771
 2705SOL    HW2 8436   2.837   2.908   0.393  0.2134  1.4114 -2.0357
 2706SOL     OW 8437   1.748   3.040   0.365 -0.1247 -0.0732  0.2485
 2706SOL    HW1 8438   1.713   3.035   0.271  0.5390 -0.5176  0.0226
 2706SOL    HW2 8439   1.766   3.136   0.389 -0.8598  0.0992  0.1360
 2707SOL     OW 8440   3.129   1.654   1.476 -0.4700 -0.1212  0.2596
 2707SOL    HW1 8441   3.113   1.568   1.523 -2.0761  0.2981  0.5542
 2707SOL    HW2 8442   3.105   1.645   1.380  1.2804 -0.5283 -0.1757
 2708SOL     OW 8443   2.605   2.126   0.936 -0.3898  0.3278 -0.2240
 2708SOL    HW1 8444   2.672   2.093   1.003  0.1833  2.8899  0.5721
 2708SOL    HW2 8445   2.514   2.127   0.977 -0.2926  0.4259 -0.0103
 2709SOL     OW 8446   2.126   2.728   2.834 -0.3441  0.2655 -0.1447
 2709SOL    HW1 8447   2.048   2.729   2.772  1.0813  0.5194 -2.0388
 2709SOL    HW2 8448   2.148   2.821   2.862 -1.0157  0.1466  0.8195
 2710SOL     OW 8449   0.988   1.443   0.600 -0.1634  0.0115  1.0760
 2710SOL    HW1 8450   0.943   1.408   0.518 -1.3235  1.4014  1.0717
 2710SOL    HW2 8451   0.943   1.407   0.681 -0.0112 -0.1447  1.0917
 2711SOL     OW 8452   1.419   1.984   4.909  0.7947  0.3973  0.2643
 2711SOL    HW1 8453   1.515   1.969   4.886  0.7979  1.1056 -0.2173
 2711SOL    HW2 8454   1.366   1.902   4.885  1.0640  0.5035 -0.7486
 2712SOL     OW 8455   4.325   3.902   1.243  1.1685  0.2924 -0.2114
 2712SOL    HW1 8456   4.311   3.842   1.164  0.3832  0.1854  0.0080
 2712SOL    HW2 8457   4.261   3.878   1.315  0.5771  1.6342 -0.2608
 2713SOL     OW 8458   3.418   1.270   0.779  0.3579 -0.2267  0.0232
 2713SOL    HW1 8459   3.417   1.306   0.685 -0.1820 -0.1875  0.0386
 2713SOL    HW2 8460   3.437   1.172   0.777 -0.0224 -0.3008 -0.1609
 2714SOL     OW 8461   3.355   3.230   0.803 -0.1722  0.2692  0.0061
 2714SOL    HW1 8462   3.370   3.305   0.739 -3.4349  1.3580  0.3188
 2714SOL    HW2 8463   3.349   3.144   0.752 -0.0018  0.7256 -0.8061
 2715SOL     OW 8464   2.263   2.165   1.337  0.4934  0.3257  0.6924
 2715SOL    HW1 8465   2.204   2.102   1.388 -0.7062  1.4643  0.7662
 2715SOL    HW2 8466   2.326   2.210   1.400  0.7761 -0.1722  0.7680
 2716SOL     OW 8467   2.981   3.390   1.373 -0.7159 -0.0980 -0.2212
 2716SOL    HW1 8468   2.929   3.429   1.297  1.0097 -0.3732 -1.6043
 2716SOL    HW2 8469   3.026   3.306   1.344 -0.6259 -0.6422  1.3597
 2717SOL     OW 8470   4.229   3.274   1.848  0.3469 -0.2371  0.2213
 2717SOL    HW1 8471   4.313   3.300   1.896 -0.2759  1.8614  0.2792
 2717SOL    HW2 8472   4.210   3.177   1.863  1.5208 -0.2099  2.1244
 2718SOL     OW 8473   2.576   4.043   1.148  0.6933  0.0624  0.2361
 2718SOL    HW1 8474   2.526   3.972   1.197  0.8240 -0.3849 -0.2700
 2718SOL    HW2 8475   2.629   4.097   1.213  2.1145 -1.5110  0.4700
 2719SOL     OW 8476   3.878   3.292   0.796  0.3649 -0.2267  0.3612
 2719SOL    HW1 8477   3.793   3.241   0.794 -1.2035  2.2067  0.7560
 2719SOL    HW2 8478   3.922   3.288   0.706 -0.2987 -1.2885  0.0767
 2720SOL     OW 8479   3.568   2.286   0.111 -0.3607  0.3322 -0.0253
 2720SOL    HW1 8480   3.661   2.303   0.077 -0.9719  0.1482 -1.8506
 2720SOL    HW2 8481   3.564   2.310   0.208  2.1114 -1.4643  0.6448
 2721SOL     OW 8482   1.512   2.739   0.685  0.2717 -0.2858  0.2854
 2721SOL    HW1 8483   1.598   2.791   0.681 -0.0587  0.2794  0.3801
 2721SOL    HW2 8484   1.532   2.643   0.705  0.9080 -0.2363 -0.0849
 2722SOL     OW 8485   2.783   2.575   1.300  0.1627 -0.4219 -0.4291
 2722SOL    HW1 8486   2.685   2.558   1.288 -0.0947  0.7428 -0.1235
 2722SOL    HW2 8487   2.802   2.602   1.394  0.3927  1.6075 -1.0043
 2723SOL     OW 8488   4.378   2.935   1.358 -0.7152  0.1585 -0.4408
 2723SOL    HW1 8489   4.320   2.900   1.432 -0.1560 -1.2754 -0.6532
 2723SOL    HW2 8490   4.472   2.944   1.391 -0.5410 -0.1165 -0.8605
 2724SOL     OW 8491   2.407   4.463   4.282 -0.4864 -0.1055  0.0284
 2724SOL    HW1 8492   2.326   4.518   4.304 -0.0453  0.4363  0.3286
 2724SOL    HW2 8493   2.398   4.373   4.324  0.5083  1.0091  2.9208
 2725SOL     OW 8494   3.884   3.633   1.259 -0.3537 -0.1603  1.0433
 2725SOL    HW1 8495   3.931   3.627   1.171  1.0890 -0.3947  1.8114
 2725SOL    HW2 8496   3.796   3.679   1.246  0.5310  1.2822 -0.2553
 2726SOL     OW 8497   0.599   3.283   0.003  0.0656  0.3034  0.2395
 2726SOL    HW1 8498   0.649   3.272   0.089  0.5173 -0.7209 -0.1348
 2726SOL    HW2 8499   0.515   3.334   0.020  0.7824  1.2714  1.0442
 2727SOL     OW 8500   2.133   2.970   4.826 -0.7898 -0.3018  0.3648
 2727SOL    HW1 8501   2.061   3.016   4.877 -1.2261 -0.4949 -0.0731
 2727SOL    HW2 8502   2.139   3.010   4.734 -0.4326 -0.3814  0.3507
 2728SOL     OW 8503   4.433   4.295   0.643  0.3484  0.0022 -0.0125
 2728SOL    HW1 8504   4.442   4.219   0.579 -0.6436 -0.3924  0.2985
 2728SOL    HW2 8505   4.522   4.341   0.653  0.8152 -0.7350 -0.6640
 2729SOL     OW 8506   2.386   2.639   1.921 -0.0509  0.2327 -0.5459
 2729SOL    HW1 8507   2.446   2.588   1.859  2.0702 -1.4899  2.6339
 2729SOL    HW2 8508   2.424   2.731   1.935  1.6978 -0.6791  1.0625
 2730SOL     OW 8509   1.742   2.737   4.776  0.2100  0.6809 -0.3391
 2730SOL    HW1 8510   1.700   2.647   4.781  0.2712  0.7314  2.3405
 2730SOL    HW2 8511   1.842   2.727   4.769  0.0672  0.5889 -3.2684
 2731SOL     OW 8512   2.053   2.811   1.562 -0.5389  0.5915 -0.1034
 2731SOL    HW1 8513   2.145   2.772   1.567 -1.0087 -0.4790  0.5578
 2731SOL    HW2 8514   2.035   2.865   1.644  0.0505  2.1284 -0.9430
 2732SOL     OW 8515   2.193   0.555   2.521  0.4340 -0.4365 -0.4902
 2732SOL    HW1 8516   2.107   0.604   2.508 -0.8186 -2.6786 -1.2928
 2732SOL    HW2 8517   2.182   0.460   2.491  3.4266 -0.6292 -1.3529
 2733SOL     OW 8518   2.359   1.783   1.257  0.4704  0.2799  0.2815
 2733SOL    HW1 8519   2.288   1.797   1.326 -0.4611 -2.4272 -0.0011
 2733SOL    HW2 8520   2.316   1.764   1.169  1.5599 -0.3518 -0.1258
 2734SOL     OW 8521   3.843   3.371   1.299  0.2136  0.7258  0.2424
 2734SOL    HW1 8522   3.929   3.326   1.275 -0.0495  0.8426 -0.9925
 2734SOL    HW2 8523   3.846   3.466   1.271 -0.7566  0.4269 -0.9710
 2735SOL     OW 8524   3.671   3.061   0.595 -0.3956 -0.3403 -0.9203
 2735SOL    HW1 8525   3.761   3.094   0.566  1.3362 -3.2076  0.6904
 2735SOL    HW2 8526   3.658   3.083   0.692 -1.2648 -0.3346 -1.0339
 2736SOL     OW 8527   3.357   2.333   1.355 -0.0127 -0.2664 -0.2484
 2736SOL    HW1 8528   3.329   2.238   1.344 -0.5605 -0.0993 -0.3111
 2736SOL    HW2 8529   3.391   2.368   1.268 -1.1912  0.0376 -0.5975
 2737SOL     OW 8530   2.660   1.564   0.420  0.0027  0.8169 -0.0568
 2737SOL    HW1 8531   2.568   1.539   0.451  0.2280  0.1131  0.0590
 2737SOL    HW2 8532   2.665   1.552   0.321  0.4041 -0.6405  0.1054
 2738SOL     OW 8533   2.530   2.506   1.724  0.7361 -0.2508 -0.2744
 2738SOL    HW1 8534   2.530   2.456   1.637 -0.4472 -2.9261  1.1312
 2738SOL    HW2 8535   2.596   2.465   1.786  1.3461  1.4264  0.2233
 2739SOL     OW 8536   3.480   2.356   5.092  0.2591 -0.1888  0.1012
 2739SOL    HW1 8537   3.574   2.353   5.059  0.2488  0.9664 -0.0791
 2739SOL    HW2 8538   3.417   2.339   5.016  0.3143 -1.4932  0.3221
 2740SOL     OW 8539   1.893   3.768   0.844 -0.7219  0.3129  0.3961
 2740SOL    HW1 8540   1.872   3.778   0.746  2.0654 -0.9557 -0.4187
 2740SOL    HW2 8541   1.991   3.757   0.856 -1.0487 -0.0428  3.3541
 2741SOL     OW 8542   3.362   1.842   0.405 -0.5587  0.0412 -0.3602
 2741SOL    HW1 8543   3.274   1.797   0.391 -0.2713 -0.3773 -0.8900
 2741SOL    HW2 8544   3.425   1.814   0.332  0.0270  0.2963  0.0430
 2742SOL     OW 8545   3.934   1.473   1.018 -0.3890 -0.0042  0.1917
 2742SOL    HW1 8546   4.020   1.422   1.022  0.1564  0.9102  0.4566
 2742SOL    HW2 8547   3.895   1.465   0.926 -0.0568 -0.4783  0.0876
 2743SOL     OW 8548   3.101   1.756   0.405  0.8308 -0.0481 -0.1656
 2743SOL    HW1 8549   3.096   1.837   0.463 -1.3483  0.0350 -0.3964
 2743SOL    HW2 8550   3.086   1.782   0.310 -0.5673 -0.7714 -0.1651
 2744SOL     OW 8551   2.280   2.415   0.407 -0.1497 -0.1716 -0.2868
 2744SOL    HW1 8552   2.301   2.378   0.317 -0.0177  0.0780 -0.3577
 2744SOL    HW2 8553   2.308   2.349   0.477 -0.7518 -0.6064 -0.4440
 2745SOL     OW 8554   3.203   2.625   5.529 -0.2740 -0.0669 -0.8603
 2745SOL    HW1 8555   3.184   2.716   5.492 -1.3986  0.2097  0.3265
 2745SOL    HW2 8556   3.166   2.555   5.468  1.8947  0.1496 -2.5608
 2746SOL     OW 8557   2.039   1.811   2.970 -0.0193  0.0319 -0.1040
 2746SOL    HW1 8558   2.029   1.909   2.959  0.9497  0.1198 -0.2479
 2746SOL    HW2 8559   2.009   1.784   3.061  2.1744  0.8543  0.9423
 2747SOL     OW 8560   1.572   1.857   1.895  0.8988 -0.0423  0.5603
 2747SOL    HW1 8561   1.497   1.870   1.960  1.5478  0.0414  1.3043
 2747SOL    HW2 8562   1.634   1.786   1.930  0.1801 -1.4744 -0.9420
 2748SOL     OW 8563   0.899   2.859   2.316 -0.7903 -0.3388 -0.3934
 2748SOL    HW1 8564   0.977   2.884   2.258  0.0679  0.5912  1.1074
 2748SOL    HW2 8565   0.819   2.912   2.288 -0.9741 -1.3903 -2.0285
 2749SOL     OW 8566   4.205   2.605   3.934  0.5829 -0.1410  0.1061
 2749SOL    HW1 8567   4.213   2.549   4.017  0.8574 -0.1622  0.0667
 2749SOL    HW2 8568   4.205   2.546   3.853 -0.0842 -0.1477  0.1049
 2750SOL     OW 8569   4.096   2.411   2.620 -0.0510 -0.1811 -0.1907
 2750SOL    HW1 8570   4.012   2.412   2.566  1.2300  0.3774 -2.3102
 2750SOL    HW2 8571   4.105   2.497   2.670 -0.5797 -0.1226 -0.1936
 2751SOL     OW 8572   2.439   3.512   2.898 -0.1219  0.3288  0.0875
 2751SOL    HW1 8573   2.422   3.565   2.815 -1.1624  0.5218  0.4050
 2751SOL    HW2 8574   2.538   3.505   2.913  0.0695  0.7848 -0.8437
 2752SOL     OW 8575   3.382   3.643   3.094 -0.0804 -0.2478  0.1407
 2752SOL    HW1 8576   3.405   3.652   3.191  1.5532 -0.3855 -0.2136
 2752SOL    HW2 8577   3.419   3.721   3.044 -0.4053 -0.4759 -0.4623
 2753SOL     OW 8578   3.789   3.180   1.786  0.3468  0.6341  0.5768
 2753SOL    HW1 8579   3.762   3.200   1.880 -0.9176  0.7207  0.2217
 2753SOL    HW2 8580   3.793   3.265   1.734 -1.4696  0.3954 -0.0440
 2754SOL     OW 8581   2.408   4.090   2.128  0.2675  0.5915  0.3598
 2754SOL    HW1 8582   2.313   4.114   2.111 -0.3929 -1.0981  1.3161
 2754SOL    HW2 8583   2.449   4.156   2.192 -0.3294  1.1988  0.1231
 2755SOL     OW 8584   3.167   2.974   3.809 -0.4986  0.1281 -0.5282
 2755SOL    HW1 8585   3.146   2.971   3.711 -0.8318 -0.9850 -0.4405
 2755SOL    HW2 8586   3.201   2.885   3.838  0.5937  0.7470  0.1721
 2756SOL     OW 8587   1.910   4.718   1.964  0.5094  0.2604 -0.2271
 2756SOL    HW1 8588   1.813   4.731   1.982  0.4995  0.4675 -0.4370
 2756SOL    HW2 8589   1.924   4.698   1.867  0.7174  0.6506 -0.2804
 2757SOL     OW 8590   2.043   4.153   1.309 -0.1249 -0.5016  0.1661
 2757SOL    HW1 8591   2.088   4.201   1.234 -0.8154  2.5196  1.5589
 2757SOL    HW2 8592   2.096   4.166   1.393 -1.0971 -0.9796  0.8640
 2758SOL     OW 8593   2.698   3.552   2.934  0.2070 -0.3522  0.2356
 2758SOL    HW1 8594   2.744   3.467   2.962 -0.1620 -1.6378 -2.6809
 2758SOL    HW2 8595   2.747   3.630   2.972  2.4213 -1.7858  0.5588
 2759SOL     OW 8596   2.038   3.048   1.771 -0.3440 -0.3309  0.3632
 2759SOL    HW1 8597   2.069   3.120   1.833  3.6869 -0.9039 -0.6707
 2759SOL    HW2 8598   2.042   2.960   1.818  2.3272 -0.7139 -0.4031
 2760SOL     OW 8599   3.856   2.274   2.839  0.4935 -0.6109  0.2665
 2760SOL    HW1 8600   3.823   2.208   2.772  0.2767 -0.5552  0.3183
 2760SOL    HW2 8601   3.931   2.234   2.891  2.2548  0.1255 -1.5695
 2761SOL     OW 8602   1.820   2.541   2.997  0.0160  0.4890 -0.2933
 2761SOL    HW1 8603   1.850   2.606   3.066  1.3867  1.4573 -1.7447
 2761SOL    HW2 8604   1.768   2.589   2.927 -2.2760 -0.6447  0.5181
 2762SOL     OW 8605   3.688   3.278   2.013 -0.2288  0.1624  0.2632
 2762SOL    HW1 8606   3.762   3.317   2.067 -1.4967  1.6941  0.9851
 2762SOL    HW2 8607   3.629   3.222   2.071 -0.6001  0.3546  0.0758
 2763SOL     OW 8608   1.130   3.705   1.747 -0.3330  0.2695 -0.0816
 2763SOL    HW1 8609   1.172   3.795   1.733  0.7975 -0.3457 -0.7472
 2763SOL    HW2 8610   1.032   3.717   1.766 -0.0409  1.6870  0.7045
 2764SOL     OW 8611   2.009   3.994   1.646 -0.3749  0.2959  0.2286
 2764SOL    HW1 8612   2.056   3.940   1.717 -0.9893  1.4519  1.5703
 2764SOL    HW2 8613   1.961   3.932   1.584 -0.3839 -0.7480  1.2274
 2765SOL     OW 8614   2.248   1.622   2.090  0.0805  0.0760  0.4765
 2765SOL    HW1 8615   2.347   1.626   2.090  0.1237 -0.6738 -0.3295
 2765SOL    HW2 8616   2.211   1.697   2.145  1.0644  0.7608  0.2189
 2766SOL     OW 8617   1.535   3.512   3.067 -0.2879 -0.1936  0.6612
 2766SOL    HW1 8618   1.605   3.566   3.020 -1.2561 -0.0496 -0.6480
 2766SOL    HW2 8619   1.457   3.498   3.007 -0.7059 -1.7766  1.4992
 2767SOL     OW 8620   1.694   3.999   2.788  0.2093  0.0699  0.1966
 2767SOL    HW1 8621   1.785   4.034   2.764  0.6314  0.4587  2.1592
 2767SOL    HW2 8622   1.653   4.058   2.858 -1.6516 -0.0050 -0.7755
 2768SOL     OW 8623   3.014   5.573   3.204  0.2243 -0.4656 -1.1807
 2768SOL    HW1 8624   2.922   5.533   3.210  0.0985 -0.1106 -0.6775
 2768SOL    HW2 8625   3.081   5.507   3.235  0.0023 -0.2520 -0.2046
 2769SOL     OW 8626   4.450   2.965   2.752 -0.0358 -0.1661 -0.3040
 2769SOL    HW1 8627   4.518   3.034   2.775  0.6283 -1.4130  1.7192
 2769SOL    HW2 8628   4.363   3.010   2.729 -0.2218  1.3837  2.9056
 2770SOL     OW 8629   2.948   0.784   2.951 -0.3179  0.1071 -0.2363
 2770SOL    HW1 8630   3.019   0.766   3.020 -0.0342  0.4007 -0.4454
 2770SOL    HW2 8631   2.879   0.845   2.989 -0.0155  0.4931 -0.2964
 2771SOL     OW 8632   3.403   1.901   4.086  0.2555  0.0672  0.2196
 2771SOL    HW1 8633   3.325   1.953   4.122  0.5532  0.3097  0.5256
 2771SOL    HW2 8634   3.407   1.811   4.131 -1.0756 -0.8034 -1.2974
 2772SOL     OW 8635   4.111   2.042   3.220  0.1518 -0.4313  0.1848
 2772SOL    HW1 8636   4.030   2.018   3.166  0.2907 -1.6517  0.4980
 2772SOL    HW2 8637   4.087   2.115   3.284 -0.9079 -1.2526  0.7651
 2773SOL     OW 8638   1.748   3.735   2.720  0.6441  0.4705  0.3483
 2773SOL    HW1 8639   1.666   3.689   2.688  1.0215  0.5821 -0.8374
 2773SOL    HW2 8640   1.725   3.828   2.750  0.2560  0.3161  0.5271
 2774SOL     OW 8641   2.296   4.183   2.651 -0.7299  0.9070 -0.1052
 2774SOL    HW1 8642   2.218   4.245   2.663 -0.9064  0.8408 -0.8889
 2774SOL    HW2 8643   2.282   4.127   2.569 -0.3152  0.2089  0.2929
 2775SOL     OW 8644   2.854   1.017   1.649 -0.7362  0.1346 -0.2241
 2775SOL    HW1 8645   2.905   1.084   1.595  1.3236 -2.0315 -1.1705
 2775SOL    HW2 8646   2.876   1.028   1.746 -2.3349  2.2985 -0.0413
 2776SOL     OW 8647   3.437   2.643   4.819  0.6395 -0.0490  0.5296
 2776SOL    HW1 8648   3.518   2.617   4.871  1.1125  0.6211  0.1466
 2776SOL    HW2 8649   3.449   2.735   4.782 -0.6807  0.4405  1.2386
 2777SOL     OW 8650   2.719   1.661   2.878 -0.0443  0.2897 -0.3762
 2777SOL    HW1 8651   2.776   1.675   2.959 -0.4369 -0.3959  0.0291
 2777SOL    HW2 8652   2.685   1.567   2.877  1.0428 -0.1246 -2.0658
 2778SOL     OW 8653   2.523   3.832   2.588  1.0129  0.1263  0.2591
 2778SOL    HW1 8654   2.572   3.908   2.545  1.1031 -0.6223 -1.0205
 2778SOL    HW2 8655   2.458   3.868   2.655  2.0375  1.2328  0.6816
 2779SOL     OW 8656   3.788   3.116   3.090 -0.1458 -0.1583 -0.0632
 2779SOL    HW1 8657   3.772   3.158   3.179  0.2343  0.9993 -0.5259
 2779SOL    HW2 8658   3.881   3.137   3.059  0.7414 -2.8964  0.4917
 2780SOL     OW 8659   4.321   3.129   3.126 -0.4614 -0.0012 -0.4925
 2780SOL    HW1 8660   4.335   3.155   3.030  0.4691  0.0655 -0.3507
 2780SOL    HW2 8661   4.324   3.029   3.134  0.1196  0.0134 -0.4503
 2781SOL     OW 8662   2.092   3.034   2.278  0.1324  1.0060  0.4276
 2781SOL    HW1 8663   2.078   3.118   2.330  2.3427  0.2338  2.4383
 2781SOL    HW2 8664   2.004   2.988   2.264 -0.6894  1.8714  2.4191
 2782SOL     OW 8665   3.508   2.565   2.172  0.2281 -0.0259  0.0262
 2782SOL    HW1 8666   3.431   2.629   2.161  0.3491 -0.0943 -1.4601
 2782SOL    HW2 8667   3.535   2.530   2.082 -0.0108 -2.4043  0.8196
 2783SOL     OW 8668   2.344   3.062   3.559  0.4970 -0.3713 -0.0283
 2783SOL    HW1 8669   2.368   2.989   3.495  1.4369  0.1264 -0.2705
 2783SOL    HW2 8670   2.258   3.041   3.604 -1.1648  0.0511 -2.7576
 2784SOL     OW 8671   4.402   3.094   3.561 -0.2805 -0.0660  0.0101
 2784SOL    HW1 8672   4.370   3.038   3.485  3.1352  1.5939 -2.9485
 2784SOL    HW2 8673   4.352   3.180   3.563 -0.0859  0.0652 -0.6709
 2785SOL     OW 8674   2.738   1.504   2.570  0.2343 -0.3023  0.3924
 2785SOL    HW1 8675   2.719   1.408   2.588 -0.7355 -0.0557  0.7557
 2785SOL    HW2 8676   2.837   1.518   2.561  0.3268 -1.5002 -0.7055
 2786SOL     OW 8677   1.915   4.680   3.215 -0.2313  0.5242  0.2957
 2786SOL    HW1 8678   1.830   4.733   3.224  0.2994  1.2431  1.3059
 2786SOL    HW2 8679   1.940   4.643   3.304  0.0345 -0.4632 -0.1834
 2787SOL     OW 8680   4.149   1.487   1.347 -0.1249 -0.6593  0.7312
 2787SOL    HW1 8681   4.169   1.430   1.267  0.8002  0.0170  0.4654
 2787SOL    HW2 8682   4.082   1.440   1.405  0.7494 -2.0946  0.6263
 2788SOL     OW 8683   2.606   3.671   2.144  0.1219 -0.1704 -0.4174
 2788SOL    HW1 8684   2.614   3.646   2.241  0.6939 -2.5047 -0.9928
 2788SOL    HW2 8685   2.511   3.690   2.122  0.0800  1.0490  0.7376
 2789SOL     OW 8686   2.149   1.580   1.815  0.1698 -0.4919  0.2520
 2789SOL    HW1 8687   2.058   1.621   1.818 -0.4026 -1.6571 -0.2805
 2789SOL    HW2 8688   2.200   1.606   1.896 -0.2703  0.9801  0.0903
 2790SOL     OW 8689   2.981   2.114   3.530  0.5533 -0.7189 -0.6868
 2790SOL    HW1 8690   3.075   2.149   3.535  1.1132 -2.0454 -1.3966
 2790SOL    HW2 8691   2.919   2.181   3.570  2.0022 -0.6309  1.6096
 2791SOL     OW 8692   1.565   2.213   1.294 -0.5530  0.4201 -0.3119
 2791SOL    HW1 8693   1.574   2.298   1.243  2.0331  0.9319  0.8374
 2791SOL    HW2 8694   1.598   2.137   1.237 -0.1505  0.6055 -0.3285
 2792SOL     OW 8695   3.507   2.359   4.223 -0.0704  0.0102 -0.4002
 2792SOL    HW1 8696   3.589   2.413   4.204  1.0871 -1.5044  0.1455
 2792SOL    HW2 8697   3.506   2.278   4.164  0.1683 -1.3101  1.3443
 2793SOL     OW 8698   2.812   1.506   2.128  0.5670  0.1328  0.1902
 2793SOL    HW1 8699   2.772   1.571   2.192  0.6276 -1.1041  1.5379
 2793SOL    HW2 8700   2.829   1.551   2.041 -3.8243  0.7441 -0.5710
 2794SOL     OW 8701   1.831   0.947   2.414  0.0920  0.0900 -0.1402
 2794SOL    HW1 8702   1.872   0.896   2.490  0.2072 -0.7433 -0.7543
 2794SOL    HW2 8703   1.885   0.932   2.331 -0.8396 -0.1316 -0.7068
 2795SOL     OW 8704   2.616   2.206   2.443 -0.2562  0.1242 -0.2085
 2795SOL    HW1 8705   2.521   2.222   2.418 -0.2761  0.7027  0.2246
 2795SOL    HW2 8706   2.676   2.232   2.367 -0.3044  2.0106  0.3424
 2796SOL     OW 8707   3.962   1.985   3.929  0.1736  0.4646 -0.1987
 2796SOL    HW1 8708   3.971   2.041   3.846 -0.9483  1.1742  0.1377
 2796SOL    HW2 8709   4.053   1.953   3.957  0.5882  0.3343 -1.6100
 2797SOL     OW 8710   2.241   4.346   2.387 -0.5445  0.0521  0.6887
 2797SOL    HW1 8711   2.222   4.444   2.377  0.0427  0.3237  2.0225
 2797SOL    HW2 8712   2.176   4.306   2.452  2.6743  0.8821  4.8874
 2798SOL     OW 8713   2.777   2.094   1.755 -0.0886  0.7393 -0.1214
 2798SOL    HW1 8714   2.809   2.167   1.694 -0.4502  1.0965  0.1179
 2798SOL    HW2 8715   2.749   2.015   1.700 -1.8037  1.5930 -0.5264
 2799SOL     OW 8716   2.116   0.809   2.258 -0.0309 -0.2253 -0.2854
 2799SOL    HW1 8717   2.124   0.896   2.211 -1.0928  0.0879  0.0786
 2799SOL    HW2 8718   2.195   0.751   2.236  1.5827  1.4584  0.8309
 2800SOL     OW 8719   3.025   1.934   2.927 -0.2320  0.2283  0.3484
 2800SOL    HW1 8720   3.061   1.944   2.834 -0.7906 -0.7941  0.0037
 2800SOL    HW2 8721   2.933   1.973   2.931 -0.8368 -1.0898  0.0329
 2801SOL     OW 8722   4.677   2.156   2.188 -0.6346  1.0193  0.0419
 2801SOL    HW1 8723   4.745   2.188   2.253  0.2653 -0.9867  0.1519
 2801SOL    HW2 8724   4.596   2.215   2.193 -0.3705  1.2670  2.5296
 2802SOL     OW 8725   3.554   2.633   2.534  0.8592 -0.3463  0.1934
 2802SOL    HW1 8726   3.607   2.630   2.450 -1.4264  1.1694 -1.4273
 2802SOL    HW2 8727   3.586   2.708   2.592  0.1323  0.9724 -1.0611
 2803SOL     OW 8728   3.251   2.706   2.183 -0.8110 -0.1918 -0.1112
 2803SOL    HW1 8729   3.246   2.805   2.192 -1.6554 -0.0805 -1.5124
 2803SOL    HW2 8730   3.266   2.665   2.273  1.1820  1.2803  0.3113
 2804SOL     OW 8731   3.382   1.634   1.591  0.0869  0.2614 -0.4512
 2804SOL    HW1 8732   3.358   1.562   1.657  1.9916 -0.2773 -0.2769
 2804SOL    HW2 8733   3.299   1.667   1.546 -1.1869  0.0942  1.6353
 2805SOL     OW 8734   3.015   3.774   4.431  0.0866 -0.0853  0.2949
 2805SOL    HW1 8735   3.107   3.799   4.461  0.4619 -0.8334 -0.2001
 2805SOL    HW2 8736   3.002   3.676   4.442 -0.4497 -0.0708 -0.1580
 2806SOL     OW 8737   4.003   3.804   2.595  0.0392  0.0094  0.7191
 2806SOL    HW1 8738   4.050   3.877   2.545 -0.2161 -0.3499 -0.0565
 2806SOL    HW2 8739   4.051   3.787   2.682  1.9076 -0.9623 -0.4447
 2807SOL     OW 8740   3.463   4.651   3.100  0.1357 -0.1118  0.5244
 2807SOL    HW1 8741   3.483   4.561   3.061 -0.6369 -1.2374  2.5681
 2807SOL    HW2 8742   3.408   4.704   3.035  0.5970 -1.0898 -0.7131
 2808SOL     OW 8743   4.001   2.495   1.781 -0.2761  0.4535 -0.3042
 2808SOL    HW1 8744   3.937   2.559   1.739 -0.2402  2.0693  1.9183
 2808SOL    HW2 8745   4.063   2.459   1.711  1.0470  4.4362 -1.4326
 2809SOL     OW 8746   2.338   4.026   1.770  0.9473  0.3860 -0.4836
 2809SOL    HW1 8747   2.423   4.028   1.823  1.2299  0.4837 -0.9392
 2809SOL    HW2 8748   2.333   4.107   1.712 -0.8789  1.9817  1.7286
 2810SOL     OW 8749   3.292   3.379   3.164 -0.8580  0.2635 -0.2177
 2810SOL    HW1 8750   3.309   3.352   3.259  0.3567 -0.9588 -0.7538
 2810SOL    HW2 8751   3.319   3.474   3.151 -3.9244  1.4942  1.3843
 2811SOL     OW 8752   0.949   3.173   1.433  0.6232 -0.3328 -0.9457
 2811SOL    HW1 8753   1.048   3.174   1.423  0.4870 -0.8664 -2.6320
 2811SOL    HW2 8754   0.908   3.224   1.357 -0.3978 -0.1033 -0.2555
 2812SOL     OW 8755   3.363   3.982   2.799 -0.3576 -0.1800  0.2489
 2812SOL    HW1 8756   3.422   3.935   2.865  0.1564  0.7778  0.4872
 2812SOL    HW2 8757   3.301   4.043   2.848 -0.5161 -0.0553 -0.1055
 2813SOL     OW 8758   4.126   2.473   2.265 -0.3908  0.2230 -0.0396
 2813SOL    HW1 8759   4.145   2.546   2.331  2.1310 -0.9261  0.6561
 2813SOL    HW2 8760   4.150   2.503   2.173 -0.6067  0.7039  0.0616
 2814SOL     OW 8761   2.678   4.013   2.463  0.2125 -0.3358  0.0506
 2814SOL    HW1 8762   2.764   4.047   2.501  0.0175 -0.6663  0.8134
 2814SOL    HW2 8763   2.696   3.969   2.375  0.5599  1.0969 -0.6168
 2815SOL     OW 8764   3.912   2.865   3.224  0.2516  0.6259 -0.6357
 2815SOL    HW1 8765   3.860   2.936   3.176 -0.0185  0.5431 -0.4677
 2815SOL    HW2 8766   3.969   2.907   3.294  0.5857  0.7398 -0.9699
 2816SOL     OW 8767   2.968   1.657   3.314  0.5532 -0.0751  0.6994
 2816SOL    HW1 8768   2.971   1.730   3.382 -3.1609  0.3592  0.6303
 2816SOL    HW2 8769   2.964   1.568   3.360 -1.9112  0.2164  1.2078
 2817SOL     OW 8770   2.525   1.882   0.827 -0.0510  0.2851 -0.4552
 2817SOL    HW1 8771   2.492   1.874   0.733 -0.4228  0.6224 -0.3544
 2817SOL    HW2 8772   2.561   1.975   0.841  0.1148  0.1973 -0.2991
 2818SOL     OW 8773   1.727   2.835   1.657  0.3472  0.1995  0.2036
 2818SOL    HW1 8774   1.733   2.921   1.607 -1.6749  1.4215  1.8684
 2818SOL    HW2 8775   1.664   2.773   1.610  0.8185  0.1323 -0.3403
 2819SOL     OW 8776   1.742   2.877   4.523  0.4254  0.0667  0.0235
 2819SOL    HW1 8777   1.755   2.806   4.455  2.5597  1.7094 -1.4451
 2819SOL    HW2 8778   1.755   2.839   4.615 -1.3775 -1.9498 -0.4770
 2820SOL     OW 8779   3.763   1.827   3.861 -0.1062  0.6958 -0.0786
 2820SOL    HW1 8780   3.798   1.737   3.836  1.2946  1.3855 -0.7236
 2820SOL    HW2 8781   3.838   1.882   3.899 -0.8162  1.7672 -0.1942
 2821SOL     OW 8782   2.522   1.645   2.634 -0.4068  0.4930 -0.0646
 2821SOL    HW1 8783   2.612   1.603   2.623 -0.7668 -0.7000  1.1875
 2821SOL    HW2 8784   2.493   1.637   2.730 -0.9706  2.7047 -0.0002
 2822SOL     OW 8785   3.035   1.823   1.819 -0.4226 -0.2604  0.4104
 2822SOL    HW1 8786   3.008   1.899   1.878 -1.7255 -1.6153  1.6689
 2822SOL    HW2 8787   3.077   1.858   1.735  0.9926  1.7574  1.8702
 2823SOL     OW 8788   3.285   2.266   4.661 -0.5616 -0.3633  0.0636
 2823SOL    HW1 8789   3.208   2.210   4.630 -0.4443 -0.2124 -0.5125
 2823SOL    HW2 8790   3.363   2.252   4.600  0.7861 -2.5330  2.0923
 2824SOL     OW 8791   3.413   3.648   3.355 -0.4727 -0.0777 -0.0717
 2824SOL    HW1 8792   3.420   3.571   3.418  0.5268  0.0048 -0.0648
 2824SOL    HW2 8793   3.358   3.721   3.397  0.0872 -0.0704  0.6624
 2825SOL     OW 8794   2.305   2.788   3.359  0.6979 -0.4202  1.1406
 2825SOL    HW1 8795   2.396   2.754   3.332  0.8474 -0.8156  2.1066
 2825SOL    HW2 8796   2.240   2.772   3.284  1.7964  1.6261 -0.3843
 2826SOL     OW 8797   2.732   2.259   2.180 -0.3750 -0.2448  0.1771
 2826SOL    HW1 8798   2.815   2.287   2.132  0.6713 -0.7305  1.6057
 2826SOL    HW2 8799   2.723   2.159   2.175 -1.4812 -0.1062 -0.8835
 2827SOL     OW 8800   3.230   2.478   2.025 -0.0721  0.2223  0.3625
 2827SOL    HW1 8801   3.217   2.507   1.930  2.8287 -2.1130 -0.9222
 2827SOL    HW2 8802   3.238   2.559   2.084 -2.9992  1.7206 -1.1019
 2828SOL     OW 8803   0.897   3.780   2.806  0.6818 -0.0220  0.0889
 2828SOL    HW1 8804   0.974   3.717   2.798  0.8428  0.0356  1.0804
 2828SOL    HW2 8805   0.888   3.810   2.901 -1.1098 -0.7254  0.1770
 2829SOL     OW 8806   1.214   3.091   3.469  0.1620  0.2161 -0.4424
 2829SOL    HW1 8807   1.218   3.077   3.370  0.0532  1.7619 -0.6864
 2829SOL    HW2 8808   1.173   3.180   3.489 -1.4101 -0.7603  1.0521
 2830SOL     OW 8809   1.819   3.326   2.081 -0.5684 -0.3990  0.1048
 2830SOL    HW1 8810   1.840   3.338   2.178 -0.6926 -0.1620  0.1022
 2830SOL    HW2 8811   1.765   3.404   2.048 -1.6665 -1.1049  0.1704
 2831SOL     OW 8812   2.368   3.696   3.865  0.4238 -0.0536 -0.0152
 2831SOL    HW1 8813   2.331   3.770   3.920  2.5532  0.7922  0.3812
 2831SOL    HW2 8814   2.426   3.638   3.923 -1.1300 -2.0350 -0.3324
 2832SOL     OW 8815   2.041   4.302   2.616 -0.0207  0.4402 -0.2707
 2832SOL    HW1 8816   2.043   4.375   2.684  0.6240 -0.7009  0.9876
 2832SOL    HW2 8817   1.951   4.298   2.573  0.3628  2.9572 -1.5372
 2833SOL     OW 8818   1.609   1.684   5.090  0.5960 -0.2247  0.2465
 2833SOL    HW1 8819   1.654   1.683   5.001  1.5952 -0.1320  0.7419
 2833SOL    HW2 8820   1.637   1.603   5.143  0.1843 -0.1643  0.5674
 2834SOL     OW 8821   3.419   2.887   4.156 -0.3471  0.0544  0.1670
 2834SOL    HW1 8822   3.485   2.948   4.200 -0.0069 -0.0835 -0.1500
 2834SOL    HW2 8823   3.411   2.910   4.059  0.7926 -1.2650 -0.2679
 2835SOL     OW 8824   2.377   1.867   2.524 -0.4835 -0.5222 -0.3816
 2835SOL    HW1 8825   2.438   1.800   2.565 -1.7203 -1.1529  0.4831
 2835SOL    HW2 8826   2.311   1.899   2.592  0.1214  1.6714 -0.7345
 2836SOL     OW 8827   3.730   2.661   2.332 -0.6070  0.2201  0.5362
 2836SOL    HW1 8828   3.751   2.753   2.300  1.8703 -1.3251 -2.8031
 2836SOL    HW2 8829   3.662   2.620   2.272 -2.0539 -0.0972  2.2843
 2837SOL     OW 8830   0.638   2.926   2.004  0.3785 -0.1291 -0.2349
 2837SOL    HW1 8831   0.659   2.955   1.911  2.0208 -1.4201 -0.3287
 2837SOL    HW2 8832   0.545   2.889   2.008 -0.0373  0.7867 -1.1243
 2838SOL     OW 8833   3.155   3.644   2.951  0.6448  0.0167  0.4749
 2838SOL    HW1 8834   3.235   3.649   3.010 -0.0464 -0.2699  1.4665
 2838SOL    HW2 8835   3.113   3.553   2.960  0.8103 -0.2146 -0.8551
 2839SOL     OW 8836   2.531   1.874   1.980  0.0802  0.0965 -0.0044
 2839SOL    HW1 8837   2.471   1.855   1.902  1.2764 -0.7112 -0.7567
 2839SOL    HW2 8838   2.541   1.791   2.035 -0.1010  0.4416  0.5552
 2840SOL     OW 8839   1.167   3.910   3.180 -0.1742 -0.4067  0.7464
 2840SOL    HW1 8840   1.251   3.872   3.141  0.4638 -1.1147  2.6963
 2840SOL    HW2 8841   1.172   4.010   3.181  2.1044 -0.4262  3.6428
 2841SOL     OW 8842   3.608   4.310   2.754 -0.2241 -0.2152  0.4775
 2841SOL    HW1 8843   3.659   4.238   2.800  1.0405  1.5650  1.9889
 2841SOL    HW2 8844   3.643   4.322   2.661 -0.0756 -1.1312  0.4053
 2842SOL     OW 8845   3.643   3.446   3.091  0.2010  0.1490  0.2448
 2842SOL    HW1 8846   3.685   3.537   3.092  0.1962  0.1585  1.7417
 2842SOL    HW2 8847   3.631   3.414   3.185 -2.4718 -0.1525 -0.1038
 2843SOL     OW 8848   2.061   3.243   2.002  0.4831 -0.5648 -0.6400
 2843SOL    HW1 8849   2.118   3.321   2.025  2.7242 -2.0932 -0.7168
 2843SOL    HW2 8850   1.970   3.255   2.043  2.2725 -0.2724  3.8479
 2844SOL     OW 8851   2.155   2.550   4.625 -0.3206  0.3261 -0.0582
 2844SOL    HW1 8852   2.120   2.592   4.709 -0.4996 -0.5018  0.2880
 2844SOL    HW2 8853   2.080   2.507   4.576  0.0315 -0.5156  0.1352
 2845SOL     OW 8854   3.792   1.940   1.702  0.0170  0.1602  0.2263
 2845SOL    HW1 8855   3.768   2.035   1.687  0.3872  0.4498  1.3522
 2845SOL    HW2 8856   3.713   1.890   1.736  0.0882  0.3079  0.6135
 2846SOL     OW 8857   1.986   4.591   3.460 -0.1689  0.4011  0.0802
 2846SOL    HW1 8858   2.086   4.588   3.450 -0.2011 -0.4685  0.0128
 2846SOL    HW2 8859   1.958   4.529   3.533 -0.8438 -1.0249 -1.3352
 2847SOL     OW 8860   3.228   3.837   3.477 -0.0098 -0.3240  0.4608
 2847SOL    HW1 8861   3.191   3.919   3.434 -2.1916 -1.0296  0.8918
 2847SOL    HW2 8862   3.180   3.820   3.563  1.5003 -1.2064  1.1782
 2848SOL     OW 8863   3.397   3.747   3.716  0.2115 -0.2977  0.2680
 2848SOL    HW1 8864   3.484   3.715   3.755 -0.2250  0.3728  1.8548
 2848SOL    HW2 8865   3.414   3.829   3.662  0.5479 -0.0930  0.6786
 2849SOL     OW 8866   3.890   2.372   3.212 -0.4014 -0.1438  0.0654
 2849SOL    HW1 8867   3.800   2.351   3.174 -0.6123  1.4903 -0.4243
 2849SOL    HW2 8868   3.914   2.467   3.190  1.9377 -0.8648 -0.8023
 2850SOL     OW 8869   1.448   1.803   2.569 -0.3772 -0.2619 -0.1760
 2850SOL    HW1 8870   1.523   1.740   2.545 -0.6587 -1.7281  2.4207
 2850SOL    HW2 8871   1.479   1.868   2.637 -1.5108 -1.1863  1.2936
 2851SOL     OW 8872   1.857   2.967   3.147  0.6701 -0.1616 -0.9221
 2851SOL    HW1 8873   1.779   3.027   3.134 -0.1027 -1.0442 -0.4771
 2851SOL    HW2 8874   1.913   2.999   3.223 -1.6768 -1.8944  1.7103
 2852SOL     OW 8875   4.760   2.609   3.719  0.4221  0.3645 -0.0450
 2852SOL    HW1 8876   4.731   2.664   3.797  1.7269  1.7608 -0.4823
 2852SOL    HW2 8877   4.683   2.557   3.683 -0.2155 -0.2786  2.1254
 2853SOL     OW 8878   4.065   1.941   2.437  0.6498  0.1997 -0.0594
 2853SOL    HW1 8879   4.159   1.959   2.407  0.2933 -1.0592 -2.1740
 2853SOL    HW2 8880   4.007   2.017   2.410  0.6068 -0.2586 -1.3417
 2854SOL     OW 8881   2.881   1.376   4.474 -0.2162  0.2263 -0.4148
 2854SOL    HW1 8882   2.975   1.362   4.506 -0.4015 -1.2761 -0.4682
 2854SOL    HW2 8883   2.882   1.404   4.378  0.2013  0.8769 -0.2216
 2855SOL     OW 8884   0.951   4.294   1.397  0.4862 -0.0764  0.1634
 2855SOL    HW1 8885   0.964   4.236   1.317  1.5169  0.3333  0.0178
 2855SOL    HW2 8886   1.040   4.319   1.434  0.0299  0.5553  0.8462
 2856SOL     OW 8887   1.521   3.031   4.524 -0.0138  0.1121  0.1088
 2856SOL    HW1 8888   1.471   2.972   4.588 -1.4465  0.8141 -0.3258
 2856SOL    HW2 8889   1.607   2.986   4.497 -0.6626 -1.3859  0.4435
 2857SOL     OW 8890   3.517   0.965   2.902 -0.2994  0.2904 -0.6462
 2857SOL    HW1 8891   3.424   1.001   2.891 -0.2318  0.4551 -0.6841
 2857SOL    HW2 8892   3.547   0.978   2.997 -1.0354 -1.4975 -0.1199
 2858SOL     OW 8893   3.734   2.468   4.131  0.0805 -0.0778 -0.6303
 2858SOL    HW1 8894   3.748   2.567   4.137  1.8802 -0.1798 -2.0840
 2858SOL    HW2 8895   3.797   2.422   4.193  0.0188 -0.3377 -0.7599
 2859SOL     OW 8896   2.547   1.074   2.729  0.1898  0.3129 -0.2362
 2859SOL    HW1 8897   2.453   1.096   2.752  0.2120  1.1766 -0.9036
 2859SOL    HW2 8898   2.582   1.003   2.791 -0.6699  0.4736  0.4409
 2860SOL     OW 8899   2.779   4.377   3.190  0.0347  0.6521  0.2868
 2860SOL    HW1 8900   2.821   4.462   3.222 -0.0524  0.5593  0.6491
 2860SOL    HW2 8901   2.682   4.393   3.172  0.2719  0.9351 -0.8071
 2861SOL     OW 8902   3.531   3.495   3.952 -0.1668  0.1885  0.1759
 2861SOL    HW1 8903   3.536   3.592   3.929  1.0712  0.0236 -0.3598
 2861SOL    HW2 8904   3.492   3.484   4.044 -2.4081  1.0381 -0.6161
 2862SOL     OW 8905   3.709   3.439   3.393 -0.0019  0.4947  0.5994
 2862SOL    HW1 8906   3.722   3.341   3.378 -3.8927 -0.0067 -0.4402
 2862SOL    HW2 8907   3.724   3.461   3.489  0.7398 -1.1039  0.8805
 2863SOL     OW 8908   3.464   2.296   2.750 -0.4123 -0.3311 -0.2241
 2863SOL    HW1 8909   3.524   2.254   2.818  0.6656  1.9042  0.2938
 2863SOL    HW2 8910   3.439   2.388   2.780 -2.8427 -0.5878 -1.2058
 2864SOL     OW 8911   3.387   1.813   3.195  0.2103 -0.0035  0.5714
 2864SOL    HW1 8912   3.466   1.762   3.230 -0.3750 -1.4909 -0.2088
 2864SOL    HW2 8913   3.329   1.841   3.271  0.8602  0.0445  1.0592
 2865SOL     OW 8914   3.061   1.502   3.718  0.0152  0.1380 -0.5544
 2865SOL    HW1 8915   3.074   1.594   3.754  1.8243 -0.9716  1.9164
 2865SOL    HW2 8916   3.149   1.467   3.686 -0.3616 -1.2324 -0.1485
 2866SOL     OW 8917   3.643   3.595   2.315 -0.0090 -0.6866 -0.3050
 2866SOL    HW1 8918   3.619   3.523   2.380 -0.3888 -2.6054 -2.4507
 2866SOL    HW2 8919   3.674   3.676   2.365  0.0099 -2.1527  2.2186
 2867SOL     OW 8920   3.624   3.814   3.350  0.3457  0.1622  0.2692
 2867SOL    HW1 8921   3.551   3.745   3.345  0.7548 -0.1875 -1.3932
 2867SOL    HW2 8922   3.609   3.883   3.279  1.8749 -0.1698 -0.4086
 2868SOL     OW 8923   3.990   2.593   3.065 -0.3139 -0.2969  0.1845
 2868SOL    HW1 8924   4.057   2.600   2.991  0.8188  1.1134  1.2964
 2868SOL    HW2 8925   3.984   2.680   3.113 -0.6846 -1.3031  2.0464
 2869SOL     OW 8926   2.363   3.972   3.489  0.3656  0.2112 -0.5788
 2869SOL    HW1 8927   2.402   4.046   3.544  0.7186  0.9257 -1.7648
 2869SOL    HW2 8928   2.410   3.887   3.511  0.1559  0.3731  0.5860
 2870SOL     OW 8929   2.374   3.818   2.031  0.9324 -0.5233 -0.0481
 2870SOL    HW1 8930   2.403   3.907   2.063 -3.0080  1.7678 -2.0381
 2870SOL    HW2 8931   2.416   3.798   1.942  0.3815  0.3067 -0.5045
 2871SOL     OW 8932   3.317   4.333   2.672 -0.0194  0.2607  0.1756
 2871SOL    HW1 8933   3.264   4.305   2.752 -0.0746  0.1343  0.0952
 2871SOL    HW2 8934   3.414   4.311   2.687  0.1171  1.1186  0.6061
 2872SOL     OW 8935   2.982   2.146   2.337 -0.0749 -0.1331 -0.0551
 2872SOL    HW1 8936   3.063   2.160   2.281 -0.8794 -1.2734 -1.5966
 2872SOL    HW2 8937   2.942   2.234   2.362  1.7055  0.4458  0.8986
 2873SOL     OW 8938   1.611   2.037   3.087  0.1622  0.1951  0.2449
 2873SOL    HW1 8939   1.670   2.019   3.009 -1.0187  0.4247 -0.7354
 2873SOL    HW2 8940   1.663   2.086   3.158  1.2431  0.0061 -0.3956
 2874SOL     OW 8941   0.090   2.519   2.666 -0.3583  0.0506  0.1456
 2874SOL    HW1 8942   0.024   2.517   2.591  0.5768  1.8617 -0.8024
 2874SOL    HW2 8943   0.083   2.607   2.714  1.8164  0.6251 -0.4604
 2875SOL     OW 8944   1.493   3.625   2.707 -0.7572 -0.0637 -0.3505
 2875SOL    HW1 8945   1.520   3.529   2.704 -0.0945  0.0756  0.8485
 2875SOL    HW2 8946   1.415   3.639   2.646 -1.6395 -1.6079  0.3623
 2876SOL     OW 8947   4.317   1.783   2.401  0.2947 -0.1009 -0.1015
 2876SOL    HW1 8948   4.380   1.853   2.368 -0.0896  0.3325  0.0643
 2876SOL    HW2 8949   4.322   1.778   2.501 -1.3892  1.3973  0.1165
 2877SOL     OW 8950   2.955   1.841   3.501 -0.0789  0.1822  0.1365
 2877SOL    HW1 8951   2.958   1.941   3.500  2.6737  0.1694  0.4521
 2877SOL    HW2 8952   2.900   1.810   3.578 -1.2526  1.4243 -0.1674
 2878SOL     OW 8953   2.869   3.734   2.394 -0.1152  0.5098 -0.0013
 2878SOL    HW1 8954   2.846   3.809   2.333 -0.3212  0.9789  0.6344
 2878SOL    HW2 8955   2.958   3.752   2.437  2.2156 -1.8419 -3.3415
 2879SOL     OW 8956   3.562   1.626   1.334 -0.2541  0.2273  0.2660
 2879SOL    HW1 8957   3.580   1.723   1.346 -2.6273  0.7793 -0.2157
 2879SOL    HW2 8958   3.510   1.591   1.411 -1.2736 -0.1324 -0.5612
 2880SOL     OW 8959   3.022   1.949   1.500  0.3218  0.2673  0.6906
 2880SOL    HW1 8960   3.085   1.989   1.567  0.9040  0.3812  0.0885
 2880SOL    HW2 8961   3.061   1.864   1.464  0.0098  0.1988  0.5063
 2881SOL     OW 8962   2.010   2.077   2.952 -0.4187 -0.3664  0.0123
 2881SOL    HW1 8963   1.992   2.137   3.030 -0.4313 -0.8393  0.3787
 2881SOL    HW2 8964   2.040   2.132   2.874 -0.9764  0.1728  0.1656
 2882SOL     OW 8965   2.372   3.850   1.562  0.0106  0.1371 -0.2404
 2882SOL    HW1 8966   2.288   3.809   1.527 -1.1428  0.3158  2.1577
 2882SOL    HW2 8967   2.351   3.911   1.637  2.3047  0.0835  0.5283
 2883SOL     OW 8968   1.361   2.207   3.669  0.2800 -0.0383 -0.5283
 2883SOL    HW1 8969   1.443   2.154   3.689 -0.2020 -0.5897  0.0282
 2883SOL    HW2 8970   1.319   2.175   3.584  0.5142  0.0861 -0.6894
 2884SOL     OW 8971   2.354   2.347   4.715 -0.1357 -0.2916  0.4137
 2884SOL    HW1 8972   2.380   2.377   4.807  1.4484  2.6832 -0.8653
 2884SOL    HW2 8973   2.262   2.378   4.695 -0.0091  0.1940  0.5622
 2885SOL     OW 8974   1.235   2.957   2.701  0.0959 -0.2626  0.2051
 2885SOL    HW1 8975   1.324   2.923   2.673 -0.5107 -0.7892 -1.1351
 2885SOL    HW2 8976   1.164   2.923   2.639 -1.3360 -1.4845  2.3606
 2886SOL     OW 8977   2.674   4.382   4.611  0.5216  0.3419 -0.3267
 2886SOL    HW1 8978   2.639   4.318   4.543 -0.5966  0.6605 -0.0713
 2886SOL    HW2 8979   2.764   4.415   4.583  1.3255 -1.6421 -0.2612
 2887SOL     OW 8980   2.390   3.214   3.914 -0.2720  0.0403 -1.1243
 2887SOL    HW1 8981   2.306   3.179   3.871 -1.0791  1.5218 -0.8244
 2887SOL    HW2 8982   2.394   3.184   4.009  0.1910 -1.0514 -1.4633
 2888SOL     OW 8983   2.926   3.234   5.320  0.3904  0.1627  0.0225
 2888SOL    HW1 8984   2.890   3.144   5.343 -0.8111  0.2761 -1.2834
 2888SOL    HW2 8985   2.920   3.294   5.400  0.2667 -0.6222  0.6135
 2889SOL     OW 8986   3.361   3.300   2.600  0.4461 -0.5722 -0.3400
 2889SOL    HW1 8987   3.306   3.375   2.637 -1.0692 -0.1954 -3.0479
 2889SOL    HW2 8988   3.449   3.335   2.569  0.8662 -0.4973  0.8786
 2890SOL     OW 8989   3.636   3.060   3.802  0.0696 -0.3144  0.3964
 2890SOL    HW1 8990   3.706   2.999   3.840  1.2153  0.9102  0.3440
 2890SOL    HW2 8991   3.565   3.075   3.871 -0.7199 -2.3515  0.1126
 2891SOL     OW 8992   2.079   2.621   5.470  0.3295 -0.0970  0.5418
 2891SOL    HW1 8993   2.088   2.716   5.439  1.1437  0.1114  1.3932
 2891SOL    HW2 8994   2.100   2.616   5.567  0.2289 -1.1518  0.5121
 2892SOL     OW 8995   2.447   1.919   4.525 -0.1384 -0.2408 -0.0557
 2892SOL    HW1 8996   2.367   1.885   4.477 -0.3100 -0.8806  0.6708
 2892SOL    HW2 8997   2.507   1.966   4.461  0.4740 -2.5508 -1.2469
 2893SOL     OW 8998   2.134   3.407   5.423 -0.2335  0.2546  0.4464
 2893SOL    HW1 8999   2.161   3.492   5.377  2.3656 -0.9866 -0.5713
 2893SOL    HW2 9000   2.142   3.418   5.522 -0.9103  1.4526  0.3897
 2894SOL     OW 9001   3.667   2.592   4.968  0.3135  0.0902 -0.4041
 2894SOL    HW1 9002   3.753   2.602   4.919  0.4056  1.2033 -0.0493
 2894SOL    HW2 9003   3.684   2.599   5.067  0.1030 -1.8804 -0.1863
 2895SOL     OW 9004   2.955   4.168   5.111  0.2465 -0.1555 -0.0370
 2895SOL    HW1 9005   2.947   4.068   5.119 -2.5175 -0.0501 -0.5250
 2895SOL    HW2 9006   2.955   4.193   5.014 -1.2364  0.4008  0.0891
 2896SOL     OW 9007   1.771   1.325   0.302  0.3002  0.1825  0.0463
 2896SOL    HW1 9008   1.742   1.355   0.210  0.9411  1.2972  0.1818
 2896SOL    HW2 9009   1.870   1.337   0.311  0.1228  1.0132  1.1906
 2897SOL     OW 9010   4.942   3.647   4.294 -0.5041  0.1753 -0.4290
 2897SOL    HW1 9011   4.912   3.730   4.341 -2.3773 -0.8158  0.2479
 2897SOL    HW2 9012   5.002   3.594   4.353 -2.4122 -0.7955  0.7444
 2898SOL     OW 9013   2.289   3.332   3.540  0.3603 -0.0413  0.3364
 2898SOL    HW1 9014   2.192   3.316   3.562  0.1606  1.8893  1.0589
 2898SOL    HW2 9015   2.335   3.244   3.527 -1.1076 -1.0586  1.6466
 2899SOL     OW 9016   3.451   3.135   4.660 -0.6229 -0.4559 -0.6225
 2899SOL    HW1 9017   3.352   3.124   4.667 -0.5025 -0.9389  0.6520
 2899SOL    HW2 9018   3.475   3.231   4.671 -0.8405 -0.5611  1.0560
 2900SOL     OW 9019   1.833   2.870   4.006  0.0401  0.4821 -0.0777
 2900SOL    HW1 9020   1.773   2.942   3.972 -0.2864 -0.5053 -1.6950
 2900SOL    HW2 9021   1.910   2.857   3.943  0.7905  0.2640  0.8489
 2901SOL     OW 9022   2.066   2.078   4.698 -0.1304 -0.2220 -0.2923
 2901SOL    HW1 9023   2.092   2.096   4.603  1.4614  3.3941  0.6527
 2901SOL    HW2 9024   2.146   2.044   4.748  0.4888  2.3013  0.6300
 2902SOL     OW 9025   2.308   3.944   4.581  0.8214 -0.2932  0.1584
 2902SOL    HW1 9026   2.346   3.993   4.659  0.2301  0.8913 -0.2778
 2902SOL    HW2 9027   2.210   3.928   4.596 -0.4095  3.7734 -2.0685
 2903SOL     OW 9028   5.155   2.103   0.379 -0.3679 -0.6698  0.4584
 2903SOL    HW1 9029   5.186   2.020   0.426 -3.5586 -0.8027  2.6140
 2903SOL    HW2 9030   5.104   2.077   0.297  1.5169 -0.6002 -0.8026
 2904SOL     OW 9031   2.281   1.053   3.847  0.1649 -0.1305 -0.1967
 2904SOL    HW1 9032   2.242   0.964   3.868  0.0271 -0.0518 -0.1184
 2904SOL    HW2 9033   2.349   1.077   3.917 -0.1395  0.0362  0.0433
 2905SOL     OW 9034   1.900   4.193   5.166 -0.2712 -0.4356  0.1442
 2905SOL    HW1 9035   1.917   4.129   5.241 -2.1021 -1.0925  0.0516
 2905SOL    HW2 9036   1.985   4.209   5.116  0.6757 -1.1045  1.4846
 2906SOL     OW 9037   2.255   3.573   4.547  0.7370 -0.0132 -0.6583
 2906SOL    HW1 9038   2.327   3.621   4.496 -1.1345  1.5999 -1.8978
 2906SOL    HW2 9039   2.290   3.484   4.576  2.6771 -0.0123 -2.6841
 2907SOL     OW 9040   4.007   3.059   3.436  0.6109 -0.0729 -0.1691
 2907SOL    HW1 9041   4.093   3.110   3.442  0.9250 -0.5741 -0.3891
 2907SOL    HW2 9042   4.006   2.986   3.504  0.4301 -0.1683 -0.2719
 2908SOL     OW 9043   3.277   3.190   4.417  0.9765 -0.1773  0.6912
 2908SOL    HW1 9044   3.234   3.104   4.443 -0.1282  0.5686  1.4316
 2908SOL    HW2 9045   3.212   3.247   4.367  1.7766  0.1228 -0.0305
 2909SOL     OW 9046   1.368   1.771   0.131 -0.1586 -0.3168  0.6061
 2909SOL    HW1 9047   1.376   1.807   0.038 -1.1782 -1.8561 -0.1124
 2909SOL    HW2 9048   1.356   1.672   0.127 -2.6832 -0.1557  2.2461
 2910SOL     OW 9049   2.784   2.889   4.181 -0.1522  0.3897  0.5781
 2910SOL    HW1 9050   2.858   2.918   4.119 -0.7547 -0.0240 -0.3517
 2910SOL    HW2 9051   2.807   2.801   4.221 -0.0602  0.3382  0.4155
 2911SOL     OW 9052   2.064   3.995   4.840  0.0708 -0.4997 -0.4684
 2911SOL    HW1 9053   2.159   4.002   4.867 -0.2838 -1.1983  1.0744
 2911SOL    HW2 9054   2.058   3.966   4.744  1.3754  1.0823 -1.0778
 2912SOL     OW 9055   2.607   2.047   4.304 -0.1636  0.2707  0.3361
 2912SOL    HW1 9056   2.651   2.101   4.232  1.4014 -2.1422 -0.6486
 2912SOL    HW2 9057   2.528   1.998   4.266  1.5248 -2.1606 -0.2489
 2913SOL     OW 9058   2.209   1.589   5.126 -0.1084  0.2406 -0.1315
 2913SOL    HW1 9059   2.216   1.631   5.216  2.0874 -0.6500  0.1679
 2913SOL    HW2 9060   2.172   1.656   5.061  2.2489  2.3320  0.5435
 2914SOL     OW 9061   3.048   2.552   4.617  0.8003 -0.0053  0.2388
 2914SOL    HW1 9062   3.113   2.476   4.603  0.0524 -0.5000 -0.6424
 2914SOL    HW2 9063   2.970   2.520   4.670  0.7032  0.2719  0.2656
 2915SOL     OW 9064   2.155   4.679   0.111 -0.2915 -0.6460 -0.2448
 2915SOL    HW1 9065   2.060   4.649   0.097 -0.9593  1.2666 -0.1538
 2915SOL    HW2 9066   2.198   4.622   0.180 -0.9926 -2.2701 -1.0849
 2916SOL     OW 9067   1.567   1.785   0.854  0.3601 -0.0299  0.1758
 2916SOL    HW1 9068   1.557   1.782   0.954 -3.5237 -2.7038 -0.1076
 2916SOL    HW2 9069   1.600   1.697   0.821 -1.3314 -0.2440 -1.0550
 2917SOL     OW 9070   3.746   3.332   5.137  0.2147 -0.3927  0.1687
 2917SOL    HW1 9071   3.713   3.265   5.203  2.3254 -1.8091 -0.1183
 2917SOL    HW2 9072   3.681   3.339   5.060 -1.0276 -0.5530  1.1763
 2918SOL     OW 9073   3.127   5.034   0.489 -0.2411  0.3421 -0.1609
 2918SOL    HW1 9074   3.107   4.938   0.469 -0.9229 -0.5454  3.8522
 2918SOL    HW2 9075   3.043   5.088   0.484 -1.0438 -0.4637  2.5917
 2919SOL     OW 9076   4.659   1.720   5.352  0.3767 -0.4718 -0.1002
 2919SOL    HW1 9077   4.614   1.640   5.392  0.9879 -0.2029  1.1743
 2919SOL    HW2 9078   4.758   1.713   5.366  0.4633  0.3688 -0.2533
 2920SOL     OW 9079   2.710   4.017   3.191 -0.2700  0.4201  0.1037
 2920SOL    HW1 9080   2.635   4.057   3.139  0.1550  0.5790 -0.3989
 2920SOL    HW2 9081   2.788   4.081   3.191  0.1015 -0.0303  0.0468
 2921SOL     OW 9082   2.687   1.612   5.372 -0.3255 -0.0297 -0.2659
 2921SOL    HW1 9083   2.615   1.559   5.327  1.3178 -1.9327 -0.7827
 2921SOL    HW2 9084   2.764   1.624   5.309  0.5703  0.3663  0.8817
 2922SOL     OW 9085   4.193   3.946   5.437  0.0551 -0.2037 -0.1302
 2922SOL    HW1 9086   4.093   3.942   5.444  0.1291 -0.5989  0.9458
 2922SOL    HW2 9087   4.233   3.921   5.525  1.1122 -0.3660 -0.6421
 2923SOL     OW 9088   1.653   2.428   1.119 -0.2689 -0.0147  0.0894
 2923SOL    HW1 9089   1.682   2.475   1.202 -0.0467  0.6761 -0.3637
 2923SOL    HW2 9090   1.734   2.392   1.071 -0.0244  2.3423 -1.4295
 2924SOL     OW 9091   2.827   2.195   0.058 -0.0989 -0.2627  0.6307
 2924SOL    HW1 9092   2.794   2.195  -0.036 -1.2756 -1.2832  1.0086
 2924SOL    HW2 9093   2.927   2.197   0.059 -0.0830  1.0728 -0.6015
 2925SOL     OW 9094   1.721   2.630   4.102 -0.2290 -0.5068  0.4797
 2925SOL    HW1 9095   1.749   2.542   4.064 -1.0396  0.2931 -2.2043
 2925SOL    HW2 9096   1.799   2.692   4.104 -0.0395 -0.7540  0.6704
 2926SOL     OW 9097   1.689   4.529   0.474 -0.3111  0.4530  0.1466
 2926SOL    HW1 9098   1.756   4.476   0.423  0.4653  1.7322 -0.2100
 2926SOL    HW2 9099   1.679   4.620   0.432 -1.8914  0.4724  0.5006
 2927SOL     OW 9100   4.618   3.080   3.785  0.1308  0.2236 -0.1224
 2927SOL    HW1 9101   4.611   3.089   3.884 -1.0231  0.0853 -0.1750
 2927SOL    HW2 9102   4.536   3.117   3.743 -0.4824 -1.8724 -0.8854
 2928SOL     OW 9103   1.680   3.964   3.570  0.2196  0.2663 -0.0122
 2928SOL    HW1 9104   1.597   4.007   3.536  0.7589  1.5248  0.2034
 2928SOL    HW2 9105   1.660   3.915   3.655 -0.6389 -0.9051 -0.8596
 2929SOL     OW 9106   3.060   2.156   4.974 -0.2380 -0.1887 -0.2378
 2929SOL    HW1 9107   3.061   2.075   5.033  1.2334 -0.4468 -0.5688
 2929SOL    HW2 9108   3.118   2.227   5.014  1.5754 -0.7218 -1.8054
 2930SOL     OW 9109   3.188   1.762   4.394  0.2358 -0.2454 -0.2046
 2930SOL    HW1 9110   3.261   1.696   4.411 -1.0232 -2.1557 -1.7898
 2930SOL    HW2 9111   3.228   1.851   4.373  1.9925 -0.4622  1.8296
 2931SOL     OW 9112   1.904   4.461   4.353 -0.4096  0.4611  0.1286
 2931SOL    HW1 9113   1.847   4.543   4.356  0.5618  1.2930 -1.8460
 2931SOL    HW2 9114   1.932   4.444   4.258  1.8123 -0.4595  0.8843
 2932SOL     OW 9115   3.376   2.603   4.271  0.4024 -0.4419 -0.0936
 2932SOL    HW1 9116   3.452   2.539   4.257  0.3996 -0.0183 -2.5749
 2932SOL    HW2 9117   3.408   2.696   4.256 -0.2977 -0.1190  0.3626
 2933SOL     OW 9118   3.490   3.019   5.154 -0.7012 -0.2518 -0.1828
 2933SOL    HW1 9119   3.531   3.085   5.217  1.0223 -1.1212 -0.3455
 2933SOL    HW2 9120   3.453   2.942   5.205  0.5122 -0.8569 -0.1714
 2934SOL     OW 9121   1.702   2.378   3.773 -0.1879 -0.2813 -0.5408
 2934SOL    HW1 9122   1.712   2.393   3.871 -1.5563 -1.5790 -0.1546
 2934SOL    HW2 9123   1.622   2.428   3.740  2.1163  2.8886 -1.7514
 2935SOL     OW 9124   3.128   3.279   3.483 -0.0834 -0.3674 -0.5601
 2935SOL    HW1 9125   3.217   3.248   3.449  0.5288  0.6378  0.0908
 2935SOL    HW2 9126   3.135   3.374   3.513 -1.4019 -0.2523 -0.5633
 2936SOL     OW 9127   2.148   3.591   4.954 -0.0525  0.2969 -1.0709
 2936SOL    HW1 9128   2.200   3.652   4.894 -0.3205 -0.2649 -1.8884
 2936SOL    HW2 9129   2.126   3.507   4.905  0.5957 -0.6162  0.1317
 2937SOL     OW 9130   3.515   3.451   2.786  0.1985  0.1049 -0.4299
 2937SOL    HW1 9131   3.546   3.522   2.848  0.3601 -0.9082  0.6882
 2937SOL    HW2 9132   3.463   3.382   2.837 -0.2053 -0.4341 -1.5281
 2938SOL     OW 9133   1.767   1.902   5.413  0.1038 -0.4807 -0.0284
 2938SOL    HW1 9134   1.802   1.861   5.329 -0.0580 -0.7383  0.0262
 2938SOL    HW2 9135   1.811   1.990   5.429 -1.1037  0.3967 -1.2876
 2939SOL     OW 9136   2.931   4.164   3.179  0.1581 -0.3386  0.2293
 2939SOL    HW1 9137   2.989   4.177   3.099  0.1183 -0.6061  0.1536
 2939SOL    HW2 9138   2.877   4.247   3.196 -1.0471 -0.8262 -1.0043
 2940SOL     OW 9139   2.702   3.587   3.966 -0.0218  0.3151 -0.2084
 2940SOL    HW1 9140   2.758   3.515   3.924  0.0093 -0.0297  0.4056
 2940SOL    HW2 9141   2.612   3.550   3.989  0.2224  0.2749  0.7213
 2941SOL     OW 9142   3.939   1.236   4.924  0.5865 -0.0982  0.3139
 2941SOL    HW1 9143   3.920   1.138   4.930  1.3771 -0.2265  0.9594
 2941SOL    HW2 9144   3.956   1.262   4.829 -2.1902 -0.0697 -0.2495
 2942SOL     OW 9145   1.480   5.534   5.481 -0.0341 -0.4818  0.0543
 2942SOL    HW1 9146   1.539   5.608   5.515 -0.0304 -0.1875 -0.5912
 2942SOL    HW2 9147   1.416   5.508   5.553 -0.5064  0.6362  0.0629
 2943SOL     OW 9148   2.796   4.681   4.195  0.2215 -0.4422  0.0234
 2943SOL    HW1 9149   2.819   4.736   4.275  1.0312  0.8612 -1.0670
 2943SOL    HW2 9150   2.697   4.673   4.187  0.1021 -1.8026  1.9150
 2944SOL     OW 9151   2.735   3.438   3.555  0.7935 -0.3512 -0.3732
 2944SOL    HW1 9152   2.684   3.517   3.519  0.7067  0.6123  1.7067
 2944SOL    HW2 9153   2.678   3.389   3.621  0.8010 -2.3073 -1.7261
 2945SOL     OW 9154   1.783   0.768   0.339  0.2315 -0.2954  0.2158
 2945SOL    HW1 9155   1.810   0.817   0.421 -0.1122 -0.0950  0.2128
 2945SOL    HW2 9156   1.823   0.812   0.259  1.1454 -0.9086  0.3244
 2946SOL     OW 9157   2.627   3.294   0.186 -0.2428  0.4285  0.0282
 2946SOL    HW1 9158   2.588   3.274   0.096  0.2466  0.5371 -0.2086
 2946SOL    HW2 9159   2.724   3.273   0.186 -0.5197 -1.0006  0.9859
 2947SOL     OW 9160   3.720   2.948   5.027 -0.0255 -0.5177 -0.2431
 2947SOL    HW1 9161   3.729   2.957   4.928 -1.1365  0.5839 -0.2655
 2947SOL    HW2 9162   3.623   2.949   5.052  0.2530 -0.4057  0.8863
 2948SOL     OW 9163   2.403   2.592   4.497 -0.4202  0.6377  0.1274
 2948SOL    HW1 9164   2.315   2.580   4.543 -0.4795 -0.8338 -0.3324
 2948SOL    HW2 9165   2.431   2.506   4.454  0.7510  1.3586 -0.6211
 2949SOL     OW 9166   2.689   1.993   0.153  0.2186  0.2120 -0.2317
 2949SOL    HW1 9167   2.726   2.080   0.120 -1.0688  0.9630  0.2207
 2949SOL    HW2 9168   2.596   1.981   0.119  1.8143 -3.2115 -4.1240
 2950SOL     OW 9169   3.118   2.649   4.376 -0.0817 -0.4811 -0.0405
 2950SOL    HW1 9170   3.201   2.597   4.356 -1.0156 -1.9411 -0.2640
 2950SOL    HW2 9171   3.084   2.622   4.466  0.5999  1.3794  0.8173
 2951SOL     OW 9172   3.790   2.405   5.360  0.1871 -0.1313  0.6874
 2951SOL    HW1 9173   3.788   2.344   5.280  0.1272 -0.2531  0.7807
 2951SOL    HW2 9174   3.727   2.481   5.345 -0.2251 -0.4372  0.8384
 2952SOL     OW 9175   1.992   3.989   5.329 -0.7140  0.1157  0.6791
 2952SOL    HW1 9176   1.994   3.941   5.417 -1.7449  0.9808  1.1982
 2952SOL    HW2 9177   2.084   3.990   5.290 -0.3054 -0.5777  1.5829
 2953SOL     OW 9178   2.646   1.412   4.902  0.2050 -0.1997 -0.2678
 2953SOL    HW1 9179   2.683   1.386   4.991  0.1459 -0.4161 -0.3062
 2953SOL    HW2 9180   2.565   1.357   4.882 -0.0611  0.1792 -0.2450
 2954SOL     OW 9181   2.016   3.917   4.597 -0.7757  0.1220  0.2445
 2954SOL    HW1 9182   1.993   3.823   4.571 -1.1251  0.6935 -1.6558
 2954SOL    HW2 9183   1.973   3.981   4.533  2.1428  1.4580 -0.5198
 2955SOL     OW 9184   1.695   2.459   4.790  0.2141 -0.0999  0.9101
 2955SOL    HW1 9185   1.659   2.451   4.697 -0.6968 -1.0665  1.3244
 2955SOL    HW2 9186   1.770   2.394   4.802 -3.2335 -4.2614  2.4320
 2956SOL     OW 9187   2.070   1.417   4.826 -0.8220  0.7764  0.1411
 2956SOL    HW1 9188   2.103   1.497   4.776 -1.6593  0.1238 -1.5558
 2956SOL    HW2 9189   2.096   1.334   4.777  0.2457 -0.0537  1.9970
 2957SOL     OW 9190   3.373   1.716   4.855 -0.5684  0.8089  0.0084
 2957SOL    HW1 9191   3.293   1.767   4.821 -0.3200  0.4912 -1.1135
 2957SOL    HW2 9192   3.367   1.621   4.825 -0.5165  0.4112  1.2246
 2958SOL     OW 9193   3.324   3.238   0.013  0.2499  0.1935  0.3396
 2958SOL    HW1 9194   3.332   3.300   0.092 -1.2179  1.4791 -0.4569
 2958SOL    HW2 9195   3.301   3.146   0.044 -0.7707  0.7853  1.4022
 2959SOL     OW 9196   2.521   3.601   5.280 -0.7441 -0.4207 -0.1930
 2959SOL    HW1 9197   2.456   3.641   5.215 -0.7500 -1.7329 -1.0449
 2959SOL    HW2 9198   2.607   3.651   5.277 -1.0164  0.0271 -0.6268
 2960SOL     OW 9199   3.373   3.029   0.631 -0.5103 -0.4024  0.8789
 2960SOL    HW1 9200   3.357   2.930   0.625  0.6103 -0.6592  1.8107
 2960SOL    HW2 9201   3.408   3.062   0.544 -0.0676 -1.0001  0.8201
 2961SOL     OW 9202   3.846   2.851   5.251  0.7124  0.4931 -0.3310
 2961SOL    HW1 9203   3.800   2.888   5.170 -1.3676 -0.9247  0.1378
 2961SOL    HW2 9204   3.933   2.810   5.223  0.6993  1.2607 -1.6048
 2962SOL     OW 9205   2.604   3.030   4.306  1.2807  0.2268  0.7185
 2962SOL    HW1 9206   2.671   2.983   4.249  3.0574  0.1654  2.7035
 2962SOL    HW2 9207   2.621   3.128   4.305  0.7657  0.3186  0.4861
 2963SOL     OW 9208   4.116   3.451   3.634  0.2346  0.4010 -0.3189
 2963SOL    HW1 9209   4.093   3.532   3.581 -0.6211  0.2254 -0.2310
 2963SOL    HW2 9210   4.036   3.391   3.641  0.1015  0.7363  1.7365
 2964SOL     OW 9211   3.380   4.012   5.517  0.6876  0.4363  0.1724
 2964SOL    HW1 9212   3.458   4.026   5.455  1.0607 -1.6554  0.0961
 2964SOL    HW2 9213   3.402   3.938   5.582 -0.5207  1.1191  1.4128
 2965SOL     OW 9214   2.656   3.093   5.155  0.3827 -0.8972 -0.2210
 2965SOL    HW1 9215   2.729   3.104   5.087  1.4170 -2.6284  0.5424
 2965SOL    HW2 9216   2.688   3.033   5.229 -1.7735 -1.5947  0.2138
 2966SOL     OW 9217   2.667   4.701   0.473  0.2416 -0.0049  0.2534
 2966SOL    HW1 9218   2.704   4.687   0.565 -0.7871 -0.1474  0.6610
 2966SOL    HW2 9219   2.717   4.774   0.427  0.9601 -0.1341  0.8089
 2967SOL     OW 9220   2.377   4.399   0.215  0.2598  0.3368  0.3458
 2967SOL    HW1 9221   2.365   4.321   0.153 -0.8999  0.0180  0.9483
 2967SOL    HW2 9222   2.464   4.445   0.194  0.3251 -0.3106 -0.8970
 2968SOL     OW 9223   3.737   3.173   2.587  0.1724  0.2261 -0.9832
 2968SOL    HW1 9224   3.791   3.090   2.577 -0.8001 -0.5185 -0.2399
 2968SOL    HW2 9225   3.710   3.184   2.683 -1.3156  0.3629 -1.3912
 2969SOL     OW 9226   2.953   1.602   4.771  0.2465 -0.1504 -0.6554
 2969SOL    HW1 9227   2.932   1.600   4.673 -0.7185 -1.7846 -0.4476
 2969SOL    HW2 9228   2.932   1.693   4.808  0.7588  0.5308 -1.9610
 2970SOL     OW 9229   2.424   2.034   5.421 -0.0433 -0.5477 -0.1288
 2970SOL    HW1 9230   2.329   2.051   5.445  0.0370 -1.9683  1.3784
 2970SOL    HW2 9231   2.442   2.069   5.329 -2.4921 -1.8223 -1.1974
 2971SOL     OW 9232   2.165   1.874   0.716  0.3057 -0.4449 -0.1528
 2971SOL    HW1 9233   2.202   1.952   0.766  1.0108 -1.2954  0.7061
 2971SOL    HW2 9234   2.069   1.891   0.693  0.4407  0.6474  0.0411
 2972SOL     OW 9235   3.750   2.316   4.552  0.1633  0.6480 -0.6839
 2972SOL    HW1 9236   3.819   2.285   4.616  1.5390  0.8925 -2.0033
 2972SOL    HW2 9237   3.726   2.411   4.572 -0.9888  0.1038  0.7391
 2973SOL     OW 9238   1.515   3.572   5.161  0.7281 -0.1262  0.7928
 2973SOL    HW1 9239   1.535   3.479   5.191  1.4610 -0.1439  0.2558
 2973SOL    HW2 9240   1.600   3.625   5.157  0.1320  1.1245  2.9290
 2974SOL     OW 9241   2.191   3.078   4.549  0.3723 -0.0297 -0.0548
 2974SOL    HW1 9242   2.114   3.045   4.494 -0.0284  0.8892 -0.0542
 2974SOL    HW2 9243   2.277   3.049   4.506  0.1187  1.8930 -2.0128
 2975SOL     OW 9244   1.632   1.492   0.131 -0.1365  0.0412 -0.7576
 2975SOL    HW1 9245   1.540   1.460   0.111 -0.1642 -0.4787  0.1593
 2975SOL    HW2 9246   1.628   1.564   0.200  0.2157 -0.8521  0.2249
 2976SOL     OW 9247   2.884   3.360   3.334 -0.4228 -0.8530 -0.0714
 2976SOL    HW1 9248   2.813   3.355   3.405 -0.3381 -3.1000 -0.0609
 2976SOL    HW2 9249   2.968   3.318   3.369  0.2723 -0.1005 -0.8056
 2977SOL     OW 9250   3.026   3.777   4.732 -0.0370 -0.1528 -0.0371
 2977SOL    HW1 9251   3.062   3.862   4.769 -1.1041  0.8094 -1.1375
 2977SOL    HW2 9252   2.989   3.793   4.641 -0.7628 -1.6745 -0.0414
 2978SOL     OW 9253   3.575   1.613   4.620  0.0141  0.4236 -0.1918
 2978SOL    HW1 9254   3.659   1.638   4.668 -0.7090  0.1881  1.2487
 2978SOL    HW2 9255   3.527   1.542   4.671 -0.3623 -0.4899 -1.7442
 2979SOL     OW 9256   3.177   3.171   4.770  0.6128 -0.4380  0.5301
 2979SOL    HW1 9257   3.118   3.089   4.770 -2.1708  1.4231  0.8670
 2979SOL    HW2 9258   3.235   3.171   4.851 -2.0292 -0.3898  2.5619
 2980SOL     OW 9259   3.052   2.142   4.589  0.7188 -0.2389 -0.0038
 2980SOL    HW1 9260   2.997   2.182   4.662  0.8999  0.5951 -0.3134
 2980SOL    HW2 9261   3.014   2.053   4.565 -1.6808  1.0372 -1.4536
 2981SOL     OW 9262   3.530   2.895   4.773  0.3391  0.1274  0.8936
 2981SOL    HW1 9263   3.626   2.895   4.745 -0.4596 -0.6405 -2.2006
 2981SOL    HW2 9264   3.493   2.987   4.766  0.4624  0.1490  0.4918
 2982SOL     OW 9265   3.288   1.618   0.143 -0.6098  0.1445 -0.1336
 2982SOL    HW1 9266   3.256   1.525   0.161  0.6320 -0.1494  0.6813
 2982SOL    HW2 9267   3.211   1.681   0.145 -1.2019 -0.5845  1.3312
 2983SOL     OW 9268   2.302   2.870   5.205 -0.4844 -0.2643  0.1994
 2983SOL    HW1 9269   2.379   2.828   5.253 -1.3118  0.5907  2.4246
 2983SOL    HW2 9270   2.328   2.961   5.174  0.0606 -0.8271 -1.0554
 2984SOL     OW 9271   3.671   2.565   4.652  0.8039  0.1595  0.6202
 2984SOL    HW1 9272   3.738   2.604   4.716 -1.0120  1.6501  1.7084
 2984SOL    HW2 9273   3.590   2.536   4.703  1.0745 -2.9121 -0.4939
 2985SOL     OW 9274   1.855   1.918   4.555  0.3592 -0.2425  0.1376
 2985SOL    HW1 9275   1.901   1.979   4.619 -0.4173 -0.0921  0.5656
 2985SOL    HW2 9276   1.757   1.938   4.554  0.1486 -1.2205 -0.0072
 2986SOL     OW 9277   2.533   2.471   0.188  0.0258  0.4888  0.6921
 2986SOL    HW1 9278   2.520   2.521   0.274 -0.4379  0.1574  0.8242
 2986SOL    HW2 9279   2.452   2.414   0.171  0.6081 -0.3362  0.6331
 2987SOL     OW 9280   3.061   2.474   5.037 -0.2855  0.0656  0.5450
 2987SOL    HW1 9281   3.094   2.567   5.023 -0.5695  0.5512  2.7494
 2987SOL    HW2 9282   2.961   2.471   5.030 -0.1656 -0.4871 -1.4387
 2988SOL     OW 9283   3.914   1.572   4.978  0.0087 -0.6214  0.5625
 2988SOL    HW1 9284   3.961   1.484   4.986  3.2718  0.9651  0.6505
 2988SOL    HW2 9285   3.849   1.582   5.053  0.6607 -2.3506  1.4076
 2989SOL     OW 9286   4.043   3.604   4.041 -0.8053 -0.3037 -0.4153
 2989SOL    HW1 9287   4.004   3.513   4.050  1.9870 -1.8180 -2.0550
 2989SOL    HW2 9288   4.143   3.599   4.052 -0.6159  2.6867  0.1401
 2990SOL     OW 9289   1.913   2.727   5.117 -0.6968  0.2433 -0.2094
 2990SOL    HW1 9290   1.990   2.790   5.126 -0.7119  0.4204 -1.2095
 2990SOL    HW2 9291   1.827   2.777   5.127 -0.6999  0.0681  0.7707
 2991SOL     OW 9292   2.910   3.800   1.238 -0.2273 -0.0075  0.2067
 2991SOL    HW1 9293   2.823   3.779   1.194  0.4902 -1.4087 -0.5928
 2991SOL    HW2 9294   2.942   3.889   1.207  0.5198 -1.1495 -2.6117
 2992SOL     OW 9295   3.176   3.482   0.629  0.4135  0.4572  0.1306
 2992SOL    HW1 9296   3.241   3.436   0.569  0.3839  2.7660 -1.8338
 2992SOL    HW2 9297   3.217   3.565   0.666 -1.4881  2.3641 -1.7332
 2993SOL     OW 9298   2.476   2.531   5.298 -0.2252 -0.0885  0.4199
 2993SOL    HW1 9299   2.533   2.482   5.364 -2.8674 -2.5767  1.0502
 2993SOL    HW2 9300   2.487   2.630   5.312  1.3090 -0.5045  2.7550
 2994SOL     OW 9301   3.496   1.959   4.873 -0.4059  0.4084 -0.4917
 2994SOL    HW1 9302   3.461   1.866   4.885  1.4213 -0.2451  0.0249
 2994SOL    HW2 9303   3.489   2.009   4.960  1.0683 -0.1416 -0.0381
 2995SOL     OW 9304   3.476   2.843   3.386 -0.2865  0.8982 -0.0009
 2995SOL    HW1 9305   3.481   2.862   3.484  0.2704 -1.1115  0.4115
 2995SOL    HW2 9306   3.540   2.770   3.363 -2.3635 -0.6192 -1.3565
 2996SOL     OW 9307   2.662   2.659   4.600 -0.5381  0.4267  0.2604
 2996SOL    HW1 9308   2.566   2.636   4.584 -0.1567 -1.0020 -0.1445
 2996SOL    HW2 9309   2.708   2.670   4.512 -0.1386  0.2622  0.4483
 2997SOL     OW 9310   2.774   2.046   4.568 -0.4974 -0.1915 -0.2483
 2997SOL    HW1 9311   2.725   2.073   4.485 -1.4721  0.1477  0.4103
 2997SOL    HW2 9312   2.784   2.126   4.628  0.0231 -0.4737  0.0534
 2998SOL     OW 9313   1.799   1.280   5.410  0.3287 -0.4881 -0.6378
 2998SOL    HW1 9314   1.737   1.301   5.485  0.9193  0.7765 -0.4742
 2998SOL    HW2 9315   1.891   1.263   5.446  0.4149 -0.8009 -1.0002
 2999SOL     OW 9316   3.416   2.613   0.973 -0.2138  0.0720  0.0742
 2999SOL    HW1 9317   3.501   2.605   0.921  0.0970  1.9499  0.2379
 2999SOL    HW2 9318   3.353   2.676   0.927 -0.2458  1.1584  1.5323
 3000SOL     OW 9319   2.665   2.423   5.481  0.0177 -0.5267  0.0831
 3000SOL    HW1 9320   2.666   2.428   5.581  0.5805 -1.1345  0.1152
 3000SOL    HW2 9321   2.671   2.328   5.452 -0.5146 -0.3737 -0.5317
 3001SOL     OW 9322   2.020   3.257   3.640  0.5908  0.2104  0.2784
 3001SOL    HW1 9323   1.948   3.314   3.680  0.7333  0.2836  0.4300
 3001SOL    HW2 9324   2.021   3.168   3.685 -0.2123 -0.2360 -0.5465
 3002SOL     OW 9325   1.775   3.394   4.562 -0.2912  0.1729  0.3035
 3002SOL    HW1 9326   1.681   3.428   4.548 -0.3455  0.2408  0.7784
 3002SOL    HW2 9327   1.776   3.295   4.554 -0.6139  0.0701  1.2899
 3003SOL     OW 9328   2.173   4.220   5.017 -0.3757  0.2428  0.5156
 3003SOL    HW1 9329   2.266   4.244   5.044 -0.4729  0.0775  1.0065
 3003SOL    HW2 9330   2.149   4.269   4.933  1.6279 -2.7581 -2.0264
 3004SOL     OW 9331   3.210   2.719   4.948  0.2308 -0.0405  0.2571
 3004SOL    HW1 9332   3.247   2.764   5.029  1.6413 -0.4496 -0.1284
 3004SOL    HW2 9333   3.285   2.678   4.896 -0.7432 -0.5199 -0.8048
 3005SOL     OW 9334   1.473   2.080   4.488 -0.2646  0.6481 -0.7257
 3005SOL    HW1 9335   1.510   2.155   4.543 -2.1947 -0.5831  2.5323
 3005SOL    HW2 9336   1.374   2.079   4.494 -0.3223 -2.5097  0.0556
 3006SOL     OW 9337   2.108   1.260   3.205 -0.4599  0.3919  0.4251
 3006SOL    HW1 9338   2.106   1.348   3.252  0.7745  1.5390 -1.5022
 3006SOL    HW2 9339   2.039   1.260   3.132  0.2225  0.1769 -0.2316
 3007SOL     OW 9340   2.996   3.370   4.707 -0.2663 -0.2288  0.1216
 3007SOL    HW1 9341   2.940   3.397   4.786  0.6813  0.7126  0.4926
 3007SOL    HW2 9342   3.081   3.329   4.739  0.6265  1.1740 -0.3654
 3008SOL     OW 9343   4.235   3.275   3.935  0.0970  0.1351  0.5802
 3008SOL    HW1 9344   4.143   3.302   3.963 -0.5115 -1.5908  0.3814
 3008SOL    HW2 9345   4.283   3.353   3.897 -1.3471  1.0283  0.5254
 3009SOL     OW 9346   2.708   3.262   4.271 -0.0202 -0.2428 -0.0945
 3009SOL    HW1 9347   2.752   3.253   4.360 -0.0474 -1.3071 -0.1795
 3009SOL    HW2 9348   2.777   3.259   4.199 -0.1359 -0.9351 -0.1802
 3010SOL     OW 9349   2.364   3.123   4.859 -0.8909  0.0102  0.1900
 3010SOL    HW1 9350   2.316   3.040   4.833 -0.0415 -0.2702 -0.5329
 3010SOL    HW2 9351   2.375   3.126   4.958 -0.4291 -1.0384  0.1857
 3011SOL     OW 9352   2.462   3.402   4.303  0.0446 -0.6694 -0.1880
 3011SOL    HW1 9353   2.501   3.422   4.393 -0.7379 -1.4463  0.3411
 3011SOL    HW2 9354   2.534   3.375   4.240  0.3203 -2.8348  0.9739
 3012SOL     OW 9355   2.586   3.069   4.698  0.4826  0.1424  0.0107
 3012SOL    HW1 9356   2.523   3.104   4.768  2.1120 -1.2011  2.2524
 3012SOL    HW2 9357   2.535   3.011   4.634 -0.9154  0.8172  0.4479
 3013SOL     OW 9358   3.777   3.256   4.684 -0.8294  0.1506 -0.5518
 3013SOL    HW1 9359   3.834   3.241   4.765 -2.2877  1.0593  0.7077
 3013SOL    HW2 9360   3.692   3.301   4.712 -1.4602  0.2941 -2.5872
 3014SOL     OW 9361   3.769   3.169   3.348  0.5011 -0.0186  0.0374
 3014SOL    HW1 9362   3.850   3.114   3.368  1.3022  1.7013  1.8582
 3014SOL    HW2 9363   3.708   3.170   3.427 -1.0523 -0.7640 -1.0836
 3015SOL     OW 9364   3.847   4.138   3.732 -0.5574 -0.0328 -0.4988
 3015SOL    HW1 9365   3.947   4.146   3.732 -0.4005 -1.3993  0.9112
 3015SOL    HW2 9366   3.815   4.127   3.826 -2.0093  0.0082 -0.9696
 3016SOL     OW 9367   2.036   3.006   5.159  0.3158 -0.4328 -0.0633
 3016SOL    HW1 9368   2.007   2.981   5.252  0.3277  0.9637  0.3266
 3016SOL    HW2 9369   2.125   2.964   5.140 -0.7214 -2.6401 -0.3262
 3017SOL     OW 9370   0.717   2.676   3.429  0.2451 -0.1098  0.1816
 3017SOL    HW1 9371   0.810   2.707   3.450  0.6292 -1.6299  0.8100
 3017SOL    HW2 9372   0.668   2.660   3.515  0.0578 -1.2261 -0.1275
 3018SOL     OW 9373   1.837   4.647   5.453 -0.0386 -0.0392  0.5603
 3018SOL    HW1 9374   1.749   4.602   5.435  0.0991 -0.8147  1.7378
 3018SOL    HW2 9375   1.830   4.743   5.426 -0.7842 -0.4169 -0.6945
 3019SOL     OW 9376   4.680   2.618   4.817 -0.1490 -0.8024 -0.0790
 3019SOL    HW1 9377   4.621   2.675   4.874  2.9312  0.0455  2.5300
 3019SOL    HW2 9378   4.707   2.669   4.735  1.1949  0.9829  1.3893
 3020SOL     OW 9379   3.668   4.086   3.538  0.0297  0.6344 -0.3592
 3020SOL    HW1 9380   3.734   4.113   3.608 -0.2000  0.1411  0.0494
 3020SOL    HW2 9381   3.712   4.087   3.449  0.6868 -0.0175 -0.0551
 3021SOL     OW 9382   1.261   3.700   4.645 -0.0606  0.7248 -0.0974
 3021SOL    HW1 9383   1.348   3.651   4.632 -0.2769  0.7297 -1.8612
 3021SOL    HW2 9384   1.187   3.646   4.606 -0.9822  0.4490  1.9248
 3022SOL     OW 9385   3.493   3.025   3.169 -0.3911  0.4529  0.0955
 3022SOL    HW1 9386   3.496   2.954   3.239 -0.9842 -1.2066 -1.4801
 3022SOL    HW2 9387   3.584   3.039   3.131 -0.5714 -0.8654 -0.8832
 3023SOL     OW 9388   2.674   3.945   3.844 -0.3567 -0.7260 -0.2050
 3023SOL    HW1 9389   2.729   3.999   3.909  0.5029  0.0799 -1.5541
 3023SOL    HW2 9390   2.582   3.984   3.837  0.1071  0.3004 -0.7998
 3024SOL     OW 9391   1.411   3.928   4.475 -0.2715  0.3736  0.0088
 3024SOL    HW1 9392   1.422   3.831   4.449 -1.3524  0.3791 -0.5424
 3024SOL    HW2 9393   1.374   3.934   4.567  0.2008  0.2803  0.2098
 3025SOL     OW 9394   3.615   2.560   0.771 -0.2024 -0.4373  0.2046
 3025SOL    HW1 9395   3.696   2.577   0.715 -0.0610  1.4670  0.9145
 3025SOL    HW2 9396   3.542   2.524   0.713  0.3244  0.3024 -0.9751
 3026SOL     OW 9397   3.785   2.899   3.943 -0.3033 -0.0301  0.0298
 3026SOL    HW1 9398   3.776   2.872   4.039  2.1150 -0.2143  0.2779
 3026SOL    HW2 9399   3.855   2.843   3.900  0.8928  2.1294 -0.9887
 3027SOL     OW 9400   2.083   1.568   3.805  0.2268  0.2128  0.5913
 3027SOL    HW1 9401   2.060   1.600   3.897  1.1767  0.2615  0.8197
 3027SOL    HW2 9402   2.179   1.587   3.786  0.7241 -2.0550  0.5464
 3028SOL     OW 9403   4.217   3.247   3.340  0.5784 -0.2299 -0.0542
 3028SOL    HW1 9404   4.168   3.334   3.332  0.1974 -0.4199  0.1806
 3028SOL    HW2 9405   4.250   3.218   3.250  0.7113  0.1566 -0.1315
 3029SOL     OW 9406   2.878   3.747   0.727  0.0612 -0.2509 -0.2817
 3029SOL    HW1 9407   2.975   3.770   0.719 -0.2884  1.0795 -0.9933
 3029SOL    HW2 9408   2.829   3.782   0.648 -1.1281 -0.2055  0.4462
 3030SOL     OW 9409   3.154   2.832   4.185 -0.0784  0.4277  0.1468
 3030SOL    HW1 9410   3.136   2.769   4.260 -0.1498  0.0648 -0.1764
 3030SOL    HW2 9411   3.252   2.854   4.183 -0.1379  0.7666  0.6023
 3031SOL     OW 9412   2.988   3.674   3.947  0.6291  0.6495 -0.0135
 3031SOL    HW1 9413   2.948   3.695   3.858 -0.8064 -0.4806  0.3380
 3031SOL    HW2 9414   2.928   3.708   4.020 -0.0012 -1.5027  0.5317
 3032SOL     OW 9415   2.812   3.404   4.904  0.0341  0.2074 -0.6314
 3032SOL    HW1 9416   2.834   3.449   4.990  0.7773  0.5031 -0.9748
 3032SOL    HW2 9417   2.790   3.308   4.922 -0.5881  0.4520 -0.0221
 3033SOL     OW 9418   3.094   3.263   3.791  0.2734 -0.2037  0.1066
 3033SOL    HW1 9419   3.135   3.287   3.703  2.3764 -0.7741  0.8861
 3033SOL    HW2 9420   3.094   3.164   3.802  1.1816 -0.0963  1.2523
 3034SOL     OW 9421   3.094   3.129   5.120  0.7475  0.1101 -0.2807
 3034SOL    HW1 9422   3.083   3.034   5.149 -1.4657  0.0549 -1.0752
 3034SOL    HW2 9423   3.050   3.189   5.188  1.8104  0.5550  0.0285
 3035SOL     OW 9424   2.950   1.696   4.510  0.5475  0.1807  0.0881
 3035SOL    HW1 9425   3.045   1.695   4.479  0.1523  2.2262 -1.4017
 3035SOL    HW2 9426   2.890   1.674   4.432 -0.2299 -2.4803  1.2927
 3036SOL     OW 9427   2.787   3.232   4.546 -0.4544 -0.4775 -0.6284
 3036SOL    HW1 9428   2.741   3.155   4.590  0.6391 -0.7200  0.1202
 3036SOL    HW2 9429   2.856   3.270   4.607  0.8314 -0.5603 -1.9815
 3037SOL     OW 9430   3.976   2.744   3.840 -0.2550  0.0309 -0.1805
 3037SOL    HW1 9431   3.966   2.670   3.774 -1.2818 -1.2866  1.4042
 3037SOL    HW2 9432   4.045   2.719   3.908 -0.8012  0.4172  0.5209
 3038SOL     OW 9433   1.910   3.604   2.526  0.7608  0.7901 -0.1305
 3038SOL    HW1 9434   2.004   3.574   2.542  0.3260  0.2793  1.5998
 3038SOL    HW2 9435   1.863   3.616   2.613  0.0889  3.9970 -0.8148
 3039SOL     OW 9436   2.794   2.531   5.015 -0.2910  0.3315  0.2839
 3039SOL    HW1 9437   2.783   2.497   5.108 -0.0226 -1.2647 -0.2449
 3039SOL    HW2 9438   2.790   2.631   5.016 -1.8957  0.3115  1.7853
 3040SOL     OW 9439   2.668   0.801   5.038 -0.3017  0.2207 -0.2213
 3040SOL    HW1 9440   2.585   0.748   5.052 -0.4961  0.2742 -1.1415
 3040SOL    HW2 9441   2.711   0.775   4.951 -0.2087  1.3076 -0.5253
 3041SOL     OW 9442   1.990   2.550   4.366 -0.6518  0.1325  0.1908
 3041SOL    HW1 9443   1.904   2.589   4.398  0.1767  0.6805  1.8631
 3041SOL    HW2 9444   1.971   2.472   4.306 -2.3066  1.6899 -1.4274
 3042SOL     OW 9445   3.084   2.485   5.317 -0.2490 -0.2008  0.4898
 3042SOL    HW1 9446   3.092   2.425   5.238  1.6438  1.3209 -0.5611
 3042SOL    HW2 9447   3.006   2.546   5.305 -1.7164 -1.8399  1.2103
 3043SOL     OW 9448   3.502   2.361   3.856  1.4100 -0.0471  0.2461
 3043SOL    HW1 9449   3.503   2.302   3.937  0.9849 -0.1313  0.1947
 3043SOL    HW2 9450   3.462   2.311   3.779  3.0269 -0.4305 -0.3883
 3044SOL     OW 9451   1.015   2.670   5.166 -0.1636  0.0369 -0.3231
 3044SOL    HW1 9452   1.107   2.681   5.205 -0.2191 -2.2571  0.5977
 3044SOL    HW2 9453   0.947   2.678   5.238 -0.4463 -1.4952 -0.3834
 3045SOL     OW 9454   3.776   4.336   4.396  0.1295 -0.3381  0.1678
 3045SOL    HW1 9455   3.771   4.417   4.454 -0.6718 -0.3930  0.1917
 3045SOL    HW2 9456   3.708   4.343   4.323  0.9115 -0.4190 -0.5777
 3046SOL     OW 9457   3.820   1.705   0.565  0.6271 -0.0543 -0.0835
 3046SOL    HW1 9458   3.794   1.779   0.628  1.1581  0.1599 -0.1108
 3046SOL    HW2 9459   3.743   1.641   0.556 -0.5927  1.5038 -1.5523
 3047SOL     OW 9460   3.149   3.450   3.991 -0.2138 -0.2422  0.6064
 3047SOL    HW1 9461   3.088   3.529   3.985 -1.4755 -0.9302  3.1453
 3047SOL    HW2 9462   3.117   3.379   3.928 -0.6471  0.2653  0.2455
 3048SOL     OW 9463   2.890   3.624   0.409 -0.2926  0.3589 -0.0925
 3048SOL    HW1 9464   2.809   3.567   0.419  1.1033 -1.5105  1.4156
 3048SOL    HW2 9465   2.972   3.566   0.411  1.1580  2.3144  0.1021
 3049SOL     OW 9466   4.083   3.486   5.023  0.0468 -0.0326 -0.0058
 3049SOL    HW1 9467   4.043   3.560   5.077 -0.0557 -0.1964  0.1476
 3049SOL    HW2 9468   4.010   3.425   4.992  0.0892  0.1638 -0.4875
 3050SOL     OW 9469   2.068   1.774   4.988  0.0296  0.3542  0.0380
 3050SOL    HW1 9470   2.073   1.740   4.894 -0.3760 -0.4799  0.3057
 3050SOL    HW2 9471   2.136   1.846   5.002  0.3844  0.1796 -0.7676
 3051SOL     OW 9472   4.160   2.079   0.059 -0.3190  0.1854 -0.1623
 3051SOL    HW1 9473   4.199   2.040   0.143  2.0344  1.1000 -0.7510
 3051SOL    HW2 9474   4.062   2.096   0.072 -0.3309 -1.1394  1.8349
 3052SOL     OW 9475   3.552   2.641   2.917 -0.5465 -0.1860 -0.6390
 3052SOL    HW1 9476   3.563   2.740   2.926 -0.9046 -0.3221  2.1715
 3052SOL    HW2 9477   3.642   2.598   2.907 -0.0808  0.2608  1.1854
 3053SOL     OW 9478   2.814   3.359   3.855 -0.4431 -0.5457 -0.4595
 3053SOL    HW1 9479   2.902   3.365   3.808 -0.4484  0.0745 -0.3975
 3053SOL    HW2 9480   2.745   3.324   3.792 -0.6927  1.2675 -1.2770
 3054SOL     OW 9481   2.782   3.851   3.415 -0.2445  0.6752  0.0653
 3054SOL    HW1 9482   2.755   3.910   3.340  0.5841  1.0058  0.0221
 3054SOL    HW2 9483   2.718   3.774   3.422 -0.3443  0.6587 -0.9517
 3055SOL     OW 9484   3.455   2.044   5.393  0.2778  0.1628  0.1842
 3055SOL    HW1 9485   3.458   2.059   5.492  0.2971 -1.6207  0.4843
 3055SOL    HW2 9486   3.413   2.123   5.349 -2.4639 -0.1810  1.9202
 3056SOL     OW 9487   2.987   3.512   3.641 -0.3132 -0.0131  0.6228
 3056SOL    HW1 9488   2.970   3.605   3.674 -0.1708  0.7743 -1.3814
 3056SOL    HW2 9489   2.903   3.476   3.599  0.1921  0.0302 -0.4535
 3057SOL     OW 9490   2.002   2.741   4.841 -0.4942  0.5546  0.8216
 3057SOL    HW1 9491   2.072   2.812   4.846 -0.0393  0.1177  0.6531
 3057SOL    HW2 9492   1.975   2.714   4.934  1.4093 -1.0911  0.9533
 3058SOL     OW 9493   2.815   2.627   4.340  0.0292 -0.8141  1.1559
 3058SOL    HW1 9494   2.779   2.534   4.332 -0.1822 -0.5400 -2.2164
 3058SOL    HW2 9495   2.915   2.625   4.333 -0.1008 -0.6649 -1.6528
 3059SOL     OW 9496   1.438   2.708   4.484  0.1955 -0.3780 -0.0322
 3059SOL    HW1 9497   1.431   2.747   4.576  1.3831  1.4112 -0.6398
 3059SOL    HW2 9498   1.486   2.620   4.489  0.2276 -0.3154  1.0475
 3060SOL     OW 9499   3.329   2.347   5.549  0.2072  0.9490 -0.0848
 3060SOL    HW1 9500   3.401   2.315   5.611  0.2941  0.5700 -0.3745
 3060SOL    HW2 9501   3.311   2.444   5.566 -0.4229  0.6285  1.1578
 3061SOL     OW 9502   1.907   4.926   0.270 -0.0345 -0.6705 -0.3044
 3061SOL    HW1 9503   1.950   4.948   0.182  1.4089  0.0491  0.5248
 3061SOL    HW2 9504   1.972   4.947   0.344 -1.4092 -0.7327  0.9595
 3062SOL     OW 9505   2.434   2.905   4.478 -0.3318  0.2331 -0.0546
 3062SOL    HW1 9506   2.427   2.806   4.463 -1.5493  0.2875  0.0987
 3062SOL    HW2 9507   2.487   2.946   4.404  1.1495 -0.6656  0.4591
 3063SOL     OW 9508   2.014   3.671   4.274 -0.2845 -0.3453 -0.1556
 3063SOL    HW1 9509   1.987   3.660   4.369  1.4894 -0.1618  0.3930
 3063SOL    HW2 9510   2.106   3.636   4.261 -1.2169 -2.2863 -2.2776
 3064SOL     OW 9511   3.168   2.907   4.512  0.1942 -0.3785 -0.4399
 3064SOL    HW1 9512   3.161   2.870   4.604  0.3393  1.6596  0.4565
 3064SOL    HW2 9513   3.156   2.834   4.445  0.3217 -1.9478  1.1785
 3065SOL     OW 9514   3.142   1.715   5.375 -0.0223  1.1376  0.0173
 3065SOL    HW1 9515   3.121   1.638   5.436 -0.0977  0.6810 -0.5803
 3065SOL    HW2 9516   3.096   1.797   5.409  0.8592  1.1678  1.2318
 3066SOL     OW 9517   1.938   2.324   4.735  0.1477 -0.2929  0.2990
 3066SOL    HW1 9518   1.975   2.243   4.690  1.3747  2.1003 -3.4298
 3066SOL    HW2 9519   2.005   2.358   4.801 -0.3668 -2.1682  1.8795
 3067SOL     OW 9520   2.365   4.213   4.399 -0.0138  0.2304  0.3501
 3067SOL    HW1 9521   2.318   4.173   4.478 -0.4813  0.2682  0.0994
 3067SOL    HW2 9522   2.322   4.179   4.315  0.5991  0.0481  0.1073
 3068SOL     OW 9523   3.734   1.855   5.182 -0.3212  0.2728  0.6139
 3068SOL    HW1 9524   3.686   1.785   5.129 -0.8165  0.9400  0.1690
 3068SOL    HW2 9525   3.686   1.942   5.174  1.1262  1.0486 -0.1073
 3069SOL     OW 9526   3.483   2.224   4.483  0.2306 -0.4676  0.0323
 3069SOL    HW1 9527   3.582   2.216   4.493  0.5943  0.7251 -1.9921
 3069SOL    HW2 9528   3.462   2.296   4.416 -2.0242 -0.3885  0.7434
 3070SOL     OW 9529   2.517   1.456   5.235  0.2825  0.4473 -0.4967
 3070SOL    HW1 9530   2.443   1.415   5.182  0.3301 -2.0057  1.1949
 3070SOL    HW2 9531   2.605   1.428   5.198  0.3446  0.7465 -0.5812
 3071SOL     OW 9532   0.957   2.771   3.545 -0.3298 -0.7950 -0.5475
 3071SOL    HW1 9533   0.943   2.858   3.593 -1.4238 -0.9506 -0.5713
 3071SOL    HW2 9534   0.967   2.697   3.612  1.2974 -0.5719 -0.5084
 3072SOL     OW 9535   1.474   2.520   3.694 -0.0705 -0.5533 -0.0549
 3072SOL    HW1 9536   1.407   2.533   3.767 -0.1726 -1.0022 -0.0629
 3072SOL    HW2 9537   1.435   2.462   3.623  0.6202 -1.5452  0.3528
 3073SOL     OW 9538   0.672   4.360   4.977 -0.0028 -0.1458  0.1883
 3073SOL    HW1 9539   0.703   4.421   5.050 -0.2106  1.5595 -1.0888
 3073SOL    HW2 9540   0.668   4.410   4.891 -0.8792 -1.8015 -0.7878
 3074SOL     OW 9541   1.837   3.543   0.967  0.0235  0.3454  0.1851
 3074SOL    HW1 9542   1.926   3.502   0.991 -0.1909  0.1891  0.7249
 3074SOL    HW2 9543   1.852   3.634   0.929  0.7653 -1.2035 -3.7481
 3075SOL     OW 9544   3.330   3.704   0.720  0.3742 -0.6883 -0.3093
 3075SOL    HW1 9545   3.283   3.786   0.752  1.3691 -0.0124 -0.5278
 3075SOL    HW2 9546   3.416   3.694   0.769  1.3763 -0.2809 -1.9008
 3076SOL     OW 9547   2.774   0.718   1.033  0.3270  0.2544 -0.3051
 3076SOL    HW1 9548   2.852   0.732   0.973 -0.5276  1.6071 -1.1487
 3076SOL    HW2 9549   2.747   0.622   1.032  0.8407  0.1163 -1.4384
 3077SOL     OW 9550   4.179   4.157   1.296  0.2810 -0.0110 -0.2763
 3077SOL    HW1 9551   4.122   4.185   1.219  0.3517  1.6160  0.2214
 3077SOL    HW2 9552   4.240   4.082   1.268 -0.1503  0.1129 -1.5967
 3078SOL     OW 9553   3.119   4.021   0.609  0.1885  0.1058 -0.1430
 3078SOL    HW1 9554   3.177   3.959   0.556  1.7762  0.8109  0.7229
 3078SOL    HW2 9555   3.051   4.062   0.548  0.4167 -0.9110 -1.1366
 3079SOL     OW 9556   3.530   3.700   0.908  0.1913 -1.0248 -0.5490
 3079SOL    HW1 9557   3.502   3.755   0.986  0.8613 -0.8067 -0.4557
 3079SOL    HW2 9558   3.611   3.647   0.932  1.1438 -0.0262 -1.4696
 3080SOL     OW 9559   3.528   4.862   1.435 -0.5482  0.1691  0.2685
 3080SOL    HW1 9560   3.622   4.873   1.464  0.5025  0.6082 -2.8762
 3080SOL    HW2 9561   3.498   4.945   1.387 -1.7677 -0.7359 -0.6107
 3081SOL     OW 9562   3.110   4.203   1.567 -0.3787 -0.4969 -0.4940
 3081SOL    HW1 9563   3.040   4.274   1.572 -0.3971 -0.6014  2.2788
 3081SOL    HW2 9564   3.198   4.245   1.544 -0.8809 -0.0126 -1.5908
 3082SOL     OW 9565   3.154   4.462   5.492 -0.3267 -0.1178 -0.6333
 3082SOL    HW1 9566   3.108   4.429   5.410  0.2394 -1.4483 -0.4339
 3082SOL    HW2 9567   3.198   4.385   5.540  0.2167  0.7820  0.3667
 3083SOL     OW 9568   2.452   0.513   0.941  0.1704 -0.3877 -0.0129
 3083SOL    HW1 9569   2.468   0.580   1.013  0.6324  0.8747 -1.2407
 3083SOL    HW2 9570   2.533   0.507   0.882 -0.9745  0.3575 -1.7693
 3084SOL     OW 9571   1.766   4.742   0.800  0.1622  0.2941 -0.1828
 3084SOL    HW1 9572   1.674   4.779   0.808 -0.0309 -0.4162  1.1903
 3084SOL    HW2 9573   1.761   4.642   0.789  0.7704  0.0430  1.5130
 3085SOL     OW 9574   2.135   5.571   0.840 -0.2306  0.2574  0.3383
 3085SOL    HW1 9575   2.062   5.574   0.908  0.1703 -0.5579  0.8223
 3085SOL    HW2 9576   2.224   5.575   0.886  0.1640 -3.3589  0.2183
 3086SOL     OW 9577   2.028   4.487   1.466  0.0558  0.0935  0.5674
 3086SOL    HW1 9578   2.109   4.545   1.462 -0.5169  0.9049  0.4290
 3086SOL    HW2 9579   2.054   4.395   1.498  2.0659 -1.5837 -4.7976
 3087SOL     OW 9580   3.209   4.542   0.996  0.1512 -0.1111  0.1508
 3087SOL    HW1 9581   3.200   4.637   0.966  0.7058  0.2884  1.1925
 3087SOL    HW2 9582   3.244   4.487   0.921  1.6255  0.8881  0.0513
 3088SOL     OW 9583   1.645   5.153   0.654 -0.1819  0.1998 -0.5367
 3088SOL    HW1 9584   1.606   5.113   0.571 -1.1327  1.1537 -0.5693
 3088SOL    HW2 9585   1.573   5.166   0.722  0.2001  1.3952 -0.3426
 3089SOL     OW 9586   3.210   5.192   1.069 -0.6100  0.4409 -0.6486
 3089SOL    HW1 9587   3.147   5.122   1.102  0.4831 -0.9640 -1.4751
 3089SOL    HW2 9588   3.203   5.273   1.127 -2.0223 -0.2740  0.2162
 3090SOL     OW 9589   2.730   4.891   5.420 -0.1885 -0.1181 -0.4991
 3090SOL    HW1 9590   2.647   4.915   5.369  0.3022 -2.3976 -2.5379
 3090SOL    HW2 9591   2.724   4.796   5.450  1.1055  0.1164  0.5907
 3091SOL     OW 9592   2.752   4.303   0.604 -0.3624  0.0263 -0.0554
 3091SOL    HW1 9593   2.665   4.333   0.564 -0.2459  1.8047  0.9263
 3091SOL    HW2 9594   2.807   4.383   0.628  1.2539 -1.0577  0.0153
 3092SOL     OW 9595   3.439   4.645   1.729  1.3920 -0.5557 -0.0053
 3092SOL    HW1 9596   3.349   4.622   1.693  0.8116 -1.1514  1.7003
 3092SOL    HW2 9597   3.510   4.606   1.670  0.5373 -0.5935 -1.0407
 3093SOL     OW 9598   3.263   4.180   5.250 -0.2792 -0.0505  0.0934
 3093SOL    HW1 9599   3.195   4.242   5.213  0.6827  0.5849 -0.6778
 3093SOL    HW2 9600   3.236   4.151   5.341 -0.7251  1.5653  0.5081
 3094SOL     OW 9601   1.358   3.545   0.749 -0.2145 -0.4241  0.2137
 3094SOL    HW1 9602   1.285   3.602   0.713 -2.2406 -2.3842  0.9579
 3094SOL    HW2 9603   1.318   3.471   0.805  2.3766 -1.2935  1.0686
 3095SOL     OW 9604   4.306   5.383   0.663 -0.3412 -0.1102 -0.7835
 3095SOL    HW1 9605   4.257   5.333   0.591  1.5873 -0.4815 -1.9092
 3095SOL    HW2 9606   4.404   5.372   0.649  0.1806  3.3382 -0.6047
 3096SOL     OW 9607   3.389   3.785   1.127 -0.7728  0.1336 -0.2368
 3096SOL    HW1 9608   3.342   3.833   1.201 -0.6951  1.9222 -1.2635
 3096SOL    HW2 9609   3.328   3.717   1.086 -0.9127 -0.6569  1.2307
 3097SOL     OW 9610   3.668   3.805   1.207  0.2491  0.3966  0.1894
 3097SOL    HW1 9611   3.652   3.900   1.180 -0.9811  0.4455  1.0243
 3097SOL    HW2 9612   3.583   3.754   1.201  1.0509 -0.8639 -0.9576
 3098SOL     OW 9613   4.321   0.410   5.407 -0.2505  0.1093 -0.4054
 3098SOL    HW1 9614   4.292   0.487   5.350 -1.9001  0.1549  0.4555
 3098SOL    HW2 9615   4.307   0.325   5.356  1.4186  0.3189 -1.2938
 3099SOL     OW 9616   1.797   3.149   1.686 -0.6805 -0.3615 -0.0671
 3099SOL    HW1 9617   1.742   3.158   1.770 -1.0588  0.4339 -0.3858
 3099SOL    HW2 9618   1.889   3.117   1.709 -0.6412  0.2876  0.7034
 3100SOL     OW 9619   2.569   4.768   1.141  0.0563 -0.7534 -0.2235
 3100SOL    HW1 9620   2.540   4.854   1.099  0.5752 -0.9392 -0.9977
 3100SOL    HW2 9621   2.608   4.787   1.231 -0.4146 -0.2524 -0.1216
 3101SOL     OW 9622   3.544   4.421   1.963 -0.1882  0.0311  0.0566
 3101SOL    HW1 9623   3.527   4.512   1.925  0.2296 -0.2191 -0.7549
 3101SOL    HW2 9624   3.589   4.430   2.051 -0.1691  0.6102 -0.0062
 3102SOL     OW 9625   2.820   2.456   0.214 -0.2173 -0.5523  0.2304
 3102SOL    HW1 9626   2.722   2.475   0.205  0.0592  1.4777  1.0938
 3102SOL    HW2 9627   2.845   2.380   0.153 -2.3795 -1.3832  0.2954
 3103SOL     OW 9628   1.917   0.039   0.994  0.5809 -0.2199  0.3721
 3103SOL    HW1 9629   1.867   0.125   0.985 -0.9569 -1.0929  0.2911
 3103SOL    HW2 9630   1.973   0.042   1.077  1.0723  1.0937  0.0288
 3104SOL     OW 9631   4.130   4.681   0.755 -0.0361 -0.0897 -0.2640
 3104SOL    HW1 9632   4.050   4.714   0.706 -0.6480 -1.4251 -0.2153
 3104SOL    HW2 9633   4.209   4.738   0.733 -0.7544  0.5779 -1.1698
 3105SOL     OW 9634   2.139   0.416   1.757 -0.1284 -0.8339  0.2538
 3105SOL    HW1 9635   2.192   0.487   1.804 -0.3168 -1.7503  1.9248
 3105SOL    HW2 9636   2.056   0.456   1.719  1.0321  0.3349 -1.1477
 3106SOL     OW 9637   2.432   4.788   0.379  0.2457  0.5551  0.2258
 3106SOL    HW1 9638   2.405   4.878   0.415  2.5338  1.3392  0.1221
 3106SOL    HW2 9639   2.506   4.750   0.434 -0.3868 -1.0896 -0.0035
 3107SOL     OW 9640   2.378   5.583   0.971 -0.2853  0.4639 -0.5749
 3107SOL    HW1 9641   2.409   5.675   0.994 -2.0206  1.4532 -1.9970
 3107SOL    HW2 9642   2.397   5.522   1.048  0.8602  1.9900  0.4209
 3108SOL     OW 9643   3.943   0.140   1.803 -0.5486  0.1433 -0.0189
 3108SOL    HW1 9644   3.922   0.110   1.710  2.1499 -1.2240 -0.2679
 3108SOL    HW2 9645   4.022   0.090   1.838 -1.6276  0.3917  3.1684
 3109SOL     OW 9646   3.265   5.429   0.272  0.0301  0.2539  0.1270
 3109SOL    HW1 9647   3.298   5.344   0.314 -1.2685 -0.3990 -0.1132
 3109SOL    HW2 9648   3.217   5.484   0.340  0.8286  0.8018  0.2704
 3110SOL     OW 9649   3.467   3.361   1.195 -0.1152 -0.2428  0.4177
 3110SOL    HW1 9650   3.528   3.310   1.133  0.4548  1.0080 -0.0892
 3110SOL    HW2 9651   3.386   3.390   1.144 -0.1220 -0.0766  0.5245
 3111SOL     OW 9652   3.333   1.133   0.315 -0.3504  0.2214 -0.4914
 3111SOL    HW1 9653   3.279   1.168   0.238 -0.0756 -0.8342 -1.1916
 3111SOL    HW2 9654   3.275   1.074   0.371 -0.3498  0.3909 -0.3120
 3112SOL     OW 9655   2.613   4.502   2.357 -0.0202  0.3016 -0.0915
 3112SOL    HW1 9656   2.531   4.523   2.409  0.2924  2.1197 -0.2532
 3112SOL    HW2 9657   2.684   4.466   2.418 -0.7204 -0.6846  0.1520
 3113SOL     OW 9658   2.796   5.484   1.380 -0.7075 -0.0112 -0.2951
 3113SOL    HW1 9659   2.839   5.554   1.435 -0.8563 -1.1810  1.3876
 3113SOL    HW2 9660   2.856   5.459   1.304  0.7100 -0.1858  0.8331
 3114SOL     OW 9661   1.468   5.218   1.623  0.1895 -0.2446  0.2379
 3114SOL    HW1 9662   1.393   5.187   1.565 -0.0204 -0.5305  0.6590
 3114SOL    HW2 9663   1.546   5.157   1.613  0.1992 -0.2208  0.1637
 3115SOL     OW 9664   2.973   4.666   1.260  0.2945 -0.6028  0.1776
 3115SOL    HW1 9665   2.920   4.674   1.176 -0.1450  0.9492  0.5757
 3115SOL    HW2 9666   2.927   4.715   1.334  1.9620  0.2735  0.6878
 3116SOL     OW 9667   3.880   3.414   5.573  0.4245  0.2650  0.6464
 3116SOL    HW1 9668   3.929   3.347   5.517  0.8449  1.5480 -0.5686
 3116SOL    HW2 9669   3.782   3.407   5.555  0.3320 -0.8493  1.4711
 3117SOL     OW 9670   2.918   5.116   1.091 -0.8279  0.0654 -0.1038
 3117SOL    HW1 9671   2.819   5.122   1.103 -1.0950  1.0939 -2.3772
 3117SOL    HW2 9672   2.939   5.067   1.007  0.6006  0.0566  0.2314
 3118SOL     OW 9673   1.794   1.949   2.521 -0.1025  0.0004  0.0069
 3118SOL    HW1 9674   1.746   1.969   2.606 -2.6727  0.4005 -1.4523
 3118SOL    HW2 9675   1.784   1.852   2.499  2.2964 -0.5706  1.1036
 3119SOL     OW 9676   3.233   3.684   0.226  0.6220  0.4831 -0.1215
 3119SOL    HW1 9677   3.272   3.593   0.242  1.8229  0.8258 -0.9564
 3119SOL    HW2 9678   3.157   3.677   0.162  1.7615  0.2321 -1.4996
 3120SOL     OW 9679   4.232   5.144   1.179 -0.4292  0.1636 -0.2039
 3120SOL    HW1 9680   4.275   5.106   1.262  0.4365  0.6041 -0.4378
 3120SOL    HW2 9681   4.197   5.069   1.124  0.9102 -0.3126 -0.4621
 3121SOL     OW 9682   3.312   4.253   0.040 -0.3073 -0.6892  0.5453
 3121SOL    HW1 9683   3.324   4.171  -0.015  1.2424 -0.3481  0.3347
 3121SOL    HW2 9684   3.367   4.245   0.124 -0.7500 -0.1888  0.8898
 3122SOL     OW 9685   2.204   3.113   0.870 -0.1118  0.2451 -0.1410
 3122SOL    HW1 9686   2.154   3.199   0.886 -0.7524 -0.3533  1.3095
 3122SOL    HW2 9687   2.175   3.074   0.783 -0.8252  0.8180 -0.1759
 3123SOL     OW 9688   3.214   5.455   1.200 -0.0176 -0.1255  0.8595
 3123SOL    HW1 9689   3.115   5.439   1.204 -0.1756  0.9283  1.6985
 3123SOL    HW2 9690   3.231   5.547   1.165  0.6887 -0.4937  0.2197
 3124SOL     OW 9691   2.866   0.454   1.481  0.8445 -0.1871  0.3942
 3124SOL    HW1 9692   2.814   0.404   1.412  2.5520 -1.6334  0.0662
 3124SOL    HW2 9693   2.949   0.492   1.439  0.7898  0.8477  1.1801
 3125SOL     OW 9694   4.163   5.269   0.453  0.0535  0.3151  0.0878
 3125SOL    HW1 9695   4.068   5.240   0.465  0.1508 -0.0026  0.0855
 3125SOL    HW2 9696   4.184   5.276   0.355  0.8119 -2.2102  0.0073
 3126SOL     OW 9697   1.981   5.096   1.008  0.0227 -0.5379  0.2367
 3126SOL    HW1 9698   1.906   5.153   0.975 -0.5588 -0.6877  1.2650
 3126SOL    HW2 9699   1.973   5.005   0.968  0.0196 -0.3717 -0.1445
 3127SOL     OW 9700   0.897   5.014   1.228  0.6243  0.5096  0.2756
 3127SOL    HW1 9701   0.904   4.940   1.295 -0.1236 -0.8546 -1.0680
 3127SOL    HW2 9702   0.808   5.059   1.238  0.1057 -0.3222 -0.3540
 3128SOL     OW 9703   2.450   4.387   0.593 -0.4505  0.2194 -0.1654
 3128SOL    HW1 9704   2.484   4.464   0.647  2.8164  0.3191 -2.1319
 3128SOL    HW2 9705   2.392   4.421   0.518  0.1392  0.6744 -0.4198
 3129SOL     OW 9706   1.031   5.026   2.413 -0.6100 -0.1975 -0.3004
 3129SOL    HW1 9707   0.988   5.091   2.351 -1.4583 -3.5778 -3.6450
 3129SOL    HW2 9708   1.128   5.050   2.424 -1.1413  2.2391 -0.2840
 3130SOL     OW 9709   3.040   4.409   0.626 -0.3639  0.3864 -0.4346
 3130SOL    HW1 9710   3.103   4.385   0.552  0.7508  1.3529  0.1601
 3130SOL    HW2 9711   3.058   4.351   0.705  0.2658  1.0898 -0.0407
 3131SOL     OW 9712   0.836   4.586   1.977  0.0620  0.3903  0.1487
 3131SOL    HW1 9713   0.816   4.489   1.983  2.1726 -0.1472 -0.7484
 3131SOL    HW2 9714   0.919   4.607   2.030  2.0079  0.8633 -2.8325
 3132SOL     OW 9715   3.470   4.989   2.022 -0.4848  0.5539  0.1107
 3132SOL    HW1 9716   3.380   4.974   2.064 -0.6853 -2.1097 -1.0150
 3132SOL    HW2 9717   3.534   5.021   2.091 -2.2001  2.3404  0.9870
 3133SOL     OW 9718   2.234   0.806   0.735 -0.0154 -0.8314 -0.0286
 3133SOL    HW1 9719   2.289   0.851   0.805  1.1010 -0.6199 -1.0087
 3133SOL    HW2 9720   2.199   0.720   0.772  1.1205 -1.0585  0.5907
 3134SOL     OW 9721   3.554   4.349   5.337  0.2408  0.0649  0.3122
 3134SOL    HW1 9722   3.545   4.249   5.345 -0.5735  0.0226 -0.9729
 3134SOL    HW2 9723   3.641   4.377   5.378 -0.1479 -0.9915  1.9566
 3135SOL     OW 9724   1.490   1.181   1.072 -0.1283  0.2593  0.4828
 3135SOL    HW1 9725   1.488   1.220   0.981 -0.9994 -1.5042 -0.3109
 3135SOL    HW2 9726   1.565   1.222   1.125 -1.6148  3.7144  0.1597
 3136SOL     OW 9727   3.100   5.461   1.992  0.1465  0.2882  0.7242
 3136SOL    HW1 9728   3.141   5.408   1.918  0.7485 -0.3765  1.5209
 3136SOL    HW2 9729   3.006   5.485   1.967  0.4710  0.4173 -0.4154
 3137SOL     OW 9730   2.168   0.581   0.919 -0.8812  0.1567  0.0305
 3137SOL    HW1 9731   2.165   0.637   1.002 -1.5568  0.7088 -0.3580
 3137SOL    HW2 9732   2.259   0.541   0.910 -0.1116  1.8128 -0.0659
 3138SOL     OW 9733   3.953   4.005   1.952 -0.1964 -0.1058 -0.0890
 3138SOL    HW1 9734   3.893   3.938   1.995  1.1166  0.2815  2.5408
 3138SOL    HW2 9735   3.924   4.097   1.978 -0.1718  0.2445 -1.2212
 3139SOL     OW 9736   3.121   3.905   0.873  0.1801 -0.0629 -0.0961
 3139SOL    HW1 9737   3.135   3.955   0.787  0.2233 -0.6141 -0.4145
 3139SOL    HW2 9738   3.044   3.945   0.922 -0.4959 -0.3781 -0.8761
 3140SOL     OW 9739   3.573   5.136   3.263  0.3649 -0.2266 -0.0429
 3140SOL    HW1 9740   3.605   5.058   3.316  0.4803 -0.2327 -0.1210
 3140SOL    HW2 9741   3.648   5.170   3.206 -0.0094 -0.8039 -0.9049
 3141SOL     OW 9742   2.943   5.409   1.166 -0.0502  0.4384 -0.6103
 3141SOL    HW1 9743   2.965   5.313   1.145 -0.2814 -0.2964  2.1871
 3141SOL    HW2 9744   2.865   5.437   1.111 -0.2862 -1.1337 -1.1371
 3142SOL     OW 9745   4.593   4.166   2.370  0.2680 -0.5303 -0.2926
 3142SOL    HW1 9746   4.515   4.106   2.385 -0.0634 -0.6546 -2.2550
 3142SOL    HW2 9747   4.633   4.147   2.280  1.0697  1.1697 -0.3321
 3143SOL     OW 9748   2.036   5.290   0.516 -0.7308 -0.0950  0.2485
 3143SOL    HW1 9749   2.083   5.317   0.601 -1.2339  1.5095  0.0545
 3143SOL    HW2 9750   1.949   5.338   0.511 -1.6564 -1.7659 -0.2059
 3144SOL     OW 9751   3.434   3.564   5.444  0.1055 -0.1988  0.0862
 3144SOL    HW1 9752   3.346   3.538   5.406  1.4731 -1.9496 -2.1525
 3144SOL    HW2 9753   3.420   3.619   5.526 -3.0238 -0.1088 -0.3854
 3145SOL     OW 9754   3.732   2.977   1.192  0.5783  0.2461 -0.1046
 3145SOL    HW1 9755   3.777   2.933   1.269 -0.4788 -1.3813 -0.3760
 3145SOL    HW2 9756   3.655   2.921   1.161 -1.5088  2.7778  0.1744
 3146SOL     OW 9757   2.739   4.978   0.376 -0.1319 -0.1213 -0.1224
 3146SOL    HW1 9758   2.733   4.929   0.290  2.1652 -0.4033 -0.1761
 3146SOL    HW2 9759   2.808   5.051   0.369  1.7236 -1.5080  2.0398
 3147SOL     OW 9760   2.333   3.884   0.576  0.7106  0.6920 -0.2764
 3147SOL    HW1 9761   2.357   3.966   0.628 -0.8010  1.3738 -0.5844
 3147SOL    HW2 9762   2.242   3.895   0.537  0.5694 -1.0564 -0.5331
 3148SOL     OW 9763   2.355   4.656   5.526 -0.1813  0.6666  0.4037
 3148SOL    HW1 9764   2.269   4.677   5.572  0.2527  1.1758  0.9948
 3148SOL    HW2 9765   2.347   4.568   5.480 -0.6837  0.2042  1.3349
 3149SOL     OW 9766   3.849   4.262   1.325  0.0552 -0.6530 -0.6172
 3149SOL    HW1 9767   3.864   4.163   1.328  0.3320 -0.6492 -1.5479
 3149SOL    HW2 9768   3.920   4.305   1.270  1.6701  0.4356  2.1083
 3150SOL     OW 9769   3.520   0.007   1.068  0.5033  0.6212  0.1214
 3150SOL    HW1 9770   3.479   0.005   1.159  0.9690  1.2044  0.3518
 3150SOL    HW2 9771   3.570   0.093   1.056  1.0045  0.2591 -0.4365
 3151SOL     OW 9772   3.102   5.190   0.733 -0.1284  0.3864 -0.3440
 3151SOL    HW1 9773   3.131   5.122   0.666  2.1118  0.4447  0.4844
 3151SOL    HW2 9774   3.180   5.246   0.760 -0.8971  0.2564  2.4465
 3152SOL     OW 9775   2.463   0.132   0.164 -0.3004  0.2977  0.3660
 3152SOL    HW1 9776   2.385   0.075   0.141  0.6764 -1.1623  0.5223
 3152SOL    HW2 9777   2.524   0.138   0.085 -0.1321  0.6707  0.5242
 3153SOL     OW 9778   3.352   4.657   4.939  0.7676 -0.4797 -0.6828
 3153SOL    HW1 9779   3.414   4.655   5.018  2.5601  0.3566 -2.0215
 3153SOL    HW2 9780   3.370   4.578   4.881 -0.4737 -1.0297 -0.3743
 3154SOL     OW 9781   2.090   3.789   2.057 -0.1844  0.5727 -0.3124
 3154SOL    HW1 9782   2.180   3.820   2.085 -0.1538  1.3459 -1.1984
 3154SOL    HW2 9783   2.054   3.724   2.124  0.1067  1.8929  1.1888
 3155SOL     OW 9784   1.947   2.105   0.927 -0.4285 -0.3081  0.0163
 3155SOL    HW1 9785   1.983   2.037   0.990 -2.7310 -1.0913  0.5575
 3155SOL    HW2 9786   1.896   2.059   0.854 -2.4444  0.8203  0.6640
 3156SOL     OW 9787   2.737   4.893   1.930  0.7127 -0.2161  0.0564
 3156SOL    HW1 9788   2.652   4.852   1.963 -0.1584 -0.1749 -1.9960
 3156SOL    HW2 9789   2.793   4.823   1.885  2.1740 -0.4122  2.0324
 3157SOL     OW 9790   2.905   3.392   1.094  0.2976  0.3118  0.4379
 3157SOL    HW1 9791   2.944   3.405   1.003 -0.9215 -1.4886 -0.4022
 3157SOL    HW2 9792   2.831   3.457   1.108  1.6071  1.7690  0.8822
 3158SOL     OW 9793   3.363   0.079   1.688 -0.1496 -0.0764  0.1045
 3158SOL    HW1 9794   3.448   0.115   1.648 -0.4355 -0.5583 -0.9775
 3158SOL    HW2 9795   3.384   0.013   1.759  0.4305 -1.6691 -1.4805
 3159SOL     OW 9796   3.889   4.918   1.164 -0.0119  0.1575  0.1216
 3159SOL    HW1 9797   3.930   4.827   1.158 -0.7811 -0.1276 -1.8067
 3159SOL    HW2 9798   3.796   4.915   1.127  0.2338  1.8794 -0.7484
 3160SOL     OW 9799   4.659   4.782   2.385  0.1183  0.0900 -0.2219
 3160SOL    HW1 9800   4.599   4.842   2.333  0.8759  0.7029 -0.4034
 3160SOL    HW2 9801   4.737   4.834   2.419  0.2817 -0.5799  0.4560
 3161SOL     OW 9802   2.941   5.041   5.339 -0.1436  0.7326 -0.2568
 3161SOL    HW1 9803   2.885   5.115   5.302 -1.1137  0.9964  1.6245
 3161SOL    HW2 9804   2.887   4.988   5.405  0.9162 -0.9025 -0.6492
 3162SOL     OW 9805   3.155   4.262   1.093 -0.6108  0.0666 -0.1234
 3162SOL    HW1 9806   3.125   4.357   1.088  1.7337  0.8127 -1.9835
 3162SOL    HW2 9807   3.136   4.217   1.006  0.2275 -0.5065 -0.0234
 3163SOL     OW 9808   2.810   4.330   0.098 -0.3003  0.3170  0.5319
 3163SOL    HW1 9809   2.893   4.279   0.120 -0.7313 -0.4267  0.4614
 3163SOL    HW2 9810   2.808   4.351   0.001 -1.9029 -2.8857 -0.2542
 3164SOL     OW 9811   2.290   4.932   5.202  0.5194 -0.3760  0.2776
 3164SOL    HW1 9812   2.209   4.954   5.256  0.9213  0.9383  0.3744
 3164SOL    HW2 9813   2.296   4.994   5.124  1.3436 -0.5643  0.1812
 3165SOL     OW 9814   2.987   1.301   2.222 -0.1244 -0.0759  0.1046
 3165SOL    HW1 9815   2.913   1.368   2.216 -0.3261 -0.3222 -0.2058
 3165SOL    HW2 9816   3.060   1.337   2.280 -1.5254 -0.7765  2.4826
 3166SOL     OW 9817   3.236   4.645   1.517 -0.6050  0.2905 -0.2188
 3166SOL    HW1 9818   3.247   4.637   1.418  0.8928  0.8954 -0.1331
 3166SOL    HW2 9819   3.276   4.732   1.547 -0.9575  0.0663  0.9261
 3167SOL     OW 9820   2.929   5.216   2.313  0.7287  0.5197  0.0074
 3167SOL    HW1 9821   2.876   5.157   2.252  0.1055 -0.1451  1.1493
 3167SOL    HW2 9822   2.908   5.192   2.408  1.5972  1.5950  0.4863
 3168SOL     OW 9823   2.865   4.491   1.932  0.2393  0.0462  0.5534
 3168SOL    HW1 9824   2.842   4.430   2.009  2.3314  0.5513  1.6635
 3168SOL    HW2 9825   2.946   4.544   1.955  2.0035 -0.9832 -2.6676
 3169SOL     OW 9826   3.149   5.087   1.795 -0.5132 -0.1801  0.0141
 3169SOL    HW1 9827   3.201   5.173   1.790 -2.7121  1.3897  1.9467
 3169SOL    HW2 9828   3.144   5.046   1.704  2.5594  0.4350 -0.5743
 3170SOL     OW 9829   1.865   5.290   1.794 -0.1723 -0.1951  1.1328
 3170SOL    HW1 9830   1.845   5.388   1.785  0.4973  0.0026  1.7335
 3170SOL    HW2 9831   1.886   5.252   1.704 -0.6706  0.1581  0.8625
 3171SOL     OW 9832   2.697   0.178   0.986  0.0376  0.0243 -0.1562
 3171SOL    HW1 9833   2.685   0.091   0.938  0.5958 -1.0634  1.5779
 3171SOL    HW2 9834   2.607   0.212   1.016  0.0128 -1.8470  2.2282
 3172SOL     OW 9835   1.320   5.375   2.266  0.0112 -0.0796  0.6995
 3172SOL    HW1 9836   1.313   5.302   2.198 -0.0369  0.0568  0.5600
 3172SOL    HW2 9837   1.370   5.341   2.346  0.1834 -0.1978  0.5420
 3173SOL     OW 9838   3.116   3.692   1.382  0.5521 -0.1967 -0.3864
 3173SOL    HW1 9839   3.027   3.732   1.360  0.4914 -0.2730 -0.2772
 3173SOL    HW2 9840   3.186   3.763   1.378  0.1330  0.4492  2.0888
 3174SOL     OW 9841   2.741   0.478   1.115 -0.1572 -0.7138 -0.1714
 3174SOL    HW1 9842   2.734   0.414   1.191 -0.0730 -0.7883 -0.2258
 3174SOL    HW2 9843   2.830   0.524   1.119 -0.3219 -0.4134  0.0155
 3175SOL     OW 9844   2.695   4.895   0.870 -0.2004 -0.4951  0.0967
 3175SOL    HW1 9845   2.786   4.933   0.886 -0.7645  0.4708  1.0856
 3175SOL    HW2 9846   2.658   4.932   0.785  0.4314 -1.1017 -0.4518
 3176SOL     OW 9847   2.118   3.759   1.503 -0.0562 -0.0476  0.4648
 3176SOL    HW1 9848   2.078   3.700   1.432 -0.6321 -0.1904  0.8982
 3176SOL    HW2 9849   2.080   3.734   1.592  2.0685 -1.1613  1.1336
 3177SOL     OW 9850   2.286   4.354   1.757  0.3770 -0.1658 -0.3415
 3177SOL    HW1 9851   2.320   4.425   1.696  1.1106 -0.7221 -0.5942
 3177SOL    HW2 9852   2.353   4.338   1.830 -0.4922  0.5011  0.6419
 3178SOL     OW 9853   4.185   5.318   1.944  0.2067  0.5204  0.1278
 3178SOL    HW1 9854   4.227   5.295   1.856  0.3197 -0.7537  0.4925
 3178SOL    HW2 9855   4.111   5.254   1.962 -0.3288  1.2634  0.6143
 3179SOL     OW 9856   3.767   3.557   0.860  0.1885 -0.3588 -0.0795
 3179SOL    HW1 9857   3.818   3.472   0.852  0.0096 -0.3037 -2.4173
 3179SOL    HW2 9858   3.831   3.632   0.878  0.5072 -0.7732  0.5556
 3180SOL     OW 9859   2.720   5.297   0.103 -0.0867 -0.2918 -0.4932
 3180SOL    HW1 9860   2.686   5.208   0.073  1.0288 -0.4435 -1.3684
 3180SOL    HW2 9861   2.668   5.327   0.183 -2.0339 -0.6372 -1.5737
 3181SOL     OW 9862   2.056   4.449   0.768 -0.6559  0.1216  0.3728
 3181SOL    HW1 9863   2.074   4.380   0.698 -1.1134 -0.3893  0.7576
 3181SOL    HW2 9864   2.088   4.539   0.735  0.2254 -0.3144 -0.0049
 3182SOL     OW 9865   2.296   4.565   0.427  0.4848  0.6625 -0.3464
 3182SOL    HW1 9866   2.329   4.659   0.416  1.3992  0.6253  1.6965
 3182SOL    HW2 9867   2.315   4.514   0.343  1.1992  1.9411 -1.0066
 3183SOL     OW 9868   3.953   5.169   1.956 -0.3629  0.2191 -0.0574
 3183SOL    HW1 9869   4.015   5.091   1.960  1.4180  1.4805 -1.5973
 3183SOL    HW2 9870   3.892   5.166   2.036  0.7311 -1.8168  0.7928
 3184SOL     OW 9871   1.895   5.320   1.510  0.2860 -0.4391  0.2825
 3184SOL    HW1 9872   1.911   5.288   1.417  3.5945  0.2231  0.5120
 3184SOL    HW2 9873   1.956   5.397   1.530  0.5561 -1.3108  3.3757
 3185SOL     OW 9874   3.355   4.352   1.497 -0.2026  0.2511 -0.1934
 3185SOL    HW1 9875   3.380   4.447   1.480  1.6894 -0.2297 -0.2917
 3185SOL    HW2 9876   3.412   4.315   1.571  0.4686 -1.3605 -1.4557
 3186SOL     OW 9877   3.294   4.384   0.811 -0.0754 -0.0493 -0.3835
 3186SOL    HW1 9878   3.378   4.345   0.774  1.0773  0.8808  1.0932
 3186SOL    HW2 9879   3.225   4.313   0.820  1.8292 -1.7756  1.9197
 3187SOL     OW 9880   2.339   4.343   1.350 -0.1876  0.1643 -0.3531
 3187SOL    HW1 9881   2.359   4.265   1.408 -0.6454  0.1587 -0.1960
 3187SOL    HW2 9882   2.321   4.312   1.257 -0.2039  0.0992 -0.3280
 3188SOL     OW 9883   2.443   5.354   0.586 -0.0113 -0.5789 -0.5274
 3188SOL    HW1 9884   2.375   5.405   0.535 -1.5569 -0.1373  1.7980
 3188SOL    HW2 9885   2.398   5.289   0.648  1.8287 -3.0185 -1.5689
 3189SOL     OW 9886   2.230   4.911   0.720 -0.2872  0.0336 -0.0984
 3189SOL    HW1 9887   2.233   4.972   0.799 -0.6440  0.6468 -0.5505
 3189SOL    HW2 9888   2.286   4.950   0.647  0.5931 -0.8606  0.0684
 3190SOL     OW 9889   3.977   0.189   1.153 -0.4607  0.8486 -0.0252
 3190SOL    HW1 9890   3.928   0.178   1.067  0.2649  1.1618 -0.4913
 3190SOL    HW2 9891   4.007   0.284   1.162 -0.7457  0.8766  0.6925
 3191SOL     OW 9892   1.897   2.339   1.037  0.0783  0.0215  0.3415
 3191SOL    HW1 9893   1.944   2.329   1.125 -0.8779 -1.5697  0.7120
 3191SOL    HW2 9894   1.907   2.255   0.984 -1.1105  0.2004 -0.1885
 3192SOL     OW 9895   3.288   3.898   1.335  0.0843 -0.5137  0.0257
 3192SOL    HW1 9896   3.302   3.989   1.296  4.5421 -1.4471 -1.1218
 3192SOL    HW2 9897   3.264   3.906   1.432 -2.1479  1.7837 -0.6130
 3193SOL     OW 9898   3.539   4.012   1.660 -0.5279  0.4050 -0.2097
 3193SOL    HW1 9899   3.550   3.992   1.757  1.1764  2.4951  0.1109
 3193SOL    HW2 9900   3.459   3.963   1.625 -0.0868 -1.9104  1.7423
 3194SOL     OW 9901   2.198   0.782   1.781  0.5127 -0.2231 -0.0482
 3194SOL    HW1 9902   2.274   0.718   1.773  0.0647 -1.0297  1.7197
 3194SOL    HW2 9903   2.159   0.799   1.691  3.1755  0.7328 -1.1147
 3195SOL     OW 9904   3.762   5.184   2.429  0.1937 -0.0401 -0.3510
 3195SOL    HW1 9905   3.721   5.121   2.496  2.5693  1.1862  2.4913
 3195SOL    HW2 9906   3.729   5.277   2.447  1.1170  0.3534 -0.6161
 3196SOL     OW 9907   2.918   0.130   1.480  0.6778  0.1132 -0.0290
 3196SOL    HW1 9908   3.017   0.124   1.467  1.5959  4.8637  2.5235
 3196SOL    HW2 9909   2.895   0.113   1.576 -1.6402 -3.8599 -1.0262
 3197SOL     OW 9910   2.630   4.520   0.170 -0.5138  0.0483  0.3575
 3197SOL    HW1 9911   2.698   4.448   0.157 -0.5178  0.0242  0.4738
 3197SOL    HW2 9912   2.649   4.569   0.254 -2.4788 -1.9832  2.1173
 3198SOL     OW 9913   3.711   4.112   0.893  0.4735  0.1637 -0.0381
 3198SOL    HW1 9914   3.660   4.106   0.979  1.3682  0.0998  0.5025
 3198SOL    HW2 9915   3.710   4.207   0.861  0.0108  0.1611 -0.0350
 3199SOL     OW 9916   3.591   5.296   2.083  0.3837  0.6024  0.8699
 3199SOL    HW1 9917   3.638   5.384   2.089  0.2785  0.6046  1.8706
 3199SOL    HW2 9918   3.649   5.224   2.121  1.0897 -0.0406 -1.2968
 3200SOL     OW 9919   3.501   4.604   1.333  0.4722 -0.4508 -0.1399
 3200SOL    HW1 9920   3.517   4.696   1.368  1.9614 -0.9176  0.4828
 3200SOL    HW2 9921   3.410   4.600   1.290  1.3727  2.0101 -2.5484
 3201SOL     OW 9922   3.803   4.690   1.855 -0.5043  0.2445  0.4429
 3201SOL    HW1 9923   3.878   4.718   1.794 -0.2802  1.0133  1.0464
 3201SOL    HW2 9924   3.721   4.671   1.801 -0.8535  2.6859 -0.0061
 3202SOL     OW 9925   3.968   3.741   0.960 -0.0630  0.0079 -0.0447
 3202SOL    HW1 9926   4.049   3.725   0.904 -0.9953 -0.3067 -1.3561
 3202SOL    HW2 9927   3.972   3.834   0.997  1.1193 -0.1682  0.3148
 3203SOL     OW 9928   3.888   3.977   1.277 -0.4485 -0.3378  0.1540
 3203SOL    HW1 9929   3.908   3.987   1.180 -1.9825 -0.9902 -0.2588
 3203SOL    HW2 9930   3.846   3.887   1.294 -1.1983  0.1867  1.2390
 3204SOL     OW 9931   2.649   4.608   5.508 -0.5676 -0.4965 -0.3171
 3204SOL    HW1 9932   2.633   4.558   5.593  0.5930 -0.0146  0.2016
 3204SOL    HW2 9933   2.561   4.635   5.468 -1.1678 -1.7931  0.0714
 3205SOL     OW 9934   0.782   0.605   0.629  0.1212  0.2475 -0.4470
 3205SOL    HW1 9935   0.700   0.658   0.608 -1.0325 -1.7278 -1.1529
 3205SOL    HW2 9936   0.830   0.582   0.545  0.8715  0.5433 -0.1105
 3206SOL     OW 9937   3.606   5.273   0.559  0.0909  0.0344 -0.4035
 3206SOL    HW1 9938   3.646   5.207   0.495 -0.4751  1.3776 -2.2239
 3206SOL    HW2 9939   3.507   5.275   0.547 -0.2960 -1.1039  1.9713
 3207SOL     OW 9940   3.591   4.647  -0.023  0.1367 -0.1659  0.2325
 3207SOL    HW1 9941   3.495   4.644  -0.050  0.0019 -0.6668  0.7357
 3207SOL    HW2 9942   3.597   4.661   0.076  0.5381 -1.6883  0.4536
 3208SOL     OW 9943   1.940   3.605   1.342 -0.1204 -0.4223 -0.0748
 3208SOL    HW1 9944   1.870   3.676   1.342 -0.1566 -0.3812 -2.3893
 3208SOL    HW2 9945   1.901   3.519   1.377  0.0039  0.6469  3.0315
 3209SOL     OW 9946   1.866   3.362   1.446  0.4317 -0.3034  0.0333
 3209SOL    HW1 9947   1.773   3.399   1.452 -0.7245 -2.6182 -1.8300
 3209SOL    HW2 9948   1.875   3.283   1.506  1.2673 -0.0127  0.3052
 3210SOL     OW 9949   2.217   4.209   1.096 -0.0281  0.4238 -0.2663
 3210SOL    HW1 9950   2.200   4.154   1.015 -0.2324  0.3146 -0.1506
 3210SOL    HW2 9951   2.217   4.306   1.071 -1.7364  0.4939 -0.1369
 3211SOL     OW 9952   1.482   4.291   0.319 -0.0719 -0.5937  0.1706
 3211SOL    HW1 9953   1.441   4.358   0.381  2.0339  1.1421 -0.2013
 3211SOL    HW2 9954   1.504   4.334   0.232  1.6173 -1.6705  0.0083
 3212SOL     OW 9955   4.446   3.830   0.481  0.5505  0.4544 -0.5662
 3212SOL    HW1 9956   4.360   3.833   0.532  0.1191  0.4385 -1.2850
 3212SOL    HW2 9957   4.497   3.747   0.505  0.7796  0.8915  0.5095
 3213SOL     OW 9958   1.323   5.034   2.458  0.4182  0.0248 -0.0677
 3213SOL    HW1 9959   1.328   5.000   2.552 -0.6039  0.1234  0.0366
 3213SOL    HW2 9960   1.372   4.971   2.398  2.3477  0.7265  0.7077
 3214SOL     OW 9961   1.656   3.338   0.926 -0.4606  0.0614 -0.2406
 3214SOL    HW1 9962   1.723   3.265   0.911 -1.0199 -0.5094  0.0132
 3214SOL    HW2 9963   1.702   3.418   0.965 -0.2071 -0.9346  1.6231
 3215SOL     OW 9964   3.739   5.430   0.721 -0.2907 -0.4218  0.0568
 3215SOL    HW1 9965   3.692   5.377   0.650  0.3560 -0.9355  0.0090
 3215SOL    HW2 9966   3.671   5.466   0.785 -0.8602 -0.1587 -0.6735
 3216SOL     OW 9967   2.032   4.094   0.280 -0.2269  0.2253 -0.2492
 3216SOL    HW1 9968   2.067   4.187   0.292 -2.1105  0.7169  1.9582
 3216SOL    HW2 9969   1.938   4.098   0.246  0.1094 -0.9333 -1.3727
 3217SOL     OW 9970   2.203   5.240   2.527 -0.3841 -0.5858  0.5698
 3217SOL    HW1 9971   2.125   5.276   2.475 -0.6285 -2.2328 -0.2454
 3217SOL    HW2 9972   2.274   5.211   2.463  0.5662  0.1152  1.2870
 3218SOL     OW 9973   4.380   5.007   0.908  0.2144  0.4435  0.2626
 3218SOL    HW1 9974   4.471   4.985   0.943  1.7969  0.9994 -3.0874
 3218SOL    HW2 9975   4.311   4.962   0.965  2.5715 -0.8600  2.3292
 3219SOL     OW 9976   3.502   4.459   4.807 -0.1331 -0.2286 -0.1188
 3219SOL    HW1 9977   3.517   4.378   4.864 -2.9737 -1.1286 -0.5314
 3219SOL    HW2 9978   3.589   4.507   4.795  1.6483 -3.1748  0.1255
 3220SOL     OW 9979   3.677   5.312   5.296 -0.2171  0.4571 -0.4994
 3220SOL    HW1 9980   3.707   5.397   5.337  0.6530 -0.7583  1.5308
 3220SOL    HW2 9981   3.582   5.293   5.323 -0.0123  0.2031  0.0517
 3221SOL     OW 9982   3.624   4.892   0.832  0.1970  0.2127 -0.0817
 3221SOL    HW1 9983   3.626   4.801   0.789  0.4416  0.1723  0.0084
 3221SOL    HW2 9984   3.533   4.931   0.823  0.8057  1.2353 -2.8223
 3222SOL     OW 9985   1.693   5.124   0.187  0.1329  0.3054  0.4237
 3222SOL    HW1 9986   1.729   5.031   0.183  1.7355  0.9417 -2.3631
 3222SOL    HW2 9987   1.768   5.189   0.197 -0.9045  1.3840  1.6052
 3223SOL     OW 9988   2.638   5.272   0.806 -0.6953 -0.4376 -0.3915
 3223SOL    HW1 9989   2.569   5.287   0.734 -1.1888 -2.3198 -0.3711
 3223SOL    HW2 9990   2.727   5.305   0.774 -1.8082  3.9474  0.3417
 3224SOL     OW 9991   2.582   4.236   5.371 -0.1371  0.2312  0.5250
 3224SOL    HW1 9992   2.665   4.292   5.379 -0.1501  0.5147 -1.0656
 3224SOL    HW2 9993   2.537   4.231   5.461  1.3067  0.5004  1.2968
 3225SOL     OW 9994   4.029   3.974   0.446  0.2188  0.6197  0.3538
 3225SOL    HW1 9995   3.932   3.952   0.461  0.6018  0.3209  2.7508
 3225SOL    HW2 9996   4.084   3.935   0.519  2.2134  0.6990 -1.0196
 3226SOL     OW 9997   4.564   0.336   0.163 -0.3512  0.0384 -0.2951
 3226SOL    HW1 9998   4.566   0.393   0.246  1.4191 -1.3109  0.6574
 3226SOL    HW2 9999   4.625   0.258   0.175 -2.1273 -1.6851 -1.8536
 3227SOL     OW10000   1.544   5.516   1.978 -0.3615 -0.0715  0.7467
 3227SOL    HW110001   1.610   5.476   2.041  0.0728  2.1270  1.7689
 3227SOL    HW210002   1.490   5.443   1.935  2.6489 -1.9716 -0.1083
 3228SOL     OW10003   2.809   3.126   1.023  0.7376  0.4858 -0.5113
 3228SOL    HW110004   2.829   3.215   1.064 -0.6394  1.0444 -0.9963
 3228SOL    HW210005   2.861   3.115   0.939 -0.7623  1.8545 -1.6864
 3229SOL     OW10006   2.368   0.388   1.620  0.1983 -0.6842 -0.2259
 3229SOL    HW110007   2.278   0.361   1.655 -0.2358 -1.1831 -1.6681
 3229SOL    HW210008   2.439   0.351   1.680 -0.5229 -0.9132  0.5148
 3230SOL     OW10009   2.620   5.486   5.432  0.1882 -0.0316  0.7639
 3230SOL    HW110010   2.685   5.513   5.503 -0.6344 -0.4049  1.6790
 3230SOL    HW210011   2.527   5.502   5.464 -0.2848 -2.2586  0.6723
 3231SOL     OW10012   2.432   0.614   1.784 -0.5899  0.0271 -0.1848
 3231SOL    HW110013   2.450   0.535   1.725  0.0399  0.7463 -0.9747
 3231SOL    HW210014   2.515   0.637   1.835 -1.1826 -0.7112  1.1596
 3232SOL     OW10015   2.876   4.361   1.687 -0.0628  0.6735  0.4486
 3232SOL    HW110016   2.857   4.374   1.784  0.4287  0.0568  0.6358
 3232SOL    HW210017   2.967   4.397   1.666 -0.5714  1.7308 -0.0035
 3233SOL     OW10018   2.070   3.600   5.236  0.0207 -0.8870  0.5181
 3233SOL    HW110019   1.971   3.606   5.244  0.2060  1.7267  2.4074
 3233SOL    HW210020   2.098   3.611   5.141 -1.4398  1.5388  0.2996
 3234SOL     OW10021   4.124   0.016   0.855  0.2254 -0.2712 -0.1054
 3234SOL    HW110022   4.154   0.085   0.789  0.4069 -0.4437 -0.2052
 3234SOL    HW210023   4.137   0.052   0.948 -0.6682  0.2374 -0.1605
 3235SOL     OW10024   2.480   5.434   1.190  0.4352 -0.0504  0.2563
 3235SOL    HW110025   2.476   5.466   1.285  1.5959  0.0956  0.2732
 3235SOL    HW210026   2.457   5.336   1.187 -0.0637  0.0487  0.6141
 3236SOL     OW10027   2.454   4.893   0.092 -0.4075 -0.2948  0.3274
 3236SOL    HW110028   2.400   4.829   0.038  1.3005 -1.8187  0.3327
 3236SOL    HW210029   2.445   4.871   0.189  1.7040 -1.9033  0.2375
 3237SOL     OW10030   2.954   0.133   0.285 -0.1757 -0.5211 -0.1213
 3237SOL    HW110031   2.992   0.132   0.193 -0.6653  0.5174 -0.3428
 3237SOL    HW210032   3.028   0.121   0.351  0.2721 -0.5704 -0.6218
 3238SOL     OW10033   1.189   5.176   0.142 -0.4961 -0.1772  0.0686
 3238SOL    HW110034   1.224   5.101   0.199 -0.3507 -0.0027  0.2067
 3238SOL    HW210035   1.129   5.138   0.071 -0.5020 -0.4162  0.2005
 3239SOL     OW10036   1.626   5.430   1.495 -0.8851 -0.3186 -0.9278
 3239SOL    HW110037   1.713   5.382   1.485 -0.4475 -0.0989  1.2978
 3239SOL    HW210038   1.564   5.376   1.553 -1.4040  0.5324 -0.6649
 3240SOL     OW10039   2.410   5.173   0.237 -0.3411  0.3653  0.2468
 3240SOL    HW110040   2.459   5.251   0.277 -0.2477  0.1961  0.4675
 3240SOL    HW210041   2.466   5.134   0.164  0.6158 -0.8241  1.5557
 3241SOL     OW10042   3.406   2.898   1.091  0.1749  0.2505  0.1232
 3241SOL    HW110043   3.318   2.891   1.042 -0.0933 -0.0624  0.6438
 3241SOL    HW210044   3.480   2.900   1.025 -0.3549  4.0342 -0.5747
 3242SOL     OW10045   1.420   4.819   0.062 -0.2591 -0.2705  0.1232
 3242SOL    HW110046   1.352   4.752   0.031  1.6377 -1.3858 -1.9380
 3242SOL    HW210047   1.417   4.899   0.003  1.1047 -0.9331 -0.8876
 3243SOL     OW10048   3.559   3.823   2.974  0.6281  0.2124 -0.0652
 3243SOL    HW110049   3.616   3.837   2.892  2.2008  0.5834  1.0417
 3243SOL    HW210050   3.593   3.881   3.048  0.8073 -1.9173  1.5955
 3244SOL     OW10051   2.574   4.989   5.207  0.2191 -0.2219 -0.7068
 3244SOL    HW110052   2.479   4.990   5.175  0.4003 -1.5541 -1.3618
 3244SOL    HW210053   2.633   4.954   5.134  0.7396 -2.8176  0.8337
 3245SOL     OW10054   3.365   4.977   0.758  0.6675 -0.1408  0.7372
 3245SOL    HW110055   3.375   4.979   0.658  0.2396 -0.4173  0.6827
 3245SOL    HW210056   3.355   5.070   0.792 -0.6528 -0.1073  0.3471
 3246SOL     OW10057   2.057   3.011   0.676  0.4722  0.0472 -0.0891
 3246SOL    HW110058   2.044   2.953   0.595  0.6440  1.0967 -0.8975
 3246SOL    HW210059   1.973   3.013   0.730 -0.8410  1.9484 -2.0312
 3247SOL     OW10060   1.352   4.043   0.293 -0.3690 -0.1706 -0.5616
 3247SOL    HW110061   1.400   4.130   0.303  2.4748 -1.5181 -1.4625
 3247SOL    HW210062   1.323   4.033   0.198  0.2922 -0.6481 -0.7201
 3248SOL     OW10063   3.669   4.579   1.594  0.5802 -0.6847 -0.9548
 3248SOL    HW110064   3.733   4.505   1.576  2.5043  0.5405  0.5348
 3248SOL    HW210065   3.659   4.636   1.512  0.2464 -1.7002 -1.6326
 3249SOL     OW10066   1.678   4.752   0.330  0.4181 -0.1740  0.1634
 3249SOL    HW110067   1.753   4.810   0.302  1.3874 -1.9539 -1.1043
 3249SOL    HW210068   1.627   4.721   0.250 -1.0234  0.1052  0.9213
 3250SOL     OW10069   3.356   4.165   0.329  0.0665  0.2601  0.3801
 3250SOL    HW110070   3.455   4.151   0.319  0.3576 -0.7392  3.4390
 3250SOL    HW210071   3.313   4.078   0.353 -1.4764  0.8063 -0.2975
 3251SOL     OW10072   3.234   4.740   2.124  0.2012 -0.6577  0.3204
 3251SOL    HW110073   3.191   4.830   2.121  0.0442 -0.7450 -0.1740
 3251SOL    HW210074   3.331   4.748   2.101 -0.2059 -0.8393 -1.6766
 3252SOL     OW10075   2.997   1.119   1.225 -0.2224 -0.3021  0.0736
 3252SOL    HW110076   2.974   1.163   1.139 -0.3577  1.0466  0.7773
 3252SOL    HW210077   3.083   1.069   1.215 -0.2630 -0.1991 -0.8403
 3253SOL     OW10078   2.140   4.846   1.355  0.1954 -0.0741  0.1742
 3253SOL    HW110079   2.142   4.770   1.421 -0.4138 -0.6838 -0.4901
 3253SOL    HW210080   2.226   4.896   1.359  0.1547 -0.0812  1.4558
 3254SOL     OW10081   2.798   4.278   2.122  0.6286  0.1620  0.3641
 3254SOL    HW110082   2.860   4.276   2.200 -1.3756 -0.1637  2.0188
 3254SOL    HW210083   2.706   4.252   2.151 -0.3406  0.6886 -1.9818
 3255SOL     OW10084   1.214   0.923   2.025 -0.1457 -0.1801  0.8535
 3255SOL    HW110085   1.301   0.889   1.989 -0.5236 -0.4881  0.2100
 3255SOL    HW210086   1.140   0.864   1.993 -0.5760 -0.0060  1.5210
 3256SOL     OW10087   4.207   4.511   1.261 -0.1214 -0.6389  0.4085
 3256SOL    HW110088   4.272   4.444   1.225  1.4415  0.9314  0.1289
 3256SOL    HW210089   4.211   4.510   1.361 -0.1777 -1.0180  0.4091
 3257SOL     OW10090   3.728   4.640   0.246 -0.4226  0.6466  0.0674
 3257SOL    HW110091   3.671   4.617   0.324 -1.3723 -1.0371 -1.0471
 3257SOL    HW210092   3.802   4.573   0.238 -1.1912 -0.0979 -1.2551
 3258SOL     OW10093   2.152   4.762   4.664 -0.1929  0.2032  0.3488
 3258SOL    HW110094   2.206   4.679   4.667  2.0573  1.5681  0.0710
 3258SOL    HW210095   2.118   4.783   4.756  1.2349  0.2127  0.8935
 3259SOL     OW10096   3.522   3.760   1.954 -0.6615  0.0476  0.2602
 3259SOL    HW110097   3.576   3.679   1.976 -0.6623 -0.0269 -0.0030
 3259SOL    HW210098   3.582   3.830   1.916 -1.0106 -0.7555 -1.9427
 3260SOL     OW10099   4.133   4.307   1.797  0.0651 -0.9202 -0.4123
 3260SOL    HW110100   4.175   4.266   1.716 -0.9645  0.7688 -1.8872
 3260SOL    HW210101   4.200   4.315   1.869  0.3041 -5.2920  0.1127
 3261SOL     OW10102   2.713   0.443   0.811 -0.1152  0.6268  0.6860
 3261SOL    HW110103   2.745   0.400   0.896 -0.3963  1.5808  1.2838
 3261SOL    HW210104   2.785   0.502   0.774 -0.5844  1.5272  1.1758
 3262SOL     OW10105   3.148   0.420   0.345  0.2640 -0.0823 -0.0387
 3262SOL    HW110106   3.187   0.368   0.269  0.1499  1.5394 -1.2425
 3262SOL    HW210107   3.221   0.466   0.395  0.1463  1.0015 -0.8244
 3263SOL     OW10108   2.910   4.023   1.044 -0.3334 -0.2873 -0.4594
 3263SOL    HW110109   2.832   4.002   1.104  1.5495 -0.1458  2.2232
 3263SOL    HW210110   2.888   4.102   0.987 -2.0557 -0.0952  0.4063
 3264SOL     OW10111   3.480   5.523   0.828 -0.3677 -0.6053  0.0054
 3264SOL    HW110112   3.410   5.583   0.789 -0.9784 -1.8504 -0.8745
 3264SOL    HW210113   3.490   5.543   0.926 -1.6508 -0.1259  0.0578
 3265SOL     OW10114   2.944   0.248   2.290  0.4420  0.0007 -0.1741
 3265SOL    HW110115   2.986   0.281   2.375 -0.2490 -2.8870  1.3909
 3265SOL    HW210116   2.981   0.301   2.213  2.6275  1.3686  1.6658
 3266SOL     OW10117   1.418   0.173   1.756  0.3619 -0.3004 -0.1949
 3266SOL    HW110118   1.429   0.154   1.854  1.8334  0.3520 -0.2154
 3266SOL    HW210119   1.507   0.193   1.716 -0.1029 -1.4196 -1.8681
 3267SOL     OW10120   3.291   4.178   1.291 -0.1464  0.5364  0.0091
 3267SOL    HW110121   3.311   4.254   1.353  2.2273  1.2553 -1.4851
 3267SOL    HW210122   3.245   4.213   1.209 -1.6663 -0.1386  0.5368
 3268SOL     OW10123   2.195   0.676   1.188 -0.4370 -0.0324  0.4532
 3268SOL    HW110124   2.283   0.657   1.231  0.0989  0.7807 -0.2570
 3268SOL    HW210125   2.121   0.660   1.254  0.2193 -0.8922  0.9980
 3269SOL     OW10126   3.219   3.444   1.131  0.0782 -0.0134  0.0229
 3269SOL    HW110127   3.169   3.370   1.085 -0.2266  0.2871 -0.1381
 3269SOL    HW210128   3.188   3.532   1.094  1.4054  0.1479 -0.7691
 3270SOL     OW10129   2.773   2.630   1.028 -0.7715  0.3447 -0.1700
 3270SOL    HW110130   2.741   2.725   1.030 -0.4118  0.4614  0.2623
 3270SOL    HW210131   2.792   2.599   1.121 -0.1036  0.1228 -0.3732
 3271SOL     OW10132   3.782   5.126   2.156  0.9336 -0.0905 -0.5645
 3271SOL    HW110133   3.804   5.154   2.250 -0.9928 -0.7503  0.1400
 3271SOL    HW210134   3.788   5.026   2.149 -0.1998 -0.1532 -0.7669
 3272SOL     OW10135   2.861   4.813   1.513  0.1400  0.1030 -0.1334
 3272SOL    HW110136   2.931   4.884   1.514  0.9223 -0.5446 -2.4388
 3272SOL    HW210137   2.775   4.851   1.481 -0.4128  0.7077  1.9006
 3273SOL     OW10138   3.013   0.500   1.128  0.1224  0.2106 -0.2802
 3273SOL    HW110139   3.089   0.507   1.064  0.3990 -1.6308 -0.1936
 3273SOL    HW210140   3.044   0.522   1.220  0.3454  0.2546 -0.3664
 3274SOL     OW10141   3.146   3.692   1.031 -0.5337  0.2284 -0.3163
 3274SOL    HW110142   3.063   3.683   1.087  1.1789  1.7501  2.7479
 3274SOL    HW210143   3.141   3.775   0.976 -1.1017  0.2269 -0.2700
 3275SOL     OW10144   2.652   3.666   0.859  0.3579  0.3292 -0.5865
 3275SOL    HW110145   2.648   3.569   0.880  2.9588  0.2541 -0.1781
 3275SOL    HW210146   2.737   3.687   0.811 -0.4168  2.3294 -1.1992
 3276SOL     OW10147   3.172   4.785   0.854 -0.9790  0.0051 -0.0344
 3276SOL    HW110148   3.242   4.842   0.810  0.2460 -0.4785  1.2065
 3276SOL    HW210149   3.120   4.736   0.784 -0.4221  0.7633 -1.0121
 3277SOL     OW10150   2.443   1.034   2.325  0.1022 -0.0548 -0.1592
 3277SOL    HW110151   2.442   1.133   2.307  1.5562 -0.1091 -0.6908
 3277SOL    HW210152   2.349   1.000   2.329 -0.4140  1.0887 -1.5498
 3278SOL     OW10153   2.608   3.455   5.506  0.0243  0.3865 -0.0542
 3278SOL    HW110154   2.707   3.443   5.521  0.3806  0.0291 -2.2381
 3278SOL    HW210155   2.594   3.512   5.425 -1.5752  0.1425  0.0267
 3279SOL     OW10156   3.624   2.796   0.519 -0.8114 -0.2987  0.0502
 3279SOL    HW110157   3.645   2.894   0.524  1.1133 -0.6602 -0.2357
 3279SOL    HW210158   3.552   2.774   0.585 -0.1471  1.0336  1.2762
 3280SOL     OW10159   2.452   3.803   1.281  0.2650  0.6629 -0.1417
 3280SOL    HW110160   2.378   3.756   1.233  0.3360  2.1343 -1.7981
 3280SOL    HW210161   2.447   3.781   1.379 -0.4593 -1.6814 -0.6307
 3281SOL     OW10162   1.635   0.215   0.210  0.2749 -0.0273  0.0086
 3281SOL    HW110163   1.717   0.270   0.215  0.5059 -0.4060  0.4940
 3281SOL    HW210164   1.640   0.154   0.131  0.7152 -0.4392  0.3473
 3282SOL     OW10165   2.063   5.019   0.470  0.0324 -0.7840 -0.7667
 3282SOL    HW110166   1.998   4.961   0.520  0.6744 -1.0773 -0.2625
 3282SOL    HW210167   2.052   5.114   0.499 -0.2733 -0.8054 -0.8009
 3283SOL     OW10168   2.165   5.320   0.749  0.0268  0.0383  0.1757
 3283SOL    HW110169   2.184   5.245   0.812 -1.1914  0.5310  1.1883
 3283SOL    HW210170   2.114   5.391   0.797 -1.1964  0.3111 -1.4170
 3284SOL     OW10171   2.206   4.638   0.671 -0.0733  0.0803  0.0104
 3284SOL    HW110172   2.222   4.734   0.695 -2.2663  0.2394  0.9973
 3284SOL    HW210173   2.234   4.623   0.576  0.3812  1.6689 -0.1372
 3285SOL     OW10174   2.670   5.280   1.599 -0.3226 -0.4713  0.1833
 3285SOL    HW110175   2.719   5.244   1.519 -1.1195 -1.2808  0.0466
 3285SOL    HW210176   2.619   5.362   1.572  0.3108 -0.0799  0.1438
 3286SOL     OW10177   2.083   3.874   2.792 -0.1477 -0.5158  0.5008
 3286SOL    HW110178   1.997   3.920   2.771  0.4580  0.2772 -0.3224
 3286SOL    HW210179   2.068   3.775   2.798 -1.6760 -0.2406  3.2354
 3287SOL     OW10180   3.080   5.543   2.604  0.2113 -0.0345 -0.0740
 3287SOL    HW110181   3.046   5.473   2.667  1.4169 -0.0948  0.5485
 3287SOL    HW210182   3.123   5.499   2.526 -0.4681  0.0353 -0.4934
 3288SOL     OW10183   3.194   4.989   2.066  0.1124  0.5982 -0.2334
 3288SOL    HW110184   3.173   5.029   1.977 -0.4970  1.4994  0.2997
 3288SOL    HW210185   3.165   5.051   2.138 -0.1827 -0.4968  0.6182
 3289SOL     OW10186   5.196   4.764   2.012  0.3385 -0.5524  0.1240
 3289SOL    HW110187   5.121   4.705   1.982  0.7899 -0.2260 -1.7742
 3289SOL    HW210188   5.182   4.791   2.108 -0.7239 -2.3755  0.5191
 3290SOL     OW10189   2.684   4.830   3.098  0.2421  0.3173 -0.1859
 3290SOL    HW110190   2.654   4.872   3.012  0.1704 -1.2462 -0.9656
 3290SOL    HW210191   2.731   4.744   3.078 -2.4217 -1.6757  1.4142
 3291SOL     OW10192   2.443   3.407   2.444  0.2331  0.1606  0.4864
 3291SOL    HW110193   2.462   3.312   2.420  1.9324  0.5138  0.3398
 3291SOL    HW210194   2.514   3.466   2.406 -1.3147  1.6258 -0.2525
 3292SOL     OW10195   2.017   4.815   2.202  0.8595  0.9575  0.2542
 3292SOL    HW110196   1.974   4.772   2.123  1.9164  0.6194 -0.1591
 3292SOL    HW210197   1.992   4.912   2.205 -1.8190  0.3355  1.3844
 3293SOL     OW10198   2.570   0.156   3.424  0.5638 -0.1036  0.1702
 3293SOL    HW110199   2.626   0.240   3.424  1.0766 -0.4354  0.8451
 3293SOL    HW210200   2.504   0.160   3.499  0.5609 -0.2935  0.1775
 3294SOL     OW10201   1.036   5.143   2.998 -0.1112  0.1628 -0.7045
 3294SOL    HW110202   1.057   5.120   3.093  1.7407  0.9434 -0.8826
 3294SOL    HW210203   1.121   5.152   2.946 -1.0472  0.7058 -2.2083
 3295SOL     OW10204   3.533   0.683   3.510 -0.0203 -0.0563 -0.3567
 3295SOL    HW110205   3.494   0.594   3.531  2.2840 -0.9654  0.4432
 3295SOL    HW210206   3.485   0.754   3.561 -2.5022 -0.6437 -1.7145
 3296SOL     OW10207   1.859   3.105   2.552  0.8036 -0.6696 -0.1208
 3296SOL    HW110208   1.829   3.154   2.634 -0.5749 -1.2959 -0.2161
 3296SOL    HW210209   1.941   3.148   2.516 -0.4263  1.7238 -0.2945
 3297SOL     OW10210   2.934   5.193   3.386  0.0792 -0.1587  0.0099
 3297SOL    HW110211   2.929   5.119   3.318  0.2537 -1.4200  1.3255
 3297SOL    HW210212   3.014   5.250   3.366  0.1522 -0.5253 -0.8064
 3298SOL     OW10213   1.286   0.465   1.214  0.0786  0.2689 -0.1404
 3298SOL    HW110214   1.377   0.503   1.196  1.4045 -1.7361  1.7704
 3298SOL    HW210215   1.273   0.454   1.313 -0.7170 -2.8123 -0.4748
 3299SOL     OW10216   1.771   5.208   2.045 -0.1490 -0.2200  0.2791
 3299SOL    HW110217   1.805   5.227   1.953 -0.2252  0.1963  0.3325
 3299SOL    HW210218   1.773   5.292   2.099  0.0242 -0.4909  0.7028
 3300SOL     OW10219   1.393   4.957   2.705  0.1975 -0.2962  0.2250
 3300SOL    HW110220   1.362   4.879   2.760  0.5549  0.1392  1.0594
 3300SOL    HW210221   1.344   5.039   2.733 -0.7395 -0.3411 -1.1838
 3301SOL     OW10222   1.718   5.183   3.656 -0.0371 -0.1268 -0.5330
 3301SOL    HW110223   1.663   5.196   3.574  0.1187  1.5938 -0.3908
 3301SOL    HW210224   1.811   5.216   3.639  0.2133 -0.5033  0.0832
 3302SOL     OW10225   2.113   0.195   3.602  0.1160  0.0329 -0.1054
 3302SOL    HW110226   2.128   0.186   3.504  1.1954  0.7911 -0.0169
 3302SOL    HW210227   2.015   0.201   3.620 -0.1087 -0.4571 -1.1000
 3303SOL     OW10228   1.551   5.053   3.474  0.3491 -0.3284  0.8120
 3303SOL    HW110229   1.520   4.965   3.438 -0.9951  0.0203  1.0921
 3303SOL    HW210230   1.474   5.104   3.511  0.6846  2.0042 -1.4340
 3304SOL     OW10231   3.142   5.239   2.692 -0.0677 -0.1252  0.2121
 3304SOL    HW110232   3.167   5.258   2.787 -0.6010 -1.3422  0.6195
 3304SOL    HW210233   3.204   5.170   2.655 -2.8028 -3.4770  1.3575
 3305SOL     OW10234   2.660   4.532   1.571 -0.2192 -0.5951  0.4613
 3305SOL    HW110235   2.700   4.622   1.550 -0.1192 -0.9528 -1.0014
 3305SOL    HW210236   2.734   4.465   1.583 -0.3138 -0.7043  0.4365
 3306SOL     OW10237   4.534   5.174   3.222  0.3892 -0.5300  0.2494
 3306SOL    HW110238   4.603   5.227   3.270 -1.0433 -1.3315  3.4229
 3306SOL    HW210239   4.528   5.083   3.262 -0.8236 -1.3204 -1.6062
 3307SOL     OW10240   1.291   0.054   2.305  0.3876  0.3038 -0.2935
 3307SOL    HW110241   1.311  -0.043   2.293  0.0273  0.0109  1.2781
 3307SOL    HW210242   1.212   0.079   2.248  0.4039 -0.3549 -0.6135
 3308SOL     OW10243   2.517   5.175   3.154 -0.0244 -0.1898  0.4248
 3308SOL    HW110244   2.583   5.184   3.230  0.1338 -2.2792  0.6069
 3308SOL    HW210245   2.424   5.173   3.191 -0.1243  1.2448  0.3047
 3309SOL     OW10246   4.734   4.487   3.360 -0.4887 -0.7211 -0.6210
 3309SOL    HW110247   4.813   4.500   3.300 -0.9697  0.5239 -1.0087
 3309SOL    HW210248   4.765   4.453   3.449  0.3271 -1.6768 -1.2348
 3310SOL     OW10249   1.313   4.205   2.135  0.1910  0.3523 -0.1217
 3310SOL    HW110250   1.309   4.212   2.235 -0.6634  0.1576 -0.1361
 3310SOL    HW210251   1.247   4.137   2.104  0.9409 -0.0911 -0.7762
 3311SOL     OW10252   3.237   5.455   2.396 -0.1440  0.0031  0.2352
 3311SOL    HW110253   3.270   5.369   2.357 -0.1851 -0.2830  0.8255
 3311SOL    HW210254   3.259   5.530   2.333  2.7498  0.0195  1.1251
 3312SOL     OW10255   2.815   5.482   2.215 -0.6634 -0.1352 -0.3570
 3312SOL    HW110256   2.793   5.463   2.119  1.1770  0.1638 -0.8795
 3312SOL    HW210257   2.866   5.405   2.253  1.0591  0.8955 -0.4930
 3313SOL     OW10258   2.560   5.117   1.811 -0.2015  0.2880  0.5194
 3313SOL    HW110259   2.616   5.151   1.736 -0.4592 -2.2224 -0.9210
 3313SOL    HW210260   2.620   5.084   1.884  0.3257 -1.9435 -0.8135
 3314SOL     OW10261   1.412   4.929   3.840 -0.3117 -0.8431 -0.0148
 3314SOL    HW110262   1.328   4.916   3.788  0.5032  0.2947 -1.6922
 3314SOL    HW210263   1.491   4.918   3.780  0.6922  0.1141  1.0719
 3315SOL     OW10264   2.671   0.666   1.917  0.4244 -0.0718  0.2355
 3315SOL    HW110265   2.670   0.596   1.989 -0.6526 -1.6002 -1.2062
 3315SOL    HW210266   2.740   0.641   1.848 -1.0575 -0.6325 -1.1044
 3316SOL     OW10267   2.784   5.346   3.891 -0.2112  0.0767  0.0480
 3316SOL    HW110268   2.824   5.268   3.939 -1.4014  0.1426  1.2009
 3316SOL    HW210269   2.806   5.340   3.794 -3.0271 -3.6223 -0.6187
 3317SOL     OW10270   2.834   4.105   4.015 -0.8098 -0.3960  0.7146
 3317SOL    HW110271   2.815   4.178   4.081 -3.1857 -2.5725  2.6768
 3317SOL    HW210272   2.854   4.020   4.065 -1.6099 -1.8956 -1.3745
 3318SOL     OW10273   3.360   0.228   3.333  0.0995  0.2633  0.2400
 3318SOL    HW110274   3.362   0.221   3.433  2.1313 -0.5752  0.1876
 3318SOL    HW210275   3.344   0.138   3.293 -0.2567  0.5195 -0.2198
 3319SOL     OW10276   4.697   0.586   3.281 -0.0811  0.2622  0.5695
 3319SOL    HW110277   4.765   0.657   3.260  0.7505 -0.7796 -0.4104
 3319SOL    HW210278   4.621   0.627   3.331  0.4459  1.8052  0.1811
 3320SOL     OW10279   2.820   4.635   1.028  0.1348 -0.5245  0.5369
 3320SOL    HW110280   2.735   4.687   1.029  0.7295  0.4694  0.3076
 3320SOL    HW210281   2.799   4.538   1.040 -0.9848 -0.2447  0.9924
 3321SOL     OW10282   4.234   3.879   2.353 -0.2583 -0.1663  0.0347
 3321SOL    HW110283   4.330   3.901   2.367 -0.2444  0.8534 -1.4360
 3321SOL    HW210284   4.221   3.780   2.357  0.5220 -0.2363  1.9862
 3322SOL     OW10285   3.575   4.903   1.780 -0.8172  0.6773  0.0667
 3322SOL    HW110286   3.543   4.926   1.872  0.8133 -1.3210  1.2043
 3322SOL    HW210287   3.526   4.822   1.746 -0.3277  0.4720 -0.1655
 3323SOL     OW10288   2.437   3.624   3.199  0.0447 -0.2076 -0.0815
 3323SOL    HW110289   2.370   3.561   3.240 -0.1814 -0.1230 -0.3227
 3323SOL    HW210290   2.485   3.578   3.125 -1.2131  0.3916 -1.2953
 3324SOL     OW10291   2.338   3.936   2.769  0.4504  0.3422 -0.1326
 3324SOL    HW110292   2.245   3.900   2.780  0.5688  0.5446  2.0348
 3324SOL    HW210293   2.334   4.034   2.749  0.1919  0.2635 -0.4656
 3325SOL     OW10294   2.349   0.562   3.334 -0.1583  0.2438  0.1150
 3325SOL    HW110295   2.290   0.635   3.367 -0.9667  0.4286 -1.6393
 3325SOL    HW210296   2.294   0.483   3.308  0.6397 -0.7117  1.2280
 3326SOL     OW10297   3.799   4.763   2.436 -0.2865 -0.3415 -0.2159
 3326SOL    HW110298   3.802   4.670   2.399  0.2384  0.4279 -2.2600
 3326SOL    HW210299   3.891   4.791   2.462 -0.5629 -0.6506  1.1653
 3327SOL     OW10300   2.090   5.147   2.775  0.1870 -0.4340  0.1814
 3327SOL    HW110301   2.097   5.187   2.684  1.7731 -0.6707  0.1661
 3327SOL    HW210302   2.149   5.066   2.780  0.6767 -0.0151  1.6252
 3328SOL     OW10303   1.757   4.808   3.876 -0.4509  0.4598 -0.6333
 3328SOL    HW110304   1.712   4.804   3.787  1.0509 -2.6700 -1.4258
 3328SOL    HW210305   1.786   4.902   3.895 -0.1321  1.1452 -3.8324
 3329SOL     OW10306   2.160   3.677   0.727 -0.3706 -0.2549 -0.0485
 3329SOL    HW110307   2.238   3.697   0.667 -0.6306  0.0034 -0.3067
 3329SOL    HW210308   2.114   3.594   0.696 -1.0765  0.3932 -0.8043
 3330SOL     OW10309   4.067   3.669   3.494  0.3053  0.3789  0.4984
 3330SOL    HW110310   4.142   3.733   3.501  0.4950  0.3381 -0.8115
 3330SOL    HW210311   3.999   3.704   3.430  0.0807 -0.3999  0.2906
 3331SOL     OW10312   3.989   5.413   1.572 -0.0868  0.0159 -0.0628
 3331SOL    HW110313   4.017   5.325   1.610  1.7440 -0.1451 -1.6234
 3331SOL    HW210314   3.908   5.401   1.516 -0.4420 -0.4720  0.5420
 3332SOL     OW10315   3.113   3.827   2.476  1.0092 -0.1179 -0.4416
 3332SOL    HW110316   3.154   3.760   2.537  1.0664 -0.7057 -1.1119
 3332SOL    HW210317   3.179   3.851   2.404  0.9240  0.5206 -0.3122
 3333SOL     OW10318   3.569   4.834   2.267 -0.0623 -0.1868  0.2312
 3333SOL    HW110319   3.647   4.853   2.207 -0.0371  0.5286  0.4829
 3333SOL    HW210320   3.601   4.794   2.353  0.1155  0.9535  0.7026
 3334SOL     OW10321   2.000   0.266   3.924  0.1454  0.4197 -0.2413
 3334SOL    HW110322   2.029   0.354   3.962  0.5698 -0.6713  2.1866
 3334SOL    HW210323   2.067   0.196   3.949 -0.8148 -0.8223 -1.0300
 3335SOL     OW10324   3.702   4.926   2.651  0.1091  0.0403  0.7326
 3335SOL    HW110325   3.612   4.904   2.689 -0.0249  2.2410  1.8425
 3335SOL    HW210326   3.727   4.857   2.583 -2.1053 -0.9850  0.8681
 3336SOL     OW10327   2.462   4.248   2.889 -0.1237  0.3825 -0.1105
 3336SOL    HW110328   2.418   4.243   2.799 -1.6793  1.1321  0.5749
 3336SOL    HW210329   2.474   4.344   2.915  0.2719  0.1711  0.5075
 3337SOL     OW10330   2.760   4.721   2.471  0.7918  0.2775  0.0133
 3337SOL    HW110331   2.732   4.686   2.382  0.6057  0.1581  0.1178
 3337SOL    HW210332   2.769   4.645   2.535  2.1856  0.2094 -0.2319
 3338SOL     OW10333   2.904   4.955   3.813  0.4516 -0.0720 -0.6571
 3338SOL    HW110334   2.905   4.968   3.713 -1.0435 -0.0088 -0.6872
 3338SOL    HW210335   2.946   4.866   3.835 -0.1445 -0.5659 -1.4377
 3339SOL     OW10336   4.420   4.514   1.808  0.2021 -0.1423 -0.6243
 3339SOL    HW110337   4.421   4.465   1.720 -1.1052 -1.0764 -0.1498
 3339SOL    HW210338   4.513   4.541   1.832  0.4623  1.2218 -2.8858
 3340SOL     OW10339   2.318   4.133   3.113  0.2214  0.1225 -0.1614
 3340SOL    HW110340   2.349   4.049   3.158  0.9274 -0.0509 -0.9368
 3340SOL    HW210341   2.388   4.163   3.048  0.0744  1.4483  0.2708
 3341SOL     OW10342   4.088   0.476   2.471 -0.4121 -0.1649  0.0025
 3341SOL    HW110343   4.029   0.446   2.546 -0.3893 -1.1326 -0.3423
 3341SOL    HW210344   4.076   0.414   2.393  0.3495  0.1960 -0.4169
 3342SOL     OW10345   1.723   5.314   3.082 -0.0749 -0.2853  0.2232
 3342SOL    HW110346   1.648   5.357   3.132 -1.5736 -2.8468  0.3850
 3342SOL    HW210347   1.810   5.341   3.122 -1.0333  0.8626  1.6282
 3343SOL     OW10348   4.105   4.428   2.694 -0.6220 -0.3335  0.3825
 3343SOL    HW110349   4.128   4.461   2.602  0.7912  0.6997  1.0698
 3343SOL    HW210350   4.080   4.331   2.689  2.6996 -1.2567 -0.6952
 3344SOL     OW10351   2.430   0.116   4.105 -0.4071 -0.0449  0.2031
 3344SOL    HW110352   2.435   0.051   4.181  1.7444  0.4359  0.5162
 3344SOL    HW210353   2.475   0.201   4.131 -0.8068  0.6089 -1.1614
 3345SOL     OW10354   0.922   0.890   3.176  0.0915  0.1747 -0.3060
 3345SOL    HW110355   1.017   0.919   3.170  0.0007  0.4476 -0.4171
 3345SOL    HW210356   0.865   0.949   3.119 -0.1000 -0.1862 -0.4970
 3346SOL     OW10357   2.394   4.518   1.554 -0.5923 -0.1436  0.6927
 3346SOL    HW110358   2.367   4.469   1.471 -2.2760 -0.2547  1.2538
 3346SOL    HW210359   2.493   4.514   1.565 -0.3862 -0.5407 -1.0392
 3347SOL     OW10360   2.109   4.095   2.956  0.2588 -0.0767 -0.5298
 3347SOL    HW110361   2.099   4.021   2.889  1.0864  1.4521 -2.4188
 3347SOL    HW210362   2.199   4.090   2.998  0.1098 -0.4497 -0.2480
 3348SOL     OW10363   3.264   3.837   1.883  0.4687  0.4207 -0.0791
 3348SOL    HW110364   3.182   3.804   1.930 -0.0139  2.4171  0.5636
 3348SOL    HW210365   3.343   3.784   1.914 -0.2268 -0.0222  1.0138
 3349SOL     OW10366   2.443   4.360   4.020 -0.0047 -0.7984  0.5776
 3349SOL    HW110367   2.521   4.394   3.967  1.2075 -2.0259  1.5182
 3349SOL    HW210368   2.444   4.400   4.111 -1.7290  0.8170 -0.0372
 3350SOL     OW10369   3.205   5.332   2.942 -0.0886 -0.5208  0.2962
 3350SOL    HW110370   3.205   5.350   3.040  2.7265 -0.8634  0.4467
 3350SOL    HW210371   3.186   5.417   2.893 -4.4168 -0.8300  1.0041
 3351SOL     OW10372   3.340   5.097   3.398  0.0915 -0.1688  0.0809
 3351SOL    HW110373   3.300   5.007   3.379  1.8320 -1.2748  1.3083
 3351SOL    HW210374   3.404   5.122   3.326 -1.4087  0.7890 -0.9795
 3352SOL     OW10375   2.385   4.887   2.460 -0.1361 -0.1111  0.0491
 3352SOL    HW110376   2.389   4.954   2.385 -0.3131 -0.4118 -0.2313
 3352SOL    HW210377   2.290   4.871   2.485 -0.1749 -1.2053 -0.7461
 3353SOL     OW10378   2.754   3.775   2.727  0.6752 -0.5317 -0.0342
 3353SOL    HW110379   2.727   3.708   2.797  0.0351  0.0596  0.3003
 3353SOL    HW210380   2.684   3.777   2.656  0.6991 -0.2272 -0.0478
 3354SOL     OW10381   2.161   4.765   2.865  0.2737 -0.6067 -0.2145
 3354SOL    HW110382   2.165   4.791   2.961 -0.3239 -1.0545 -0.0651
 3354SOL    HW210383   2.066   4.755   2.836  0.4566 -1.7275 -0.5013
 3355SOL     OW10384   3.449   5.285   1.394  0.0497  0.3925  0.7535
 3355SOL    HW110385   3.431   5.379   1.363 -0.0222  0.3812  0.7614
 3355SOL    HW210386   3.541   5.281   1.434  1.7432 -0.4242 -2.8880
 3356SOL     OW10387   2.674   4.178   1.646  0.5306  0.3322 -0.3931
 3356SOL    HW110388   2.660   4.122   1.728  1.7190 -0.2855 -0.5965
 3356SOL    HW210389   2.762   4.225   1.652  0.3862  0.6972 -1.0788
 3357SOL     OW10390   2.840   3.591   2.032  0.1075  0.2796  0.1877
 3357SOL    HW110391   2.746   3.595   2.067 -0.1794  1.7599 -0.6508
 3357SOL    HW210392   2.857   3.502   1.990 -0.9210  0.0044  0.3392
 3358SOL     OW10393   2.128   4.820   3.142  0.4556  0.7068  0.2903
 3358SOL    HW110394   2.194   4.823   3.218 -0.1811 -0.6227  0.9278
 3358SOL    HW210395   2.049   4.766   3.169 -1.0279  2.4441 -0.3835
 3359SOL     OW10396   3.538   4.215   3.915 -0.3219 -0.1544 -0.1818
 3359SOL    HW110397   3.531   4.291   3.850  0.6377 -0.8702 -1.1660
 3359SOL    HW210398   3.453   4.163   3.916 -0.5435  0.2015 -0.4366
 3360SOL     OW10399   1.106   5.488   2.775  0.1376  0.2698 -0.5569
 3360SOL    HW110400   1.158   5.402   2.772  0.5615  0.5302 -0.8937
 3360SOL    HW210401   1.013   5.472   2.742 -0.0365 -0.2240  0.1400
 3361SOL     OW10402   2.335   0.224   2.074 -0.3904  0.2521 -0.1577
 3361SOL    HW110403   2.265   0.293   2.092 -1.1761 -0.5450 -0.1041
 3361SOL    HW210404   2.408   0.232   2.143 -1.4851 -0.2984  1.0917
 3362SOL     OW10405   2.194   4.675   1.582 -0.0743  0.4055 -0.3809
 3362SOL    HW110406   2.186   4.718   1.672 -1.0691 -0.4238 -0.0501
 3362SOL    HW210407   2.278   4.622   1.577  1.1670  2.3086 -0.7839
 3363SOL     OW10408   2.857   5.131   4.022 -0.3032  0.4466 -0.1926
 3363SOL    HW110409   2.859   5.047   3.967 -0.2298  0.1488  0.2638
 3363SOL    HW210410   2.928   5.126   4.092  1.2847  1.8837 -1.6161
 3364SOL     OW10411   2.115   4.580   2.341  0.5160 -0.6593 -0.2668
 3364SOL    HW110412   2.094   4.676   2.322  0.3751 -0.2785  1.5891
 3364SOL    HW210413   2.073   4.522   2.272 -0.3552  0.5479 -0.7847
 3365SOL     OW10414   2.049   3.618   2.846 -0.5119 -0.0958 -0.3719
 3365SOL    HW110415   1.955   3.624   2.880 -1.0131  2.4508 -1.9281
 3365SOL    HW210416   2.105   3.566   2.910 -2.4555  0.3316  1.7869
 3366SOL     OW10417   3.301   4.329   3.341 -0.0033  0.1457 -0.1098
 3366SOL    HW110418   3.268   4.378   3.260  2.3179 -1.3488 -2.0685
 3366SOL    HW210419   3.339   4.395   3.406 -2.3313  1.4134  0.0852
 3367SOL     OW10420   4.441   0.260   1.451  0.0662 -0.5192 -0.6272
 3367SOL    HW110421   4.402   0.179   1.407 -1.1709 -1.3186  1.7240
 3367SOL    HW210422   4.467   0.236   1.545  1.6361  1.3151 -0.5499
 3368SOL     OW10423   2.780   3.897   2.205  0.1440  0.5682  0.4202
 3368SOL    HW110424   2.718   3.823   2.180  1.7164 -0.1126 -1.8271
 3368SOL    HW210425   2.791   3.959   2.128 -0.4673  2.7225  1.9751
 3369SOL     OW10426   4.151   4.543   2.419  0.3431  0.7734  0.9341
 3369SOL    HW110427   4.249   4.530   2.433  0.0647  0.3191  2.7411
 3369SOL    HW210428   4.126   4.512   2.327  1.7838  0.2498  0.6954
 3370SOL     OW10429   3.360   5.269   0.846 -0.8295  0.2793 -0.3040
 3370SOL    HW110430   3.388   5.364   0.844  0.2821  0.0276  1.3596
 3370SOL    HW210431   3.314   5.249   0.933 -2.0608 -0.4551 -1.0846
 3371SOL     OW10432   2.923   0.091   1.748 -0.7629 -0.0435  0.8412
 3371SOL    HW110433   2.844   0.144   1.781 -0.6608  0.0083  1.0064
 3371SOL    HW210434   3.005   0.120   1.798 -0.3388  1.0417 -0.4421
 3372SOL     OW10435   2.568   4.881   2.653 -0.2159 -0.0227 -0.5110
 3372SOL    HW110436   2.648   4.840   2.610 -0.3824  0.4370 -1.2718
 3372SOL    HW210437   2.496   4.894   2.585 -1.2872 -1.2434  0.3263
 3373SOL     OW10438   2.854   4.040   1.987 -0.4747 -0.2565 -0.1326
 3373SOL    HW110439   2.848   4.133   2.025  0.6010 -0.5236  0.7488
 3373SOL    HW210440   2.922   4.039   1.914 -0.8485 -0.2521 -0.4835
 3374SOL     OW10441   3.494   5.574   3.296  0.1866 -0.4177  0.2048
 3374SOL    HW110442   3.499   5.524   3.382  1.3590 -0.7192 -0.0282
 3374SOL    HW210443   3.585   5.605   3.269 -0.3105  0.5420 -0.4262
 3375SOL     OW10444   2.335   4.338   3.294 -0.1901 -0.0918 -0.6784
 3375SOL    HW110445   2.369   4.295   3.378 -0.5080  0.0704 -0.4663
 3375SOL    HW210446   2.277   4.274   3.244  1.2728 -0.7648 -1.5983
 3376SOL     OW10447   2.925   4.502   3.980 -0.2296 -0.0455  0.3337
 3376SOL    HW110448   2.890   4.555   4.058 -1.0650  1.4465 -0.9943
 3376SOL    HW210449   3.004   4.448   4.010 -1.3159 -0.5750  2.5198
 3377SOL     OW10450   1.596   4.806   3.648 -0.4053 -0.3129 -0.3606
 3377SOL    HW110451   1.670   4.869   3.624 -0.6898 -0.1894 -0.9432
 3377SOL    HW210452   1.606   4.721   3.597 -1.6498  0.3796 -1.8612
 3378SOL     OW10453   4.359   5.203   2.620  0.4563 -0.1728  0.4691
 3378SOL    HW110454   4.357   5.236   2.715 -0.4205  0.8226  0.1304
 3378SOL    HW210455   4.410   5.269   2.564 -0.2708 -0.0045 -0.0024
 3379SOL     OW10456   3.392   3.250   2.954  0.1580 -0.8109  0.3214
 3379SOL    HW110457   3.312   3.229   2.898  0.3429 -0.8634  0.0772
 3379SOL    HW210458   3.362   3.297   3.037  0.0635  1.1949 -0.7757
 3380SOL     OW10459   2.308   4.549   2.938 -0.1600  0.0592  0.2668
 3380SOL    HW110460   2.263   4.637   2.926 -0.7428 -0.0109  1.8102
 3380SOL    HW210461   2.241   4.479   2.961  0.5067 -0.4142  0.8398
 3381SOL     OW10462   2.808   4.636   2.918 -0.0692 -0.1047  0.0676
 3381SOL    HW110463   2.715   4.624   2.883 -0.1513 -0.3804  0.3740
 3381SOL    HW210464   2.859   4.698   2.858 -0.6415  0.5422  0.2431
 3382SOL     OW10465   1.984   3.769   2.315 -0.3406 -0.2174  0.0742
 3382SOL    HW110466   2.073   3.763   2.359 -0.5247  0.3447  0.5516
 3382SOL    HW210467   1.918   3.715   2.368 -1.3386  3.1207  2.6292
 3383SOL     OW10468   3.155   4.432   2.496 -0.4552  0.0818  0.1550
 3383SOL    HW110469   3.220   4.393   2.561 -2.7820 -0.8068  2.1083
 3383SOL    HW210470   3.175   4.529   2.483  1.2324 -0.1708  0.6702
 3384SOL     OW10471   1.339   0.758   3.311  0.6026  0.3279 -0.1872
 3384SOL    HW110472   1.321   0.737   3.407 -0.1978 -1.0489 -0.6113
 3384SOL    HW210473   1.353   0.673   3.261  0.6062  1.0067 -1.3694
 3385SOL     OW10474   1.549   4.403   2.904  0.3635 -0.3925 -0.0885
 3385SOL    HW110475   1.609   4.324   2.918  0.8701 -0.0016 -0.0171
 3385SOL    HW210476   1.592   4.484   2.942 -1.0621 -0.4178  1.7309
 3386SOL     OW10477   1.970   3.615   3.697 -0.1932  0.4114  0.5933
 3386SOL    HW110478   2.058   3.569   3.689 -0.5867 -0.0171 -2.3602
 3386SOL    HW210479   1.922   3.582   3.778  2.0395  0.1900  1.9122
 3387SOL     OW10480   3.835   5.332   1.224  0.4843 -0.1788  0.9176
 3387SOL    HW110481   3.762   5.401   1.231  0.3242 -0.3055  0.5277
 3387SOL    HW210482   3.796   5.241   1.242  0.3537 -0.3497 -0.1932
 3388SOL     OW10483   3.441   0.702   2.818  0.1359  0.2049  0.7615
 3388SOL    HW110484   3.344   0.690   2.801 -0.0401  0.5325  1.4842
 3388SOL    HW210485   3.457   0.792   2.859  0.6326 -0.2009  1.4731
 3389SOL     OW10486   4.254   4.680   1.647 -0.7054  0.3570  0.7289
 3389SOL    HW110487   4.314   4.648   1.721 -2.4044  0.2000  2.1140
 3389SOL    HW210488   4.198   4.603   1.615 -1.8616  0.9975  1.1626
 3390SOL     OW10489   1.269   4.397   2.898  0.1086  0.2323  0.3029
 3390SOL    HW110490   1.226   4.355   2.978  0.5135 -0.6567  0.0648
 3390SOL    HW210491   1.368   4.385   2.904  0.0305 -1.7338 -1.3465
 3391SOL     OW10492   2.938   4.840   2.775 -0.6054  0.1608 -0.0413
 3391SOL    HW110493   2.920   4.931   2.814  3.9680  1.2230  0.1649
 3391SOL    HW210494   2.943   4.847   2.676 -0.3285  0.1550 -0.0300
 3392SOL     OW10495   3.506   4.508   3.833  0.0416 -0.5715 -0.9254
 3392SOL    HW110496   3.447   4.574   3.880 -0.6777 -0.3706 -2.0778
 3392SOL    HW210497   3.600   4.543   3.832  0.1247 -0.6880  0.5355
 3393SOL     OW10498   3.774   4.983   2.931 -0.2530  0.7912  0.8876
 3393SOL    HW110499   3.757   4.968   2.834  1.4241  0.6278  0.5926
 3393SOL    HW210500   3.867   4.954   2.953 -0.1818  2.0078  2.2834
 3394SOL     OW10501   2.722   4.157   2.857 -0.5157  0.1757  0.1588
 3394SOL    HW110502   2.635   4.207   2.868 -0.0734  0.6818  1.6375
 3394SOL    HW210503   2.796   4.222   2.840 -0.0830 -0.0408  1.1511
 3395SOL     OW10504   2.139   5.103   3.385 -0.2246  0.2015 -0.3778
 3395SOL    HW110505   2.166   5.009   3.364 -0.9745  0.3656 -2.2638
 3395SOL    HW210506   2.039   5.110   3.383 -0.2141  0.8819  0.5931
 3396SOL     OW10507   3.442   3.763   2.213  0.4321  0.1004  0.0887
 3396SOL    HW110508   3.462   3.761   2.115 -0.7469 -1.5918 -0.1614
 3396SOL    HW210509   3.506   3.704   2.261  0.9403  0.8447  0.3418
 3397SOL     OW10510   4.257   4.238   1.549 -0.0160 -0.3079 -0.1401
 3397SOL    HW110511   4.233   4.226   1.453 -0.8723 -0.8340  0.1325
 3397SOL    HW210512   4.337   4.298   1.556  1.0146 -1.4906 -1.2570
 3398SOL     OW10513   1.818   3.384   2.378 -0.2510  0.0227  0.0124
 3398SOL    HW110514   1.807   3.480   2.402 -1.0246  0.0598 -0.4190
 3398SOL    HW210515   1.735   3.334   2.404  0.1517 -0.5302  0.2462
 3399SOL     OW10516   2.940   4.756   1.768  0.2589 -0.4029 -0.1612
 3399SOL    HW110517   2.896   4.750   1.678  0.0043 -2.0042  0.0423
 3399SOL    HW210518   3.005   4.831   1.767 -0.8518  0.6072 -1.1840
 3400SOL     OW10519   2.281   4.834   2.142 -0.1726 -0.1006 -0.1903
 3400SOL    HW110520   2.195   4.824   2.192 -0.3931 -0.4668 -0.6383
 3400SOL    HW210521   2.336   4.906   2.185 -0.7989  0.2971 -0.0388
 3401SOL     OW10522   2.886   4.579   3.310  0.0035  1.1946  0.4580
 3401SOL    HW110523   2.945   4.551   3.386 -1.7030 -1.9798  0.8224
 3401SOL    HW210524   2.937   4.637   3.247  3.9256 -2.1482  0.1533
 3402SOL     OW10525   2.817   4.197   0.852 -0.3531 -0.8083  0.2429
 3402SOL    HW110526   2.798   4.218   0.756  0.3755  2.0094  0.6184
 3402SOL    HW210527   2.740   4.227   0.909 -0.2912 -1.3926  0.6480
 3403SOL     OW10528   4.489   3.120   1.981 -0.0506  0.2279  0.0835
 3403SOL    HW110529   4.534   3.083   1.900 -0.2388 -0.2482  0.1956
 3403SOL    HW210530   4.479   3.219   1.971  1.0806  0.3483  0.0922
 3404SOL     OW10531   2.387   0.113   3.641 -0.5796  0.3486 -0.1237
 3404SOL    HW110532   2.289   0.102   3.624 -0.3830 -0.9251 -0.5011
 3404SOL    HW210533   2.418   0.043   3.705 -0.3393  2.1596  1.8449
 3405SOL     OW10534   2.598   4.701   3.769 -0.2508  0.0449  0.4463
 3405SOL    HW110535   2.654   4.627   3.805  0.5747  0.3746 -0.1186
 3405SOL    HW210536   2.637   4.733   3.683 -1.1244  0.5150  0.2151
 3406SOL     OW10537   4.449   4.820   4.197 -0.6523 -0.5101 -0.1273
 3406SOL    HW110538   4.518   4.773   4.252  0.0847  0.1537 -0.4697
 3406SOL    HW210539   4.419   4.761   4.123 -0.1769 -0.6620 -0.1999
 3407SOL     OW10540   2.188   3.418   2.998 -0.2406 -0.3959  0.2788
 3407SOL    HW110541   2.279   3.445   2.967 -0.1904  0.7454  1.3516
 3407SOL    HW210542   2.189   3.406   3.097 -1.0088 -1.4484  0.1702
 3408SOL     OW10543   3.089   3.363   2.973 -0.1493 -0.2635  0.2274
 3408SOL    HW110544   3.089   3.289   2.906 -0.6009 -0.8760  0.8926
 3408SOL    HW210545   3.166   3.350   3.035  2.9751  2.6105 -2.6030
 3409SOL     OW10546   3.080   4.092   1.819  0.5680 -0.1500  0.2608
 3409SOL    HW110547   3.074   4.119   1.723 -0.6810  2.6171  1.0331
 3409SOL    HW210548   3.174   4.063   1.839  1.9690  3.1000 -0.9213
 3410SOL     OW10549   2.824   5.324   3.053 -0.6637  0.3144 -0.1082
 3410SOL    HW110550   2.766   5.387   3.105 -0.0846  0.6291  0.1629
 3410SOL    HW210551   2.877   5.268   3.117  1.3430  1.8684 -0.2950
 3411SOL     OW10552   2.182   0.308   2.416 -0.1014 -0.3637 -0.4767
 3411SOL    HW110553   2.119   0.277   2.487 -0.3191  1.0494 -0.0236
 3411SOL    HW210554   2.229   0.229   2.376 -0.8361 -1.2773  0.4200
 3412SOL     OW10555   1.799   3.810   1.999  0.6049  0.0191  0.1967
 3412SOL    HW110556   1.799   3.893   1.942  1.6287 -1.2503 -1.7625
 3412SOL    HW210557   1.879   3.810   2.059  0.4346  0.5761  0.4319
 3413SOL     OW10558   3.757   4.578   3.756  0.8550 -0.3027 -0.3374
 3413SOL    HW110559   3.752   4.519   3.676  3.1372 -0.4180 -0.4426
 3413SOL    HW210560   3.728   4.671   3.731  0.6006 -0.5681 -1.0425
 3414SOL     OW10561   3.463   4.972   3.041 -0.0810  0.1973  0.1640
 3414SOL    HW110562   3.500   5.034   2.973  0.7224 -0.8497 -0.3800
 3414SOL    HW210563   3.484   5.007   3.133 -1.0422  1.5351 -0.0966
 3415SOL     OW10564   1.633   4.166   3.003 -0.3719 -0.5177 -0.3079
 3415SOL    HW110565   1.596   4.083   3.043  0.0728 -0.4544  0.2508
 3415SOL    HW210566   1.668   4.226   3.076 -0.6061  0.1172 -0.7037
 3416SOL     OW10567   2.301   5.480   3.348 -0.0158 -0.4207 -0.3373
 3416SOL    HW110568   2.217   5.440   3.313 -0.2436  0.1884 -0.5047
 3416SOL    HW210569   2.304   5.577   3.324 -1.0775  0.5271  2.8388
 3417SOL     OW10570   3.143   5.229   2.174  0.6536 -0.1218 -0.2998
 3417SOL    HW110571   3.145   5.325   2.146 -0.7552 -0.0902 -0.3555
 3417SOL    HW210572   3.075   5.217   2.247 -0.5943 -1.3899 -1.6112
 3418SOL     OW10573   2.828   5.072   1.365 -0.0689  0.1036  0.3477
 3418SOL    HW110574   2.870   5.044   1.279 -1.3201  0.2917 -0.3446
 3418SOL    HW210575   2.867   5.159   1.395 -0.6999  0.8174 -0.8479
 3419SOL     OW10576   1.697   3.917   2.456  0.3511 -0.2160  0.3747
 3419SOL    HW110577   1.638   3.991   2.486 -0.3923 -0.8133  0.4285
 3419SOL    HW210578   1.726   3.863   2.535  1.2348  0.2559  0.3839
 3420SOL     OW10579   2.139   4.060   3.399  0.7753 -0.4111  0.2616
 3420SOL    HW110580   2.126   4.144   3.451  0.5522 -1.6603  2.3174
 3420SOL    HW210581   2.227   4.019   3.421  1.1575 -0.4272 -1.1896
 3421SOL     OW10582   3.099   4.706   3.483 -0.5325 -0.1753 -0.1317
 3421SOL    HW110583   3.124   4.609   3.494 -0.8220 -0.2066  0.2655
 3421SOL    HW210584   3.051   4.737   3.565 -0.2194  0.3770 -0.1551
 3422SOL     OW10585   1.944   3.549   1.842 -0.3805  0.2011  0.3457
 3422SOL    HW110586   2.019   3.614   1.834  0.0568 -0.2542  0.6897
 3422SOL    HW210587   1.975   3.469   1.894 -1.5516  0.7302  1.9455
 3423SOL     OW10588   3.929   5.447   2.991  0.3046  0.3452 -1.0621
 3423SOL    HW110589   3.922   5.477   2.896 -0.8241  3.0689 -0.2132
 3423SOL    HW210590   3.900   5.521   3.052  2.8701 -0.5647  1.5202
 3424SOL     OW10591   2.101   4.893   3.774  0.2389 -0.1779 -0.3925
 3424SOL    HW110592   2.172   4.958   3.803  1.0658 -1.2717  0.1463
 3424SOL    HW210593   2.135   4.799   3.788 -0.4911 -0.7443 -2.1652
 3425SOL     OW10594   2.458   4.911   4.390 -0.3125  0.1191  0.3324
 3425SOL    HW110595   2.521   4.897   4.467 -1.0222  0.1630  0.9256
 3425SOL    HW210596   2.364   4.901   4.421 -0.6293  0.6268 -0.4363
 3426SOL     OW10597   1.312   4.627   3.713  0.3542  0.6550  0.3781
 3426SOL    HW110598   1.309   4.721   3.679  1.2701  0.7620  0.5658
 3426SOL    HW210599   1.282   4.625   3.809 -1.1504  0.5142 -0.0621
 3427SOL     OW10600   1.538   4.775   1.406  1.3185  0.2639  0.2688
 3427SOL    HW110601   1.573   4.690   1.445 -0.0066  0.1646  1.3019
 3427SOL    HW210602   1.506   4.758   1.313  1.6128 -0.2335  0.2559
 3428SOL     OW10603   1.827   3.610   3.010  0.7103 -0.4322 -0.0222
 3428SOL    HW110604   1.823   3.520   3.052  0.1471  0.2058  1.3488
 3428SOL    HW210605   1.820   3.680   3.080  0.4353  0.6901 -1.1309
 3429SOL     OW10606   3.193   4.834   4.238  0.0870 -0.1101  0.3128
 3429SOL    HW110607   3.150   4.920   4.265 -1.6983 -1.0398  0.6149
 3429SOL    HW210608   3.148   4.798   4.157 -0.4969 -1.6797  1.2954
 3430SOL     OW10609   1.397   5.543   1.231 -0.2766  0.1911 -0.1306
 3430SOL    HW110610   1.497   5.540   1.237 -0.1604 -1.2328 -1.9555
 3430SOL    HW210611   1.361   5.593   1.310  1.8247  0.1865  0.9191
 3431SOL     OW10612   2.733   5.270   2.761  0.4238 -0.3728 -0.0034
 3431SOL    HW110613   2.753   5.315   2.848 -0.0429 -1.0257  0.4484
 3431SOL    HW210614   2.742   5.336   2.687  0.7470  0.2120  0.5472
 3432SOL     OW10615   2.426   5.058   2.270 -0.4384 -0.1610 -0.3714
 3432SOL    HW110616   2.396   5.151   2.293  0.8538  0.0398  0.6769
 3432SOL    HW210617   2.524   5.059   2.250  0.0087 -1.5634  1.4703
 3433SOL     OW10618   1.971   5.329   2.402 -0.3255 -0.2259  0.3603
 3433SOL    HW110619   1.879   5.305   2.432 -1.1902 -1.9415 -3.1564
 3433SOL    HW210620   1.978   5.428   2.390 -2.9363 -0.2410 -2.4348
 3434SOL     OW10621   1.734   5.553   4.320  0.5141 -0.0301 -0.6287
 3434SOL    HW110622   1.830   5.562   4.345  0.3631  0.3802 -0.1731
 3434SOL    HW210623   1.716   5.604   4.236  0.4871  0.7471 -0.1620
 3435SOL     OW10624   3.657   4.434   2.216 -0.2257  0.1186  0.2764
 3435SOL    HW110625   3.580   4.417   2.279 -0.5658  0.6355  0.0066
 3435SOL    HW210626   3.738   4.457   2.269  0.3078 -2.3483  0.6918
 3436SOL     OW10627   4.614   0.476   2.887 -0.2547 -0.0577 -0.1374
 3436SOL    HW110628   4.581   0.389   2.850  1.6080 -1.6967  1.7877
 3436SOL    HW210629   4.610   0.546   2.816 -0.6661 -2.0048 -2.1571
 3437SOL     OW10630   0.524   4.553   3.420 -0.2106  0.2362  0.1936
 3437SOL    HW110631   0.556   4.598   3.336 -2.6576  0.9164 -0.4425
 3437SOL    HW210632   0.517   4.455   3.403  1.0653  0.1189  0.2255
 3438SOL     OW10633   3.594   0.036   2.289  0.2445 -0.2623 -1.0299
 3438SOL    HW110634   3.536   0.078   2.219  1.7479  2.0455 -1.0324
 3438SOL    HW210635   3.676  -0.002   2.246  1.6431  2.0161 -0.5636
 3439SOL     OW10636   3.001   4.638   3.757 -0.1455  0.5823  0.5837
 3439SOL    HW110637   3.028   4.568   3.690  0.0404  0.9883  0.2276
 3439SOL    HW210638   2.963   4.594   3.838  1.9366 -0.0303  1.2738
 3440SOL     OW10639   3.592  -0.006   1.897 -0.0405 -0.1654 -0.1894
 3440SOL    HW110640   3.644   0.080   1.895  0.1183 -0.2765 -1.2184
 3440SOL    HW210641   3.527  -0.003   1.973 -1.2824  1.6385 -1.2266
 3441SOL     OW10642   3.775   0.892   3.039 -0.1669 -0.0520 -0.5721
 3441SOL    HW110643   3.850   0.932   2.986  0.0409 -0.0670 -0.2941
 3441SOL    HW210644   3.714   0.965   3.071 -0.0097  0.0042 -0.4016
 3442SOL     OW10645   4.227   2.454   4.168 -0.1233  0.3330 -0.5743
 3442SOL    HW110646   4.181   2.468   4.256  0.0055  0.6940 -0.5627
 3442SOL    HW210647   4.326   2.448   4.183 -0.1098  0.2803 -0.6815
 3443SOL     OW10648   3.175   4.677   2.416 -0.1086 -0.3955  0.1940
 3443SOL    HW110649   3.117   4.751   2.450  0.8486  0.1084  0.7643
 3443SOL    HW210650   3.180   4.682   2.316 -2.4548 -1.5216 -0.0293
 3444SOL     OW10651   3.098   0.196   3.422  0.6802 -0.0109 -0.3569
 3444SOL    HW110652   3.038   0.134   3.372  0.7366 -0.1515 -0.2516
 3444SOL    HW210653   3.182   0.212   3.370  0.7835 -0.2384 -0.2599
 3445SOL     OW10654   2.921   5.046   3.167 -0.1203  0.0140 -0.2878
 3445SOL    HW110655   2.848   4.978   3.162 -1.3185  1.1956  0.3967
 3445SOL    HW210656   2.952   5.070   3.075 -1.0800 -0.0114 -0.6248
 3446SOL     OW10657   0.680   4.691   3.232 -0.2974 -0.3794 -0.1317
 3446SOL    HW110658   0.763   4.637   3.240 -0.1139 -0.0388  0.3413
 3446SOL    HW210659   0.631   4.666   3.148 -0.4552 -1.5961  0.3109
 3447SOL     OW10660   3.434   5.022   2.393  0.1630 -0.2118  0.1661
 3447SOL    HW110661   3.422   5.105   2.339  0.9357  0.3452  0.8237
 3447SOL    HW210662   3.487   4.955   2.340  0.6491  0.2112  0.1103
 3448SOL     OW10663   2.033   5.190   3.977 -0.2495  0.1537  0.4512
 3448SOL    HW110664   2.097   5.114   3.967 -0.7675 -0.1640 -0.5769
 3448SOL    HW210665   2.071   5.272   3.936 -0.8393 -0.2465 -0.9386
 3449SOL     OW10666   2.529   5.358   3.482 -0.2938 -0.2953  0.3370
 3449SOL    HW110667   2.619   5.402   3.484 -0.6308  0.4677 -0.4625
 3449SOL    HW210668   2.472   5.403   3.413 -1.2168 -0.9167  0.6802
 3450SOL     OW10669   2.676   5.451   1.025  0.1415  0.1294 -0.3715
 3450SOL    HW110670   2.609   5.441   1.099  0.1415  0.6202 -0.3023
 3450SOL    HW210671   2.656   5.384   0.954  1.6736 -2.1281  1.1860
 3451SOL     OW10672   3.669   4.326   2.504 -0.2240 -0.0095  0.1722
 3451SOL    HW110673   3.578   4.333   2.464 -0.5220  1.2457  1.0411
 3451SOL    HW210674   3.719   4.251   2.460 -1.3392 -0.1170 -0.9483
 3452SOL     OW10675   3.117   0.422   3.069  0.3582  0.1356 -0.4611
 3452SOL    HW110676   3.059   0.457   2.996 -1.2596 -2.9358 -0.8196
 3452SOL    HW210677   3.144   0.328   3.048  2.9135  0.3826  1.2227
 3453SOL     OW10678   3.386   4.926   3.618  0.6202  0.4690 -0.1926
 3453SOL    HW110679   3.308   4.989   3.618 -0.0848 -0.3603 -1.2465
 3453SOL    HW210680   3.443   4.944   3.538 -2.0569 -3.0242 -3.2440
 3454SOL     OW10681   1.632   4.692   2.987  0.3155 -0.2860 -0.4964
 3454SOL    HW110682   1.658   4.788   2.996  1.2301 -0.4198 -1.4587
 3454SOL    HW210683   1.533   4.683   2.991  0.2782  0.5240  1.0561
 3455SOL     OW10684   0.719   4.366   3.946 -0.2414  0.2349  0.1653
 3455SOL    HW110685   0.664   4.355   3.863 -0.6893  1.2450  0.3055
 3455SOL    HW210686   0.768   4.454   3.942  0.9451 -0.3935  0.2931
 3456SOL     OW10687   1.926   4.021   2.620 -0.3046  0.1747  0.0120
 3456SOL    HW110688   1.980   4.105   2.627 -1.0487  0.6283  0.5361
 3456SOL    HW210689   1.901   4.005   2.525  0.8662 -0.1237 -0.2547
 3457SOL     OW10690   1.501   4.852   1.840 -0.0765 -0.0027  0.0938
 3457SOL    HW110691   1.452   4.919   1.784 -2.3013 -1.1284  0.5770
 3457SOL    HW210692   1.562   4.798   1.783 -0.3756  0.5797 -0.7875
 3458SOL     OW10693   2.804   4.463   2.557 -0.4542  0.2617 -0.5459
 3458SOL    HW110694   2.819   4.424   2.647 -0.1387  1.5234 -0.0330
 3458SOL    HW210695   2.870   4.423   2.492  0.3971  0.5358  0.1359
 3459SOL     OW10696   0.879   3.916   2.555 -0.2656 -0.6147 -0.5647
 3459SOL    HW110697   0.899   3.864   2.639 -0.1327 -1.0867 -0.8860
 3459SOL    HW210698   0.912   3.865   2.476 -1.4993 -0.7447 -1.0089
 3460SOL     OW10699   3.780   4.909   1.562 -0.0042  0.4187  0.3004
 3460SOL    HW110700   3.717   4.903   1.640  0.1692 -1.9813  0.3457
 3460SOL    HW210701   3.874   4.903   1.595  0.1734  1.6497  0.0500
 3461SOL     OW10702   3.233   4.871   3.318  0.6054  0.3657  0.0092
 3461SOL    HW110703   3.233   4.832   3.226  1.4329  0.8941 -0.2237
 3461SOL    HW210704   3.199   4.803   3.383  1.9481 -0.7364 -0.3939
 3462SOL     OW10705   3.193   0.152   1.502 -0.2286  0.4784  0.5894
 3462SOL    HW110706   3.250   0.123   1.579  1.1375  0.0616 -0.5280
 3462SOL    HW210707   3.252   0.190   1.430 -1.2989 -0.3262 -0.7745
 3463SOL     OW10708   3.238   5.502   3.541 -0.0715  0.4697  0.0703
 3463SOL    HW110709   3.206   5.467   3.629 -0.4637  0.3660 -0.1116
 3463SOL    HW210710   3.257   5.599   3.549 -1.6763  0.8285 -0.1435
 3464SOL     OW10711   2.884   0.443   3.204  0.3215 -0.0810  0.6766
 3464SOL    HW110712   2.974   0.419   3.167 -0.7648  0.6327 -2.7262
 3464SOL    HW210713   2.882   0.540   3.226  0.1284  0.1064 -0.1422
 3465SOL     OW10714   1.739   5.595   3.768  0.1225 -0.0576  0.0095
 3465SOL    HW110715   1.684   5.513   3.784 -0.2205  0.4842  1.8859
 3465SOL    HW210716   1.765   5.600   3.672 -2.7181 -0.5701 -0.8603
 3466SOL     OW10717   3.768   4.608   2.853 -0.1197 -0.4296  0.5847
 3466SOL    HW110718   3.731   4.655   2.933  0.0491 -0.3910  0.6411
 3466SOL    HW210719   3.701   4.608   2.780  0.5672  1.6301 -0.1193
 3467SOL     OW10720   3.023   3.789   2.051  0.2696  0.0829 -0.2649
 3467SOL    HW110721   2.965   3.707   2.052  0.5980 -0.1684  1.9646
 3467SOL    HW210722   2.968   3.868   2.022 -0.4915 -0.5968 -0.7316
 3468SOL     OW10723   1.901   0.044   3.297 -0.6548  0.6507 -0.1664
 3468SOL    HW110724   1.926  -0.051   3.314  1.1970  1.0255 -0.5344
 3468SOL    HW210725   1.881   0.089   3.384  0.0712  0.3355  0.1694
 3469SOL     OW10726   4.080   4.775   2.544 -0.6423  0.3318 -0.0343
 3469SOL    HW110727   4.145   4.850   2.556  1.0550 -1.1490  0.6972
 3469SOL    HW210728   4.124   4.702   2.491 -2.0067 -0.3861 -0.2145
 3470SOL     OW10729   5.071   4.757   2.674 -0.4201  0.4002  1.1151
 3470SOL    HW110730   5.020   4.686   2.722 -0.9154  1.5321  2.3425
 3470SOL    HW210731   5.008   4.830   2.648  0.1853  0.7010  0.4897
 3471SOL     OW10732   2.494   4.899   1.629  0.0411 -0.3449 -0.3227
 3471SOL    HW110733   2.489   4.978   1.690 -3.0997 -0.2832 -0.5026
 3471SOL    HW210734   2.473   4.816   1.680 -1.8461 -0.3827 -1.0696
 3472SOL     OW10735   1.378   3.396   1.999 -0.0666 -0.2555 -0.7829
 3472SOL    HW110736   1.290   3.419   1.957 -0.5271 -0.8386 -0.1575
 3472SOL    HW210737   1.362   3.356   2.089  0.8458 -0.4095 -0.6831
 3473SOL     OW10738   2.208   0.070   3.929 -0.2039 -0.1134  0.1338
 3473SOL    HW110739   2.268   0.086   4.007 -1.7478  0.1095  1.3322
 3473SOL    HW210740   2.238   0.126   3.852  0.8303  0.3569  0.8557
 3474SOL     OW10741   3.430   4.374   2.379  0.1830 -0.6167 -0.0728
 3474SOL    HW110742   3.390   4.320   2.304 -0.6172 -0.2140  0.0588
 3474SOL    HW210743   3.359   4.400   2.444  0.2705  1.7592 -0.8307
 3475SOL     OW10744   3.623   0.268   2.965  0.3177 -0.0142 -0.4622
 3475SOL    HW110745   3.560   0.191   2.977 -1.2840  1.2820 -0.2992
 3475SOL    HW210746   3.582   0.335   2.903  1.6495  0.7628 -0.5347
 3476SOL     OW10747   1.899   4.840   3.603 -0.0398 -0.0546  0.1355
 3476SOL    HW110748   1.913   4.754   3.554 -0.8884  0.0786 -0.3688
 3476SOL    HW210749   1.978   4.859   3.661  0.4974 -0.7831 -0.3396
 3477SOL     OW10750   0.793   0.102   3.198  0.0399 -0.4832 -0.3559
 3477SOL    HW110751   0.814   0.007   3.223 -0.1790 -0.8828 -1.6115
 3477SOL    HW210752   0.849   0.164   3.252 -0.6479 -1.2659  1.3352
 3478SOL     OW10753   3.533   4.449   4.541 -0.1654  0.3639  0.0397
 3478SOL    HW110754   3.508   4.434   4.637  2.1138 -0.2457  0.6034
 3478SOL    HW210755   3.589   4.532   4.535  0.4021 -0.0602 -0.6159
 3479SOL     OW10756   3.360   4.460   3.588 -0.3055  0.0850  0.0482
 3479SOL    HW110757   3.453   4.490   3.568 -0.1002 -0.8870 -0.5253
 3479SOL    HW210758   3.349   4.450   3.687  0.6320 -1.0555  0.0695
 3480SOL     OW10759   1.580   4.148   2.574  0.3876  0.2307  0.3162
 3480SOL    HW110760   1.523   4.231   2.572 -1.0022 -0.6892 -1.2393
 3480SOL    HW210761   1.604   4.126   2.668 -3.3516 -0.2711  1.3098
 3481SOL     OW10762   3.584   5.211   2.712 -0.3006 -0.4358  0.0309
 3481SOL    HW110763   3.655   5.141   2.720 -0.1063 -0.3516 -0.7936
 3481SOL    HW210764   3.613   5.280   2.644 -1.7047 -1.0865 -1.2870
 3482SOL     OW10765   2.389   3.590   3.594 -0.0612  0.3348 -0.1109
 3482SOL    HW110766   2.391   3.604   3.693  0.2116 -0.2610 -0.0312
 3482SOL    HW210767   2.347   3.502   3.574 -1.6308  1.1507 -0.6012
 3483SOL     OW10768   4.656   4.344   2.561  0.5282 -0.5781  0.3637
 3483SOL    HW110769   4.645   4.280   2.485 -0.9071  1.8886 -1.6728
 3483SOL    HW210770   4.709   4.424   2.530  0.2190  0.3335  2.0676
 3484SOL     OW10771   3.798   3.818   3.597  0.3493  0.5376 -0.5233
 3484SOL    HW110772   3.734   3.842   3.524  0.7966  1.6605 -0.5665
 3484SOL    HW210773   3.877   3.878   3.593  1.8834 -1.4307 -1.0477
 3485SOL     OW10774   3.265   3.711   2.669  0.2285  0.1727  0.1803
 3485SOL    HW110775   3.272   3.635   2.732 -0.6404  0.3555  0.5175
 3485SOL    HW210776   3.282   3.797   2.718  0.3725  0.2582 -0.0171
 3486SOL     OW10777   1.642   4.760   2.336 -0.5391  0.0720  0.1050
 3486SOL    HW110778   1.674   4.853   2.316 -0.7654  0.4837  1.5761
 3486SOL    HW210779   1.718   4.705   2.371 -0.7826  0.2062  0.8541
 3487SOL     OW10780   1.808   5.533   4.944 -0.1536  0.1207  0.1456
 3487SOL    HW110781   1.802   5.448   4.995 -0.0612  0.2815  0.4271
 3487SOL    HW210782   1.897   5.576   4.962 -0.3433  0.4559  0.2897
 3488SOL     OW10783   3.263   3.941   1.602 -0.3046 -0.3194 -0.1491
 3488SOL    HW110784   3.203   4.020   1.589  0.2111  0.3371  1.1718
 3488SOL    HW210785   3.237   3.894   1.687 -0.1447 -1.1441 -0.5520
 3489SOL     OW10786   3.227   3.911   2.239 -0.1954  0.3569  0.3014
 3489SOL    HW110787   3.146   3.861   2.209 -1.2693  1.5362  1.1093
 3489SOL    HW210788   3.309   3.855   2.223 -1.1205 -0.7429 -0.8061
 3490SOL     OW10789   3.588   3.223   3.557  0.0923  0.0764 -0.0301
 3490SOL    HW110790   3.541   3.296   3.607  0.6058 -0.6818  1.6729
 3490SOL    HW210791   3.602   3.146   3.619  0.0959 -1.2426 -1.6167
 3491SOL     OW10792   1.560   4.414   2.240  0.6315 -0.2727 -0.0714
 3491SOL    HW110793   1.504   4.336   2.269  0.3945  0.7899  2.6610
 3491SOL    HW210794   1.532   4.445   2.150  0.4795 -3.0743 -1.0678
 3492SOL     OW10795   3.134   5.363   3.333  0.6135 -1.1438 -0.0212
 3492SOL    HW110796   3.169   5.415   3.411 -0.2231 -0.7013  0.0659
 3492SOL    HW210797   3.211   5.332   3.278  1.1374  0.8126 -0.4820
 3493SOL     OW10798   3.148   4.767   3.967 -0.1356  0.3953  0.1289
 3493SOL    HW110799   3.088   4.731   3.896 -1.6320  1.1321  0.9677
 3493SOL    HW210800   3.241   4.773   3.932 -0.2739 -1.9496 -0.8056
 3494SOL     OW10801   2.031   4.507   5.340  0.3528 -0.3222 -0.3714
 3494SOL    HW110802   1.956   4.563   5.375  0.3937  0.3890 -1.3877
 3494SOL    HW210803   2.051   4.532   5.245  0.4265 -2.0159 -0.8408
 3495SOL     OW10804   1.617   4.052   4.303 -0.0751 -0.6792 -0.0395
 3495SOL    HW110805   1.580   3.999   4.380  0.1555  0.0986  0.6293
 3495SOL    HW210806   1.656   3.990   4.235 -0.8290 -1.4115  0.1803
 3496SOL     OW10807   2.335   3.744   5.086 -0.2483  0.2493 -0.0647
 3496SOL    HW110808   2.284   3.666   5.052  0.8864  0.1041 -1.5471
 3496SOL    HW210809   2.272   3.819   5.107 -1.1418 -0.1769 -1.1297
 3497SOL     OW10810   5.046   0.740   5.057  0.3420 -0.1329  0.3492
 3497SOL    HW110811   5.027   0.641   5.059 -1.8203  0.1284 -1.7877
 3497SOL    HW210812   5.022   0.780   5.145  0.0367 -1.3317  0.8401
 3498SOL     OW10813   2.893   4.113   4.655 -0.4962 -0.2114 -0.1110
 3498SOL    HW110814   2.814   4.056   4.635 -0.1362 -0.6411 -0.3193
 3498SOL    HW210815   2.883   4.201   4.608 -0.5877 -0.4707 -0.5831
 3499SOL     OW10816   4.402   4.880   3.017  0.3368 -0.3071  0.5473
 3499SOL    HW110817   4.477   4.819   3.045  1.9429  1.6436  0.7261
 3499SOL    HW210818   4.440   4.967   2.986 -1.6556 -0.5541 -3.0734
 3500SOL     OW10819   3.467   4.919   4.908  0.6847 -0.0839 -0.4529
 3500SOL    HW110820   3.426   5.010   4.911  1.9052  0.4649 -0.0271
 3500SOL    HW210821   3.404   4.853   4.949  0.4333  0.8299  0.6844
 3501SOL     OW10822   3.077   4.197   0.802 -0.5403 -0.5237  0.3379
 3501SOL    HW110823   2.980   4.186   0.824 -1.0702  0.2132 -1.4040
 3501SOL    HW210824   3.103   4.127   0.734 -0.0342 -0.2933  0.2929
 3502SOL     OW10825   3.052   4.184   0.124  1.1034  0.4861  0.0320
 3502SOL    HW110826   3.144   4.195   0.085  0.5750 -0.4795 -1.5786
 3502SOL    HW210827   3.036   4.088   0.144  0.4876  0.6739  0.4489
 3503SOL     OW10828   3.002   4.938   4.868  0.3777 -0.8923  0.2599
 3503SOL    HW110829   3.036   4.868   4.806  0.0971  0.4437 -1.4764
 3503SOL    HW210830   3.050   4.932   4.955 -0.1958 -3.7273  0.4785
 3504SOL     OW10831   2.294   0.256   4.554  0.5720  0.0109 -0.1383
 3504SOL    HW110832   2.241   0.321   4.608  0.9366  0.9866 -0.9249
 3504SOL    HW210833   2.290   0.281   4.457 -0.1977 -1.7877 -0.6276
 3505SOL     OW10834   2.626   4.174   4.400 -0.2047 -0.1174 -0.3107
 3505SOL    HW110835   2.529   4.167   4.379  0.1537 -1.0790 -1.8055
 3505SOL    HW210836   2.655   4.092   4.450 -0.0150 -0.1862 -0.5321
 3506SOL     OW10837   1.454   5.321   5.262  0.1450 -0.1534 -0.0882
 3506SOL    HW110838   1.530   5.262   5.288  1.0704  1.1716  0.3139
 3506SOL    HW210839   1.435   5.386   5.337  1.2662  2.1478 -1.6892
 3507SOL     OW10840   2.438   3.890   0.042 -0.1602  0.2610  0.2998
 3507SOL    HW110841   2.345   3.914   0.071  0.1040  1.0186  0.5415
 3507SOL    HW210842   2.454   3.792   0.057 -1.2330 -0.0784 -0.6094
 3508SOL     OW10843   1.539   0.367   3.339  0.1710 -0.1085 -0.2564
 3508SOL    HW110844   1.572   0.409   3.424  2.5218  0.8450 -1.5640
 3508SOL    HW210845   1.599   0.292   3.314  1.5739  1.7178 -2.7602
 3509SOL     OW10846   3.286   4.865   5.532  0.2849  0.3558 -0.5595
 3509SOL    HW110847   3.236   4.792   5.578  0.0883  0.6709 -0.2759
 3509SOL    HW210848   3.348   4.909   5.596 -0.0999  0.8967 -0.5580
 3510SOL     OW10849   1.232   4.255   3.716  0.1090 -0.5299 -0.2036
 3510SOL    HW110850   1.314   4.213   3.756  1.0791  1.4790  0.0112
 3510SOL    HW210851   1.160   4.259   3.785  0.6740 -0.0413  0.3693
 3511SOL     OW10852   1.857   4.170   3.765  0.5312 -0.1325 -0.7410
 3511SOL    HW110853   1.895   4.113   3.838  0.2835  1.3164  0.5738
 3511SOL    HW210854   1.806   4.113   3.702 -1.0979 -1.2195  1.4160
 3512SOL     OW10855   1.807   1.158   5.172  0.2634 -0.4805  0.0039
 3512SOL    HW110856   1.805   1.207   5.259  0.3436  2.4594 -1.5455
 3512SOL    HW210857   1.713   1.144   5.140  0.2802  1.8006 -1.1563
 3513SOL     OW10858   3.126   4.994   5.123 -0.0528 -0.0972  0.0990
 3513SOL    HW110859   3.198   4.951   5.178  0.0427 -0.4235 -0.2805
 3513SOL    HW210860   3.043   5.002   5.178 -0.2159 -1.1996  0.0352
 3514SOL     OW10861   2.293   3.598   4.222 -0.6462  0.5738 -0.1592
 3514SOL    HW110862   2.319   3.508   4.257  0.5008  0.7453 -0.5335
 3514SOL    HW210863   2.330   3.669   4.282 -1.8153  0.8178  0.3158
 3515SOL     OW10864   2.043   3.913   3.187  0.4870  0.0642 -0.5067
 3515SOL    HW110865   2.041   3.984   3.118  1.2929  1.9629  1.3285
 3515SOL    HW210866   2.102   3.940   3.263  1.1054 -2.7298  0.1320
 3516SOL     OW10867   3.554   5.199   5.058  0.2623  0.1803  0.7721
 3516SOL    HW110868   3.458   5.198   5.086 -0.1540  0.0354 -0.5978
 3516SOL    HW210869   3.601   5.277   5.102 -1.0854  1.7269 -0.3976
 3517SOL     OW10870   1.860   5.072   3.426 -0.2508  0.5490  0.7264
 3517SOL    HW110871   1.875   4.999   3.493  1.9041 -0.6112 -0.9065
 3517SOL    HW210872   1.762   5.078   3.405 -0.6382 -0.9153  1.9250
 3518SOL     OW10873   3.988   4.484   4.775  0.0596  0.1288  0.0993
 3518SOL    HW110874   3.995   4.404   4.834 -0.8265  0.1224  0.2010
 3518SOL    HW210875   4.020   4.461   4.683 -0.8749 -0.5409 -0.0587
 3519SOL     OW10876   3.838   5.163   3.751  0.3822  0.7630  0.1536
 3519SOL    HW110877   3.936   5.155   3.769  0.4093  0.5563 -0.0874
 3519SOL    HW210878   3.824   5.209   3.664  0.2826 -0.0401 -0.2636
 3520SOL     OW10879   3.190   5.230   3.840  0.6985 -0.2618 -0.2313
 3520SOL    HW110880   3.159   5.181   3.758 -0.5858  0.1955 -0.0482
 3520SOL    HW210881   3.283   5.202   3.863  0.5291 -1.5042 -0.9810
 3521SOL     OW10882   2.121   5.178   4.883  0.1077 -0.3941 -0.2766
 3521SOL    HW110883   2.033   5.135   4.903  0.3830 -0.7632  0.1715
 3521SOL    HW210884   2.106   5.266   4.837 -0.4477 -1.8383 -3.0749
 3522SOL     OW10885   4.166   0.241   5.178 -0.3432  0.0048  0.0724
 3522SOL    HW110886   4.247   0.197   5.216  1.6296  2.1736 -1.3249
 3522SOL    HW210887   4.152   0.209   5.084 -0.3781  0.4904 -0.0903
 3523SOL     OW10888   3.247   3.533   3.595 -0.3710  0.2668 -0.5418
 3523SOL    HW110889   3.148   3.525   3.607 -0.2639 -1.5406 -0.6205
 3523SOL    HW210890   3.276   3.625   3.621 -1.6876  0.0164  2.1223
 3524SOL     OW10891   3.341   5.172   0.334  0.0412  0.8977  0.2117
 3524SOL    HW110892   3.361   5.113   0.255  0.3285 -0.7269  1.4547
 3524SOL    HW210893   3.310   5.116   0.410  2.0506  2.1448  2.0424
 3525SOL     OW10894   3.382   4.794   3.850  0.0200  0.2570 -0.1680
 3525SOL    HW110895   3.395   4.831   3.758  1.8526 -0.3085 -0.1702
 3525SOL    HW210896   3.413   4.861   3.918 -0.4496  0.2973  0.0157
 3526SOL     OW10897   3.333   4.494   0.527 -0.5879  0.3742  0.0575
 3526SOL    HW110898   3.270   4.432   0.480  2.2218 -2.8212  0.1803
 3526SOL    HW210899   3.332   4.474   0.625 -0.7215  1.6584  0.3419
 3527SOL     OW10900   2.642   3.459   4.518  0.1538 -0.1554 -0.2125
 3527SOL    HW110901   2.604   3.474   4.609 -0.5423  1.3097 -0.7114
 3527SOL    HW210902   2.698   3.376   4.518 -1.3370 -1.2104  1.0750
 3528SOL     OW10903   3.918   4.745   4.390 -0.3947  0.5503 -0.3166
 3528SOL    HW110904   3.963   4.767   4.304 -2.2525 -2.2644 -2.1718
 3528SOL    HW210905   3.986   4.719   4.458  1.0403  1.6278 -1.2967
 3529SOL     OW10906   3.786   4.800   5.421  0.2154  0.2467  0.5091
 3529SOL    HW110907   3.743   4.890   5.417 -1.1025 -0.3446 -3.9586
 3529SOL    HW210908   3.719   4.733   5.455  0.1585  0.4919  0.8828
 3530SOL     OW10909   2.681   3.786   4.146 -0.0062 -0.2033 -0.1383
 3530SOL    HW110910   2.603   3.845   4.123  0.2417  0.9738  1.8457
 3530SOL    HW210911   2.694   3.719   4.073  0.1238  2.5721 -2.8785
 3531SOL     OW10912   3.474   3.411   3.707 -0.3556  0.2510 -0.5019
 3531SOL    HW110913   3.387   3.449   3.675 -0.6280  1.3923  1.4589
 3531SOL    HW210914   3.488   3.436   3.803  0.9229 -2.1087 -0.0129
 3532SOL     OW10915   2.469   5.230   4.539  0.1415  0.1986 -0.8114
 3532SOL    HW110916   2.373   5.209   4.557 -0.0791  1.6186 -0.1927
 3532SOL    HW210917   2.489   5.216   4.442 -0.2822 -1.5358 -0.6866
 3533SOL     OW10918   2.576   4.780   4.621 -0.2183  0.0223 -0.1794
 3533SOL    HW110919   2.619   4.753   4.707  1.0602  0.0529 -0.7771
 3533SOL    HW210920   2.504   4.714   4.598 -1.0533  0.3907  1.2272
 3534SOL     OW10921   3.912   3.967   5.424 -0.8687 -0.2920  0.6380
 3534SOL    HW110922   3.895   3.869   5.415  0.0598 -0.5221  1.2361
 3534SOL    HW210923   3.862   4.002   5.504  0.1144 -0.6410  1.4364
 3535SOL     OW10924   2.943   4.974   0.874  0.0960 -0.3698 -0.0974
 3535SOL    HW110925   2.985   5.057   0.837  0.6091 -0.6101 -0.0614
 3535SOL    HW210926   3.014   4.905   0.892 -0.4824 -1.4867 -1.8212
 3536SOL     OW10927   2.523   4.437   3.135 -0.3694  0.0648 -0.2388
 3536SOL    HW110928   2.480   4.515   3.091  0.4396 -0.4300 -1.9853
 3536SOL    HW210929   2.457   4.392   3.196 -0.8874  1.9570  0.6636
 3537SOL     OW10930   3.435   4.739   4.296  0.3496 -0.3938  0.1802
 3537SOL    HW110931   3.340   4.768   4.281  0.3656  0.2091  1.1097
 3537SOL    HW210932   3.496   4.818   4.284  0.6620 -0.6225  0.2533
 3538SOL     OW10933   1.645   4.866   4.537 -0.1045 -0.2311  0.5187
 3538SOL    HW110934   1.573   4.890   4.601 -0.4408  0.8352 -0.2496
 3538SOL    HW210935   1.717   4.936   4.539 -0.4078  0.1307 -0.7034
 3539SOL     OW10936   1.827   5.324   4.525 -0.1557 -0.3688  0.3317
 3539SOL    HW110937   1.781   5.241   4.556 -0.5003 -0.6691 -0.9219
 3539SOL    HW210938   1.874   5.306   4.438 -1.8703  1.2022 -1.0311
 3540SOL     OW10939   2.983   2.986   4.014  0.0978 -0.2429  0.2849
 3540SOL    HW110940   3.054   2.957   4.078  1.0844  1.9903  0.2834
 3540SOL    HW210941   3.002   2.950   3.923  2.3279  1.7692 -0.1303
 3541SOL     OW10942   3.170   4.330   0.370 -0.4303  0.8745 -0.0752
 3541SOL    HW110943   3.242   4.263   0.354 -0.3693  0.4208  1.9251
 3541SOL    HW210944   3.097   4.316   0.302  0.5812  0.2708 -1.0838
 3542SOL     OW10945   3.189   0.630   2.776  0.3667  0.3831  0.6121
 3542SOL    HW110946   3.164   0.693   2.702  1.1885 -0.0344 -0.0446
 3542SOL    HW210947   3.107   0.597   2.821 -0.2173 -0.0460 -0.7131
 3543SOL     OW10948   1.748   4.414   5.018  0.9684 -0.7442  0.0308
 3543SOL    HW110949   1.747   4.373   4.927 -1.1282 -2.3576  0.6942
 3543SOL    HW210950   1.802   4.358   5.080  0.4155 -0.9884  0.3020
 3544SOL     OW10951   2.159   0.323   3.230 -0.2044 -0.5404  0.5561
 3544SOL    HW110952   2.074   0.357   3.269  0.2135 -0.3625  1.3330
 3544SOL    HW210953   2.187   0.382   3.154  0.7445  1.1854  2.1676
 3545SOL     OW10954   1.593   5.196   4.181 -0.3071  0.2377  0.0541
 3545SOL    HW110955   1.574   5.283   4.226 -1.1903 -0.3813  0.9074
 3545SOL    HW210956   1.689   5.172   4.194 -0.0716  1.0476 -0.1384
 3546SOL     OW10957   3.689   4.639   4.141 -0.3339  0.2460 -0.0749
 3546SOL    HW110958   3.786   4.626   4.120 -0.1749 -2.0380  1.6822
 3546SOL    HW210959   3.667   4.737   4.137  2.1473  0.8840 -0.0769
 3547SOL     OW10960   2.881   5.338   0.722 -0.0449 -0.2932 -0.0308
 3547SOL    HW110961   2.970   5.294   0.704 -0.1718 -0.2740 -0.7056
 3547SOL    HW210962   2.863   5.406   0.652  0.0270  0.6715  0.8656
 3548SOL     OW10963   2.270   4.836   3.362 -0.7855 -0.0202 -0.0675
 3548SOL    HW110964   2.364   4.865   3.382 -1.1525 -0.1423  2.0145
 3548SOL    HW210965   2.257   4.743   3.395 -1.8621  0.2595  0.3176
 3549SOL     OW10966   4.257   4.805   0.329 -0.1546  0.5993 -0.0809
 3549SOL    HW110967   4.170   4.814   0.377  0.2835  0.6512  0.7129
 3549SOL    HW210968   4.301   4.719   0.354  0.0205  0.5665 -0.4857
 3550SOL     OW10969   2.523   4.164   0.926  0.3222  0.7173  0.3887
 3550SOL    HW110970   2.478   4.253   0.932  0.0631  0.6494 -0.4224
 3550SOL    HW210971   2.531   4.124   1.017 -0.6196  1.0429  0.6221
 3551SOL     OW10972   3.027   0.305   5.045 -0.5287 -0.2966  0.3259
 3551SOL    HW110973   3.093   0.353   5.101  0.3023 -0.9150 -0.1026
 3551SOL    HW210974   3.013   0.354   4.959 -1.1120  0.1613  0.6696
 3552SOL     OW10975   1.224   4.626   5.052  0.2087  0.1181 -0.1129
 3552SOL    HW110976   1.210   4.724   5.034  0.5835  0.1001 -0.5040
 3552SOL    HW210977   1.165   4.572   4.992  0.6340  0.0858 -0.5079
 3553SOL     OW10978   2.982   4.883   2.431  0.1299  0.2849 -0.4802
 3553SOL    HW110979   2.963   4.978   2.455 -2.9509 -0.0640 -1.0885
 3553SOL    HW210980   2.898   4.829   2.442  1.7264 -2.3391 -0.3705
 3554SOL     OW10981   0.776   0.469   3.174 -0.0798 -0.2147  0.3561
 3554SOL    HW110982   0.689   0.433   3.205 -0.3452  0.0785 -0.0332
 3554SOL    HW210983   0.851   0.420   3.219 -0.3908 -2.2797 -1.2096
 3555SOL     OW10984   3.205   4.464   3.139 -0.3161  0.4522 -0.0161
 3555SOL    HW110985   3.169   4.557   3.126 -0.9746  0.1339 -0.4895
 3555SOL    HW210986   3.191   4.411   3.056 -1.6338 -0.6364  0.8693
 3556SOL     OW10987   2.710   0.754   4.621 -0.5293 -0.1616  0.6609
 3556SOL    HW110988   2.705   0.724   4.526 -0.1787 -0.6681  0.8001
 3556SOL    HW210989   2.756   0.843   4.626 -1.0922  0.1593  0.3035
 3557SOL     OW10990   2.804   4.799   4.442 -0.0685  0.0198  0.4151
 3557SOL    HW110991   2.731   4.763   4.500  0.6398  0.3726  1.5581
 3557SOL    HW210992   2.805   4.899   4.448 -0.9445  0.1765 -1.4164
 3558SOL     OW10993   2.664   4.433   3.854 -0.1008  0.4322 -0.5611
 3558SOL    HW110994   2.688   4.380   3.773  2.0759 -1.2398  1.0517
 3558SOL    HW210995   2.748   4.459   3.903 -1.2896  2.3509  0.6000
 3559SOL     OW10996   3.375   3.420   0.214 -0.2154  0.3761  0.0293
 3559SOL    HW110997   3.353   3.373   0.299  1.2542  2.4429  1.6525
 3559SOL    HW210998   3.475   3.422   0.202 -0.3203  1.7485 -0.7725
 3560SOL     OW10999   3.261   3.565   4.696 -0.1230 -0.0543 -0.2052
 3560SOL    HW111000   3.208   3.620   4.761 -0.9150 -1.3240  0.2543
 3560SOL    HW211001   3.198   3.517   4.634  0.5833  0.2363 -1.1751
 3561SOL     OW11002   2.567   3.782   4.806  0.7047  0.1705 -0.0256
 3561SOL    HW111003   2.555   3.833   4.892  2.0709  0.8448 -0.1974
 3561SOL    HW211004   2.655   3.734   4.808 -0.4346 -2.0207  0.0132
 3562SOL     OW11005   2.709   4.712   4.855 -0.2247 -0.4010  0.1984
 3562SOL    HW111006   2.782   4.648   4.878  0.2653  0.3245  0.6806
 3562SOL    HW211007   2.724   4.799   4.902 -0.0346  0.6011 -1.6139
 3563SOL     OW11008   3.070   3.505   4.486  0.3729 -0.1960  0.4288
 3563SOL    HW111009   3.087   3.444   4.408 -1.4074  0.4526 -0.5381
 3563SOL    HW211010   3.025   3.454   4.559 -2.5666  0.1817 -0.9938
 3564SOL     OW11011   3.125   4.016   4.800 -0.2708  0.3682 -0.3748
 3564SOL    HW111012   3.205   4.075   4.805 -1.2382  1.6216  1.7204
 3564SOL    HW211013   3.056   4.059   4.741 -1.7290  2.5304  2.5921
 3565SOL     OW11014   2.455   3.928   4.082  0.1347 -0.3638 -0.1687
 3565SOL    HW111015   2.357   3.908   4.084  0.0104  0.0299  2.8901
 3565SOL    HW211016   2.471   4.012   4.029 -1.1415 -0.5452 -0.8685
 3566SOL     OW11017   2.863   3.617   3.243  0.2094  0.4401 -0.1884
 3566SOL    HW111018   2.856   3.521   3.271  0.7501  0.5190  0.2277
 3566SOL    HW211019   2.835   3.676   3.318 -0.4740  0.6097 -0.5637
 3567SOL     OW11020   3.453   4.252   5.070  0.7371 -0.5074  0.2682
 3567SOL    HW111021   3.510   4.299   5.137 -0.8018  0.1642  1.1487
 3567SOL    HW211022   3.385   4.196   5.117 -0.4324  0.0467 -0.7059
 3568SOL     OW11023   2.108   2.780   4.408  0.5126  0.4345  0.2623
 3568SOL    HW111024   2.198   2.798   4.447  0.7033  1.1868 -0.4949
 3568SOL    HW211025   2.093   2.681   4.403  1.1194  0.3084  0.7684
 3569SOL     OW11026   2.569   5.061   4.139  0.6893 -0.5378  0.0045
 3569SOL    HW111027   2.531   5.010   4.216  2.2522 -0.8896  0.5726
 3569SOL    HW211028   2.649   5.013   4.103  0.7171  0.2641 -1.0394
 3570SOL     OW11029   2.360   4.082   4.810 -0.1189  0.1053  0.0536
 3570SOL    HW111030   2.352   4.178   4.835 -0.6582 -0.4354  2.1984
 3570SOL    HW211031   2.432   4.040   4.866  0.0938 -0.7377 -0.8403
 3571SOL     OW11032   2.686   5.388   5.194  0.0643  0.4697 -0.8616
 3571SOL    HW111033   2.621   5.417   5.123 -0.4652  1.1065 -0.1269
 3571SOL    HW211034   2.659   5.427   5.282  1.5133  0.8211 -0.5617
 3572SOL     OW11035   2.587   5.107   5.605 -0.0745  0.0108  0.0856
 3572SOL    HW111036   2.563   5.012   5.627  0.6276  0.1324  1.4742
 3572SOL    HW211037   2.535   5.136   5.524  0.9258 -2.0836 -1.4166
 3573SOL     OW11038   2.908   1.069   3.630 -0.2929 -0.2125  0.3886
 3573SOL    HW111039   2.880   0.974   3.621 -0.5263 -0.1940  0.8493
 3573SOL    HW211040   2.829   1.125   3.655 -0.0716  0.0288  0.5622
 3574SOL     OW11041   2.570   4.889   3.366 -0.3831  0.1170 -0.3886
 3574SOL    HW111042   2.572   4.989   3.376  0.6190  0.0158  0.5676
 3574SOL    HW211043   2.615   4.864   3.280  1.5216  0.3910  0.4673
 3575SOL     OW11044   0.277   4.720   5.602  0.1146 -0.0663 -0.3106
 3575SOL    HW111045   0.191   4.768   5.584 -1.3540 -1.5921  2.1308
 3575SOL    HW211046   0.287   4.644   5.537  0.2163  0.7804 -1.3097
 3576SOL     OW11047   1.102   4.185   4.937 -0.0219 -0.1312 -0.2649
 3576SOL    HW111048   1.195   4.162   4.909  0.1660  1.0746 -0.6960
 3576SOL    HW211049   1.037   4.142   4.875  0.3172  0.5989 -1.1461
 3577SOL     OW11050   3.117   4.107   3.389 -0.5261  0.0345  0.2040
 3577SOL    HW111051   3.059   4.104   3.308 -0.6372  0.7218  0.2563
 3577SOL    HW211052   3.200   4.160   3.369 -0.8669  0.7811  0.7373
 3578SOL     OW11053   2.167   3.850   3.713  0.1487 -0.2096  0.1066
 3578SOL    HW111054   2.235   3.777   3.714 -0.0144 -0.3605  0.2542
 3578SOL    HW211055   2.076   3.812   3.730  0.2371  0.2016  1.6757
 3579SOL     OW11056   3.415   3.815   4.941 -0.2540  0.1227 -0.3780
 3579SOL    HW111057   3.465   3.899   4.961  0.1589 -0.3709  0.7326
 3579SOL    HW211058   3.433   3.788   4.846  0.5500  0.6542 -0.3875
 3580SOL     OW11059   3.157   4.663   0.085  0.4872  0.0040  0.5056
 3580SOL    HW111060   3.150   4.604   0.004 -0.8565  0.6820  0.1051
 3580SOL    HW211061   3.078   4.647   0.144  1.7736 -0.9524  2.0316
 3581SOL     OW11062   4.150   5.100   3.182 -0.5268  0.2342 -0.2483
 3581SOL    HW111063   4.182   5.175   3.125  0.4859 -0.8289 -1.1229
 3581SOL    HW211064   4.157   5.014   3.132  1.0474 -0.8447  1.6558
 3582SOL     OW11065   2.849   4.309   3.449  0.0483  0.2101  0.1058
 3582SOL    HW111066   2.910   4.233   3.428 -0.4766 -0.2422  0.2011
 3582SOL    HW211067   2.782   4.318   3.376 -0.6746 -0.2301  0.6978
 3583SOL     OW11068   4.052   1.282   3.459 -0.3903  0.2449  0.4794
 3583SOL    HW111069   4.012   1.363   3.416 -3.5618 -1.4276  0.0001
 3583SOL    HW211070   4.058   1.208   3.391  1.2164 -0.3550  1.2287
 3584SOL     OW11071   3.522   5.383   3.494  0.0730  0.2552  0.7413
 3584SOL    HW111072   3.487   5.294   3.463  1.6777 -0.4108  0.7387
 3584SOL    HW211073   3.496   5.398   3.589 -1.1647  0.3025  0.4027
 3585SOL     OW11074   0.909   3.834   3.067 -0.3017  0.0911  0.1556
 3585SOL    HW111075   0.821   3.825   3.115 -0.1385  0.7546  0.5952
 3585SOL    HW211076   0.983   3.814   3.130 -0.1117  0.1855 -0.0383
 3586SOL     OW11077   2.983   4.722   5.277 -0.2870  0.0935 -0.0642
 3586SOL    HW111078   2.902   4.680   5.237  0.0152 -2.0866  1.4230
 3586SOL    HW211079   2.956   4.784   5.351 -0.6308 -0.9830  0.7406
 3587SOL     OW11080   2.125   4.027   0.875  0.2849 -0.2201  0.2945
 3587SOL    HW111081   2.075   4.046   0.789 -2.7883 -1.1278  1.7192
 3587SOL    HW211082   2.165   3.936   0.870  0.8491  0.0592 -0.4691
 3588SOL     OW11083   3.922   1.341   5.388 -0.2499 -0.2357  0.3183
 3588SOL    HW111084   3.880   1.278   5.453 -2.1039  0.9316  0.3291
 3588SOL    HW211085   3.854   1.406   5.356  0.5639 -0.7357 -2.8132
 3589SOL     OW11086   3.022   5.394   4.813 -0.1303  0.2739  0.5941
 3589SOL    HW111087   3.025   5.348   4.902  2.0928  2.1480  1.5931
 3589SOL    HW211088   3.058   5.487   4.822  1.9990 -0.0829 -2.6128
 3590SOL     OW11089   4.075   0.183   4.939 -0.0270 -0.2636  0.2132
 3590SOL    HW111090   4.039   0.112   4.878 -0.4797  0.2230 -0.1059
 3590SOL    HW211091   4.002   0.249   4.958 -0.4292 -1.3382  2.7332
 3591SOL     OW11092   3.215   3.803   5.431 -0.4466 -0.0545 -0.0268
 3591SOL    HW111093   3.221   3.727   5.366  0.9219 -0.8689  1.0047
 3591SOL    HW211094   3.265   3.882   5.396 -0.0914 -0.3396 -0.1590
 3592SOL     OW11095   3.651   3.380   0.254  0.2586  0.3364  0.5719
 3592SOL    HW111096   3.728   3.317   0.261 -2.0667 -2.5716  2.8140
 3592SOL    HW211097   3.674   3.466   0.298  2.3512 -0.2679  0.7655
 3593SOL     OW11098   2.087   4.360   4.801  0.1836 -0.1206  0.6217
 3593SOL    HW111099   1.988   4.355   4.793  0.2564  0.8731 -1.7725
 3593SOL    HW211100   2.127   4.382   4.712  2.5109  0.3143  1.6868
 3594SOL     OW11101   2.880   3.761   3.715 -0.2584  0.3503  0.5483
 3594SOL    HW111102   2.891   3.798   3.623 -1.4154  4.3708  1.8423
 3594SOL    HW211103   2.801   3.804   3.759  1.6367  0.4317  4.2595
 3595SOL     OW11104   2.233   4.689   3.884  0.2375 -0.2142 -0.4433
 3595SOL    HW111105   2.324   4.731   3.875  0.4781 -0.9918 -1.8944
 3595SOL    HW211106   2.188   4.725   3.966  2.1984 -0.4773  0.8130
 3596SOL     OW11107   1.805   5.452   0.523  0.2039 -0.0001  0.0037
 3596SOL    HW111108   1.790   5.412   0.614  0.0656 -2.2492 -0.9705
 3596SOL    HW211109   1.742   5.530   0.511  1.0643  1.1473  2.2490
 3597SOL     OW11110   2.435   5.520   4.335 -0.0298 -1.0170 -0.4488
 3597SOL    HW111111   2.340   5.520   4.367 -0.9202 -0.0567 -2.7866
 3597SOL    HW211112   2.460   5.429   4.303 -0.3985 -1.1286 -0.4217
 3598SOL     OW11113   1.910   3.770   4.940  0.6412  0.0289  0.2305
 3598SOL    HW111114   1.956   3.682   4.936 -0.3115 -0.5547  1.2280
 3598SOL    HW211115   1.976   3.844   4.930  1.2543 -0.7866 -2.2082
 3599SOL     OW11116   2.442   4.255   3.554 -0.2451  0.5882  0.0889
 3599SOL    HW111117   2.402   4.330   3.606 -0.6274 -0.4606  1.3664
 3599SOL    HW211118   2.537   4.242   3.582 -0.7752 -0.7038  1.4192
 3600SOL     OW11119   3.415   0.391   5.275 -0.1211 -0.5186 -0.2174
 3600SOL    HW111120   3.445   0.296   5.263 -0.6003 -0.6722 -0.2022
 3600SOL    HW211121   3.490   0.452   5.251 -0.1542 -0.8766 -1.2753
 3601SOL     OW11122   4.775   4.987   2.862 -0.1658 -0.3563 -0.1286
 3601SOL    HW111123   4.768   4.898   2.907  0.5084  0.3959  1.5486
 3601SOL    HW211124   4.693   5.041   2.883  0.1422 -0.0094  0.2061
 3602SOL     OW11125   2.446   0.779   5.408  0.0251  0.1151  0.0042
 3602SOL    HW111126   2.373   0.750   5.346 -1.2123  1.0928  0.9220
 3602SOL    HW211127   2.525   0.718   5.399 -0.6705 -0.6080 -1.4664
 3603SOL     OW11128   2.400   4.129   0.691  0.6087 -0.2338  0.5246
 3603SOL    HW111129   2.435   4.113   0.783  2.8433  0.0088 -0.2184
 3603SOL    HW211130   2.426   4.221   0.662  1.0707 -0.7646 -0.8054
 3604SOL     OW11131   3.076   0.690   0.435 -0.1483  0.6636 -0.1693
 3604SOL    HW111132   2.977   0.701   0.434 -0.0804  1.2757 -0.5362
 3604SOL    HW211133   3.102   0.618   0.371 -0.3654  0.4100  0.0272
 3605SOL     OW11134   1.256   4.944   0.270 -0.3480 -0.1872 -0.4960
 3605SOL    HW111135   1.323   4.896   0.213 -0.2364  0.6658 -1.0931
 3605SOL    HW211136   1.296   4.963   0.360  0.7164  1.5009 -1.2866
 3606SOL     OW11137   3.174   3.874   5.019 -0.4380 -0.2036 -0.0053
 3606SOL    HW111138   3.139   3.925   4.940 -1.7632 -0.0321  0.6524
 3606SOL    HW211139   3.265   3.838   4.999  0.6488  2.5483 -0.4559
 3607SOL     OW11140   2.184   5.171   5.437 -0.2906  0.2377 -0.0212
 3607SOL    HW111141   2.118   5.195   5.365 -0.4374 -0.3852 -0.1010
 3607SOL    HW211142   2.277   5.181   5.401 -0.3367  1.0521  0.0696
 3608SOL     OW11143   3.339   3.761   4.225 -0.0229 -0.3382  0.7156
 3608SOL    HW111144   3.300   3.805   4.305  2.0290 -1.0199  2.1765
 3608SOL    HW211145   3.291   3.793   4.143 -1.4395  1.2456  2.0741
 3609SOL     OW11146   3.027   4.666   3.080  0.2258  0.3314  0.4212
 3609SOL    HW111147   2.960   4.624   3.020  0.2974  0.9413 -0.0918
 3609SOL    HW211148   3.083   4.731   3.028  0.6384  0.4737  1.0297
 3610SOL     OW11149   1.521   3.456   3.341 -0.5063  0.2204  0.1561
 3610SOL    HW111150   1.539   3.470   3.244 -0.4850 -0.6866  0.0170
 3610SOL    HW211151   1.424   3.470   3.359 -0.3467  1.3375  0.1899
 3611SOL     OW11152   2.813   0.151   5.286 -0.0160 -0.0725  0.2041
 3611SOL    HW111153   2.818   0.192   5.195 -0.3159  1.1310  0.6962
 3611SOL    HW211154   2.717   0.146   5.315  0.0182 -1.1934  0.1351
 3612SOL     OW11155   3.482   3.743   4.661 -0.1128  0.5178  0.2218
 3612SOL    HW111156   3.390   3.707   4.644  0.1570 -1.0239  1.8196
 3612SOL    HW211157   3.549   3.686   4.614  0.1889  0.0015  1.2453
 3613SOL     OW11158   4.071   5.343   1.082 -0.0818 -0.4934  0.1365
 3613SOL    HW111159   4.120   5.269   1.128 -1.3963 -0.7363  1.2123
 3613SOL    HW211160   3.975   5.340   1.107 -0.3116  1.1325 -0.4066
 3614SOL     OW11161   2.914   4.044   3.566  0.0564 -0.1429 -0.1361
 3614SOL    HW111162   2.862   3.979   3.510  1.3332 -2.0769  0.8055
 3614SOL    HW211163   3.000   4.066   3.519 -0.1573  0.5052 -0.2292
 3615SOL     OW11164   3.606   4.376   4.167 -0.2737  0.0079  0.0936
 3615SOL    HW111165   3.627   4.321   4.085 -0.4322 -0.2839  0.2497
 3615SOL    HW211166   3.630   4.471   4.149 -0.0697 -0.0969 -0.2075
 3616SOL     OW11167   3.354   4.299   4.414 -0.2880 -0.0192  0.4465
 3616SOL    HW111168   3.443   4.337   4.438  0.0555 -0.0641 -0.7148
 3616SOL    HW211169   3.312   4.354   4.342 -0.9597 -0.3120  0.6033
 3617SOL     OW11170   2.965   4.459   4.307 -0.9287  0.2251 -1.2084
 3617SOL    HW111171   3.032   4.433   4.237 -0.3141  0.2500 -0.6442
 3617SOL    HW211172   2.968   4.558   4.320 -0.9183  0.2022 -1.0338
 3618SOL     OW11173   4.134   0.426   0.038 -0.3707  0.4690 -0.1675
 3618SOL    HW111174   4.193   0.375   0.100  0.4079  1.3747 -0.1354
 3618SOL    HW211175   4.176   0.428  -0.053 -0.1724  1.3824 -0.0681
 3619SOL     OW11176   5.438   4.254   4.214  0.5450 -0.1569  0.1829
 3619SOL    HW111177   5.527   4.299   4.217 -0.1336  1.2192  1.6698
 3619SOL    HW211178   5.435   4.183   4.284  0.0359  0.7761  1.1453
 3620SOL     OW11179   1.877   4.756   2.813 -0.8002 -0.1132  0.0683
 3620SOL    HW111180   1.864   4.845   2.769 -0.2573  1.4626  2.8425
 3620SOL    HW211181   1.791   4.728   2.857 -0.9834 -1.0288 -0.8311
 3621SOL     OW11182   3.130   5.098   3.579 -0.2102  0.0266  0.6062
 3621SOL    HW111183   3.195   5.117   3.506  0.6798 -0.9606  1.1218
 3621SOL    HW211184   3.063   5.030   3.547 -1.2167  1.2697 -0.0286
 3622SOL     OW11185   3.316   4.074   3.864 -0.0726  0.3745  0.3731
 3622SOL    HW111186   3.376   4.027   3.799 -0.6181 -2.5012  1.7815
 3622SOL    HW211187   3.224   4.081   3.825 -0.3953 -1.3260  0.7499
 3623SOL     OW11188   1.827   5.052   3.851  0.3590 -0.1243  0.1030
 3623SOL    HW111189   1.779   5.093   3.774  1.0133  0.6583  0.1058
 3623SOL    HW211190   1.925   5.058   3.837  0.4933  0.4226  1.1959
 3624SOL     OW11191   2.697   5.020   2.193 -0.2970 -0.7204 -0.3809
 3624SOL    HW111192   2.711   4.969   2.108 -0.9235 -2.1621  0.3485
 3624SOL    HW211193   2.737   4.970   2.269 -1.1711 -0.2764  0.3923
 3625SOL     OW11194   2.067   4.947   0.048  0.0327  0.2824 -0.0380
 3625SOL    HW111195   2.104   4.860   0.079  0.6073  0.3611 -0.4810
 3625SOL    HW211196   2.131   5.020   0.071  0.3820  0.3659 -1.2063
 3626SOL     OW11197   2.020   0.077   4.360  0.1923 -0.4782  0.5634
 3626SOL    HW111198   1.949   0.107   4.423  0.1286  1.9985 -0.5859
 3626SOL    HW211199   2.089   0.148   4.350  1.7640 -2.0065  0.0660
 3627SOL     OW11200   1.187   5.352   4.882 -0.1118 -0.4785 -0.2068
 3627SOL    HW111201   1.278   5.373   4.920  0.3633 -0.7020 -1.1901
 3627SOL    HW211202   1.122   5.422   4.912  0.8301  0.8561 -1.1211
 3628SOL     OW11203   2.557   0.514   4.640 -0.5167  0.0999  0.3082
 3628SOL    HW111204   2.624   0.442   4.620 -1.1082  0.0815 -1.7837
 3628SOL    HW211205   2.602   0.603   4.637 -0.6355  0.1309 -1.6310
 3629SOL     OW11206   2.510   3.956   4.990 -0.0974  0.4396  0.0194
 3629SOL    HW111207   2.470   3.898   5.060  0.0465  0.0602 -0.2129
 3629SOL    HW211208   2.581   4.014   5.032 -0.9120  1.1592  0.4424
 3630SOL     OW11209   2.971   4.372   4.567 -0.0172 -0.5329 -0.0976
 3630SOL    HW111210   2.977   4.409   4.474 -0.3733  1.4069  0.6039
 3630SOL    HW211211   3.059   4.382   4.612 -1.1096  4.0636  1.6344
 3631SOL     OW11212   0.582   4.664   4.316 -0.3720  0.0140 -0.6369
 3631SOL    HW111213   0.518   4.590   4.298  1.7985 -2.1752  0.1523
 3631SOL    HW211214   0.594   4.719   4.233 -2.8047  0.2173 -0.9328
 3632SOL     OW11215   4.062   4.574   0.402  0.0406  0.0282  0.3606
 3632SOL    HW111216   4.023   4.532   0.321  0.5449 -0.5133  0.3875
 3632SOL    HW211217   4.139   4.519   0.435  0.0195  0.3862  1.0443
 3633SOL     OW11218   3.761   4.387   3.572  0.2068  0.3606  0.1263
 3633SOL    HW111219   3.739   4.377   3.475  0.1744  0.0073  0.1688
 3633SOL    HW211220   3.711   4.318   3.624 -2.8563  2.8671  0.8392
 3634SOL     OW11221   4.266   0.674   5.305 -0.1582 -0.0105  0.0426
 3634SOL    HW111222   4.189   0.635   5.254 -0.6073  2.0933 -1.0223
 3634SOL    HW211223   4.332   0.713   5.240  0.6591  0.2793  1.0240
 3635SOL     OW11224   2.373   0.197   0.549 -0.5948 -0.3262 -0.0666
 3635SOL    HW111225   2.371   0.104   0.512 -0.6096 -0.3487 -0.0101
 3635SOL    HW211226   2.466   0.220   0.577 -0.0651  0.5938 -2.3777
 3636SOL     OW11227   2.785   3.699   5.338 -0.0097 -0.3037 -0.3112
 3636SOL    HW111228   2.791   3.702   5.438 -1.1407 -0.6040 -0.2300
 3636SOL    HW211229   2.852   3.763   5.299  0.4633 -0.2100  0.6301
 3637SOL     OW11230   1.073   0.150   5.432 -0.4889  0.1517 -0.5000
 3637SOL    HW111231   1.134   0.226   5.455 -0.1726 -0.3619  0.3817
 3637SOL    HW211232   1.025   0.171   5.347  2.6829 -0.4127 -2.6312
 3638SOL     OW11233   2.891   4.391   2.808  0.0559 -0.3002  0.4041
 3638SOL    HW111234   2.979   4.358   2.842  0.2312  0.0202  0.2657
 3638SOL    HW211235   2.865   4.474   2.857 -0.2204 -0.4500  0.5152
 3639SOL     OW11236   2.657   5.118   1.035  0.3265 -0.2247  0.3625
 3639SOL    HW111237   2.639   5.178   0.957  0.8885  0.4869  0.7712
 3639SOL    HW211238   2.688   5.028   1.003 -0.5303 -0.3085 -0.2538
 3640SOL     OW11239   3.955   0.798   5.123  0.3071  0.1469 -0.6110
 3640SOL    HW111240   4.018   0.720   5.121  1.2221  0.7889  1.1047
 3640SOL    HW211241   3.987   0.865   5.191 -1.7348  0.9487 -0.3799
 3641SOL     OW11242   3.270   5.590   4.020  0.7805 -0.5802 -0.2072
 3641SOL    HW111243   3.356   5.539   4.025  1.1858  0.0824 -0.3750
 3641SOL    HW211244   3.216   5.572   4.102  1.8321  0.3323  0.7097
 3642SOL     OW11245   4.178   4.204   0.308  0.3831  0.1396 -0.2466
 3642SOL    HW111246   4.198   4.278   0.372 -0.7439  0.6508 -0.4523
 3642SOL    HW211247   4.123   4.134   0.353 -1.0190  0.8417 -0.8124
 3643SOL     OW11248   2.818   5.471   4.660 -0.4877 -0.4574  0.3538
 3643SOL    HW111249   2.882   5.434   4.727  0.7154 -0.3271 -0.7008
 3643SOL    HW211250   2.828   5.570   4.656  0.4869 -0.5927 -1.0389
 3644SOL     OW11251   2.041   4.544   5.070  0.5175 -0.4257 -0.6841
 3644SOL    HW111252   2.133   4.584   5.076 -0.8526  3.1901 -1.2469
 3644SOL    HW211253   2.028   4.501   4.980  1.8904 -1.8595 -0.2451
 3645SOL     OW11254   2.443   0.239   1.084  0.4581 -0.2884  0.0253
 3645SOL    HW111255   2.394   0.227   1.170  1.2058  0.2275  0.5339
 3645SOL    HW211256   2.418   0.327   1.043  0.0621 -0.5571 -0.3176
 3646SOL     OW11257   4.002   4.759   3.793  0.3680 -0.0493  0.2272
 3646SOL    HW111258   4.098   4.784   3.776  0.9918 -3.5657 -2.7113
 3646SOL    HW211259   3.996   4.662   3.813 -2.7013 -0.1860 -0.8871
 3647SOL     OW11260   3.481   5.414   4.048 -0.8411 -0.4109  0.4644
 3647SOL    HW111261   3.465   5.404   4.146 -1.4911  0.0496  0.4135
 3647SOL    HW211262   3.565   5.367   4.023 -1.2159 -1.4240  1.0613
 3648SOL     OW11263   2.948   5.148   0.115  0.1563 -0.4664  0.6359
 3648SOL    HW111264   2.872   5.212   0.124  1.5786  1.2007  1.4408
 3648SOL    HW211265   3.019   5.171   0.182  2.4943 -0.3203 -1.7381
 3649SOL     OW11266   3.325   0.169   3.609 -0.4998  0.5402  0.1614
 3649SOL    HW111267   3.282   0.140   3.694  1.4181 -0.9865  0.6901
 3649SOL    HW211268   3.361   0.262   3.620 -1.8593  1.0656  0.3575
 3650SOL     OW11269   4.027   5.425   5.429  0.0292 -0.2441 -0.0726
 3650SOL    HW111270   4.044   5.332   5.460  0.7608 -0.6187 -1.4893
 3650SOL    HW211271   4.095   5.486   5.469 -2.2733  0.3082  3.3448
 3651SOL     OW11272   2.904   4.947   3.531 -0.1228  0.5542  0.0846
 3651SOL    HW111273   2.885   4.852   3.505  3.0731  0.3177 -2.0319
 3651SOL    HW211274   2.862   5.009   3.465  0.2228  0.4292 -0.2579
 3652SOL     OW11275   4.570   5.510   0.157 -0.2416 -0.0663  0.1093
 3652SOL    HW111276   4.494   5.531   0.095 -1.4032 -0.3398  1.3807
 3652SOL    HW211277   4.619   5.430   0.123 -1.8689 -1.2213  0.3610
 3653SOL     OW11278   2.859   3.104   4.966  0.2597 -0.1665  0.2048
 3653SOL    HW111279   2.953   3.117   4.999  0.7287 -1.7453 -0.4160
 3653SOL    HW211280   2.860   3.044   4.886 -1.4642 -2.0546  1.5060
 3654SOL     OW11281   2.248   4.580   3.425  0.2388 -0.6423 -0.3918
 3654SOL    HW111282   2.286   4.574   3.517 -0.9728  0.1823  0.1924
 3654SOL    HW211283   2.263   4.493   3.377 -1.2982 -2.0345  1.4796
 3655SOL     OW11284   3.287   5.128   4.944  1.1722 -0.2121  0.5793
 3655SOL    HW111285   3.282   5.226   4.960  0.9404 -0.2451  0.7064
 3655SOL    HW211286   3.221   5.080   5.002  0.5184 -0.3574 -0.2629
 3656SOL     OW11287   3.931   5.400   5.176  0.2895 -0.2762  0.0646
 3656SOL    HW111288   3.985   5.403   5.260  0.0491  0.7941  0.1949
 3656SOL    HW211289   3.845   5.351   5.194 -0.9427  2.1392  1.1854
 3657SOL     OW11290   3.756   4.916   0.185 -0.7056  0.1477  0.1116
 3657SOL    HW111291   3.846   4.923   0.142 -1.0988  0.8452 -0.6295
 3657SOL    HW211292   3.733   4.820   0.200  0.3365 -0.0175  0.6986
 3658SOL     OW11293   3.825   0.680   3.465 -0.4964  0.1568  0.4025
 3658SOL    HW111294   3.727   0.686   3.484 -0.4583  1.4408  0.2796
 3658SOL    HW211295   3.840   0.686   3.366 -0.2973 -0.1875  0.4103
 3659SOL     OW11296   2.763   4.584   5.173  0.9970  0.2679  0.3602
 3659SOL    HW111297   2.814   4.569   5.088  1.4911  1.7157  0.3756
 3659SOL    HW211298   2.669   4.553   5.161  1.0023  0.6477 -0.7951
 3660SOL     OW11299   2.963   4.661   0.668  0.1218 -0.4056  0.4836
 3660SOL    HW111300   2.996   4.568   0.652  0.5123 -0.6424  2.4247
 3660SOL    HW211301   2.872   4.656   0.709 -0.5817  0.1473 -0.9405
 3661SOL     OW11302   2.951   5.109   2.889 -0.2650  0.8635 -0.0772
 3661SOL    HW111303   3.007   5.140   2.812  0.3337 -0.5308 -0.2426
 3661SOL    HW211304   2.856   5.139   2.876  0.4134  3.4740  0.3210
 3662SOL     OW11305   2.386   3.886   3.245  0.2980  0.2729 -0.3932
 3662SOL    HW111306   2.400   3.788   3.228  1.4589  0.2555  0.5577
 3662SOL    HW211307   2.333   3.898   3.329 -3.6295  0.4155 -2.6470
 3663SOL     OW11308   2.666   0.924   4.323 -0.1139  0.2033  0.5704
 3663SOL    HW111309   2.749   0.891   4.278 -0.5692  1.4522 -1.3037
 3663SOL    HW211310   2.670   1.024   4.331 -1.0418  0.2007  1.3238
 3664SOL     OW11311   3.123   4.584   5.087  0.4277  0.1948 -0.0482
 3664SOL    HW111312   3.204   4.626   5.045 -0.0965  1.0186 -0.2504
 3664SOL    HW211313   3.085   4.647   5.155  1.9286 -1.5579  2.5690
 3665SOL     OW11314   2.718   5.501   3.266  0.0555 -0.5162 -0.2274
 3665SOL    HW111315   2.739   5.525   3.361 -0.1330  0.7085 -0.4827
 3665SOL    HW211316   2.635   5.548   3.237 -0.6500 -1.9303 -0.5988
 3666SOL     OW11317   1.760   5.481   0.799 -0.3840 -0.0761  0.0660
 3666SOL    HW111318   1.846   5.531   0.806  0.3920 -1.5370  1.8001
 3666SOL    HW211319   1.684   5.546   0.794  0.7494  1.2384 -0.9052
 3667SOL     OW11320   2.387   3.122   5.124 -0.5570  0.2064 -0.6959
 3667SOL    HW111321   2.485   3.104   5.130 -0.8253 -1.2338  0.2228
 3667SOL    HW211322   2.363   3.197   5.185 -0.3995 -1.4422  1.5394
 3668SOL     OW11323   0.932   4.925   3.974 -0.4436  0.2685 -0.0007
 3668SOL    HW111324   0.971   4.925   4.066  1.3201  4.7528 -0.4829
 3668SOL    HW211325   0.968   4.848   3.923  2.7702  0.5325  1.5900
 3669SOL     OW11326   3.355   5.433   0.005 -0.3932  0.6229 -0.3369
 3669SOL    HW111327   3.280   5.429   0.070  0.9167  0.3273  1.2153
 3669SOL    HW211328   3.424   5.497   0.037  2.0136 -2.1967  0.6033
 3670SOL     OW11329   2.015   4.475   4.102 -0.3731  0.2473 -0.7363
 3670SOL    HW111330   2.064   4.392   4.076 -0.3504  0.3920 -1.1577
 3670SOL    HW211331   2.000   4.532   4.021 -1.0283  0.3137 -0.5724
 3671SOL     OW11332   2.925   5.132   4.700  0.3690  0.5325  0.0075
 3671SOL    HW111333   2.945   5.035   4.712 -4.6077 -0.7333  0.3524
 3671SOL    HW211334   2.926   5.178   4.788  0.3718  0.2076  0.1768
 3672SOL     OW11335   2.687   5.581   4.448 -0.3878 -0.0157  0.5244
 3672SOL    HW111336   2.727   5.505   4.499 -0.2645 -0.4593 -0.2157
 3672SOL    HW211337   2.603   5.550   4.403  0.5627 -0.2344 -1.2016
 3673SOL     OW11338   3.997   4.732   4.921  0.0353 -0.0861  0.5979
 3673SOL    HW111339   3.916   4.791   4.928  0.3874  0.6005 -0.7729
 3673SOL    HW211340   3.968   4.638   4.902 -0.4699  0.0506  0.6774
 3674SOL     OW11341   2.418   4.554   4.604  0.7676  0.0055  0.2173
 3674SOL    HW111342   2.444   4.518   4.515 -1.2894 -2.5191  0.5216
 3674SOL    HW211343   2.459   4.498   4.676 -2.3413 -1.8521  0.7144
 3675SOL     OW11344   3.165   3.554   5.292 -0.1648  0.2895  0.2012
 3675SOL    HW111345   3.207   3.464   5.304  0.4751  0.7635  1.8597
 3675SOL    HW211346   3.069   3.550   5.321 -0.6725 -0.2523 -1.4399
 3676SOL     OW11347   2.301   5.303   4.222 -0.2818  0.5872  0.1929
 3676SOL    HW111348   2.217   5.345   4.191 -1.0308 -0.7014  0.3884
 3676SOL    HW211349   2.311   5.213   4.180  0.6610  0.4446  0.6809
 3677SOL     OW11350   3.799   0.074   5.203 -0.0825 -0.4982 -0.1158
 3677SOL    HW111351   3.775   0.040   5.294 -0.0453  0.1652  0.1499
 3677SOL    HW211352   3.869   0.015   5.163 -0.1502 -0.8367  0.2559
 3678SOL     OW11353   2.901   3.250   4.094 -1.1032  0.1887  0.0277
 3678SOL    HW111354   2.887   3.313   4.017  0.1494  1.1354  0.5493
 3678SOL    HW211355   2.932   3.161   4.059  0.3505  0.8849 -0.5346
 3679SOL     OW11356   1.956   4.588   3.846  0.6365  0.0364  0.1836
 3679SOL    HW111357   2.051   4.615   3.857  1.1271 -1.5684  0.1309
 3679SOL    HW211358   1.896   4.666   3.867  1.9425  1.0557  0.2284
 3680SOL     OW11359   4.368   4.630   5.507  0.4438 -0.2177 -0.5433
 3680SOL    HW111360   4.386   4.574   5.588  0.2138 -1.9037 -1.6005
 3680SOL    HW211361   4.329   4.572   5.434 -1.9774  1.7477 -0.9560
 3681SOL     OW11362   3.785   4.180   5.120 -0.4777 -0.1097  0.1051
 3681SOL    HW111363   3.873   4.152   5.159 -0.4306  0.3036  0.3034
 3681SOL    HW211364   3.780   4.280   5.118  0.7001  0.0318 -3.5139
 3682SOL     OW11365   3.417   0.452   5.558 -0.3718 -0.3426  0.1937
 3682SOL    HW111366   3.420   0.550   5.535  0.3609 -0.1707  0.9749
 3682SOL    HW211367   3.417   0.398   5.474  1.0453  0.2910 -0.2436
 3683SOL     OW11368   2.642   5.151   3.387 -0.2981  0.0351 -0.1049
 3683SOL    HW111369   2.581   5.214   3.436 -1.3019 -1.0614  0.0817
 3683SOL    HW211370   2.735   5.188   3.388 -0.7369  1.1753  0.6023
 3684SOL     OW11371   3.147   4.388   4.092 -0.3837  0.0726  0.3534
 3684SOL    HW111372   3.167   4.290   4.091  1.4627  0.3665  1.9207
 3684SOL    HW211373   3.227   4.437   4.126 -2.0805  1.9241  1.8958
 3685SOL     OW11374   3.275   4.774   2.945 -0.2077 -0.1854  0.2188
 3685SOL    HW111375   3.301   4.867   2.969  0.0214 -0.0632 -0.5038
 3685SOL    HW211376   3.265   4.766   2.846  0.8170 -1.1985  0.1880
 3686SOL     OW11377   3.760   4.155   3.307 -0.9549 -0.2680  0.3449
 3686SOL    HW111378   3.712   4.240   3.327 -0.2599  0.2457 -0.0965
 3686SOL    HW211379   3.819   4.168   3.227 -0.5724 -1.0577  0.4848
 3687SOL     OW11380   2.007   0.043   0.450  0.1400  0.4703  0.4248
 3687SOL    HW111381   1.935  -0.020   0.477  1.2556 -0.0210  2.3923
 3687SOL    HW211382   2.029   0.104   0.526  3.4092 -0.9672  0.7928
 3688SOL     OW11383   2.540   4.688   4.217 -0.2318  0.6369 -0.4736
 3688SOL    HW111384   2.492   4.601   4.231  0.0331  0.5058 -0.3852
 3688SOL    HW211385   2.508   4.755   4.285  1.6524 -0.2334  1.3794
 3689SOL     OW11386   2.760   4.300   4.204 -0.2410 -0.4018 -0.6426
 3689SOL    HW111387   2.711   4.251   4.275  2.6512 -2.4463  0.1539
 3689SOL    HW211388   2.829   4.360   4.246  1.2449 -1.3390 -1.6511
 3690SOL     OW11389   2.386   4.560   3.672 -0.4369 -0.1012  0.0831
 3690SOL    HW111390   2.452   4.629   3.702 -0.7797  0.5453 -0.6260
 3690SOL    HW211391   2.308   4.560   3.734 -0.2024 -0.2147  0.3819
 3691SOL     OW11392   3.209   4.114   4.143 -0.1395 -0.4538  0.0337
 3691SOL    HW111393   3.168   4.032   4.102  0.4074 -0.5401 -0.3629
 3691SOL    HW211394   3.186   4.118   4.240 -0.5974 -0.8070 -0.0584
 3692SOL     OW11395   4.031   0.963   5.318  0.2625  0.0320  0.8845
 3692SOL    HW111396   4.031   1.053   5.274 -1.2153 -0.2913  0.1664
 3692SOL    HW211397   4.104   0.960   5.386  0.3513  1.7764  0.9253
 3693SOL     OW11398   1.902   5.277   0.239 -0.3204 -0.0650  0.4707
 3693SOL    HW111399   1.898   5.254   0.337  2.3813  2.0353  1.1917
 3693SOL    HW211400   1.986   5.240   0.200 -0.2099  1.1315 -0.4690
 3694SOL     OW11401   2.465   1.118   4.027  0.4588  0.0942 -0.2615
 3694SOL    HW111402   2.429   1.050   4.091  1.0644 -0.6705 -0.7082
 3694SOL    HW211403   2.558   1.092   3.999  0.4154  0.7067 -1.0205
 3695SOL     OW11404   3.599   5.127   1.016 -0.0515 -0.0405 -0.7357
 3695SOL    HW111405   3.561   5.211   0.978  0.2642  1.1406  1.4053
 3695SOL    HW211406   3.674   5.095   0.958  1.9556  2.9588 -0.0252
 3696SOL     OW11407   3.357   4.481   4.207  0.2589  0.3989  0.4011
 3696SOL    HW111408   3.438   4.425   4.190  0.3633  0.5711  0.3198
 3696SOL    HW211409   3.385   4.568   4.247  0.1816  0.7377 -0.2553
 3697SOL     OW11410   2.428   5.178   2.891  0.0917  0.0681  0.3109
 3697SOL    HW111411   2.481   5.161   2.974 -1.5112  0.0895  1.3701
 3697SOL    HW211412   2.399   5.090   2.852 -1.0707  0.1010  1.0659
 3698SOL     OW11413   3.675   5.030   0.437  0.4815  0.0631  0.2533
 3698SOL    HW111414   3.586   4.996   0.469 -0.4399  2.0430 -0.0436
 3698SOL    HW211415   3.699   4.984   0.352 -0.2507 -0.5112  0.3433
 3699SOL     OW11416   3.080   4.444   3.605 -0.2410  0.0071  0.3261
 3699SOL    HW111417   3.180   4.445   3.594 -0.3690  0.4273 -1.0433
 3699SOL    HW211418   3.047   4.350   3.597 -0.0627  0.0086 -0.5137
 3700SOL     OW11419   2.220   4.664   4.333 -0.0920  0.4305  0.2102
 3700SOL    HW111420   2.197   4.747   4.383 -0.2033 -1.1826  3.0671
 3700SOL    HW211421   2.171   4.662   4.246  1.1258  4.0043 -0.7287
 3701SOL     OW11422   3.047   4.055   3.801 -0.0244 -0.1439  0.0138
 3701SOL    HW111423   3.007   4.051   3.892  1.1796 -0.4947  0.5440
 3701SOL    HW211424   2.974   4.061   3.733 -0.9485 -0.2663  0.9669
 3702SOL     OW11425   1.320   5.018   4.694  0.3603 -0.1916  0.0025
 3702SOL    HW111426   1.242   5.040   4.753  0.4918  0.7731 -0.1581
 3702SOL    HW211427   1.324   4.919   4.679 -1.1463 -0.2151 -0.4353
 3703SOL     OW11428   2.735   0.372   3.415 -0.0036 -0.0326 -0.1666
 3703SOL    HW111429   2.808   0.365   3.482 -1.0593 -0.6705  0.9425
 3703SOL    HW211430   2.773   0.406   3.328  1.6860 -0.8321  0.2173
 3704SOL     OW11431   4.613   0.960   4.719  0.3549 -0.2458 -0.1846
 3704SOL    HW111432   4.647   0.874   4.754  1.4846 -0.0305 -0.7164
 3704SOL    HW211433   4.586   0.948   4.623 -0.7618 -0.3272  0.1268
 3705SOL     OW11434   3.730   0.147   0.034  0.1826  0.4048  0.6877
 3705SOL    HW111435   3.829   0.155   0.024  0.0218  1.6363 -0.2048
 3705SOL    HW211436   3.695   0.230   0.078 -0.5263  0.2491  0.4192
 3706SOL     OW11437   3.987   0.631   0.125 -0.5363  0.2735 -0.2096
 3706SOL    HW111438   3.906   0.607   0.177 -0.7466 -1.8123 -1.3779
 3706SOL    HW211439   4.041   0.548   0.107  2.1762  1.6470  0.9914
 3707SOL     OW11440   3.525   1.801   2.059 -0.1344 -0.0267 -0.5347
 3707SOL    HW111441   3.471   1.846   1.987 -0.5679  1.2361  0.5301
 3707SOL    HW211442   3.606   1.856   2.079 -0.9326  0.6324  1.1375
 3708SOL     OW11443   4.540   1.611   0.523 -0.2826 -0.2668 -0.4045
 3708SOL    HW111444   4.453   1.563   0.513  0.2883 -1.5763  0.6518
 3708SOL    HW211445   4.594   1.568   0.595  0.5373  1.6025  0.1470
 3709SOL     OW11446   5.553   0.797   4.674 -0.3155  0.3124  0.1603
 3709SOL    HW111447   5.491   0.863   4.718 -0.3081 -0.1541  0.8764
 3709SOL    HW211448   5.570   0.826   4.579 -1.2328  0.7123  0.1076
 3710SOL     OW11449   4.876   1.196   1.063  0.9095 -0.0403 -0.5632
 3710SOL    HW111450   4.789   1.198   1.014  1.2994 -0.9838 -1.3361
 3710SOL    HW211451   4.861   1.216   1.160  0.0866  1.6196 -0.9993
 3711SOL     OW11452   4.009   0.812   1.662 -0.0670  0.0305 -0.4417
 3711SOL    HW111453   4.094   0.771   1.697  1.6893  2.1820 -1.9027
 3711SOL    HW211454   4.023   0.910   1.647 -2.8303  0.4463 -0.8056
 3712SOL     OW11455   4.373   1.061   2.254 -0.3114  0.7600  0.1254
 3712SOL    HW111456   4.380   1.149   2.206 -0.8593 -0.4017 -2.2560
 3712SOL    HW211457   4.421   0.990   2.201 -0.4323 -0.5128  1.6471
 3713SOL     OW11458   4.560   0.639   0.616  0.1223 -0.0748  0.4269
 3713SOL    HW111459   4.501   0.712   0.650 -0.1591  0.5324 -1.2916
 3713SOL    HW211460   4.577   0.573   0.690 -2.0190  0.1701  1.2108
 3714SOL     OW11461   2.196   1.040   2.133 -0.0536  0.2650  0.0502
 3714SOL    HW111462   2.237   1.028   2.043  1.8129  0.2247  0.8551
 3714SOL    HW211463   2.168   1.135   2.144  1.2736  0.6819  0.0205
 3715SOL     OW11464   4.259   0.760   0.261 -0.8802 -0.6708  0.2439
 3715SOL    HW111465   4.250   0.664   0.235 -0.8126  0.0571 -2.9163
 3715SOL    HW211466   4.207   0.817   0.197  0.5027  1.5285  0.9570
 3716SOL     OW11467   5.351   2.483   1.204  0.6797  0.1239  0.0123
 3716SOL    HW111468   5.293   2.507   1.281 -0.3679 -0.9329 -0.4222
 3716SOL    HW211469   5.366   2.384   1.202  1.3223  0.2210 -0.7078
 3717SOL     OW11470   3.563   0.673   0.932 -0.0733 -0.0889  0.7495
 3717SOL    HW111471   3.560   0.662   1.031  0.7188 -0.2833  0.7562
 3717SOL    HW211472   3.589   0.767   0.909 -0.6645  0.0707  0.7207
 3718SOL     OW11473   4.754   4.016   0.850 -0.3901 -0.0529 -0.6454
 3718SOL    HW111474   4.666   3.972   0.868 -1.4896  1.0366 -2.9471
 3718SOL    HW211475   4.752   4.110   0.886  1.1810 -1.0389  2.3691
 3719SOL     OW11476   3.281   1.369   1.779  0.1726 -0.5701  0.1107
 3719SOL    HW111477   3.212   1.427   1.823  0.4579  0.1447 -0.3761
 3719SOL    HW211478   3.354   1.350   1.845  0.3515  0.0823  0.1049
 3720SOL     OW11479   3.429   0.386   2.035 -0.3129 -0.0517 -0.1509
 3720SOL    HW111480   3.506   0.422   1.982 -1.1510  0.7636 -0.8659
 3720SOL    HW211481   3.344   0.407   1.987 -0.9479 -1.5353  0.2804
 3721SOL     OW11482   2.177   1.353   2.115 -0.4067 -0.2813 -0.5357
 3721SOL    HW111483   2.247   1.346   2.186 -0.4244  0.7652 -0.4027
 3721SOL    HW211484   2.165   1.449   2.089 -1.3878 -0.5064 -0.9604
 3722SOL     OW11485   4.444   2.751   2.383 -0.2418  0.6328  0.6857
 3722SOL    HW111486   4.352   2.714   2.393  0.7616 -2.0622  0.9146
 3722SOL    HW211487   4.473   2.745   2.288 -0.1477  1.0347  0.6885
 3723SOL     OW11488   3.931   0.823   0.608  0.1852  0.5145  0.2679
 3723SOL    HW111489   4.030   0.824   0.595  0.4091 -0.5443  1.6690
 3723SOL    HW211490   3.906   0.891   0.677 -0.1084  0.9797 -0.2891
 3724SOL     OW11491   5.021   1.525   0.026  0.3245  0.0084  0.3160
 3724SOL    HW111492   4.967   1.492   0.103 -1.3756  1.2464 -0.2663
 3724SOL    HW211493   5.013   1.461  -0.051  2.2076 -1.3443  1.1698
 3725SOL     OW11494   5.423   0.810   0.808  0.2024  0.0234  0.1232
 3725SOL    HW111495   5.365   0.729   0.801 -1.2912  0.9447  1.1098
 3725SOL    HW211496   5.506   0.788   0.859 -0.3562 -0.8096  0.6945
 3726SOL     OW11497   5.290   1.241   1.138  0.1204 -0.0847 -0.0974
 3726SOL    HW111498   5.287   1.175   1.213  1.0813 -0.7019 -0.5930
 3726SOL    HW211499   5.307   1.194   1.052 -0.5118  0.6716 -0.6546
 3727SOL     OW11500   5.214   1.229   0.730  0.4134 -0.1756  0.1308
 3727SOL    HW111501   5.298   1.283   0.731 -1.2904  2.6369  1.1096
 3727SOL    HW211502   5.166   1.243   0.643  1.7422 -3.3138 -1.2703
 3728SOL     OW11503   4.576   2.239   4.882  0.9963 -0.3334 -0.0828
 3728SOL    HW111504   4.565   2.231   4.782  1.3700  0.7852 -0.2281
 3728SOL    HW211505   4.653   2.299   4.902 -0.7650  1.7405  0.8638
 3729SOL     OW11506   0.437   2.861   0.608 -0.4428 -0.2996 -0.1695
 3729SOL    HW111507   0.407   2.807   0.686 -1.0191 -0.4033 -0.4559
 3729SOL    HW211508   0.373   2.849   0.532  0.3510 -0.5708 -0.8221
 3730SOL     OW11509   5.604   0.558   4.779 -0.1755  0.2736 -0.2098
 3730SOL    HW111510   5.543   0.542   4.858 -0.0574 -0.4611 -0.2608
 3730SOL    HW211511   5.594   0.652   4.748 -0.5419  0.4488  0.4206
 3731SOL     OW11512   3.719   1.002   2.163 -0.1125 -0.3160  0.0690
 3731SOL    HW111513   3.810   0.964   2.144  0.0788 -0.1187  0.5705
 3731SOL    HW211514   3.704   1.003   2.262  0.2433  1.7105  0.1488
 3732SOL     OW11515   5.132   2.443   0.079 -0.2397  0.1963  0.0790
 3732SOL    HW111516   5.055   2.457   0.142 -1.4966 -3.3729 -0.4460
 3732SOL    HW211517   5.218   2.455   0.129 -1.1622  1.1816  1.4934
 3733SOL     OW11518   4.844   1.382   1.369 -0.5356 -0.0247  0.4090
 3733SOL    HW111519   4.922   1.439   1.394  0.3287 -0.0173 -1.9957
 3733SOL    HW211520   4.759   1.430   1.388  0.1055  0.8224  1.1805
 3734SOL     OW11521   5.066   0.667   0.809 -0.3262 -0.0483  0.0273
 3734SOL    HW111522   5.160   0.633   0.797 -0.1781  0.2205  0.4474
 3734SOL    HW211523   5.023   0.677   0.719  0.1189  0.0339 -0.1777
 3735SOL     OW11524   3.785   0.720   1.783  0.2453  0.1616 -0.1462
 3735SOL    HW111525   3.868   0.751   1.736  0.2481  2.2641  1.1063
 3735SOL    HW211526   3.706   0.769   1.748 -0.2296 -0.6182 -0.1785
 3736SOL     OW11527   5.321   0.563   0.838  0.1898  0.3166 -0.6231
 3736SOL    HW111528   5.312   0.526   0.930 -2.8406 -0.5706 -1.1542
 3736SOL    HW211529   5.366   0.495   0.779 -1.2942 -0.7480 -0.5862
 3737SOL     OW11530   5.467   2.645   1.882  0.3520  0.3454 -0.0202
 3737SOL    HW111531   5.450   2.741   1.859 -2.2941  0.1975  1.0320
 3737SOL    HW211532   5.429   2.586   1.811  1.5261  0.0231 -0.4100
 3738SOL     OW11533   3.513   0.353   2.316 -0.7242  0.5406 -0.0537
 3738SOL    HW111534   3.451   0.291   2.364  0.7584 -0.6292  0.3954
 3738SOL    HW211535   3.481   0.365   2.222 -1.8025  0.2196  0.2573
 3739SOL     OW11536   5.560   1.696   0.331 -0.1730 -0.0087  0.2901
 3739SOL    HW111537   5.527   1.739   0.416  1.9204 -0.2319  1.2996
 3739SOL    HW211538   5.575   1.767   0.262  2.0105  0.8457  1.5183
 3740SOL     OW11539   4.242   2.859   0.786  0.3387 -0.4969 -0.3169
 3740SOL    HW111540   4.224   2.792   0.714  2.4861  0.6806 -2.0579
 3740SOL    HW211541   4.292   2.816   0.861  1.0218 -1.0169 -1.0662
 3741SOL     OW11542   3.838   1.329   0.253  0.6963  0.1848  0.6014
 3741SOL    HW111543   3.868   1.384   0.330  1.1029 -1.2445  1.5019
 3741SOL    HW211544   3.912   1.268   0.224 -0.2857 -1.1382  0.7850
 3742SOL     OW11545   5.354   5.187   0.101 -0.2620  0.4142 -0.3692
 3742SOL    HW111546   5.285   5.247   0.061 -0.4902  0.6758  0.4020
 3742SOL    HW211547   5.431   5.242   0.134 -0.1689  0.2206 -0.2641
 3743SOL     OW11548   4.927   2.724   0.429 -0.4411  0.1585 -0.3911
 3743SOL    HW111549   4.894   2.761   0.516  0.2119 -1.5185  0.6082
 3743SOL    HW211550   5.001   2.783   0.395  1.3181 -0.6758  1.7076
 3744SOL     OW11551   0.185   0.481   2.159 -0.0904  0.2000  0.1899
 3744SOL    HW111552   0.277   0.516   2.178 -0.9471  1.9693  1.4229
 3744SOL    HW211553   0.146   0.443   2.243  0.6224 -3.5382 -1.0009
 3745SOL     OW11554   3.397   1.975   1.879  0.4963  0.0592 -0.6662
 3745SOL    HW111555   3.417   2.073   1.890  0.8277 -0.0604 -0.1861
 3745SOL    HW211556   3.457   1.936   1.809  0.0108  0.3047 -1.2333
 3746SOL     OW11557   4.455   0.140   1.930  0.2911  0.1224  0.3089
 3746SOL    HW111558   4.509   0.121   1.848 -0.5064 -0.8772 -0.0132
 3746SOL    HW211559   4.497   0.093   2.009 -0.4967 -1.3270 -0.0894
 3747SOL     OW11560   4.437   1.245   0.493  0.2376  0.2738 -0.2276
 3747SOL    HW111561   4.484   1.183   0.556 -0.0450 -0.9116 -1.1517
 3747SOL    HW211562   4.428   1.335   0.536  1.9126  0.0941  0.6063
 3748SOL     OW11563   4.307   0.707   0.789  0.2104 -0.2522 -0.0529
 3748SOL    HW111564   4.238   0.726   0.859  0.3867  0.7136 -0.1235
 3748SOL    HW211565   4.283   0.756   0.705  2.1380  1.9996  0.6084
 3749SOL     OW11566   3.194   0.640   0.668  0.0766  0.2820  0.0366
 3749SOL    HW111567   3.156   0.687   0.588 -0.3643  1.1151  0.7184
 3749SOL    HW211568   3.294   0.640   0.663  0.0613 -1.9122 -1.7686
 3750SOL     OW11569   3.137   2.917   0.985  0.0890  0.4588 -0.3674
 3750SOL    HW111570   3.063   2.871   0.936  0.3541  1.6767 -2.0242
 3750SOL    HW211571   3.121   3.016   0.983 -2.0148  0.5756  5.5525
 3751SOL     OW11572   3.418   1.239   1.415 -0.3115  0.0262 -0.1347
 3751SOL    HW111573   3.381   1.237   1.322  0.5898 -0.3135 -0.4997
 3751SOL    HW211574   3.470   1.155   1.432 -2.3801 -0.9893  1.4978
 3752SOL     OW11575   0.509   0.206   3.771 -0.0778 -0.1115  0.5060
 3752SOL    HW111576   0.545   0.299   3.775 -0.3055  0.0766 -0.9981
 3752SOL    HW211577   0.557   0.149   3.837  0.7690  0.8425  0.7533
 3753SOL     OW11578   4.720   1.269   0.608  0.2962 -0.4087 -0.2196
 3753SOL    HW111579   4.664   1.188   0.624  1.5818 -1.4035 -0.6704
 3753SOL    HW211580   4.716   1.328   0.689 -0.9630 -0.7089 -0.0395
 3754SOL     OW11581   4.118   1.374   2.132  0.1740  0.3495  0.1214
 3754SOL    HW111582   4.047   1.353   2.064  0.3220  0.3264 -0.0268
 3754SOL    HW211583   4.105   1.466   2.167 -1.1250 -0.3294  1.5660
 3755SOL     OW11584   4.724   1.956   5.516 -0.4031 -0.0213 -0.4116
 3755SOL    HW111585   4.665   2.010   5.456 -0.1494  0.7551  0.0393
 3755SOL    HW211586   4.755   1.874   5.466 -1.2377 -0.0535 -0.9028
 3756SOL     OW11587   3.965   1.136   0.122  0.0191 -0.6121  0.3183
 3756SOL    HW111588   4.011   1.051   0.097  0.3785 -0.5561  0.7731
 3756SOL    HW211589   3.892   1.155   0.057 -1.2237 -2.1836  1.1676
 3757SOL     OW11590   5.124   1.175   1.652  0.2298 -0.2458  0.2897
 3757SOL    HW111591   5.153   1.255   1.600 -0.9883  0.3629  0.5034
 3757SOL    HW211592   5.024   1.168   1.649  0.3400 -2.2446 -0.4294
 3758SOL     OW11593   4.381   0.977   0.357 -0.2751  0.2922 -0.1075
 3758SOL    HW111594   4.339   0.894   0.320  0.1917 -0.0707  0.1682
 3758SOL    HW211595   4.414   1.034   0.282 -1.5025  0.7215 -0.3438
 3759SOL     OW11596   3.742   0.204   1.974  0.2268  0.3280 -0.5706
 3759SOL    HW111597   3.702   0.289   1.939 -0.1545  0.2650 -0.2917
 3759SOL    HW211598   3.818   0.176   1.915 -0.5066  0.1416 -1.4369
 3760SOL     OW11599   5.575   1.268   5.521 -0.7148  0.4664 -0.2298
 3760SOL    HW111600   5.571   1.232   5.614 -0.2382 -0.3729 -0.5311
 3760SOL    HW211601   5.482   1.289   5.489 -1.0764 -1.1354 -0.2953
 3761SOL     OW11602   4.487   0.747   1.615  0.0175  0.2289 -0.5510
 3761SOL    HW111603   4.575   0.701   1.610  1.1459  2.1978  0.1328
 3761SOL    HW211604   4.501   0.846   1.615 -2.2491  0.6025 -1.1289
 3762SOL     OW11605   5.433   0.282   0.364  1.3881 -0.3146  0.8336
 3762SOL    HW111606   5.410   0.374   0.331  1.4431 -0.6596 -0.2082
 3762SOL    HW211607   5.493   0.237   0.298  0.1753 -1.6397  0.5962
 3763SOL     OW11608   3.652   5.511   1.594 -0.8153  0.2743  0.4048
 3763SOL    HW111609   3.689   5.418   1.604  1.2178  0.9037 -0.6573
 3763SOL    HW211610   3.623   5.545   1.683 -1.5019 -1.3381  0.8254
 3764SOL     OW11611   0.557   1.083   5.235 -0.2012 -0.5637  0.0350
 3764SOL    HW111612   0.585   1.030   5.315 -0.8045  1.3198  1.6039
 3764SOL    HW211613   0.619   1.160   5.222 -0.9208 -0.0406 -0.4291
 3765SOL     OW11614   4.145   1.470   0.247  0.6279  0.3993 -0.1281
 3765SOL    HW111615   4.182   1.550   0.200  0.7910  0.6996  0.4989
 3765SOL    HW211616   4.211   1.394   0.240  0.1068  0.0398 -1.4471
 3766SOL     OW11617   4.864   1.086   1.639 -0.1568  0.4860 -0.4286
 3766SOL    HW111618   4.866   1.023   1.561 -2.3510 -1.7262  1.1482
 3766SOL    HW211619   4.776   1.133   1.641 -0.0508  0.6514  0.5968
 3767SOL     OW11620   3.066   1.592   1.215  0.2906  0.0527  0.0910
 3767SOL    HW111621   3.142   1.634   1.166 -0.4967  2.1027  0.5505
 3767SOL    HW211622   2.980   1.615   1.170 -0.2187 -0.6191  0.6824
 3768SOL     OW11623   4.885   2.422   5.214  0.0271  0.4383 -0.2290
 3768SOL    HW111624   4.849   2.382   5.130 -1.3198  1.1702 -0.0362
 3768SOL    HW211625   4.965   2.477   5.194 -1.9192  2.9941 -1.5670
 3769SOL     OW11626   3.800   1.414   0.786  0.5914  0.3140  0.4336
 3769SOL    HW111627   3.834   1.373   0.701  0.1794 -0.7410  0.7639
 3769SOL    HW211628   3.745   1.495   0.765  1.5747  0.8312 -0.2215
 3770SOL     OW11629   5.263   5.394   2.095  0.0426 -0.2036  0.0116
 3770SOL    HW111630   5.191   5.329   2.069 -0.7515  0.2750  0.9364
 3770SOL    HW211631   5.305   5.365   2.181  1.0408 -0.5239 -0.5640
 3771SOL     OW11632   4.498   0.825   0.067  0.4757  0.1793  0.1618
 3771SOL    HW111633   4.466   0.792   0.156  0.7302 -1.5326 -0.3346
 3771SOL    HW211634   4.564   0.759   0.029  1.0551  1.3250 -0.8975
 3772SOL     OW11635   4.944   0.057   2.382 -0.2498  0.0447 -0.4240
 3772SOL    HW111636   5.004   0.135   2.364 -0.3354 -0.5569 -4.0869
 3772SOL    HW211637   4.996  -0.028   2.379 -0.8806 -0.3275 -1.2514
 3773SOL     OW11638   5.032   0.892   0.556 -0.1686 -0.2830 -0.7729
 3773SOL    HW111639   5.110   0.831   0.542  1.2606  1.1100  0.7627
 3773SOL    HW211640   4.953   0.838   0.585  0.9229 -1.4671  0.1196
 3774SOL     OW11641   3.334   0.445   1.229 -0.0801 -0.1195 -0.4797
 3774SOL    HW111642   3.393   0.525   1.228 -2.1677  1.5085 -1.0857
 3774SOL    HW211643   3.344   0.395   1.143  1.4618 -0.7607  0.0262
 3775SOL     OW11644   3.247   1.640   1.006 -0.1169  0.1731 -0.0845
 3775SOL    HW111645   3.345   1.649   1.022 -0.3233  1.1267  0.7484
 3775SOL    HW211646   3.229   1.559   0.950  1.2616  0.7334 -1.4120
 3776SOL     OW11647   3.487   0.044   0.109 -0.2033  0.3036  0.0248
 3776SOL    HW111648   3.407   0.102   0.129 -0.1622 -0.1542  1.7213
 3776SOL    HW211649   3.569   0.100   0.107 -0.2556  0.4259  0.9160
 3777SOL     OW11650   3.935   5.571   1.331 -0.3741 -0.1017 -0.5453
 3777SOL    HW111651   3.953   5.650   1.274  0.5836 -0.7338 -1.1475
 3777SOL    HW211652   3.927   5.489   1.273 -2.3925 -0.3064 -0.0405
 3778SOL     OW11653   5.215   0.788   5.351  0.1131 -0.4576  0.2184
 3778SOL    HW111654   5.155   0.732   5.409  1.0328 -1.5604  0.1346
 3778SOL    HW211655   5.171   0.876   5.334 -1.1658 -0.9636  0.7464
 3779SOL     OW11656   4.892   0.926   0.295 -0.4610 -0.3583  0.1353
 3779SOL    HW111657   4.948   0.937   0.377 -0.3941 -0.4853  0.1060
 3779SOL    HW211658   4.906   1.005   0.235  0.8320 -1.0717 -0.5603
 3780SOL     OW11659   4.164   5.581   1.135 -0.0184  1.0439 -0.8132
 3780SOL    HW111660   4.083   5.638   1.148  0.7785  2.0832 -0.2230
 3780SOL    HW211661   4.137   5.485   1.133 -1.2755  1.3770 -0.7443
 3781SOL     OW11662   4.036   1.790   1.641  0.6923  0.2759 -0.4069
 3781SOL    HW111663   4.063   1.733   1.719 -0.7547  0.6204  0.3922
 3781SOL    HW211664   3.939   1.812   1.648  0.9589  1.9118 -1.2858
 3782SOL     OW11665   5.436   2.442   5.427 -0.1772  0.0294 -0.2088
 3782SOL    HW111666   5.340   2.464   5.412 -0.4318 -1.0144 -0.1749
 3782SOL    HW211667   5.444   2.372   5.498  0.6338  0.3523  0.0340
 3783SOL     OW11668   3.608   1.548   1.829  0.0564 -0.7943 -0.3362
 3783SOL    HW111669   3.595   1.503   1.917 -0.8264 -1.0856 -0.6034
 3783SOL    HW211670   3.590   1.482   1.755 -0.7534 -0.1489 -0.7280
 3784SOL     OW11671   5.145   1.458   0.558 -0.4772 -0.1511  0.5267
 3784SOL    HW111672   5.172   1.500   0.472 -0.1353  0.7685  1.0730
 3784SOL    HW211673   5.227   1.439   0.613 -0.6234 -1.5398  0.2959
 3785SOL     OW11674   4.472   0.555   4.428  0.1554  0.4574 -0.1643
 3785SOL    HW111675   4.379   0.591   4.425  0.1683  0.5424  0.3180
 3785SOL    HW211676   4.484   0.488   4.355  0.0934  1.3217 -0.9918
 3786SOL     OW11677   3.572   1.240   2.401 -0.3080 -0.1959  0.1472
 3786SOL    HW111678   3.664   1.277   2.387 -0.8118  1.1026  0.1489
 3786SOL    HW211679   3.572   1.181   2.482  0.1285  1.3051  1.2891
 3787SOL     OW11680   2.823   0.492   2.581 -0.0538  0.1877  0.5416
 3787SOL    HW111681   2.747   0.551   2.610 -0.2000 -0.2608  1.0828
 3787SOL    HW211682   2.801   0.397   2.602  1.7126  0.2446  3.1523
 3788SOL     OW11683   4.334   1.298   0.261 -0.1639  0.0812 -0.3092
 3788SOL    HW111684   4.372   1.231   0.198 -0.3406 -1.9156  1.6075
 3788SOL    HW211685   4.381   1.292   0.349 -1.4676  1.1519  0.5111
 3789SOL     OW11686   3.954   0.553   5.409  0.3494 -0.4226  0.0667
 3789SOL    HW111687   4.009   0.566   5.492 -0.5421 -1.3837  0.8269
 3789SOL    HW211688   3.947   0.456   5.389  0.8783 -0.1838 -1.3874
 3790SOL     OW11689   3.840   0.106   1.551  0.4939  0.1370  0.0807
 3790SOL    HW111690   3.903   0.068   1.483  0.6423 -0.7903  0.7179
 3790SOL    HW211691   3.774   0.036   1.578 -0.1456  0.7816  0.2067
 3791SOL     OW11692   5.158   1.635   0.333 -0.1484  0.0022  0.8870
 3791SOL    HW111693   5.075   1.643   0.277  0.2892 -0.4607  0.1475
 3791SOL    HW211694   5.238   1.660   0.278  0.2163  0.3627  1.5684
 3792SOL     OW11695   0.243   1.867   0.653  0.2715 -0.0562 -0.1807
 3792SOL    HW111696   0.301   1.939   0.613  1.2740 -0.1142  1.1255
 3792SOL    HW211697   0.165   1.910   0.700  0.5784  0.1517  0.1407
 3793SOL     OW11698   3.241   0.973   1.764 -0.1748  0.0556 -0.0625
 3793SOL    HW111699   3.272   1.002   1.674 -1.7503 -1.2151 -1.0649
 3793SOL    HW211700   3.254   1.048   1.830  0.0313  1.3850 -1.5638
 3794SOL     OW11701   5.049   0.965   5.232  0.4173  0.1208 -0.2491
 3794SOL    HW111702   5.000   1.026   5.293  1.2629  0.7602 -0.1940
 3794SOL    HW211703   5.055   1.007   5.141 -0.5253 -0.6669 -0.7010
 3795SOL     OW11704   0.485   0.777   0.168  0.1749  0.3830  0.6168
 3795SOL    HW111705   0.527   0.720   0.097  0.2216  1.2017 -0.0149
 3795SOL    HW211706   0.465   0.720   0.248  1.1022 -0.3313  0.3584
 3796SOL     OW11707   3.911   5.140   0.395 -0.7415 -0.6972 -0.1176
 3796SOL    HW111708   3.879   5.208   0.329  0.0928  0.5547  0.7173
 3796SOL    HW211709   3.833   5.094   0.437 -1.3292 -0.0432 -0.4922
 3797SOL     OW11710   5.317   1.237   2.340  0.1265 -0.0178 -0.0496
 3797SOL    HW111711   5.372   1.288   2.274  0.7651 -0.0464  0.4569
 3797SOL    HW211712   5.221   1.238   2.311  0.6081 -1.3710 -1.8364
 3798SOL     OW11713   4.913   1.125   0.140  0.2315 -0.2867 -0.0439
 3798SOL    HW111714   4.835   1.138   0.079 -0.6193 -1.9678  0.6338
 3798SOL    HW211715   4.994   1.101   0.086 -0.0217  0.1967 -0.6482
 3799SOL     OW11716   4.732   1.285   2.174 -0.0603 -0.2148 -0.1449
 3799SOL    HW111717   4.756   1.215   2.241  2.6515  0.8361  0.1460
 3799SOL    HW211718   4.718   1.372   2.221  1.8533  0.5334 -0.8403
 3800SOL     OW11719   4.302   1.182   5.085 -0.0352 -0.0476  0.5407
 3800SOL    HW111720   4.317   1.198   4.987  0.8871 -1.6716  0.3794
 3800SOL    HW211721   4.212   1.217   5.111 -0.0205  1.0190 -0.7242
 3801SOL     OW11722   5.066   1.412   1.087 -1.0658 -0.1557 -0.6895
 3801SOL    HW111723   5.142   1.355   1.120 -1.2855  1.0360  2.1065
 3801SOL    HW211724   4.988   1.353   1.064 -0.2164 -1.1903 -1.0360
 3802SOL     OW11725   3.864   1.502   1.735  0.0363 -0.0974 -0.0599
 3802SOL    HW111726   3.771   1.530   1.710 -0.6447 -1.8222  0.3338
 3802SOL    HW211727   3.906   1.572   1.792 -2.6032 -0.9514  3.2614
 3803SOL     OW11728   4.405   0.815   1.321 -0.3748 -0.2580 -0.5904
 3803SOL    HW111729   4.397   0.912   1.298 -1.7301 -0.0590  0.5438
 3803SOL    HW211730   4.434   0.806   1.416 -2.5791 -0.8648  0.0983
 3804SOL     OW11731   4.574   1.464   5.426 -0.0332  0.2211 -0.4519
 3804SOL    HW111732   4.569   1.446   5.524  0.3941 -0.6646 -0.5863
 3804SOL    HW211733   4.557   1.380   5.375  1.8680  0.1908 -1.1051
 3805SOL     OW11734   5.203   0.266   2.828  0.1491  0.0688  0.2107
 3805SOL    HW111735   5.175   0.250   2.922 -2.1867  0.4723 -0.3716
 3805SOL    HW211736   5.128   0.308   2.777  2.0412  1.8360 -1.3215
 3806SOL     OW11737   4.803   0.904   0.833 -0.0626 -0.6461  0.2162
 3806SOL    HW111738   4.804   0.833   0.763 -2.3288 -0.0161 -0.5454
 3806SOL    HW211739   4.870   0.974   0.810  0.4906 -1.3409 -0.3383
 3807SOL     OW11740   2.113   1.125   1.641 -0.0552  0.4797  0.4029
 3807SOL    HW111741   2.017   1.132   1.616  0.2095  0.8875 -0.5394
 3807SOL    HW211742   2.129   1.171   1.729 -0.5383  1.2737  0.0788
 3808SOL     OW11743   3.743   0.188   0.672  0.2864  0.0435  0.0225
 3808SOL    HW111744   3.665   0.223   0.726 -0.7042 -0.6485 -0.9166
 3808SOL    HW211745   3.803   0.134   0.731 -1.5941 -2.0100  0.1907
 3809SOL     OW11746   4.803   0.481   0.397 -0.2075 -0.1141 -0.0477
 3809SOL    HW111747   4.797   0.403   0.334 -2.8232 -1.0507  1.2068
 3809SOL    HW211748   4.714   0.527   0.401  0.4868  1.1770  1.4151
 3810SOL     OW11749   4.264   2.308   4.568  0.3064  0.0972 -0.4205
 3810SOL    HW111750   4.303   2.217   4.584 -1.4290 -0.5697  0.3601
 3810SOL    HW211751   4.328   2.378   4.599  2.4113 -0.7252 -2.5674
 3811SOL     OW11752   4.499   2.057   1.044  0.1883 -0.0386  0.1066
 3811SOL    HW111753   4.478   2.130   1.109 -0.6477  1.0235 -1.3038
 3811SOL    HW211754   4.500   1.969   1.092 -3.8646  0.2338  1.0455
 3812SOL     OW11755   1.080   0.814   0.436 -0.4146  0.0789 -0.0109
 3812SOL    HW111756   1.139   0.812   0.517 -0.8530  0.0218  0.3083
 3812SOL    HW211757   1.090   0.728   0.386 -1.1600 -0.4406  0.7173
 3813SOL     OW11758   3.462   1.295   2.013 -0.7455  0.2129 -0.3880
 3813SOL    HW111759   3.494   1.382   2.050  0.3184 -0.0699 -0.6053
 3813SOL    HW211760   3.408   1.247   2.081 -1.0910  0.9034 -0.1629
 3814SOL     OW11761   4.736   0.329   2.198 -0.5684  0.2743 -0.2224
 3814SOL    HW111762   4.679   0.257   2.238 -0.8852  0.7739  0.2465
 3814SOL    HW211763   4.757   0.397   2.268 -0.0856  0.5269 -0.6058
 3815SOL     OW11764   4.967   1.289   2.037  0.4588  1.0872  0.0622
 3815SOL    HW111765   4.876   1.309   2.073  0.3214  0.4460  0.0760
 3815SOL    HW211766   4.962   1.211   1.975  1.6622 -2.1109  3.5908
 3816SOL     OW11767   5.233   4.946   3.285 -0.5441 -0.2565  0.4940
 3816SOL    HW111768   5.192   5.036   3.266 -1.1240 -0.1754  2.0292
 3816SOL    HW211769   5.192   4.878   3.225  0.2585  0.5574 -1.0495
 3817SOL     OW11770   3.182   5.541   0.744 -0.2708 -0.4808  0.3056
 3817SOL    HW111771   3.120   5.619   0.746  0.9366  0.5522 -0.5259
 3817SOL    HW211772   3.187   5.499   0.834 -2.0256 -0.5006  0.4249
 3818SOL     OW11773   4.547   1.056   0.661  0.0939 -0.1633 -0.5101
 3818SOL    HW111774   4.591   0.986   0.605  0.8562 -0.6051  0.6120
 3818SOL    HW211775   4.503   1.014   0.740  1.7104  0.7007  0.9157
 3819SOL     OW11776   4.163   2.583   2.010  0.4234 -0.7118  0.3692
 3819SOL    HW111777   4.081   2.561   1.958  0.0703  1.0267  0.1098
 3819SOL    HW211778   4.243   2.538   1.969 -0.3043 -1.9456  0.2783
 3820SOL     OW11779   5.183   1.366   5.211 -0.6383 -0.0043  0.2282
 3820SOL    HW111780   5.265   1.363   5.268 -0.0114  3.7239 -0.1819
 3820SOL    HW211781   5.103   1.384   5.268 -0.3602  1.3377  0.2378
 3821SOL     OW11782   3.986   0.575   0.840  0.1285  0.0200 -0.3911
 3821SOL    HW111783   4.039   0.496   0.870 -1.2727 -0.9858 -0.4575
 3821SOL    HW211784   4.008   0.654   0.898  1.5740 -0.3764 -0.3558
 3822SOL     OW11785   4.017   0.445   1.968 -0.1983  0.0911 -0.1997
 3822SOL    HW111786   3.997   0.475   1.874 -0.6135  1.1680  0.2133
 3822SOL    HW211787   4.043   0.349   1.967 -0.8662 -0.1033 -1.3411
 3823SOL     OW11788   4.098   0.786   0.988  0.6055  0.5516  0.0182
 3823SOL    HW111789   4.055   0.875   0.991  2.4093  1.4458  1.6963
 3823SOL    HW211790   4.106   0.749   1.080  0.3952 -1.1231 -0.5889
 3824SOL     OW11791   3.893   1.072   1.874  0.3694 -0.8673 -0.0629
 3824SOL    HW111792   3.801   1.104   1.895 -0.3130 -1.9827 -1.2363
 3824SOL    HW211793   3.913   0.991   1.928  0.2341 -1.2548 -0.5821
 3825SOL     OW11794   3.134   0.591   2.298 -0.5536  0.2156  0.2946
 3825SOL    HW111795   3.119   0.534   2.217 -0.8558  1.7967 -0.8112
 3825SOL    HW211796   3.232   0.605   2.311 -0.3833 -1.6838  1.4382
 3826SOL     OW11797   4.791   0.443   0.826  0.0633  0.1543 -0.0055
 3826SOL    HW111798   4.797   0.487   0.916 -0.5885  0.1459  0.0477
 3826SOL    HW211799   4.719   0.374   0.828 -1.6866  1.8520 -1.2320
 3827SOL     OW11800   5.142   1.019   5.552  0.0134 -0.4411  0.3161
 3827SOL    HW111801   5.217   1.053   5.609 -0.2172 -0.0914  0.4149
 3827SOL    HW211802   5.156   0.922   5.533  0.6095 -0.3307  0.1486
 3828SOL     OW11803   3.908   2.308   2.210 -0.0355 -0.2789  0.1946
 3828SOL    HW111804   3.994   2.359   2.217 -0.4240  0.5878 -0.9752
 3828SOL    HW211805   3.850   2.330   2.289 -0.0520  0.8497 -0.1081
 3829SOL     OW11806   4.868   0.663   0.175  0.4306 -0.3238 -0.7310
 3829SOL    HW111807   4.856   0.759   0.203 -2.4306 -0.7008 -0.3517
 3829SOL    HW211808   4.871   0.605   0.257 -1.6097 -0.8426 -0.9671
 3830SOL     OW11809   3.294   0.788   3.623  0.2105 -0.1587  0.1442
 3830SOL    HW111810   3.294   0.864   3.558  2.8612 -0.8481 -0.7745
 3830SOL    HW211811   3.236   0.714   3.588  0.6393 -0.0411 -0.8236
 3831SOL     OW11812   4.033   0.230   0.294  0.2490 -0.1399  0.6460
 3831SOL    HW111813   4.126   0.260   0.273  1.1160 -2.2301  1.1365
 3831SOL    HW211814   3.988   0.198   0.211  0.5205 -0.4752  0.6251
 3832SOL     OW11815   5.526   5.371   0.187  0.5060 -0.5176  0.5669
 3832SOL    HW111816   5.458   5.432   0.146  0.3447  0.0131  1.5782
 3832SOL    HW211817   5.605   5.425   0.215  0.9455 -0.9903  0.2540
 3833SOL     OW11818   3.691   0.676   0.498 -0.2568 -0.1134  0.2301
 3833SOL    HW111819   3.709   0.615   0.421  1.1479  2.2415 -1.4381
 3833SOL    HW211820   3.777   0.717   0.529 -1.2224  1.8855  0.4630
 3834SOL     OW11821   3.994   1.000   1.234 -0.6370  0.3400 -0.1795
 3834SOL    HW111822   3.949   0.931   1.290  2.6134 -2.4072 -0.6665
 3834SOL    HW211823   4.066   1.044   1.288  0.1931  0.1913 -1.1370
 3835SOL     OW11824   3.425   0.993   0.739 -0.5414  0.0150 -0.0169
 3835SOL    HW111825   3.490   0.943   0.796 -2.7774 -1.6881  1.1688
 3835SOL    HW211826   3.442   0.971   0.643 -0.3914 -1.7631  0.3834
 3836SOL     OW11827   4.493   5.418   2.524  0.0419 -0.1965  0.2453
 3836SOL    HW111828   4.430   5.465   2.462 -0.9407  0.6632  1.8211
 3836SOL    HW211829   4.574   5.476   2.539  0.5523 -0.6592 -0.6496
 3837SOL     OW11830   3.932   0.788   1.394 -0.0444  0.7044  0.2639
 3837SOL    HW111831   3.965   0.805   1.487  0.7550  0.4462  0.0280
 3837SOL    HW211832   4.007   0.755   1.336 -0.5674  0.7110 -0.4376
 3838SOL     OW11833   2.585   1.203   1.151  0.3828 -0.7932 -0.6573
 3838SOL    HW111834   2.650   1.141   1.107  0.9368 -1.8730  1.5376
 3838SOL    HW211835   2.625   1.239   1.235 -1.6067 -1.0025  0.4507
 3839SOL     OW11836   4.841   3.715   1.720  0.3870  0.1594  0.0765
 3839SOL    HW111837   4.939   3.694   1.712  0.7569  1.4298  0.8610
 3839SOL    HW211838   4.826   3.811   1.697 -0.7620 -0.1454 -0.4959
 3840SOL     OW11839   3.806   2.762   1.385 -0.4667  0.1936 -0.1224
 3840SOL    HW111840   3.819   2.665   1.405  0.5482  0.0141 -1.5032
 3840SOL    HW211841   3.884   2.814   1.420  0.4857  0.0887 -1.9702
 3841SOL     OW11842   4.308   1.115   0.984  0.3383 -0.0717 -0.1664
 3841SOL    HW111843   4.364   1.106   1.067  0.6828 -0.0623 -0.3973
 3841SOL    HW211844   4.332   1.043   0.919  1.0175  0.7206 -0.8115
 3842SOL     OW11845   4.673   0.707   2.720  0.3159  0.1612  0.3740
 3842SOL    HW111846   4.589   0.739   2.676 -0.6940 -1.4906  0.9999
 3842SOL    HW211847   4.745   0.776   2.710 -1.2759  1.8812  0.3366
 3843SOL     OW11848   4.550   0.917   2.121  0.1931  0.2840 -0.6782
 3843SOL    HW111849   4.649   0.918   2.115  0.1867 -1.0889 -1.4472
 3843SOL    HW211850   4.520   0.839   2.176 -0.4943 -0.1545 -1.6435
 3844SOL     OW11851   3.831   1.963   1.258 -0.3036  0.0359 -0.0713
 3844SOL    HW111852   3.814   1.875   1.212 -0.6754 -0.0504  0.2254
 3844SOL    HW211853   3.929   1.982   1.258  0.0661 -1.5291  1.9127
 3845SOL     OW11854   0.539   0.080   1.382  0.0076  0.4347  0.3242
 3845SOL    HW111855   0.504   0.009   1.444  0.8046  0.6842  1.0944
 3845SOL    HW211856   0.551   0.042   1.291 -2.7028  0.4749 -0.1242
 3846SOL     OW11857   0.112   0.491   1.445  0.0079 -0.6091  0.0010
 3846SOL    HW111858   0.108   0.588   1.420  0.9949 -0.6234 -0.2512
 3846SOL    HW211859   0.118   0.436   1.362 -3.3397 -1.1002 -0.0280
 3847SOL     OW11860   3.600   0.249   1.617 -0.4372  0.3362 -0.4488
 3847SOL    HW111861   3.693   0.239   1.580 -0.6938 -0.2976 -0.9453
 3847SOL    HW211862   3.602   0.314   1.692  0.7501 -0.9774  0.7222
 3848SOL     OW11863   2.507   0.848   1.353  0.8088  0.1751  0.0665
 3848SOL    HW111864   2.607   0.858   1.362  0.5665  0.5408  3.8472
 3848SOL    HW211865   2.465   0.939   1.358  0.2054 -0.0848 -0.2670
 3849SOL     OW11866   4.249   1.594   1.810 -0.3470 -0.3589 -0.1503
 3849SOL    HW111867   4.158   1.576   1.847 -0.5085  1.6025  0.5539
 3849SOL    HW211868   4.317   1.540   1.859 -0.9064 -0.1582  0.8779
 3850SOL     OW11869   4.537   1.436   0.112  0.2588 -0.5093  0.0804
 3850SOL    HW111870   4.447   1.424   0.154  0.5702 -0.1034  0.8926
 3850SOL    HW211871   4.557   1.534   0.104  0.9392 -0.5958  0.6127
 3851SOL     OW11872   2.953   1.353   1.921  0.2821  0.0287 -0.2008
 3851SOL    HW111873   2.958   1.404   2.008  0.0742  0.8765 -0.6738
 3851SOL    HW211874   2.895   1.403   1.857  0.7442 -0.3981 -0.9639
 3852SOL     OW11875   4.597   1.793   0.313  0.4242 -0.2333 -0.2267
 3852SOL    HW111876   4.578   1.743   0.397  0.4842 -0.5332 -0.3894
 3852SOL    HW211877   4.587   1.731   0.235 -4.5575  1.0838 -0.9655
 3853SOL     OW11878   4.799   4.716   0.355 -0.0932 -0.4972 -0.0887
 3853SOL    HW111879   4.854   4.637   0.326 -1.2506 -1.5165  0.4347
 3853SOL    HW211880   4.794   4.719   0.455  0.5490  0.6965 -0.0659
 3854SOL     OW11881   4.625   1.792   1.628 -0.0309  0.1589  0.4157
 3854SOL    HW111882   4.548   1.808   1.566 -0.3671 -1.3191  0.4249
 3854SOL    HW211883   4.675   1.878   1.641 -0.5978  0.7470 -1.0271
 3855SOL     OW11884   4.850   2.730   2.489  0.6309  0.1610  0.3209
 3855SOL    HW111885   4.921   2.706   2.422  0.7312  1.7699 -0.1859
 3855SOL    HW211886   4.763   2.742   2.443  0.8490  2.0125  0.3185
 3856SOL     OW11887   4.012   1.978   0.925  1.2247  0.1880 -0.2054
 3856SOL    HW111888   4.041   1.954   1.017 -2.4523 -1.7741  0.6604
 3856SOL    HW211889   4.034   1.904   0.862 -1.8293 -1.5518  0.5560
 3857SOL     OW11890   2.676   0.442   2.098 -0.2155 -0.0967  0.1276
 3857SOL    HW111891   2.620   0.391   2.163 -0.4582  0.2911  0.2333
 3857SOL    HW211892   2.758   0.476   2.144  0.1853 -0.7904 -0.0649
 3858SOL     OW11893   4.161   0.375   0.912  0.1937  0.2376 -0.1762
 3858SOL    HW111894   4.188   0.322   0.831 -2.2770 -1.1362 -0.1619
 3858SOL    HW211895   4.212   0.342   0.991  0.5980 -0.3271 -0.6567
 3859SOL     OW11896   0.165   2.325   0.165 -0.5290  0.3140  0.3000
 3859SOL    HW111897   0.204   2.233   0.159  1.3138  1.1196 -1.2812
 3859SOL    HW211898   0.102   2.340   0.088 -2.1627 -0.1435  1.4913
 3860SOL     OW11899   5.496   2.697   5.370  0.2130  0.1157  0.2097
 3860SOL    HW111900   5.482   2.600   5.388 -0.7411  0.2164  0.0800
 3860SOL    HW211901   5.574   2.708   5.308 -0.0687 -0.6222 -0.3036
 3861SOL     OW11902   5.041   2.274   1.762  0.1483 -0.1243 -0.8084
 3861SOL    HW111903   5.002   2.321   1.683  0.6498 -0.3314 -1.1855
 3861SOL    HW211904   4.967   2.235   1.817 -0.2196  0.2689 -1.0170
 3862SOL     OW11905   0.153   0.481   0.181  0.3260 -0.3095 -0.0076
 3862SOL    HW111906   0.056   0.490   0.205  0.0503 -0.7009 -0.9074
 3862SOL    HW211907   0.193   0.404   0.230  0.1343 -0.2677  0.2168
 3863SOL     OW11908   4.424   1.091   0.101 -0.0979  0.1564  0.0673
 3863SOL    HW111909   4.469   1.005   0.075 -1.5130 -0.9840  1.1748
 3863SOL    HW211910   4.373   1.126   0.023 -0.7312 -0.8528  0.0015
 3864SOL     OW11911   3.799   1.977   4.820  0.4084 -0.3168 -0.0663
 3864SOL    HW111912   3.801   1.987   4.721  0.8545 -0.2742 -0.0545
 3864SOL    HW211913   3.706   1.952   4.849 -0.3562  2.0128 -0.2776
 3865SOL     OW11914   4.833   0.732   0.612 -0.1936 -0.0571 -0.1537
 3865SOL    HW111915   4.835   0.634   0.595  1.1136  0.0925 -1.0168
 3865SOL    HW211916   4.744   0.769   0.586 -0.3941 -0.8752 -0.6613
 3866SOL     OW11917   5.103   0.621   2.276  0.4112 -0.0929 -0.2477
 3866SOL    HW111918   5.043   0.571   2.214  0.5080  0.4516 -0.7936
 3866SOL    HW211919   5.151   0.557   2.336 -0.1275 -0.5820 -0.3330
 3867SOL     OW11920   3.430   0.757   0.283  0.1547  0.2470  0.7761
 3867SOL    HW111921   3.519   0.782   0.244 -0.4837  0.8371 -0.3758
 3867SOL    HW211922   3.412   0.812   0.364  0.8656  0.0773  1.0545
 3868SOL     OW11923   3.899   2.122   0.094 -0.0004 -0.1452 -0.8289
 3868SOL    HW111924   3.895   2.127   0.194 -0.3700 -0.2489 -0.8355
 3868SOL    HW211925   3.897   2.215   0.056  0.3774 -0.0967 -0.7351
 3869SOL     OW11926   2.671   1.668   2.329 -0.3386  1.0436 -0.1953
 3869SOL    HW111927   2.701   1.761   2.347  2.1131  0.3461 -0.2814
 3869SOL    HW211928   2.674   1.615   2.414  1.0307  0.3730 -0.6359
 3870SOL     OW11929   3.642   0.444   1.817  0.4760 -0.3775  0.0722
 3870SOL    HW111930   3.740   0.443   1.801  0.6745  0.7410  1.0698
 3870SOL    HW211931   3.608   0.537   1.807 -0.3660 -0.6381  0.4325
 3871SOL     OW11932   5.599   1.010   5.190  0.1983 -0.5933  0.0761
 3871SOL    HW111933   5.520   0.950   5.178  0.7084 -1.4503  0.8933
 3871SOL    HW211934   5.642   0.992   5.278  1.1293  0.0816 -0.2219
 3872SOL     OW11935   4.909   1.612   1.000 -0.3080  0.0533 -0.3049
 3872SOL    HW111936   4.921   1.610   0.901  1.1946 -0.1124 -0.1459
 3872SOL    HW211937   4.989   1.570   1.044 -2.0117 -2.1641  0.9094
 3873SOL     OW11938   5.512   1.728   2.605 -0.4797 -0.0510 -0.0162
 3873SOL    HW111939   5.479   1.806   2.551  1.3870  0.4901 -0.4463
 3873SOL    HW211940   5.545   1.656   2.543 -1.2941 -0.7975  0.3916
 3874SOL     OW11941   5.057   0.256   5.221  0.2075  0.2312  0.1653
 3874SOL    HW111942   5.026   0.176   5.271  1.2853  0.3761  1.0931
 3874SOL    HW211943   5.122   0.308   5.277  2.0315 -0.0011 -1.6283
 3875SOL     OW11944   3.556   0.872   1.729 -0.5219 -0.5406  0.2202
 3875SOL    HW111945   3.562   0.948   1.793  2.0137 -0.8802  0.4766
 3875SOL    HW211946   3.504   0.797   1.771  0.0590 -0.3001  1.4087
 3876SOL     OW11947   4.321   2.753   5.374 -0.1631 -0.3846  0.2878
 3876SOL    HW111948   4.236   2.787   5.336 -1.3774 -2.6887  0.7951
 3876SOL    HW211949   4.359   2.682   5.315 -0.0598 -1.3010  1.4133
 3877SOL     OW11950   5.239   0.434   0.590 -0.1175 -0.0344 -0.1008
 3877SOL    HW111951   5.149   0.397   0.612 -0.1792  0.3749  0.3626
 3877SOL    HW211952   5.301   0.360   0.565  0.3137 -0.7138  2.6569
 3878SOL     OW11953   3.606   1.086   1.119  0.2456 -0.4787  0.3344
 3878SOL    HW111954   3.521   1.134   1.096  0.1047 -1.1940 -0.6864
 3878SOL    HW211955   3.683   1.150   1.111 -0.1215  0.0026  0.6092
 3879SOL     OW11956   3.959   1.372   1.521 -0.7251  0.2084 -0.1751
 3879SOL    HW111957   3.954   1.422   1.607  0.4879  0.5296 -0.2845
 3879SOL    HW211958   3.872   1.382   1.472 -1.3156  0.2779  0.8478
 3880SOL     OW11959   0.302   4.578   1.818 -0.1985 -0.1649  0.2662
 3880SOL    HW111960   0.269   4.492   1.777 -0.1303  0.2297 -0.6449
 3880SOL    HW211961   0.396   4.594   1.788  0.2526 -0.4129  1.4736
 3881SOL     OW11962   3.670   1.468   5.419  0.4519  0.7705 -0.4243
 3881SOL    HW111963   3.590   1.526   5.433 -0.8652 -0.7440 -1.2521
 3881SOL    HW211964   3.690   1.417   5.503  0.5885  1.1986 -0.1968
 3882SOL     OW11965   0.504   0.722   0.612 -0.7255  0.2797 -0.7486
 3882SOL    HW111966   0.490   0.738   0.710  0.7691 -1.1366 -0.2707
 3882SOL    HW211967   0.415   0.708   0.568 -1.3720  0.1073  0.5598
 3883SOL     OW11968   2.403   0.471   5.602  0.6689 -0.4967  0.0772
 3883SOL    HW111969   2.342   0.422   5.541 -0.1439  0.7225 -0.1151
 3883SOL    HW211970   2.469   0.524   5.548  0.1944  0.2801  0.2548
 3884SOL     OW11971   3.752   0.583   1.335  0.4610 -0.0879 -0.4221
 3884SOL    HW111972   3.802   0.667   1.356 -0.5626  0.0526  1.6937
 3884SOL    HW211973   3.802   0.504   1.371  0.0006 -0.1004  0.2024
 3885SOL     OW11974   4.736   1.269   2.478  0.1851 -0.6114  0.0435
 3885SOL    HW111975   4.652   1.217   2.465 -0.2281  0.1538 -0.4130
 3885SOL    HW211976   4.770   1.254   2.571  0.8177 -2.7456 -0.4570
 3886SOL     OW11977   5.221   1.868   0.487  0.0875 -0.0255 -0.0270
 3886SOL    HW111978   5.319   1.865   0.471 -0.2259  0.4041 -2.5059
 3886SOL    HW211979   5.180   1.782   0.457 -0.4169  0.2754 -0.2167
 3887SOL     OW11980   5.257   0.068   2.101  0.7175 -0.1453  0.7096
 3887SOL    HW111981   5.297   0.104   2.186  0.2170 -0.5066  1.1026
 3887SOL    HW211982   5.262  -0.032   2.102 -0.3202 -0.2028  0.8307
 3888SOL     OW11983   3.518   1.580   1.083 -0.1933  0.3846 -0.7166
 3888SOL    HW111984   3.513   1.482   1.064 -0.8162  0.6569 -2.0964
 3888SOL    HW211985   3.531   1.595   1.181  1.3500 -1.0953 -0.6688
 3889SOL     OW11986   3.785   1.349   2.748  0.0843  0.1527 -0.1319
 3889SOL    HW111987   3.702   1.400   2.722 -0.2314 -0.4079 -0.2414
 3889SOL    HW211988   3.800   1.359   2.847 -1.7634 -2.0593  0.4539
 3890SOL     OW11989   5.553   1.327   0.467  0.2081  0.6449  0.1762
 3890SOL    HW111990   5.482   1.257   0.470 -1.9986  2.8036  1.7441
 3890SOL    HW211991   5.553   1.373   0.378 -0.0465  0.3415  0.0221
 3891SOL     OW11992   4.494   0.257   0.546  0.6042  0.0728 -0.5643
 3891SOL    HW111993   4.495   0.172   0.493  2.4951  0.0977 -0.6347
 3891SOL    HW211994   4.465   0.238   0.639 -0.1042 -0.4375 -0.8779
 3892SOL     OW11995   5.217   0.796   1.925 -0.6648  0.0083 -0.1731
 3892SOL    HW111996   5.234   0.703   1.959 -1.5247  0.4216  1.4938
 3892SOL    HW211997   5.163   0.791   1.841 -1.9783 -0.9948  0.6860
 3893SOL     OW11998   5.385   0.468   1.432  0.1439  0.8433 -0.1616
 3893SOL    HW111999   5.347   0.383   1.393 -0.4797  0.8561  0.3935
 3893SOL    HW212000   5.484   0.460   1.440 -0.0365 -0.4424  1.2848
 3894SOL     OW12001   1.052   2.561   1.742 -0.4333 -0.1408  0.3530
 3894SOL    HW112002   1.081   2.507   1.664 -0.1635  1.2848 -0.5768
 3894SOL    HW212003   0.952   2.565   1.745 -0.4592 -0.8340  0.5489
 3895SOL     OW12004   4.371   2.516   5.211 -0.0317  0.2698 -0.2672
 3895SOL    HW112005   4.319   2.431   5.203 -0.5799  0.7069 -1.5907
 3895SOL    HW212006   4.465   2.495   5.238 -0.2361 -0.7379 -0.3106
 3896SOL     OW12007   5.037   1.554   1.489 -0.3435 -0.3426 -0.0102
 3896SOL    HW112008   5.103   1.479   1.491 -0.1264 -0.1614 -0.2766
 3896SOL    HW212009   5.071   1.626   1.428 -1.1689 -0.6097 -0.8105
 3897SOL     OW12010   0.396   1.298   5.236  0.0255  0.0773 -0.1846
 3897SOL    HW112011   0.425   1.203   5.248  0.0893 -0.2510 -2.4249
 3897SOL    HW212012   0.476   1.357   5.237  0.1201 -0.0499 -0.0864
 3898SOL     OW12013   4.536   5.535   0.826 -0.0193  0.7521 -0.6739
 3898SOL    HW112014   4.555   5.480   0.745 -0.7211 -0.0578 -0.3016
 3898SOL    HW212015   4.493   5.478   0.896 -0.6432  1.7420 -0.2302
 3899SOL     OW12016   0.569   1.388   4.494  0.0566  0.1753 -0.5555
 3899SOL    HW112017   0.532   1.371   4.585 -0.0120  0.2847 -0.5623
 3899SOL    HW212018   0.497   1.375   4.425  0.7667 -2.7012 -0.8677
 3900SOL     OW12019   2.700   1.372   2.889  0.4253 -0.0313 -0.1204
 3900SOL    HW112020   2.736   1.399   2.979  0.3041  0.9362 -0.3573
 3900SOL    HW212021   2.673   1.276   2.892  0.0277  0.1006  1.0050
 3901SOL     OW12022   3.435   0.105   2.079 -0.0215 -0.0569  0.3382
 3901SOL    HW112023   3.465   0.198   2.059  1.5790 -0.4903  0.6157
 3901SOL    HW212024   3.345   0.108   2.123 -0.2243  1.3153 -0.1209
 3902SOL     OW12025   4.333   1.870   1.829  0.1395 -0.0459 -0.4195
 3902SOL    HW112026   4.295   1.783   1.861  0.0174  0.1151 -0.1276
 3902SOL    HW212027   4.278   1.905   1.754  0.3976 -0.3992 -0.7790
 3903SOL     OW12028   0.722   0.782   0.325  0.5517 -0.1827 -0.0311
 3903SOL    HW112029   0.754   0.772   0.230 -1.1421 -0.4119 -0.6171
 3903SOL    HW212030   0.650   0.851   0.328  0.7379 -0.0342  1.1363
 3904SOL     OW12031   3.163   1.909   5.063 -0.2784 -0.0968 -0.5170
 3904SOL    HW112032   3.154   1.813   5.087 -1.6947 -0.1762 -1.2515
 3904SOL    HW212033   3.179   1.918   4.965  0.6881  0.3948 -0.3232
 3905SOL     OW12034   4.765   1.818   1.119 -0.4682  0.0006  0.1840
 3905SOL    HW112035   4.822   1.736   1.129 -1.9224 -0.9935  0.6996
 3905SOL    HW212036   4.756   1.840   1.021  1.7661  0.9276  0.1415
 3906SOL     OW12037   4.034   5.155   2.683 -0.0999  0.1531  0.1643
 3906SOL    HW112038   4.119   5.102   2.690 -0.2624 -0.0105  1.0169
 3906SOL    HW212039   3.958   5.093   2.664 -0.1304  0.2154  0.0834
 3907SOL     OW12040   4.577   1.845   5.111 -0.3060  0.0883  0.0228
 3907SOL    HW112041   4.656   1.836   5.051 -0.1528  1.9247 -0.0975
 3907SOL    HW212042   4.591   1.789   5.193 -0.0092 -1.5352 -1.0857
 3908SOL     OW12043   1.026   5.465   2.308  0.1679 -0.1409 -0.2045
 3908SOL    HW112044   1.018   5.563   2.291  0.8293 -0.2544 -1.2665
 3908SOL    HW212045   1.116   5.445   2.347  0.8213 -0.5167 -1.7968
 3909SOL     OW12046   4.545   0.282   1.168 -0.2893 -0.7089  0.2318
 3909SOL    HW112047   4.635   0.325   1.176 -0.8708  0.5488  0.2657
 3909SOL    HW212048   4.514   0.252   1.258  0.0924 -1.1677  0.2169
 3910SOL     OW12049   4.557   2.176   5.408 -0.4492  0.1970  0.2637
 3910SOL    HW112050   4.459   2.160   5.400 -0.2774 -0.5453 -0.5687
 3910SOL    HW212051   4.598   2.178   5.316  0.1554  1.6224  0.5274
 3911SOL     OW12052   3.559   2.703   1.261  0.1637 -0.1754 -0.3612
 3911SOL    HW112053   3.509   2.752   1.190  0.1298 -0.8135 -0.7871
 3911SOL    HW212054   3.652   2.738   1.267  0.4042 -0.6193 -1.2538
 3912SOL     OW12055   5.580   5.576   0.941 -0.2726  0.3984 -0.1963
 3912SOL    HW112056   5.510   5.573   0.870 -1.0267 -0.2428  0.5541
 3912SOL    HW212057   5.670   5.569   0.899 -0.6850  0.5221 -1.1248
 3913SOL     OW12058   2.818   0.964   1.370  0.1687  0.4006  0.3839
 3913SOL    HW112059   2.869   1.033   1.319  2.1775 -0.1614  1.5404
 3913SOL    HW212060   2.810   0.991   1.466  2.4811 -1.6392  1.2606
 3914SOL     OW12061   4.228   5.535   1.568 -0.6413 -0.0037 -0.6727
 3914SOL    HW112062   4.258   5.573   1.481  0.5773  1.0122  0.1489
 3914SOL    HW212063   4.155   5.468   1.552  1.0861 -1.5414 -2.6570
 3915SOL     OW12064   3.827   1.235   1.146  0.3288  0.5263 -0.5727
 3915SOL    HW112065   3.851   1.298   1.072  1.2079  0.8473 -0.0181
 3915SOL    HW212066   3.893   1.160   1.149  0.3279  0.5443 -0.0737
 3916SOL     OW12067   5.028   2.030   0.122 -0.6612  0.6470 -0.6294
 3916SOL    HW112068   4.933   2.000   0.127 -0.6115  0.5608 -0.2094
 3916SOL    HW212069   5.048   2.062   0.029 -0.9774  0.2682 -0.8266
 3917SOL     OW12070   4.845   0.405   3.435 -0.3869  0.4201  0.4530
 3917SOL    HW112071   4.900   0.464   3.494 -0.1210 -0.4289  1.0883
 3917SOL    HW212072   4.782   0.460   3.381 -0.2603  1.2626  1.1458
 3918SOL     OW12073   3.417   0.243   1.381 -0.7259 -0.0974 -0.1823
 3918SOL    HW112074   3.400   0.320   1.319  0.7508  0.7158  0.3679
 3918SOL    HW212075   3.487   0.269   1.448 -2.3543 -0.8723  1.9683
 3919SOL     OW12076   3.273   1.378   3.553 -0.2820 -0.0994  0.8569
 3919SOL    HW112077   3.257   1.402   3.457 -0.6176 -1.2398  0.6177
 3919SOL    HW212078   3.230   1.290   3.574  1.2157 -0.6935  1.6090
 3920SOL     OW12079   4.215   0.952   3.801  0.3728  0.3137  0.1710
 3920SOL    HW112080   4.282   0.968   3.729 -1.1907 -2.1739 -2.0523
 3920SOL    HW212081   4.225   0.860   3.837 -2.8272 -0.9086 -1.6038
 3921SOL     OW12082   0.820   1.279   1.936 -0.3588 -0.0376  0.7693
 3921SOL    HW112083   0.871   1.342   1.995  0.5821 -1.0551  1.0680
 3921SOL    HW212084   0.819   1.315   1.842  0.4659  0.2493  0.8651
 3922SOL     OW12085   4.362   1.763   2.706 -0.5517 -0.0626  0.3279
 3922SOL    HW112086   4.336   1.675   2.666 -1.0789  0.0058  0.5234
 3922SOL    HW212087   4.283   1.824   2.708  0.0900  0.8493 -0.9312
 3923SOL     OW12088   0.623   0.634   2.671 -0.4668 -0.0063 -0.4702
 3923SOL    HW112089   0.684   0.572   2.622  1.4085  1.2090  0.2044
 3923SOL    HW212090   0.627   0.614   2.769  0.1143  1.1062 -0.2518
 3924SOL     OW12091   4.757   1.203   3.691 -0.3181 -0.1062 -0.0708
 3924SOL    HW112092   4.675   1.258   3.681 -1.3024 -1.5664 -0.2806
 3924SOL    HW212093   4.739   1.109   3.661  2.0690  0.0535 -2.4643
 3925SOL     OW12094   0.029   0.885   4.433  0.5301  0.0237 -0.7544
 3925SOL    HW112095   0.066   0.951   4.367 -0.9062 -0.4844 -2.1382
 3925SOL    HW212096  -0.020   0.813   4.384 -0.6987 -0.3189  0.8695
 3926SOL     OW12097   5.182   0.221   3.108 -0.3062 -0.1525  0.2778
 3926SOL    HW112098   5.108   0.163   3.143 -0.7801  0.0599 -0.3377
 3926SOL    HW212099   5.170   0.314   3.142 -0.5149 -0.0445 -0.0877
 3927SOL     OW12100   4.522   1.836   4.503 -0.1534 -0.1907 -0.2581
 3927SOL    HW112101   4.588   1.860   4.575 -1.4074  1.1431  0.5049
 3927SOL    HW212102   4.558   1.865   4.415  0.1701  0.8305  0.1888
 3928SOL     OW12103   3.127   1.652   2.150 -0.0541  0.2572 -0.2421
 3928SOL    HW112104   3.054   1.718   2.169  0.3428  0.3202  1.1759
 3928SOL    HW212105   3.137   1.591   2.228  3.1283  1.8650  0.8028
 3929SOL     OW12106   3.914   1.499   3.354 -0.1082  0.3972 -0.1019
 3929SOL    HW112107   3.985   1.512   3.285  0.4824  0.9338  0.5935
 3929SOL    HW212108   3.907   1.581   3.410 -0.5006 -0.0737  0.5485
 3930SOL     OW12109   3.928   5.081   3.312 -0.2671  0.1518  0.2921
 3930SOL    HW112110   3.869   5.105   3.235  0.3498  0.2414 -0.1622
 3930SOL    HW212111   4.024   5.099   3.288  0.1132 -1.5459  0.3804
 3931SOL     OW12112   5.593   0.148   1.867  0.0117 -0.4708 -0.3613
 3931SOL    HW112113   5.515   0.086   1.873  0.7689 -1.4407 -0.2733
 3931SOL    HW212114   5.575   0.216   1.796 -0.9612 -0.5918 -0.2522
 3932SOL     OW12115   3.556   1.473   2.718 -0.0000  0.2058  0.5131
 3932SOL    HW112116   3.463   1.459   2.752  0.2898 -0.7303  0.9634
 3932SOL    HW212117   3.561   1.558   2.666 -1.3343 -0.2133 -0.3342
 3933SOL     OW12118   4.316   1.688   4.452  0.3992  0.3876  0.3116
 3933SOL    HW112119   4.326   1.626   4.374  1.0545  2.8479 -1.6792
 3933SOL    HW212120   4.401   1.740   4.465 -0.5340  1.7920  1.0851
 3934SOL     OW12121   3.538   1.718   3.517 -0.0460 -1.0546 -0.6742
 3934SOL    HW112122   3.603   1.794   3.524  1.5904 -2.4947  0.2781
 3934SOL    HW212123   3.450   1.747   3.556  0.5563  0.3374 -0.2762
 3935SOL     OW12124   3.877   1.597   3.762 -0.0757 -0.3799  0.5200
 3935SOL    HW112125   3.963   1.643   3.783  0.0081  0.2461 -1.0849
 3935SOL    HW212126   3.870   1.513   3.816  2.0158 -0.9871 -0.0558
 3936SOL     OW12127   3.376   2.258   1.904  0.3368  0.4251 -0.1229
 3936SOL    HW112128   3.398   2.313   1.984  3.0019  2.3181 -1.9634
 3936SOL    HW212129   3.324   2.313   1.839  2.5724  0.6970 -1.7725
 3937SOL     OW12130   4.422   1.133   1.233  0.5174 -0.5593  0.3322
 3937SOL    HW112131   4.518   1.106   1.222  0.6580 -0.1250  0.4620
 3937SOL    HW212132   4.415   1.201   1.307  0.0967 -0.6628  0.3888
 3938SOL     OW12133   4.697  -0.014   2.519 -0.0148 -0.0428  0.2427
 3938SOL    HW112134   4.645   0.071   2.509 -1.0833 -0.6987 -0.0458
 3938SOL    HW212135   4.782  -0.007   2.468 -0.9227  0.2140 -1.3105
 3939SOL     OW12136   3.699   0.401   3.511 -0.2823  0.7274 -0.3647
 3939SOL    HW112137   3.731   0.417   3.418  0.1455 -0.0705 -0.3673
 3939SOL    HW212138   3.604   0.433   3.520  0.1626  2.1780 -0.6389
 3940SOL     OW12139   0.371   1.094   2.494 -0.3042  0.0594 -0.4203
 3940SOL    HW112140   0.435   1.127   2.425 -0.0826  1.0387  0.2303
 3940SOL    HW212141   0.355   1.166   2.561  0.7884 -1.4135  1.5061
 3941SOL     OW12142   4.665   5.225   3.701  0.2690 -0.2084  0.1531
 3941SOL    HW112143   4.634   5.312   3.662  0.4890  0.8574  2.2465
 3941SOL    HW212144   4.761   5.233   3.728  0.9238 -1.7945 -1.4250
 3942SOL     OW12145   0.022   1.541   2.429 -0.2850  0.0726  0.3153
 3942SOL    HW112146   0.099   1.572   2.374  0.3820  3.2577  2.7303
 3942SOL    HW212147  -0.023   1.464   2.383  2.9130 -0.4925 -2.2679
 3943SOL     OW12148   5.323   2.333   2.617 -1.1797 -0.4239  0.1494
 3943SOL    HW112149   5.271   2.249   2.636 -2.4896  0.3568  0.1873
 3943SOL    HW212150   5.338   2.382   2.703 -0.0999 -0.7794  0.1752
 3944SOL     OW12151   3.971   1.066   3.824  0.3750 -0.7715 -0.4845
 3944SOL    HW112152   4.044   1.000   3.810  2.3285  1.4155 -1.1220
 3944SOL    HW212153   3.939   1.061   3.919  0.6664 -2.3835 -0.4426
 3945SOL     OW12154   5.021   1.521   3.380  0.3824  0.3802 -0.4142
 3945SOL    HW112155   4.980   1.463   3.309 -1.0173  1.4627 -0.5173
 3945SOL    HW212156   5.065   1.463   3.448 -1.7031 -0.9029 -0.0588
 3946SOL     OW12157   3.855   1.388   4.387 -0.2819  0.1144  0.0600
 3946SOL    HW112158   3.846   1.470   4.444 -1.2682 -0.3641  0.6292
 3946SOL    HW212159   3.812   1.404   4.298  0.3235  0.5077 -0.1672
 3947SOL     OW12160   5.345   5.474   1.073 -0.6225  0.6637 -0.3679
 3947SOL    HW112161   5.283   5.453   0.998 -2.4183  0.5964  1.0483
 3947SOL    HW212162   5.437   5.489   1.038 -1.2993  0.1431 -2.4906
 3948SOL     OW12163   4.726   1.630   3.737 -0.1491  0.0877 -0.4410
 3948SOL    HW112164   4.744   1.726   3.715  2.8745 -0.0700  0.8861
 3948SOL    HW212165   4.756   1.572   3.661  1.0863  0.0532  0.0581
 3949SOL     OW12166   5.139   0.264   2.395 -0.0166  0.0342  0.5932
 3949SOL    HW112167   5.135   0.323   2.314 -1.4314 -0.0893  0.5478
 3949SOL    HW212168   5.228   0.217   2.398 -0.4197 -0.9990 -1.6517
 3950SOL     OW12169   5.240   0.996   4.031 -0.1036  0.2273 -0.5573
 3950SOL    HW112170   5.142   0.976   4.038  0.4026 -1.8047  2.0276
 3950SOL    HW212171   5.291   0.910   4.030  1.8454  1.2426  2.2744
 3951SOL     OW12172   3.556   0.984   3.938  0.2172  0.2695  0.3061
 3951SOL    HW112173   3.548   1.078   3.905  1.6292  0.5613  0.7263
 3951SOL    HW212174   3.633   0.977   4.002  1.9530 -1.7398 -1.8519
 3952SOL     OW12175   0.029   1.919   1.957  0.0264 -0.5216  0.6187
 3952SOL    HW112176  -0.006   2.012   1.947 -1.1586 -0.8712  1.3449
 3952SOL    HW212177  -0.004   1.880   2.043  0.1760 -1.7588  0.1408
 3953SOL     OW12178   5.526   1.916   1.144 -1.0907 -0.6193 -0.2666
 3953SOL    HW112179   5.588   1.957   1.212 -1.1996  1.6043 -1.4081
 3953SOL    HW212180   5.558   1.939   1.052 -2.8094 -0.6502 -0.9045
 3954SOL     OW12181   3.476   1.527   2.387  0.2775  0.3477 -0.2321
 3954SOL    HW112182   3.518   1.437   2.401 -1.3905 -0.4061  0.2538
 3954SOL    HW212183   3.516   1.593   2.450  0.0295 -0.5751  0.9146
 3955SOL     OW12184   5.511   5.099   2.885 -0.4793 -0.1151  0.1940
 3955SOL    HW112185   5.490   5.194   2.865 -0.5551  0.1206  1.3685
 3955SOL    HW212186   5.438   5.041   2.847 -1.0822  0.3856  0.5670
 3956SOL     OW12187   5.055   1.806   1.348  0.3566 -0.2202 -0.3589
 3956SOL    HW112188   4.993   1.882   1.330  1.4455  1.4851  2.4001
 3956SOL    HW212189   5.149   1.834   1.328  0.8435 -0.5462  1.3133
 3957SOL     OW12190   5.466   0.841   3.387  0.1692  0.1561 -0.1122
 3957SOL    HW112191   5.493   0.850   3.483  0.9065 -1.8053 -0.0848
 3957SOL    HW212192   5.544   0.864   3.329  0.3285 -0.5299 -0.1759
 3958SOL     OW12193   4.962   0.575   4.608 -0.0063  0.4417 -0.6654
 3958SOL    HW112194   4.935   0.488   4.567  1.4775 -0.9707  1.1646
 3958SOL    HW212195   4.899   0.600   4.681  0.5763 -0.1029  0.0464
 3959SOL     OW12196   4.469   1.633   3.136 -0.0658 -0.1289  0.4654
 3959SOL    HW112197   4.468   1.537   3.110  1.3490 -0.2048  0.6192
 3959SOL    HW212198   4.387   1.654   3.191 -1.3191 -0.7721 -1.0872
 3960SOL     OW12199   4.125   1.112   2.924  0.0219 -0.5923 -0.1304
 3960SOL    HW112200   4.057   1.051   2.882  0.1284 -0.6209 -0.2617
 3960SOL    HW212201   4.138   1.192   2.866 -0.9773  0.1294  0.6125
 3961SOL     OW12202   5.359   5.284   2.769  0.0464 -0.0382 -0.2208
 3961SOL    HW112203   5.273   5.274   2.819  0.8071 -0.9622  0.9470
 3961SOL    HW212204   5.345   5.256   2.674 -1.1636  0.7237 -0.2818
 3962SOL     OW12205   4.193   0.596   2.892  0.6202  0.4062  0.7294
 3962SOL    HW112206   4.266   0.564   2.952  0.5173  0.5064  0.9087
 3962SOL    HW212207   4.104   0.572   2.932  0.5471 -1.2300 -0.2779
 3963SOL     OW12208   3.230   0.988   5.356 -0.3286 -0.5467  0.2583
 3963SOL    HW112209   3.294   1.050   5.311 -0.6643  0.3409  0.9649
 3963SOL    HW212210   3.251   0.984   5.454 -1.1743 -0.4467  0.4569
 3964SOL     OW12211   4.606   0.147   3.263  0.1539  0.1606 -0.5872
 3964SOL    HW112212   4.680   0.084   3.239  0.4612  0.0897  0.5034
 3964SOL    HW212213   4.634   0.241   3.244  0.5114  0.1297 -0.2331
 3965SOL     OW12214   0.503   0.375   3.203  0.5235  0.4698 -0.1734
 3965SOL    HW112215   0.435   0.304   3.181 -1.4420  2.1243  0.2543
 3965SOL    HW212216   0.502   0.393   3.301 -0.7634  2.7094 -0.5405
 3966SOL     OW12217   4.833   1.688   2.469  0.3679 -0.1148  0.3235
 3966SOL    HW112218   4.787   1.671   2.383  0.4660 -0.6209  0.3677
 3966SOL    HW212219   4.769   1.730   2.534 -0.1264 -1.0990  0.4899
 3967SOL     OW12220   0.566   5.276   2.875 -0.4142  0.2949  0.3291
 3967SOL    HW112221   0.653   5.324   2.886 -0.6810  1.1800 -1.1480
 3967SOL    HW212222   0.504   5.303   2.949 -0.1237  1.2516  0.2363
 3968SOL     OW12223   4.938   2.441   1.574 -0.4832  0.5964 -0.3854
 3968SOL    HW112224   4.875   2.501   1.622 -0.7853  1.1260 -1.4008
 3968SOL    HW212225   4.982   2.492   1.499  2.0083  0.5944  0.9488
 3969SOL     OW12226   4.213   2.376   3.076  0.1735  0.2717  0.6891
 3969SOL    HW112227   4.231   2.290   3.028  1.6486  1.3907 -0.9145
 3969SOL    HW212228   4.117   2.401   3.065 -0.0458 -0.6887  0.3412
 3970SOL     OW12229   3.979   1.535   2.591 -0.1418 -0.0493  0.2115
 3970SOL    HW112230   3.912   1.493   2.652 -0.3593 -0.0085  0.0032
 3970SOL    HW212231   3.962   1.633   2.584  0.1328  0.0146  0.3993
 3971SOL     OW12232   4.649   0.372   3.130  0.3645  0.1994 -0.0355
 3971SOL    HW112233   4.659   0.463   3.168  2.5713  0.4675 -1.1006
 3971SOL    HW212234   4.623   0.378   3.033  1.5608 -0.2098 -0.4107
 3972SOL     OW12235   4.552   1.018   2.719  0.1295  0.5213  0.1783
 3972SOL    HW112236   4.530   0.932   2.673  0.4261 -0.7986  2.3724
 3972SOL    HW212237   4.474   1.048   2.774 -0.4849  2.4577 -1.6153
 3973SOL     OW12238   4.394   1.348   3.423 -0.1874  0.1892 -0.4242
 3973SOL    HW112239   4.452   1.323   3.345  0.3826  2.6209 -0.8710
 3973SOL    HW212240   4.298   1.333   3.399  0.0920 -2.9142 -0.0468
 3974SOL     OW12241   4.230   2.769   1.527 -0.1277  0.5217 -0.2097
 3974SOL    HW112242   4.265   2.802   1.615  1.1302  0.2135 -0.5860
 3974SOL    HW212243   4.283   2.690   1.498 -0.5113  0.6479 -1.2709
 3975SOL     OW12244   3.943   0.546   2.975  0.4851  0.4984  0.1852
 3975SOL    HW112245   3.846   0.568   2.988  0.2851  0.4089 -1.0409
 3975SOL    HW212246   3.952   0.448   2.954  0.9226  0.3584  0.9604
 3976SOL     OW12247   5.466   0.653   2.640 -0.1747  0.0404  1.0033
 3976SOL    HW112248   5.424   0.567   2.669 -1.2143  0.6258  1.2944
 3976SOL    HW212249   5.492   0.647   2.544 -1.7294 -0.0525  0.5690
 3977SOL     OW12250   3.603   1.362   1.609  0.0999  0.3707  0.6782
 3977SOL    HW112251   3.645   1.374   1.520  0.0759  2.1422  0.8690
 3977SOL    HW212252   3.529   1.295   1.602  0.4392  0.0936 -0.4993
 3978SOL     OW12253   5.375   5.392   2.351 -0.1849 -0.1902 -0.4755
 3978SOL    HW112254   5.346   5.304   2.388  1.3972 -0.9328 -0.9242
 3978SOL    HW212255   5.474   5.393   2.339 -0.2952  1.2152 -1.6453
 3979SOL     OW12256   5.392   2.027   3.375  0.2761  0.5788 -0.1245
 3979SOL    HW112257   5.364   1.997   3.466 -0.7888 -0.6531 -0.8136
 3979SOL    HW212258   5.491   2.018   3.366  0.3744  0.5708  0.8586
 3980SOL     OW12259   3.869   1.433   2.355  0.6557  0.1134 -0.4325
 3980SOL    HW112260   3.875   1.477   2.265 -0.0466  1.9912  0.3776
 3980SOL    HW212261   3.887   1.501   2.426 -2.2316 -0.4123  0.9678
 3981SOL     OW12262   4.801   5.034   3.380  0.3143  0.4318 -0.0898
 3981SOL    HW112263   4.721   4.991   3.338  0.5753  1.7330 -2.1142
 3981SOL    HW212264   4.777   5.126   3.410  0.4909 -0.0064  1.4639
 3982SOL     OW12265   0.015   5.370   3.380 -0.5720 -0.0496  0.3128
 3982SOL    HW112266   0.007   5.425   3.297 -0.5087 -0.8984 -0.2599
 3982SOL    HW212267   0.067   5.422   3.449  1.8151 -0.3852 -1.1207
 3983SOL     OW12268   4.350   5.609   1.333  0.2109 -0.0875  0.6718
 3983SOL    HW112269   4.286   5.582   1.261 -2.4586  0.4114  2.7100
 3983SOL    HW212270   4.430   5.549   1.329 -1.4183 -2.3771 -0.5272
 3984SOL     OW12271   4.550   4.890   3.291  0.3500  0.0873  0.6738
 3984SOL    HW112272   4.566   4.803   3.243 -0.7273 -0.1975  0.7940
 3984SOL    HW212273   4.515   4.871   3.382  2.0968  0.6344  1.4970
 3985SOL     OW12274   0.459   2.227   2.990 -0.3246 -0.0256  0.0257
 3985SOL    HW112275   0.410   2.140   2.987  0.5453 -0.5075 -0.6466
 3985SOL    HW212276   0.414   2.293   2.930 -1.4365  0.2502  1.1251
 3986SOL     OW12277   0.769   4.950   3.275 -0.4094  0.0978  0.1102
 3986SOL    HW112278   0.734   4.860   3.301  2.3257 -0.9708  0.4052
 3986SOL    HW212279   0.800   4.947   3.180 -1.3076  1.0974 -0.2382
 3987SOL     OW12280   3.936   0.959   2.832  0.1890  0.3767  0.0664
 3987SOL    HW112281   3.920   1.050   2.793  0.7862  0.4698  0.0351
 3987SOL    HW212282   3.923   0.889   2.761 -1.0724  0.3691  0.2834
 3988SOL     OW12283   4.826   5.559   1.969  0.0167 -0.1206 -0.1416
 3988SOL    HW112284   4.901   5.508   2.012 -0.6216 -0.8330  0.1438
 3988SOL    HW212285   4.814   5.528   1.875 -0.3584 -0.4860  0.0254
 3989SOL     OW12286   4.623   5.154   1.211  0.3426 -0.3314  0.3329
 3989SOL    HW112287   4.719   5.152   1.239  0.1768  0.2935  0.9777
 3989SOL    HW212288   4.606   5.080   1.147  1.5757  0.3711 -0.8570
 3990SOL     OW12289   4.728   0.897   1.106  0.0342  0.0924  0.0417
 3990SOL    HW112290   4.742   0.986   1.149  2.2108 -0.0662 -0.2374
 3990SOL    HW212291   4.757   0.901   1.010  1.5207 -1.2365  0.3839
 3991SOL     OW12292   5.484   5.328   1.958  0.0313 -0.2420 -0.4153
 3991SOL    HW112293   5.479   5.242   1.907  0.5528 -1.3540  1.3085
 3991SOL    HW212294   5.402   5.336   2.016  1.1277 -0.8784  1.3064
 3992SOL     OW12295   0.373   5.420   1.782 -0.2227  0.1048 -0.1596
 3992SOL    HW112296   0.347   5.333   1.824 -0.4917  0.6178  0.7501
 3992SOL    HW212297   0.291   5.472   1.760 -0.0337  0.9397  1.0402
 3993SOL     OW12298   4.478   1.454   4.569 -0.0862  0.1941  0.3815
 3993SOL    HW112299   4.491   1.382   4.502  1.3458  0.2097  0.6115
 3993SOL    HW212300   4.382   1.481   4.571 -0.1842  0.1317 -1.5907
 3994SOL     OW12301   4.143   0.779   3.078  0.0919 -0.0664  0.7586
 3994SOL    HW112302   4.153   0.758   2.981  0.3579  1.6508  0.3928
 3994SOL    HW212303   4.049   0.758   3.107 -0.4481  0.8366 -0.2623
 3995SOL     OW12304   4.263   2.069   2.247  0.0437 -0.4008  0.3404
 3995SOL    HW112305   4.353   2.025   2.254 -0.0812 -1.2027 -2.0834
 3995SOL    HW212306   4.258   2.146   2.310  2.2032 -0.6998  0.9551
 3996SOL     OW12307   3.985   1.683   1.895  0.2945 -0.2948  0.3289
 3996SOL    HW112308   3.946   1.628   1.969  1.9473 -1.1163  0.6264
 3996SOL    HW212309   4.043   1.754   1.934 -2.3468  2.2492  0.0014
 3997SOL     OW12310   5.301   0.442   1.093 -0.7229 -0.4446 -0.0185
 3997SOL    HW112311   5.326   0.348   1.112 -0.8834 -0.3175  0.8855
 3997SOL    HW212312   5.374   0.503   1.123 -1.0512 -0.2249  0.3456
 3998SOL     OW12313   3.254   1.070   3.190  0.4910 -0.0224 -0.2193
 3998SOL    HW112314   3.276   1.161   3.155  1.7066 -0.8040 -1.6146
 3998SOL    HW212315   3.238   1.074   3.288 -0.0282  1.7728 -0.3515
 3999SOL     OW12316   3.561   5.539   2.725  0.2437 -0.2099 -0.0767
 3999SOL    HW112317   3.495   5.503   2.792 -1.4656 -0.3107 -1.7342
 3999SOL    HW212318   3.539   5.635   2.706  1.5822  0.2335  0.4889
 4000SOL     OW12319   5.241   0.333   1.656  0.3015 -0.5804  0.3571
 4000SOL    HW112320   5.275   0.239   1.650  0.5666 -0.4325 -0.6558
 4000SOL    HW212321   5.262   0.381   1.572 -2.2131 -0.4167 -0.2651
 4001SOL     OW12322   4.953   5.333   2.116  0.2742 -0.2082  0.1421
 4001SOL    HW112323   4.957   5.316   2.214 -1.1373 -0.8083  0.1172
 4001SOL    HW212324   5.015   5.270   2.069  0.1335 -0.6628  0.5634
 4002SOL     OW12325   0.308   2.022   1.755 -0.4747 -0.1160 -0.1142
 4002SOL    HW112326   0.352   1.940   1.790 -2.3046 -0.7335  0.8197
 4002SOL    HW212327   0.237   1.997   1.689  0.4865  0.8598 -1.5899
 4003SOL     OW12328   4.670   4.435   4.169 -0.0382  0.4988  0.3737
 4003SOL    HW112329   4.619   4.401   4.089  0.1067 -1.2597  0.9839
 4003SOL    HW212330   4.766   4.446   4.144 -0.3195  1.8232 -0.2046
 4004SOL     OW12331   0.123   5.524   1.770 -0.0657  0.0649  0.9901
 4004SOL    HW112332   0.068   5.453   1.814  0.2588 -0.5981  0.3586
 4004SOL    HW212333   0.105   5.612   1.813 -0.7060 -0.3481  1.5902
 4005SOL     OW12334   4.573   0.209   2.442  0.3284  0.0246 -0.0663
 4005SOL    HW112335   4.581   0.292   2.497 -1.4120 -0.0527  0.3418
 4005SOL    HW212336   4.480   0.172   2.448  0.8834 -1.6144 -0.7462
 4006SOL     OW12337   5.292   1.028   3.769 -0.4993 -0.4172  0.0349
 4006SOL    HW112338   5.282   1.022   3.869  1.6416  0.9233  0.3891
 4006SOL    HW212339   5.218   1.084   3.732  0.7707  2.4080  1.4285
 4007SOL     OW12340   5.107   0.289   2.127  0.0746 -0.4557  0.0534
 4007SOL    HW112341   5.147   0.198   2.113  0.0340 -0.3664 -0.6769
 4007SOL    HW212342   5.021   0.295   2.077 -0.7200 -0.5332  1.3430
 4008SOL     OW12343   3.860   0.661   2.042  0.5223  0.3734  0.2541
 4008SOL    HW112344   3.822   0.695   1.956 -3.7097 -0.7709  1.4675
 4008SOL    HW212345   3.914   0.578   2.024 -1.9500 -1.0237 -1.2003
 4009SOL     OW12346   4.612   1.701   3.362 -0.5860  0.3629  0.1546
 4009SOL    HW112347   4.570   1.664   3.279  0.6480  1.8738 -1.2162
 4009SOL    HW212348   4.546   1.696   3.437 -2.4343  0.6122 -1.3502
 4010SOL     OW12349   4.983   1.341   4.529  0.2081 -0.2637 -0.1165
 4010SOL    HW112350   4.947   1.296   4.611  1.3107 -2.0579 -0.5698
 4010SOL    HW212351   5.034   1.423   4.556  0.5851 -0.8454  0.9957
 4011SOL     OW12352   0.207   1.482   4.635  0.6402 -0.1950  0.0336
 4011SOL    HW112353   0.148   1.532   4.698  0.2687  1.7175 -1.7533
 4011SOL    HW212354   0.296   1.467   4.678  0.2355  0.5816  1.1964
 4012SOL     OW12355   5.208   1.704   3.328 -0.0260  0.0230  0.0892
 4012SOL    HW112356   5.182   1.796   3.297 -1.6962 -0.1769  0.8008
 4012SOL    HW212357   5.126   1.651   3.347  0.9223 -1.5808 -0.1349
 4013SOL     OW12358   5.229   0.634   3.792  0.0736 -0.3509  0.4555
 4013SOL    HW112359   5.255   0.693   3.868 -1.2397 -0.8974  1.3702
 4013SOL    HW212360   5.309   0.617   3.734  0.2074  3.5833 -0.8067
 4014SOL     OW12361   4.136   5.066   4.756  0.3266 -0.0240  0.4468
 4014SOL    HW112362   4.146   5.126   4.676  0.2611  0.6952  0.9751
 4014SOL    HW212363   4.051   5.086   4.803  0.0136 -0.9535  0.2900
 4015SOL     OW12364   5.003   0.869   4.491  0.3838  0.5053 -0.4487
 4015SOL    HW112365   5.085   0.815   4.470  0.0478 -0.4198  0.5544
 4015SOL    HW212366   4.923   0.823   4.453 -0.2087 -1.0681  2.4540
 4016SOL     OW12367   4.454   1.854   2.958 -0.1142  0.5628  0.5065
 4016SOL    HW112368   4.413   1.823   2.873  1.8821 -0.4046 -0.1630
 4016SOL    HW212369   4.461   1.777   3.022  0.6383  0.7085  0.6056
 4017SOL     OW12370   4.902   0.352   3.001  0.0395  0.1147  0.1690
 4017SOL    HW112371   4.906   0.412   2.920 -0.0945 -0.1457 -0.0320
 4017SOL    HW212372   4.808   0.349   3.035 -0.1361 -0.6657 -0.3459
 4018SOL     OW12373   4.585   5.361   1.934  0.0830 -0.2219  0.1923
 4018SOL    HW112374   4.510   5.390   1.993  0.1394 -1.7130  1.0438
 4018SOL    HW212375   4.654   5.433   1.929 -0.8811  0.7272  0.2840
 4019SOL     OW12376   3.917   1.720   3.503 -0.2887 -0.0028  0.2141
 4019SOL    HW112377   3.904   1.689   3.597 -1.1446 -2.1368 -0.5403
 4019SOL    HW212378   3.871   1.808   3.490 -0.3230  0.2197  1.7274
 4020SOL     OW12379   2.914   1.107   2.401  0.3878 -0.2363 -0.5124
 4020SOL    HW112380   2.934   1.181   2.337 -1.6860  0.2795 -0.6158
 4020SOL    HW212381   2.852   1.041   2.359  0.4805 -0.8869  0.3259
 4021SOL     OW12382   4.307   5.118   3.871  0.2110 -0.2353  0.7230
 4021SOL    HW112383   4.383   5.064   3.834  1.3993  2.4052 -0.9601
 4021SOL    HW212384   4.227   5.059   3.881  1.5197 -2.3890 -0.5741
 4022SOL     OW12385   3.551   1.546   2.134 -0.0841  0.6955 -0.3368
 4022SOL    HW112386   3.518   1.536   2.227 -0.9573 -0.7865 -0.7652
 4022SOL    HW212387   3.552   1.643   2.108  1.6882  1.2770  1.7075
 4023SOL     OW12388   4.906   1.361   3.211  0.7835  0.0536 -0.2908
 4023SOL    HW112389   4.882   1.272   3.250 -0.9972  0.5247 -0.2572
 4023SOL    HW212390   4.832   1.393   3.152  1.0751  1.8638  0.2716
 4024SOL     OW12391   5.214   0.899   3.290 -0.4859 -0.3832 -0.2808
 4024SOL    HW112392   5.291   0.860   3.341 -0.7733  0.5975  0.9798
 4024SOL    HW212393   5.204   0.996   3.315 -3.1718 -0.8767  0.9811
 4025SOL     OW12394   3.506   1.301   4.052 -0.5340 -0.0427  0.1935
 4025SOL    HW112395   3.422   1.351   4.074 -1.1483 -0.0076 -2.0598
 4025SOL    HW212396   3.529   1.315   3.956  2.1979  0.1152  0.7922
 4026SOL     OW12397   4.183   0.355   4.288 -0.1266 -0.1574 -0.4821
 4026SOL    HW112398   4.139   0.298   4.357  0.4583  0.5911  0.5351
 4026SOL    HW212399   4.229   0.296   4.221 -0.2617 -0.8899  0.0513
 4027SOL     OW12400   0.245   1.315   4.099 -0.5206  0.4874 -0.4518
 4027SOL    HW112401   0.149   1.289   4.089 -0.6250  1.5610 -3.0519
 4027SOL    HW212402   0.260   1.404   4.057  1.7874 -0.0786 -0.9926
 4028SOL     OW12403   4.286   1.140   4.016  0.5843  0.0693 -0.9232
 4028SOL    HW112404   4.237   1.135   3.929  1.0378 -0.2273 -1.1624
 4028SOL    HW212405   4.340   1.058   4.029  0.9689  0.3664 -0.6286
 4029SOL     OW12406   4.826   4.310   4.399 -0.4025  0.0731 -0.3408
 4029SOL    HW112407   4.902   4.287   4.459 -0.5789  0.4896  0.0556
 4029SOL    HW212408   4.740   4.290   4.446 -0.5813  2.1451  0.3120
 4030SOL     OW12409   3.524   1.871   2.801 -1.1312  0.2402 -0.4110
 4030SOL    HW112410   3.468   1.791   2.784  0.4079 -1.0919  0.4588
 4030SOL    HW212411   3.620   1.850   2.781 -0.6070  1.6725  0.3866
 4031SOL     OW12412   4.886   5.546   2.738  0.1894  1.1985 -0.3300
 4031SOL    HW112413   4.816   5.541   2.667  0.2707 -2.4219 -0.3312
 4031SOL    HW212414   4.846   5.523   2.826  1.0086  0.7142 -0.0656
 4032SOL     OW12415   0.206   2.036   2.507  0.4168 -0.3134  0.9617
 4032SOL    HW112416   0.122   2.033   2.560  0.5298 -2.4194  1.0995
 4032SOL    HW212417   0.271   2.099   2.550 -0.5424  0.2033  1.6802
 4033SOL     OW12418   2.070   5.264   3.022 -0.7074 -0.4116  0.4829
 4033SOL    HW112419   2.160   5.305   3.037 -0.2279 -1.3379  0.2223
 4033SOL    HW212420   2.070   5.214   2.936 -2.2093  1.5145 -0.7221
 4034SOL     OW12421   4.421   1.685   3.590 -0.4206  0.1004  0.2080
 4034SOL    HW112422   4.456   1.765   3.638 -0.5608 -0.0747  0.6097
 4034SOL    HW212423   4.409   1.610   3.655 -1.1258  0.0227 -0.0038
 4035SOL     OW12424   4.194   1.136   3.193  0.7479  0.5638  0.1627
 4035SOL    HW112425   4.264   1.066   3.202  0.8890  0.4281 -1.6632
 4035SOL    HW212426   4.166   1.144   3.097 -0.6421  1.6769  0.6203
 4036SOL     OW12427   0.229   0.822   3.481 -1.2160 -0.2918  0.1035
 4036SOL    HW112428   0.199   0.898   3.424 -0.6264 -1.0331 -1.2176
 4036SOL    HW212429   0.315   0.846   3.527 -0.3312 -0.6203 -1.3373
 4037SOL     OW12430   4.649   0.233   3.509  0.0222  0.3884  0.0689
 4037SOL    HW112431   4.623   0.169   3.437  0.6171 -1.2798  1.2667
 4037SOL    HW212432   4.720   0.294   3.476 -0.4185  0.3185 -1.0486
 4038SOL     OW12433   0.084   5.331   2.158 -0.4868  0.0564 -0.0423
 4038SOL    HW112434   0.057   5.385   2.238  0.7070 -1.7858  1.7006
 4038SOL    HW212435   0.013   5.338   2.088 -0.2660  4.0472 -0.0888
 4039SOL     OW12436   5.227   1.959   3.613  0.6177  0.0426 -0.0608
 4039SOL    HW112437   5.182   1.941   3.700  2.7993 -0.3213  1.0693
 4039SOL    HW212438   5.159   1.959   3.539 -1.1246 -0.7867  1.4704
 4040SOL     OW12439   4.760   0.816   4.988 -0.3943 -0.2303  0.2707
 4040SOL    HW112440   4.860   0.819   4.990 -0.2542 -2.4968 -0.1976
 4040SOL    HW212441   4.723   0.898   5.031  1.6629 -0.2271  2.2084
 4041SOL     OW12442   0.428   1.000   4.056 -0.0502  0.2611 -0.3699
 4041SOL    HW112443   0.426   0.935   4.132  1.1218  1.3323  0.6204
 4041SOL    HW212444   0.336   1.038   4.043 -0.5148 -0.7921 -0.2659
 4042SOL     OW12445   3.803   0.998   4.062  0.1469  0.0192  0.2647
 4042SOL    HW112446   3.868   0.924   4.080  0.1225  0.2804  1.5206
 4042SOL    HW212447   3.799   1.059   4.141 -2.9166 -0.9255  0.9651
 4043SOL     OW12448   4.861   0.687   1.713 -0.7490  0.2583  0.5833
 4043SOL    HW112449   4.793   0.738   1.766 -1.6343  1.5788 -1.6514
 4043SOL    HW212450   4.822   0.599   1.686 -2.0641  1.3974 -1.4925
 4044SOL     OW12451   3.878   0.359   1.456 -0.3530 -0.1756  0.5153
 4044SOL    HW112452   3.950   0.384   1.390 -3.2436 -1.0987 -3.3829
 4044SOL    HW212453   3.880   0.261   1.470 -0.0692 -0.0383  1.4743
 4045SOL     OW12454   5.022   1.307   2.336  0.4091 -0.2373  0.0513
 4045SOL    HW112455   5.036   1.398   2.377 -0.4749  0.3133 -0.8209
 4045SOL    HW212456   4.961   1.316   2.257 -0.3682 -1.7232  0.4543
 4046SOL     OW12457   4.284   1.659   3.341  0.1002  0.7371  0.2186
 4046SOL    HW112458   4.328   1.645   3.430 -1.5394 -2.6335  0.6600
 4046SOL    HW212459   4.241   1.749   3.339  1.5248  1.5359  2.1858
 4047SOL     OW12460   4.389   0.234   3.057 -0.0227  0.1247 -0.0306
 4047SOL    HW112461   4.457   0.280   3.114  0.7760  0.3394 -1.1268
 4047SOL    HW212462   4.298   0.267   3.081  0.2280 -0.3249  1.6019
 4048SOL     OW12463   4.974   0.934   3.980  0.2475 -0.4988 -0.2956
 4048SOL    HW112464   4.938   0.962   4.069 -0.3059 -1.2559 -0.2714
 4048SOL    HW212465   4.945   0.841   3.960  0.2536 -0.2939 -1.3319
 4049SOL     OW12466   4.634   0.968   4.015  0.6393 -0.1015 -0.2257
 4049SOL    HW112467   4.721   0.986   4.061  0.7520 -0.5177 -0.2732
 4049SOL    HW212468   4.577   0.910   4.072  0.4517  0.0444 -0.2631
 4050SOL     OW12469   3.452   0.686   1.859  0.3114 -0.2089 -0.3901
 4050SOL    HW112470   3.371   0.641   1.822  0.8933 -0.7574 -1.0224
 4050SOL    HW212471   3.426   0.743   1.937 -0.6294 -0.6242 -0.3900
 4051SOL     OW12472   4.610   1.738   0.779  0.9358  0.4684  0.4362
 4051SOL    HW112473   4.518   1.765   0.809  1.1276 -0.3903  1.8652
 4051SOL    HW212474   4.677   1.804   0.812  1.1555 -0.5162  2.0523
 4052SOL     OW12475   4.863   2.359   3.193  0.0770 -0.7817  0.0562
 4052SOL    HW112476   4.802   2.373   3.270 -0.6329  0.3429 -0.6774
 4052SOL    HW212477   4.958   2.371   3.222 -0.2145  0.2237  0.6289
 4053SOL     OW12478   4.610   0.565   4.039 -0.3751 -0.0433 -0.0665
 4053SOL    HW112479   4.577   0.497   4.104  0.1494 -1.9312 -1.6853
 4053SOL    HW212480   4.706   0.584   4.056 -0.8301  1.3139  1.1861
 4054SOL     OW12481   3.389   0.618   2.273  0.2063 -0.5282  0.1001
 4054SOL    HW112482   3.421   0.621   2.367  1.2122  0.0722 -0.2433
 4054SOL    HW212483   3.446   0.555   2.220  0.7402  0.4292 -0.4867
 4055SOL     OW12484   3.991   0.800   4.748  0.4183 -0.2809  0.6188
 4055SOL    HW112485   4.060   0.765   4.812  0.2407 -0.5266  0.6747
 4055SOL    HW212486   3.935   0.869   4.794  0.4196 -0.3126  0.6676
 4056SOL     OW12487   5.029   4.584   3.770 -0.0423  0.5169  0.3861
 4056SOL    HW112488   4.947   4.629   3.805 -0.3961 -0.3136  0.6400
 4056SOL    HW212489   5.090   4.653   3.730 -1.8026  0.9293 -1.7918
 4057SOL     OW12490   4.004   0.968   3.292 -0.2615  0.2921 -0.2069
 4057SOL    HW112491   3.988   0.885   3.240 -0.1002 -2.0410  3.1361
 4057SOL    HW212492   4.094   1.005   3.271  0.1512 -1.0838 -0.9087
 4058SOL     OW12493   3.976   5.539   4.111 -1.1318 -0.0768  0.1693
 4058SOL    HW112494   4.010   5.569   4.022 -0.9491  1.1907  0.6552
 4058SOL    HW212495   3.912   5.607   4.148  0.1989  0.3426  1.8359
 4059SOL     OW12496   4.378   1.305   2.104 -0.5578 -0.0408 -0.3970
 4059SOL    HW112497   4.281   1.324   2.120 -0.6431  1.3592 -2.2226
 4059SOL    HW212498   4.417   1.377   2.046  2.0013  0.3349  1.5869
 4060SOL     OW12499   4.063   0.014   3.388  0.0412  0.1252 -0.6028
 4060SOL    HW112500   3.985   0.076   3.379 -0.9295 -0.7931  0.9390
 4060SOL    HW212501   4.041  -0.057   3.455  1.7909 -0.8414 -0.9904
 4061SOL     OW12502   3.903   1.987   4.552 -0.4746  0.2819 -0.4130
 4061SOL    HW112503   3.843   1.924   4.503 -0.5651 -0.7140  0.9286
 4061SOL    HW212504   3.985   2.003   4.498 -0.3029 -1.2537 -0.6629
 4062SOL     OW12505   4.391   5.322   2.854  0.2207 -0.5160 -0.4462
 4062SOL    HW112506   4.328   5.318   2.931  2.7095  1.3593  1.8809
 4062SOL    HW212507   4.392   5.415   2.816  1.1550 -0.6633 -0.8106
 4063SOL     OW12508   4.985   2.442   2.835  0.3128  0.3362  0.0672
 4063SOL    HW112509   5.030   2.464   2.921 -1.2941  2.3423  0.4728
 4063SOL    HW212510   5.020   2.502   2.763  0.8026 -0.5254 -0.4258
 4064SOL     OW12511   4.976   1.949   3.429 -0.5587  0.8719 -0.7067
 4064SOL    HW112512   4.903   1.949   3.497  1.4630  1.7601  1.6426
 4064SOL    HW212513   4.999   2.043   3.405 -0.3891  0.5968 -1.6567
 4065SOL     OW12514   5.310   0.988   2.438 -0.2150 -0.1190  0.2582
 4065SOL    HW112515   5.350   1.071   2.401 -1.2936  0.0075 -0.6758
 4065SOL    HW212516   5.215   0.980   2.407 -0.2428 -1.5050  0.6363
 4066SOL     OW12517   4.292   2.111   3.004 -0.2020 -0.3295 -0.4949
 4066SOL    HW112518   4.233   2.087   3.080 -0.3047  0.1889 -0.4099
 4066SOL    HW212519   4.350   2.032   2.980 -0.6337 -0.7033 -0.3168
 4067SOL     OW12520   5.114   2.187   2.753 -0.0187 -0.2991  0.1840
 4067SOL    HW112521   5.095   2.286   2.753  1.4131 -0.0038  0.1697
 4067SOL    HW212522   5.028   2.137   2.749 -0.8949  0.9256  2.1822
 4068SOL     OW12523   3.843   1.133   2.601 -0.1220 -0.4219 -0.8272
 4068SOL    HW112524   3.844   1.220   2.651  0.4479 -0.2583 -1.1201
 4068SOL    HW212525   3.911   1.135   2.529 -1.3844 -0.3961 -2.0565
 4069SOL     OW12526   4.862   2.069   3.962 -0.2404  0.3286 -0.4552
 4069SOL    HW112527   4.818   2.050   4.049  0.3731  1.5552  0.1485
 4069SOL    HW212528   4.794   2.065   3.888 -1.0566  0.7235  0.2599
 4070SOL     OW12529   0.388   0.970   2.024  0.1120 -0.1919 -0.7573
 4070SOL    HW112530   0.369   0.905   1.951  0.3373  0.7365 -1.6678
 4070SOL    HW212531   0.326   0.953   2.101 -0.6709 -0.6842 -1.4767
 4071SOL     OW12532   3.639   1.892   1.435 -0.0773  0.3890  0.1882
 4071SOL    HW112533   3.707   1.918   1.366  0.3339  1.4602  0.9626
 4071SOL    HW212534   3.686   1.865   1.519 -0.6016  0.9874  0.6815
 4072SOL     OW12535   4.000   1.484   2.972 -0.5686  0.5077  0.1522
 4072SOL    HW112536   3.903   1.491   2.995 -0.5593 -1.1891  0.8578
 4072SOL    HW212537   4.054   1.483   3.056 -0.0627  0.1007 -0.1683
 4073SOL     OW12538   4.329   1.536   1.562  0.3496 -0.5384  0.0621
 4073SOL    HW112539   4.248   1.515   1.507  0.1258  1.8784 -0.6552
 4073SOL    HW212540   4.301   1.551   1.657  0.2900 -1.7986  0.2510
 4074SOL     OW12541   4.455   1.763   3.960 -0.4891 -0.3115  0.1448
 4074SOL    HW112542   4.367   1.778   4.005 -0.9321  0.5768 -0.9686
 4074SOL    HW212543   4.488   1.850   3.923  0.3947 -0.8180 -0.2787
 4075SOL     OW12544   4.448   0.696   2.283 -0.2647 -0.0578 -0.4002
 4075SOL    HW112545   4.492   0.631   2.346  0.9949  2.4691  1.5042
 4075SOL    HW212546   4.350   0.676   2.278 -0.4062 -0.4636  2.2849
 4076SOL     OW12547   5.107   2.488   3.325 -0.2473  0.2322 -0.2494
 4076SOL    HW112548   5.187   2.541   3.297  0.4949 -0.7444 -0.0406
 4076SOL    HW212549   5.044   2.546   3.375  0.2405  1.0698 -0.5934
 4077SOL     OW12550   0.344   4.320   1.394 -0.3301 -0.0857 -0.2594
 4077SOL    HW112551   0.382   4.339   1.304 -0.5357  1.7516 -0.0004
 4077SOL    HW212552   0.265   4.259   1.386 -0.1838 -0.1510 -1.2707
 4078SOL     OW12553   3.085   0.318   2.510  0.0492 -0.2155  0.6178
 4078SOL    HW112554   3.035   0.264   2.578 -0.3753  0.4654  0.8580
 4078SOL    HW212555   3.098   0.411   2.545  1.0245 -0.2355  0.3323
 4079SOL     OW12556   4.484   0.419   1.874  0.4453 -0.2632  0.2714
 4079SOL    HW112557   4.475   0.329   1.917 -0.7377 -0.1825  0.2346
 4079SOL    HW212558   4.408   0.476   1.902  1.0043  0.6201  0.0103
 4080SOL     OW12559   3.322   1.836   2.221  0.2640  0.3372 -0.7299
 4080SOL    HW112560   3.402   1.815   2.164  0.1902 -0.0464 -0.6949
 4080SOL    HW212561   3.243   1.784   2.189  0.5864 -1.0930  0.6438
 4081SOL     OW12562   4.138   0.692   1.235  0.0089 -0.3438 -0.2529
 4081SOL    HW112563   4.127   0.594   1.219  1.3225 -0.2731 -1.9784
 4081SOL    HW212564   4.235   0.712   1.251 -0.1016  0.7966 -0.9158
 4082SOL     OW12565   4.171   2.824   2.126 -0.1086  0.1888  0.7244
 4082SOL    HW112566   4.150   2.731   2.096 -1.0918  0.0055  1.8780
 4082SOL    HW212567   4.269   2.840   2.117  0.1032 -1.0230  0.6580
 4083SOL     OW12568   3.821   0.631   4.139 -0.9424 -0.0652 -0.2731
 4083SOL    HW112569   3.804   0.608   4.043 -1.6768 -0.9204  0.0458
 4083SOL    HW212570   3.733   0.636   4.187 -0.7526  2.4542 -0.0850
 4084SOL     OW12571   0.067   1.772   3.261  0.0654 -0.3403 -0.1488
 4084SOL    HW112572   0.153   1.799   3.218 -1.6408  2.0911 -2.3104
 4084SOL    HW212573  -0.003   1.759   3.191 -1.6643 -1.0894  1.6215
 4085SOL     OW12574   0.273   1.161   2.849  0.2465 -0.2897 -0.7706
 4085SOL    HW112575   0.294   1.214   2.768  0.9844  0.1700 -0.2924
 4085SOL    HW212576   0.317   1.071   2.843  0.6526 -0.0974 -0.6933
 4086SOL     OW12577   4.961   0.529   2.769  0.7161  0.4343  0.3057
 4086SOL    HW112578   4.865   0.556   2.761  1.1327  2.0706  0.4826
 4086SOL    HW212579   4.974   0.440   2.727 -0.8482  0.2664  0.1204
 4087SOL     OW12580   3.893   0.715   3.191  0.2171 -0.0647 -0.3598
 4087SOL    HW112581   3.838   0.780   3.139 -0.6563 -1.0596 -0.7236
 4087SOL    HW212582   3.864   0.622   3.169  1.7748 -0.6150 -0.2388
 4088SOL     OW12583   0.253   5.008   4.356  0.0451  0.1476 -0.6961
 4088SOL    HW112584   0.223   5.072   4.427 -0.9076  1.0307 -1.8663
 4088SOL    HW212585   0.349   5.024   4.334 -0.2469  1.3489 -1.1436
 4089SOL     OW12586   3.494   2.021   3.044 -0.0441 -0.1661  0.8941
 4089SOL    HW112587   3.460   1.946   3.102  1.4679 -1.9225 -0.3664
 4089SOL    HW212588   3.481   1.997   2.948 -2.2217  2.5534  0.3806
 4090SOL     OW12589   3.731   1.933   3.455 -0.1827 -0.1194 -0.6213
 4090SOL    HW112590   3.761   2.013   3.506 -3.0654  0.7461 -0.1027
 4090SOL    HW212591   3.762   1.940   3.360  0.7512  0.8910 -0.2541
 4091SOL     OW12592   4.958   4.787   3.447  0.2840  0.3714 -0.2517
 4091SOL    HW112593   5.015   4.791   3.529 -1.2577 -0.8005  0.9285
 4091SOL    HW212594   4.924   4.879   3.426 -1.8239  0.2793  2.3118
 4092SOL     OW12595   3.018   0.420   2.072 -0.1907 -0.1780 -0.0128
 4092SOL    HW112596   3.000   0.503   2.019 -1.8471 -0.4732  0.0180
 4092SOL    HW212597   3.049   0.348   2.010 -3.1179 -0.8356 -0.8773
 4093SOL     OW12598   4.781   1.527   3.513 -0.2108 -0.3080 -0.7417
 4093SOL    HW112599   4.878   1.538   3.488 -0.2158  1.4761 -0.1424
 4093SOL    HW212600   4.724   1.578   3.448 -0.7546 -1.1839 -0.9722
 4094SOL     OW12601   2.543   5.530   2.458 -0.2705 -0.0060  0.5138
 4094SOL    HW112602   2.610   5.599   2.430 -0.7869  0.6799  0.9375
 4094SOL    HW212603   2.543   5.523   2.558  1.0561 -1.9250  0.4308
 4095SOL     OW12604   4.461   0.481   0.906 -0.0554  0.5206 -0.3845
 4095SOL    HW112605   4.478   0.521   0.996 -0.6885  0.6810 -0.3308
 4095SOL    HW212606   4.371   0.510   0.873 -1.0031 -1.6667  0.1086
 4096SOL     OW12607   0.340   5.267   3.545 -0.3863 -0.1188 -0.0380
 4096SOL    HW112608   0.250   5.252   3.587 -0.6258  1.4479  0.0550
 4096SOL    HW212609   0.380   5.178   3.520 -0.2342 -1.1694  3.4140
 4097SOL     OW12610   4.857   0.932   2.712  0.2339  0.5732  0.2370
 4097SOL    HW112611   4.903   0.984   2.640 -0.7419 -0.7090 -1.3830
 4097SOL    HW212612   4.820   0.995   2.781 -2.8194  2.3471 -2.7444
 4098SOL     OW12613   3.485   5.395   3.763  0.0829 -0.1184 -0.6405
 4098SOL    HW112614   3.500   5.347   3.850 -0.7152  2.1600  0.8347
 4098SOL    HW212615   3.522   5.487   3.769  0.3100 -0.0199 -2.8818
 4099SOL     OW12616   4.459   0.778   4.098  0.4349 -0.0351  0.5043
 4099SOL    HW112617   4.381   0.739   4.147 -1.3724  1.3949 -1.0125
 4099SOL    HW212618   4.506   0.706   4.047 -1.5270 -0.6121 -0.5936
 4100SOL     OW12619   0.030   2.166   3.668 -0.3757  0.1007  0.3232
 4100SOL    HW112620  -0.069   2.179   3.657 -0.1994  2.0170  0.5646
 4100SOL    HW212621   0.057   2.079   3.627 -2.0298 -0.0550 -0.5389
 4101SOL     OW12622   4.280   5.518   2.349 -0.0415 -0.0459 -0.4777
 4101SOL    HW112623   4.264   5.606   2.393  0.7389  0.3946 -1.0400
 4101SOL    HW212624   4.229   5.447   2.396 -0.1219  0.5929  0.4247
 4102SOL     OW12625   0.334   5.458   2.132  0.6206 -0.3518 -0.1998
 4102SOL    HW112626   0.303   5.548   2.101 -0.1229 -0.1592  1.0302
 4102SOL    HW212627   0.255   5.398   2.146  1.1094 -1.2598 -1.1109
 4103SOL     OW12628   4.478   0.445   3.802  0.0914  0.1594 -0.6378
 4103SOL    HW112629   4.473   0.473   3.897 -0.0189 -1.3817 -0.1573
 4103SOL    HW212630   4.386   0.442   3.763 -0.0590 -0.9388 -0.2361
 4104SOL     OW12631   4.986   0.617   3.573  0.0094 -0.2446  0.4213
 4104SOL    HW112632   5.027   0.633   3.484  0.0227 -0.2840  0.4201
 4104SOL    HW212633   5.054   0.632   3.645 -0.0704  0.0351  0.4392
 4105SOL     OW12634   0.719   0.719   3.223  0.0263  0.8770  0.7217
 4105SOL    HW112635   0.741   0.627   3.191 -1.6678  0.8441 -0.4929
 4105SOL    HW212636   0.795   0.781   3.201 -0.5059  0.6073 -2.4553
 4106SOL     OW12637   3.756   2.205   1.709  0.0429 -0.1779 -0.2804
 4106SOL    HW112638   3.672   2.251   1.680 -0.1684  0.0803  0.7166
 4106SOL    HW212639   3.798   2.255   1.785  2.1685  0.8109 -2.0055
 4107SOL     OW12640   3.960   1.336   1.919  0.2618  0.5461  0.1697
 4107SOL    HW112641   3.966   1.239   1.895  1.7501  0.2417  1.6217
 4107SOL    HW212642   3.911   1.385   1.847  1.0667 -0.9720 -1.4917
 4108SOL     OW12643   4.149   1.487   3.193 -0.4521 -0.4998  0.2435
 4108SOL    HW112644   4.197   1.549   3.256 -0.2654 -0.1077 -0.2838
 4108SOL    HW212645   4.212   1.415   3.164 -0.7927 -1.2171  1.2061
 4109SOL     OW12646   4.652   1.800   2.646  0.0374  0.1398 -0.0452
 4109SOL    HW112647   4.669   1.893   2.611  1.0535 -0.1629 -0.3960
 4109SOL    HW212648   4.559   1.795   2.683  1.0102  2.2389  3.0549
 4110SOL     OW12649   4.124   1.109   0.400 -0.3592 -0.9100 -0.0680
 4110SOL    HW112650   4.219   1.077   0.404 -0.3054 -0.8182 -0.5896
 4110SOL    HW212651   4.110   1.160   0.315 -0.0029  1.7978  1.3841
 4111SOL     OW12652   4.301   0.616   2.625  0.0922 -0.3995  0.1252
 4111SOL    HW112653   4.252   0.552   2.565 -0.2374 -0.4335  0.4235
 4111SOL    HW212654   4.264   0.609   2.717  0.8187 -0.5835  0.4042
 4112SOL     OW12655   4.255   1.909   3.394 -0.6974 -0.4891  0.1485
 4112SOL    HW112656   4.348   1.943   3.385 -0.8689  0.4941  1.7731
 4112SOL    HW212657   4.195   1.959   3.332 -0.3119 -0.3971 -0.1518
 4113SOL     OW12658   4.211   1.557   4.662  0.0083  0.1471 -0.1791
 4113SOL    HW112659   4.221   1.608   4.747  1.0035  0.6470 -0.5740
 4113SOL    HW212660   4.232   1.618   4.585 -1.5201 -0.1029 -0.8366
 4114SOL     OW12661   5.198   4.053   3.354 -0.5918 -0.4189 -0.1446
 4114SOL    HW112662   5.247   4.064   3.267  1.6469  0.6209  1.1672
 4114SOL    HW212663   5.158   4.141   3.381  1.2764  0.0514  1.2681
 4115SOL     OW12664   5.130   5.070   2.637  0.3416  0.0062 -0.1030
 4115SOL    HW112665   5.139   5.140   2.708 -0.9231 -0.4239  0.5011
 4115SOL    HW212666   5.036   5.037   2.633  0.9455 -1.8442 -0.2053
 4116SOL     OW12667   4.544   0.996   1.511 -0.4785  0.1771 -0.6458
 4116SOL    HW112668   4.607   1.029   1.440 -1.1381  1.7378 -0.5449
 4116SOL    HW212669   4.496   1.074   1.551 -1.2682 -0.8393  0.4318
 4117SOL     OW12670   4.286   0.167   2.453 -0.1390  0.4984 -0.3843
 4117SOL    HW112671   4.263   0.212   2.539 -1.2387 -0.4988 -0.1203
 4117SOL    HW212672   4.224   0.199   2.381  2.1139  2.9460 -1.3994
 4118SOL     OW12673   5.180   1.391   3.566  0.2035  0.6388  0.5778
 4118SOL    HW112674   5.267   1.344   3.579 -0.4260 -0.5220  0.7749
 4118SOL    HW212675   5.154   1.437   3.651 -0.5151 -1.0625  1.3438
 4119SOL     OW12676   4.282   5.408   4.386  0.4949  0.4251 -0.3804
 4119SOL    HW112677   4.309   5.345   4.313 -0.5519  1.7891 -2.0295
 4119SOL    HW212678   4.364   5.452   4.423  1.0352 -0.0726 -0.9484
 4120SOL     OW12679   4.447   5.443   3.151 -0.1396 -0.2363  0.2990
 4120SOL    HW112680   4.472   5.352   3.182  0.3363 -0.2725 -0.1678
 4120SOL    HW212681   4.409   5.495   3.227 -1.9452 -1.3406  0.2107
 4121SOL     OW12682   3.870   1.747   2.477 -0.1781 -0.3908  0.2871
 4121SOL    HW112683   3.807   1.754   2.400  0.0949 -0.9606  0.0097
 4121SOL    HW212684   3.929   1.828   2.479 -0.4938 -0.1532  0.1803
 4122SOL     OW12685   3.568   1.700   2.547 -0.1353  0.3656  0.1964
 4122SOL    HW112686   3.486   1.755   2.561  0.2115  0.5967  1.5103
 4122SOL    HW212687   3.644   1.741   2.597 -0.2031 -2.0584  2.5465
 4123SOL     OW12688   4.891   0.223   2.003  0.3011  0.3846 -0.3439
 4123SOL    HW112689   4.840   0.253   2.083  0.1077  2.5503 -1.1922
 4123SOL    HW212690   4.851   0.140   1.966 -1.6770  1.1837 -0.0875
 4124SOL     OW12691   5.157   5.442   2.500 -0.1068  0.3442  0.1281
 4124SOL    HW112692   5.249   5.433   2.462  0.7667 -0.9760  2.3363
 4124SOL    HW212693   5.162   5.486   2.590 -1.6175  0.0833  0.3770
 4125SOL     OW12694   4.835   5.454   3.076  0.2465  0.5503 -0.6476
 4125SOL    HW112695   4.846   5.355   3.064  1.5504  0.4465  1.0335
 4125SOL    HW212696   4.748   5.483   3.035 -1.0271 -1.5931  0.3479
 4126SOL     OW12697   4.492   1.158   2.498  0.3850 -0.0730 -0.6726
 4126SOL    HW112698   4.525   1.109   2.579 -0.4320  0.3744 -0.0490
 4126SOL    HW212699   4.456   1.093   2.432  1.9672 -0.5268 -1.1359
 4127SOL     OW12700   5.052   3.162   1.040 -0.1486 -0.1286 -0.0576
 4127SOL    HW112701   5.029   3.065   1.036 -0.1837 -0.1179 -0.1095
 4127SOL    HW212702   4.997   3.213   0.973 -0.4006 -0.0178  0.2322
 4128SOL     OW12703   3.576   0.469   2.773 -0.0147  0.2426 -0.4294
 4128SOL    HW112704   3.519   0.550   2.765 -1.0227 -0.5161 -1.2516
 4128SOL    HW212705   3.663   0.484   2.726  1.2196  1.9882  2.1730
 4129SOL     OW12706   3.509   0.167   4.665  0.1589 -0.4479 -0.4721
 4129SOL    HW112707   3.476   0.153   4.572 -1.6120  0.4429 -0.0353
 4129SOL    HW212708   3.608   0.178   4.665  0.0348  1.4044 -2.5145
 4130SOL     OW12709   3.066   0.130   4.667  0.3352 -0.5496 -0.2230
 4130SOL    HW112710   2.985   0.142   4.724  2.3094 -0.4355  2.7889
 4130SOL    HW212711   3.125   0.210   4.675  1.8764 -1.6252 -0.3246
 4131SOL     OW12712   4.305   1.185   4.813 -0.3085 -0.3711  0.8083
 4131SOL    HW112713   4.265   1.100   4.778  0.4607  0.0606 -1.2683
 4131SOL    HW212714   4.243   1.261   4.794  0.6325  0.0413 -0.8298
 4132SOL     OW12715   3.285   0.241   0.131  0.0368  0.6505 -0.1083
 4132SOL    HW112716   3.316   0.284   0.046  0.6679  1.0292  0.3083
 4132SOL    HW212717   3.212   0.175   0.110 -0.0831  1.0216 -0.8942
 4133SOL     OW12718   4.945   0.249   3.741 -0.2275 -0.7715  0.2151
 4133SOL    HW112719   4.961   0.168   3.686 -0.2142 -0.8988  0.4048
 4133SOL    HW212720   4.853   0.285   3.722 -0.2441 -0.8473  0.1522
 4134SOL     OW12721   5.343   5.269   4.684  0.5792 -0.7120  0.2469
 4134SOL    HW112722   5.306   5.242   4.773  1.6578 -1.2316  0.5577
 4134SOL    HW212723   5.366   5.367   4.685  0.3398 -0.6575  0.4413
 4135SOL     OW12724   5.139   1.098   4.439  0.0659 -0.1985 -0.3085
 4135SOL    HW112725   5.085   1.181   4.447 -1.7553 -1.0763 -2.4199
 4135SOL    HW212726   5.085   1.020   4.469  0.8886 -0.8902 -0.5666
 4136SOL     OW12727   5.035   0.469   1.013 -0.4827 -0.0487  0.5275
 4136SOL    HW112728   5.026   0.545   0.949 -1.0933 -0.7666 -0.2543
 4136SOL    HW212729   5.127   0.469   1.053 -0.5149  1.1538  0.6212
 4137SOL     OW12730   4.507   2.237   3.879 -0.7894  0.5022  0.6292
 4137SOL    HW112731   4.597   2.241   3.836 -0.5940  0.1337  1.0033
 4137SOL    HW212732   4.497   2.314   3.942 -0.5416  0.2651  0.9625
 4138SOL     OW12733   0.532   0.998   4.892 -0.2968  0.0219  0.4501
 4138SOL    HW112734   0.475   1.076   4.918 -0.0585 -0.4078  2.4571
 4138SOL    HW212735   0.478   0.914   4.896 -0.1664 -0.1020 -0.2059
 4139SOL     OW12736   4.232   0.720   4.360 -0.6963 -0.2958 -0.3522
 4139SOL    HW112737   4.151   0.664   4.339 -0.6092 -0.4721 -0.2175
 4139SOL    HW212738   4.204   0.815   4.373 -1.2806 -0.7680  2.3230
 4140SOL     OW12739   4.664   3.464   0.107  0.4505 -0.5321 -0.3260
 4140SOL    HW112740   4.764   3.464   0.110  0.4395 -1.5385  0.6485
 4140SOL    HW212741   4.633   3.382   0.059  0.0845 -1.2920  1.1452
 4141SOL     OW12742   4.468   0.081   0.329 -0.2800 -0.2321 -0.2176
 4141SOL    HW112743   4.432   0.156   0.273  1.6139  0.8652 -0.0675
 4141SOL    HW212744   4.508   0.011   0.269  0.1029  0.0555 -0.3030
 4142SOL     OW12745   0.091   4.783   4.407  0.1757  0.7367 -0.2031
 4142SOL    HW112746   0.025   4.815   4.475  0.8676 -1.1496  1.4616
 4142SOL    HW212747   0.137   4.861   4.365  0.4830  1.9620  2.2699
 4143SOL     OW12748   4.508   1.427   3.906  0.0969 -0.3222  0.0579
 4143SOL    HW112749   4.545   1.392   3.820 -0.6999  0.3365 -0.5699
 4143SOL    HW212750   4.507   1.354   3.974 -0.1549 -1.1129 -0.7788
 4144SOL     OW12751   5.406   0.820   5.145  0.2207 -0.4462 -0.0786
 4144SOL    HW112752   5.362   0.869   5.070  1.0781 -1.2194 -1.1104
 4144SOL    HW212753   5.336   0.786   5.208 -0.5502 -0.2736 -0.8186
 4145SOL     OW12754   5.552   1.275   5.143  0.2713 -0.2999 -0.6503
 4145SOL    HW112755   5.620   1.328   5.194  0.5375 -0.5220 -0.7728
 4145SOL    HW212756   5.576   1.178   5.146 -0.7293 -0.5339  0.3768
 4146SOL     OW12757   4.361   1.556   4.231 -0.0658 -0.1484  0.3135
 4146SOL    HW112758   4.458   1.577   4.225  0.0876 -1.2455 -2.1875
 4146SOL    HW212759   4.346   1.458   4.213 -1.6780  0.1161  0.0076
 4147SOL     OW12760   2.858   0.680   4.866  0.1693  0.7198  0.3399
 4147SOL    HW112761   2.816   0.656   4.778  0.0240 -0.6146  0.7514
 4147SOL    HW212762   2.933   0.617   4.885  0.5064  1.3017  0.9494
 4148SOL     OW12763   2.609   1.744   4.669 -0.0702  0.3461 -0.7004
 4148SOL    HW112764   2.569   1.673   4.612 -0.2768 -0.5310  0.4919
 4148SOL    HW212765   2.586   1.834   4.633  0.6578 -0.1720 -2.5575
 4149SOL     OW12766   0.259   4.757   1.189  0.2791 -0.0280  0.0873
 4149SOL    HW112767   0.275   4.743   1.287 -0.3297  1.7642  0.4770
 4149SOL    HW212768   0.294   4.678   1.138  1.3317 -0.6379  1.6742
 4150SOL     OW12769   3.127   5.498   3.794  0.5801  0.2650  0.0800
 4150SOL    HW112770   3.114   5.402   3.820  1.4740 -0.1896 -1.0710
 4150SOL    HW212771   3.184   5.544   3.862  1.0006 -0.2949  0.1089
 4151SOL     OW12772   4.600   2.171   4.621 -0.3419  0.2732 -0.2291
 4151SOL    HW112773   4.675   2.224   4.583  0.4544 -0.2134  0.6303
 4151SOL    HW212774   4.523   2.171   4.557  0.8277 -0.2555 -1.6646
 4152SOL     OW12775   4.529   1.258   4.397  0.1661 -0.2748  0.0526
 4152SOL    HW112776   4.448   1.261   4.338  0.8456  1.3622 -0.8868
 4152SOL    HW212777   4.557   1.163   4.411 -0.1909 -0.7586 -2.0697
 4153SOL     OW12778   0.050   0.762   3.977  0.1238 -0.1431  0.2025
 4153SOL    HW112779   0.087   0.735   3.888  0.0874 -1.1611  0.4911
 4153SOL    HW212780   0.079   0.697   4.047 -2.9933 -1.6217  0.2926
 4154SOL     OW12781   4.707   1.514   4.452 -0.2327 -0.2174  0.1475
 4154SOL    HW112782   4.781   1.453   4.479 -0.3258 -1.6186 -2.4344
 4154SOL    HW212783   4.623   1.487   4.500 -0.0270 -1.4849 -0.1618
 4155SOL     OW12784   3.880   0.630   4.559 -0.3443  0.4148  0.2020
 4155SOL    HW112785   3.947   0.603   4.490 -1.6089 -0.7339 -0.6406
 4155SOL    HW212786   3.921   0.696   4.622  1.7580 -0.7064  0.0925
 4156SOL     OW12787   4.048   0.179   4.497 -0.3768  0.2358 -0.1143
 4156SOL    HW112788   4.061   0.088   4.457  0.9716 -0.0496  0.8910
 4156SOL    HW212789   3.978   0.174   4.568 -0.2703 -0.0359 -0.0254
 4157SOL     OW12790   4.670   2.742   5.353 -0.1066 -0.1401  0.6370
 4157SOL    HW112791   4.624   2.653   5.349 -1.8368  0.6757  1.4024
 4157SOL    HW212792   4.678   2.779   5.260 -1.9015  0.0952  0.5347
 4158SOL     OW12793   5.048   1.523   2.540 -0.2396 -0.0701 -0.5996
 4158SOL    HW112794   5.056   1.522   2.639  0.4063  0.7768 -0.6343
 4158SOL    HW212795   4.965   1.571   2.513  0.3249  0.9921 -0.4941
 4159SOL     OW12796   3.952   1.506   0.443 -0.0937  0.8878 -0.1028
 4159SOL    HW112797   4.015   1.522   0.367 -0.3116  1.1361 -0.2349
 4159SOL    HW212798   3.923   1.594   0.481  1.0218  0.7653  1.1213
 4160SOL     OW12799   0.366   1.428   4.317  0.0797  0.2987 -0.5564
 4160SOL    HW112800   0.291   1.483   4.354  0.6320 -0.3219  1.5995
 4160SOL    HW212801   0.331   1.371   4.242 -1.7845 -0.4390  0.7912
 4161SOL     OW12802   5.302   1.619   5.111  0.6828 -0.0418 -0.3983
 4161SOL    HW112803   5.242   1.547   5.143 -0.2030  0.1376 -1.5979
 4161SOL    HW212804   5.369   1.581   5.048  0.3052  0.1564 -0.9207
 4162SOL     OW12805   4.007   4.623   5.592  0.0621  0.0490 -0.3204
 4162SOL    HW112806   4.070   4.685   5.638 -1.2456  1.0146  0.2095
 4162SOL    HW212807   3.998   4.649   5.496  1.7360 -1.1317 -0.8407
 4163SOL     OW12808   0.226   0.039   4.760 -0.2308  0.5207  0.0045
 4163SOL    HW112809   0.139   0.035   4.811 -0.9504  0.1480 -1.2170
 4163SOL    HW212810   0.226   0.119   4.700  0.3726  0.6398  0.1575
 4164SOL     OW12811   0.461   2.001   4.826 -0.3848 -0.5350 -0.0702
 4164SOL    HW112812   0.455   1.903   4.810 -2.0475 -0.2193 -1.7086
 4164SOL    HW212813   0.370   2.037   4.845 -0.2940  1.0708 -2.2713
 4165SOL     OW12814   4.047   5.071   5.234 -0.2268  0.2148 -0.0928
 4165SOL    HW112815   4.045   5.154   5.178 -2.1092 -0.4870 -1.1830
 4165SOL    HW212816   4.080   5.093   5.326  0.5028  1.9106 -0.7308
 4166SOL     OW12817   4.761   5.339   4.209  0.2293 -0.3860  0.1848
 4166SOL    HW112818   4.754   5.250   4.253  0.5551 -0.9007 -0.7833
 4166SOL    HW212819   4.675   5.359   4.160  0.1247 -0.1230  0.4706
 4167SOL     OW12820   4.765   1.419   4.072 -0.3494 -0.4289  0.0386
 4167SOL    HW112821   4.685   1.359   4.065 -0.9972  0.5341 -1.2005
 4167SOL    HW212822   4.830   1.380   4.138 -1.6782 -1.3934  0.8293
 4168SOL     OW12823   4.669   1.076   5.545  0.7189  0.1411  0.0440
 4168SOL    HW112824   4.646   1.014   5.470  1.7457 -2.4868  1.7471
 4168SOL    HW212825   4.586   1.109   5.588  0.1350 -0.0540 -0.9096
 4169SOL     OW12826   5.410   1.094   0.429  0.0999 -0.6926  0.0073
 4169SOL    HW112827   5.422   0.998   0.456 -0.0320 -0.8293 -0.4146
 4169SOL    HW212828   5.313   1.111   0.409  0.1893 -0.5876 -0.3513
 4170SOL     OW12829   4.688   5.394   5.350 -0.0464 -0.3276 -0.3034
 4170SOL    HW112830   4.692   5.448   5.266 -2.9430  1.9420  0.8343
 4170SOL    HW212831   4.593   5.367   5.366  0.7146 -2.1737  1.4192
 4171SOL     OW12832   3.785   5.365   4.924 -1.1091 -0.3025 -0.0146
 4171SOL    HW112833   3.814   5.279   4.882  0.3561  0.6677 -1.0568
 4171SOL    HW212834   3.861   5.406   4.974 -1.0695  1.4946 -1.4364
 4172SOL     OW12835   5.320   0.494   3.456  0.4444 -0.3583  0.0231
 4172SOL    HW112836   5.251   0.555   3.416 -0.5272 -0.1624  1.8863
 4172SOL    HW212837   5.384   0.548   3.510  1.8457 -0.5986 -1.3339
 4173SOL     OW12838   4.730   0.004   0.403  0.3812 -0.3422 -0.9951
 4173SOL    HW112839   4.757   0.100   0.412 -0.3581 -0.1212 -1.0667
 4173SOL    HW212840   4.672  -0.007   0.322 -1.4140 -0.4035  0.2297
 4174SOL     OW12841   4.560   2.800   4.946 -0.4266  0.7392 -0.1740
 4174SOL    HW112842   4.618   2.834   5.021 -1.0982  0.9679  0.2442
 4174SOL    HW212843   4.554   2.869   4.874 -0.9416  1.0901  0.2043
 4175SOL     OW12844   4.621   0.939   3.741  0.8719 -0.2716 -0.2920
 4175SOL    HW112845   4.627   0.971   3.835 -0.1034 -0.0044 -0.3106
 4175SOL    HW212846   4.623   0.839   3.739 -1.0495 -0.3664  0.2072
 4176SOL     OW12847   5.372   5.529   5.069 -0.0973 -0.0338  0.1928
 4176SOL    HW112848   5.362   5.511   5.167 -1.0811  1.8141  0.4712
 4176SOL    HW212849   5.340   5.621   5.049  0.6469 -0.1724 -1.7970
 4177SOL     OW12850   4.557   5.442   4.073  0.2187 -0.2481 -0.6571
 4177SOL    HW112851   4.606   5.482   3.996 -0.4096  0.6329 -0.6084
 4177SOL    HW212852   4.460   5.433   4.049 -0.0079  0.1779  0.0827
 4178SOL     OW12853   2.840   0.054   4.095 -0.2329 -1.0272 -0.2470
 4178SOL    HW112854   2.777  -0.022   4.079  0.1379 -0.7235 -3.9354
 4178SOL    HW212855   2.809   0.134   4.043  2.2825 -0.3706 -0.8578
 4179SOL     OW12856   0.200   1.009   4.652 -0.4463  0.0143  0.1887
 4179SOL    HW112857   0.203   1.004   4.751 -0.8005  0.2203  0.2122
 4179SOL    HW212858   0.132   0.945   4.617 -1.2769  0.8710  0.1712
 4180SOL     OW12859   5.038   1.185   5.051 -0.2171 -0.2573 -0.1160
 4180SOL    HW112860   5.087   1.251   5.109  0.0494 -1.1413  0.6785
 4180SOL    HW212861   4.946   1.220   5.032  0.1401  0.6476 -0.2617
 4181SOL     OW12862   5.194   0.655   4.744  0.3025  0.0311 -0.2052
 4181SOL    HW112863   5.251   0.665   4.663  1.0759  1.2124  0.4571
 4181SOL    HW212864   5.102   0.627   4.717  1.2171 -2.1825 -1.2870
 4182SOL     OW12865   0.206   2.058   5.179  0.3037  0.0941  0.0550
 4182SOL    HW112866   0.117   2.063   5.224  0.3471  1.1173  0.0487
 4182SOL    HW212867   0.272   2.015   5.241 -1.0777 -4.8716 -1.4249
 4183SOL     OW12868   5.114   1.586   4.609  0.1987  0.5217  0.0530
 4183SOL    HW112869   5.038   1.650   4.622  0.7886  1.2660 -0.1076
 4183SOL    HW212870   5.172   1.586   4.691 -0.0286 -0.1338  0.2242
 4184SOL     OW12871   4.155   1.260   3.709 -0.2666  0.2113  0.2419
 4184SOL    HW112872   4.127   1.268   3.613 -0.0531  1.6529  0.2782
 4184SOL    HW212873   4.086   1.209   3.760 -0.3296 -0.6565 -0.6974
 4185SOL     OW12874   3.762   1.213   5.559 -0.0146  0.6953 -0.0600
 4185SOL    HW112875   3.708   1.234   5.640 -0.9492  0.2569 -0.5646
 4185SOL    HW212876   3.711   1.152   5.499  1.7922 -1.3641  0.3590
 4186SOL     OW12877   4.850   2.243   4.289  0.5559  0.2116 -0.4600
 4186SOL    HW112878   4.822   2.155   4.251  1.9255 -0.3937 -0.1215
 4186SOL    HW212879   4.871   2.307   4.215 -0.4781  0.2820 -0.7072
 4187SOL     OW12880   4.639   1.451   4.848  0.1956 -1.0231 -0.0942
 4187SOL    HW112881   4.617   1.360   4.813 -1.3378 -0.9206  0.5051
 4187SOL    HW212882   4.571   1.517   4.815  1.0027 -0.1734 -0.1179
 4188SOL     OW12883   5.545   1.309   4.331  1.1837  0.0266 -0.4349
 4188SOL    HW112884   5.589   1.262   4.407  1.3993  0.1681 -0.4704
 4188SOL    HW212885   5.458   1.265   4.309  1.5699 -0.5963 -0.7252
 4189SOL     OW12886   3.967   2.272   4.981 -0.2509 -0.1806  0.4223
 4189SOL    HW112887   4.017   2.217   5.048  0.9535 -0.0693 -0.3472
 4189SOL    HW212888   3.985   2.237   4.890  0.4792  1.4032 -0.0832
 4190SOL     OW12889   4.716   4.332   4.788  0.4229  0.1558  0.4488
 4190SOL    HW112890   4.706   4.264   4.715 -2.7995 -0.5415  1.3933
 4190SOL    HW212891   4.656   4.308   4.864  2.0267  2.0694  2.4482
 4191SOL     OW12892   4.799   2.123   3.591  0.5765 -0.0704  0.1234
 4191SOL    HW112893   4.892   2.157   3.603  0.4360  0.9711 -1.4654
 4191SOL    HW212894   4.753   2.176   3.520 -0.8688 -1.2949  0.0999
 4192SOL     OW12895   4.835   3.285   5.445 -0.3480  0.2988 -0.6353
 4192SOL    HW112896   4.752   3.231   5.460 -0.3299  0.1041 -1.1839
 4192SOL    HW212897   4.885   3.248   5.366 -0.0355  0.7620 -0.6623
 4193SOL     OW12898   3.329   0.282   4.276  0.7235  0.0691  0.8915
 4193SOL    HW112899   3.263   0.335   4.221 -0.4288 -1.4887  0.7049
 4193SOL    HW212900   3.418   0.283   4.230  0.1015 -0.1652 -0.3732
 4194SOL     OW12901   4.452   5.534   4.549  0.5243  0.3169 -0.0987
 4194SOL    HW112902   4.407   5.450   4.579 -1.4927  1.1728 -0.5190
 4194SOL    HW212903   4.411   5.613   4.595  1.3605  1.1930 -0.7834
 4195SOL     OW12904   2.676   0.385   3.042  0.2040 -0.1576 -0.1857
 4195SOL    HW112905   2.690   0.286   3.036  1.0269 -0.2303  1.9545
 4195SOL    HW212906   2.745   0.425   3.103 -0.0973  1.7583 -1.0297
 4196SOL     OW12907   4.748   0.388   5.164  0.0967 -0.1913  0.0258
 4196SOL    HW112908   4.768   0.331   5.243 -1.1479 -1.2457 -0.3791
 4196SOL    HW212909   4.832   0.430   5.130  0.6180  0.4423  2.0003
 4197SOL     OW12910   5.113   0.708   0.043  0.0041 -0.6717 -0.5912
 4197SOL    HW112911   5.033   0.719   0.103 -0.8523 -0.3090 -1.7476
 4197SOL    HW212912   5.193   0.686   0.098 -0.4334  1.0364  0.8623
 4198SOL     OW12913   5.451   0.154   5.355  0.5776 -0.1266 -0.5951
 4198SOL    HW112914   5.504   0.161   5.439  1.5431  0.1575 -1.2064
 4198SOL    HW212915   5.513   0.156   5.276 -0.3433  0.2388 -1.3350
 4199SOL     OW12916   5.350   0.557   5.476 -0.1951 -0.0476  0.3872
 4199SOL    HW112917   5.321   0.642   5.431 -0.8304 -0.9200 -0.9129
 4199SOL    HW212918   5.356   0.572   5.574  0.4374  1.7006  0.1187
 4200SOL     OW12919   0.362   0.320   5.329  0.5047 -0.1296 -0.5757
 4200SOL    HW112920   0.350   0.346   5.425  0.9406 -1.5708 -0.1176
 4200SOL    HW212921   0.361   0.221   5.321  1.0716 -0.0368 -1.9903
 4201SOL     OW12922   4.370   5.585   3.750  0.2667  0.5497  0.5995
 4201SOL    HW112923   4.392   5.511   3.687  0.0247  1.4499 -0.5816
 4201SOL    HW212924   4.443   5.654   3.748 -0.7023  1.5960 -0.3173
 4202SOL     OW12925   4.814   1.039   4.209  0.2335 -0.3832  0.0910
 4202SOL    HW112926   4.778   0.989   4.288 -0.8139 -0.4563 -0.4089
 4202SOL    HW212927   4.834   1.134   4.237 -0.4320 -0.3178  0.3727
 4203SOL     OW12928   4.897   5.194   2.977  0.2695  0.0483 -0.7241
 4203SOL    HW112929   4.841   5.147   2.909 -3.0635 -0.0374  1.8361
 4203SOL    HW212930   4.912   5.134   3.055  0.2265  1.5610  0.4855
 4204SOL     OW12931   0.480   5.276   4.544  0.3652  0.8625  0.1767
 4204SOL    HW112932   0.541   5.265   4.465  0.8734  0.7618  0.5839
 4204SOL    HW212933   0.385   5.272   4.513  0.5634  0.5165 -0.3887
 4205SOL     OW12934   4.691   1.022   5.175  0.6480  0.2893 -0.3518
 4205SOL    HW112935   4.638   1.100   5.210  0.2053 -0.0141 -0.3306
 4205SOL    HW212936   4.692   0.950   5.244 -0.4002 -0.3968 -1.0114
 4206SOL     OW12937   4.776   0.779   4.343 -0.6998 -0.0075 -0.6758
 4206SOL    HW112938   4.736   0.729   4.419  0.2245 -1.6957 -1.2516
 4206SOL    HW212939   4.784   0.719   4.263  0.4663  1.0405 -1.3985
 4207SOL     OW12940   3.104   1.797   0.158 -0.2704 -0.3732 -0.2377
 4207SOL    HW112941   3.162   1.872   0.129  1.2300 -0.8809  1.2401
 4207SOL    HW212942   3.014   1.805   0.116 -0.1559  2.2287 -0.0984
 4208SOL     OW12943   4.314   2.044   4.583  0.6388  0.3754 -0.4891
 4208SOL    HW112944   4.290   2.041   4.680  1.0650  0.1499 -0.3899
 4208SOL    HW212945   4.383   1.975   4.564 -0.4985 -0.5970 -1.2427
 4209SOL     OW12946   5.205   0.021   3.500 -0.3378  0.0885  0.8890
 4209SOL    HW112947   5.262   0.102   3.510 -2.4269  1.6138  1.1619
 4209SOL    HW212948   5.112   0.048   3.476 -0.7935 -2.3305 -0.4523
 4210SOL     OW12949   4.704   0.799   5.351  0.1340  0.2902 -0.0561
 4210SOL    HW112950   4.789   0.759   5.318 -1.8194 -2.6225 -2.0257
 4210SOL    HW212951   4.669   0.745   5.428 -0.9379  0.1404 -0.6290
 4211SOL     OW12952   4.822   0.038   5.604 -0.3349  0.4409 -0.4261
 4211SOL    HW112953   4.898   0.071   5.548  1.4723  0.1241  1.7109
 4211SOL    HW212954   4.803  -0.058   5.582  1.5131 -0.2044  0.5917
 4212SOL     OW12955   3.870   5.126   4.837 -0.4197  0.6357 -0.6648
 4212SOL    HW112956   3.843   5.049   4.894  0.4474  1.2733  0.6684
 4212SOL    HW212957   3.842   5.110   4.742 -0.6705 -1.0842 -0.3239
 4213SOL     OW12958   5.006   5.089   4.906 -0.1680  0.1612  0.5447
 4213SOL    HW112959   4.973   5.009   4.956 -0.3223  0.6591  1.2537
 4213SOL    HW212960   4.977   5.173   4.954 -0.1751  0.6445 -0.2902
 4214SOL     OW12961   5.367   0.339   4.147  0.4112  0.2624  0.2312
 4214SOL    HW112962   5.421   0.275   4.201  5.3646  2.5005 -1.4124
 4214SOL    HW212963   5.380   0.432   4.183 -1.2533  1.0970 -1.1534
 4215SOL     OW12964   0.643   0.901   3.422  0.1260  0.0287  0.0886
 4215SOL    HW112965   0.677   0.992   3.399  1.9674 -0.6094  0.1244
 4215SOL    HW212966   0.658   0.839   3.346 -2.0989 -0.0658 -0.3553
 4216SOL     OW12967   0.202   5.219   4.507  0.0920 -0.6643  0.2034
 4216SOL    HW112968   0.193   5.318   4.496  1.5941 -0.7404 -2.5734
 4216SOL    HW212969   0.116   5.181   4.540 -1.1256  1.3614 -0.4807
 4217SOL     OW12970   3.828   1.710   4.757 -0.3233 -0.1599 -0.1504
 4217SOL    HW112971   3.878   1.646   4.815 -1.4662 -0.1983  0.8453
 4217SOL    HW212972   3.830   1.801   4.799  0.5650  0.2822 -1.1178
 4218SOL     OW12973   4.935   2.523   4.618 -0.1858 -0.3204  0.3356
 4218SOL    HW112974   4.877   2.604   4.609 -0.8352 -0.6272  1.6477
 4218SOL    HW212975   5.031   2.550   4.607 -0.1617  1.1253  3.2449
 4219SOL     OW12976   4.323   0.150   4.650 -0.0107  0.0797  0.0583
 4219SOL    HW112977   4.364   0.231   4.694 -1.8656 -0.4275  2.9928
 4219SOL    HW212978   4.238   0.177   4.605 -0.7093 -0.1702  1.1668
 4220SOL     OW12979   4.297   0.819   3.480  0.5995  0.0437  0.0417
 4220SOL    HW112980   4.310   0.900   3.537 -0.4245 -0.8605  1.6190
 4220SOL    HW212981   4.219   0.766   3.514 -0.6046 -0.1336 -2.6951
 4221SOL     OW12982   0.872   0.647   0.083  0.1588 -0.1240 -0.4908
 4221SOL    HW112983   0.917   0.607   0.003 -1.6821  2.4612 -3.0386
 4221SOL    HW212984   0.924   0.726   0.115  0.4163 -0.6226  0.3743
 4222SOL     OW12985   4.291   2.337   0.140 -0.2303 -0.1290 -0.3665
 4222SOL    HW112986   4.249   2.339   0.231 -1.3270  0.6332 -0.8718
 4222SOL    HW212987   4.237   2.277   0.080 -0.7807  1.0476 -1.0892
 4223SOL     OW12988   5.130   5.533   4.752 -0.0139 -0.1668  0.0891
 4223SOL    HW112989   5.078   5.450   4.732  0.3502 -0.3214 -0.2318
 4223SOL    HW212990   5.075   5.594   4.810 -1.3991  0.6262 -1.9299
 4224SOL     OW12991   0.391   1.219   4.955  0.1249 -0.2937  0.0198
 4224SOL    HW112992   0.437   1.244   5.040  1.7634  1.0903 -1.1822
 4224SOL    HW212993   0.300   1.183   4.975  0.1780  0.6737  2.2916
 4225SOL     OW12994   3.745   1.420   4.141  0.4315 -0.3092  0.0728
 4225SOL    HW112995   3.804   1.403   4.062  0.5236 -0.4662  0.1730
 4225SOL    HW212996   3.652   1.388   4.120  0.1311  0.8781 -0.4586
 4226SOL     OW12997   4.696   5.438   4.697 -0.1808  0.0861 -0.1341
 4226SOL    HW112998   4.612   5.473   4.655 -0.2475  0.0103 -0.0627
 4226SOL    HW212999   4.735   5.508   4.757 -1.8209 -0.9138  2.2541
 4227SOL     OW13000   4.968   1.143   0.546  0.7867 -0.3007  0.4248
 4227SOL    HW113001   4.980   1.054   0.589  0.4135 -0.4950  0.1298
 4227SOL    HW213002   4.882   1.184   0.577  1.1536  0.1450  0.8821
 4228SOL     OW13003   3.814   1.595   5.242  0.0280 -0.2690 -0.2898
 4228SOL    HW113004   3.766   1.542   5.312  1.1430 -0.8014  0.0867
 4228SOL    HW213005   3.784   1.691   5.247  1.2555  0.0660  2.0168
 4229SOL     OW13006   3.611   0.711   4.973 -0.5476  0.7024  0.1340
 4229SOL    HW113007   3.661   0.674   5.052 -1.5576 -0.0683  0.4303
 4229SOL    HW213008   3.541   0.645   4.944 -0.4340  1.1331 -1.1883
 4230SOL     OW13009   5.297   0.193   5.028 -0.4095 -0.2803  0.9670
 4230SOL    HW113010   5.250   0.208   5.115 -1.0391  1.9230  0.3348
 4230SOL    HW213011   5.311   0.282   4.983  0.7869 -1.2735 -0.7268
 4231SOL     OW13012   3.639   3.184   5.348 -0.1522 -0.3625 -0.4448
 4231SOL    HW113013   3.599   3.250   5.412 -0.7168  1.2712 -2.4039
 4231SOL    HW213014   3.710   3.132   5.396  0.0628  1.3792  1.2917
 4232SOL     OW13015   3.199   0.211   3.889  0.0595 -0.3853  0.6452
 4232SOL    HW113016   3.106   0.192   3.856 -0.0951  2.7349 -1.1437
 4232SOL    HW213017   3.228   0.138   3.950 -3.0145 -2.1878  0.1816
 4233SOL     OW13018   3.156   0.451   5.243  0.3142  0.0229  0.2044
 4233SOL    HW113019   3.250   0.421   5.257  0.7965  1.0969 -0.5753
 4233SOL    HW213020   3.132   0.519   5.313  0.6235  0.7993 -0.4202
 4234SOL     OW13021   3.635   2.218   3.174  0.5243  0.5133  0.1272
 4234SOL    HW113022   3.576   2.164   3.114 -1.6166 -0.0235  2.5448
 4234SOL    HW213023   3.617   2.315   3.160 -2.5742  0.3765  2.1270
 4235SOL     OW13024   0.336   0.649   4.499 -0.0463  0.1977  0.1701
 4235SOL    HW113025   0.398   0.685   4.570 -0.5527  3.0300 -0.6689
 4235SOL    HW213026   0.250   0.622   4.541 -0.1723  1.3918  0.7449
 4236SOL     OW13027   1.288  -0.002   3.872  0.0037 -0.3361  0.2392
 4236SOL    HW113028   1.366   0.007   3.934 -0.2541 -0.8418  0.6508
 4236SOL    HW213029   1.302   0.056   3.792  0.0191  0.8920  1.1033
 4237SOL     OW13030   5.155   2.484   5.413 -0.0049  0.5516  0.1902
 4237SOL    HW113031   5.142   2.458   5.509 -1.5971 -0.7246 -0.3168
 4237SOL    HW213032   5.076   2.538   5.383  1.1204  2.1152 -0.0554
 4238SOL     OW13033   4.393   1.702   5.510 -0.3602 -0.0283  0.2195
 4238SOL    HW113034   4.367   1.618   5.463  1.4424 -0.7860  0.4986
 4238SOL    HW213035   4.386   1.779   5.446  0.7245 -0.8334 -0.9047
 4239SOL     OW13036   3.710   1.823   0.078  0.0106 -0.4269  0.1137
 4239SOL    HW113037   3.801   1.861   0.057 -1.4267  2.3374 -1.7847
 4239SOL    HW213038   3.685   1.755   0.009  0.2779 -0.5084  0.0969
 4240SOL     OW13039   4.982   0.369   0.633  0.9601  0.1486 -0.0403
 4240SOL    HW113040   4.939   0.401   0.717  0.8956 -1.8525  0.7390
 4240SOL    HW213041   4.926   0.396   0.554 -0.6267 -0.5841  0.7939
 4241SOL     OW13042   4.273   4.084   5.001 -0.6722  0.2514 -0.0870
 4241SOL    HW113043   4.289   4.031   5.084  0.1481  2.0065  0.9302
 4241SOL    HW213044   4.289   4.026   4.921  2.8892 -0.3926  0.9218
 4242SOL     OW13045   5.247   0.149   3.954  0.9008  0.1046  0.0994
 4242SOL    HW113046   5.298   0.189   4.030  1.5165  1.0188 -0.7678
 4242SOL    HW213047   5.238   0.216   3.881  0.2572 -0.7331 -0.6135
 4243SOL     OW13048   4.794   0.046   4.866  0.2716 -0.4089 -0.0714
 4243SOL    HW113049   4.877   0.037   4.920 -1.7806  0.0786  3.5152
 4243SOL    HW213050   4.723   0.091   4.921 -2.3854 -0.7824 -2.9045
 4244SOL     OW13051   3.528   1.064   0.120  0.0850  0.3301  0.4738
 4244SOL    HW113052   3.508   1.064   0.218 -1.6428  0.7999  0.1451
 4244SOL    HW213053   3.595   0.991   0.100 -0.9656 -1.0393  1.7267
 4245SOL     OW13054   3.583   1.349   5.191 -0.4513 -0.8149 -1.0030
 4245SOL    HW113055   3.609   1.369   5.286 -0.2305  0.6002 -1.3519
 4245SOL    HW213056   3.585   1.433   5.137 -4.8862 -0.6928 -1.2899
 4246SOL     OW13057   3.745   1.523   0.093 -0.4111 -0.2554  0.2670
 4246SOL    HW113058   3.785   1.443   0.137  2.8046  1.3425  0.6106
 4246SOL    HW213059   3.667   1.555   0.147 -1.1372 -2.4952  0.6545
 4247SOL     OW13060   5.015   0.192   0.944 -0.3989 -0.4498 -0.0868
 4247SOL    HW113061   5.011   0.291   0.957 -2.3534 -0.2239 -1.8670
 4247SOL    HW213062   5.110   0.165   0.924  0.3933  0.8209  1.6915
 4248SOL     OW13063   4.141   5.306   5.034  0.5288  0.1188  0.4269
 4248SOL    HW113064   4.064   5.362   5.063  0.7811  1.2082 -0.9202
 4248SOL    HW213065   4.182   5.345   4.952  1.2479 -1.5866 -0.0685
 4249SOL     OW13066   4.862   4.179   3.454 -0.0249 -0.7973  0.0250
 4249SOL    HW113067   4.842   4.210   3.547 -1.7245 -1.2397 -0.1723
 4249SOL    HW213068   4.843   4.081   3.447  2.0718 -1.2281 -0.2644
 4250SOL     OW13069   3.613   0.561   3.912 -0.4503 -0.2997  0.0755
 4250SOL    HW113070   3.587   0.488   3.849 -1.4473 -0.1760  0.3277
 4250SOL    HW213071   3.551   0.562   3.990  0.1233  0.2282  0.5354
 4251SOL     OW13072   4.985   0.451   5.046 -0.3803  0.2291  0.0418
 4251SOL    HW113073   4.988   0.389   5.124  1.6241 -0.0978 -0.2318
 4251SOL    HW213074   5.076   0.455   5.004 -1.0883  1.4437 -1.4533
 4252SOL     OW13075   5.466   0.190   1.097 -0.0010  0.1726  0.8419
 4252SOL    HW113076   5.518   0.118   1.049  0.3702  0.9223  0.0863
 4252SOL    HW213077   5.497   0.196   1.192  0.6522 -0.0131  0.6456
 4253SOL     OW13078   3.816   1.693   1.128  0.1696  0.0493 -0.4553
 4253SOL    HW113079   3.860   1.620   1.076  0.7438 -2.4490  3.1219
 4253SOL    HW213080   3.717   1.676   1.131  0.0310  0.6567 -1.3347
 4254SOL     OW13081   4.511   5.036   4.561  0.7353  0.1264 -0.0584
 4254SOL    HW113082   4.562   4.953   4.581  2.3396  1.1936  0.4916
 4254SOL    HW213083   4.418   5.013   4.533  1.2771 -1.8485 -0.3237
 4255SOL     OW13084   5.311   1.485   4.151 -0.4398 -0.0391 -0.4430
 4255SOL    HW113085   5.404   1.507   4.121  1.3465 -2.1706  2.8560
 4255SOL    HW213086   5.277   1.408   4.097  0.3694 -0.2444 -0.6844
 4256SOL     OW13087   4.095   1.318   4.702 -0.4241  0.6134  0.2823
 4256SOL    HW113088   4.109   1.415   4.682 -1.6459  0.7482 -0.0177
 4256SOL    HW213089   4.105   1.266   4.618 -0.7300  0.6023  0.2507
 4257SOL     OW13090   3.009   1.400   5.130 -0.1255  0.1412 -0.0393
 4257SOL    HW113091   3.071   1.378   5.206  0.8498  0.0818 -0.8388
 4257SOL    HW213092   3.054   1.380   5.043 -1.3981 -0.2336 -0.6385
 4258SOL     OW13093   4.412   5.265   4.677 -0.3712  0.1628 -0.3976
 4258SOL    HW113094   4.316   5.258   4.648  0.0238  0.1259 -1.7233
 4258SOL    HW213095   4.463   5.186   4.643 -0.0095 -0.2290  0.9700
 4259SOL     OW13096   5.149   1.190   0.346 -0.4385  0.0220 -0.3304
 4259SOL    HW113097   5.074   1.159   0.405  0.0953 -0.7627 -0.0522
 4259SOL    HW213098   5.120   1.271   0.295 -2.3281 -1.5758 -1.9875
 4260SOL     OW13099   3.579   0.589   4.288  0.0008  0.4173 -0.1143
 4260SOL    HW113100   3.548   0.654   4.357 -0.3799  0.0159  0.0990
 4260SOL    HW213101   3.510   0.582   4.215 -1.2561 -1.6936  1.1645
 4261SOL     OW13102   2.941   1.891   4.690  0.0691  0.1467  0.2723
 4261SOL    HW113103   2.962   1.808   4.638 -0.1421  0.8038 -0.8787
 4261SOL    HW213104   2.869   1.943   4.644  0.4394  1.1562  0.7960
 4262SOL     OW13105   2.575   3.138   5.536  0.2152  0.1707 -1.1519
 4262SOL    HW113106   2.565   3.216   5.475 -1.1636  0.5418 -0.4859
 4262SOL    HW213107   2.661   3.091   5.516  2.0013  2.8869 -0.3843
 4263SOL     OW13108   4.886   0.335   4.544  0.7307 -0.2616 -0.3597
 4263SOL    HW113109   4.846   0.352   4.454  0.8873  1.5591 -0.1319
 4263SOL    HW213110   4.962   0.271   4.536 -0.3956 -1.5462 -1.2222
 4264SOL     OW13111   4.045   5.518   4.373 -0.0346  0.1237  0.6656
 4264SOL    HW113112   4.017   5.503   4.278 -0.5853 -1.1138  0.9945
 4264SOL    HW213113   4.139   5.487   4.386  0.6062  1.7608  0.1857
 4265SOL     OW13114   4.224   1.424   0.756  0.3641 -0.1746  0.0629
 4265SOL    HW113115   4.264   1.460   0.840 -1.3276  1.5533  0.1915
 4265SOL    HW213116   4.202   1.327   0.768  0.6884 -0.1013  1.3938
 4266SOL     OW13117   5.052   0.989   4.729 -0.7839 -0.0078  0.1860
 4266SOL    HW113118   5.021   0.948   4.643 -0.3564  0.2432 -0.0976
 4266SOL    HW213119   5.112   0.924   4.777 -1.7260 -0.4966  0.7399
 4267SOL     OW13120   3.934   0.585   3.821  0.0123  0.2931  0.2776
 4267SOL    HW113121   3.852   0.632   3.785  1.3873  1.7024 -1.1952
 4267SOL    HW213122   3.920   0.486   3.816 -0.9779  0.4682 -1.6170
 4268SOL     OW13123   1.112   0.171   0.280  0.0609 -0.4127 -0.4448
 4268SOL    HW113124   1.078   0.262   0.255 -0.9153 -0.6189  0.0532
 4268SOL    HW213125   1.038   0.104   0.269 -0.0866 -0.6957  1.7440
 4269SOL     OW13126   4.256   1.862   5.314  0.1798 -0.4976 -0.6564
 4269SOL    HW113127   4.275   1.837   5.219 -0.4398 -1.2550 -0.5935
 4269SOL    HW213128   4.157   1.868   5.327  0.2582  2.6666 -0.8117
 4270SOL     OW13129   0.633   0.529   4.592  0.0305 -0.7587  0.3378
 4270SOL    HW113130   0.585   0.614   4.568  0.6649 -1.0035 -2.0877
 4270SOL    HW213131   0.566   0.459   4.617 -0.8761 -0.7015 -1.6922
 4271SOL     OW13132   4.592   2.102   5.147  0.2125  0.2302  0.2697
 4271SOL    HW113133   4.590   2.147   5.058 -0.1719  0.7315  0.5256
 4271SOL    HW213134   4.586   2.003   5.134  1.7069  0.1898 -0.3315
 4272SOL     OW13135   3.642   5.503   4.656  0.3141 -0.1118  0.3554
 4272SOL    HW113136   3.621   5.446   4.736  0.4453 -0.2190  0.3148
 4272SOL    HW213137   3.560   5.553   4.628 -0.1112 -1.1297 -0.2812
 4273SOL     OW13138   5.518   2.264   0.808 -0.0843  0.3357 -0.3676
 4273SOL    HW113139   5.418   2.273   0.809 -0.0367  1.0789 -1.0084
 4273SOL    HW213140   5.543   2.170   0.785 -0.6263 -0.0886  0.6710
 4274SOL     OW13141   4.312   4.783   3.746 -0.3972  0.0009 -0.6220
 4274SOL    HW113142   4.287   4.691   3.715 -0.2441 -0.0455 -0.6121
 4274SOL    HW213143   4.303   4.848   3.671  0.6792 -0.2358 -0.9801
 4275SOL     OW13144   5.226   2.762   5.338 -0.0325 -0.5464  0.0800
 4275SOL    HW113145   5.162   2.804   5.402 -0.1237  1.7329 -1.3714
 4275SOL    HW213146   5.317   2.760   5.378 -0.2314  0.1391  0.5899
 4276SOL     OW13147   5.423   0.993   4.810  0.0789 -0.3071  0.2322
 4276SOL    HW113148   5.337   0.984   4.861  0.8120  0.1210  1.6106
 4276SOL    HW213149   5.414   1.066   4.742 -0.6330 -0.2339  0.3919
 4277SOL     OW13150   3.197   2.003   5.616  0.2299  0.1746 -0.3744
 4277SOL    HW113151   3.292   2.029   5.632 -0.1638  1.3675  0.1311
 4277SOL    HW213152   3.184   1.977   5.521  0.7543  1.4158 -0.7955
 4278SOL     OW13153   4.640   2.736   3.941  0.1130 -0.1912  0.1774
 4278SOL    HW113154   4.706   2.758   4.013  1.0462  3.6321 -1.5881
 4278SOL    HW213155   4.553   2.780   3.962  0.3276  0.7580 -0.8875
 4279SOL     OW13156   5.152   4.476   4.235  0.3977 -0.1192  0.0419
 4279SOL    HW113157   5.193   4.388   4.211  1.1384  0.4195 -0.7029
 4279SOL    HW213158   5.222   4.548   4.231 -0.8031  1.0233 -2.4169
 4280SOL     OW13159   4.621   1.656   4.231 -0.0600 -0.0421 -0.1721
 4280SOL    HW113160   4.621   1.754   4.251 -0.0510 -0.0227 -0.2648
 4280SOL    HW213161   4.678   1.608   4.298  0.6790  0.1275 -0.6612
 4281SOL     OW13162   5.068   3.390   3.981  0.3892  0.1643 -0.4482
 4281SOL    HW113163   5.112   3.334   4.051  0.8250  1.1182  0.0673
 4281SOL    HW213164   5.002   3.335   3.930  2.0005 -1.2509 -1.0900
 4282SOL     OW13165   5.200   0.965   4.967 -0.6126  0.2534  0.4114
 4282SOL    HW113166   5.157   1.055   4.959 -1.1046 -0.1042 -1.2256
 4282SOL    HW213167   5.133   0.899   5.003  0.0216  0.6989  2.5520
 4283SOL     OW13168   4.547   0.975   4.458  0.4151 -0.1602 -0.6361
 4283SOL    HW113169   4.450   0.970   4.437  0.0681 -2.6548  1.2270
 4283SOL    HW213170   4.597   0.911   4.399  0.7437  0.0940 -0.6368
 4284SOL     OW13171   3.739   2.450   3.794  0.1908  0.3480 -0.0739
 4284SOL    HW113172   3.657   2.403   3.827  0.7023 -1.3900 -1.1306
 4284SOL    HW213173   3.796   2.475   3.872 -1.0216  1.0315  0.6373
 4285SOL     OW13174   1.469   5.564   4.667  0.0581 -0.0561  0.4920
 4285SOL    HW113175   1.562   5.530   4.650  0.4468  0.3084  1.7873
 4285SOL    HW213176   1.416   5.560   4.582  1.3264 -0.0567 -0.3268
 4286SOL     OW13177   0.999   4.942   0.235  0.1882 -0.4880  0.1686
 4286SOL    HW113178   0.941   4.965   0.314  0.2182 -2.8021  0.9217
 4286SOL    HW213179   1.095   4.944   0.262  0.1548 -2.3001  0.5213
 4287SOL     OW13180   3.003   0.457   4.791 -0.2436 -0.6883 -0.2694
 4287SOL    HW113181   3.085   0.510   4.768 -1.4683  1.4313 -0.0586
 4287SOL    HW213182   2.960   0.426   4.706  1.0637 -2.3699 -0.3659
 4288SOL     OW13183   4.200   1.908   4.054 -0.7221 -0.4774  0.0211
 4288SOL    HW113184   4.152   1.868   4.132 -0.1406 -0.8107  0.2159
 4288SOL    HW213185   4.226   2.002   4.075  1.4734 -1.2874  1.1577
 4289SOL     OW13186   5.203   0.696   0.501  1.1173 -0.4581 -0.1974
 4289SOL    HW113187   5.217   0.608   0.545  1.5843  0.4971  1.6872
 4289SOL    HW213188   5.265   0.705   0.423 -0.6912 -2.7459 -2.0491
 4290SOL     OW13189   0.143   0.988   4.181 -0.3216  0.0647 -0.3266
 4290SOL    HW113190   0.102   1.079   4.184 -0.2856  0.0740  2.7640
 4290SOL    HW213191   0.093   0.932   4.115 -1.9936  1.5889 -0.4445
 4291SOL     OW13192   4.634   1.998   3.110 -0.0748 -0.4825 -0.5516
 4291SOL    HW113193   4.589   1.933   3.049 -0.0577  0.2557 -1.3708
 4291SOL    HW213194   4.718   1.957   3.147 -1.5744 -2.0367  1.3336
 4292SOL     OW13195   4.900   1.207   4.755  0.1707 -0.4259 -0.0146
 4292SOL    HW113196   4.950   1.121   4.764 -0.2690 -0.7799 -0.9051
 4292SOL    HW213197   4.806   1.195   4.788  0.3348 -0.0605  0.6135
 4293SOL     OW13198   5.239   0.323   5.426 -0.0420  0.2975  0.3954
 4293SOL    HW113199   5.329   0.282   5.406 -0.0228  0.4603  0.1497
 4293SOL    HW213200   5.252   0.414   5.464 -0.1366  1.0774 -1.3599
 4294SOL     OW13201   4.320   1.277   4.226  0.5624  0.0676 -0.3690
 4294SOL    HW113202   4.296   1.249   4.133 -0.1976 -3.3714  0.7299
 4294SOL    HW213203   4.239   1.275   4.284  1.2482  0.9754  0.6655
 4295SOL     OW13204   0.605   4.901   0.960 -0.0499 -0.2605  0.4716
 4295SOL    HW113205   0.700   4.931   0.970  0.1903 -0.5448 -0.7865
 4295SOL    HW213206   0.596   4.844   0.878 -1.0131 -1.5185  1.4017
 4296SOL     OW13207   3.927   3.197   4.993 -0.2643  0.3360  0.1645
 4296SOL    HW113208   3.870   3.249   5.056 -0.2209  0.3352  0.2049
 4296SOL    HW213209   3.896   3.102   4.990  0.9608 -0.1722  1.7333
 4297SOL     OW13210   0.327   0.236   0.794 -0.4925  0.4778  0.6122
 4297SOL    HW113211   0.311   0.271   0.887 -1.1045  0.5381  0.4844
 4297SOL    HW213212   0.366   0.309   0.738 -0.9239  0.6994  0.5933
 4298SOL     OW13213   3.511   1.612   3.904 -0.3215  0.3065  0.5238
 4298SOL    HW113214   3.504   1.568   3.814  0.8090  1.5971 -0.2423
 4298SOL    HW213215   3.571   1.691   3.897  0.1203  0.2026  2.5279
 4299SOL     OW13216   2.896   3.898   0.249  0.2972 -0.0043 -0.4358
 4299SOL    HW113217   2.892   3.812   0.300 -0.0921  1.1795  1.6014
 4299SOL    HW213218   2.922   3.973   0.310 -0.4919  1.5403 -1.9133
 4300SOL     OW13219   5.604   0.648   0.451 -0.3845 -0.1180 -0.1955
 4300SOL    HW113220   5.591   0.602   0.539 -0.3190 -1.2015 -0.7334
 4300SOL    HW213221   5.526   0.630   0.392 -1.2812  2.0599  0.2120
 4301SOL     OW13222   4.568   0.518   5.011 -0.3123 -0.0018  0.6511
 4301SOL    HW113223   4.628   0.470   5.076 -0.5012 -0.8141  0.2424
 4301SOL    HW213224   4.539   0.605   5.050  0.5264  0.0541  1.1672
 4302SOL     OW13225   4.981   1.382   5.391  0.2622 -0.4055  0.3738
 4302SOL    HW113226   4.967   1.283   5.387  0.0668 -0.3782  0.3999
 4302SOL    HW213227   4.909   1.428   5.340  0.6454 -0.3002 -0.0804
 4303SOL     OW13228   5.016   4.338   4.824 -0.7452  0.7753 -0.2210
 4303SOL    HW113229   4.932   4.289   4.846 -0.1674  0.3723  1.1918
 4303SOL    HW213230   5.059   4.370   4.908 -0.0187  1.8837 -0.9926
 4304SOL     OW13231   4.556   1.364   3.628  0.1293  0.1576 -0.3520
 4304SOL    HW113232   4.633   1.416   3.592  0.4737 -0.7767 -1.0031
 4304SOL    HW213233   4.489   1.349   3.555  1.0666 -2.1888 -0.8272
 4305SOL     OW13234   5.403   1.424   0.684 -0.7239  0.4154 -0.1518
 4305SOL    HW113235   5.469   1.408   0.611 -2.0580 -0.4357 -1.2111
 4305SOL    HW213236   5.438   1.494   0.746  0.8379  0.4919 -1.0789
 4306SOL     OW13237   4.554   2.946   4.723 -0.5720 -0.0819 -0.5245
 4306SOL    HW113238   4.554   2.904   4.633 -2.3712  1.3150 -1.2445
 4306SOL    HW213239   4.637   3.001   4.734 -0.1818 -0.5273 -1.1887
 4307SOL     OW13240   5.155   5.379   0.090  1.1155 -0.2752  0.1396
 4307SOL    HW113241   5.229   5.442   0.112  0.6492  0.6686 -0.9113
 4307SOL    HW213242   5.081   5.390   0.157  0.9194  0.5166 -0.1957
 4308SOL     OW13243   0.456   0.710   5.401 -0.1301 -0.5235 -0.1934
 4308SOL    HW113244   0.502   0.647   5.464  0.4798  1.2009  1.1731
 4308SOL    HW213245   0.357   0.693   5.404 -0.1754 -0.1668  1.6746
 4309SOL     OW13246   4.044   2.487   5.345  0.0485 -0.0976  0.0645
 4309SOL    HW113247   4.043   2.514   5.248  0.2713  2.3110  0.6613
 4309SOL    HW213248   3.952   2.459   5.372 -0.1101 -0.3813 -0.7474
 4310SOL     OW13249   0.794   5.380   5.380 -0.3872 -0.4204  0.4389
 4310SOL    HW113250   0.741   5.321   5.441  0.5570 -1.4960  0.2581
 4310SOL    HW213251   0.743   5.395   5.295 -0.8959 -0.4595  0.7328
 4311SOL     OW13252   4.786   5.499   3.613  0.1311 -0.2547  0.5167
 4311SOL    HW113253   4.793   5.559   3.534  0.5761  0.3089  0.9783
 4311SOL    HW213254   4.872   5.449   3.625  0.1636 -0.1297  0.8116
 4312SOL     OW13255   4.830   0.200   0.231 -0.1428  0.1417 -0.6100
 4312SOL    HW113256   4.827   0.147   0.146 -0.0873  0.5546 -0.8730
 4312SOL    HW213257   4.905   0.166   0.289 -2.2995 -2.5323  0.8838
 4313SOL     OW13258   0.133   1.083   4.934 -0.4235 -0.1738 -0.3020
 4313SOL    HW113259   0.088   1.135   4.861  0.6561  0.8653 -0.2763
 4313SOL    HW213260   0.065   1.048   4.998 -1.3399 -0.5826 -1.4775
 4314SOL     OW13261   5.209   5.380   4.002  0.1348 -0.0253  0.2911
 4314SOL    HW113262   5.289   5.423   3.960  0.8230 -0.8442  0.7518
 4314SOL    HW213263   5.237   5.297   4.051 -1.2531 -1.4151 -1.1620
 4315SOL     OW13264   3.751   2.831   3.592  0.2537 -0.5005  0.0594
 4315SOL    HW113265   3.660   2.852   3.626 -1.2251 -2.3533 -2.4788
 4315SOL    HW213266   3.812   2.908   3.611 -1.8878  0.9494  1.4907
 4316SOL     OW13267   4.061   2.902   4.771  0.1049 -0.0133 -0.8999
 4316SOL    HW113268   4.128   2.962   4.727 -0.3876 -0.8718 -2.9510
 4316SOL    HW213269   4.086   2.807   4.757  0.1875 -0.3507  1.2094
 4317SOL     OW13270   4.451   0.401   4.687 -0.0873 -0.6160  0.0784
 4317SOL    HW113271   4.537   0.369   4.727 -1.1244 -1.5428  1.6683
 4317SOL    HW213272   4.463   0.413   4.588  1.9311 -0.4357  0.2979
 4318SOL     OW13273   0.089   5.286   4.012 -0.1521  0.3512  0.4445
 4318SOL    HW113274   0.066   5.346   4.088 -1.4591  1.2327 -0.6014
 4318SOL    HW213275   0.047   5.196   4.027 -0.4826  0.5477  0.7194
 4319SOL     OW13276   0.194   1.686   5.250 -0.5850 -0.1621 -0.1835
 4319SOL    HW113277   0.232   1.604   5.291 -0.2744 -0.6449 -1.3836
 4319SOL    HW213278   0.116   1.718   5.304 -0.0229 -0.5902  0.9105
 4320SOL     OW13279   3.672   0.530   5.194  0.4611  0.3492  0.0990
 4320SOL    HW113280   3.762   0.548   5.233  0.0014 -0.2687  1.5296
 4320SOL    HW213281   3.677   0.451   5.132  1.1569  1.2012 -0.9688
 4321SOL     OW13282   4.686   3.739   5.021  0.1190 -0.0022  0.6706
 4321SOL    HW113283   4.680   3.788   4.934  1.3543 -0.5569  0.2333
 4321SOL    HW213284   4.601   3.689   5.038 -0.3540  0.5893  0.0832
 4322SOL     OW13285   4.979   4.788  -0.005  0.2577  0.8152 -0.6714
 4322SOL    HW113286   5.055   4.734   0.032 -1.3776  0.0045  1.8030
 4322SOL    HW213287   5.005   4.885  -0.005  0.6613  0.8091  2.1711
 4323SOL     OW13288   4.395   1.381   3.101  0.5855  0.2294 -0.1522
 4323SOL    HW113289   4.464   1.321   3.141 -0.8176 -1.0787  0.3913
 4323SOL    HW213290   4.406   1.381   3.001  1.0202 -0.4268 -0.1146
 4324SOL     OW13291   5.151   2.932   0.622  0.2725  0.0257 -0.3518
 4324SOL    HW113292   5.211   2.973   0.691 -0.2519  0.1824  0.0263
 4324SOL    HW213293   5.069   2.896   0.668 -0.0946  0.1551 -0.8977
 4325SOL     OW13294   4.422   0.928   4.909 -0.0696 -0.0271 -0.1197
 4325SOL    HW113295   4.375   1.014   4.931 -1.9290 -0.7614 -1.0355
 4325SOL    HW213296   4.494   0.947   4.842  0.2321  0.9650  0.4601
 4326SOL     OW13297   4.795   1.843   4.948 -0.5463 -0.0343  0.2494
 4326SOL    HW113298   4.868   1.912   4.953  0.6852 -1.3548  1.4378
 4326SOL    HW213299   4.834   1.755   4.921 -1.6236 -0.8706  1.2841
 4327SOL     OW13300   1.187   5.250   5.299  0.1998 -0.1417 -0.1423
 4327SOL    HW113301   1.180   5.332   5.355  1.7386 -0.6656  0.8725
 4327SOL    HW213302   1.283   5.232   5.278 -0.0512 -2.0267  0.1904
 4328SOL     OW13303   4.516   5.004   0.074 -0.2565 -0.4596 -0.2758
 4328SOL    HW113304   4.471   5.016   0.162  1.7058 -0.2673  0.7657
 4328SOL    HW213305   4.596   4.945   0.085 -0.4551 -1.1344 -2.1171
 4329SOL     OW13306   3.849   2.060   4.198  0.1778 -0.0046  0.4032
 4329SOL    HW113307   3.875   2.060   4.102  0.9792  3.0965  0.5295
 4329SOL    HW213308   3.876   1.973   4.239  0.7716 -0.9882 -1.8965
 4330SOL     OW13309   4.198   0.742   0.551 -0.1957  0.4964 -0.1895
 4330SOL    HW113310   4.164   0.651   0.527 -0.6027  0.8141 -0.8025
 4330SOL    HW213311   4.243   0.783   0.472  0.2796  0.7047  0.1798
 4331SOL     OW13312   5.088   4.185   3.747 -0.1513 -0.0373 -0.3535
 4331SOL    HW113313   5.123   4.142   3.831 -0.9364  0.3872  0.2040
 4331SOL    HW213314   5.146   4.263   3.724 -1.1450  1.1726  1.0367
 4332SOL     OW13315   5.213   0.335   3.771  0.6551 -0.1813  0.2160
 4332SOL    HW113316   5.124   0.299   3.745  0.2385 -0.0160  1.3846
 4332SOL    HW213317   5.205   0.432   3.795  1.0623 -0.2762  0.7572
 4333SOL     OW13318   0.844   5.193   4.755  0.6192  0.1117  0.5313
 4333SOL    HW113319   0.817   5.283   4.719  0.5699  0.4163  1.3138
 4333SOL    HW213320   0.828   5.191   4.853  0.1265 -0.9468  0.4350
 4334SOL     OW13321   4.177   1.644   4.929 -0.3391 -0.2190 -0.5867
 4334SOL    HW113322   4.078   1.656   4.940 -0.1933  0.5968 -0.0239
 4334SOL    HW213323   4.224   1.725   4.966  0.5125 -0.3681 -1.3242
 4335SOL     OW13324   4.879   2.001   2.061 -0.0503  0.5337  0.0818
 4335SOL    HW113325   4.818   2.069   2.103  0.8853 -0.2884  2.9853
 4335SOL    HW213326   4.973   2.018   2.091  0.3433 -1.3987  0.0461
 4336SOL     OW13327   4.668   2.968   0.109 -0.5645 -0.1736  0.0765
 4336SOL    HW113328   4.674   3.058   0.067  1.3753  0.1190  0.8422
 4336SOL    HW213329   4.661   2.977   0.209 -1.9953 -0.8811  0.0690
 4337SOL     OW13330   3.708   2.593   1.036  0.0460 -0.5286  0.7142
 4337SOL    HW113331   3.657   2.556   0.958 -1.0785  0.8183  0.7692
 4337SOL    HW213332   3.674   2.552   1.121  0.7787 -1.4665  0.5633
 4338SOL     OW13333   4.210   3.261   0.249  0.0611  0.6007  0.2649
 4338SOL    HW113334   4.202   3.210   0.163 -1.1027 -1.1637  1.3486
 4338SOL    HW213335   4.282   3.220   0.305 -0.4237  0.5497  0.8681
 4339SOL     OW13336   4.652   3.179   2.747  0.2424 -0.0875  0.1842
 4339SOL    HW113337   4.715   3.169   2.670  0.3949 -2.0143  0.5108
 4339SOL    HW213338   4.607   3.268   2.742  0.8025  0.1286 -1.7009
 4340SOL     OW13339   5.518   3.114   0.624  0.4905 -0.7272  0.2739
 4340SOL    HW113340   5.437   3.118   0.682  0.4653 -0.1731  0.2095
 4340SOL    HW213341   5.591   3.170   0.663  0.0352  0.7398 -0.8697
 4341SOL     OW13342   5.292   2.515   2.058  0.1960  0.4643  0.4687
 4341SOL    HW113343   5.330   2.438   2.108  1.1011  1.4524  1.3657
 4341SOL    HW213344   5.361   2.552   1.996  0.0188  0.9850  0.5724
 4342SOL     OW13345   5.108   2.086   5.171  0.6430 -0.5370  0.4209
 4342SOL    HW113346   5.088   2.116   5.265 -0.9737  1.2200 -0.4198
 4342SOL    HW213347   5.207   2.080   5.158  1.0076  1.9930  1.4459
 4343SOL     OW13348   4.857   2.921   1.844  0.3476  0.4575 -0.0505
 4343SOL    HW113349   4.879   3.001   1.900 -1.2096  0.8813  0.0130
 4343SOL    HW213350   4.901   2.840   1.883  0.1078  0.9114  1.2196
 4344SOL     OW13351   5.444   2.323   1.491 -0.1892  0.2909 -0.1359
 4344SOL    HW113352   5.376   2.264   1.446 -0.2370  0.2785 -0.0477
 4344SOL    HW213353   5.491   2.273   1.563  0.8493 -0.1019 -1.0663
 4345SOL     OW13354   4.074   3.444   0.430  0.2708 -0.1683 -0.7659
 4345SOL    HW113355   4.131   3.419   0.351  2.1688  1.7625 -0.1030
 4345SOL    HW213356   4.133   3.476   0.504 -1.7038  2.6014 -0.2497
 4346SOL     OW13357   5.033   2.616   2.639 -0.1675 -0.3587  0.0688
 4346SOL    HW113358   4.954   2.658   2.595 -0.1388  0.1431  0.4874
 4346SOL    HW213359   5.067   2.676   2.711  0.8537 -0.3842 -0.3782
 4347SOL     OW13360   3.773   4.231   0.488  0.4442 -0.0224 -0.4830
 4347SOL    HW113361   3.862   4.262   0.521 -0.4941 -0.7111  3.1009
 4347SOL    HW213362   3.738   4.159   0.548 -2.0817 -0.5703 -2.4278
 4348SOL     OW13363   5.183   3.395   2.562 -0.0674  0.0742  0.2462
 4348SOL    HW113364   5.200   3.297   2.555 -4.0881 -0.7239 -0.7181
 4348SOL    HW213365   5.124   3.413   2.641  1.3096  1.9280  0.9449
 4349SOL     OW13366   2.613   2.804   0.631  0.0215 -0.0236 -0.5042
 4349SOL    HW113367   2.645   2.899   0.639 -0.7605  0.2793 -0.8319
 4349SOL    HW213368   2.666   2.746   0.692 -0.2958  0.8379  0.6339
 4350SOL     OW13369   0.930   3.123   0.498  0.2182 -0.1960 -0.2020
 4350SOL    HW113370   0.983   3.042   0.522  0.4456 -1.0957 -3.3415
 4350SOL    HW213371   0.989   3.204   0.500  0.8361 -0.6379 -0.2813
 4351SOL     OW13372   3.629   4.374   0.754  1.1879  0.5302  0.0921
 4351SOL    HW113373   3.643   4.473   0.766  0.9780  0.6363 -0.5012
 4351SOL    HW213374   3.663   4.347   0.664  0.3331  0.2429 -0.1514
 4352SOL     OW13375   0.688   2.968   0.777 -0.4499 -0.0833  0.0555
 4352SOL    HW113376   0.598   2.995   0.811  0.1801 -0.2434  1.9736
 4352SOL    HW213377   0.711   2.876   0.812  1.6227  1.0857  2.0976
 4353SOL     OW13378   4.695   3.550   4.167 -0.1351 -0.1453  0.1134
 4353SOL    HW113379   4.645   3.597   4.240  0.2209 -0.5105  0.5940
 4353SOL    HW213380   4.792   3.572   4.173 -0.4129  2.1304 -1.9849
 4354SOL     OW13381   4.554   2.322   0.056  0.1320 -0.6490 -0.1514
 4354SOL    HW113382   4.552   2.260  -0.022 -1.6454 -0.6757 -0.1211
 4354SOL    HW213383   4.468   2.317   0.106 -0.1763  1.9724 -0.2420
 4355SOL     OW13384   5.158   3.929   1.588 -0.3846 -0.7701 -0.0818
 4355SOL    HW113385   5.213   4.011   1.602  0.8329 -1.7099  0.7734
 4355SOL    HW213386   5.078   3.952   1.531  1.1577  0.5078 -1.8481
 4356SOL     OW13387   0.061   2.918   1.751 -0.2242 -0.0975 -0.3911
 4356SOL    HW113388   0.146   2.869   1.732 -1.1907 -1.5664 -1.0912
 4356SOL    HW213389   0.003   2.918   1.669 -1.0495  0.5770  0.1676
 4357SOL     OW13390   0.519   0.974   0.339 -0.6053 -0.3138  0.7946
 4357SOL    HW113391   0.489   0.916   0.264  0.1327 -0.7712  0.8441
 4357SOL    HW213392   0.442   1.032   0.369  0.0030  2.7890 -2.8612
 4358SOL     OW13393   3.742   2.677   1.708  0.0232  0.3385 -0.1489
 4358SOL    HW113394   3.644   2.689   1.721 -0.1429 -0.6091 -0.4629
 4358SOL    HW213395   3.759   2.623   1.625  0.8027  0.4191 -0.0522
 4359SOL     OW13396   0.264   3.822   1.081  0.0557 -0.0924 -0.1047
 4359SOL    HW113397   0.264   3.915   1.117 -1.2641  0.3812 -1.2059
 4359SOL    HW213398   0.355   3.782   1.089  1.0864  1.9120 -1.1227
 4360SOL     OW13399   4.758   3.327   1.114 -0.3376 -0.1097 -0.2445
 4360SOL    HW113400   4.728   3.409   1.066 -1.4071 -0.0899  0.4556
 4360SOL    HW213401   4.697   3.251   1.091  0.1019 -0.4907 -0.1647
 4361SOL     OW13402   4.614   2.472   5.322 -0.7452 -0.2232  0.1647
 4361SOL    HW113403   4.593   2.406   5.393 -0.1081 -1.4509 -0.7481
 4361SOL    HW213404   4.713   2.476   5.308 -0.8007  0.6452 -0.0632
 4362SOL     OW13405   0.305   3.663   0.088  0.0738 -0.1728  0.1109
 4362SOL    HW113406   0.206   3.663   0.078  0.1255 -0.9535 -0.4966
 4362SOL    HW213407   0.329   3.674   0.185 -0.5722  1.2950  0.1226
 4363SOL     OW13408   3.446   2.382   1.102  0.0405  0.3035 -0.1265
 4363SOL    HW113409   3.536   2.339   1.098  0.5234  1.3125 -0.4259
 4363SOL    HW213410   3.446   2.466   1.047 -1.0507  0.3831 -0.0369
 4364SOL     OW13411   4.635   4.230   1.523  0.1014  0.3519  0.0622
 4364SOL    HW113412   4.724   4.257   1.488  0.7924 -0.4941  1.1035
 4364SOL    HW213413   4.601   4.150   1.474 -0.5865  1.2923 -1.0360
 4365SOL     OW13414   4.803   1.901   0.844 -0.0928  1.0270  0.1535
 4365SOL    HW113415   4.784   1.999   0.847 -1.6592  0.7712 -0.3513
 4365SOL    HW213416   4.883   1.884   0.786  0.5941  2.0339  0.7807
 4366SOL     OW13417   4.113   2.013   1.241  0.1311 -0.0063 -0.1398
 4366SOL    HW113418   4.093   1.920   1.213  1.5133 -0.7494  1.2002
 4366SOL    HW213419   4.148   2.013   1.335  1.9090  1.6437 -0.7431
 4367SOL     OW13420   4.628   2.412   0.718  0.0261  0.9212  0.5697
 4367SOL    HW113421   4.577   2.357   0.784 -1.1613 -0.0311 -1.0584
 4367SOL    HW213422   4.716   2.369   0.701 -0.6146 -0.1430 -0.1736
 4368SOL     OW13423   4.981   3.433   0.536 -0.7585  0.5215 -0.0413
 4368SOL    HW113424   5.017   3.501   0.472 -0.3391  0.4242  0.0873
 4368SOL    HW213425   5.057   3.390   0.584 -0.9669 -0.5663 -0.6527
 4369SOL     OW13426   5.191   2.754   1.258 -0.3921 -0.3506 -0.1496
 4369SOL    HW113427   5.265   2.794   1.312 -2.5620  1.2467  1.8276
 4369SOL    HW213428   5.170   2.813   1.180 -1.2249  0.5624  0.7413
 4370SOL     OW13429   4.768   2.801   1.059 -0.0580 -0.0132  0.2526
 4370SOL    HW113430   4.722   2.887   1.037 -1.5749 -0.6926  0.5779
 4370SOL    HW213431   4.764   2.740   0.980 -0.9801 -0.5766  0.7087
 4371SOL     OW13432   4.457   3.424   1.266  0.6474 -0.3053 -0.1840
 4371SOL    HW113433   4.436   3.503   1.324  0.7299 -0.7599  0.4723
 4371SOL    HW213434   4.426   3.340   1.311 -0.8997 -0.5312 -1.5790
 4372SOL     OW13435   4.841   3.177   0.473  0.1365  0.7269 -0.6609
 4372SOL    HW113436   4.835   3.154   0.570  3.7751 -0.2975 -0.5282
 4372SOL    HW213437   4.880   3.269   0.463  0.6336  0.4764 -1.1051
 4373SOL     OW13438   0.025   2.820   4.399 -0.1398 -0.6202 -0.0552
 4373SOL    HW113439   0.049   2.748   4.463  1.7235 -0.7022 -0.7698
 4373SOL    HW213440   0.066   2.907   4.428  2.2510 -1.0052 -1.9228
 4374SOL     OW13441   5.042   1.857   1.622  0.3232  0.1420 -0.4302
 4374SOL    HW113442   4.974   1.822   1.687  0.5076  0.1866 -0.2122
 4374SOL    HW213443   5.007   1.847   1.529  0.1611 -0.1520 -0.3400
 4375SOL     OW13444   0.133   3.480   4.508  0.1392 -0.0911  0.0929
 4375SOL    HW113445   0.202   3.417   4.545 -0.3454 -0.7002 -0.0232
 4375SOL    HW213446   0.166   3.519   4.422  1.4019  1.5535  1.2565
 4376SOL     OW13447   4.150   3.469   1.464  0.0927  0.0228  0.1313
 4376SOL    HW113448   4.172   3.375   1.492 -0.4166 -0.6255 -1.5628
 4376SOL    HW213449   4.099   3.468   1.378 -0.6028  1.8334  0.4715
 4377SOL     OW13450   4.646   1.450   1.073 -0.3117  0.1899  0.1058
 4377SOL    HW113451   4.667   1.486   1.164 -1.3645 -0.1686  0.5159
 4377SOL    HW213452   4.709   1.489   1.006  1.7295 -0.9575  1.2395
 4378SOL     OW13453   4.748   2.575   1.703 -0.4744  0.8062 -0.0535
 4378SOL    HW113454   4.649   2.579   1.694 -0.3735  1.7701 -0.8918
 4378SOL    HW213455   4.777   2.631   1.781 -0.5010  1.5734 -0.5853
 4379SOL     OW13456   0.253   2.671   5.562 -0.3185  0.4415 -0.1868
 4379SOL    HW113457   0.171   2.713   5.599 -2.5638 -1.6336 -2.4468
 4379SOL    HW213458   0.300   2.735   5.502 -0.6286  1.4298  0.6075
 4380SOL     OW13459   4.526   2.312   0.484 -0.5545  0.1154 -0.4326
 4380SOL    HW113460   4.546   2.361   0.569 -0.0473  0.7624 -0.9162
 4380SOL    HW213461   4.611   2.275   0.447 -0.6392  0.5690 -1.0957
 4381SOL     OW13462   3.718   3.228   1.122  0.7548 -0.0826  0.1382
 4381SOL    HW113463   3.740   3.135   1.151  1.0003 -0.0412  0.0845
 4381SOL    HW213464   3.739   3.292   1.197 -2.6083 -0.3911  1.5489
 4382SOL     OW13465   4.919   3.575   5.078 -0.3012 -0.5206 -0.2211
 4382SOL    HW113466   4.831   3.617   5.056 -1.2788 -1.7266  1.1601
 4382SOL    HW213467   4.938   3.585   5.176  1.2093 -0.1261 -0.5253
 4383SOL     OW13468   1.108   3.003   2.177 -0.9451 -0.7541  0.7253
 4383SOL    HW113469   1.186   3.025   2.118 -0.4662 -1.1793  1.1824
 4383SOL    HW213470   1.142   2.960   2.261 -1.7457 -1.8238  0.5120
 4384SOL     OW13471   5.425   3.742   4.712 -0.5247 -0.2866  0.3632
 4384SOL    HW113472   5.438   3.802   4.791 -0.7004  0.7374 -0.3547
 4384SOL    HW213473   5.354   3.780   4.653 -0.2705 -0.9294 -0.3786
 4385SOL     OW13474   5.062   2.533   0.580  0.1030  0.0910 -0.1769
 4385SOL    HW113475   5.018   2.586   0.508 -0.4691 -0.7896 -0.4840
 4385SOL    HW213476   5.046   2.436   0.565 -0.2852 -0.1009  1.2903
 4386SOL     OW13477   4.097   3.846   1.409 -0.1090 -0.3484 -0.0489
 4386SOL    HW113478   4.041   3.777   1.457 -2.0022  0.9361 -0.2990
 4386SOL    HW213479   4.037   3.909   1.360  1.6551  0.4487 -1.2804
 4387SOL     OW13480   3.848   2.661   0.615  0.4904  0.1097 -0.0349
 4387SOL    HW113481   3.891   2.602   0.546 -1.8438 -1.1571 -0.4901
 4387SOL    HW213482   3.776   2.716   0.573  0.5702  1.0382  0.9832
 4388SOL     OW13483   0.457   3.069   1.106  0.6439  0.7797  0.4724
 4388SOL    HW113484   0.425   2.974   1.104  2.2665  0.1597  1.4204
 4388SOL    HW213485   0.490   3.091   1.198 -1.5868  2.9822  0.8508
 4389SOL     OW13486   0.673   3.384   1.270 -0.1202  0.3744  0.0018
 4389SOL    HW113487   0.636   3.472   1.298 -0.3773  0.0682  0.6358
 4389SOL    HW213488   0.771   3.394   1.249 -0.1355  0.7936  0.1312
 4390SOL     OW13489   4.983   4.143   5.449  0.0482 -0.0665  0.0631
 4390SOL    HW113490   5.071   4.116   5.410  0.3311  0.5512  0.2552
 4390SOL    HW213491   4.958   4.233   5.412 -0.1411  0.0915  0.5726
 4391SOL     OW13492   5.119   3.627   0.382  0.4304  0.7666 -0.1015
 4391SOL    HW113493   5.091   3.718   0.353  0.5189  1.1529  0.9843
 4391SOL    HW213494   5.209   3.606   0.344  0.6989  1.4006  0.1716
 4392SOL     OW13495   3.873   2.911   1.765 -0.3160  0.4149  0.6623
 4392SOL    HW113496   3.840   2.817   1.752 -1.0796  0.6070  1.1056
 4392SOL    HW213497   3.794   2.973   1.768  0.2090  1.1273 -0.0752
 4393SOL     OW13498   4.996   4.417   1.893  0.1417  0.3935  0.5698
 4393SOL    HW113499   5.061   4.463   1.832  0.3143 -0.5102  0.0570
 4393SOL    HW213500   4.908   4.407   1.846 -0.0018  0.5327  0.8114
 4394SOL     OW13501   4.046   2.038   1.794  0.1471 -0.4546  0.0260
 4394SOL    HW113502   3.967   1.995   1.750 -0.1828  1.2291 -1.1438
 4394SOL    HW213503   4.100   2.086   1.725  1.5118 -0.5508  0.9967
 4395SOL     OW13504   0.715   3.858   4.844  0.3862  0.3506 -0.5374
 4395SOL    HW113505   0.695   3.787   4.776 -1.5111  1.5487 -1.2992
 4395SOL    HW213506   0.806   3.842   4.882  0.1843 -2.2677 -0.9385
 4396SOL     OW13507   4.193   4.363   0.519 -0.5107  0.2258 -0.1631
 4396SOL    HW113508   4.116   4.345   0.580 -1.0785  1.8546 -0.3691
 4396SOL    HW213509   4.277   4.329   0.561 -1.4184 -2.8108 -0.5000
 4397SOL     OW13510   4.175   3.322   5.209 -0.4699 -0.1973 -0.1382
 4397SOL    HW113511   4.136   3.373   5.133 -0.9603 -1.2278 -0.6001
 4397SOL    HW213512   4.190   3.227   5.181 -0.0346 -0.4324  0.8481
 4398SOL     OW13513   4.078   3.288   1.212 -0.1320  0.5293 -0.0534
 4398SOL    HW113514   4.177   3.289   1.225 -0.1859 -0.9167  0.6569
 4398SOL    HW213515   4.057   3.249   1.122 -0.0781  0.0327  0.1481
 4399SOL     OW13516   5.465   3.234   0.960  0.2552  0.1911  0.2062
 4399SOL    HW113517   5.376   3.274   0.981 -0.2720 -0.3714 -0.8918
 4399SOL    HW213518   5.521   3.302   0.912 -0.6517 -0.3273 -1.6833
 4400SOL     OW13519   5.292   3.662   5.344 -0.4154 -0.1858 -0.2090
 4400SOL    HW113520   5.245   3.750   5.335 -0.0469  0.0855  0.4829
 4400SOL    HW213521   5.379   3.676   5.390 -0.5627 -0.9831  0.3261
 4401SOL     OW13522   4.761   2.166   0.916 -0.4512  1.1679 -0.1990
 4401SOL    HW113523   4.682   2.181   0.975  0.6967  0.5779  1.5405
 4401SOL    HW213524   4.844   2.195   0.963  0.5982 -0.1155 -1.1943
 4402SOL     OW13525   4.721   3.858   5.254 -0.5657 -0.7063 -0.2568
 4402SOL    HW113526   4.720   3.803   5.170 -0.6352 -0.5569 -0.3544
 4402SOL    HW213527   4.790   3.822   5.316 -1.2966 -1.5392  0.1014
 4403SOL     OW13528   2.301   2.158   1.749  0.3790  0.2078 -0.2141
 4403SOL    HW113529   2.382   2.157   1.807  1.6581 -1.1385 -1.8970
 4403SOL    HW213530   2.256   2.068   1.754 -0.3712  0.5802 -0.1549
 4404SOL     OW13531   0.580   3.301   4.763  0.2022  0.1533  0.1445
 4404SOL    HW113532   0.653   3.265   4.705  0.0122  0.9972 -0.6484
 4404SOL    HW213533   0.515   3.228   4.783 -1.8299  0.5343 -3.9359
 4405SOL     OW13534   0.215   1.723   1.905  0.1324 -0.1217  0.0112
 4405SOL    HW113535   0.312   1.745   1.895  0.2456  0.3621  1.9277
 4405SOL    HW213536   0.163   1.807   1.922 -0.6410 -0.3842 -0.9227
 4406SOL     OW13537   4.524   3.184   0.782  0.6529  0.0204 -0.0204
 4406SOL    HW113538   4.492   3.163   0.875  1.4020  2.7565  0.9342
 4406SOL    HW213539   4.446   3.207   0.724  0.0597 -2.7363 -0.4757
 4407SOL     OW13540   4.292   2.114   5.412  0.0792 -0.2137 -0.3473
 4407SOL    HW113541   4.277   2.023   5.374 -0.4264 -0.6655  0.8821
 4407SOL    HW213542   4.228   2.130   5.487  1.7853  0.1861  1.0857
 4408SOL     OW13543   3.996   2.192   4.721 -0.1241 -0.0754  0.0470
 4408SOL    HW113544   3.954   2.112   4.680  0.5110 -0.7155  0.6126
 4408SOL    HW213545   4.090   2.201   4.688 -0.2902  0.6342 -0.2646
 4409SOL     OW13546   0.394   3.722   0.350 -0.0468  0.4863  0.3438
 4409SOL    HW113547   0.484   3.736   0.310  0.4702  1.1649  1.7065
 4409SOL    HW213548   0.394   3.640   0.406 -0.8546 -0.6279 -1.1890
 4410SOL     OW13549   4.184   2.593   5.566 -0.6208  0.3036 -0.2354
 4410SOL    HW113550   4.121   2.535   5.513  0.5797 -1.2153 -0.0653
 4410SOL    HW213551   4.254   2.630   5.506  0.3135 -0.8232  0.1354
 4411SOL     OW13552   0.015   1.452   0.219  0.0992 -0.0191 -0.1609
 4411SOL    HW113553   0.008   1.542   0.261 -0.3606 -0.9087  1.8110
 4411SOL    HW213554   0.091   1.402   0.261 -0.9523 -1.2813  0.3049
 4412SOL     OW13555   4.698   2.666   0.812 -0.2790  0.0132  1.0851
 4412SOL    HW113556   4.635   2.730   0.769 -0.0648 -0.1508  0.5278
 4412SOL    HW213557   4.687   2.575   0.773 -1.5007 -0.6129  2.7763
 4413SOL     OW13558   4.199   2.235   0.754 -0.1306 -0.5294  0.5374
 4413SOL    HW113559   4.188   2.184   0.839 -2.1182  2.3869  2.1741
 4413SOL    HW213560   4.110   2.252   0.713  0.6321  0.0263 -0.9767
 4414SOL     OW13561   4.265   2.263   0.423 -0.0136  0.1778 -0.0724
 4414SOL    HW113562   4.218   2.275   0.510  0.2164  1.5680 -0.1190
 4414SOL    HW213563   4.363   2.282   0.436  0.1641 -0.4543 -0.4577
 4415SOL     OW13564   4.614   2.988   0.964 -0.0780  0.5863  0.1437
 4415SOL    HW113565   4.600   2.958   0.869 -0.0116 -2.1498  0.9070
 4415SOL    HW213566   4.526   2.988   1.012  0.1782 -0.1052  0.6165
 4416SOL     OW13567   0.204   4.114   4.840 -0.7375 -0.1064  0.0412
 4416SOL    HW113568   0.258   4.072   4.766 -0.3185  0.1169  0.2136
 4416SOL    HW213569   0.202   4.052   4.918  0.5190  0.4964  0.5721
 4417SOL     OW13570   4.122   2.283   1.174  0.0164  0.1817 -0.4885
 4417SOL    HW113571   4.214   2.322   1.170 -0.1767  0.5478 -2.2771
 4417SOL    HW213572   4.125   2.198   1.226  1.5949 -0.3405 -1.3511
 4418SOL     OW13573   4.499   3.394   1.948  0.4918  0.6136  0.3811
 4418SOL    HW113574   4.462   3.476   1.992 -0.9730  0.7086 -0.9394
 4418SOL    HW213575   4.550   3.420   1.867 -0.4627  0.2220 -0.3690
 4419SOL     OW13576   4.159   2.661   0.635 -0.1015 -0.4805 -0.1083
 4419SOL    HW113577   4.210   2.587   0.679 -0.4191 -1.7949 -1.8229
 4419SOL    HW213578   4.101   2.622   0.563  0.7170  1.5707 -1.9895
 4420SOL     OW13579   5.265   0.706   1.424  0.1250  0.3968  0.0917
 4420SOL    HW113580   5.309   0.616   1.417 -0.0761  0.2363  0.8217
 4420SOL    HW213581   5.278   0.756   1.338 -0.1538 -0.5073 -0.4972
 4421SOL     OW13582   4.984   3.845   0.275 -0.3565  0.2381  0.4498
 4421SOL    HW113583   4.895   3.816   0.239  0.4109 -0.7127 -0.7838
 4421SOL    HW213584   5.030   3.902   0.207 -0.0968  0.9141  1.1740
 4422SOL     OW13585   4.494   1.817   1.183 -0.6130 -0.0165  0.5666
 4422SOL    HW113586   4.594   1.817   1.187 -0.5628  2.3881  1.3822
 4422SOL    HW213587   4.457   1.784   1.270 -0.4930  0.0486  0.6431
 4423SOL     OW13588   0.250   0.538   4.907  0.1609  0.6658 -0.3693
 4423SOL    HW113589   0.169   0.554   4.852 -0.2787  0.5579  0.2319
 4423SOL    HW213590   0.223   0.519   5.001  0.7966 -1.0481 -0.5065
 4424SOL     OW13591   0.247   3.954   0.696 -0.4257 -0.0610 -0.8545
 4424SOL    HW113592   0.156   3.970   0.736  0.2238 -1.8627  1.5415
 4424SOL    HW213593   0.239   3.953   0.596 -2.9496  0.2833 -0.7354
 4425SOL     OW13594   0.211   3.653   0.852 -0.4263  0.3801  0.2067
 4425SOL    HW113595   0.265   3.574   0.824 -0.2182  1.2246 -2.0131
 4425SOL    HW213596   0.247   3.690   0.938 -0.9171 -2.2261  1.6217
 4426SOL     OW13597   5.458   3.485   4.610  0.3328  0.1534 -0.9070
 4426SOL    HW113598   5.557   3.485   4.594  0.7202  0.2726  1.2131
 4426SOL    HW213599   5.432   3.569   4.657  0.1208 -1.8879  3.0466
 4427SOL     OW13600   4.049   2.820   0.024 -0.2545 -0.5729 -0.6123
 4427SOL    HW113601   3.954   2.791   0.031 -0.0616 -0.9660  0.6259
 4427SOL    HW213602   4.105   2.743  -0.008 -0.2888 -0.4713 -0.9168
 4428SOL     OW13603   5.129   2.514   1.840 -0.0298  0.2013  0.7501
 4428SOL    HW113604   5.173   2.517   1.930  0.8460  1.6647  0.3188
 4428SOL    HW213605   5.128   2.421   1.806  2.1234  0.0034  1.1029
 4429SOL     OW13606   0.309   3.099   2.034  0.0523  0.0890  0.2688
 4429SOL    HW113607   0.250   3.157   1.977  0.0616 -0.4717 -0.3227
 4429SOL    HW213608   0.323   3.011   1.989  1.5073  0.2739  0.2959
 4430SOL     OW13609   5.347   4.274   0.954 -0.0661 -0.3822 -0.7191
 4430SOL    HW113610   5.445   4.285   0.936  0.1044 -0.7420 -0.0557
 4430SOL    HW213611   5.317   4.348   1.015 -0.0148 -0.7461 -0.2456
 4431SOL     OW13612   5.057   3.199   2.241 -0.3993  0.0299 -0.1308
 4431SOL    HW113613   4.974   3.144   2.227  0.5207 -0.8652 -2.6532
 4431SOL    HW213614   5.037   3.295   2.220 -0.8763 -0.1406 -0.5034
 4432SOL     OW13615   1.206   3.367   0.892  0.0666 -0.3704 -0.0146
 4432SOL    HW113616   1.215   3.271   0.867 -0.6441  0.1970 -2.7284
 4432SOL    HW213617   1.116   3.383   0.933  0.8873 -1.1443  2.2262
 4433SOL     OW13618   4.378   1.555   1.072 -0.4381  0.5239  0.3320
 4433SOL    HW113619   4.472   1.525   1.057 -0.9252 -0.9913  0.0474
 4433SOL    HW213620   4.377   1.645   1.115  1.1350  0.2759  0.9369
 4434SOL     OW13621   4.593   2.468   3.328  0.4668 -0.0590 -0.3258
 4434SOL    HW113622   4.536   2.393   3.294  3.7447 -2.2667 -1.4880
 4434SOL    HW213623   4.567   2.553   3.283 -1.6981 -0.9636 -0.9191
 4435SOL     OW13624   4.956   2.058   2.496 -0.7103 -0.5379  0.4087
 4435SOL    HW113625   5.016   1.988   2.536  2.1132  1.5665  0.1668
 4435SOL    HW213626   4.867   2.055   2.541  0.6775 -1.5307  3.3467
 4436SOL     OW13627   3.939   2.497   1.258 -0.4905  0.0733 -0.2605
 4436SOL    HW113628   3.976   2.416   1.213  0.6881  0.0658  0.6448
 4436SOL    HW213629   3.918   2.567   1.190  0.2351 -0.3177 -0.8977
 4437SOL     OW13630   4.652   2.425   1.428 -0.1832  0.0602 -0.6671
 4437SOL    HW113631   4.683   2.330   1.426 -0.6870 -0.2100  1.4902
 4437SOL    HW213632   4.712   2.479   1.487 -0.2095  0.9748 -1.4473
 4438SOL     OW13633   4.446   3.506   1.010  0.4202  0.1228  0.5299
 4438SOL    HW113634   4.539   3.525   0.980  0.1648  1.4184  0.4862
 4438SOL    HW213635   4.446   3.470   1.103  0.8743  1.9995  1.2974
 4439SOL     OW13636   3.997   2.959   1.072 -0.3412  0.3403  0.4486
 4439SOL    HW113637   4.010   3.014   0.990  3.0478  0.4010  0.8793
 4439SOL    HW213638   3.918   2.992   1.123 -2.5473  0.3093 -2.6864
 4440SOL     OW13639   3.591   2.499   1.927  0.6015 -0.1286 -0.1542
 4440SOL    HW113640   3.541   2.523   1.843  0.0091  1.7258  0.6725
 4440SOL    HW213641   3.680   2.461   1.903  0.0236 -0.6226 -1.6301
 4441SOL     OW13642   5.423   3.492   0.622  0.3297  0.2931 -0.5912
 4441SOL    HW113643   5.512   3.500   0.576  1.8426  2.5469  2.2910
 4441SOL    HW213644   5.377   3.581   0.621 -1.0168 -0.3839 -0.4452
 4442SOL     OW13645   4.489   2.232   2.483  0.2508  0.1922 -0.1543
 4442SOL    HW113646   4.395   2.239   2.515  1.0766  1.1923  2.3455
 4442SOL    HW213647   4.525   2.323   2.465  0.5211 -0.2344 -1.9017
 4443SOL     OW13648   1.222   3.195   0.587 -0.4043  0.1837 -0.2537
 4443SOL    HW113649   1.218   3.169   0.683  1.4174  0.2936 -0.0974
 4443SOL    HW213650   1.297   3.260   0.573  1.4763 -2.1691 -2.1899
 4444SOL     OW13651   3.814   3.811   2.112  0.4607  0.1263  0.2791
 4444SOL    HW113652   3.811   3.796   2.211 -0.8519  1.4121  0.4894
 4444SOL    HW213653   3.770   3.735   2.065  0.2323 -0.0539  0.7747
 4445SOL     OW13654   4.276   3.324   0.873 -0.6077 -0.3244 -1.1032
 4445SOL    HW113655   4.324   3.382   0.938 -0.8293 -1.7167  0.3622
 4445SOL    HW213656   4.267   3.372   0.786 -3.5771  3.2295  0.8431
 4446SOL     OW13657   5.111   2.404   2.464 -0.3984 -0.1932  0.4676
 4446SOL    HW113658   5.193   2.377   2.515  0.1261 -1.1833 -0.8370
 4446SOL    HW213659   5.071   2.485   2.506  1.2960  0.3642  1.1010
 4447SOL     OW13660   4.179   2.198   1.601  0.7052 -0.0021  0.2037
 4447SOL    HW113661   4.276   2.221   1.610  0.3199  1.3112  1.4042
 4447SOL    HW213662   4.129   2.278   1.568 -0.1840 -0.1677  1.0868
 4448SOL     OW13663   4.460   2.061   0.613 -0.0335 -0.6123 -0.2796
 4448SOL    HW113664   4.536   2.006   0.577  1.3208  1.3008 -0.4967
 4448SOL    HW213665   4.470   2.155   0.582 -2.1074 -0.1390  0.3529
 4449SOL     OW13666   4.299   1.995   0.268 -0.1918 -0.1662  0.5663
 4449SOL    HW113667   4.394   1.967   0.254 -0.6132 -0.9374 -0.9951
 4449SOL    HW213668   4.293   2.053   0.348  1.5225 -0.5054  0.9805
 4450SOL     OW13669   0.005   2.341   5.221  0.7248  0.2820  0.2522
 4450SOL    HW113670   0.104   2.330   5.234  0.5632 -0.6951  0.7122
 4450SOL    HW213671  -0.037   2.370   5.307  0.4855 -0.2204  0.3056
 4451SOL     OW13672   3.099   2.014   0.476  0.1521 -0.1453  0.3713
 4451SOL    HW113673   3.018   2.070   0.492 -0.3441 -0.4910 -0.8774
 4451SOL    HW213674   3.159   2.020   0.556 -1.9766 -1.4208  2.1634
 4452SOL     OW13675   4.585   2.963   1.761 -0.7722  0.0629 -0.5345
 4452SOL    HW113676   4.593   2.960   1.661 -0.4300 -1.2659 -0.4830
 4452SOL    HW213677   4.671   2.934   1.802  0.0708  3.1813  0.2220
 4453SOL     OW13678   3.525   2.333   0.380 -0.6004  0.0377 -0.0383
 4453SOL    HW113679   3.434   2.375   0.376 -0.7769 -0.4368 -1.8262
 4453SOL    HW213680   3.518   2.241   0.418 -0.7080  0.3500  0.7201
 4454SOL     OW13681   1.165   2.744   1.940 -0.6921 -0.3389  0.2008
 4454SOL    HW113682   1.138   2.675   1.873 -0.4257 -0.4897  0.2489
 4454SOL    HW213683   1.209   2.699   2.018 -0.1726 -0.0805  0.0601
 4455SOL     OW13684   3.860   2.382   0.022  0.0788 -0.0755  0.0419
 4455SOL    HW113685   3.822   2.376  -0.070  0.2733  1.2420 -0.1437
 4455SOL    HW213686   3.833   2.468   0.064  0.7467 -0.2548  0.8722
 4456SOL     OW13687  -0.005   3.230   0.113 -0.0138 -0.0759  0.1427
 4456SOL    HW113688   0.058   3.177   0.056 -1.0112 -1.4565  0.2687
 4456SOL    HW213689   0.003   3.202   0.208  1.2497  1.8356  0.6597
 4457SOL     OW13690   4.740   1.996   0.207  0.0577 -0.0772  0.0352
 4457SOL    HW113691   4.680   1.932   0.255  0.5564 -0.6125 -0.0495
 4457SOL    HW213692   4.717   1.997   0.110 -0.0954  0.0343  0.0731
 4458SOL     OW13693   0.314   3.293   1.042 -0.3200 -1.0814  0.4180
 4458SOL    HW113694   0.381   3.223   1.065 -0.1031 -0.7846  0.6980
 4458SOL    HW213695   0.268   3.324   1.125 -1.2791 -1.7531  0.1557
 4459SOL     OW13696   0.962   3.836   1.202 -0.1859  0.2639 -0.1785
 4459SOL    HW113697   0.999   3.757   1.250  2.1044  1.4053  0.1008
 4459SOL    HW213698   0.961   3.819   1.104 -0.0547 -0.2246 -0.0958
 4460SOL     OW13699   4.111   3.042   1.877 -0.2159  0.3001 -0.0075
 4460SOL    HW113700   4.096   2.965   1.938  0.5806 -1.2900 -1.7070
 4460SOL    HW213701   4.030   3.055   1.819  0.0539  0.0067 -0.4605
 4461SOL     OW13702   5.156   0.762   1.664 -0.0275  0.3534 -0.9098
 4461SOL    HW113703   5.061   0.732   1.674 -0.2549  1.0158 -1.0575
 4461SOL    HW213704   5.184   0.751   1.568 -0.3613  1.3143 -1.1296
 4462SOL     OW13705   5.625   2.937   0.308  0.0403  0.0285 -0.0010
 4462SOL    HW113706   5.607   3.032   0.334 -1.4756 -0.1672 -0.2391
 4462SOL    HW213707   5.541   2.883   0.319  0.3102 -0.8341 -1.8792
 4463SOL     OW13708   4.439   2.687   1.196 -0.1543 -0.4090 -0.0004
 4463SOL    HW113709   4.471   2.778   1.223 -1.3805 -0.1645  0.6937
 4463SOL    HW213710   4.380   2.695   1.116 -0.8301 -0.4926  0.4782
 4464SOL     OW13711   3.990   2.866   0.305  0.6289  0.3732 -0.2343
 4464SOL    HW113712   4.054   2.864   0.228 -1.3897 -1.5961 -1.9902
 4464SOL    HW213713   3.983   2.775   0.345  0.1268  0.9272  0.9948
 4465SOL     OW13714   4.258   2.688   1.008 -0.0023 -0.1313  0.2452
 4465SOL    HW113715   4.278   2.615   0.943  0.0788  0.1532 -0.0542
 4465SOL    HW213716   4.160   2.689   1.028 -0.4360  1.1937 -1.6298
 4466SOL     OW13717   5.152   2.735   1.690  0.1622  0.1209 -0.5247
 4466SOL    HW113718   5.142   2.658   1.753 -0.8570  0.0044 -0.8274
 4466SOL    HW213719   5.063   2.759   1.651 -0.0985  3.1279  1.5622
 4467SOL     OW13720   4.735   1.764   2.156 -0.0153  0.3347  0.2807
 4467SOL    HW113721   4.670   1.782   2.082  0.1948 -0.3237 -0.0649
 4467SOL    HW213722   4.816   1.821   2.144  1.1613 -1.6052 -1.4680
 4468SOL     OW13723   3.058   4.368   5.264  0.2425 -0.0124 -0.3655
 4468SOL    HW113724   3.081   4.442   5.201 -2.4218  0.3409 -1.0563
 4468SOL    HW213725   3.024   4.290   5.212  0.1521 -0.5682  0.5172
 4469SOL     OW13726   3.584   4.024   1.926 -0.4231 -0.3384 -0.1221
 4469SOL    HW113727   3.667   4.068   1.962 -0.3484 -0.4081 -0.2087
 4469SOL    HW213728   3.507   4.046   1.985 -0.5820  0.7204 -0.6966
 4470SOL     OW13729   4.218   3.596   2.317 -0.0484  0.9332 -0.0497
 4470SOL    HW113730   4.235   3.589   2.219  0.0118  1.0435 -0.0473
 4470SOL    HW213731   4.125   3.565   2.337 -0.6060  2.3197 -0.3469
 4471SOL     OW13732   4.449   2.672   0.570  0.0739 -0.1998  0.3576
 4471SOL    HW113733   4.353   2.694   0.551 -0.1845 -0.8244  0.8986
 4471SOL    HW213734   4.502   2.680   0.486 -0.5895 -0.5403 -0.1064
 4472SOL     OW13735   4.404   1.772   1.414  0.0359 -0.7062 -0.0719
 4472SOL    HW113736   4.388   1.690   1.469 -1.7529 -0.7088 -0.5378
 4472SOL    HW213737   4.321   1.829   1.413  1.5781  1.7314  1.1985
 4473SOL     OW13738   3.789   2.238   1.391 -0.1427  0.6364  0.2681
 4473SOL    HW113739   3.788   2.235   1.491 -0.5352  0.0378  0.2539
 4473SOL    HW213740   3.797   2.145   1.355 -1.0946  0.7455 -0.2612
 4474SOL     OW13741   4.615   1.523   1.359 -0.4315 -0.3635 -0.0517
 4474SOL    HW113742   4.553   1.454   1.396 -1.2118  1.2231  1.8128
 4474SOL    HW213743   4.588   1.613   1.393  2.0597  0.5780 -0.3415
 4475SOL     OW13744   5.240   2.530   4.585  0.4249 -0.7405 -0.1611
 4475SOL    HW113745   5.258   2.622   4.549 -2.6182  0.2139  0.4213
 4475SOL    HW213746   5.235   2.533   4.685 -0.9738 -1.1884 -0.1850
 4476SOL     OW13747   4.064   1.751   1.195  0.6756  0.1534  1.1513
 4476SOL    HW113748   3.974   1.721   1.164  1.4775  0.7312 -2.1581
 4476SOL    HW213749   4.107   1.679   1.250 -1.4192 -0.4409  2.1208
 4477SOL     OW13750   4.684   1.397   3.023 -0.7731 -0.3475 -0.7582
 4477SOL    HW113751   4.653   1.302   3.019  0.1016 -0.6142 -2.6554
 4477SOL    HW213752   4.673   1.439   2.933 -0.0783  0.9902 -0.2460
 4478SOL     OW13753   4.914   3.406   0.060  0.1172 -0.2150  0.4910
 4478SOL    HW113754   4.911   3.365  -0.031  0.9614  1.2693 -0.2548
 4478SOL    HW213755   4.909   3.335   0.130 -2.7600 -1.2599 -0.6581
 4479SOL     OW13756   4.506   3.740   2.034 -0.0145 -0.0475 -0.6408
 4479SOL    HW113757   4.459   3.823   2.004 -0.9461 -1.0658 -2.1898
 4479SOL    HW213758   4.603   3.747   2.013 -0.0862  0.6385 -0.7720
 4480SOL     OW13759   5.101   3.499   4.473  0.3171 -0.1800 -0.2556
 4480SOL    HW113760   5.070   3.410   4.507 -0.8968  1.0956  2.2468
 4480SOL    HW213761   5.192   3.490   4.434  0.8009 -2.2574  1.1813
 4481SOL     OW13762   4.822   3.102   1.489  0.1894  0.6213  0.0472
 4481SOL    HW113763   4.780   3.192   1.499  0.4223  1.1450 -2.8841
 4481SOL    HW213764   4.895   3.106   1.421 -0.5256 -1.9767 -0.9946
 4482SOL     OW13765   3.987   3.086   1.569  0.1142 -0.1688 -0.2029
 4482SOL    HW113766   3.936   3.040   1.642 -0.5340  0.8388 -0.0141
 4482SOL    HW213767   3.991   3.027   1.489 -1.0565 -0.3988 -0.1067
 4483SOL     OW13768   4.169   3.063   5.045 -0.6922 -0.5525 -0.6163
 4483SOL    HW113769   4.089   3.116   5.014 -0.4577 -0.9854 -2.0354
 4483SOL    HW213770   4.227   3.042   4.967  1.1307  0.2258  0.4605
 4484SOL     OW13771   5.293   1.698   1.569 -0.2748 -0.9472  0.5489
 4484SOL    HW113772   5.303   1.656   1.479  1.8115  2.8064 -1.2102
 4484SOL    HW213773   5.199   1.728   1.582 -0.5957 -1.5172 -0.3738
 4485SOL     OW13774   4.326   2.505   0.768 -0.1692 -0.2027 -0.2760
 4485SOL    HW113775   4.414   2.528   0.727 -1.2044  1.2943 -1.7923
 4485SOL    HW213776   4.309   2.407   0.759 -0.2563 -0.0119 -3.4578
 4486SOL     OW13777   4.624   1.694   0.050  0.2146 -0.0169  0.2952
 4486SOL    HW113778   4.704   1.753   0.039 -0.0797  0.3576  0.1156
 4486SOL    HW213779   4.555   1.718  -0.019 -0.0962 -0.2545  0.5179
 4487SOL     OW13780   4.793   2.842   2.212  0.0604 -0.7124  0.1009
 4487SOL    HW113781   4.881   2.838   2.164  0.3327  2.9870  0.0364
 4487SOL    HW213782   4.793   2.919   2.275 -3.3323 -0.2870 -0.2468
 4488SOL     OW13783   5.049   2.280   0.540 -0.3222  0.1111  0.0843
 4488SOL    HW113784   5.086   2.229   0.463 -0.3964  0.4805 -0.1976
 4488SOL    HW213785   4.961   2.240   0.567 -0.4552  0.1938 -0.2351
 4489SOL     OW13786   5.463   1.487   4.653  0.4826  0.5564 -0.5719
 4489SOL    HW113787   5.433   1.392   4.663  0.0436  0.7843  0.5122
 4489SOL    HW213788   5.443   1.520   4.561 -1.3198  0.2497 -0.3115
 4490SOL     OW13789   5.233   3.360   1.007  0.5824 -0.1189 -0.4443
 4490SOL    HW113790   5.186   3.445   1.030 -0.0541  0.2208 -2.8145
 4490SOL    HW213791   5.167   3.284   1.008  1.3260 -0.9012  2.6968
 4491SOL     OW13792   4.059   3.374   2.619 -0.0399  0.3971 -0.0457
 4491SOL    HW113793   3.997   3.379   2.697  0.2031 -1.1263  0.2829
 4491SOL    HW213794   4.152   3.396   2.647  0.2663 -1.3176  0.4130
 4492SOL     OW13795   4.769   3.791   0.125  0.1450  0.0942  0.0658
 4492SOL    HW113796   4.697   3.734   0.086  0.0480 -0.7819  1.4585
 4492SOL    HW213797   4.747   3.888   0.111  0.4576 -0.1362 -2.5921
 4493SOL     OW13798   4.425   3.262   2.414 -0.5811  0.4219  0.9995
 4493SOL    HW113799   4.453   3.170   2.442  1.2391  0.7811  0.4814
 4493SOL    HW213800   4.325   3.269   2.415 -0.7000 -0.9509  2.9459
 4494SOL     OW13801   4.286   3.636   5.399 -0.0515  0.2940  0.6995
 4494SOL    HW113802   4.189   3.658   5.388 -0.0408  0.2323  0.4687
 4494SOL    HW213803   4.339   3.720   5.401 -0.0140  0.2972 -0.1376
 4495SOL     OW13804   4.150   1.871   2.060 -0.1077  0.3551 -0.0988
 4495SOL    HW113805   4.143   1.936   2.136 -2.3609  0.0215  0.0509
 4495SOL    HW213806   4.238   1.882   2.015  0.3990  2.0723  1.1970
 4496SOL     OW13807   5.220   2.797   0.419  0.2745 -0.3102  0.4839
 4496SOL    HW113808   5.181   2.837   0.502 -2.1125 -1.4052 -0.0203
 4496SOL    HW213809   5.262   2.709   0.440  1.0058  0.0936  0.7493
 4497SOL     OW13810   3.883   0.893   0.327 -0.1008  0.1639  0.2448
 4497SOL    HW113811   3.883   0.875   0.425  0.4710 -2.0725 -0.1121
 4497SOL    HW213812   3.977   0.911   0.297 -0.1787  0.1430 -0.0074
 4498SOL     OW13813   5.459   3.861   0.984 -0.5611 -0.0893 -0.2396
 4498SOL    HW113814   5.434   3.867   1.080 -4.3666  4.0600 -1.1404
 4498SOL    HW213815   5.384   3.822   0.931  0.5229 -0.1909 -1.8053
 4499SOL     OW13816   4.338   3.226   2.886  0.2291  0.0614  0.6194
 4499SOL    HW113817   4.265   3.186   2.830 -1.6252  1.5576  1.8177
 4499SOL    HW213818   4.357   3.318   2.854  1.9709 -0.4682  0.0469
 4500SOL     OW13819   3.534   3.128   0.385 -0.2917 -0.3981  0.1801
 4500SOL    HW113820   3.582   3.074   0.317 -1.4289  0.6881 -1.5692
 4500SOL    HW213821   3.585   3.128   0.471  2.3742  0.0230 -1.3113
 4501SOL     OW13822   1.007   4.683   0.300 -0.0742  0.2184  0.5058
 4501SOL    HW113823   1.015   4.779   0.274  0.5848  0.3547  1.1608
 4501SOL    HW213824   0.986   4.628   0.220 -0.5449  0.9158  0.1366
 4502SOL     OW13825   4.464   2.248   0.842 -0.9160 -0.7684 -0.0773
 4502SOL    HW113826   4.476   2.169   0.902 -0.3486 -0.2254  0.5407
 4502SOL    HW213827   4.394   2.228   0.774 -1.9610 -1.2209  1.0774
 4503SOL     OW13828   5.275   1.875   0.929 -0.2681 -0.1829  0.0248
 4503SOL    HW113829   5.366   1.896   0.891 -0.2236 -0.2813  0.0769
 4503SOL    HW213830   5.261   1.777   0.929 -0.4162 -0.1620 -0.0751
 4504SOL     OW13831   5.062   2.882   5.043 -0.2869 -0.3090  0.4760
 4504SOL    HW113832   5.159   2.902   5.053  0.0505 -2.0622  1.1837
 4504SOL    HW213833   5.025   2.932   4.965  1.4708 -0.5238 -0.5530
 4505SOL     OW13834   3.202   2.537   1.433  0.1659  0.4254  0.3355
 4505SOL    HW113835   3.265   2.614   1.443  0.2506  0.4454 -0.3188
 4505SOL    HW213836   3.254   2.453   1.419  0.0682  0.6482 -1.7008
 4506SOL     OW13837   4.742   1.100   1.324 -0.3543 -0.8850  0.0366
 4506SOL    HW113838   4.832   1.059   1.339 -0.6461 -0.6551  3.0353
 4506SOL    HW213839   4.744   1.195   1.352 -0.7813  0.1329 -2.9722
 4507SOL     OW13840   3.779   2.421   0.409  0.2665  0.2121 -0.0010
 4507SOL    HW113841   3.831   2.336   0.403  0.4756  0.4192 -1.8560
 4507SOL    HW213842   3.682   2.400   0.411  0.3409 -0.0958  0.9408
 4508SOL     OW13843   4.010   2.844   2.357  0.3847  0.3751 -0.3122
 4508SOL    HW113844   3.915   2.824   2.332  0.5385 -1.4107  0.4300
 4508SOL    HW213845   4.064   2.857   2.273 -0.4142  1.0330 -0.7438
 4509SOL     OW13846   3.918   2.231   0.973  0.5554  0.9256 -0.1749
 4509SOL    HW113847   3.945   2.135   0.959 -3.6580 -0.5116  0.2377
 4509SOL    HW213848   3.985   2.275   1.034  1.7556 -2.2927  1.0731
 4510SOL     OW13849   3.485   2.863   3.661  0.6702 -0.1206 -0.2877
 4510SOL    HW113850   3.481   2.932   3.734 -1.3024  0.4994 -0.9429
 4510SOL    HW213851   3.438   2.780   3.691  2.6227 -1.0834  0.3118
 4511SOL     OW13852   5.115   1.932   2.182  0.4838  0.3236  0.0091
 4511SOL    HW113853   5.113   1.880   2.268  1.9848 -0.7370 -0.5671
 4511SOL    HW213854   5.152   1.875   2.109  0.2056  1.5576 -1.1325
 4512SOL     OW13855   3.538   2.073   5.139 -0.4109 -0.1537  1.1648
 4512SOL    HW113856   3.547   2.171   5.160  0.6729 -0.0222  0.2067
 4512SOL    HW213857   3.506   2.024   5.220 -0.2416  0.8873  1.8820
 4513SOL     OW13858   5.365   3.613   0.266 -0.0563  0.3814  0.3319
 4513SOL    HW113859   5.416   3.683   0.216 -0.8123 -0.4326 -1.6791
 4513SOL    HW213860   5.429   3.552   0.313  0.8215 -0.1678 -1.5190
 4514SOL     OW13861   4.886   2.858   0.683  0.5031  0.1313  0.4406
 4514SOL    HW113862   4.844   2.949   0.678  1.5478  0.5930 -0.4496
 4514SOL    HW213863   4.848   2.807   0.760 -0.8617  0.9330  0.3176
 4515SOL     OW13864   0.692   4.313   1.123 -0.3587 -0.7029  0.8358
 4515SOL    HW113865   0.768   4.258   1.157  1.3613  0.4327 -0.9135
 4515SOL    HW213866   0.682   4.298   1.025  0.2464  2.0274  0.2531
 4516SOL     OW13867   4.366   2.433   1.924 -0.0598  0.5715 -0.1445
 4516SOL    HW113868   4.335   2.339   1.939 -0.1251  0.7377  0.7896
 4516SOL    HW213869   4.410   2.440   1.835  0.6731 -0.5286  0.1205
 4517SOL     OW13870   5.284   2.118   1.413 -0.5383  0.9405  0.0025
 4517SOL    HW113871   5.271   2.047   1.344 -2.4716  1.9747 -0.7678
 4517SOL    HW213872   5.261   2.080   1.503 -0.8957  0.4155 -0.3047
 4518SOL     OW13873   5.229   4.079   2.018  0.3367  0.4935 -0.2578
 4518SOL    HW113874   5.312   4.054   1.967  1.3859  1.7679  0.7590
 4518SOL    HW213875   5.152   4.086   1.955  0.9327 -0.8966 -1.2021
 4519SOL     OW13876   5.214   2.070   1.684  0.4328 -0.7460 -0.2822
 4519SOL    HW113877   5.156   2.146   1.712  0.4538 -1.3641  1.5369
 4519SOL    HW213878   5.158   1.988   1.668  0.7502 -1.3909  1.6407
 4520SOL     OW13879   4.444   2.465   4.740 -0.0724  0.0059 -0.7941
 4520SOL    HW113880   4.418   2.406   4.816 -0.3218 -0.8385 -1.5285
 4520SOL    HW213881   4.524   2.520   4.767 -1.4208  1.2823  0.8158
 4521SOL     OW13882   0.038   3.221   1.522 -1.0126 -0.2409 -0.1051
 4521SOL    HW113883  -0.023   3.204   1.600  1.2272  1.5259  2.2266
 4521SOL    HW213884   0.002   3.296   1.467 -0.7240  1.2079  1.5970
 4522SOL     OW13885   3.955   2.224   0.479  0.4566  0.1969  0.1301
 4522SOL    HW113886   3.956   2.125   0.493 -1.6030  0.1924  0.5087
 4522SOL    HW213887   3.964   2.270   0.567  0.7487  0.3517  0.0217
 4523SOL     OW13888   0.420   2.741   1.289  0.3468 -0.4554  0.3577
 4523SOL    HW113889   0.456   2.744   1.382  0.6818  0.3040  0.2059
 4523SOL    HW213890   0.320   2.745   1.292  0.3758  0.1524  0.6606
 4524SOL     OW13891   4.210   3.077   0.031  0.0944 -0.2752 -0.4723
 4524SOL    HW113892   4.293   3.058  -0.022  0.8540 -1.2326  0.9803
 4524SOL    HW213893   4.147   2.999   0.023 -0.5987  0.3517 -1.3877
 4525SOL     OW13894   4.701   4.310   1.787 -0.6352 -0.1509 -0.7926
 4525SOL    HW113895   4.661   4.303   1.695 -0.6412 -1.6101 -0.7038
 4525SOL    HW213896   4.682   4.226   1.838  3.2012 -1.3484 -1.0115
 4526SOL     OW13897   5.061   2.930   5.551 -0.2943  0.4519 -0.5836
 4526SOL    HW113898   4.981   2.872   5.563 -1.3902  1.8058 -1.0886
 4526SOL    HW213899   5.130   2.907   5.620 -1.6883  0.1934  0.7628
 4527SOL     OW13900   4.650   2.993   0.384  0.1131 -0.0245  0.3394
 4527SOL    HW113901   4.641   2.894   0.395  0.8323 -0.3011 -1.2990
 4527SOL    HW213902   4.739   3.023   0.420  1.0562 -0.4269 -1.5146
 4528SOL     OW13903   4.700   2.142   1.455 -0.4495 -0.2794  0.8589
 4528SOL    HW113904   4.756   2.114   1.377 -0.6281  3.2821 -0.7521
 4528SOL    HW213905   4.729   2.093   1.537  2.7697 -0.9923 -0.5523
 4529SOL     OW13906   4.289   3.608   3.319  0.0962 -0.3206 -0.1329
 4529SOL    HW113907   4.252   3.674   3.255  1.0335 -1.0625 -1.4896
 4529SOL    HW213908   4.214   3.561   3.366 -0.6274 -0.1726 -1.1193
 4530SOL     OW13909   4.230   2.603   0.252  0.1209 -0.1986  0.0910
 4530SOL    HW113910   4.204   2.601   0.155  0.3298  0.1050  0.0265
 4530SOL    HW213911   4.330   2.595   0.259  0.1722  0.5558  0.2453
 4531SOL     OW13912   4.765   3.746   1.988  0.7240 -0.1561  0.1821
 4531SOL    HW113913   4.846   3.727   2.043  1.3328  0.6953 -0.3918
 4531SOL    HW213914   4.787   3.734   1.891 -0.0422 -0.6293  0.0609
 4532SOL     OW13915   0.356   2.107   0.178 -0.4983  0.0619  0.6106
 4532SOL    HW113916   0.412   2.146   0.105 -0.1169 -1.1695  0.2379
 4532SOL    HW213917   0.415   2.072   0.250 -0.7238 -1.6186  0.0275
 4533SOL     OW13918   3.008   3.675   5.577  0.0539 -0.6356  0.3887
 4533SOL    HW113919   2.931   3.730   5.609 -0.6851 -0.9144 -0.8243
 4533SOL    HW213920   3.077   3.734   5.537 -0.0696 -0.4671  0.4247
 4534SOL     OW13921   4.879   2.012   1.268 -0.5626 -0.5993 -0.0267
 4534SOL    HW113922   4.894   2.088   1.206  3.3522 -1.3265 -0.2305
 4534SOL    HW213923   4.845   1.933   1.217  2.4505 -1.1424 -1.4551
 4535SOL     OW13924   4.381   4.385   1.108  0.7646  0.4521  0.0103
 4535SOL    HW113925   4.449   4.431   1.050  1.9639  0.4518  1.3605
 4535SOL    HW213926   4.425   4.312   1.159 -0.7329 -0.9873 -0.6836
 4536SOL     OW13927   4.345   3.210   1.374  0.5914 -0.1253  0.2468
 4536SOL    HW113928   4.288   3.219   1.455 -0.8702 -0.6347 -0.6888
 4536SOL    HW213929   4.374   3.115   1.363  1.2780  0.0468  0.4663
 4537SOL     OW13930   5.269   2.300   0.738 -0.1356 -0.0592 -0.1577
 4537SOL    HW113931   5.303   2.394   0.738 -0.1777  0.0058  1.8351
 4537SOL    HW213932   5.203   2.288   0.663 -0.1769  1.5093 -0.4080
 4538SOL     OW13933   3.773   2.889   2.212  0.3936 -0.1292 -0.0798
 4538SOL    HW113934   3.801   2.881   2.117 -0.4603  0.4883 -0.3916
 4538SOL    HW213935   3.781   2.984   2.242 -0.4723 -0.0940  0.0881
 4539SOL     OW13936   4.912   3.172   0.193 -0.2530 -0.7083 -0.2291
 4539SOL    HW113937   4.935   3.088   0.145  1.8589  0.0921 -0.7111
 4539SOL    HW213938   4.861   3.150   0.276 -0.9973 -2.3271 -1.0615
 4540SOL     OW13939   3.831   3.776   0.616  0.1491 -0.0437  0.3572
 4540SOL    HW113940   3.930   3.792   0.613  0.2213 -0.3278  0.9947
 4540SOL    HW213941   3.813   3.692   0.667 -0.3678 -0.5777 -0.6930
 4541SOL     OW13942   5.233   1.103   1.359  0.5320 -0.0636 -0.1990
 4541SOL    HW113943   5.146   1.063   1.331  0.6195  0.2680 -0.9689
 4541SOL    HW213944   5.272   1.049   1.434 -0.8121  0.3610  0.8570
 4542SOL     OW13945   0.093   1.084   0.598  0.1917  0.9297  0.0643
 4542SOL    HW113946   0.052   1.175   0.595 -0.0766  0.8920  1.8302
 4542SOL    HW213947   0.021   1.015   0.596  0.2557  0.8200  1.0488
 4543SOL     OW13948   4.712   1.497   0.744 -0.1059  0.3869 -0.1359
 4543SOL    HW113949   4.651   1.573   0.767  0.2529  0.8662 -0.7483
 4543SOL    HW213950   4.804   1.533   0.727 -0.2174 -0.0193 -1.6943
 4544SOL     OW13951   3.417   2.796   5.339 -0.2635 -0.7554  0.1907
 4544SOL    HW113952   3.335   2.834   5.382 -0.3581  0.7838 -1.2425
 4544SOL    HW213953   3.392   2.714   5.287 -1.4597  1.0426 -2.2478
 4545SOL     OW13954   4.080   3.014   0.520  0.0813 -0.2383 -0.1000
 4545SOL    HW113955   4.035   2.948   0.460  1.5951 -1.7227  0.2998
 4545SOL    HW213956   4.057   2.992   0.615 -0.3023  0.5383 -0.0077
 4546SOL     OW13957   4.047   2.898   1.384 -0.3625  0.2197  0.3843
 4546SOL    HW113958   4.122   2.844   1.421  0.7278  1.3652 -0.0749
 4546SOL    HW213959   4.049   2.892   1.284 -1.4471 -0.4479  0.3867
 4547SOL     OW13960   3.635   2.363   2.501 -0.6593  0.0793 -0.3467
 4547SOL    HW113961   3.627   2.279   2.556 -0.1092 -0.7293 -1.4619
 4547SOL    HW213962   3.640   2.442   2.562  0.3172 -0.8133  0.7868
 4548SOL     OW13963   2.814   1.635   1.887  0.7803 -0.2622 -0.0894
 4548SOL    HW113964   2.736   1.645   1.826 -0.0058 -2.7335  0.3959
 4548SOL    HW213965   2.897   1.670   1.842 -0.0463 -0.5437 -1.9013
 4549SOL     OW13966   4.289   2.326   3.746 -0.1039  0.1237  0.0040
 4549SOL    HW113967   4.301   2.305   3.649 -1.2468  1.0924 -0.3797
 4549SOL    HW213968   4.345   2.265   3.801  0.6358 -0.3782 -1.2724
 4550SOL     OW13969   0.446   4.047   1.138  0.3736 -0.1505  0.1747
 4550SOL    HW113970   0.522   4.027   1.076  1.3389 -0.6731  1.4714
 4550SOL    HW213971   0.482   4.070   1.229 -0.9832  0.9721  0.4720
 4551SOL     OW13972   4.896   2.040   2.793  0.2799 -0.1303 -0.0819
 4551SOL    HW113973   4.827   2.097   2.838  1.6848  1.5569  0.0205
 4551SOL    HW213974   4.911   1.958   2.848 -1.0440 -0.1529  0.2982
 4552SOL     OW13975   0.380   2.232   4.235 -0.4319  0.3142 -0.3679
 4552SOL    HW113976   0.332   2.160   4.185  2.0795 -2.0473  0.3966
 4552SOL    HW213977   0.387   2.207   4.332  2.0148  0.6096 -0.3930
 4553SOL     OW13978   4.344   2.237   3.502  0.2827 -0.3610 -0.0941
 4553SOL    HW113979   4.264   2.265   3.450  1.8064  1.6934 -1.4970
 4553SOL    HW213980   4.404   2.181   3.445  0.9012 -0.0113  0.2017
 4554SOL     OW13981   5.068   1.557   3.750  0.2213 -0.0105  0.0659
 4554SOL    HW113982   4.975   1.531   3.777 -0.1410  0.0212 -1.1165
 4554SOL    HW213983   5.109   1.612   3.823 -0.6608 -0.0852  0.6349
 4555SOL     OW13984   4.703   1.526   2.290  0.0698  0.0908 -0.1557
 4555SOL    HW113985   4.645   1.526   2.371  0.0087  2.3500 -0.1365
 4555SOL    HW213986   4.704   1.617   2.250  1.0302 -0.7016 -2.0462
 4556SOL     OW13987   5.020   2.888   4.542  0.3914 -0.0720 -0.2099
 4556SOL    HW113988   5.111   2.847   4.536  0.6846  0.2622  1.4439
 4556SOL    HW213989   5.019   2.974   4.491  0.8572 -0.3149 -0.6381
 4557SOL     OW13990   5.513   2.414   2.443 -0.1089 -0.1928  0.3093
 4557SOL    HW113991   5.449   2.371   2.506  0.1738  0.0106  0.7402
 4557SOL    HW213992   5.590   2.353   2.426 -0.5519 -0.5641 -0.4479
 4558SOL     OW13993   0.602   3.151   2.683  0.4142 -0.1277  0.5824
 4558SOL    HW113994   0.566   3.136   2.775  2.5608 -0.1471  1.4786
 4558SOL    HW213995   0.698   3.125   2.681  0.6297  0.7060 -1.4546
 4559SOL     OW13996   5.042   2.236   3.399 -0.0717  0.1095  0.0388
 4559SOL    HW113997   5.060   2.332   3.376 -1.3365  0.5103  0.6494
 4559SOL    HW213998   5.056   2.222   3.497  1.4610 -0.6739 -0.2641
 4560SOL     OW13999   1.062   2.450   2.570  0.5817 -0.3813 -0.0483
 4560SOL    HW114000   0.973   2.417   2.602  0.5012 -0.6569 -0.5388
 4560SOL    HW214001   1.135   2.399   2.616  0.4683 -0.7900 -0.3208
 4561SOL     OW14002   5.345   3.407   1.698 -0.1973 -0.1218 -0.4353
 4561SOL    HW114003   5.433   3.452   1.708  0.1237 -1.0386  1.3014
 4561SOL    HW214004   5.285   3.434   1.774 -0.5135 -1.3947 -0.2090
 4562SOL     OW14005   5.473   4.382   2.582 -0.7525 -0.9752 -0.0122
 4562SOL    HW114006   5.539   4.416   2.516 -0.4912 -1.0224  0.2255
 4562SOL    HW214007   5.516   4.373   2.672 -1.3807  0.1612  0.4338
 4563SOL     OW14008   4.089   3.772   3.122 -0.0870 -0.0311  0.7162
 4563SOL    HW114009   4.107   3.746   3.027 -0.6070  1.4738  0.1670
 4563SOL    HW214010   3.996   3.745   3.148 -1.1633  2.3276 -0.3255
 4564SOL     OW14011   4.704   2.436   1.140  0.0224 -0.0907 -0.4315
 4564SOL    HW114012   4.793   2.455   1.100 -0.1766  2.0245  0.0213
 4564SOL    HW214013   4.698   2.478   1.231 -1.3630 -0.3486 -0.3755
 4565SOL     OW14014   4.044   2.152   3.719 -0.6205  0.3457 -0.1722
 4565SOL    HW114015   4.116   2.222   3.721 -2.0870  2.0758 -2.3421
 4565SOL    HW214016   4.086   2.062   3.705  1.1504  1.3721 -2.2057
 4566SOL     OW14017   4.304   1.506   0.499  0.1535  0.1754  0.0550
 4566SOL    HW114018   4.253   1.486   0.583  1.0586 -1.8345  0.1722
 4566SOL    HW214019   4.240   1.534   0.427 -0.7191  1.1123  1.1642
 4567SOL     OW14020   4.640   0.928   3.148 -0.4181 -0.6932 -0.1890
 4567SOL    HW114021   4.562   0.868   3.167  0.5553 -1.9317 -0.0071
 4567SOL    HW214022   4.720   0.897   3.199  0.3172  0.3136 -0.6885
 4568SOL     OW14023   3.635   2.195   2.084  0.4165 -0.0113  0.5008
 4568SOL    HW114024   3.669   2.257   2.013 -1.9789 -2.4034 -3.0562
 4568SOL    HW214025   3.563   2.240   2.136 -0.0295  0.8023 -0.7857
 4569SOL     OW14026   0.727   3.661   2.339 -0.2633  0.8138  0.1507
 4569SOL    HW114027   0.734   3.757   2.311  1.4065  0.6538 -0.0943
 4569SOL    HW214028   0.818   3.626   2.361 -1.0648 -0.1783  2.1441
 4570SOL     OW14029   3.432   4.189   2.088 -0.2623 -0.1377  0.0487
 4570SOL    HW114030   3.336   4.180   2.115 -0.7893  1.4972 -1.1078
 4570SOL    HW214031   3.441   4.263   2.021  1.8971  0.1497  0.5678
 4571SOL     OW14032   0.597   3.070   2.932  0.2604  0.0286  0.4373
 4571SOL    HW114033   0.692   3.080   2.964  0.5010 -1.4508  0.2520
 4571SOL    HW214034   0.557   2.988   2.972 -0.3822 -0.2937 -0.8190
 4572SOL     OW14035   5.051   2.755   3.039  0.2096  0.1769 -0.2975
 4572SOL    HW114036   4.978   2.791   2.981  2.4733  1.6759 -2.4011
 4572SOL    HW214037   5.091   2.829   3.092  0.3295 -0.5940  0.7147
 4573SOL     OW14038   3.570   2.135   4.084  0.0880 -0.0248 -0.5749
 4573SOL    HW114039   3.645   2.115   4.147  0.4974  0.6141 -0.8488
 4573SOL    HW214040   3.509   2.056   4.078  0.0297 -0.0781  0.6328
 4574SOL     OW14041   4.478   2.690   2.789 -0.0154 -0.0017 -0.5769
 4574SOL    HW114042   4.556   2.639   2.753  0.8516  0.0944  1.0371
 4574SOL    HW214043   4.478   2.783   2.752  2.1006  0.7804  1.1550
 4575SOL     OW14044   5.495   2.992   3.331 -0.5224 -0.0361  0.2439
 4575SOL    HW114045   5.437   2.948   3.262  0.1054 -1.0665  0.3440
 4575SOL    HW214046   5.502   3.089   3.312 -2.0049  0.0486  0.0372
 4576SOL     OW14047   4.988   1.051   2.481 -0.6635 -0.0919 -0.0173
 4576SOL    HW114048   4.950   1.127   2.428  0.2697 -0.0360 -0.6448
 4576SOL    HW214049   4.989   0.969   2.424  0.6887  0.0549 -0.2389
 4577SOL     OW14050   3.855   2.098   2.379  0.0923 -0.3301  0.0453
 4577SOL    HW114051   3.889   2.155   2.305 -1.0943  1.3380  0.7354
 4577SOL    HW214052   3.786   2.035   2.343 -1.7710  1.6585 -0.0597
 4578SOL     OW14053   4.981   1.579   0.725 -0.1952  0.1950  0.2442
 4578SOL    HW114054   5.021   1.671   0.715  0.5596 -0.1410  0.1072
 4578SOL    HW214055   5.020   1.518   0.656 -0.9995 -0.1363  0.0695
 4579SOL     OW14056   5.296   2.863   3.193 -0.5883 -0.0490  0.4196
 4579SOL    HW114057   5.231   2.911   3.251  1.5289  2.2064  1.0820
 4579SOL    HW214058   5.307   2.769   3.225 -1.7714  0.2298  1.7144
 4580SOL     OW14059   4.427   2.277   3.231  0.0434  0.2768 -0.1585
 4580SOL    HW114060   4.482   2.225   3.166 -0.4503 -0.2791 -0.1328
 4580SOL    HW214061   4.348   2.317   3.185 -0.0632  0.2567  0.0061
 4581SOL     OW14062   5.106   3.454   2.089  0.3796  0.3244  0.3795
 4581SOL    HW114063   5.038   3.514   2.046 -1.0109 -0.7207  1.0420
 4581SOL    HW214064   5.146   3.501   2.168 -1.6138 -0.0034  1.6585
 4582SOL     OW14065   5.023   3.393   1.751 -0.2515 -0.2089 -0.0723
 4582SOL    HW114066   5.060   3.479   1.717  0.3484 -0.5425 -0.2816
 4582SOL    HW214067   4.964   3.410   1.830  0.1653  0.3525  0.1219
 4583SOL     OW14068   4.895   2.499   2.199 -0.1292  0.2610 -0.1687
 4583SOL    HW114069   4.978   2.509   2.254  1.4554 -0.2896 -2.3432
 4583SOL    HW214070   4.866   2.403   2.200 -1.1251  0.5445  1.0392
 4584SOL     OW14071   0.181   2.194   3.897 -0.6442 -0.4422 -0.4153
 4584SOL    HW114072   0.222   2.284   3.907  0.6766 -0.8618 -1.7690
 4584SOL    HW214073   0.125   2.192   3.814 -1.6449 -0.5314  0.2472
 4585SOL     OW14074   0.184   3.384   2.226 -0.1886  0.3553  0.0183
 4585SOL    HW114075   0.272   3.355   2.188  0.1569  0.2064  0.9151
 4585SOL    HW214076   0.117   3.391   2.152 -0.2916 -2.6583 -0.3101
 4586SOL     OW14077   5.223   1.228   1.995  0.0673 -0.6521 -0.3548
 4586SOL    HW114078   5.131   1.266   2.006  1.1447  2.9832 -2.1866
 4586SOL    HW214079   5.243   1.218   1.897  1.9723 -0.2847 -0.0395
 4587SOL     OW14080   0.428   2.937   4.108  0.3223  0.1741 -0.3591
 4587SOL    HW114081   0.505   2.890   4.065 -0.3150  0.5805 -2.0259
 4587SOL    HW214082   0.357   2.871   4.130 -0.7084  0.2959 -2.9947
 4588SOL     OW14083   5.253   2.152   2.299  0.7890  0.2876  0.2894
 4588SOL    HW114084   5.214   2.086   2.235  1.4156  1.2404 -1.1062
 4588SOL    HW214085   5.181   2.185   2.360 -0.0103  0.0042 -0.4756
 4589SOL     OW14086   5.110   2.959   3.624 -0.1364  0.3459 -0.2425
 4589SOL    HW114087   5.017   2.975   3.656 -0.8973 -1.6060 -1.3016
 4589SOL    HW214088   5.129   3.018   3.546 -1.0642 -0.3514 -1.0076
 4590SOL     OW14089   4.531   1.876   2.010 -0.0646 -0.5450  0.0451
 4590SOL    HW114090   4.458   1.850   1.948 -0.3688  0.2238  0.0792
 4590SOL    HW214091   4.556   1.971   1.995  0.0555 -0.4311  0.8983
 4591SOL     OW14092   4.193   2.668   2.436  0.3154  0.0391  0.2101
 4591SOL    HW114093   4.191   2.617   2.522 -0.7932 -0.5145 -0.1159
 4591SOL    HW214094   4.108   2.719   2.425  0.4932  0.2007 -0.4960
 4592SOL     OW14095   3.935   4.511   3.948 -0.0702 -0.5382  0.3221
 4592SOL    HW114096   3.904   4.462   4.030  0.6831  0.0581  0.9781
 4592SOL    HW214097   3.859   4.518   3.883 -0.5998 -1.2788  0.8365
 4593SOL     OW14098   5.430   2.303   2.160  0.1657  0.4291 -0.0746
 4593SOL    HW114099   5.362   2.245   2.205 -0.2956  1.1336  0.1533
 4593SOL    HW214100   5.520   2.289   2.202 -0.4113  1.7505  1.7353
 4594SOL     OW14101   0.460   1.023   4.468  0.1965 -0.2901  0.5571
 4594SOL    HW114102   0.393   1.090   4.502  1.2985  0.9561  0.3715
 4594SOL    HW214103   0.416   0.963   4.401 -0.7115  0.6203  0.3021
 4595SOL     OW14104   5.223   3.130   2.470 -0.0270  0.0834  0.0539
 4595SOL    HW114105   5.200   3.150   2.375  1.4355  0.5833 -0.2119
 4595SOL    HW214106   5.182   3.042   2.496  0.4604 -0.5937 -1.3756
 4596SOL     OW14107   4.615   3.174   2.239  0.0213 -0.1673 -0.2130
 4596SOL    HW114108   4.536   3.201   2.295 -0.5028 -0.3282 -0.8542
 4596SOL    HW214109   4.582   3.135   2.153  0.8087 -0.4190 -0.4032
 4597SOL     OW14110   3.809   3.145   2.307  0.6097 -0.0157 -0.3885
 4597SOL    HW114111   3.762   3.169   2.392  2.2901  0.4259  0.4519
 4597SOL    HW214112   3.866   3.222   2.277  0.4120 -0.3429 -1.6643
 4598SOL     OW14113   3.904   3.280   3.684 -0.0939  0.4660 -0.4000
 4598SOL    HW114114   3.837   3.342   3.644  0.5512 -0.5580 -3.3858
 4598SOL    HW214115   3.885   3.268   3.781 -3.1842  1.4919 -0.7569
 4599SOL     OW14116   1.498   2.902   2.595  0.1032  0.1748 -0.1211
 4599SOL    HW114117   1.538   2.900   2.503 -0.3646 -0.2578 -0.3182
 4599SOL    HW214118   1.572   2.901   2.663  0.4533 -0.9423 -0.4798
 4600SOL     OW14119   0.233   3.542   2.727 -0.1444 -0.6944  0.2339
 4600SOL    HW114120   0.157   3.482   2.751  0.2677 -1.5958 -0.6165
 4600SOL    HW214121   0.282   3.504   2.648 -0.5941  1.3645 -1.1307
 4601SOL     OW14122   4.558   2.379   2.098 -0.0924  0.2096 -0.3818
 4601SOL    HW114123   4.482   2.402   2.038 -0.9736  1.1771  1.0416
 4601SOL    HW214124   4.604   2.463   2.128  0.4523 -0.2653  0.1466
 4602SOL     OW14125   1.275   2.929   2.961  0.4586  0.6651 -0.1598
 4602SOL    HW114126   1.199   2.870   2.988  0.8703  0.2433  0.0778
 4602SOL    HW214127   1.260   2.962   2.867 -1.0943  2.3076  0.5869
 4603SOL     OW14128   4.561   1.223   4.059  0.3156 -0.7000 -0.4102
 4603SOL    HW114129   4.477   1.213   4.113  1.2561 -0.8321  1.0987
 4603SOL    HW214130   4.599   1.132   4.040  0.5743 -0.6082 -0.3343
 4604SOL     OW14131   0.167   4.114   1.327  0.1299  0.4490  0.0904
 4604SOL    HW114132   0.080   4.147   1.365 -0.4777 -1.0898  0.0995
 4604SOL    HW214133   0.157   4.097   1.229 -0.1199 -1.3510  0.3967
 4605SOL     OW14134   5.151   2.505   3.041  0.2422 -0.1506 -0.0582
 4605SOL    HW114135   5.121   2.445   3.115 -0.3339 -1.0410 -0.9860
 4605SOL    HW214136   5.121   2.598   3.058  0.5888 -0.2414  1.0875
 4606SOL     OW14137   0.363   2.624   0.940  0.3607  0.3137 -0.1808
 4606SOL    HW114138   0.327   2.600   1.030  0.9836 -0.4557 -0.1228
 4606SOL    HW214139   0.287   2.649   0.879 -0.0124  1.4321  0.7141
 4607SOL     OW14140   4.116   2.449   1.475  0.1467 -0.3537  0.1818
 4607SOL    HW114141   4.206   2.479   1.444  0.5753 -1.5004  0.2826
 4607SOL    HW214142   4.049   2.461   1.402  0.4896  0.0071 -0.0743
 4608SOL     OW14143   5.602   2.722   2.117  0.1423  0.1834  0.3011
 4608SOL    HW114144   5.597   2.812   2.160  0.5264  1.1340 -1.5165
 4608SOL    HW214145   5.522   2.709   2.058 -0.2436 -0.9573  1.0472
 4609SOL     OW14146   4.684   4.211   2.801  0.2636 -0.1537 -0.5114
 4609SOL    HW114147   4.710   4.229   2.706  0.7451 -0.1802 -0.3872
 4609SOL    HW214148   4.749   4.256   2.862 -0.6602  0.7485 -0.1855
 4610SOL     OW14149   4.564   3.413   2.598  0.6354 -0.8918  0.2056
 4610SOL    HW114150   4.491   3.459   2.649  1.2473 -1.1784  1.3931
 4610SOL    HW214151   4.526   3.371   2.516 -0.2394  0.2762 -0.0165
 4611SOL     OW14152   4.923   3.148   1.988 -1.1169 -0.5435  0.1103
 4611SOL    HW114153   5.023   3.151   1.995 -1.1721 -0.2313  0.8913
 4611SOL    HW214154   4.890   3.233   1.947 -1.0313 -0.8655 -0.6364
 4612SOL     OW14155   4.378   1.152   2.862  0.3591  0.0597  0.1976
 4612SOL    HW114156   4.288   1.116   2.888  0.9645 -0.3283  1.8931
 4612SOL    HW214157   4.372   1.251   2.850 -0.2714  0.0581  0.4351
 4613SOL     OW14158   3.781   1.966   2.072 -0.5810 -0.1305 -0.4947
 4613SOL    HW114159   3.731   2.052   2.074 -0.5416 -0.0798 -1.2649
 4613SOL    HW214160   3.821   1.953   1.981  1.1876  0.0318  0.2221
 4614SOL     OW14161   0.136   1.483   3.187 -0.1275  0.5627  0.1429
 4614SOL    HW114162   0.073   1.558   3.169 -2.1976 -0.8063  1.2909
 4614SOL    HW214163   0.203   1.512   3.257 -1.1373  1.2262  0.8608
 4615SOL     OW14164   3.978   3.534   2.409  0.0100 -0.2521 -0.2373
 4615SOL    HW114165   3.915   3.611   2.424  1.4690  1.3585 -1.9061
 4615SOL    HW214166   4.012   3.501   2.497 -3.1765 -1.2733  0.7392
 4616SOL     OW14167   4.853   1.881   1.831  0.7872  0.3554 -0.1737
 4616SOL    HW114168   4.882   1.923   1.917 -0.2665 -2.4228  1.6750
 4616SOL    HW214169   4.838   1.783   1.845 -1.9110  0.2433 -2.9009
 4617SOL     OW14170   5.053   4.228   2.483 -0.0342  0.0792  0.3016
 4617SOL    HW114171   5.020   4.161   2.549  0.5770  0.0584  0.5868
 4617SOL    HW214172   4.978   4.251   2.420 -0.4278 -0.3999  0.5800
 4618SOL     OW14173   5.562   1.738   1.480 -0.4753 -0.0877  0.7774
 4618SOL    HW114174   5.464   1.720   1.471 -0.2774 -2.1181  2.0482
 4618SOL    HW214175   5.607   1.723   1.393 -1.5212  3.1257 -0.4663
 4619SOL     OW14176   3.164   2.275   1.679 -0.2928  0.2190  0.2190
 4619SOL    HW114177   3.080   2.290   1.627  0.4493 -0.8945 -1.3858
 4619SOL    HW214178   3.188   2.178   1.678  1.3034  0.5818  0.1502
 4620SOL     OW14179   4.919   3.156   2.613 -0.0820 -0.5530  0.6026
 4620SOL    HW114180   4.951   3.170   2.706  0.0535 -0.6505  0.5704
 4620SOL    HW214181   4.906   3.245   2.568 -2.9423 -0.3423  1.6515
 4621SOL     OW14182   2.997   2.110   1.269  0.1216  0.4927  0.0806
 4621SOL    HW114183   2.999   2.049   1.348  2.8662  0.7147  0.2750
 4621SOL    HW214184   2.965   2.200   1.298 -1.4590 -0.1062  0.3234
 4622SOL     OW14185   4.643   0.923   0.454  0.4521 -0.2155 -0.4874
 4622SOL    HW114186   4.551   0.954   0.430  0.2984  0.4076  0.7831
 4622SOL    HW214187   4.708   0.955   0.385 -0.2525 -0.5106 -1.3010
 4623SOL     OW14188   4.512   3.609   2.257 -0.1298  0.1617  0.2802
 4623SOL    HW114189   4.421   3.575   2.282 -0.5062  2.0323  1.6138
 4623SOL    HW214190   4.510   3.646   2.165 -0.9471  0.9306  0.5980
 4624SOL     OW14191   0.053   2.641   1.515 -0.0105  0.6303 -0.1950
 4624SOL    HW114192   0.100   2.555   1.493  0.4505  0.5568  1.0015
 4624SOL    HW214193  -0.040   2.622   1.545 -0.7362  0.7504 -2.2371
 4625SOL     OW14194   4.472   1.531   1.971 -0.3258  0.3101 -0.5449
 4625SOL    HW114195   4.485   1.608   2.033 -1.1873  1.9507 -2.2927
 4625SOL    HW214196   4.553   1.519   1.914  1.2643 -2.4155  2.0087
 4626SOL     OW14197   4.644   3.433   1.713  0.1167 -0.0139  0.2985
 4626SOL    HW114198   4.587   3.513   1.695 -1.3840 -1.0898  0.1677
 4626SOL    HW214199   4.665   3.387   1.627  1.5643  0.5749  0.2924
 4627SOL     OW14200   4.150   1.818   0.753  0.0141  0.1342  0.5205
 4627SOL    HW114201   4.159   1.718   0.750  0.8489  0.1578 -2.9021
 4627SOL    HW214202   4.241   1.859   0.743 -0.6017  1.0636 -2.2174
 4628SOL     OW14203   4.154   1.930   2.679 -0.8405  0.0234  0.5033
 4628SOL    HW114204   4.134   1.919   2.582 -0.8931  0.4509  0.4610
 4628SOL    HW214205   4.146   2.027   2.704 -3.3379 -0.3368  1.4783
 4629SOL     OW14206   3.260   2.099   2.198  0.4557  0.2280 -0.0415
 4629SOL    HW114207   3.284   2.003   2.214 -0.8797 -0.1968 -0.4537
 4629SOL    HW214208   3.335   2.158   2.228  1.3520 -0.9507  0.0753
 4630SOL     OW14209   5.167   1.538   1.924 -0.0766  0.3972  0.1005
 4630SOL    HW114210   5.115   1.478   1.984 -1.9284  0.9518 -0.8801
 4630SOL    HW214211   5.254   1.495   1.900 -0.5961 -1.0926  0.8232
 4631SOL     OW14212   0.338   1.585   3.364 -0.5425 -0.4347  0.5350
 4631SOL    HW114213   0.327   1.619   3.457 -1.2429 -2.6610  1.3165
 4631SOL    HW214214   0.401   1.508   3.363  0.0497  0.0182 -0.9922
 4632SOL     OW14215   3.733   3.851   2.430 -0.0823 -0.4442 -0.0829
 4632SOL    HW114216   3.814   3.854   2.489  0.0999  0.7660 -0.3512
 4632SOL    HW214217   3.651   3.868   2.484 -0.1242 -1.2768  0.1251
 4633SOL     OW14218   0.602   2.269   3.226 -0.1265 -0.0568  0.3969
 4633SOL    HW114219   0.553   2.344   3.269 -0.3584  0.9901 -1.5599
 4633SOL    HW214220   0.572   2.259   3.131  1.4458 -1.2216 -0.0361
 4634SOL     OW14221   5.566   2.081   2.696 -0.3838 -0.5660  0.1860
 4634SOL    HW114222   5.578   2.027   2.779  0.9916  0.8187  0.9307
 4634SOL    HW214223   5.550   2.176   2.721  1.3495  0.1108 -1.1296
 4635SOL     OW14224   4.442   3.837   2.658  0.3252  0.0458 -0.3840
 4635SOL    HW114225   4.444   3.856   2.560 -0.1599  0.0024 -0.4057
 4635SOL    HW214226   4.422   3.741   2.674  0.6245  0.0053 -0.2434
 4636SOL     OW14227   0.318   2.228   4.494  0.0753  0.1576  0.2611
 4636SOL    HW114228   0.301   2.130   4.500  0.0741  0.1533  0.1819
 4636SOL    HW214229   0.281   2.273   4.575  1.9457 -0.1791  1.3723
 4637SOL     OW14230   0.012   2.116   0.376 -0.4312 -0.4060  0.0474
 4637SOL    HW114231   0.053   2.061   0.303  0.3721 -0.4127  0.4817
 4637SOL    HW214232   0.085   2.164   0.425 -1.0246  0.1272  0.4145
 4638SOL     OW14233   4.725   2.061   1.699  0.5164 -0.0599 -0.0372
 4638SOL    HW114234   4.768   1.988   1.753 -0.6918 -0.2190  0.7394
 4638SOL    HW214235   4.737   2.148   1.746  2.9768  0.4958 -1.5277
 4639SOL     OW14236   0.541   3.863   3.819 -0.1186 -0.0663  0.3052
 4639SOL    HW114237   0.528   3.903   3.728  1.9957  0.4448  0.1838
 4639SOL    HW214238   0.488   3.914   3.886 -0.3636  0.6065 -0.3905
 4640SOL     OW14239   3.882   2.433   2.462 -0.2022  0.1014  0.1542
 4640SOL    HW114240   3.793   2.391   2.482  0.2592 -0.3849  1.2615
 4640SOL    HW214241   3.867   2.525   2.426 -1.2038 -0.7592 -1.7536
 4641SOL     OW14242   4.546   3.339   5.127  0.5537 -0.2347 -0.0799
 4641SOL    HW114243   4.472   3.356   5.062  1.2778  0.7153 -0.6832
 4641SOL    HW214244   4.540   3.404   5.202  2.0560  1.3586 -1.2775
 4642SOL     OW14245   3.783   4.215   2.036  0.4201 -0.3900 -0.0167
 4642SOL    HW114246   3.831   4.292   1.993 -0.6159 -0.0000 -0.5085
 4642SOL    HW214247   3.706   4.250   2.090 -0.9246 -1.1411 -1.3737
 4643SOL     OW14248   5.294   3.728   4.003  0.4346 -0.3222 -0.2660
 4643SOL    HW114249   5.214   3.696   4.054  0.0311  0.9362 -0.0763
 4643SOL    HW214250   5.299   3.680   3.915 -0.3603 -0.6270 -0.1497
 4644SOL     OW14251   5.348   2.193   3.677 -0.0440  0.4856 -0.2184
 4644SOL    HW114252   5.303   2.104   3.665 -0.2484  0.1156  2.5392
 4644SOL    HW214253   5.344   2.245   3.591 -3.4087 -0.5937 -0.8573
 4645SOL     OW14254   5.122   2.243   4.058  0.4623 -0.8032 -0.1203
 4645SOL    HW114255   5.033   2.270   4.020  0.7628 -0.3537 -0.5172
 4645SOL    HW214256   5.122   2.145   4.076 -0.0577 -0.8374 -0.2852
 4646SOL     OW14257   0.204   2.557   2.278  0.4083 -0.2901  0.0309
 4646SOL    HW114258   0.113   2.566   2.319  0.3961  0.1609 -0.0919
 4646SOL    HW214259   0.214   2.625   2.205  0.6741 -0.6449 -0.2643
 4647SOL     OW14260   3.721   2.768   2.719  0.2876  0.3865 -0.0657
 4647SOL    HW114261   3.746   2.679   2.757  0.5576  0.7264  0.5602
 4647SOL    HW214262   3.668   2.819   2.786  0.2553  0.7563 -0.3706
 4648SOL     OW14263   4.791   3.561   3.430 -0.4199  0.7604  0.1161
 4648SOL    HW114264   4.696   3.548   3.403 -0.2704 -4.1084  1.0009
 4648SOL    HW214265   4.795   3.591   3.525 -0.9784  2.2541 -0.3003
 4649SOL     OW14266   3.556   2.931   2.908 -0.5205  0.2016 -0.2999
 4649SOL    HW114267   3.605   3.007   2.867 -1.6025 -0.4651 -3.0358
 4649SOL    HW214268   3.500   2.964   2.984 -0.3777  1.9988 -0.9392
 4650SOL     OW14269   4.360   1.387   2.391 -0.2667  0.9932  0.3084
 4650SOL    HW114270   4.400   1.298   2.414  2.1567  1.8467 -0.2369
 4650SOL    HW214271   4.365   1.400   2.291 -2.6706  0.8653  0.1224
 4651SOL     OW14272   4.902   2.260   2.342  0.0453 -0.6371  0.1679
 4651SOL    HW114273   4.906   2.179   2.400 -1.1661  1.0195  2.7154
 4651SOL    HW214274   4.975   2.324   2.368 -0.4129  0.0677 -0.2309
 4652SOL     OW14275   5.520   2.983   2.210 -0.5936  0.7097 -0.0906
 4652SOL    HW114276   5.493   3.078   2.224 -0.5818  1.1637 -2.5697
 4652SOL    HW214277   5.524   2.936   2.298 -1.3275  2.7836  1.1353
 4653SOL     OW14278   4.585   3.836   3.142  0.6159 -0.0386  0.1245
 4653SOL    HW114279   4.589   3.874   3.050 -0.1661  0.0542  0.1199
 4653SOL    HW214280   4.508   3.876   3.192  3.1221  2.6633  2.1081
 4654SOL     OW14281   0.862   3.102   2.726 -0.3466 -0.6268 -0.3037
 4654SOL    HW114282   0.900   3.101   2.819 -1.4621 -0.7468  0.1623
 4654SOL    HW214283   0.902   3.028   2.673  0.1996 -0.6438  0.1222
 4655SOL     OW14284   4.718   3.552   2.794  0.0973 -0.2438  0.3780
 4655SOL    HW114285   4.657   3.516   2.723 -2.9722  0.6356  2.3550
 4655SOL    HW214286   4.724   3.652   2.785 -0.5876 -0.0859  1.4870
 4656SOL     OW14287   4.676   1.899   3.682  0.2545  0.3582 -0.4274
 4656SOL    HW114288   4.703   1.986   3.641 -1.0952  0.8276 -0.3860
 4656SOL    HW214289   4.579   1.903   3.707  0.5137 -0.6653  0.8600
 4657SOL     OW14290   5.258   1.755   2.049 -0.2518  0.2577  0.1697
 4657SOL    HW114291   5.325   1.789   1.984  0.2333 -0.3073  0.3615
 4657SOL    HW214292   5.221   1.668   2.016  0.7485 -0.5616  1.1097
 4658SOL     OW14293   5.209   1.995   4.228  0.2337  0.3256  0.4503
 4658SOL    HW114294   5.137   1.963   4.289 -0.2164  1.8653  0.7708
 4658SOL    HW214295   5.234   1.922   4.165 -1.2550 -0.3960  0.6472
 4659SOL     OW14296   3.458   2.142   3.686 -0.1351  0.3125  0.2289
 4659SOL    HW114297   3.478   2.055   3.732  0.6239  0.4665  0.2028
 4659SOL    HW214298   3.522   2.156   3.611  1.9476  2.4201  2.2338
 4660SOL     OW14299   4.196   2.626   2.762  0.1877 -0.3209 -0.1902
 4660SOL    HW114300   4.147   2.710   2.787  0.4483 -0.1651 -0.1964
 4660SOL    HW214301   4.294   2.642   2.770  0.2659 -0.3494 -1.0689
 4661SOL     OW14302   4.809   3.040   2.382  0.4368 -0.7334 -0.7588
 4661SOL    HW114303   4.810   3.063   2.479  1.6107  1.8121 -1.2949
 4661SOL    HW214304   4.740   3.097   2.335  1.1764 -0.5694 -1.6789
 4662SOL     OW14305   0.332   2.660   2.925 -0.2040  0.0739  0.3776
 4662SOL    HW114306   0.389   2.634   2.847  1.0426  0.4167  1.1501
 4662SOL    HW214307   0.315   2.579   2.982 -2.8943 -0.6599 -1.2971
 4663SOL     OW14308   3.758   2.115   2.635 -0.2294 -0.6352  0.1224
 4663SOL    HW114309   3.754   2.018   2.658  0.1324 -0.5641  0.5040
 4663SOL    HW214310   3.788   2.127   2.541  0.5982 -0.8726  0.3498
 4664SOL     OW14311   3.661   3.198   2.862  0.3829  0.0773 -0.5091
 4664SOL    HW114312   3.567   3.203   2.897  0.2791  0.3526 -0.8137
 4664SOL    HW214313   3.725   3.193   2.939  0.0112 -3.0659 -0.2708
 4665SOL     OW14314   3.822   2.357   1.937 -0.2647  0.0152 -0.2465
 4665SOL    HW114315   3.858   2.325   2.025 -0.6688 -2.6260 -0.9746
 4665SOL    HW214316   3.891   2.413   1.892  0.6691 -0.1426  0.9225
 4666SOL     OW14317   4.827   3.431   1.929  0.2523  0.1110 -0.2001
 4666SOL    HW114318   4.813   3.448   2.027  1.5063  3.2910 -0.4373
 4666SOL    HW214319   4.740   3.409   1.886 -0.2839 -1.6011  1.6183
 4667SOL     OW14320   4.130   2.168   2.800  0.8856 -0.0340  0.0248
 4667SOL    HW114321   4.214   2.156   2.854  0.3499 -1.8924  0.4961
 4667SOL    HW214322   4.131   2.259   2.759  2.2066  0.7479  1.6287
 4668SOL     OW14323   0.124   2.915   2.673  0.6232 -0.0595 -0.4168
 4668SOL    HW114324   0.196   2.891   2.608  0.0947  0.3726 -1.1753
 4668SOL    HW214325   0.130   3.012   2.696 -0.0610  0.1169 -0.9376
 4669SOL     OW14326   5.240   2.167   3.201  0.2630  0.2953  0.1409
 4669SOL    HW114327   5.299   2.107   3.255  1.0302  1.3489  0.5040
 4669SOL    HW214328   5.182   2.221   3.263 -2.7473 -2.2586 -0.2211
 4670SOL     OW14329   4.429   4.278   2.722 -0.1698  0.3486 -0.4180
 4670SOL    HW114330   4.525   4.266   2.745 -0.0412  0.3763 -0.9215
 4670SOL    HW214331   4.415   4.368   2.681  0.3007 -0.9560 -3.7380
 4671SOL     OW14332   0.614   4.191   4.116  0.0049 -0.3678 -0.0690
 4671SOL    HW114333   0.554   4.126   4.070 -0.4677  0.0216 -0.0059
 4671SOL    HW214334   0.651   4.256   4.050  0.7433 -0.8834 -0.1916
 4672SOL     OW14335   0.321   2.500   4.189  0.2891  0.1017 -0.5086
 4672SOL    HW114336   0.362   2.410   4.207  0.6786  0.4250  0.2476
 4672SOL    HW214337   0.222   2.494   4.203  0.4605  0.0884  0.7981
 4673SOL     OW14338   1.127   3.436   1.903 -0.1623  0.1187 -0.1756
 4673SOL    HW114339   1.037   3.434   1.948 -1.4030 -0.5163 -2.5413
 4673SOL    HW214340   1.128   3.508   1.834  0.9177 -0.3536 -0.6752
 4674SOL     OW14341   0.398   2.193   2.569  0.1758  0.1124  0.0046
 4674SOL    HW114342   0.461   2.248   2.516  1.1109  2.1188  2.9759
 4674SOL    HW214343   0.374   2.240   2.654 -2.3007 -2.2893  0.8203
 4675SOL     OW14344   0.359   1.839   3.190 -0.4565 -0.5519  0.3111
 4675SOL    HW114345   0.406   1.769   3.243  4.5791  2.0255 -0.1436
 4675SOL    HW214346   0.388   1.930   3.221 -1.1970  1.1940 -3.4361
 4676SOL     OW14347   4.463   1.313   1.493 -0.5328  0.3000 -0.7220
 4676SOL    HW114348   4.519   1.276   1.567 -2.1520  0.1785  0.4945
 4676SOL    HW214349   4.401   1.383   1.530 -2.7221 -1.1058 -1.5265
 4677SOL     OW14350   3.697   1.480   3.015  0.0863  0.2290 -0.2726
 4677SOL    HW114351   3.617   1.486   2.955 -0.4382 -2.1781  0.0937
 4677SOL    HW214352   3.668   1.459   3.108  1.1024 -0.0189  0.0023
 4678SOL     OW14353   5.126   2.187   4.504 -0.9308 -0.0786  0.0379
 4678SOL    HW114354   5.052   2.254   4.509 -0.2495  0.6921 -0.0246
 4678SOL    HW214355   5.091   2.102   4.466 -1.3482  0.9123 -1.8965
 4679SOL     OW14356   4.955   1.826   2.957  0.4229  0.1858 -0.1797
 4679SOL    HW114357   4.902   1.824   3.042  1.2288 -0.9385  0.3292
 4679SOL    HW214358   5.045   1.864   2.975  1.0553 -1.2394 -0.2273
 4680SOL     OW14359   4.650   2.610   2.198 -0.4559  0.6541  0.1926
 4680SOL    HW114360   4.733   2.559   2.221  0.0282  1.9090  1.3903
 4680SOL    HW214361   4.675   2.705   2.176 -1.4317  0.6601 -0.9526
 4681SOL     OW14362   3.496   3.960   2.549 -0.0912  0.4481  0.1769
 4681SOL    HW114363   3.473   3.985   2.455  1.1760  2.2884  0.2890
 4681SOL    HW214364   3.417   3.973   2.608 -1.1317 -1.4731 -0.7093
 4682SOL     OW14365   4.183   3.068   2.672 -0.2232 -0.3458 -0.4416
 4682SOL    HW114366   4.087   3.050   2.691 -0.2898 -0.5296 -0.9414
 4682SOL    HW214367   4.192   3.103   2.579  0.3835 -2.0262 -1.0490
 4683SOL     OW14368   4.823   2.740   3.218  0.2024  0.3705  0.1308
 4683SOL    HW114369   4.911   2.761   3.175  0.3058  0.2047  0.2558
 4683SOL    HW214370   4.774   2.674   3.163  0.4270 -0.0012  0.3699
 4684SOL     OW14371   3.353   2.175   2.490  0.2368  0.1770 -0.1071
 4684SOL    HW114372   3.379   2.205   2.582 -0.7190 -0.7075  0.4770
 4684SOL    HW214373   3.282   2.106   2.497  0.5275 -0.2903 -1.5118
 4685SOL     OW14374   4.507   1.982   3.360 -0.1639 -0.3166 -0.1306
 4685SOL    HW114375   4.550   1.894   3.381  0.5177 -0.0110 -0.2230
 4685SOL    HW214376   4.543   2.018   3.274 -0.9191 -0.2498 -0.4292
 4686SOL     OW14377   1.013   2.820   3.039  0.2977  0.2754 -0.0195
 4686SOL    HW114378   1.018   2.777   3.129 -1.1423  0.7692  0.3385
 4686SOL    HW214379   0.928   2.793   2.994 -0.3660  2.2002 -0.0334
 4687SOL     OW14380   4.452   2.229   1.624  0.2909  0.0405  0.2765
 4687SOL    HW114381   4.532   2.189   1.668  1.2552  1.2504 -0.3054
 4687SOL    HW214382   4.463   2.222   1.525 -0.5109 -0.1359  0.2011
 4688SOL     OW14383   5.059   2.936   2.557 -0.6581 -0.5396 -0.1363
 4688SOL    HW114384   5.004   3.018   2.573 -0.9949 -0.7948  0.0208
 4688SOL    HW214385   5.015   2.878   2.488  0.8572  0.6213 -2.1967
 4689SOL     OW14386   4.540   3.530   3.336  0.0266  0.4235  0.5468
 4689SOL    HW114387   4.450   3.570   3.351 -0.4438 -0.2153 -0.4845
 4689SOL    HW214388   4.539   3.474   3.253  1.3958  0.4581  0.4790
 4690SOL     OW14389   5.079   1.197   2.679 -0.6872  0.2265 -0.0799
 4690SOL    HW114390   5.164   1.240   2.651 -1.6393  1.8309 -0.6641
 4690SOL    HW214391   5.047   1.135   2.607 -0.7789  0.7852 -0.5202
 4691SOL     OW14392   4.384   2.820   3.933 -0.4639  0.5688 -0.0651
 4691SOL    HW114393   4.334   2.734   3.934  1.5695 -0.7251  1.5494
 4691SOL    HW214394   4.326   2.893   3.900 -2.1712 -1.4714 -1.8320
 4692SOL     OW14395   3.930   2.361   0.707  0.1136 -0.8700  0.3826
 4692SOL    HW114396   3.875   2.441   0.682  0.8354 -0.3802  0.3116
 4692SOL    HW214397   3.921   2.343   0.805 -0.1351 -0.7684  0.3795
 4693SOL     OW14398   3.715   2.683   3.299  0.4187 -0.4226 -0.2076
 4693SOL    HW114399   3.705   2.691   3.398 -0.9674  0.1745 -0.3761
 4693SOL    HW214400   3.789   2.742   3.268 -1.3282  2.0619  0.1029
 4694SOL     OW14401   5.334   1.665   3.565  0.7218  0.1072 -0.2427
 4694SOL    HW114402   5.287   1.700   3.484  1.6949 -0.7142 -1.1875
 4694SOL    HW214403   5.276   1.598   3.611  0.2829  0.3575 -0.4294
 4695SOL     OW14404   5.567   2.308   2.823 -0.3096 -0.4018  0.3598
 4695SOL    HW114405   5.502   2.354   2.883  0.9221 -0.5928  1.9103
 4695SOL    HW214406   5.622   2.376   2.774  0.5464 -0.2108  1.5665
 4696SOL     OW14407   5.416   3.500   2.595 -0.4418  0.0181 -0.3142
 4696SOL    HW114408   5.323   3.473   2.568 -0.1844 -0.9469 -0.2619
 4696SOL    HW214409   5.476   3.497   2.515 -0.2534 -0.2725 -0.1635
 4697SOL     OW14410   0.140   3.304   3.533 -0.1024 -0.1355  0.2874
 4697SOL    HW114411   0.121   3.399   3.511 -0.6153  0.2801  2.3120
 4697SOL    HW214412   0.231   3.280   3.500 -0.6042  0.5322 -1.6953
 4698SOL     OW14413   3.627   2.494   3.132  0.1603  0.1703 -0.5827
 4698SOL    HW114414   3.645   2.563   3.202  0.4498  0.1048 -0.5893
 4698SOL    HW214415   3.567   2.531   3.062 -0.1879  0.2154 -0.2632
 4699SOL     OW14416   4.412   4.504   2.518  0.7919 -0.0834  0.4599
 4699SOL    HW114417   4.424   4.591   2.567 -0.1883  1.3276 -1.6850
 4699SOL    HW214418   4.486   4.442   2.544  2.5795  2.0266  0.7275
 4700SOL     OW14419   0.421   2.099   2.136  0.2049  0.4419  0.3800
 4700SOL    HW114420   0.426   2.186   2.185 -0.8726 -1.0598  3.4354
 4700SOL    HW214421   0.514   2.066   2.118  0.7234  0.7139  2.2475
 4701SOL     OW14422   5.177   2.808   2.761 -0.1843  0.0853  0.0140
 4701SOL    HW114423   5.169   2.848   2.853  1.1351  0.7847 -0.1531
 4701SOL    HW214424   5.139   2.871   2.694 -2.5854 -1.0799  0.1704
 4702SOL     OW14425   3.155   5.539   4.474 -0.2916 -0.1828  0.3139
 4702SOL    HW114426   3.107   5.596   4.541 -1.8220 -0.6701 -0.3267
 4702SOL    HW214427   3.147   5.443   4.500 -1.3686 -0.4285 -0.8008
 4703SOL     OW14428   5.040   2.944   3.255 -0.2292  0.1105  0.2132
 4703SOL    HW114429   4.988   2.920   3.337 -0.4541  0.8365  0.2845
 4703SOL    HW214430   4.999   3.023   3.211  0.0660 -0.0927 -0.4448
 4704SOL     OW14431   5.339   3.726   1.887  0.3609  0.0029  0.7664
 4704SOL    HW114432   5.382   3.696   1.972  2.9955  2.2338  0.3285
 4704SOL    HW214433   5.355   3.823   1.874  0.5638 -0.3699 -2.5879
 4705SOL     OW14434   4.491   4.416   3.451  0.3815 -0.1917 -0.0289
 4705SOL    HW114435   4.490   4.328   3.499  1.7562  0.1471  0.6668
 4705SOL    HW214436   4.578   4.427   3.404 -0.0564  0.5009 -0.6931
 4706SOL     OW14437   3.910   0.484   1.722  0.2281  0.1092 -0.4996
 4706SOL    HW114438   3.922   0.452   1.627  1.8909  1.9817 -0.9906
 4706SOL    HW214439   3.859   0.570   1.722  0.4480  0.2465  0.2700
 4707SOL     OW14440   5.084   2.471   1.110  0.5762  0.3046  0.1830
 4707SOL    HW114441   5.175   2.503   1.134  1.2691  0.6241 -2.4828
 4707SOL    HW214442   5.055   2.515   1.025 -1.8038 -0.2921  0.6133
 4708SOL     OW14443   3.263   2.588   2.412  0.2968  0.3621 -0.0120
 4708SOL    HW114444   3.356   2.596   2.450 -0.0835  1.0371  0.7956
 4708SOL    HW214445   3.219   2.507   2.450 -0.4163  1.5358  1.7722
 4709SOL     OW14446   4.724   3.441   2.204  0.8832  0.5134 -0.1002
 4709SOL    HW114447   4.687   3.350   2.184  0.4727  0.7082 -0.2208
 4709SOL    HW214448   4.653   3.498   2.246  1.0212  0.9123 -0.4047
 4710SOL     OW14449   5.520   3.696   1.495  0.1232 -0.5957  0.0629
 4710SOL    HW114450   5.558   3.641   1.569 -0.0037  0.4339  0.9261
 4710SOL    HW214451   5.587   3.705   1.422  0.9514 -0.1245  0.8632
 4711SOL     OW14452   4.089   2.448   4.406 -0.0540  0.0097  0.0947
 4711SOL    HW114453   4.159   2.400   4.459 -0.7661  0.1047  1.1562
 4711SOL    HW214454   4.016   2.383   4.383 -0.0352  0.1108 -0.2469
 4712SOL     OW14455   0.739   4.118   2.845 -0.0873 -0.0248 -0.2071
 4712SOL    HW114456   0.742   4.046   2.775 -0.7134  0.4316 -0.7119
 4712SOL    HW214457   0.666   4.097   2.910  1.0820 -0.9278  0.8540
 4713SOL     OW14458   4.421   1.416   2.811 -0.4157 -0.0580 -0.3279
 4713SOL    HW114459   4.514   1.431   2.778 -0.0624 -1.3335  0.0408
 4713SOL    HW214460   4.356   1.437   2.738  0.1277  1.1434 -0.4918
 4714SOL     OW14461   4.657   1.504   2.734  0.1760  0.0708 -0.1325
 4714SOL    HW114462   4.688   1.439   2.664  1.0755  0.0969  0.2204
 4714SOL    HW214463   4.681   1.597   2.707  1.6001 -0.0087  0.7114
 4715SOL     OW14464   4.710   2.282   1.848 -0.0658 -0.4461 -0.1244
 4715SOL    HW114465   4.738   2.377   1.836  0.0851 -0.4500  0.1808
 4715SOL    HW214466   4.656   2.274   1.932 -0.8441 -0.4670 -0.6239
 4716SOL     OW14467   5.459   2.896   2.984 -0.3345  0.2528  0.3584
 4716SOL    HW114468   5.402   2.886   3.065 -2.3096 -1.9848 -1.1920
 4716SOL    HW214469   5.488   2.806   2.951 -1.6778  0.8395 -2.7781
 4717SOL     OW14470   3.605   3.418   2.521 -0.0489 -0.3476 -0.4954
 4717SOL    HW114471   3.587   3.459   2.610  1.7589  0.3528 -0.4058
 4717SOL    HW214472   3.657   3.333   2.533  0.1470 -0.2858 -0.8743
 4718SOL     OW14473   3.245   2.252   4.242 -0.1828  0.0383  0.1582
 4718SOL    HW114474   3.323   2.314   4.248  0.4463 -0.8408  1.4222
 4718SOL    HW214475   3.165   2.296   4.284 -0.3821  0.9089 -1.0711
 4719SOL     OW14476   5.195   2.007   2.954  0.1017 -0.1748 -0.3100
 4719SOL    HW114477   5.177   2.052   2.867  1.4619 -0.0984 -0.5694
 4719SOL    HW214478   5.217   2.076   3.023 -0.7206 -0.2544  0.0509
 4720SOL     OW14479   3.547   2.318   1.584  0.3068  0.4237 -0.4124
 4720SOL    HW114480   3.516   2.403   1.627 -0.5486  0.0420 -0.2409
 4720SOL    HW214481   3.495   2.303   1.500  1.3549  0.7183 -1.1182
 4721SOL     OW14482   4.905   2.978   2.975  0.1978  0.3758 -0.5590
 4721SOL    HW114483   4.866   2.909   2.914 -1.1574 -0.9096  1.6397
 4721SOL    HW214484   4.837   3.048   2.995 -0.0310 -0.2490  0.9419
 4722SOL     OW14485   4.439   2.913   2.128  0.1026 -0.7512  0.3671
 4722SOL    HW114486   4.458   2.955   2.217  0.8382 -2.2812  0.9798
 4722SOL    HW214487   4.457   2.979   2.055  2.1310 -0.2701  1.2343
 4723SOL     OW14488   5.561   2.886   1.157 -0.9203  0.4904 -0.2783
 4723SOL    HW114489   5.507   2.924   1.232 -2.4818  1.3263 -1.7656
 4723SOL    HW214490   5.596   2.960   1.100  1.6621 -0.0483  0.4917
 4724SOL     OW14491   3.935   2.945   2.621  0.4738  1.0377 -0.3618
 4724SOL    HW114492   3.878   2.869   2.652  0.9051  1.3273  1.2313
 4724SOL    HW214493   3.969   2.926   2.529  0.5042 -0.6632 -0.0306
 4725SOL     OW14494   4.821   3.791   2.800 -0.3533 -0.1716 -0.3176
 4725SOL    HW114495   4.763   3.866   2.833  0.9294  0.5643  0.3601
 4725SOL    HW214496   4.877   3.756   2.875 -0.2372 -1.1576 -0.8531
 4726SOL     OW14497   5.359   2.469   2.842  0.1460  0.0317 -0.0703
 4726SOL    HW114498   5.316   2.469   2.932  2.3114 -0.0025  1.0335
 4726SOL    HW214499   5.409   2.555   2.829 -1.4985  0.7759 -1.9894
 4727SOL     OW14500   0.030   3.502   3.069 -0.0120 -0.3129 -0.4292
 4727SOL    HW114501   0.029   3.487   2.970 -0.5731 -0.6458 -0.3796
 4727SOL    HW214502   0.087   3.432   3.113 -1.1099 -1.1940 -0.3723
 4728SOL     OW14503   3.233   2.727   3.904 -0.3698 -0.0491 -0.2636
 4728SOL    HW114504   3.202   2.678   3.985 -0.3362 -0.2452 -0.3671
 4728SOL    HW214505   3.281   2.663   3.843  0.6541  0.3394  0.1079
 4729SOL     OW14506   0.063   1.893   3.499 -0.0065  0.2071 -0.2005
 4729SOL    HW114507   0.070   1.859   3.405 -1.0668 -2.4219  0.5891
 4729SOL    HW214508   0.147   1.870   3.549  1.3899  3.2380 -0.8410
 4730SOL     OW14509   4.625   2.919   1.445  0.1515  0.1216 -0.4970
 4730SOL    HW114510   4.692   2.992   1.458  1.5942 -1.1120 -0.8154
 4730SOL    HW214511   4.671   2.834   1.421 -1.4252 -1.1603  0.7486
 4731SOL     OW14512   4.215   2.271   2.424 -0.0882 -0.7954 -0.2170
 4731SOL    HW114513   4.177   2.330   2.353 -1.6836 -1.9370 -0.3562
 4731SOL    HW214514   4.187   2.304   2.514  1.1116  0.0786 -0.1441
 4732SOL     OW14515   5.362   1.493   3.239  0.0940 -0.2557 -0.4437
 4732SOL    HW114516   5.288   1.552   3.272  0.6994  0.2944 -0.0397
 4732SOL    HW214517   5.325   1.421   3.180 -0.9358 -0.7769  0.7932
 4733SOL     OW14518   0.446   2.436   3.372  0.0586 -0.2139  0.5386
 4733SOL    HW114519   0.491   2.471   3.455  1.1820 -3.1189  1.2854
 4733SOL    HW214520   0.347   2.447   3.382  0.2463  0.8989  1.5387
 4734SOL     OW14521   4.787   2.750   2.874 -0.1191 -0.1619  0.2558
 4734SOL    HW114522   4.758   2.685   2.946  1.8208 -0.3603  0.9194
 4734SOL    HW214523   4.801   2.700   2.789 -0.4642 -0.2747  0.2610
 4735SOL     OW14524   0.125   2.981   3.041  0.1182  0.0636  0.0911
 4735SOL    HW114525   0.079   2.907   2.993  0.8073 -1.2407  1.3721
 4735SOL    HW214526   0.224   2.966   3.041  0.3863  1.6048 -0.6216
 4736SOL     OW14527   5.445   2.005   2.451 -0.0004 -0.2785 -0.3759
 4736SOL    HW114528   5.483   2.066   2.520  0.4997 -1.2565  0.2347
 4736SOL    HW214529   5.385   2.057   2.390  2.5457  1.4441 -1.6048
 4737SOL     OW14530   4.788   2.730   1.331  0.3748 -0.0361 -0.2542
 4737SOL    HW114531   4.862   2.663   1.335 -1.5993 -2.4755 -1.6519
 4737SOL    HW214532   4.781   2.766   1.238  1.1371  1.8645  0.3860
 4738SOL     OW14533   5.192   3.078   1.900  0.2877 -0.0805 -0.1395
 4738SOL    HW114534   5.144   3.088   1.813  1.1984  2.7830 -0.4216
 4738SOL    HW214535   5.276   3.027   1.887 -1.4399 -3.1523 -0.0734
 4739SOL     OW14536   4.494   3.021   2.477  0.5085 -0.5431  0.1934
 4739SOL    HW114537   4.482   2.933   2.431  1.5997 -0.1654 -0.8866
 4739SOL    HW214538   4.520   3.005   2.572  2.7882 -1.4919 -0.5117
 4740SOL     OW14539   4.041   2.939   3.680 -0.0330 -0.2403 -0.3255
 4740SOL    HW114540   4.122   2.986   3.713  0.9502 -2.5660  0.7696
 4740SOL    HW214541   4.008   2.874   3.749 -0.6729 -1.9290 -2.1177
 4741SOL     OW14542   4.127   3.767   2.846 -0.0393  0.3247 -0.2247
 4741SOL    HW114543   4.200   3.703   2.824 -0.0477  0.8005 -1.7900
 4741SOL    HW214544   4.164   3.859   2.853 -0.2763  0.3782  0.3992
 4742SOL     OW14545   0.355   2.339   2.240 -0.1274  0.1510 -0.1333
 4742SOL    HW114546   0.282   2.407   2.250 -0.4968 -0.4008  1.2035
 4742SOL    HW214547   0.438   2.385   2.208 -0.2091  1.3843  1.2542
 4743SOL     OW14548   0.109   1.960   1.556  1.0372 -0.4807 -0.9068
 4743SOL    HW114549   0.066   1.871   1.544  1.3560 -0.9524  1.0400
 4743SOL    HW214550   0.054   2.015   1.620  1.3168  0.3854 -1.3932
 4744SOL     OW14551   5.499   3.544   4.152  0.0724 -0.5054 -0.6160
 4744SOL    HW114552   5.585   3.530   4.102 -0.6170 -1.6348 -1.5018
 4744SOL    HW214553   5.429   3.578   4.090  0.1072  1.3852  0.3068
 4745SOL     OW14554   3.040   1.924   2.551  0.2661 -0.1274  0.5902
 4745SOL    HW114555   2.996   1.988   2.489 -0.6476  0.1663  1.5193
 4745SOL    HW214556   2.970   1.875   2.603  1.0141  1.2078  2.9659
 4746SOL     OW14557   5.353   2.621   2.364  0.3268 -0.6246  0.2201
 4746SOL    HW114558   5.375   2.631   2.267  2.2226 -0.5280  0.6241
 4746SOL    HW214559   5.389   2.533   2.398 -0.5732 -0.7931  0.7748
 4747SOL     OW14560   0.384   1.453   2.158 -0.0753  0.3318  0.4215
 4747SOL    HW114561   0.398   1.376   2.221  0.8967  0.3384  0.2285
 4747SOL    HW214562   0.300   1.438   2.106 -0.1235 -0.3876  0.6885
 4748SOL     OW14563   3.827   1.541   2.098 -0.0765 -0.4601  0.4323
 4748SOL    HW114564   3.831   1.441   2.088 -1.6827 -0.5549  0.5538
 4748SOL    HW214565   3.734   1.569   2.120  0.5852  0.9766  1.6024
 4749SOL     OW14566   4.167   3.215   2.422 -0.0584 -0.2238  0.2289
 4749SOL    HW114567   4.112   3.270   2.486  1.8004  0.8082  1.0057
 4749SOL    HW214568   4.143   3.240   2.328  0.9921  2.2812  0.5495
 4750SOL     OW14569   3.875   3.406   2.879  0.0253 -0.0396  0.0100
 4750SOL    HW114570   3.881   3.504   2.866  1.1765 -0.0771  0.1838
 4750SOL    HW214571   3.779   3.378   2.877 -0.2224  0.5133 -4.0908
 4751SOL     OW14572   5.560   2.206   1.907 -0.0991  0.2754  0.8562
 4751SOL    HW114573   5.515   2.236   1.991  0.0710  0.8134  0.7581
 4751SOL    HW214574   5.659   2.214   1.918 -0.0973  3.2864 -0.4211
 4752SOL     OW14575   0.438   2.584   2.432  0.0893  0.6575  0.4674
 4752SOL    HW114576   0.359   2.563   2.375 -0.6767  0.4913  1.5485
 4752SOL    HW214577   0.507   2.511   2.423  0.4321  1.1347 -0.9860
 4753SOL     OW14578   0.073   2.717   2.882 -0.5019  0.5800 -0.0759
 4753SOL    HW114579   0.159   2.685   2.921 -0.0477  1.3955 -0.3880
 4753SOL    HW214580   0.090   2.797   2.824 -1.6533  1.6857  1.0408
 4754SOL     OW14581   5.004   2.577   1.346 -0.1848 -0.0098 -0.2046
 4754SOL    HW114582   5.046   2.667   1.333  0.5248 -0.0962  1.2706
 4754SOL    HW214583   5.025   2.518   1.268 -1.7296  1.4611 -1.8207
 4755SOL     OW14584   4.624   3.952   2.854  0.2739 -0.3023  0.5883
 4755SOL    HW114585   4.551   3.925   2.791  1.7472 -1.3844 -0.7480
 4755SOL    HW214586   4.649   4.048   2.838  0.3634 -0.4554 -0.2231
 4756SOL     OW14587   3.419   2.444   3.505 -0.0708  0.9927 -0.8568
 4756SOL    HW114588   3.440   2.349   3.482  0.0043  0.8730 -0.3147
 4756SOL    HW214589   3.501   2.501   3.495  0.0191  0.8981 -0.6596
 4757SOL     OW14590   4.479   2.174   4.266 -0.0165 -0.5239 -0.1567
 4757SOL    HW114591   4.401   2.132   4.218  0.6887 -1.1004 -0.8219
 4757SOL    HW214592   4.556   2.110   4.265  0.4212 -0.0175  0.6362
 4758SOL     OW14593   4.864   3.996   4.623 -0.3152 -0.0781 -0.1344
 4758SOL    HW114594   4.925   4.025   4.549 -0.7681 -1.3222 -1.0362
 4758SOL    HW214595   4.802   4.071   4.646  0.9344  0.8936  0.1654
 4759SOL     OW14596   5.269   3.572   3.764 -0.0195 -0.3668 -0.6498
 4759SOL    HW114597   5.174   3.558   3.791  0.2814 -0.4603  0.4169
 4759SOL    HW214598   5.300   3.495   3.709 -0.1750 -0.9701  0.0971
 4760SOL     OW14599   1.072   1.819   5.346 -0.1677  0.3901  0.0203
 4760SOL    HW114600   1.084   1.911   5.308  1.2772  0.4433  0.5248
 4760SOL    HW214601   1.162   1.776   5.357 -0.8227 -1.0883 -0.2006
 4761SOL     OW14602   0.723   2.170   2.886 -0.2888  0.4061 -0.4664
 4761SOL    HW114603   0.702   2.085   2.837  0.3198  0.3953 -0.7123
 4761SOL    HW214604   0.637   2.213   2.916 -0.5810 -0.4603 -0.0496
 4762SOL     OW14605   4.163   3.392   4.396 -0.2306 -0.2989  0.0726
 4762SOL    HW114606   4.180   3.370   4.492 -2.2682 -3.4808 -0.1481
 4762SOL    HW214607   4.144   3.308   4.346 -0.2210  1.3692 -2.9647
 4763SOL     OW14608   4.029   3.380   4.661 -0.0003  0.3244  0.2177
 4763SOL    HW114609   4.023   3.479   4.670  0.2662  0.5701 -1.7726
 4763SOL    HW214610   3.937   3.342   4.647 -0.1042  0.2788  0.9946
 4764SOL     OW14611   2.903   3.735   3.003  0.0916 -0.0209  0.1452
 4764SOL    HW114612   2.883   3.687   3.088 -0.0814  2.2821  1.4842
 4764SOL    HW214613   2.993   3.707   2.969 -1.2321 -3.5449 -0.9016
 4765SOL     OW14614   5.139   4.324   5.113  0.1794  0.3988  0.1967
 4765SOL    HW114615   5.200   4.398   5.141  1.2917 -0.7319  0.8977
 4765SOL    HW214616   5.050   4.335   5.156  0.3859  1.2272  0.4251
 4766SOL     OW14617   3.747   4.597   4.816 -0.0288 -0.7321 -0.7161
 4766SOL    HW114618   3.684   4.662   4.775  1.0906  1.4902  0.9063
 4766SOL    HW214619   3.829   4.590   4.760  1.0127  1.4343  0.4231
 4767SOL     OW14620   4.564   4.299   5.005  0.4199 -0.5962  0.4969
 4767SOL    HW114621   4.483   4.286   4.948 -0.7043 -0.0501  1.9172
 4767SOL    HW214622   4.547   4.371   5.072  2.7562  0.8674 -0.3477
 4768SOL     OW14623   4.294   1.235   5.496 -0.1555  0.1120 -0.6941
 4768SOL    HW114624   4.231   1.313   5.495 -0.0968  0.2027  0.7291
 4768SOL    HW214625   4.338   1.227   5.407  0.8535  2.5716 -0.4988
 4769SOL     OW14626   0.560   2.262   4.699 -0.0165 -0.1060  0.2575
 4769SOL    HW114627   0.648   2.288   4.739  1.0607 -1.5112 -1.0581
 4769SOL    HW214628   0.549   2.163   4.705 -0.6615 -0.1505 -1.1980
 4770SOL     OW14629   4.472   3.663   4.738 -0.6251  0.5746 -0.0231
 4770SOL    HW114630   4.564   3.701   4.740 -0.7523  0.8522  0.7835
 4770SOL    HW214631   4.442   3.643   4.831 -2.2085  2.5080 -0.0555
 4771SOL     OW14632   4.946   2.984   4.812  0.2389  0.1920 -0.1538
 4771SOL    HW114633   4.864   3.039   4.796 -1.5884 -2.1953  0.4849
 4771SOL    HW214634   4.975   2.940   4.727 -0.5378 -0.7376  0.0444
 4772SOL     OW14635   2.819   3.345   3.050  0.0653  0.1961 -0.3901
 4772SOL    HW114636   2.916   3.359   3.029  0.3093  1.2869  1.3156
 4772SOL    HW214637   2.809   3.323   3.147 -1.1979 -2.4511 -1.0280
 4773SOL     OW14638   5.421   4.027   4.411  0.1402  0.0941 -0.4096
 4773SOL    HW114639   5.449   3.987   4.323 -0.3321  0.0765 -0.5517
 4773SOL    HW214640   5.346   3.974   4.450 -1.8615  1.9164 -1.5366
 4774SOL     OW14641   4.567   2.536   4.495  0.7599 -0.3412  0.7250
 4774SOL    HW114642   4.647   2.477   4.497  0.1316 -1.2385  0.2955
 4774SOL    HW214643   4.505   2.512   4.570 -1.1166 -2.6521 -1.3740
 4775SOL     OW14644   4.275   3.032   3.805  0.5036 -0.8178  0.1936
 4775SOL    HW114645   4.266   3.125   3.839 -1.2963 -0.4273 -1.1593
 4775SOL    HW214646   4.346   3.028   3.736  1.2131 -0.6737  0.8982
 4776SOL     OW14647   5.449   2.698   0.069 -0.0974 -0.2237 -0.1795
 4776SOL    HW114648   5.510   2.776   0.084  1.1715 -0.9484 -1.3227
 4776SOL    HW214649   5.475   2.651  -0.015 -0.4414 -2.2430  0.7679
 4777SOL     OW14650   3.722   3.291   3.930  0.9352  0.1986  0.2469
 4777SOL    HW114651   3.667   3.374   3.925 -0.8118 -0.9014  0.4896
 4777SOL    HW214652   3.685   3.222   3.868  0.5539 -1.3882  2.1359
 4778SOL     OW14653   1.426   2.811   4.740 -0.0306  0.3426 -0.3310
 4778SOL    HW114654   1.514   2.808   4.788  0.8538  0.8036 -1.8736
 4778SOL    HW214655   1.352   2.809   4.808  1.1034 -1.4670  0.9525
 4779SOL     OW14656   4.933   3.898   3.903 -0.6197 -0.9026  0.5594
 4779SOL    HW114657   4.965   3.809   3.937 -1.0795 -1.2962 -0.0246
 4779SOL    HW214658   4.854   3.927   3.957  0.0197 -0.4574  1.2762
 4780SOL     OW14659   5.422   2.721   4.989 -0.1803  0.4069 -0.1977
 4780SOL    HW114660   5.508   2.736   4.940 -0.0048 -0.3311 -0.1288
 4780SOL    HW214661   5.429   2.637   5.043 -1.6760 -0.8525 -1.8494
 4781SOL     OW14662   5.113   1.985   3.844 -0.0313  0.8131  0.1492
 4781SOL    HW114663   5.057   1.953   3.920 -1.1732 -1.4812 -1.5248
 4781SOL    HW214664   5.209   1.991   3.873 -0.5364  0.6393  1.9131
 4782SOL     OW14665   3.742   2.282   5.115  0.0662 -0.4124 -0.1324
 4782SOL    HW114666   3.833   2.315   5.090  0.8972 -0.1998  2.7798
 4782SOL    HW214667   3.747   2.186   5.140 -1.0398 -1.0545 -2.1615
 4783SOL     OW14668   4.020   3.890   4.722  0.1646 -0.2936  0.5042
 4783SOL    HW114669   4.000   3.970   4.665 -0.2467 -0.3171  0.6092
 4783SOL    HW214670   3.978   3.902   4.812  2.3699  0.6009  1.4837
 4784SOL     OW14671   4.060   3.224   5.468  0.5093 -0.3466 -0.6750
 4784SOL    HW114672   4.134   3.179   5.517  0.1296 -0.5322 -0.2607
 4784SOL    HW214673   4.096   3.269   5.387  1.9938  3.6584  1.9041
 4785SOL     OW14674   5.458   1.850   5.138 -0.1189 -0.9474 -0.4462
 4785SOL    HW114675   5.394   1.774   5.131  0.7597 -1.6307 -1.3858
 4785SOL    HW214676   5.513   1.840   5.221  1.5032 -2.6044 -1.6360
 4786SOL     OW14677   4.774   2.852   5.082  0.0810 -0.3308 -0.0533
 4786SOL    HW114678   4.787   2.951   5.090  0.5031 -0.3826 -0.0963
 4786SOL    HW214679   4.858   2.810   5.047  1.0285 -1.0902  2.8355
 4787SOL     OW14680   4.883   2.646   3.454 -0.1370  0.1854 -0.6671
 4787SOL    HW114681   4.813   2.622   3.522  0.3919  0.1654 -0.1184
 4787SOL    HW214682   4.842   2.700   3.381 -1.0283 -1.0280 -1.1047
 4788SOL     OW14683   4.904   4.331   5.253  0.0077  0.4320 -0.2431
 4788SOL    HW114684   4.846   4.410   5.274 -0.2019  0.4681 -0.9509
 4788SOL    HW214685   4.850   4.261   5.207  0.9368  1.2603 -2.7183
 4789SOL     OW14686   5.059   3.632   0.043 -0.1102  0.7169 -0.4672
 4789SOL    HW114687   5.000   3.552   0.030  1.4483 -0.6220  0.3745
 4789SOL    HW214688   5.039   3.673   0.132  0.1640  0.3179 -0.2197
 4790SOL     OW14689   0.026   4.333   4.721  0.1713 -0.4537  0.3385
 4790SOL    HW114690  -0.027   4.333   4.806  1.0266  0.9492  0.9175
 4790SOL    HW214691   0.083   4.251   4.718  0.1270 -0.5269  1.1249
 4791SOL     OW14692   5.446   3.081   2.678  0.5308  0.6486  0.0275
 4791SOL    HW114693   5.535   3.103   2.718  0.8496  1.1148 -0.9127
 4791SOL    HW214694   5.443   2.983   2.656  0.9702  0.7097 -0.3196
 4792SOL     OW14695   4.236   2.944   4.416 -0.4047 -0.1316 -0.1377
 4792SOL    HW114696   4.188   2.859   4.438  1.2242 -0.7493  1.2044
 4792SOL    HW214697   4.309   2.925   4.351 -0.1442  0.2722  0.0337
 4793SOL     OW14698   4.813   2.200   0.641 -0.1596  0.5014 -0.4437
 4793SOL    HW114699   4.811   2.199   0.741  1.9795 -1.7892 -0.3149
 4793SOL    HW214700   4.775   2.114   0.607 -0.9350  1.2925 -1.6280
 4794SOL     OW14701   5.417   3.909   4.946 -0.6868 -0.5054 -0.6871
 4794SOL    HW114702   5.494   3.924   5.009  1.2195  0.5397 -3.1220
 4794SOL    HW214703   5.352   3.984   4.955 -0.5348 -0.4535  0.1149
 4795SOL     OW14704   4.556   2.496   3.997 -0.2139 -0.0905 -0.3560
 4795SOL    HW114705   4.525   2.495   4.092 -1.4451 -1.9222 -0.7284
 4795SOL    HW214706   4.589   2.588   3.974  0.1427  0.3984  1.8201
 4796SOL     OW14707   5.268   3.128   0.163  0.3016  0.1885  0.3869
 4796SOL    HW114708   5.255   3.029   0.160 -0.5032  0.2937  0.2000
 4796SOL    HW214709   5.234   3.164   0.250 -1.9262  0.6268 -0.6097
 4797SOL     OW14710   4.277   3.273   4.723  0.8517 -0.5604  0.5000
 4797SOL    HW114711   4.186   3.311   4.704  0.6969 -1.8540 -1.7497
 4797SOL    HW214712   4.280   3.178   4.692  3.0678 -0.4695  0.2974
 4798SOL     OW14713   4.778   2.754   4.581  0.5365 -0.1464 -0.3835
 4798SOL    HW114714   4.705   2.768   4.514  0.2480  1.1138  0.1625
 4798SOL    HW214715   4.861   2.800   4.549  0.8998 -0.9755 -0.6638
 4799SOL     OW14716   5.568   2.509   3.913 -0.6419  0.4154  0.9031
 4799SOL    HW114717   5.630   2.492   3.837 -2.6510  0.1317 -0.7566
 4799SOL    HW214718   5.483   2.459   3.899 -3.1412  4.2917  0.5995
 4800SOL     OW14719   3.894   3.462   4.377 -0.4650  0.1779  0.0677
 4800SOL    HW114720   3.994   3.453   4.380 -0.3310  1.5332  0.7926
 4800SOL    HW214721   3.868   3.509   4.293 -0.5127 -0.3628 -0.2207
 4801SOL     OW14722   4.376   3.390   5.383 -0.6973  0.1500 -0.3196
 4801SOL    HW114723   4.361   3.489   5.389  0.3765  0.5084 -2.4387
 4801SOL    HW214724   4.305   3.349   5.326 -0.3695 -0.0700 -0.5730
 4802SOL     OW14725   2.754   2.369   4.370  0.2706 -0.3126 -0.4818
 4802SOL    HW114726   2.729   2.316   4.289  0.1259  1.4654 -1.6520
 4802SOL    HW214727   2.672   2.384   4.426 -0.2299  0.8503 -1.4905
 4803SOL     OW14728   0.184   3.688   4.685 -0.0856 -0.3769  0.0865
 4803SOL    HW114729   0.112   3.758   4.687  0.8360  0.5778  1.3555
 4803SOL    HW214730   0.158   3.616   4.621 -2.3950 -0.2873  0.8355
 4804SOL     OW14731   0.440   2.767   3.507 -0.4429  0.0741  0.5232
 4804SOL    HW114732   0.341   2.767   3.517 -0.4581 -0.6380  0.4117
 4804SOL    HW214733   0.465   2.811   3.421 -0.7240 -0.7258  0.0264
 4805SOL     OW14734   3.827   3.026   5.454 -0.0245 -0.1814 -0.3930
 4805SOL    HW114735   3.908   3.085   5.448 -0.6270  0.5404 -1.7471
 4805SOL    HW214736   3.842   2.944   5.398 -0.0361 -0.2987 -0.2259
 4806SOL     OW14737   4.182   4.268   3.742 -0.2183  0.7970  0.5778
 4806SOL    HW114738   4.140   4.197   3.798 -2.2181  1.7934  0.4220
 4806SOL    HW214739   4.265   4.301   3.786  1.7989 -2.7487 -0.1461
 4807SOL     OW14740   4.025   3.429   3.340  0.1660 -0.0793 -0.0145
 4807SOL    HW114741   3.965   3.360   3.379 -1.2055  0.8325 -0.4451
 4807SOL    HW214742   4.008   3.517   3.383  1.8406  0.0349  0.4747
 4808SOL     OW14743   0.837   2.262   4.872 -0.1048 -0.5467 -0.4981
 4808SOL    HW114744   0.902   2.266   4.797  2.6634 -2.3795  1.5933
 4808SOL    HW214745   0.854   2.338   4.935 -0.3321 -0.7529 -0.1860
 4809SOL     OW14746   4.796   3.910   4.296 -0.0570 -0.4066  0.6660
 4809SOL    HW114747   4.742   3.865   4.225 -1.7842  1.1833  0.8968
 4809SOL    HW214748   4.858   3.975   4.254 -0.6448  0.0927  0.5508
 4810SOL     OW14749   3.869   2.306   4.322 -0.3787  0.0210 -0.7576
 4810SOL    HW114750   3.850   2.218   4.279 -2.3997 -0.0687  0.2327
 4810SOL    HW214751   3.820   2.312   4.409 -0.5798  2.2849 -0.9828
 4811SOL     OW14752   0.615   1.452   3.671 -0.5222  0.5072  0.2917
 4811SOL    HW114753   0.627   1.531   3.730  1.2783 -0.4357  1.2538
 4811SOL    HW214754   0.637   1.477   3.576  1.4369  0.8477  0.7979
 4812SOL     OW14755   5.567   4.025   0.765 -0.4438  0.3637  0.0716
 4812SOL    HW114756   5.533   3.971   0.843  0.4264 -2.1766 -1.1821
 4812SOL    HW214757   5.501   4.019   0.690 -1.6903  3.4997  0.7758
 4813SOL     OW14758   4.907   3.328   3.448 -0.1482 -0.1661 -0.1515
 4813SOL    HW114759   4.861   3.273   3.517  0.5142  0.1969  0.5978
 4813SOL    HW214760   4.862   3.417   3.441 -2.1077 -1.2100 -2.3564
 4814SOL     OW14761   3.554   1.652   0.222  0.0653  0.1239  0.0015
 4814SOL    HW114762   3.466   1.640   0.176  0.3385 -0.3873 -0.4095
 4814SOL    HW214763   3.603   1.729   0.180  0.5879 -0.7480 -1.0190
 4815SOL     OW14764   4.502   2.449   4.251 -0.4195 -0.0927 -0.3606
 4815SOL    HW114765   4.525   2.353   4.242  1.0988  0.1644  0.4210
 4815SOL    HW214766   4.536   2.483   4.339 -1.4239  1.0259 -0.3778
 4816SOL     OW14767   3.762   3.594   4.172 -0.6054 -0.0633  0.2334
 4816SOL    HW114768   3.764   3.650   4.089 -2.2092  0.7844  0.7162
 4816SOL    HW214769   3.667   3.580   4.200 -0.1807 -1.9194  0.8946
 4817SOL     OW14770   4.033   0.923   4.437  0.1405  0.0551 -0.0858
 4817SOL    HW114771   4.012   0.905   4.341  1.5598  2.9778 -1.0867
 4817SOL    HW214772   3.949   0.939   4.488 -0.5598  1.5663 -1.6196
 4818SOL     OW14773   3.492   3.553   4.238  0.6958  0.3150  0.3814
 4818SOL    HW114774   3.491   3.500   4.323 -0.3860  0.3086  0.3737
 4818SOL    HW214775   3.433   3.633   4.248  0.8425  0.5064 -0.2487
 4819SOL     OW14776   4.420   4.718   5.107  0.3223 -0.4721 -0.7356
 4819SOL    HW114777   4.327   4.756   5.109 -0.3161 -1.9392 -1.0398
 4819SOL    HW214778   4.481   4.780   5.059 -0.3343  0.8484  0.0782
 4820SOL     OW14779   5.138   3.726   5.022  0.1037  0.2229  0.2921
 4820SOL    HW114780   5.219   3.671   5.002  0.0114  1.0361 -2.9919
 4820SOL    HW214781   5.063   3.665   5.048  0.5581 -1.0715 -1.2061
 4821SOL     OW14782   5.042   2.864   1.051  0.1674  1.1588  0.2963
 4821SOL    HW114783   5.073   2.821   0.966  1.5166 -0.0372  1.3265
 4821SOL    HW214784   4.949   2.834   1.072  0.6857 -0.4814  0.4215
 4822SOL     OW14785   5.456   2.343   3.197  0.0357  0.0188 -0.5803
 4822SOL    HW114786   5.542   2.302   3.166  0.0069 -0.3473 -0.1807
 4822SOL    HW214787   5.383   2.276   3.191 -0.0265  0.0282  0.0143
 4823SOL     OW14788   4.319   2.655   4.987 -0.1742  0.2528 -0.0612
 4823SOL    HW114789   4.389   2.726   4.975  0.0434  0.2032  0.8305
 4823SOL    HW214790   4.349   2.591   5.057 -1.2983  0.4584  0.6349
 4824SOL     OW14791   4.807   3.580   0.684  0.4673  0.3300  0.2221
 4824SOL    HW114792   4.848   3.671   0.684  0.4243  0.3556  1.1115
 4824SOL    HW214793   4.861   3.519   0.626 -0.2846  1.2483 -1.5404
 4825SOL     OW14794   4.640   3.240   4.356 -0.5830  0.1394  0.3523
 4825SOL    HW114795   4.717   3.187   4.321 -0.4056  0.3360  0.4442
 4825SOL    HW214796   4.577   3.262   4.281 -0.8868 -0.5763  0.3848
 4826SOL     OW14797   4.104   2.835   2.910 -0.2526 -0.3418 -0.2744
 4826SOL    HW114798   4.173   2.849   2.981 -0.5004  0.3269 -0.1593
 4826SOL    HW214799   4.048   2.917   2.901 -0.9239 -0.8164 -0.4928
 4827SOL     OW14800   4.287   3.004   4.683  0.3797  0.2790  0.1521
 4827SOL    HW114801   4.266   2.994   4.586 -0.4265 -0.4988  0.4012
 4827SOL    HW214802   4.368   2.950   4.706  1.3552  1.4791 -0.3332
 4828SOL     OW14803   5.587   1.228   4.074 -0.5711  0.4242 -0.5383
 4828SOL    HW114804   5.554   1.289   4.147 -0.1479  1.0183 -0.8346
 4828SOL    HW214805   5.522   1.230   3.998 -0.8780  0.0104 -0.2905
 4829SOL     OW14806   3.972   3.319   4.029 -0.3490  0.4783  0.0116
 4829SOL    HW114807   3.980   3.277   4.119 -1.7140  0.3598  0.0937
 4829SOL    HW214808   3.878   3.311   3.996 -0.1968  1.7831 -0.8126
 4830SOL     OW14809   2.608   2.209   0.678 -0.3423  0.4156 -0.2269
 4830SOL    HW114810   2.691   2.213   0.623  0.1943  0.2384  0.5511
 4830SOL    HW214811   2.631   2.178   0.770 -1.3622 -0.1933 -0.1669
 4831SOL     OW14812   5.488   2.482   4.424  0.0779 -0.2509  0.2750
 4831SOL    HW114813   5.427   2.497   4.346 -0.1835 -0.5189  0.4276
 4831SOL    HW214814   5.568   2.541   4.415 -0.1013 -0.0520 -0.0357
 4832SOL     OW14815   4.832   2.809   4.119  0.1882  0.3695  0.2223
 4832SOL    HW114816   4.847   2.889   4.061 -1.7982  0.3120 -0.4614
 4832SOL    HW214817   4.916   2.754   4.122  1.2031  1.8166 -0.3027
 4833SOL     OW14818   4.348   3.445   4.946  0.5325 -0.0385  0.3177
 4833SOL    HW114819   4.251   3.460   4.968  0.5700  2.4125 -0.7949
 4833SOL    HW214820   4.356   3.420   4.849  1.0455  1.5143 -0.0797
 4834SOL     OW14821   3.736   3.626   4.556 -0.5019 -0.7509  0.4050
 4834SOL    HW114822   3.737   3.711   4.503  0.2343 -0.3282  1.0848
 4834SOL    HW214823   3.772   3.552   4.500 -3.6246 -1.2681 -1.1842
 4835SOL     OW14824   4.603   3.747   3.625 -0.3938 -0.1034  0.1779
 4835SOL    HW114825   4.580   3.814   3.554  0.4076  1.6476  1.4933
 4835SOL    HW214826   4.687   3.776   3.672 -0.3133 -1.7835  1.1434
 4836SOL     OW14827   5.327   2.367   3.900 -0.6187 -0.4563 -0.0947
 4836SOL    HW114828   5.346   2.308   3.821  0.7401 -0.6987  0.4004
 4836SOL    HW214829   5.310   2.310   3.980  0.1034 -0.1855  0.2537
 4837SOL     OW14830   4.119   1.988   4.404  0.5469  0.2810  0.5345
 4837SOL    HW114831   4.131   1.894   4.374  0.1805 -0.0415  1.3918
 4837SOL    HW214832   4.200   2.018   4.454  0.8876  0.6091 -0.1912
 4838SOL     OW14833   4.700   1.916   4.692 -0.0866 -0.2299  0.3277
 4838SOL    HW114834   4.669   2.010   4.686 -0.3209 -0.3013  0.4041
 4838SOL    HW214835   4.766   1.907   4.767  0.5655  0.0406 -0.2021
 4839SOL     OW14836   5.075   1.418   4.840 -0.0932 -0.7791 -0.6202
 4839SOL    HW114837   5.169   1.396   4.869  0.5316 -1.3743 -2.9559
 4839SOL    HW214838   5.027   1.334   4.816 -0.4477 -0.3004 -1.6291
 4840SOL     OW14839   5.173   1.734   4.050 -0.5511  0.1869  0.2716
 4840SOL    HW114840   5.258   1.740   3.999 -1.1465 -0.7894 -0.8975
 4840SOL    HW214841   5.182   1.665   4.122 -0.2838  0.2547  0.3025
 4841SOL     OW14842   0.177   2.567   3.312  0.0026 -0.5945 -0.3401
 4841SOL    HW114843   0.120   2.507   3.368 -0.8705 -0.7446 -1.3560
 4841SOL    HW214844   0.156   2.663   3.334  0.3965 -0.6498  0.2962
 4842SOL     OW14845   0.334   2.719   4.837 -0.2738  0.3093  0.5908
 4842SOL    HW114846   0.409   2.760   4.889  0.9296 -0.9803 -0.0640
 4842SOL    HW214847   0.363   2.629   4.803 -1.3812  0.6930 -1.4669
 4843SOL     OW14848   5.419   2.157   4.295 -0.1443  0.0282 -0.5756
 4843SOL    HW114849   5.346   2.091   4.277 -0.4011  0.0799  0.2027
 4843SOL    HW214850   5.469   2.176   4.211 -1.1356  0.1150 -1.1543
 4844SOL     OW14851   3.597   4.000   3.163 -0.2055 -0.1958  0.2426
 4844SOL    HW114852   3.681   4.045   3.194 -0.7838  1.5498 -0.6234
 4844SOL    HW214853   3.520   4.063   3.170 -0.8205 -0.5275 -2.3566
 4845SOL     OW14854   1.627   1.665   4.620 -0.5575 -0.0168  0.2621
 4845SOL    HW114855   1.576   1.715   4.550 -0.9792 -0.0090  0.5703
 4845SOL    HW214856   1.668   1.584   4.579 -1.0053 -0.1435  0.0579
 4846SOL     OW14857   0.637   2.149   4.993  0.8455  0.1024  0.1121
 4846SOL    HW114858   0.723   2.169   4.946  1.2993  0.2948  0.9990
 4846SOL    HW214859   0.587   2.080   4.942  3.1097 -2.6117  1.2771
 4847SOL     OW14860   5.024   1.925   4.394  1.1878 -0.2856  0.2993
 4847SOL    HW114861   4.938   1.925   4.342  0.9537  2.1607  0.5370
 4847SOL    HW214862   5.021   1.853   4.463 -0.2520 -0.8907 -0.3463
 4848SOL     OW14863   0.756   2.359   5.472 -0.2554 -0.0628 -0.8984
 4848SOL    HW114864   0.835   2.388   5.417  0.1396 -1.1279 -0.9115
 4848SOL    HW214865   0.736   2.262   5.454 -0.5010 -0.2654  0.3860
 4849SOL     OW14866   4.431   3.691   5.015 -0.0329  0.2212  0.3098
 4849SOL    HW114867   4.369   3.740   5.075 -1.2939 -0.2719 -0.5579
 4849SOL    HW214868   4.398   3.597   5.002 -0.3832  0.6101 -1.9560
 4850SOL     OW14869   4.557   3.929   4.454 -0.4538 -0.0854 -0.6863
 4850SOL    HW114870   4.500   3.848   4.463  0.2795 -0.5050  0.3198
 4850SOL    HW214871   4.634   3.909   4.393  0.4509 -0.5841  0.5762
 4851SOL     OW14872   4.667   3.312   4.038 -0.1836  0.0487 -0.2604
 4851SOL    HW114873   4.752   3.297   3.988  0.0093  0.7181 -0.1405
 4851SOL    HW214874   4.674   3.396   4.092 -0.3493 -0.7309  0.9967
 4852SOL     OW14875   0.370   2.423   4.765  0.6161  0.6937 -0.3203
 4852SOL    HW114876   0.438   2.354   4.743  0.1765  0.6928 -1.7671
 4852SOL    HW214877   0.280   2.392   4.736  0.3637  1.7184 -0.7022
 4853SOL     OW14878   0.441   2.089   1.010 -0.4260 -0.0461 -0.1001
 4853SOL    HW114879   0.400   2.146   0.939  0.9473  0.2897 -0.6438
 4853SOL    HW214880   0.540   2.103   1.012 -0.2305 -1.3500  0.7178
 4854SOL     OW14881   4.517   3.957   1.449  0.0736  0.2256 -0.1903
 4854SOL    HW114882   4.446   3.952   1.519  0.9211 -0.0543  0.6639
 4854SOL    HW214883   4.477   3.934   1.360 -0.8697 -0.0656  0.2915
 4855SOL     OW14884   4.678   2.052   2.562  0.4544 -0.1578 -0.2139
 4855SOL    HW114885   4.695   2.061   2.660  2.2231  0.7411 -0.5573
 4855SOL    HW214886   4.620   2.127   2.530  1.1121  0.4071 -0.1009
 4856SOL     OW14887   2.855   3.451   5.166  0.5670 -0.2676  0.0596
 4856SOL    HW114888   2.877   3.371   5.222  0.7979  1.0041  1.8609
 4856SOL    HW214889   2.834   3.528   5.225 -0.1676  0.8879 -1.6415
 4857SOL     OW14890   4.834   2.791   5.574  0.5055  0.2830  0.0793
 4857SOL    HW114891   4.784   2.753   5.496  0.6918  1.6065 -0.7156
 4857SOL    HW214892   4.771   2.846   5.630  0.0546 -1.7236  1.6557
 4858SOL     OW14893   3.516   3.328   4.417 -0.0915 -0.3937  0.0660
 4858SOL    HW114894   3.587   3.306   4.350 -0.0118  0.2580 -0.0728
 4858SOL    HW214895   3.439   3.266   4.406  0.5114 -1.2113  0.3104
 4859SOL     OW14896   4.529   3.504   3.645 -0.5207 -0.6954  0.1047
 4859SOL    HW114897   4.579   3.591   3.642 -0.9260 -0.4706 -0.1713
 4859SOL    HW214898   4.489   3.485   3.556 -1.5354 -0.5080  0.5050
 4860SOL     OW14899   5.521   1.873   4.158  0.5927  0.8267 -0.6001
 4860SOL    HW114900   5.580   1.814   4.102  0.0429 -0.6357  0.3018
 4860SOL    HW214901   5.521   1.840   4.253  0.2537  2.2945 -0.0656
 4861SOL     OW14902   5.240   3.353   4.931  0.4570 -0.2940 -0.3906
 4861SOL    HW114903   5.270   3.446   4.953 -0.4780 -0.0543 -0.0255
 4861SOL    HW214904   5.212   3.307   5.016 -0.4004 -0.4096 -0.7213
 4862SOL     OW14905   4.980   2.311   4.773  0.3314  0.0464  0.1388
 4862SOL    HW114906   4.963   2.390   4.714  2.3289  0.7373  0.4105
 4862SOL    HW214907   5.057   2.259   4.737 -0.3288 -1.2310  0.5272
 4863SOL     OW14908   5.002   1.133   3.775  0.2714 -0.4768 -0.1862
 4863SOL    HW114909   4.926   1.170   3.722 -0.4599  0.4086  1.4219
 4863SOL    HW214910   4.969   1.064   3.839  0.9850 -0.8275 -0.1813
 4864SOL     OW14911   4.403   2.531   1.422 -0.1833 -0.2646 -0.0932
 4864SOL    HW114912   4.411   2.589   1.340 -1.0059 -0.9347 -0.6666
 4864SOL    HW214913   4.482   2.470   1.427  0.4031  0.5014  0.2020
 4865SOL     OW14914   5.228   3.835   5.581 -0.2893  0.5596 -0.0636
 4865SOL    HW114915   5.321   3.803   5.567 -0.4321  0.8562 -1.8970
 4865SOL    HW214916   5.164   3.760   5.567 -0.4068  0.7183 -0.3832
 4866SOL     OW14917   0.130   3.183   3.975  0.0345  0.2934  0.4133
 4866SOL    HW114918   0.161   3.230   4.058  0.4002 -0.4652  0.7138
 4866SOL    HW214919   0.144   3.243   3.896  0.7263  0.5977  0.7580
 4867SOL     OW14920   5.242   2.556   4.856 -0.1393  0.2203 -0.6349
 4867SOL    HW114921   5.314   2.606   4.905 -0.1795 -0.5048  0.1929
 4867SOL    HW214922   5.163   2.543   4.916 -0.6341  0.2752 -1.2631
 4868SOL     OW14923   5.195   3.182   5.172 -0.0344 -0.1491  0.5636
 4868SOL    HW114924   5.248   3.097   5.176 -0.7630 -0.8199 -2.2304
 4868SOL    HW214925   5.100   3.163   5.196  0.1880  0.3597  1.9993
 4869SOL     OW14926   5.255   2.889   4.059 -0.1081 -0.1565  0.2671
 4869SOL    HW114927   5.334   2.846   4.104  1.2010  1.4514 -0.3810
 4869SOL    HW214928   5.275   2.903   3.963 -0.9743  0.7883  0.2075
 4870SOL     OW14929   5.310   1.205   4.652  0.1055  0.0056 -0.6361
 4870SOL    HW114930   5.292   1.156   4.567 -0.4634 -0.6592 -0.1463
 4870SOL    HW214931   5.234   1.190   4.716  2.2493 -2.7788  1.4843
 4871SOL     OW14932   5.155   1.256   3.992  0.2519  0.0010  0.4681
 4871SOL    HW114933   5.212   1.178   4.020  0.1659  0.4169  1.8848
 4871SOL    HW214934   5.091   1.226   3.921  0.4624 -1.1389  0.7348
 4872SOL     OW14935   0.037   3.155   5.226  0.4194 -0.2689  0.3250
 4872SOL    HW114936  -0.042   3.094   5.220 -1.5379  2.1454  0.1610
 4872SOL    HW214937   0.088   3.152   5.140  0.1242 -1.3015  0.1667
 4873SOL     OW14938   2.925   3.209   0.145  0.3026 -0.7750  0.5104
 4873SOL    HW114939   2.897   3.115   0.127  0.3336 -0.7176  0.1600
 4873SOL    HW214940   3.006   3.209   0.204  0.6681 -0.9843  0.0135
 4874SOL     OW14941   5.043   2.222   3.670 -0.2527  0.5695 -0.3840
 4874SOL    HW114942   5.035   2.295   3.737  0.7714  1.4709 -1.2047
 4874SOL    HW214943   5.075   2.139   3.716  0.3326  1.1380  0.2659
 4875SOL     OW14944   0.414   3.146   0.627 -0.3597 -0.5580  0.3822
 4875SOL    HW114945   0.323   3.183   0.646 -0.2355 -0.4079  0.6966
 4875SOL    HW214946   0.413   3.047   0.638 -0.5895 -0.6072 -0.0409
 4876SOL     OW14947   3.763   2.758   4.426 -0.0601  0.0142  0.5109
 4876SOL    HW114948   3.739   2.708   4.509  0.6087 -0.0327  0.6775
 4876SOL    HW214949   3.731   2.853   4.435  0.3899  0.1270  1.0094
 4877SOL     OW14950   3.851   1.632   4.490 -0.6007 -0.4353  0.2464
 4877SOL    HW114951   3.790   1.700   4.449  0.5460  0.4627 -0.0266
 4877SOL    HW214952   3.866   1.655   4.586  0.6332  0.3584 -0.1096
 4878SOL     OW14953   1.084   2.623   4.293 -0.0020 -0.0601 -0.5486
 4878SOL    HW114954   1.004   2.601   4.238 -0.0588 -0.2582 -0.3863
 4878SOL    HW214955   1.137   2.695   4.248 -0.7831  0.7569 -0.1934
 4879SOL     OW14956   5.417   3.887   0.218  0.2824  0.1762 -0.1555
 4879SOL    HW114957   5.370   3.948   0.283  0.8068  0.9926 -0.5238
 4879SOL    HW214958   5.412   3.927   0.127 -1.8722 -1.7458 -0.9634
 4880SOL     OW14959   5.396   3.588   5.027  0.1802 -0.1157  0.7015
 4880SOL    HW114960   5.428   3.665   4.972 -0.5043 -0.4903 -0.2502
 4880SOL    HW214961   5.415   3.605   5.123 -0.4069  1.4682  0.5630
 4881SOL     OW14962   4.470   3.425   0.305  0.7329 -0.3557  0.0324
 4881SOL    HW114963   4.556   3.409   0.256  2.3010  0.3768  2.3608
 4881SOL    HW214964   4.435   3.338   0.340  0.3003 -0.7036 -1.2187
 4882SOL     OW14965   4.190   1.928   3.654  0.0275 -0.0859  0.3600
 4882SOL    HW114966   4.160   1.843   3.697  2.1685 -0.5513  1.0366
 4882SOL    HW214967   4.214   1.911   3.559 -1.0394  0.1307  0.0352
 4883SOL     OW14968   0.326   2.470   3.107 -0.1300 -0.4697  0.6985
 4883SOL    HW114969   0.267   2.519   3.170  0.7803  0.0640  1.1557
 4883SOL    HW214970   0.290   2.378   3.091 -0.5677 -0.4739  1.6925
 4884SOL     OW14971   4.814   2.927   3.418  0.7869 -0.6735  0.6238
 4884SOL    HW114972   4.768   3.016   3.422  1.7705 -0.1799  1.5940
 4884SOL    HW214973   4.804   2.889   3.326 -0.0623  0.2106  0.3265
 4885SOL     OW14974   5.026   3.661   4.048  0.2864 -0.1289  0.1815
 4885SOL    HW114975   4.988   3.655   4.140  0.4864 -0.2279  0.2563
 4885SOL    HW214976   5.039   3.569   4.011  0.0690 -0.0882 -0.0036
 4886SOL     OW14977   3.346   1.990   4.398  0.2633 -0.2377 -0.0186
 4886SOL    HW114978   3.430   1.970   4.448 -1.1496  0.4702  2.9146
 4886SOL    HW214979   3.328   2.089   4.402 -1.3656 -0.5185  0.7065
 4887SOL     OW14980   4.738   3.173   4.779 -0.5152  0.0046  0.6207
 4887SOL    HW114981   4.754   3.218   4.867  3.3087  1.5062 -0.6280
 4887SOL    HW214982   4.677   3.230   4.723 -0.5857  0.5623  1.2506
 4888SOL     OW14983   4.708   4.558   5.188 -0.5801 -0.2001 -0.2806
 4888SOL    HW114984   4.621   4.515   5.212 -0.2005 -1.7279 -1.5258
 4888SOL    HW214985   4.731   4.627   5.257 -1.2415 -1.9354  1.7635
 4889SOL     OW14986   4.515   1.970   2.325  0.0814 -0.4925  0.5514
 4889SOL    HW114987   4.544   2.038   2.392  0.7974  0.5124 -0.7119
 4889SOL    HW214988   4.582   1.967   2.251 -1.5385 -0.2621 -1.0000
 4890SOL     OW14989   3.562   3.855   0.411  0.3274 -0.3053  0.1214
 4890SOL    HW114990   3.628   3.859   0.336 -0.2840 -0.4738 -0.4354
 4890SOL    HW214991   3.605   3.887   0.496  0.9172  0.2198 -0.3707
 4891SOL     OW14992   4.738   3.195   3.019  0.1470  0.1743  0.9017
 4891SOL    HW114993   4.716   3.194   2.921  2.1116  0.9020  0.3883
 4891SOL    HW214994   4.657   3.220   3.072 -1.0091 -0.4369 -0.5083
 4892SOL     OW14995   4.753   2.372   4.512  0.2497  0.2011 -0.7751
 4892SOL    HW114996   4.821   2.420   4.568 -0.2133  0.0063 -0.0308
 4892SOL    HW214997   4.799   2.329   4.434  1.2264 -1.0818  0.4602
 4893SOL     OW14998   3.271   3.912   4.441  0.2515 -0.2304 -0.2700
 4893SOL    HW114999   3.333   3.957   4.377 -0.0316 -0.6042 -0.8184
 4893SOL    HW215000   3.278   3.955   4.531  1.1160 -0.1072 -0.3915
 4894SOL     OW15001   3.937   3.233   0.550  0.5521 -0.5351  0.2235
 4894SOL    HW115002   3.965   3.321   0.512 -1.8746  0.2352  0.1115
 4894SOL    HW215003   4.004   3.163   0.523  1.1642  0.7691 -1.8538
 4895SOL     OW15004   5.096   3.114   4.369  0.1961 -0.7952  0.2271
 4895SOL    HW115005   5.179   3.150   4.325  1.3212 -2.0869  1.2267
 4895SOL    HW215006   5.070   3.174   4.445  0.9974 -1.1065  0.7488
 4896SOL     OW15007   0.323   2.439   3.919  0.2610 -0.2267 -0.4336
 4896SOL    HW115008   0.297   2.492   4.000  0.3883  0.3442 -0.7566
 4896SOL    HW215009   0.422   2.443   3.908  0.2729 -0.5629 -0.4438
 4897SOL     OW15010   5.348   2.522   0.885 -0.3077 -0.0636  0.0253
 4897SOL    HW115011   5.334   2.479   0.973  1.4150 -0.9594 -0.0972
 4897SOL    HW215012   5.370   2.619   0.899  0.8327 -0.3997  0.6506
 4898SOL     OW15013   4.570   3.333   4.610 -0.2131  0.5347 -0.2861
 4898SOL    HW115014   4.472   3.351   4.619 -0.3996 -0.5679  0.0091
 4898SOL    HW215015   4.588   3.285   4.524 -0.2600 -1.3519  0.7126
 4899SOL     OW15016   4.041   2.737   4.426 -0.1373 -0.0095 -0.1201
 4899SOL    HW115017   3.942   2.745   4.434 -0.1500 -0.5937  0.3509
 4899SOL    HW215018   4.067   2.642   4.410  0.4070 -0.0571  0.9201
 4900SOL     OW15019   4.899   4.432   0.069 -0.1394  0.4546  0.4241
 4900SOL    HW115020   4.887   4.333   0.064 -0.2333  0.4133  1.3591
 4900SOL    HW215021   4.816   4.477   0.035 -0.1705  0.2092  0.1726
 4901SOL     OW15022   3.125   3.019   3.536 -0.5975  0.4216 -0.1410
 4901SOL    HW115023   3.095   3.111   3.510 -1.3240  0.3951  0.5477
 4901SOL    HW215024   3.158   2.970   3.455 -0.5554  1.1576 -0.5752
 4902SOL     OW15025   2.532   3.608   0.111  0.4121  0.3583 -0.0976
 4902SOL    HW115026   2.566   3.543   0.043  1.3957  0.8411 -0.0994
 4902SOL    HW215027   2.521   3.561   0.199  1.2208  0.1955 -0.0691
 4903SOL     OW15028   4.292   2.345   4.924  0.1615 -0.2445  0.1823
 4903SOL    HW115029   4.304   2.309   5.016 -0.4299 -1.5493 -0.2374
 4903SOL    HW215030   4.217   2.410   4.922  0.0692 -0.3419  0.5831
 4904SOL     OW15031   4.886   3.199   3.910  0.4447  0.1689 -0.0443
 4904SOL    HW115032   4.893   3.151   3.822 -0.4627 -1.4295  0.7142
 4904SOL    HW215033   4.940   3.151   3.979  0.7637  1.1414  0.4023
 4905SOL     OW15034   0.060   2.312   4.963 -0.0668  0.6296  0.1364
 4905SOL    HW115035   0.023   2.343   5.051 -3.8321 -2.6165 -0.0170
 4905SOL    HW215036   0.106   2.224   4.976 -0.7802  0.0515 -1.1159
 4906SOL     OW15037   5.457   2.225   4.674 -0.1486 -0.0965 -0.1419
 4906SOL    HW115038   5.427   2.210   4.768 -0.7866 -1.3187 -0.5181
 4906SOL    HW215039   5.490   2.138   4.636  1.5390  0.6851 -0.5672
 4907SOL     OW15040   5.011   4.244   4.572 -0.1138  0.3075  0.0501
 4907SOL    HW115041   4.998   4.278   4.665 -0.4060  0.1787  0.0574
 4907SOL    HW215042   5.108   4.252   4.547  0.0593 -0.1149  0.5428
 4908SOL     OW15043   3.594   3.859   4.164  0.4566  0.1635  0.3455
 4908SOL    HW115044   3.580   3.952   4.199 -0.1898  0.2146 -0.0464
 4908SOL    HW215045   3.512   3.805   4.179  0.5458 -0.1158 -0.1660
 4909SOL     OW15046   4.843   1.846   3.215 -0.1341 -0.2526  0.2015
 4909SOL    HW115047   4.905   1.879   3.287 -2.0097 -0.3682  1.9519
 4909SOL    HW215048   4.782   1.777   3.253 -1.0200 -0.5088 -1.6042
 4910SOL     OW15049   0.382   2.918   3.039 -0.2461 -0.1979 -1.0096
 4910SOL    HW115050   0.419   2.909   3.131  1.1714  0.5386 -1.4794
 4910SOL    HW215051   0.360   2.827   3.003  0.0084 -0.5590 -0.2714
 4911SOL     OW15052   3.287   3.912   0.401 -0.2767  0.2817  0.6095
 4911SOL    HW115053   3.381   3.894   0.431  0.2574  1.7794 -0.0679
 4911SOL    HW215054   3.250   3.830   0.356  0.6806 -0.3383  0.9257
 4912SOL     OW15055   5.505   1.837   3.708  0.7060 -0.4748  0.2333
 4912SOL    HW115056   5.550   1.875   3.627  0.1443  0.0723  0.1657
 4912SOL    HW215057   5.424   1.785   3.679  1.7679 -2.2203  0.2814
 4913SOL     OW15058   4.442   3.173   4.080  0.3644  0.0042  0.5666
 4913SOL    HW115059   4.523   3.226   4.053 -0.2733  0.6206 -0.1866
 4913SOL    HW215060   4.360   3.221   4.051 -0.2598 -1.0135  0.6076
 4914SOL     OW15061   4.334   3.513   3.828  0.2515  0.2252  0.7235
 4914SOL    HW115062   4.251   3.510   3.773 -0.0199  0.4462  1.1198
 4914SOL    HW215063   4.413   3.526   3.768 -0.1854  2.0823  0.5040
 4915SOL     OW15064   0.184   4.404   4.488 -0.1940 -0.6843  0.4522
 4915SOL    HW115065   0.134   4.381   4.572  0.2490  0.6928  1.1264
 4915SOL    HW215066   0.257   4.469   4.510  0.4792 -0.9595 -0.8790
 4916SOL     OW15067   5.321   1.594   4.428  0.4598 -0.0972  0.5482
 4916SOL    HW115068   5.240   1.596   4.487  1.0249 -2.4320  1.5198
 4916SOL    HW215069   5.296   1.557   4.338  0.2964 -0.0800  0.5862
 4917SOL     OW15070   5.119   2.692   3.588 -0.3076  0.1161 -0.2789
 4917SOL    HW115071   5.032   2.654   3.557 -0.7405  0.1548  0.8586
 4917SOL    HW215072   5.107   2.789   3.611 -0.7440 -0.5642  2.7288
 4918SOL     OW15073   4.984   3.274   4.629 -0.0214 -0.0933 -0.2860
 4918SOL    HW115074   5.071   3.247   4.670 -0.1690 -0.6849 -0.3605
 4918SOL    HW215075   4.913   3.207   4.652 -0.2790 -0.0285 -0.8695
 4919SOL     OW15076   4.570   2.819   4.429  0.2894  0.1945  0.5012
 4919SOL    HW115077   4.559   2.719   4.421  2.4733 -0.0619  0.1639
 4919SOL    HW215078   4.532   2.862   4.347  0.2473 -0.4489  0.1681
 4920SOL     OW15079   5.276   2.807   4.536 -0.2235  0.4654 -0.7007
 4920SOL    HW115080   5.345   2.806   4.464 -0.7372  0.9931 -1.2186
 4920SOL    HW215081   5.303   2.871   4.607 -0.0467  0.4608 -0.7626
 4921SOL     OW15082   0.124   2.886   3.960  0.2569  0.3848  0.1501
 4921SOL    HW115083   0.156   2.976   3.989  1.2526  0.7124 -1.7675
 4921SOL    HW215084   0.159   2.866   3.868  0.7775 -2.3318  0.8336
 4922SOL     OW15085   3.185   3.015   0.084 -0.1742  0.4437  0.0414
 4922SOL    HW115086   3.230   2.940   0.132  0.9142  1.0153 -0.0685
 4922SOL    HW215087   3.087   3.012   0.104  0.1557  0.3409  1.8861
 4923SOL     OW15088   1.076   3.562   4.527 -0.0230 -0.0512  0.2893
 4923SOL    HW115089   1.105   3.470   4.555  0.4626  0.3867  1.2634
 4923SOL    HW215090   0.978   3.571   4.542 -0.0819 -0.4323  0.1477
 4924SOL     OW15091   4.851   1.422   5.109  0.1723  0.4067  0.4242
 4924SOL    HW115092   4.900   1.497   5.066  0.2567  2.4820  3.7672
 4924SOL    HW215093   4.752   1.439   5.103  0.1904  0.7898  1.1582
 4925SOL     OW15094   4.456   2.569   3.043  0.1459 -0.2591  0.7717
 4925SOL    HW115095   4.380   2.505   3.027 -0.3090 -0.5083  3.4016
 4925SOL    HW215096   4.473   2.622   2.960 -4.0576  0.9850  0.4256
 4926SOL     OW15097   5.269   3.890   5.182  0.0079 -0.1117 -0.2938
 4926SOL    HW115098   5.363   3.880   5.150  0.3110 -2.1222  1.0590
 4926SOL    HW215099   5.206   3.853   5.114  0.4329 -1.5413  0.0610
 4927SOL     OW15100   3.212   2.244   3.643  0.0152  0.1717  0.3879
 4927SOL    HW115101   3.225   2.341   3.622  0.0353 -0.0158 -0.4997
 4927SOL    HW215102   3.299   2.196   3.635 -0.4056 -0.3511 -1.6076
 4928SOL     OW15103   4.636   3.085   5.235 -0.4803 -0.4219  0.3231
 4928SOL    HW115104   4.584   3.164   5.203  1.2511  1.3011  1.4855
 4928SOL    HW215105   4.585   3.040   5.308 -0.6466  0.8856  1.0553
 4929SOL     OW15106   4.140   2.823   5.155  0.1894  0.5726  0.4245
 4929SOL    HW115107   4.139   2.917   5.122 -0.9636  0.4128 -0.0162
 4929SOL    HW215108   4.186   2.765   5.089 -2.5611  0.1579 -1.2728
 4930SOL     OW15109   3.598   2.185   3.452 -0.0968  0.4098  0.2002
 4930SOL    HW115110   3.608   2.178   3.353  1.4110  1.1931  0.2687
 4930SOL    HW215111   3.688   2.192   3.495 -0.7600  2.3883  1.4251
 4931SOL     OW15112   4.941   2.054   4.942 -0.1315  0.4795  0.4456
 4931SOL    HW115113   4.963   2.138   4.893  0.6266  0.1042  0.1196
 4931SOL    HW215114   4.973   2.062   5.037  2.2262 -0.3328 -0.2028
 4932SOL     OW15115   2.741   1.907   5.160 -1.1502  1.0606 -0.3385
 4932SOL    HW115116   2.712   1.848   5.085  1.6564  2.4605 -2.7221
 4932SOL    HW215117   2.686   1.990   5.161 -2.1437  0.4067  0.1185
 4933SOL     OW15118   0.857   3.333   3.714  0.6130 -0.3443  0.1287
 4933SOL    HW115119   0.872   3.431   3.701  2.2524 -0.3591  1.6239
 4933SOL    HW215120   0.787   3.318   3.783 -1.0144 -0.2783 -1.4297
 4934SOL     OW15121   0.119   2.364   3.468  0.0691  0.1784 -0.5208
 4934SOL    HW115122   0.146   2.279   3.422  2.3052  1.1205 -1.0836
 4934SOL    HW215123   0.056   2.343   3.543 -0.5349 -1.8055 -1.5171
 4935SOL     OW15124   5.267   3.290   4.655 -0.0121 -0.2195  0.6419
 4935SOL    HW115125   5.251   3.298   4.753 -2.6326  0.4506  0.2477
 4935SOL    HW215126   5.316   3.371   4.622  1.9716 -1.0153  1.5379
 4936SOL     OW15127   5.344   2.445   5.135  0.1507  0.2306 -0.0351
 4936SOL    HW115128   5.280   2.460   5.210 -0.9519  0.6034 -1.0202
 4936SOL    HW215129   5.428   2.403   5.170  0.4328  2.1185  1.7079
 4937SOL     OW15130   5.303   3.480   0.041  0.3677  0.2827  0.0913
 4937SOL    HW115131   5.211   3.504   0.011 -0.0137 -0.0751  0.9667
 4937SOL    HW215132   5.327   3.534   0.122  1.0569  0.6155 -0.3272
 4938SOL     OW15133   2.954   2.709   0.237  1.1055 -0.1350  0.1945
 4938SOL    HW115134   2.884   2.648   0.275  0.9856 -0.7467 -0.9616
 4938SOL    HW215135   3.030   2.655   0.200  1.1976  0.4230 -0.4707
 4939SOL     OW15136   1.282   3.541   5.461 -0.5326 -0.3476 -0.1517
 4939SOL    HW115137   1.199   3.526   5.515  0.4616  0.7079  1.7857
 4939SOL    HW215138   1.266   3.613   5.393 -1.5709 -1.1206 -0.7500
 4940SOL     OW15139   1.015   1.646   4.751  0.0074  0.8088  1.0088
 4940SOL    HW115140   0.949   1.716   4.726 -0.0530  0.8285  1.2199
 4940SOL    HW215141   0.979   1.592   4.828 -0.0248  0.4359  0.7382
 4941SOL     OW15142   3.872   3.681   3.281  0.1884 -0.2018 -0.1579
 4941SOL    HW115143   3.813   3.746   3.330 -0.3980 -2.3111  2.1443
 4941SOL    HW215144   3.834   3.589   3.289  2.7965 -1.3702 -0.2545
 4942SOL     OW15145   0.413   4.397   5.349 -0.0588  0.3167  0.0254
 4942SOL    HW115146   0.468   4.475   5.318 -1.5274  0.8915 -1.3091
 4942SOL    HW215147   0.436   4.316   5.296 -0.0874  0.4209 -0.1488
 4943SOL     OW15148   0.624   1.329   0.057  0.4103 -0.0670  0.3727
 4943SOL    HW115149   0.646   1.339  -0.040 -1.3664 -0.2044 -0.0773
 4943SOL    HW215150   0.705   1.350   0.112  1.4222  0.0912 -1.1269
 4944SOL     OW15151   4.936   3.190   3.191  0.2352 -0.2214  0.2805
 4944SOL    HW115152   4.914   3.236   3.277  0.7815  0.9442 -0.1848
 4944SOL    HW215153   4.852   3.171   3.141  0.0020  0.2344  0.4994
 4945SOL     OW15154   3.965   3.630   4.719 -0.0099 -0.2156 -0.4519
 4945SOL    HW115155   4.006   3.720   4.718  1.1619 -0.7331 -0.2904
 4945SOL    HW215156   3.888   3.627   4.655  0.1626  0.7788 -0.7158
 4946SOL     OW15157   4.851   3.046   3.676  0.3212 -0.1110 -0.0918
 4946SOL    HW115158   4.772   3.062   3.735  2.0273 -0.0346  2.2994
 4946SOL    HW215159   4.823   2.987   3.600 -1.5993 -1.9475  1.8571
 4947SOL     OW15160   4.721   2.555   3.061  0.1746 -0.0538  0.2544
 4947SOL    HW115161   4.623   2.536   3.066  0.0786 -1.2364 -3.3509
 4947SOL    HW215162   4.772   2.475   3.095 -0.1296 -0.3688 -0.0263
 4948SOL     OW15163   4.910   3.161   5.196  0.2493 -0.0461  0.0027
 4948SOL    HW115164   4.831   3.112   5.232 -0.0830 -1.0810 -2.0167
 4948SOL    HW215165   4.884   3.211   5.114  0.6177  3.4796  1.8433
 4949SOL     OW15166   3.898   3.233   0.183 -0.0581 -0.0027 -0.0109
 4949SOL    HW115167   3.913   3.306   0.116  1.0171  0.0202  0.2331
 4949SOL    HW215168   3.987   3.203   0.220 -0.4788 -1.3494 -0.0200
 4950SOL     OW15169   3.795   2.943   4.721 -0.0886 -0.6078  0.1605
 4950SOL    HW115170   3.764   2.989   4.638 -1.4883 -0.8214  0.5440
 4950SOL    HW215171   3.895   2.948   4.726 -0.1371  2.4146  0.1765
 4951SOL     OW15172   3.883   2.653   4.819 -0.1471 -0.8021  0.0319
 4951SOL    HW115173   3.979   2.627   4.809 -0.2127 -1.0837  0.1353
 4951SOL    HW215174   3.874   2.752   4.812  0.2191 -0.7311  0.5513
 4952SOL     OW15175   0.079   1.009   5.453 -0.4031 -0.2185  0.1055
 4952SOL    HW115176   0.038   0.951   5.525  0.6342 -0.3766  0.5904
 4952SOL    HW215177   0.049   1.103   5.466  1.3792  0.1573  2.0608
 4953SOL     OW15178   4.141   2.582   4.781 -0.0875 -0.0795  0.1158
 4953SOL    HW115179   4.190   2.531   4.710  0.3663  0.3778  0.0924
 4953SOL    HW215180   4.206   2.613   4.850 -0.3148  0.7193 -0.0212
 4954SOL     OW15181   4.407   2.920   4.201 -0.0211  0.0650  0.0604
 4954SOL    HW115182   4.398   2.869   4.116  0.5835  0.7996 -0.4660
 4954SOL    HW215183   4.409   3.018   4.181  2.6569  0.2233  0.6219
 4955SOL     OW15184   5.363   2.926   4.761  0.5181 -0.4412  0.4148
 4955SOL    HW115185   5.338   2.880   4.846 -1.5096 -0.6657 -0.2349
 4955SOL    HW215186   5.379   3.023   4.779  0.6300 -0.5858  1.1242
 4956SOL     OW15187   5.188   4.022   3.923  0.8106  0.4387  0.1426
 4956SOL    HW115188   5.105   3.967   3.931 -0.1038  1.5498 -1.3133
 4956SOL    HW215189   5.267   3.966   3.949 -0.1964 -1.1910 -0.1460
 4957SOL     OW15190   5.326   1.140   0.131 -0.1387  0.2318  0.1237
 4957SOL    HW115191   5.269   1.157   0.211 -0.4442 -0.5677  0.0810
 4957SOL    HW215192   5.422   1.134   0.159 -0.1804  0.5567  0.3424
 4958SOL     OW15193   4.897   1.718   5.445  0.0964  0.7316  0.1702
 4958SOL    HW115194   4.976   1.715   5.383 -0.6801 -2.5891 -0.8863
 4958SOL    HW215195   4.924   1.680   5.534 -0.0325  0.6312  0.1669
 4959SOL     OW15196   4.317   3.645   4.059 -0.7602  0.1907  0.2458
 4959SOL    HW115197   4.362   3.584   3.995 -0.1123 -0.5227  1.3399
 4959SOL    HW215198   4.325   3.740   4.028 -0.4292 -0.1393 -0.6808
 4960SOL     OW15199   4.792   3.313   5.003  0.1947  0.1267  0.1193
 4960SOL    HW115200   4.704   3.346   5.038 -0.0199  2.2484 -2.1565
 4960SOL    HW215201   4.863   3.382   5.018  0.7251 -0.1616 -0.9240
 4961SOL     OW15202   4.874   1.733   4.534  0.5010 -0.0160 -0.1505
 4961SOL    HW115203   4.817   1.803   4.578 -1.1323 -1.1076 -0.4732
 4961SOL    HW215204   4.823   1.648   4.526  2.4348 -1.2733  0.1871
 4962SOL     OW15205   0.098   2.709   5.182 -0.2117 -0.0846 -0.0369
 4962SOL    HW115206   0.140   2.793   5.149 -0.2038 -0.7836 -1.9192
 4962SOL    HW215207   0.156   2.631   5.160 -1.1886 -0.7887 -0.2208
 4963SOL     OW15208   0.198   1.960   4.260  0.4971  0.4955  0.2958
 4963SOL    HW115209   0.170   1.966   4.356 -1.0357 -0.1293 -0.0912
 4963SOL    HW215210   0.197   1.865   4.230 -1.7591  0.8875 -1.0880
 4964SOL     OW15211   4.337   2.067   4.873  0.0845 -0.8767  0.9301
 4964SOL    HW115212   4.300   2.160   4.882 -0.7019 -1.2162  1.2670
 4964SOL    HW215213   4.430   2.065   4.909  0.7506  0.1602 -0.6006
 4965SOL     OW15214   5.400   2.687   2.618 -0.2290  0.1156 -0.3982
 4965SOL    HW115215   5.320   2.723   2.668 -1.3267 -1.1389 -1.1900
 4965SOL    HW215216   5.371   2.655   2.528  1.7136  2.2868 -1.8834
 4966SOL     OW15217   3.728   3.027   0.234 -0.0139  0.7554 -0.0439
 4966SOL    HW115218   3.776   2.940   0.241 -0.3658  0.5809  0.2364
 4966SOL    HW215219   3.794   3.100   0.217  0.2615  0.4092 -0.4691
 4967SOL     OW15220   3.655   2.848   0.961 -0.0954 -0.5262 -0.2533
 4967SOL    HW115221   3.686   2.756   0.986  1.8302  0.5541  1.7813
 4967SOL    HW215222   3.727   2.894   0.909 -0.9845 -0.0950 -1.1285
 4968SOL     OW15223   2.097   3.345   4.796 -0.1683 -0.3851  0.7991
 4968SOL    HW115224   2.085   3.298   4.884  0.0056 -0.8850  0.5576
 4968SOL    HW215225   2.194   3.345   4.772 -0.0838  0.6557  1.0986
 4969SOL     OW15226   5.035   4.924   1.619 -0.1835 -0.1579  0.4072
 4969SOL    HW115227   5.000   4.972   1.539  0.7106  1.3809  0.8906
 4969SOL    HW215228   5.057   4.830   1.595 -1.1386 -0.0977 -0.8083
 4970SOL     OW15229   3.999   4.962   0.066 -0.3476  0.0170  0.3038
 4970SOL    HW115230   4.086   4.917   0.085  0.3889  0.5750 -1.5343
 4970SOL    HW215231   3.952   4.914  -0.008 -0.5533  1.0232 -0.2326
 4971SOL     OW15232   3.986   4.263   0.671  0.4748  0.0792  0.1400
 4971SOL    HW115233   4.033   4.180   0.701  0.2430  0.4774  1.6993
 4971SOL    HW215234   3.981   4.328   0.747 -0.3674  1.0658 -0.7223
 4972SOL     OW15235   5.172   5.045   1.282  0.4398  0.1050  0.4034
 4972SOL    HW115236   5.220   5.095   1.210  1.7786 -0.0901  1.1418
 4972SOL    HW215237   5.082   5.088   1.298  0.2639  0.3488 -1.1249
 4973SOL     OW15238   4.751   4.720   0.612 -0.1798  0.0559 -0.0004
 4973SOL    HW115239   4.703   4.805   0.631  0.3844  0.1092  1.3113
 4973SOL    HW215240   4.824   4.707   0.679 -0.3909 -1.5615 -0.0363
 4974SOL     OW15241   4.898   4.891   2.019  0.1084  0.3851 -0.2669
 4974SOL    HW115242   4.883   4.915   2.115  1.5682 -1.2756  0.4255
 4974SOL    HW215243   4.923   4.795   2.012  3.2648  1.1716 -1.9200
 4975SOL     OW15244   3.305   4.696   0.340 -0.2619  0.4504  0.5185
 4975SOL    HW115245   3.271   4.695   0.246 -0.0090  0.3617  0.4275
 4975SOL    HW215246   3.300   4.603   0.377 -0.7043  0.5507  0.7181
 4976SOL     OW15247   5.210   3.545   2.335 -0.3848  0.5225 -0.4249
 4976SOL    HW115248   5.251   3.629   2.370  1.1989 -0.1107 -0.6900
 4976SOL    HW215249   5.179   3.489   2.412 -0.9198  1.0619 -0.2309
 4977SOL     OW15250   3.681   0.228   0.965 -0.4571  0.5695 -0.1184
 4977SOL    HW115251   3.760   0.172   0.937 -0.7855  0.3161 -0.5456
 4977SOL    HW215252   3.703   0.324   0.953 -0.4956  0.4728 -0.9926
 4978SOL     OW15253   0.436   0.989   1.345  0.4608  0.4162  0.0209
 4978SOL    HW115254   0.359   1.048   1.319  1.9628  1.2864 -2.8485
 4978SOL    HW215255   0.448   0.991   1.444 -0.8627  3.2569  0.2150
 4979SOL     OW15256   3.868   4.381   1.575 -0.3000  0.0047  0.4071
 4979SOL    HW115257   3.868   4.336   1.664 -0.0198 -0.6029  0.1048
 4979SOL    HW215258   3.863   4.313   1.502  2.3333  0.2705 -0.1215
 4980SOL     OW15259   5.495   3.749   5.502  0.0078  0.3515 -0.0972
 4980SOL    HW115260   5.549   3.824   5.463  0.5368 -1.4359 -3.1074
 4980SOL    HW215261   5.555   3.689   5.554  0.2417  0.2318 -0.5022
 4981SOL     OW15262   3.513   0.636   1.218 -0.7479 -0.1161  0.0410
 4981SOL    HW115263   3.488   0.721   1.265 -0.5514  0.2006 -0.4105
 4981SOL    HW215264   3.601   0.603   1.253 -0.1623  0.6021 -0.7052
 4982SOL     OW15265   4.744   4.206   3.209 -0.2876 -0.3207 -0.5638
 4982SOL    HW115266   4.793   4.226   3.294 -2.4549  0.6585  0.5234
 4982SOL    HW215267   4.791   4.251   3.132  1.0589 -0.2672  0.2583
 4983SOL     OW15268   3.758   5.124   1.761  0.2940 -0.2802  0.2240
 4983SOL    HW115269   3.824   5.131   1.836 -2.1361 -0.2177  2.4937
 4983SOL    HW215270   3.686   5.059   1.786 -0.2937 -0.7180 -2.3525
 4984SOL     OW15271   4.264   0.581   2.010  0.2661  0.4752 -0.3093
 4984SOL    HW115272   4.188   0.519   1.991 -0.2023  0.8438  0.3437
 4984SOL    HW215273   4.266   0.604   2.107  1.3508  0.2939 -0.2740
 4985SOL     OW15274   3.988   1.071   1.597 -0.1126 -0.0932 -0.6123
 4985SOL    HW115275   3.961   1.080   1.693  0.6889 -1.4536 -0.2444
 4985SOL    HW215276   3.992   1.162   1.556  0.8388  0.6489  1.0060
 4986SOL     OW15277   4.618   5.122   0.448  0.3216  0.4231 -0.2254
 4986SOL    HW115278   4.679   5.174   0.389 -0.3050  0.8018 -0.5452
 4986SOL    HW215279   4.539   5.091   0.396 -0.6568  1.4549  0.5787
 4987SOL     OW15280   4.698   3.557   0.973 -0.2174  0.1077  0.5129
 4987SOL    HW115281   4.734   3.554   0.880 -0.6454  1.9637  0.2395
 4987SOL    HW215282   4.709   3.649   1.011 -2.3145  0.0896  1.3455
 4988SOL     OW15283   4.293   3.927   4.785 -0.4285  0.0758  0.0920
 4988SOL    HW115284   4.358   3.853   4.765  0.3772  1.5513 -3.4777
 4988SOL    HW215285   4.200   3.895   4.769 -0.2095 -0.6139  0.1597
 4989SOL     OW15286   0.077   0.789   1.730 -0.3744  0.0442 -0.0898
 4989SOL    HW115287   0.035   0.704   1.763 -1.5431  0.2290 -1.0410
 4989SOL    HW215288   0.100   0.847   1.808 -0.8391 -0.5580  0.5090
 4990SOL     OW15289   2.824   5.555   0.547 -0.4457  0.4349  0.0029
 4990SOL    HW115290   2.758   5.564   0.472  1.3514  0.9660 -1.6213
 4990SOL    HW215291   2.846   5.646   0.583  0.2152  0.3898 -0.2633
 4991SOL     OW15292   0.250   5.569   0.860  0.6013  0.4957  0.2348
 4991SOL    HW115293   0.276   5.501   0.792  0.7774 -0.2841  1.0553
 4991SOL    HW215294   0.266   5.661   0.823 -1.9566  0.2140 -1.8115
 4992SOL     OW15295   4.381   5.087   1.395  0.8792  0.3854  0.2533
 4992SOL    HW115296   4.365   5.039   1.481  3.0066 -1.0887 -0.0957
 4992SOL    HW215297   4.477   5.115   1.390  0.7416  0.6243 -1.5422
 4993SOL     OW15298   4.898   5.477   1.485  0.2000 -0.5494  0.1724
 4993SOL    HW115299   4.871   5.508   1.394 -1.2021  1.2568  1.1235
 4993SOL    HW215300   4.976   5.532   1.517 -0.1209 -0.2933  0.5338
 4994SOL     OW15301   4.214   4.808   0.053 -0.1825  0.4412  0.7020
 4994SOL    HW115302   4.270   4.754  -0.010  1.5957  1.6728  1.1180
 4994SOL    HW215303   4.238   4.784   0.147 -3.3179 -1.8957  1.0514
 4995SOL     OW15304   5.562   0.541   1.796 -0.1278 -0.3322  0.0993
 4995SOL    HW115305   5.573   0.457   1.743 -0.1445 -0.5920  0.5023
 4995SOL    HW215306   5.467   0.549   1.826 -0.2072  0.0130 -0.2321
 4996SOL     OW15307   5.120   3.883   1.199  0.0394 -0.1705 -0.1263
 4996SOL    HW115308   5.149   3.803   1.251 -1.5336  0.0510  1.1903
 4996SOL    HW215309   5.092   3.855   1.107  0.2526 -1.0084  0.0574
 4997SOL     OW15310   0.268   4.121   0.946  0.0464  0.5523 -0.3704
 4997SOL    HW115311   0.325   4.075   1.014 -0.8159  0.5404  0.3616
 4997SOL    HW215312   0.250   4.059   0.869  1.8358  0.8837 -1.1245
 4998SOL     OW15313   5.554   4.557   0.815 -0.3304 -0.5267 -0.1899
 4998SOL    HW115314   5.561   4.589   0.910  0.5959  2.1838 -1.0596
 4998SOL    HW215315   5.612   4.477   0.803  0.2362 -0.3937  1.3263
 4999SOL     OW15316   0.891   0.852   2.190  0.4299  0.4263 -0.1870
 4999SOL    HW115317   0.826   0.900   2.249 -0.3100 -0.7742  0.0074
 4999SOL    HW215318   0.947   0.790   2.245  1.7469  1.4138 -0.3594
 5000SOL     OW15319   4.447   4.426   1.549 -0.0064  0.1328 -0.2582
 5000SOL    HW115320   4.520   4.359   1.535 -1.9321 -1.9802 -0.7596
 5000SOL    HW215321   4.466   4.507   1.494  2.6328  0.2814  0.7076
 5001SOL     OW15322   0.026   4.536   1.558 -0.0907  0.1759  0.3733
 5001SOL    HW115323   0.026   4.514   1.655  1.9924  1.3205  0.6932
 5001SOL    HW215324  -0.049   4.600   1.539 -0.4280  0.0543  1.2388
 5002SOL     OW15325   4.720   0.684   1.255 -0.4197  0.0665 -0.0453
 5002SOL    HW115326   4.736   0.748   1.180 -0.9324  0.2451 -0.0064
 5002SOL    HW215327   4.621   0.673   1.269 -0.4074 -1.8077 -0.9952
 5003SOL     OW15328   3.827   3.988   4.931  0.0607 -0.1581 -0.0580
 5003SOL    HW115329   3.824   4.066   4.993  1.1274  0.3901 -0.6581
 5003SOL    HW215330   3.763   4.003   4.855  2.0192  1.3824 -1.5209
 5004SOL     OW15331   4.197   3.251   1.589 -0.3089  0.1576  0.5726
 5004SOL    HW115332   4.112   3.206   1.561  0.3324 -0.1492 -0.9945
 5004SOL    HW215333   4.218   3.228   1.684 -1.2241 -0.9105  0.5321
 5005SOL     OW15334   5.571   0.511   0.680 -0.0526 -0.1224  0.3190
 5005SOL    HW115335   5.593   0.533   0.775 -0.5564  0.2700  0.3475
 5005SOL    HW215336   5.533   0.419   0.675  1.5689 -0.8344  0.2673
 5006SOL     OW15337   4.066   4.939   0.563  0.0611 -0.3118  0.5788
 5006SOL    HW115338   4.064   5.017   0.500  0.7977 -0.7974 -0.0632
 5006SOL    HW215339   4.154   4.937   0.611 -0.0793 -0.5674  0.8254
 5007SOL     OW15340   0.379   4.587   1.031 -0.1896 -0.0801  0.1139
 5007SOL    HW115341   0.377   4.496   1.073 -0.5575  0.0069  0.2931
 5007SOL    HW215342   0.402   4.578   0.934  1.2654 -0.2323  0.4523
 5008SOL     OW15343   5.322   5.255   1.434 -0.0510 -0.4648  0.6257
 5008SOL    HW115344   5.275   5.172   1.405 -0.1027  0.0085 -0.7284
 5008SOL    HW215345   5.413   5.231   1.470 -0.2409 -1.1388  0.6738
 5009SOL     OW15346   4.599   4.060   1.875  0.0737 -0.0311  0.0591
 5009SOL    HW115347   4.675   4.015   1.828  1.3807  1.0979  1.0006
 5009SOL    HW215348   4.515   4.008   1.861  0.8354 -0.8478 -1.7305
 5010SOL     OW15349   4.895   4.639   0.851 -0.0724  0.2137 -0.1561
 5010SOL    HW115350   4.942   4.553   0.832  0.1479  0.4004 -0.4651
 5010SOL    HW215351   4.864   4.640   0.946 -0.3961 -0.3561 -0.2561
 5011SOL     OW15352   3.891   3.714   5.366 -0.0987  0.3670 -0.0362
 5011SOL    HW115353   3.803   3.668   5.352 -0.0193 -0.0496  0.7669
 5011SOL    HW215354   3.927   3.689   5.456  1.2676 -0.1673 -0.7136
 5012SOL     OW15355   3.938   0.033   2.511 -0.2863  0.0978  0.5021
 5012SOL    HW115356   3.839   0.040   2.496 -0.2338 -1.8452 -1.1830
 5012SOL    HW215357   3.982   0.117   2.482 -1.3440  0.5750  0.2327
 5013SOL     OW15358   4.322   3.074   0.617 -0.2452  0.3099 -0.4616
 5013SOL    HW115359   4.241   3.053   0.561  1.2287  0.6735 -2.8788
 5013SOL    HW215360   4.316   3.024   0.704 -2.7247 -0.1878 -0.8385
 5014SOL     OW15361   4.869   3.436   2.534  0.5287 -0.3399 -0.2191
 5014SOL    HW115362   4.911   3.526   2.518 -1.9330  0.8120 -0.6502
 5014SOL    HW215363   4.790   3.446   2.594 -0.8142 -1.9257 -1.6288
 5015SOL     OW15364   5.124   0.336   0.232 -0.0781  0.6358  0.3947
 5015SOL    HW115365   5.187   0.410   0.211  0.2939  0.0355 -0.7049
 5015SOL    HW215366   5.132   0.312   0.329 -0.5692  2.3333  0.8925
 5016SOL     OW15367   3.682   0.911   0.904  0.3477 -0.1174  0.3850
 5016SOL    HW115368   3.745   0.956   0.840 -1.1246  0.7121 -0.5402
 5016SOL    HW215369   3.646   0.979   0.968 -0.3475 -0.3758  0.2769
 5017SOL     OW15370   0.916   4.758   0.851  0.0310  0.2586  0.1376
 5017SOL    HW115371   0.915   4.853   0.880 -0.4544  0.7773 -1.4342
 5017SOL    HW215372   0.826   4.734   0.813 -0.2377 -1.1986  1.5819
 5018SOL     OW15373   4.654   5.254   2.222  0.4064  0.1183  0.3170
 5018SOL    HW115374   4.738   5.252   2.168  0.2586  0.1604  0.0844
 5018SOL    HW215375   4.586   5.312   2.177 -0.5651 -1.7383 -0.7155
 5019SOL     OW15376   4.311   4.921   0.660  0.6599 -0.0579  0.0921
 5019SOL    HW115377   4.326   4.963   0.750  0.4604 -0.6654  0.4198
 5019SOL    HW215378   4.393   4.933   0.604  0.4674  1.0913  0.0332
 5020SOL     OW15379   4.520   5.384   1.307  0.2204 -0.1284 -0.4864
 5020SOL    HW115380   4.530   5.290   1.274 -1.8286 -0.3640 -0.5353
 5020SOL    HW215381   4.547   5.389   1.403  1.2611 -0.5335 -0.7392
 5021SOL     OW15382   3.651   4.789   1.094  0.0269 -0.3995  0.2518
 5021SOL    HW115383   3.597   4.811   1.175 -0.5128 -1.2508  0.1366
 5021SOL    HW215384   3.619   4.844   1.017  0.5865  0.4595  0.6251
 5022SOL     OW15385   4.743   5.526   1.208  0.0954  0.3584  0.3642
 5022SOL    HW115386   4.759   5.548   1.112 -0.6629  1.7926  0.5406
 5022SOL    HW215387   4.686   5.444   1.214 -0.8586  0.9422 -0.4538
 5023SOL     OW15388   3.796   4.128   2.310 -0.5706  0.1061  0.4062
 5023SOL    HW115389   3.700   4.104   2.327 -1.1583 -0.2825 -2.8123
 5023SOL    HW215390   3.801   4.193   2.235  1.7204 -0.1057  0.3025
 5024SOL     OW15391   4.132   5.143   5.484  0.1154 -0.1865  0.3065
 5024SOL    HW115392   4.227   5.122   5.460  0.1777 -1.0874  1.2827
 5024SOL    HW215393   4.094   5.069   5.540 -2.2111 -1.4429 -2.6542
 5025SOL     OW15394   4.277   0.037   0.515  0.8384 -0.3691  0.7850
 5025SOL    HW115395   4.268  -0.060   0.539  1.1572 -0.9911 -1.3778
 5025SOL    HW215396   4.321   0.045   0.425 -1.0665  1.7044 -0.0566
 5026SOL     OW15397   0.027   3.962   5.158  0.2590 -0.2217  0.0939
 5026SOL    HW115398   0.048   4.056   5.131 -1.0564 -0.3412 -1.4836
 5026SOL    HW215399   0.007   3.959   5.256  2.0479  0.8005  0.5291
 5027SOL     OW15400   3.415   0.312   0.931  0.3956 -0.1233 -0.1486
 5027SOL    HW115401   3.381   0.274   0.845  0.6453  2.2583 -1.3975
 5027SOL    HW215402   3.510   0.287   0.944 -0.1607 -2.0613  0.4412
 5028SOL     OW15403   0.238   1.328   0.313  0.1104  0.0202  0.6301
 5028SOL    HW115404   0.247   1.261   0.387 -1.0174 -1.7308 -0.7353
 5028SOL    HW215405   0.283   1.293   0.231  0.3725  1.4262  0.1476
 5029SOL     OW15406   3.486   3.417   4.684 -0.3031  0.5557 -0.4455
 5029SOL    HW115407   3.511   3.400   4.588 -0.2603  2.4606 -0.8165
 5029SOL    HW215408   3.400   3.467   4.687 -2.2784 -2.6485  0.7061
 5030SOL     OW15409   5.132   4.323   1.386  0.2710  0.1839 -0.3708
 5030SOL    HW115410   5.157   4.307   1.481 -0.9141 -0.5127 -0.1599
 5030SOL    HW215411   5.185   4.261   1.327 -0.0255 -0.3874 -0.0420
 5031SOL     OW15412   5.065   3.855   4.767 -0.1251 -0.1884 -0.0940
 5031SOL    HW115413   5.060   3.803   4.852 -1.7618  1.2088  0.7083
 5031SOL    HW215414   4.973   3.869   4.730  0.2219  2.1770 -0.2170
 5032SOL     OW15415   4.253   3.548   2.043 -0.5081 -0.7053 -0.5363
 5032SOL    HW115416   4.287   3.631   1.998 -1.9744 -0.0034 -0.3814
 5032SOL    HW215417   4.167   3.521   2.002 -0.2078 -1.9757 -0.3518
 5033SOL     OW15418   4.875   0.167   1.283  0.0359 -0.1973  0.2213
 5033SOL    HW115419   4.840   0.086   1.236 -0.8338 -0.7842  1.7879
 5033SOL    HW215420   4.844   0.249   1.235 -3.2559 -0.6920  1.2594
 5034SOL     OW15421   3.812   4.834   2.094 -0.3117 -0.2214  0.7470
 5034SOL    HW115422   3.793   4.795   2.003 -1.6977  0.4100  0.7309
 5034SOL    HW215423   3.899   4.799   2.128 -0.3849 -1.4672 -0.2721
 5035SOL     OW15424   3.775   4.533   1.040  0.1865  0.2158  0.2945
 5035SOL    HW115425   3.736   4.623   1.057 -0.2592 -0.0226  0.5466
 5035SOL    HW215426   3.722   4.463   1.088  0.6050 -0.1711  0.2099
 5036SOL     OW15427   4.368   2.799   1.775 -0.2851 -0.2404 -0.0804
 5036SOL    HW115428   4.292   2.831   1.831  0.1906  0.2269  0.3099
 5036SOL    HW215429   4.445   2.863   1.784  0.2640 -0.8763 -0.2137
 5037SOL     OW15430   4.429   3.184   0.390 -0.0488  0.0805 -0.3203
 5037SOL    HW115431   4.386   3.175   0.480  1.7567  0.4025  0.6228
 5037SOL    HW215432   4.510   3.125   0.385 -0.0807  0.1235 -1.7145
 5038SOL     OW15433   4.297   4.047   0.122  0.2248 -0.6197  0.3177
 5038SOL    HW115434   4.271   3.950   0.125 -0.2223 -0.4969  2.5670
 5038SOL    HW215435   4.269   4.091   0.207  1.6111  1.2019 -0.1105
 5039SOL     OW15436   3.660   3.075   4.224  0.7412  0.2059  0.3063
 5039SOL    HW115437   3.655   3.082   4.124  0.5243 -1.4308  0.1736
 5039SOL    HW215438   3.734   3.134   4.258 -0.2057  2.0068 -0.6386
 5040SOL     OW15439   4.314   3.652   0.281  0.1138  0.4720 -0.2901
 5040SOL    HW115440   4.317   3.689   0.374 -1.6247  0.4835 -0.1949
 5040SOL    HW215441   4.378   3.576   0.273 -0.3561 -0.1174  1.1998
 5041SOL     OW15442   5.523   4.148   2.159 -0.2185  0.7028 -0.3087
 5041SOL    HW115443   5.529   4.061   2.112 -4.2900 -0.0116  0.1586
 5041SOL    HW215444   5.535   4.134   2.257  2.1837  1.2573 -0.4579
 5042SOL     OW15445   0.556   0.304   0.092  0.3493 -0.1005  0.7681
 5042SOL    HW115446   0.578   0.229   0.028 -1.1227  1.0728 -1.2294
 5042SOL    HW215447   0.608   0.291   0.176  1.2366 -2.5760 -0.0448
 5043SOL     OW15448   4.016   4.205   0.088 -0.2632 -0.1996 -0.7324
 5043SOL    HW115449   4.082   4.168   0.154 -0.9444 -1.1466 -0.5480
 5043SOL    HW215450   4.064   4.243   0.009  0.5542  0.7458  0.2041
 5044SOL     OW15451   4.534   3.954   0.972 -0.1299 -0.0988  0.0472
 5044SOL    HW115452   4.501   4.042   0.939  0.0722  0.2253  0.7021
 5044SOL    HW215453   4.457   3.891   0.981 -0.2499 -0.0538 -0.5946
 5045SOL     OW15454   3.963   3.676   0.340 -0.5577  0.1864 -0.3052
 5045SOL    HW115455   4.010   3.597   0.379 -0.2972  0.0167 -0.9581
 5045SOL    HW215456   4.018   3.758   0.356 -1.1149  0.3482  0.9119
 5046SOL     OW15457   4.539   3.582   0.514 -0.0465  0.6872  0.0084
 5046SOL    HW115458   4.623   3.544   0.553  0.2460  1.2306 -0.0940
 5046SOL    HW215459   4.516   3.532   0.430  1.1233  1.6524 -0.9123
 5047SOL     OW15460   3.988   3.587   1.732  0.1876  0.1023  0.3762
 5047SOL    HW115461   4.004   3.686   1.727  0.4921  0.0372  0.0662
 5047SOL    HW215462   4.034   3.542   1.656  0.2404 -0.3040  0.6462
 5048SOL     OW15463   3.695   4.006   0.642 -0.2993 -0.0380 -0.0128
 5048SOL    HW115464   3.691   4.026   0.740  0.7411  0.6789 -0.0944
 5048SOL    HW215465   3.743   3.919   0.628 -1.4537 -0.7238  0.1524
 5049SOL     OW15466   3.971   2.894   0.757  0.3560  0.3213  0.9080
 5049SOL    HW115467   4.064   2.882   0.790  0.7722 -0.1306 -0.4098
 5049SOL    HW215468   3.930   2.805   0.738 -0.7692  0.4365  2.5341
 5050SOL     OW15469   4.532   4.661   1.431 -0.4444 -0.1582  0.3111
 5050SOL    HW115470   4.521   4.689   1.335 -1.3825 -1.3175  0.0497
 5050SOL    HW215471   4.590   4.727   1.479 -0.4916  0.7902 -0.8893
 5051SOL     OW15472   4.719   3.530   5.336  0.0764  0.1061  0.2220
 5051SOL    HW115473   4.756   3.448   5.381 -0.9381 -0.6267 -0.2500
 5051SOL    HW215474   4.653   3.575   5.396 -1.7059 -1.1879 -0.6726
 5052SOL     OW15475   4.977   4.488   0.314  0.4417 -0.2597  0.2182
 5052SOL    HW115476   4.929   4.461   0.231 -2.2761  0.9611  1.2748
 5052SOL    HW215477   4.947   4.431   0.390  3.8613 -2.2506  0.2721
 5053SOL     OW15478   3.461   0.243   4.931 -0.4063  0.0015  0.4577
 5053SOL    HW115479   3.452   0.201   4.840  0.0965 -1.3756  1.0211
 5053SOL    HW215480   3.402   0.195   4.996  0.3826 -0.0219  1.1747
 5054SOL     OW15481   4.982   4.901   0.898 -0.4391 -0.1589  0.2654
 5054SOL    HW115482   4.915   4.973   0.879 -0.0380 -0.1471 -1.2508
 5054SOL    HW215483   4.944   4.812   0.871 -0.1861 -0.2632  0.2532
 5055SOL     OW15484   0.024   4.632   1.095  0.5005 -0.6044  0.4294
 5055SOL    HW115485   0.084   4.701   1.135  2.2734 -1.6420 -0.3527
 5055SOL    HW215486  -0.006   4.569   1.167 -1.4136  1.0740  1.2204
 5056SOL     OW15487   3.615   4.173   0.273 -0.6472  0.4502 -0.7351
 5056SOL    HW115488   3.670   4.241   0.322  0.2831 -0.6581 -0.1923
 5056SOL    HW215489   3.668   4.089   0.261 -1.7846 -0.2107 -1.3434
 5057SOL     OW15490   0.960   5.147   1.782  0.6373 -0.1082 -0.2143
 5057SOL    HW115491   0.962   5.137   1.882 -2.7518  0.5189  0.0247
 5057SOL    HW215492   0.936   5.059   1.741  0.4897 -0.0010 -0.3580
 5058SOL     OW15493   5.517   4.941   1.000  0.1861  0.0833  0.4232
 5058SOL    HW115494   5.519   5.037   1.029  0.9842  0.1782  0.0986
 5058SOL    HW215495   5.552   4.934   0.906 -0.0269 -0.5026  0.3839
 5059SOL     OW15496   0.276   5.529   1.125  0.4811 -0.5934  0.8359
 5059SOL    HW115497   0.363   5.573   1.149  0.6118 -0.1414 -0.4245
 5059SOL    HW215498   0.259   5.539   1.027 -2.2645  1.6791  1.4000
 5060SOL     OW15499   5.035   4.410   0.848 -0.0755 -0.6952 -0.0044
 5060SOL    HW115500   5.091   4.379   0.770 -0.4306 -1.3921  0.0100
 5060SOL    HW215501   5.095   4.430   0.926  0.6268  2.8270 -1.2774
 5061SOL     OW15502   5.303   4.373   0.336 -0.1500 -0.1806  0.3877
 5061SOL    HW115503   5.359   4.295   0.367 -0.8344 -0.8746 -0.0775
 5061SOL    HW215504   5.273   4.426   0.415  0.0225 -0.6070  0.7448
 5062SOL     OW15505   4.589   4.515   0.977  0.5138 -0.0125 -0.2774
 5062SOL    HW115506   4.608   4.518   0.879 -0.8978  1.5223 -0.5409
 5062SOL    HW215507   4.672   4.539   1.028  1.0865 -0.2131 -1.1087
 5063SOL     OW15508   5.499   4.576   2.339 -0.2796  0.3589 -0.0182
 5063SOL    HW115509   5.476   4.510   2.267 -0.7930 -0.1345  0.5874
 5063SOL    HW215510   5.421   4.587   2.400 -0.1438  1.4160 -0.0123
 5064SOL     OW15511   4.665   4.466   0.591  0.5042 -0.8924 -0.2667
 5064SOL    HW115512   4.746   4.418   0.557  1.1175 -0.7677  0.9702
 5064SOL    HW215513   4.688   4.561   0.611 -0.1382 -0.6649 -0.5826
 5065SOL     OW15514   4.395   5.000   1.898  0.0031  0.2436  0.1470
 5065SOL    HW115515   4.427   5.088   1.863 -0.3752  0.3441  0.0434
 5065SOL    HW215516   4.472   4.937   1.908  0.4243  0.9003  1.1560
 5066SOL     OW15517   5.103   0.009   1.590 -0.1621 -0.0146 -0.1044
 5066SOL    HW115518   5.170  -0.008   1.518 -2.1570  0.0683 -2.1008
 5066SOL    HW215519   5.070   0.104   1.584 -1.2361 -0.3566  0.1036
 5067SOL     OW15520   3.461  -0.026   1.347  0.8326  0.5844 -0.0790
 5067SOL    HW115521   3.423   0.065   1.365  0.9800  0.2686  1.9840
 5067SOL    HW215522   3.547  -0.036   1.396 -0.3773 -1.5206  1.7709
 5068SOL     OW15523   3.773   4.893   4.909  0.4086  0.2326 -0.3367
 5068SOL    HW115524   3.702   4.866   4.845  0.1686  0.3531 -0.1234
 5068SOL    HW215525   3.741   4.876   5.003  0.9553 -0.4353 -0.2595
 5069SOL     OW15526   4.488   4.723   1.158  0.3316 -0.2878  0.5371
 5069SOL    HW115527   4.539   4.654   1.107  0.7069  0.2173  0.2162
 5069SOL    HW215528   4.393   4.724   1.127  0.4841 -0.1985  0.0571
 5070SOL     OW15529   5.358   4.373   2.167  0.1963  0.3138  0.0385
 5070SOL    HW115530   5.416   4.298   2.134  0.3559  0.4535  0.0009
 5070SOL    HW215531   5.314   4.347   2.253 -0.2299 -0.0595 -0.2824
 5071SOL     OW15532   5.008   0.172   0.447  0.2615 -0.1610 -0.1871
 5071SOL    HW115533   4.991   0.251   0.505 -0.6284 -1.8620  2.0321
 5071SOL    HW215534   5.086   0.120   0.483  0.7207 -0.4225 -1.4908
 5072SOL     OW15535   4.457   2.950   5.512  0.5924  0.0812 -0.0828
 5072SOL    HW115536   4.423   2.872   5.460 -1.9966 -0.2073  1.8733
 5072SOL    HW215537   4.511   2.918   5.590  0.0109  0.2615  0.3977
 5073SOL     OW15538   4.791   4.628   1.107  0.3347 -0.1095 -0.4562
 5073SOL    HW115539   4.805   4.727   1.113  0.1139 -0.1185  0.2836
 5073SOL    HW215540   4.864   4.581   1.157  0.4129 -0.3244 -0.7660
 5074SOL     OW15541   4.114   4.497   1.522  0.3231  0.1220  0.1645
 5074SOL    HW115542   4.015   4.495   1.533  0.4341  1.6110  1.8895
 5074SOL    HW215543   4.152   4.408   1.547 -0.4345  0.1768  1.6357
 5075SOL     OW15544   5.433   3.986   1.865 -0.4940  0.1372 -0.0265
 5075SOL    HW115545   5.403   4.053   1.798 -0.0117  1.6369  1.1834
 5075SOL    HW215546   5.529   3.964   1.849 -0.0187  1.4299  0.8451
 5076SOL     OW15547   5.286   3.968   3.629 -0.4621 -0.0769 -0.2523
 5076SOL    HW115548   5.262   3.999   3.720 -0.2687  1.7221 -0.7781
 5076SOL    HW215549   5.230   4.014   3.561 -1.8019 -2.6380 -1.0188
 5077SOL     OW15550   3.922   4.421   1.941 -0.5590 -0.0275  0.1625
 5077SOL    HW115551   3.909   4.515   1.908 -0.4447  0.3437  1.1236
 5077SOL    HW215552   3.994   4.377   1.888  1.2898  1.3543  1.3755
 5078SOL     OW15553   3.975   4.464   0.856  0.1133  0.1318 -0.3926
 5078SOL    HW115554   3.899   4.494   0.912  0.2406 -1.5713  0.7703
 5078SOL    HW215555   4.026   4.543   0.822 -1.5188  1.2548 -0.3030
 5079SOL     OW15556   4.785   3.129   0.720 -0.4675 -0.1759 -0.2480
 5079SOL    HW115557   4.828   3.202   0.773 -0.3965  0.1758 -0.7795
 5079SOL    HW215558   4.685   3.135   0.730 -0.4703  0.1021 -0.4217
 5080SOL     OW15559   5.161   3.136   0.413  0.0698  0.4211  0.0683
 5080SOL    HW115560   5.164   3.046   0.457 -1.2017  0.4854  0.3488
 5080SOL    HW215561   5.069   3.174   0.423  0.2043  1.1543 -1.2455
 5081SOL     OW15562   4.286   3.494   0.628 -0.4718  0.2102 -0.1315
 5081SOL    HW115563   4.239   3.573   0.668  0.4521 -0.4236  2.3947
 5081SOL    HW215564   4.378   3.520   0.600  0.0174 -0.0307  1.1759
 5082SOL     OW15565   2.014   5.004   1.542 -0.0903 -0.2454  0.0481
 5082SOL    HW115566   2.036   4.965   1.452 -1.2708 -0.3653 -0.1955
 5082SOL    HW215567   2.094   5.054   1.576  1.4476 -2.7512  0.3322
 5083SOL     OW15568   4.641   4.933   1.044  0.4489 -0.3795 -0.5708
 5083SOL    HW115569   4.728   4.920   1.092  0.9131 -3.0042 -1.9977
 5083SOL    HW215570   4.573   4.868   1.079  0.3216 -1.2241 -2.2918
 5084SOL     OW15571   0.613   5.040   1.228 -0.0646 -0.3060 -0.6644
 5084SOL    HW115572   0.578   5.059   1.137 -1.1886 -1.9866 -0.6106
 5084SOL    HW215573   0.629   4.942   1.239 -0.4110 -0.2072  1.1008
 5085SOL     OW15574   4.759   3.947   1.623 -0.3526  0.1695 -0.5818
 5085SOL    HW115575   4.834   4.013   1.620 -0.2801  0.0818 -0.6961
 5085SOL    HW215576   4.698   3.962   1.545  0.7203 -1.1435 -1.7207
 5086SOL     OW15577   4.234   3.853   5.151  0.2147  0.3617 -0.1747
 5086SOL    HW115578   4.240   3.876   5.248  2.4687 -1.3184  0.1607
 5086SOL    HW215579   4.147   3.806   5.133 -0.6547  1.5464  0.7904
 5087SOL     OW15580   4.293   3.959   1.592 -0.0082 -0.0007 -0.4342
 5087SOL    HW115581   4.284   4.053   1.560 -1.2166 -0.2558 -0.8958
 5087SOL    HW215582   4.208   3.909   1.574 -0.5820 -0.3302  2.6563
 5088SOL     OW15583   4.998   4.056   2.667 -0.0398  0.1850  0.2552
 5088SOL    HW115584   5.070   4.082   2.731 -1.2219  0.0819  1.6576
 5088SOL    HW215585   4.941   3.984   2.707 -0.1837 -0.6457 -1.3429
 5089SOL     OW15586   5.582   1.014   1.529  0.2167  0.4382 -0.2086
 5089SOL    HW115587   5.484   1.002   1.548 -0.2356 -0.5035 -2.7741
 5089SOL    HW215588   5.636   0.960   1.594 -1.1158 -1.6341 -0.7517
 5090SOL     OW15589   4.320   4.367   2.011  0.2223 -0.2512  0.3062
 5090SOL    HW115590   4.354   4.424   1.936  0.3121 -1.9609 -0.9992
 5090SOL    HW215591   4.357   4.401   2.098  0.4324  1.5213 -0.4394
 5091SOL     OW15592   5.175   5.054   4.539  0.3118 -0.0306  0.2592
 5091SOL    HW115593   5.183   5.138   4.593 -0.3224 -1.0748  2.0814
 5091SOL    HW215594   5.090   5.008   4.564 -1.0616  0.3921 -3.1473
 5092SOL     OW15595   4.706   5.544   5.135 -0.4867  0.2119 -0.3776
 5092SOL    HW115596   4.735   5.491   5.055 -1.9508 -1.6681  0.2460
 5092SOL    HW215597   4.679   5.636   5.106  1.4117  0.4445 -1.6203
 5093SOL     OW15598   4.295   0.235   1.124  0.1708  0.0270  0.8903
 5093SOL    HW115599   4.270   0.139   1.140  1.1377 -0.2807  0.6028
 5093SOL    HW215600   4.394   0.243   1.111 -0.1479  0.6163 -2.0503
 5094SOL     OW15601   3.786   4.067   0.052 -0.6571 -0.0451  0.4557
 5094SOL    HW115602   3.699   4.115   0.062 -0.3614  0.6277 -0.1278
 5094SOL    HW215603   3.861   4.131   0.066 -0.2546 -0.1669 -0.9644
 5095SOL     OW15604   4.201   3.785   0.096  0.3699  0.2552 -0.5327
 5095SOL    HW115605   4.238   3.728   0.169 -0.4144  1.7155  1.0704
 5095SOL    HW215606   4.120   3.741   0.057  0.2569 -0.1239  0.1151
 5096SOL     OW15607   0.354   5.226   1.062  0.0242  0.0304 -0.0521
 5096SOL    HW115608   0.309   5.159   1.121  1.3631 -1.0625 -0.1897
 5096SOL    HW215609   0.339   5.318   1.097  0.2618 -0.5440  1.6579
 5097SOL     OW15610   4.077   4.090   2.440 -0.3193 -0.1578  0.0388
 5097SOL    HW115611   4.132   4.015   2.405  1.5819  2.0184 -2.0090
 5097SOL    HW215612   3.990   4.093   2.390  0.1363 -0.2685 -0.7810
 5098SOL     OW15613   3.873   0.035   0.848  0.3590 -0.7093 -0.6010
 5098SOL    HW115614   3.819  -0.031   0.795  0.4700 -1.3454  0.0595
 5098SOL    HW215615   3.967   0.002   0.855  0.3779 -0.5621 -0.1264
 5099SOL     OW15616   3.592   5.435   0.259 -0.0977 -0.1510 -0.4377
 5099SOL    HW115617   3.558   5.519   0.217  0.8087  1.9676  2.7255
 5099SOL    HW215618   3.515   5.376   0.282 -1.5397  2.6114  2.6974
 5100SOL     OW15619   4.260   0.673   1.757 -0.0731  0.2122  0.4235
 5100SOL    HW115620   4.278   0.633   1.846  1.2823 -1.2235 -0.4325
 5100SOL    HW215621   4.347   0.688   1.709 -0.7511  1.2507 -0.5282
 5101SOL     OW15622   0.413   3.962   2.583  0.2913  0.1887  0.5094
 5101SOL    HW115623   0.368   3.928   2.666  3.5905  0.8973  2.7751
 5101SOL    HW215624   0.429   4.060   2.591 -2.2547  1.0376 -2.5840
 5102SOL     OW15625   4.028   4.864   1.716  0.0911 -1.0754 -0.2369
 5102SOL    HW115626   4.103   4.803   1.689 -1.0835 -3.5507  1.6989
 5102SOL    HW215627   4.059   4.923   1.791  0.4778 -1.1540 -0.3327
 5103SOL     OW15628   5.334   3.797   2.362  0.4437  0.3596 -0.2632
 5103SOL    HW115629   5.389   3.825   2.440 -0.0675  1.0386 -0.1421
 5103SOL    HW215630   5.280   3.874   2.329  0.7678  0.1224 -1.3885
 5104SOL     OW15631   4.738   4.977   5.229 -0.1592  0.1243  0.1807
 5104SOL    HW115632   4.730   4.903   5.296 -1.3816 -0.2749 -0.3672
 5104SOL    HW215633   4.662   4.971   5.164  2.0344 -0.7063 -2.5051
 5105SOL     OW15634   5.269   0.171   0.858 -0.1634  0.3938  0.0505
 5105SOL    HW115635   5.321   0.193   0.776  0.8845 -0.6700  0.3959
 5105SOL    HW215636   5.328   0.177   0.938  0.1574 -3.0228  0.2260
 5106SOL     OW15637   0.617   3.917   2.422  0.5969  0.6085 -0.0819
 5106SOL    HW115638   0.546   3.911   2.492  0.9511 -0.7209  0.1896
 5106SOL    HW215639   0.703   3.946   2.465  0.5988  0.6488 -0.1139
 5107SOL     OW15640   3.513   5.326   1.818 -0.0780  0.6430  0.0121
 5107SOL    HW115641   3.571   5.382   1.877 -0.2447 -0.5398  1.3313
 5107SOL    HW215642   3.537   5.230   1.829 -2.0805  0.1469  0.3460
 5108SOL     OW15643   3.602   4.702   0.627 -0.0458  0.2716  0.0614
 5108SOL    HW115644   3.575   4.609   0.600  0.1009 -0.0054  0.8567
 5108SOL    HW215645   3.696   4.719   0.597  0.2303 -0.1521  0.6788
 5109SOL     OW15646   3.828   4.072   2.842  0.2291  0.2038  0.4591
 5109SOL    HW115647   3.842   4.106   2.935  0.9631  0.1535  0.3737
 5109SOL    HW215648   3.901   4.106   2.783  0.3236 -0.5726  0.1202
 5110SOL     OW15649   4.475   4.102   0.453 -0.1877 -0.2314 -0.5976
 5110SOL    HW115650   4.460   4.003   0.446 -0.8847 -0.0768 -1.4528
 5110SOL    HW215651   4.525   4.134   0.373  0.4452  0.0432 -0.1011
 5111SOL     OW15652   4.939   4.628   2.076 -0.0458  0.7028 -0.0678
 5111SOL    HW115653   4.940   4.545   2.019 -0.3420  0.8365 -0.2710
 5111SOL    HW215654   4.973   4.606   2.167  1.9038  0.8004 -0.7277
 5112SOL     OW15655   3.559   4.112   1.146 -0.6406  0.7954 -0.2268
 5112SOL    HW115656   3.616   4.191   1.169 -1.5064  1.7141 -1.0989
 5112SOL    HW215657   3.481   4.108   1.208 -0.4796  0.4923 -0.0435
 5113SOL     OW15658   4.380   5.258   5.158  0.0092  0.3792  0.2045
 5113SOL    HW115659   4.401   5.331   5.224 -0.7198  0.4122  0.4117
 5113SOL    HW215660   4.288   5.272   5.121  1.1116  1.5250 -2.3702
 5114SOL     OW15661   0.160   0.735   1.284 -0.3892 -0.2787  0.3312
 5114SOL    HW115662   0.199   0.751   1.374  0.1453  0.0476  0.0477
 5114SOL    HW215663   0.232   0.710   1.220 -0.6686  0.1381 -0.1560
 5115SOL     OW15664   4.839   5.423   0.585 -0.5764 -0.1478  0.2557
 5115SOL    HW115665   4.886   5.483   0.650 -1.5544  0.7687  0.1525
 5115SOL    HW215666   4.819   5.474   0.502  1.6081 -1.5983 -1.2560
 5116SOL     OW15667   4.647   0.116   1.725  0.2393 -0.0959  0.3413
 5116SOL    HW115668   4.683   0.023   1.723  0.1401 -0.1302  0.1540
 5116SOL    HW215669   4.722   0.181   1.723  0.3474 -0.1740  1.3293
 5117SOL     OW15670   4.276   5.253   1.694 -0.0039 -0.3682  0.7049
 5117SOL    HW115671   4.181   5.228   1.674  0.4133 -2.5289  1.0845
 5117SOL    HW215672   4.334   5.230   1.616  0.3799 -0.2738  0.9569
 5118SOL     OW15673   4.706   4.130   2.137 -0.0522 -0.3855  0.0712
 5118SOL    HW115674   4.773   4.057   2.146 -1.1199 -1.9845 -3.3329
 5118SOL    HW215675   4.659   4.122   2.049 -2.7258  2.3612  1.0622
 5119SOL     OW15676   5.250   3.735   0.882 -0.2247  0.0784 -0.2591
 5119SOL    HW115677   5.162   3.772   0.913  0.2299  1.3683 -0.4515
 5119SOL    HW215678   5.243   3.710   0.785 -0.1685  0.8879 -0.4756
 5120SOL     OW15679   0.169   1.810   5.586 -0.7118  0.6139 -0.0736
 5120SOL    HW115680   0.258   1.827   5.542 -0.7161  0.4316 -0.1513
 5120SOL    HW215681   0.164   1.715   5.616 -0.1840  1.0619  1.5116
 5121SOL     OW15682   3.688   0.133   2.502  0.1766  0.8228 -0.0255
 5121SOL    HW115683   3.647   0.097   2.418 -0.0281  1.1560 -0.0698
 5121SOL    HW215684   3.716   0.228   2.488 -0.2371  1.0118  0.4050
 5122SOL     OW15685   3.432   3.858   0.125 -0.3898  0.0484 -0.3713
 5122SOL    HW115686   3.358   3.795   0.145  0.0382 -0.4388 -0.2937
 5122SOL    HW215687   3.485   3.875   0.208 -1.2599  1.5244 -0.0859
 5123SOL     OW15688   3.960   5.284   0.801 -0.2021  0.1478  0.2534
 5123SOL    HW115689   3.934   5.187   0.801 -0.1718  0.1373  0.5546
 5123SOL    HW215690   3.891   5.336   0.751  0.8657 -0.2918 -1.7985
 5124SOL     OW15691   3.828   5.313   0.196  0.2492  0.2262  0.2743
 5124SOL    HW115692   3.909   5.370   0.186  1.2193 -1.2838 -1.2969
 5124SOL    HW215693   3.754   5.365   0.239  2.0709  1.5978  1.9049
 5125SOL     OW15694   0.419   0.762   0.876 -0.4409 -0.1636  0.3552
 5125SOL    HW115695   0.452   0.813   0.956 -0.7266 -0.6628  0.8035
 5125SOL    HW215696   0.334   0.803   0.843 -0.3885 -0.0303  0.3872
 5126SOL     OW15697   5.062   3.513   1.361 -0.3594  0.0756 -0.0782
 5126SOL    HW115698   5.126   3.580   1.398  0.0479  0.9327 -2.1916
 5126SOL    HW215699   5.098   3.421   1.376  0.5290  0.4665  0.2608
 5127SOL     OW15700   4.382   4.629   4.762 -0.1457 -0.0301 -0.0519
 5127SOL    HW115701   4.359   4.721   4.793  0.5461  0.0071  0.3860
 5127SOL    HW215702   4.363   4.564   4.836 -0.4735 -0.2216 -0.3010
 5128SOL     OW15703   4.756   4.868   0.145  0.2731  0.2053 -0.0992
 5128SOL    HW115704   4.746   4.811   0.226 -0.3251 -0.7282 -0.8080
 5128SOL    HW215705   4.833   4.836   0.090 -1.0086 -0.9706 -1.2926
 5129SOL     OW15706   2.775   0.297   1.829 -0.0738 -0.0860 -0.0506
 5129SOL    HW115707   2.786   0.361   1.753  2.0480 -0.9006 -0.5072
 5129SOL    HW215708   2.775   0.347   1.915  1.1889  0.5887 -0.4150
 5130SOL     OW15709   3.521   4.651   5.134  0.1253 -0.3155 -0.2128
 5130SOL    HW115710   3.592   4.719   5.154 -0.0618 -0.0171 -0.5449
 5130SOL    HW215711   3.473   4.626   5.218  1.5848 -1.6207  0.2882
 5131SOL     OW15712   5.222   4.759   1.317 -0.9539  0.0803 -0.8166
 5131SOL    HW115713   5.231   4.730   1.221 -0.7924  0.2169 -0.8432
 5131SOL    HW215714   5.206   4.858   1.320  3.0454  0.9238 -0.6001
 5132SOL     OW15715   4.594   0.227   0.837 -0.5062  0.4725 -0.2805
 5132SOL    HW115716   4.550   0.137   0.839  1.1959 -0.3976  0.5957
 5132SOL    HW215717   4.528   0.297   0.865 -1.8535 -0.4849 -0.9215
 5133SOL     OW15718   5.182   5.364   1.692  0.1744  0.2966 -0.0009
 5133SOL    HW115719   5.208   5.303   1.617  3.2153  1.1819  0.1686
 5133SOL    HW215720   5.162   5.455   1.655  0.6226  0.4623  0.1575
 5134SOL     OW15721   5.045   4.494   1.199  0.4434 -0.3865 -0.0813
 5134SOL    HW115722   5.127   4.492   1.142  0.7460  1.3869  0.2098
 5134SOL    HW215723   5.063   4.446   1.285  0.8158 -0.9154 -0.4480
 5135SOL     OW15724   4.716   1.974   0.553  0.5432  0.4178 -0.3211
 5135SOL    HW115725   4.767   1.981   0.467  0.8896 -0.3295 -0.1852
 5135SOL    HW215726   4.707   1.877   0.579 -0.5994  0.5594 -0.1293
 5136SOL     OW15727   4.218   0.219   0.692 -0.3501  0.5370 -0.1129
 5136SOL    HW115728   4.223   0.150   0.620 -1.8392 -0.0353  0.2877
 5136SOL    HW215729   4.198   0.308   0.653  0.0709  0.4648 -0.5007
 5137SOL     OW15730   4.015   5.141   1.620 -0.2792 -0.1412  0.5112
 5137SOL    HW115731   4.028   5.043   1.606 -0.4003 -0.1676  0.5825
 5137SOL    HW215732   3.925   5.157   1.660 -0.5830  0.0589 -0.2336
 5138SOL     OW15733   4.444   4.568   0.383  0.0418  0.2699  0.1656
 5138SOL    HW115734   4.423   4.506   0.459  0.3510 -1.5698 -1.1804
 5138SOL    HW215735   4.529   4.616   0.404  0.5690 -0.8212  0.6723
 5139SOL     OW15736   4.164   4.065   0.836  0.1143 -0.1966  0.0822
 5139SOL    HW115737   4.244   4.122   0.819 -0.3013  0.6914  0.9480
 5139SOL    HW215738   4.172   3.980   0.785  0.4119  0.9316 -1.8609
 5140SOL     OW15739   5.451   3.860   2.600 -0.1680  0.6392  0.0217
 5140SOL    HW115740   5.534   3.805   2.597  0.0057  0.4974  3.2125
 5140SOL    HW215741   5.473   3.955   2.580  0.5734  0.4199 -0.2156
 5141SOL     OW15742   2.939   4.294   4.849  0.8805  0.6100 -0.2088
 5141SOL    HW115743   2.894   4.230   4.787  0.1180  2.3860 -1.5588
 5141SOL    HW215744   3.023   4.328   4.806  0.6230  1.4538 -0.0618
 5142SOL     OW15745   4.481   5.396   1.593  0.5352 -0.4742  0.0956
 5142SOL    HW115746   4.492   5.317   1.653 -1.0872 -2.1540 -1.6801
 5142SOL    HW215747   4.390   5.435   1.606  1.5271  1.5719  1.3976
 5143SOL     OW15748   3.986   3.637   0.046  0.0346 -0.2499  0.2897
 5143SOL    HW115749   3.936   3.556   0.016  0.1904 -0.2549  0.0404
 5143SOL    HW215750   3.970   3.652   0.144  0.6720 -1.0653  0.5324
 5144SOL     OW15751   4.351   0.026   3.375 -0.2153  0.4419  0.5753
 5144SOL    HW115752   4.254   0.050   3.380 -0.1273  0.6499  1.4080
 5144SOL    HW215753   4.402   0.104   3.338 -0.4083  0.1842 -0.2655
 5145SOL     OW15754   4.408   4.480   2.260  0.4091  0.0669 -0.2563
 5145SOL    HW115755   4.402   4.475   2.359  0.4484  1.1165 -0.1931
 5145SOL    HW215756   4.503   4.491   2.232  0.1987  2.3418 -0.2508
 5146SOL     OW15757   4.357   5.264   0.973  0.0111 -0.6454 -0.0610
 5146SOL    HW115758   4.379   5.181   0.922  0.0999 -0.4511 -0.3359
 5146SOL    HW215759   4.318   5.238   1.062 -1.4845 -0.9983 -0.7742
 5147SOL     OW15760   4.011   3.872   1.717 -0.3957 -0.2679  0.4228
 5147SOL    HW115761   4.023   3.918   1.804  1.0953  0.1188  0.0435
 5147SOL    HW215762   3.955   3.928   1.656  2.8935  2.1445 -0.7088
 5148SOL     OW15763   0.459   5.125   0.656 -0.0493  0.4166 -0.2588
 5148SOL    HW115764   0.446   5.064   0.577 -0.3759  1.8020 -1.3319
 5148SOL    HW215765   0.393   5.102   0.727 -0.9592  0.2400 -1.1257
 5149SOL     OW15766   4.213   0.469   1.577  0.0172 -0.7213  0.1811
 5149SOL    HW115767   4.214   0.377   1.618 -1.3677  0.0845  2.1956
 5149SOL    HW215768   4.219   0.538   1.650 -1.6613  0.8003 -1.0390
 5150SOL     OW15769   4.472   4.158   1.225  0.9387  0.0731 -0.6606
 5150SOL    HW115770   4.444   4.063   1.211  0.7835 -0.0871  0.6242
 5150SOL    HW215771   4.572   4.162   1.235  0.8197 -0.1811  0.8186
 5151SOL     OW15772   5.093   4.023   0.118 -0.5209 -0.5490  0.2367
 5151SOL    HW115773   5.146   3.967   0.054 -0.1111 -0.3665  0.4097
 5151SOL    HW215774   5.125   4.118   0.112 -1.6989 -0.1855 -0.5732
 5152SOL     OW15775   3.658   5.125   0.068  0.2806  0.1303  0.0450
 5152SOL    HW115776   3.698   5.046   0.114  0.4191  0.1745  0.0024
 5152SOL    HW215777   3.713   5.206   0.087 -0.4167  0.4159  0.8965
 5153SOL     OW15778   5.450   3.667   2.150  0.5181  0.6904  0.2348
 5153SOL    HW115779   5.535   3.719   2.149 -0.1520  1.8395  0.6737
 5153SOL    HW215780   5.395   3.695   2.229  0.4170 -1.1876  0.8846
 5154SOL     OW15781   5.271   5.539   1.340 -0.3491  0.3065 -0.6041
 5154SOL    HW115782   5.287   5.540   1.241  1.3871 -1.2024 -0.3988
 5154SOL    HW215783   5.292   5.448   1.376 -0.6635  0.9082  1.2167
 5155SOL     OW15784   4.662   0.633   5.584  0.5694  0.1264  0.0801
 5155SOL    HW115785   4.738   0.651   5.646  0.5613 -1.4814  0.6134
 5155SOL    HW215786   4.672   0.541   5.545 -1.6044 -0.5545  0.9692
 5156SOL     OW15787   3.589   1.069   1.917  0.3831  0.0121  0.2906
 5156SOL    HW115788   3.628   1.034   2.002  0.1065  0.1807  0.4868
 5156SOL    HW215789   3.552   1.160   1.932  0.6128  0.1707 -0.0875
 5157SOL     OW15790   4.333   3.752   0.986  0.4430  1.2021  0.3414
 5157SOL    HW115791   4.267   3.747   0.911 -0.5726  0.5418  1.2551
 5157SOL    HW215792   4.370   3.661   1.004 -0.3237  1.1031  1.5011
 5158SOL     OW15793   4.257   4.662   1.023 -0.1790 -0.5721 -0.5547
 5158SOL    HW115794   4.229   4.593   1.090 -1.2940  0.2628 -0.1265
 5158SOL    HW215795   4.237   4.629   0.931 -0.4591 -0.9288 -0.3672
 5159SOL     OW15796   5.430   0.229   0.616 -0.4396  0.1650  0.3378
 5159SOL    HW115797   5.496   0.163   0.651  1.7971  2.3861  0.5701
 5159SOL    HW215798   5.441   0.238   0.517 -2.4131 -1.4903 -0.0902
 5160SOL     OW15799   4.665   4.561   1.908 -0.6057 -0.1536 -0.2091
 5160SOL    HW115800   4.669   4.477   1.854  1.0308  0.1332 -0.5753
 5160SOL    HW215801   4.669   4.539   2.005 -0.7633 -0.5270 -0.2866
 5161SOL     OW15802   2.780   4.391   5.412 -0.1809  0.4011 -0.4106
 5161SOL    HW115803   2.865   4.395   5.360 -0.4484  0.2526 -0.8718
 5161SOL    HW215804   2.737   4.482   5.412  0.0788  0.5251 -0.0029
 5162SOL     OW15805   4.243   0.243   2.721  0.1875  0.7564 -0.1620
 5162SOL    HW115806   4.212   0.166   2.777  0.9006 -0.9138 -1.9475
 5162SOL    HW215807   4.221   0.329   2.768 -2.5139 -0.4245  0.9647
 5163SOL     OW15808   4.977   3.810   0.943  0.2754 -0.2210  0.3629
 5163SOL    HW115809   4.890   3.820   0.991 -0.3248  0.5377 -0.8438
 5163SOL    HW215810   4.969   3.848   0.851  2.1163  0.6270  0.4991
 5164SOL     OW15811   2.601   4.141   0.136  0.2779  0.3717 -0.7269
 5164SOL    HW115812   2.689   4.184   0.119  0.3976  0.8225  0.8232
 5164SOL    HW215813   2.599   4.050   0.095  2.2700 -0.4855  0.9362
 5165SOL     OW15814   0.300   0.675   0.442  0.0107 -0.5670 -0.7128
 5165SOL    HW115815   0.327   0.584   0.411  0.0233 -1.2219  1.0801
 5165SOL    HW215816   0.200   0.684   0.436 -0.0942 -1.0945  0.0209
 5166SOL     OW15817   5.078   4.381   2.128 -0.2531  0.3243 -0.5267
 5166SOL    HW115818   5.047   4.381   2.033 -0.1414  1.6373 -0.5862
 5166SOL    HW215819   5.178   4.381   2.130 -0.2545 -0.0586 -0.3992
 5167SOL     OW15820   3.605   4.472   0.478  0.6261 -0.7171 -0.6640
 5167SOL    HW115821   3.655   4.387   0.465  0.9419 -0.7851  0.7454
 5167SOL    HW215822   3.508   4.458   0.458  0.9515 -0.9254 -2.1636
 5168SOL     OW15823   3.931   4.005   1.010  0.0862 -0.0477  0.0582
 5168SOL    HW115824   4.016   4.039   0.971 -0.4094 -0.0146 -1.0327
 5168SOL    HW215825   3.857   4.018   0.944 -0.9364  0.7229  1.3223
 5169SOL     OW15826   4.542   3.704   1.706  0.0271  0.0395 -0.3565
 5169SOL    HW115827   4.632   3.749   1.702 -0.1969  0.5008 -0.2756
 5169SOL    HW215828   4.477   3.763   1.754 -0.5110  0.0414 -1.0674
 5170SOL     OW15829   4.869   0.820   1.446  0.2387 -0.3919 -0.5394
 5170SOL    HW115830   4.889   0.767   1.528  0.0092 -1.3339 -1.0731
 5170SOL    HW215831   4.801   0.771   1.391 -0.2894  0.6661 -0.8462
 5171SOL     OW15832   0.566   0.342   1.169 -0.1864 -0.0516  0.0872
 5171SOL    HW115833   0.559   0.435   1.205  0.1828 -0.7253  2.0510
 5171SOL    HW215834   0.564   0.277   1.245  0.6489 -1.5993 -1.1517
 5172SOL     OW15835   4.089   3.147   4.265  0.0877 -0.1780 -0.0185
 5172SOL    HW115836   4.152   3.072   4.284 -1.5294 -1.6076 -0.0572
 5172SOL    HW215837   4.006   3.136   4.320 -0.1674  1.6581  0.0465
 5173SOL     OW15838   5.293   3.724   0.592 -0.3343  0.1370 -0.6610
 5173SOL    HW115839   5.228   3.713   0.518 -0.7920  2.1597 -0.6321
 5173SOL    HW215840   5.327   3.819   0.593  2.5290 -0.7895 -0.5990
 5174SOL     OW15841   4.916   5.170   1.321 -0.3959  0.1951  0.1068
 5174SOL    HW115842   4.913   5.244   1.388  0.4730  0.1066  0.2624
 5174SOL    HW215843   4.924   5.209   1.229  0.6594  0.3054  0.2319
 5175SOL     OW15844   4.380   3.915   1.847  0.1129 -0.1477  0.4659
 5175SOL    HW115845   4.344   3.937   1.756  1.4045  0.6353  0.1170
 5175SOL    HW215846   4.304   3.904   1.911 -0.8409 -1.2312 -0.8023
 5176SOL     OW15847   4.274   0.211   1.694  0.4372  0.1600  0.5580
 5176SOL    HW115848   4.292   0.171   1.784  1.2459 -0.1548  0.2599
 5176SOL    HW215849   4.280   0.141   1.624 -0.3358  0.3793  0.2625
 5177SOL     OW15850   3.803   5.535   2.148  0.2469  0.1324  0.5399
 5177SOL    HW115851   3.782   5.579   2.061  0.8886  0.1327  0.3796
 5177SOL    HW215852   3.902   5.521   2.155 -0.0032 -2.1488  0.1683
 5178SOL     OW15853   3.518   4.428   2.982  0.1309  0.1292 -0.0389
 5178SOL    HW115854   3.476   4.346   3.021  0.9602 -0.3911 -0.2257
 5178SOL    HW215855   3.547   4.409   2.888  3.0210 -0.3394  0.8658
 5179SOL     OW15856   3.662   3.871   2.739 -0.3210 -0.0867 -0.5023
 5179SOL    HW115857   3.728   3.939   2.770  0.5082 -0.7281 -0.8280
 5179SOL    HW215858   3.602   3.912   2.669 -1.4517  1.0175  1.0473
 5180SOL     OW15859   4.219   5.127   3.464 -0.2358  0.2994  0.1728
 5180SOL    HW115860   4.208   5.140   3.366 -0.0935  0.2040  0.1433
 5180SOL    HW215861   4.246   5.032   3.482 -2.6915 -0.3911  0.4900
 5181SOL     OW15862   0.450   0.927   2.835 -0.4823 -0.3728 -0.0478
 5181SOL    HW115863   0.379   0.858   2.823 -0.2492 -0.6372  0.0651
 5181SOL    HW215864   0.519   0.893   2.899  0.1700 -0.4568 -0.7768
 5182SOL     OW15865   4.565   4.560   3.781 -0.0581 -0.3267  0.3917
 5182SOL    HW115866   4.492   4.564   3.713  1.5262  0.5463 -1.3194
 5182SOL    HW215867   4.537   4.498   3.855 -2.3883 -0.2424 -0.3214
 5183SOL     OW15868   0.541   4.789   1.534 -0.1765 -0.0826  0.3587
 5183SOL    HW115869   0.452   4.749   1.515 -0.6064  1.4612 -1.2030
 5183SOL    HW215870   0.600   4.779   1.453  0.6552 -0.0550  0.9496
 5184SOL     OW15871   4.754   5.457   1.711  0.2504  0.1597 -0.2098
 5184SOL    HW115872   4.818   5.470   1.635 -0.7864  1.8899 -0.8498
 5184SOL    HW215873   4.668   5.419   1.677 -0.2256  0.9611  0.0634
 5185SOL     OW15874   0.984   4.089   2.988 -0.3080  0.3177  0.0088
 5185SOL    HW115875   0.974   3.995   3.019  0.6291 -0.0547 -0.7414
 5185SOL    HW215876   0.899   4.119   2.944 -1.0927  0.3210  1.4904
 5186SOL     OW15877   4.999   4.999   2.357  0.5349  0.7992  0.0846
 5186SOL    HW115878   4.976   4.972   2.451  1.4383  0.2388  0.1585
 5186SOL    HW215879   5.017   5.098   2.355  1.0572  0.7268  0.6294
 5187SOL     OW15880   4.930   4.487   4.047 -0.1087  0.0382  0.2260
 5187SOL    HW115881   4.976   4.511   3.962 -1.1911  0.0728 -0.3759
 5187SOL    HW215882   4.988   4.511   4.125  0.5293  0.8225 -0.4747
 5188SOL     OW15883   4.704   5.330   3.391  0.0033 -0.6440  0.5523
 5188SOL    HW115884   4.777   5.373   3.444 -0.0839  0.2824 -0.0588
 5188SOL    HW215885   4.616   5.348   3.436 -0.3528  2.1540 -1.0461
 5189SOL     OW15886   3.954   4.028   4.166 -0.0568 -0.4016  0.2522
 5189SOL    HW115887   3.866   4.030   4.120  0.1044 -1.2423 -0.1234
 5189SOL    HW215888   3.988   3.934   4.169  1.1411 -0.0104 -0.2138
 5190SOL     OW15889   4.240   3.855   3.554  0.3881 -0.5744 -0.3594
 5190SOL    HW115890   4.336   3.827   3.549  0.7023  0.4160 -0.0688
 5190SOL    HW215891   4.233   3.952   3.533 -0.7031 -0.8917 -1.5297
 5191SOL     OW15892   0.510   3.694   1.865 -0.1340 -0.3092  0.5539
 5191SOL    HW115893   0.567   3.612   1.861  1.0163  0.4950  0.0007
 5191SOL    HW215894   0.442   3.690   1.791  2.1951  0.8219 -1.8023
 5192SOL     OW15895   4.120   5.403   2.757 -0.9574 -0.0124 -0.0416
 5192SOL    HW115896   4.086   5.309   2.761  0.8874 -0.6812  1.5177
 5192SOL    HW215897   4.176   5.415   2.675 -1.7463 -0.0395 -0.5989
 5193SOL     OW15898   4.445   4.541   2.822 -0.2745  0.3720  0.9196
 5193SOL    HW115899   4.362   4.489   2.845  0.5361 -1.3286  0.1593
 5193SOL    HW215900   4.495   4.562   2.906 -1.2289  1.0411  1.3495
 5194SOL     OW15901   2.825   5.367   1.946  0.1077 -0.6746 -0.5538
 5194SOL    HW115902   2.733   5.385   1.911  0.7105 -0.6994 -2.2121
 5194SOL    HW215903   2.839   5.268   1.953 -0.8160 -0.7086  2.0951
 5195SOL     OW15904   2.153   0.396   2.131  0.0061  0.5235  0.4405
 5195SOL    HW115905   2.126   0.483   2.090 -1.7941 -0.0698  0.2699
 5195SOL    HW215906   2.127   0.395   2.228 -0.7648 -0.1232  0.2370
 5196SOL     OW15907   4.389   5.380   2.133  0.1057 -0.3903 -0.0643
 5196SOL    HW115908   4.318   5.317   2.099 -0.5364  1.0076 -1.4676
 5196SOL    HW215909   4.345   5.461   2.171  0.9514  0.0033  0.0787
 5197SOL     OW15910   3.811   5.087   1.353 -0.1455  0.5798  0.2028
 5197SOL    HW115911   3.812   5.028   1.434 -1.9101  1.2109  0.7184
 5197SOL    HW215912   3.867   5.045   1.281 -0.1697 -0.9796  1.0465
 5198SOL     OW15913   4.535   3.845   2.397  0.5688 -0.1321 -0.3428
 5198SOL    HW115914   4.503   3.773   2.335 -0.8927 -0.0449  0.2674
 5198SOL    HW215915   4.635   3.852   2.391  0.7936 -2.3840 -0.2449
 5199SOL     OW15916   3.373   4.163   3.136  1.1283  0.5257  0.2787
 5199SOL    HW115917   3.294   4.181   3.077  1.7888  0.8472 -0.5262
 5199SOL    HW215918   3.357   4.204   3.226  0.6826  1.1985 -0.0994
 5200SOL     OW15919   0.162   0.834   3.034  0.4603  0.2552 -0.0965
 5200SOL    HW115920   0.242   0.820   3.092 -0.2695 -2.3769  0.3948
 5200SOL    HW215921   0.181   0.801   2.942  1.0169  2.8101 -0.9861
 5201SOL     OW15922   3.254   0.015   2.812 -0.0179  0.2794 -0.4151
 5201SOL    HW115923   3.174   0.003   2.754 -0.2221 -0.7249  0.0421
 5201SOL    HW215924   3.310   0.090   2.777 -1.7179  1.7538 -0.0951
 5202SOL     OW15925   0.840   4.312   2.030 -0.1022  0.4963 -0.6361
 5202SOL    HW115926   0.886   4.235   2.074  0.6748  1.6860  0.7014
 5202SOL    HW215927   0.741   4.297   2.033 -0.2069  1.0107  2.6467
 5203SOL     OW15928   0.204   5.183   2.344  0.3722 -0.1280 -0.4259
 5203SOL    HW115929   0.154   5.227   2.269  0.3864 -0.2187 -0.4879
 5203SOL    HW215930   0.189   5.235   2.428 -0.1500 -0.3718 -0.3620
 5204SOL     OW15931   4.348   4.628   3.345 -0.4649  0.3305 -0.4084
 5204SOL    HW115932   4.342   4.607   3.247  0.0951 -0.3956 -0.2924
 5204SOL    HW215933   4.404   4.559   3.391 -0.0155  1.1350  0.2868
 5205SOL     OW15934   4.865   4.977   2.599 -0.2756  0.4204  0.0720
 5205SOL    HW115935   4.801   5.037   2.550 -3.3624 -3.6049 -1.3990
 5205SOL    HW215936   4.836   4.967   2.694  0.1991  1.1400  0.2991
 5206SOL     OW15937   4.656   4.522   2.178 -0.0341  0.5422  0.2701
 5206SOL    HW115938   4.691   4.615   2.190  1.5091  0.2349 -1.5564
 5206SOL    HW215939   4.725   4.456   2.208 -0.9010 -0.0482  1.0256
 5207SOL     OW15940   4.981   4.042   2.172  0.0959  0.4757 -0.8537
 5207SOL    HW115941   4.974   4.006   2.079  0.0509 -0.5181 -0.4826
 5207SOL    HW215942   5.076   4.065   2.192  0.9783 -3.4170  0.2622
 5208SOL     OW15943   0.081   4.811   2.794 -0.3494 -0.2274 -0.4760
 5208SOL    HW115944   0.112   4.900   2.826  1.4407 -1.3722  1.2364
 5208SOL    HW215945   0.015   4.773   2.859 -0.6172 -0.4065 -0.8497
 5209SOL     OW15946   5.046   4.573   2.323  0.1708 -0.3992 -1.1693
 5209SOL    HW115947   5.085   4.489   2.284  1.0892 -0.5472 -0.0055
 5209SOL    HW215948   5.114   4.616   2.383 -1.2113 -0.2903  0.3909
 5210SOL     OW15949   4.167   0.705   3.896 -0.5600 -0.5174 -0.1866
 5210SOL    HW115950   4.084   0.651   3.880 -1.2833  0.4873  0.0982
 5210SOL    HW215951   4.222   0.661   3.966 -0.7182 -1.3379 -0.5669
 5211SOL     OW15952   4.935   2.453   3.805  0.4042 -0.0448 -0.1003
 5211SOL    HW115953   5.018   2.508   3.805  0.9321 -0.6521 -3.5595
 5211SOL    HW215954   4.859   2.507   3.771 -0.1378 -0.1788  0.8539
 5212SOL     OW15955   0.129   4.018   2.345 -0.6602  0.2785 -0.3770
 5212SOL    HW115956   0.214   3.979   2.381 -1.1657 -0.2671  0.2324
 5212SOL    HW215957   0.057   4.012   2.414 -1.4357 -0.0617 -1.1918
 5213SOL     OW15958   1.098   0.141   4.002  0.2537 -0.0020 -0.6986
 5213SOL    HW115959   1.164   0.087   3.949 -0.1285 -1.5457  0.3273
 5213SOL    HW215960   1.019   0.083   4.025 -0.2424  1.0527  0.3327
 5214SOL     OW15961   4.552   3.935   3.426  0.1484  0.1690  0.4188
 5214SOL    HW115962   4.483   4.002   3.400  0.0423 -0.0720  0.0730
 5214SOL    HW215963   4.580   3.882   3.346  2.2820  1.6479  0.1301
 5215SOL     OW15964   5.251   4.047   2.297  0.3248  0.0078  0.0825
 5215SOL    HW115965   5.284   4.129   2.346 -0.2152  1.1257 -1.3482
 5215SOL    HW215966   5.271   4.056   2.200 -1.9642 -0.3768 -0.4968
 5216SOL     OW15967   0.853   4.338   2.703  0.1163 -0.5170 -0.0824
 5216SOL    HW115968   0.812   4.262   2.753  2.0320 -0.6390  1.4304
 5216SOL    HW215969   0.847   4.421   2.759 -1.3510  0.3343 -1.4336
 5217SOL     OW15970   4.071   4.766   2.154 -0.4312  0.2703 -0.0571
 5217SOL    HW115971   4.088   4.668   2.161  1.3095  0.5497  0.0476
 5217SOL    HW215972   4.140   4.816   2.205 -0.7166  1.5895 -0.9035
 5218SOL     OW15973   4.893   4.567   2.760 -0.6450 -0.1962  0.5228
 5218SOL    HW115974   4.846   4.574   2.672  0.1310  1.5273  0.2293
 5218SOL    HW215975   4.944   4.481   2.764 -1.0724 -0.5046 -0.5098
 5219SOL     OW15976   4.075   5.039   3.980 -0.0528  0.6251 -0.1064
 5219SOL    HW115977   4.016   4.977   4.032 -0.3420  1.4014  0.5375
 5219SOL    HW215978   4.080   5.127   4.029 -0.6693  1.5307 -1.5969
 5220SOL     OW15979   4.911   4.258   2.972 -0.4377  0.0787  0.0392
 5220SOL    HW115980   4.952   4.169   2.992 -1.1559 -0.5766 -1.2753
 5220SOL    HW215981   4.980   4.317   2.929 -0.3783 -0.4136 -0.5603
 5221SOL     OW15982   4.809   3.558   1.474  0.1285  0.0797 -0.4984
 5221SOL    HW115983   4.898   3.535   1.435 -0.2944  1.2280 -2.2911
 5221SOL    HW215984   4.822   3.601   1.564  1.3013 -0.6557 -0.2995
 5222SOL     OW15985   3.869   4.492   2.394 -0.2254 -0.0979  0.4549
 5222SOL    HW115986   3.964   4.521   2.385 -0.4190  0.8856  1.3802
 5222SOL    HW215987   3.858   4.440   2.478 -0.2031 -1.6020 -0.4334
 5223SOL     OW15988   2.705   4.227   3.666  0.9710  0.5162 -0.0790
 5223SOL    HW115989   2.758   4.144   3.684 -1.3790 -1.2117 -0.6013
 5223SOL    HW215990   2.752   4.282   3.597  2.8214 -0.1156  0.6251
 5224SOL     OW15991   3.847   5.573   2.767  0.2103 -0.3225  0.0431
 5224SOL    HW115992   3.894   5.603   2.684 -1.1642  0.6066 -0.4538
 5224SOL    HW215993   3.750   5.557   2.746 -0.1087 -0.3284  1.4150
 5225SOL     OW15994   0.477   3.149   2.410  0.1073 -0.1632 -0.0608
 5225SOL    HW115995   0.384   3.114   2.419  0.4954 -0.8258  1.8416
 5225SOL    HW215996   0.527   3.134   2.496  1.7304  0.8896 -0.7712
 5226SOL     OW15997   5.292   4.308   2.412  0.6511  0.0823  0.3872
 5226SOL    HW115998   5.204   4.268   2.436  0.9026 -0.8419 -0.1881
 5226SOL    HW215999   5.340   4.335   2.495  0.9976 -1.9625  0.9045
 5227SOL     OW16000   4.571   2.440   3.606 -0.4536  0.0247  0.0854
 5227SOL    HW116001   4.592   2.431   3.509 -0.2376 -1.9461  0.2812
 5227SOL    HW216002   4.473   2.429   3.621 -0.3732 -0.5691  0.1814
 5228SOL     OW16003   4.952   0.147   3.436 -0.0120 -0.3753 -0.3025
 5228SOL    HW116004   4.938   0.246   3.431 -2.8131 -0.7039 -1.0546
 5228SOL    HW216005   4.957   0.109   3.344  0.7612 -0.9861 -0.0209
 5229SOL     OW16006   4.281   0.250   4.066  0.0097  0.3595 -0.3682
 5229SOL    HW116007   4.372   0.209   4.070  0.8880  2.0806 -1.6181
 5229SOL    HW216008   4.218   0.187   4.021  0.4594 -0.9748  0.7811
 5230SOL     OW16009   4.894   3.755   3.664 -0.1343 -0.5005  0.2233
 5230SOL    HW116010   4.922   3.787   3.754 -0.8060 -1.4148  0.7816
 5230SOL    HW216011   4.955   3.793   3.594  0.4175  0.1897  1.0574
 5231SOL     OW16012   4.851   0.344   4.246 -0.3164  0.3189  0.3239
 5231SOL    HW116013   4.920   0.416   4.258  0.1036 -0.1375  0.6549
 5231SOL    HW216014   4.834   0.332   4.148  0.5593 -0.0126  0.1984
 5232SOL     OW16015   3.994   4.676   1.179  0.6161 -0.3258 -0.2452
 5232SOL    HW116016   3.949   4.593   1.146  0.8168 -0.7376  0.4787
 5232SOL    HW216017   4.069   4.651   1.240  1.7582  0.3579 -1.3242
 5233SOL     OW16018   0.287   2.791   1.697 -0.4732  0.1751  0.1374
 5233SOL    HW116019   0.327   2.729   1.631 -1.0975  0.5994 -0.6525
 5233SOL    HW216020   0.256   2.740   1.777  0.9113 -0.2529  0.4234
 5234SOL     OW16021   3.506   4.765   2.782 -0.2794 -0.2329 -0.7990
 5234SOL    HW116022   3.480   4.764   2.879  0.4847  0.6271 -0.5704
 5234SOL    HW216023   3.430   4.732   2.727 -0.2515 -2.0955  0.1974
 5235SOL     OW16024   3.915   0.395   2.673  0.1985  0.1206  0.0612
 5235SOL    HW116025   3.825   0.426   2.643  0.0475  0.8779  1.2236
 5235SOL    HW216026   3.906   0.341   2.757  0.8539  0.5764  0.4390
 5236SOL     OW16027   2.744   4.730   3.520  0.0425  0.1232 -0.5500
 5236SOL    HW116028   2.760   4.658   3.453 -0.1009 -0.6042  0.1799
 5236SOL    HW216029   2.679   4.796   3.483  0.7385  0.2968 -1.5177
 5237SOL     OW16030   5.279   0.216   1.349  0.6005 -0.4090  0.2988
 5237SOL    HW116031   5.312   0.134   1.395 -0.1027 -1.2290 -0.6222
 5237SOL    HW216032   5.180   0.222   1.358  0.5154 -0.2827 -0.5959
 5238SOL     OW16033   4.927   4.230   1.118  0.1903 -0.0984  0.1284
 5238SOL    HW116034   4.952   4.327   1.121  0.2477 -0.0060 -2.1386
 5238SOL    HW216035   4.983   4.183   1.050  0.7707 -1.9468  1.7908
 5239SOL     OW16036   4.175   3.892   2.050  0.0978  0.2198  0.1631
 5239SOL    HW116037   4.192   3.911   2.146 -0.3722  0.8674  0.1259
 5239SOL    HW216038   4.095   3.944   2.019  0.8714  0.8354 -0.8558
 5240SOL     OW16039   3.560   5.591   2.998 -0.0397 -0.4995 -0.5652
 5240SOL    HW116040   3.496   5.556   3.066  0.6548 -1.7510 -0.5442
 5240SOL    HW216041   3.629   5.522   2.977  0.7379  0.4711 -1.3194
 5241SOL     OW16042   3.709   5.243   1.527 -0.9587 -0.1644  0.6813
 5241SOL    HW116043   3.724   5.197   1.615  0.8658 -2.6532 -0.7983
 5241SOL    HW216044   3.747   5.187   1.453 -0.4733  2.8590 -1.5366
 5242SOL     OW16045   3.273   4.783   2.661  0.0002 -0.1155  0.0211
 5242SOL    HW116046   3.258   4.881   2.654 -0.6512 -0.0434  1.9922
 5242SOL    HW216047   3.244   4.739   2.575 -0.9494  1.2611 -0.3985
 5243SOL     OW16048   1.734   3.146   3.942 -0.0831  0.6749 -0.3624
 5243SOL    HW116049   1.808   3.186   3.996  0.1994  1.2996 -1.1975
 5243SOL    HW216050   1.739   3.180   3.848 -0.6710 -0.2633 -0.7467
 5244SOL     OW16051   3.186   4.216   2.244  0.1931  0.1897  0.0457
 5244SOL    HW116052   3.196   4.117   2.259  0.9215  0.1637 -0.5578
 5244SOL    HW216053   3.102   4.247   2.287 -0.9043 -1.0027 -1.1232
 5245SOL     OW16054   4.115   4.462   3.321  0.2593 -0.4469  0.8289
 5245SOL    HW116055   4.095   4.544   3.267  0.5127  0.2576  1.7811
 5245SOL    HW216056   4.087   4.477   3.416  2.0967 -0.7024  1.4630
 5246SOL     OW16057   4.224   4.224   3.236 -0.2500 -0.5468 -0.1625
 5246SOL    HW116058   4.180   4.309   3.264 -0.8362 -1.0479  0.4561
 5246SOL    HW216059   4.304   4.245   3.180  0.1374  0.4315  0.7342
 5247SOL     OW16060   5.393   3.752   2.899  0.1683  0.3878  0.0395
 5247SOL    HW116061   5.431   3.778   2.988 -0.9869  1.8151  0.1460
 5247SOL    HW216062   5.455   3.783   2.827  0.0377  1.2176  0.2720
 5248SOL     OW16063   5.550   4.843   1.750 -0.0793 -0.2671  0.7317
 5248SOL    HW116064   5.578   4.749   1.770 -0.1537 -0.4409  0.0531
 5248SOL    HW216065   5.485   4.843   1.674 -1.4693  0.1816  1.8788
 5249SOL     OW16066   4.814   3.866   2.332  0.3184  0.1193 -0.2493
 5249SOL    HW116067   4.848   3.952   2.294  3.0362 -0.8998 -0.3584
 5249SOL    HW216068   4.845   3.790   2.275 -1.4766 -1.0183  0.2099
 5250SOL     OW16069   4.034   3.435   1.949  0.8570 -0.0759 -0.4957
 5250SOL    HW116070   3.989   3.498   1.885  1.2251 -0.5046 -1.1859
 5250SOL    HW216071   4.087   3.368   1.898 -0.2624 -1.5216  0.1986
 5251SOL     OW16072   4.816   5.097   0.816 -0.1032 -0.5421  0.2459
 5251SOL    HW116073   4.803   5.182   0.869  1.0307 -0.7263  0.8617
 5251SOL    HW216074   4.880   5.114   0.741 -3.5813  0.3839 -2.7944
 5252SOL     OW16075   3.961   3.350   2.199 -0.4753  0.4819 -0.0163
 5252SOL    HW116076   3.970   3.407   2.281  0.4043  0.0625  0.1843
 5252SOL    HW216077   4.002   3.398   2.121  0.2408  0.1363  0.1470
 5253SOL     OW16078   4.400   4.790   2.716  0.2612  0.0077 -0.4157
 5253SOL    HW116079   4.386   4.838   2.803 -2.1045 -1.2559  0.0068
 5253SOL    HW216080   4.404   4.691   2.732 -0.3427 -0.2587 -1.7304
 5254SOL     OW16081   4.804   4.558   1.534 -0.1202  0.6260  0.2246
 5254SOL    HW116082   4.718   4.607   1.549 -0.7038 -0.6375  1.1814
 5254SOL    HW216083   4.878   4.624   1.520 -0.9310  1.7642  1.1332
 5255SOL     OW16084   0.047   3.992   3.661  0.2961 -0.2534 -0.4622
 5255SOL    HW116085   0.145   3.971   3.666  0.2020 -1.0036 -1.3327
 5255SOL    HW216086  -0.004   3.906   3.654 -0.6471 -0.0469  2.4551
 5256SOL     OW16087   4.196   0.161   2.043  0.4780  0.0943  0.5580
 5256SOL    HW116088   4.145   0.091   1.994  0.1331 -0.1611  1.2625
 5256SOL    HW216089   4.289   0.168   2.006 -0.2832  1.1101 -1.2527
 5257SOL     OW16090   0.109   0.350   2.882  0.1757  0.3201 -0.0401
 5257SOL    HW116091   0.118   0.265   2.831 -1.0800  0.7999 -1.1105
 5257SOL    HW216092   0.029   0.345   2.942 -0.0939  0.8585 -0.3482
 5258SOL     OW16093   4.852   4.336   2.268 -0.2098 -0.2995  0.4651
 5258SOL    HW116094   4.799   4.263   2.226  0.2286 -1.2500  1.5304
 5258SOL    HW216095   4.944   4.339   2.228 -0.1666 -0.4632  0.5505
 5259SOL     OW16096   4.085   5.364   2.480 -0.5942 -0.4120 -0.0590
 5259SOL    HW116097   4.027   5.442   2.502 -1.2457 -0.7695 -0.4930
 5259SOL    HW216098   4.064   5.288   2.542 -1.0826 -0.7748 -0.6636
 5260SOL     OW16099   4.124   4.880   3.035  0.0054 -0.1687  0.2287
 5260SOL    HW116100   4.223   4.889   3.043  0.0205 -0.3791  0.2793
 5260SOL    HW216101   4.099   4.870   2.938  0.1934 -1.8496  0.3187
 5261SOL     OW16102   4.057   4.305   1.102 -0.2907 -0.1337  0.2317
 5261SOL    HW116103   4.149   4.343   1.111 -0.8547  0.9980  1.5542
 5261SOL    HW216104   4.004   4.361   1.038  0.0695 -1.1079 -0.9667
 5262SOL     OW16105   4.341   2.852   3.045  0.1081  0.2370  0.2408
 5262SOL    HW116106   4.355   2.762   3.086  2.8965  0.2371 -0.4907
 5262SOL    HW216107   4.373   2.850   2.950 -0.8598  1.7239 -0.1452
 5263SOL     OW16108   5.414   5.014   2.185  0.1020  0.0497 -0.0325
 5263SOL    HW116109   5.354   4.944   2.225  1.2821 -2.3183 -2.1328
 5263SOL    HW216110   5.409   5.010   2.086  3.5841 -0.1922 -0.3145
 5264SOL     OW16111   5.269   2.949   1.600 -0.5979 -0.8235 -0.4398
 5264SOL    HW116112   5.238   2.860   1.635  0.0947 -1.2433 -0.8555
 5264SOL    HW216113   5.198   3.017   1.614  0.3422 -0.4254  3.7659
 5265SOL     OW16114   0.198   2.653   1.914  0.0883  0.7305  0.4208
 5265SOL    HW116115   0.234   2.563   1.887  1.5240  1.4007 -0.0023
 5265SOL    HW216116   0.100   2.646   1.931  0.0356 -0.7577 -0.3402
 5266SOL     OW16117   5.442   5.089   1.852  0.1879  0.1792  0.2072
 5266SOL    HW116118   5.347   5.074   1.826  0.6107  0.3335 -1.5726
 5266SOL    HW216119   5.495   5.007   1.833  0.7674  0.7509 -0.7136
 5267SOL     OW16120   5.374   0.391   2.646 -0.4040 -0.0512 -0.3224
 5267SOL    HW116121   5.452   0.332   2.621 -1.3711 -0.9451 -1.3142
 5267SOL    HW216122   5.308   0.337   2.698 -1.6327 -0.0693 -1.8346
 5268SOL     OW16123   5.200   3.812   3.176  0.0213 -0.2919  0.5684
 5268SOL    HW116124   5.281   3.754   3.167 -1.4645 -2.7418  1.7590
 5268SOL    HW216125   5.218   3.886   3.242  1.3837 -0.5724  0.5287
 5269SOL     OW16126   4.309   4.050   2.773 -0.2236 -0.9638  0.3168
 5269SOL    HW116127   4.360   4.137   2.768 -1.3300 -0.3458 -3.5016
 5269SOL    HW216128   4.362   3.978   2.730 -1.0297 -1.1481 -0.4016
 5270SOL     OW16129   0.030   4.607   1.832  0.0866 -1.0785  0.2504
 5270SOL    HW116130  -0.035   4.605   1.908 -2.3387  1.3476 -1.5744
 5270SOL    HW216131   0.123   4.617   1.868 -0.9740  0.1603  2.9290
 5271SOL     OW16132   0.257   3.750   3.673  0.0634 -0.1298 -0.2950
 5271SOL    HW116133   0.318   3.822   3.641 -1.9146  1.6071 -0.4042
 5271SOL    HW216134   0.263   3.743   3.773 -0.5604  1.0677 -0.1468
 5272SOL     OW16135   0.403   5.191   2.687 -0.0793  0.0864 -0.0881
 5272SOL    HW116136   0.456   5.229   2.763 -0.6710 -0.2566  0.5005
 5272SOL    HW216137   0.465   5.165   2.613  0.5405  0.0196  0.4488
 5273SOL     OW16138   0.184   4.199   2.677 -0.1213  0.1374  0.1802
 5273SOL    HW116139   0.254   4.258   2.637 -1.3045  1.7855  0.4212
 5273SOL    HW216140   0.217   4.162   2.764  1.6694 -1.8010 -1.2392
 5274SOL     OW16141   5.064   4.821   3.124 -0.0930  0.0891  0.1681
 5274SOL    HW116142   5.009   4.786   3.048 -0.1065  0.1133  0.1667
 5274SOL    HW216143   5.058   4.921   3.126 -1.4036  0.0224  1.1730
 5275SOL     OW16144   3.913   4.190   3.069  0.3915  0.5614  0.0119
 5275SOL    HW116145   3.901   4.289   3.062  0.5398  0.6411  0.8806
 5275SOL    HW216146   4.010   4.168   3.057  0.1123  0.3075 -2.4045
 5276SOL     OW16147   4.189   5.337   3.041  0.4064 -0.1214 -0.1993
 5276SOL    HW116148   4.096   5.366   3.020 -0.1361 -2.2230 -0.8899
 5276SOL    HW216149   4.242   5.416   3.072 -1.9481  0.8942  1.5724
 5277SOL     OW16150   0.279   3.757   2.362 -0.2708  0.0980 -0.1071
 5277SOL    HW116151   0.314   3.686   2.300 -0.6079 -0.1092 -0.0626
 5277SOL    HW216152   0.355   3.811   2.396  0.1683 -1.2029  1.0556
 5278SOL     OW16153   3.486   5.238   2.951  0.0432  0.1666 -0.3766
 5278SOL    HW116154   3.391   5.267   2.946  0.4621  2.1548  1.3553
 5278SOL    HW216155   3.529   5.246   2.861 -1.1500  0.2922 -0.9498
 5279SOL     OW16156   4.251   4.112   3.511 -0.0457 -0.0837  0.4265
 5279SOL    HW116157   4.230   4.166   3.592  0.8891 -1.3592  1.5696
 5279SOL    HW216158   4.238   4.168   3.429  1.0298  1.9196  1.5458
 5280SOL     OW16159   2.317   5.384   2.767 -0.0688 -0.6010  0.6576
 5280SOL    HW116160   2.270   5.340   2.691 -1.3128 -0.9309  1.5907
 5280SOL    HW216161   2.368   5.315   2.819  2.3580 -0.1144 -0.9121
 5281SOL     OW16162   0.101   3.796   2.131  0.1409  0.2941 -0.2774
 5281SOL    HW116163   0.122   3.883   2.086  2.0920 -0.1718 -0.3408
 5281SOL    HW216164   0.153   3.790   2.217  0.1993 -0.9024 -0.3891
 5282SOL     OW16165   3.858   3.679   2.831  0.3408  0.0318  0.3633
 5282SOL    HW116166   3.944   3.725   2.857 -0.1085  1.1751 -0.1147
 5282SOL    HW216167   3.800   3.743   2.782 -0.9439 -0.6344  0.9769
 5283SOL     OW16168   4.515   4.945   2.228  0.0695 -0.0487 -0.2589
 5283SOL    HW116169   4.539   5.042   2.231  1.8584 -0.4857  1.3548
 5283SOL    HW216170   4.521   4.912   2.134  0.2054  1.2159 -0.7099
 5284SOL     OW16171   0.580   4.579   3.016 -0.1059 -0.3171  0.7668
 5284SOL    HW116172   0.482   4.556   3.013 -0.7206  2.0726 -1.3446
 5284SOL    HW216173   0.604   4.631   2.934  3.2017 -1.5995  0.7983
 5285SOL     OW16174   1.568   2.195   1.911  0.2154  0.5226 -0.1564
 5285SOL    HW116175   1.653   2.148   1.887  0.0762 -0.4601  1.1307
 5285SOL    HW216176   1.550   2.183   2.009 -2.5116 -1.1628 -0.7608
 5286SOL     OW16177   3.707   0.483   2.492  0.8120  0.1373 -0.4037
 5286SOL    HW116178   3.739   0.541   2.417 -0.2988  0.1519 -0.8856
 5286SOL    HW216179   3.622   0.439   2.466 -0.4858  1.4218  1.4307
 5287SOL     OW16180   2.567   4.576   2.831  0.3317 -0.5104  0.0492
 5287SOL    HW116181   2.539   4.574   2.736  2.1777 -2.0507 -0.5432
 5287SOL    HW216182   2.489   4.600   2.889 -0.8269  0.4600 -1.8129
 5288SOL     OW16183   0.701   3.047   3.224  0.3617 -0.2928 -0.4462
 5288SOL    HW116184   0.789   3.008   3.252  0.9719  0.4099 -1.3258
 5288SOL    HW216185   0.688   3.136   3.267 -0.2186 -0.6748  0.1806
 5289SOL     OW16186   0.333   4.190   3.058 -0.2954 -0.0751 -0.7236
 5289SOL    HW116187   0.423   4.150   3.045 -1.0059 -1.0884 -3.1150
 5289SOL    HW216188   0.333   4.285   3.026 -0.1658 -0.2036 -1.1088
 5290SOL     OW16189   4.081   4.098   3.909 -0.9703  0.1945  0.1003
 5290SOL    HW116190   4.101   4.003   3.886  0.4304  0.7773 -1.2561
 5290SOL    HW216191   4.074   4.108   4.009 -0.9139 -1.2683  0.2642
 5291SOL     OW16192   5.215   4.362   3.056 -0.0209  0.2058 -0.1446
 5291SOL    HW116193   5.241   4.269   3.031 -1.0490 -0.0028 -0.4572
 5291SOL    HW216194   5.181   4.363   3.150  2.4059  0.7309  0.8002
 5292SOL     OW16195   0.098   3.748   2.561 -0.5366 -0.0431  0.1950
 5292SOL    HW116196   0.157   3.780   2.487 -1.8753  0.1400 -0.8240
 5292SOL    HW216197   0.149   3.683   2.617  0.4533 -0.3451 -0.9983
 5293SOL     OW16198  -0.018   5.501   1.543 -0.5653  0.1948  0.1904
 5293SOL    HW116199  -0.003   5.404   1.523  0.3246  0.9155 -3.1818
 5293SOL    HW216200   0.029   5.524   1.629  2.4262 -1.6086 -0.7903
 5294SOL     OW16201   3.757   3.535   3.638 -0.3119 -0.3124  0.4395
 5294SOL    HW116202   3.825   3.608   3.643 -0.1258 -0.3543 -0.9716
 5294SOL    HW216203   3.666   3.573   3.653 -0.3223  0.4294 -1.3060
 5295SOL     OW16204   3.483   0.278   3.903 -0.4018 -0.0693  0.0183
 5295SOL    HW116205   3.517   0.274   3.997  0.1007 -0.3884 -0.1747
 5295SOL    HW216206   3.383   0.278   3.904 -0.4014 -0.2925  0.5390
 5296SOL     OW16207   0.178   4.357   3.536  0.5488 -0.1504 -0.2141
 5296SOL    HW116208   0.088   4.328   3.570  0.0665  0.4233 -0.9380
 5296SOL    HW216209   0.201   4.304   3.455  0.6029  0.0725 -0.3467
 5297SOL     OW16210   0.187  -0.011   3.204 -0.5838  0.3299  1.3390
 5297SOL    HW116211   0.204   0.088   3.197  0.0735  0.1955  0.9442
 5297SOL    HW216212   0.263  -0.055   3.251  0.4894 -0.3399 -0.8518
 5298SOL     OW16213   3.521   4.630   3.365  0.5468  0.2953  0.3766
 5298SOL    HW116214   3.483   4.712   3.409  1.4041  2.0515 -1.9183
 5298SOL    HW216215   3.521   4.643   3.266  1.9902 -1.9626  0.0072
 5299SOL     OW16216   5.038   0.248   1.477  0.8514 -0.2187  0.2683
 5299SOL    HW116217   4.971   0.222   1.407 -1.7891 -2.2359  3.2227
 5299SOL    HW216218   4.994   0.310   1.542  2.5437  0.0020  1.2322
 5300SOL     OW16219   0.935   3.365   1.234 -0.5352  0.2799 -0.2213
 5300SOL    HW116220   0.958   3.444   1.291 -2.1195  0.8785 -0.3658
 5300SOL    HW216221   0.953   3.386   1.138  1.9680 -0.6675 -0.0296
 5301SOL     OW16222   4.761   4.409   3.625  0.1309 -0.1951 -0.0374
 5301SOL    HW116223   4.688   4.470   3.654 -0.6579 -1.9153  1.8744
 5301SOL    HW216224   4.834   4.411   3.693 -0.7314 -2.6555  1.0569
 5302SOL     OW16225   0.067   5.014   4.146 -0.2408  0.1575 -0.3049
 5302SOL    HW116226   0.111   4.985   4.062 -0.6952 -1.6799  0.0445
 5302SOL    HW216227   0.136   5.029   4.217 -0.0458 -2.2566  0.1143
 5303SOL     OW16228   4.012   4.818   2.804 -0.0923  0.8272 -0.0605
 5303SOL    HW116229   3.936   4.756   2.821  0.5128  0.0356 -0.1685
 5303SOL    HW216230   4.057   4.795   2.718 -1.2911  2.9359 -1.3507
 5304SOL     OW16231   5.184   4.557   1.753  0.3348 -0.1830 -0.3728
 5304SOL    HW116232   5.232   4.480   1.711 -0.3840  0.7153 -3.0119
 5304SOL    HW216233   5.249   4.612   1.805  1.9039  0.1564 -2.5609
 5305SOL     OW16234   0.454   3.305   2.181 -0.6644  1.2548 -0.3463
 5305SOL    HW116235   0.499   3.268   2.262  1.7241  1.0641 -1.6601
 5305SOL    HW216236   0.431   3.231   2.118  2.7581  1.6590 -2.3103
 5306SOL     OW16237   4.512   0.679   3.429  0.1188  0.9028  1.0898
 5306SOL    HW116238   4.442   0.745   3.458 -1.1594  0.8521 -1.5552
 5306SOL    HW216239   4.472   0.587   3.426  0.5022  0.7499  0.3234
 5307SOL     OW16240   4.237   4.915   2.304  0.4378 -0.4679 -0.1014
 5307SOL    HW116241   4.230   4.971   2.387 -2.7083 -2.8015  1.4309
 5307SOL    HW216242   4.333   4.904   2.279  1.5159  0.5888  3.0405
 5308SOL     OW16243   3.779   5.210   3.080 -0.1742 -0.2827  0.2267
 5308SOL    HW116244   3.770   5.133   3.017  1.8317 -0.0000 -0.4652
 5308SOL    HW216245   3.824   5.286   3.034 -1.0567  0.8936  1.2531
 5309SOL     OW16246   0.266   4.189   3.335  0.8343 -0.0512  0.0143
 5309SOL    HW116247   0.305   4.163   3.247  0.8814 -1.1051  0.3322
 5309SOL    HW216248   0.298   4.126   3.405  0.7512  0.7469  0.7834
 5310SOL     OW16249   5.006   4.579   3.278 -0.0588 -0.0311 -0.6304
 5310SOL    HW116250   4.985   4.643   3.352  0.2999 -1.4507  0.7379
 5310SOL    HW216251   5.034   4.630   3.197 -0.8540  1.5775  0.0620
 5311SOL     OW16252   4.802   4.562   2.499 -0.1611  0.6250 -0.2139
 5311SOL    HW116253   4.727   4.623   2.472 -0.7456  0.6271  1.3000
 5311SOL    HW216254   4.856   4.538   2.418 -1.6341  0.8335 -1.3217
 5312SOL     OW16255   3.349   5.372   3.181  0.0946  0.2080 -0.1987
 5312SOL    HW116256   3.398   5.446   3.227  0.3794 -0.5030  0.6772
 5312SOL    HW216257   3.414   5.303   3.149  0.0306  1.2519 -2.8183
 5313SOL     OW16258   4.301   0.509   3.158  0.0959  0.3709  0.0707
 5313SOL    HW116259   4.357   0.468   3.229  1.5835  0.8533 -0.7682
 5313SOL    HW216260   4.241   0.578   3.199  0.3383  0.0668  0.9625
 5314SOL     OW16261   5.495   4.795   2.968 -0.5292 -0.3050 -0.4374
 5314SOL    HW116262   5.450   4.713   3.004  1.3871 -2.2510 -2.1585
 5314SOL    HW216263   5.426   4.865   2.950 -2.3027 -1.6141  0.7747
 5315SOL     OW16264   4.520   4.357   3.974  0.2087  0.1875  0.3274
 5315SOL    HW116265   4.503   4.261   3.952 -0.1578  0.1690  0.6782
 5315SOL    HW216266   4.434   4.400   4.001  0.6626  0.1616  1.9121
 5316SOL     OW16267   0.126   3.581   3.467 -0.0552 -0.0841 -0.3034
 5316SOL    HW116268   0.028   3.573   3.448  0.0118  1.9454 -1.8630
 5316SOL    HW216269   0.141   3.645   3.542  0.1065  0.1879 -0.5670
 5317SOL     OW16270   1.002   1.115   3.442 -0.0910  0.4528 -1.1923
 5317SOL    HW116271   0.984   1.146   3.349 -1.2085  1.9834 -0.5156
 5317SOL    HW216272   0.926   1.144   3.502 -0.0991 -1.7193 -0.0628
 5318SOL     OW16273   4.045   4.151   2.690  0.2782 -0.2029  0.8856
 5318SOL    HW116274   4.046   4.105   2.601  0.3769 -0.0052  0.7848
 5318SOL    HW216275   4.137   4.152   2.728  0.3339  0.2069  0.7371
 5319SOL     OW16276   0.598   4.103   3.072  0.6175 -0.0964 -0.6671
 5319SOL    HW116277   0.616   4.011   3.106 -0.8669 -0.8660 -1.8302
 5319SOL    HW216278   0.653   4.169   3.123  0.1912 -1.3953  1.5944
 5320SOL     OW16279   3.234   0.581   4.735  0.4918  0.1047  0.3994
 5320SOL    HW116280   3.275   0.523   4.665  0.0990 -1.6869  1.5835
 5320SOL    HW216281   3.196   0.663   4.693  2.2004  0.1500 -1.1650
 5321SOL     OW16282   5.201   4.864   2.265 -0.1206 -0.6375 -0.0989
 5321SOL    HW116283   5.235   4.818   2.347 -0.5565 -0.4392  0.1939
 5321SOL    HW216284   5.115   4.910   2.286  0.6593  0.9072 -0.2063
 5322SOL     OW16285   4.945   5.068   3.829  0.0371  0.5104  0.0679
 5322SOL    HW116286   5.038   5.044   3.856  0.7771  1.6231 -1.3079
 5322SOL    HW216287   4.898   4.986   3.794  0.7484  0.0880  0.0859
 5323SOL     OW16288   3.701   3.575   2.032  0.0066  0.1148 -0.0533
 5323SOL    HW116289   3.684   3.576   2.130  2.2559  2.1465  0.3869
 5323SOL    HW216290   3.695   3.481   1.999 -1.4194 -0.5377  1.8606
 5324SOL     OW16291   4.538   5.107   2.945 -0.4087 -0.5138  0.2514
 5324SOL    HW116292   4.491   5.167   2.880 -0.9122 -1.7894 -0.6225
 5324SOL    HW216293   4.548   5.154   3.033 -0.8704  0.7901 -0.3577
 5325SOL     OW16294   0.188   5.050   1.211  0.3207 -0.6142 -0.0567
 5325SOL    HW116295   0.177   5.039   1.309  0.4229 -0.5051 -0.0329
 5325SOL    HW216296   0.212   4.962   1.170 -1.1682 -0.9964 -0.1868
 5326SOL     OW16297   0.210   3.619   1.937  0.3081 -0.4267 -0.3143
 5326SOL    HW116298   0.306   3.593   1.940  0.0445 -1.4276  0.1123
 5326SOL    HW216299   0.183   3.661   2.023  0.5163  0.4618 -0.6758
 5327SOL     OW16300   4.227   0.427   3.591 -0.6068 -0.5227  0.5056
 5327SOL    HW116301   4.186   0.518   3.603 -2.1792 -0.9546 -1.1214
 5327SOL    HW216302   4.154   0.359   3.583  0.4382 -1.4985 -1.2347
 5328SOL     OW16303   4.129   0.098   3.895  0.5326  0.3271 -0.5342
 5328SOL    HW116304   4.050   0.080   3.836  0.9199 -1.7724 -0.4955
 5328SOL    HW216305   4.213   0.071   3.847  0.8819 -1.1187  0.8028
 5329SOL     OW16306   3.151   3.197   2.777  0.1501 -0.0947  0.9820
 5329SOL    HW116307   3.217   3.201   2.702 -1.0105  1.5055 -0.0209
 5329SOL    HW216308   3.115   3.104   2.784  1.4685 -0.6584  0.6528
 5330SOL     OW16309   4.034   4.435   3.585  0.2613 -0.3362 -0.3172
 5330SOL    HW116310   3.935   4.425   3.587  0.2780 -0.4722  0.6892
 5330SOL    HW216311   4.075   4.368   3.648  0.8892  0.7528  0.4760
 5331SOL     OW16312   1.274   2.573   2.233 -0.6543  0.4407  0.1318
 5331SOL    HW116313   1.251   2.662   2.272  1.3216  1.0357  0.0473
 5331SOL    HW216314   1.373   2.567   2.220 -0.7231 -1.8174  0.2339
 5332SOL     OW16315   0.208   4.897   1.845  0.4317  0.5997 -0.2512
 5332SOL    HW116316   0.266   4.817   1.825  1.8868  1.6711 -0.5128
 5332SOL    HW216317   0.118   4.885   1.804  0.9603 -0.4656 -1.1461
 5333SOL     OW16318   3.880   0.277   2.899  0.2454  0.6706 -1.0743
 5333SOL    HW116319   3.929   0.190   2.886  3.9194  1.7090  3.2540
 5333SOL    HW216320   3.787   0.258   2.930  0.5844 -1.6603 -1.2735
 5334SOL     OW16321   0.594   4.305   1.784 -0.3511 -0.3781 -0.5095
 5334SOL    HW116322   0.598   4.271   1.878  2.1303  2.0521  0.4070
 5334SOL    HW216323   0.501   4.297   1.749 -1.1703 -2.1044  1.8134
 5335SOL     OW16324   4.379   3.925   4.031 -0.3814 -0.1781 -0.0358
 5335SOL    HW116325   4.371   3.968   4.121 -1.9247  0.4003 -0.4205
 5335SOL    HW216326   4.363   3.993   3.960  1.4622 -0.4914 -0.7970
 5336SOL     OW16327   4.662   4.871   1.591  0.3326 -0.1467 -0.2015
 5336SOL    HW116328   4.699   4.936   1.657  0.4642 -0.4590  0.0343
 5336SOL    HW216329   4.564   4.888   1.579  0.0115 -0.9285  1.0861
 5337SOL     OW16330   4.794   4.747   2.951 -0.2549 -0.0747 -0.0325
 5337SOL    HW116331   4.822   4.677   2.886  0.0340  0.9435 -1.0387
 5337SOL    HW216332   4.730   4.708   3.016  0.3374 -1.4044 -0.2250
 5338SOL     OW16333   1.548   3.238   2.422  0.7588 -0.5378  0.1042
 5338SOL    HW116334   1.488   3.258   2.345  1.2997 -1.3214 -0.5344
 5338SOL    HW216335   1.565   3.140   2.426  0.7352 -0.5062  1.2298
 5339SOL     OW16336   3.624   4.924   3.453 -0.4608 -0.0141 -0.2371
 5339SOL    HW116337   3.675   4.861   3.395 -1.4274 -0.6826 -0.3713
 5339SOL    HW216338   3.677   4.943   3.536  0.4792  0.1592 -0.8647
 5340SOL     OW16339   0.574   5.573   1.862  0.4155 -0.5391  0.0899
 5340SOL    HW116340   0.611   5.496   1.914 -0.3413 -1.8948 -1.2879
 5340SOL    HW216341   0.481   5.551   1.832 -0.3175  1.4484  0.6954
 5341SOL     OW16342   0.123   4.513   2.508 -0.2195  0.1291 -0.1809
 5341SOL    HW116343   0.045   4.539   2.451 -0.9603 -1.2951  0.1436
 5341SOL    HW216344   0.202   4.495   2.451 -0.4128  0.5816 -0.5954
 5342SOL     OW16345   4.887   4.321   1.517 -0.4508 -0.0677  0.0657
 5342SOL    HW116346   4.938   4.317   1.431 -1.4697 -0.0882 -0.5623
 5342SOL    HW216347   4.857   4.415   1.534 -2.1954 -0.4210 -0.8134
 5343SOL     OW16348   5.382   0.101   1.585  0.5161  0.4770 -0.5810
 5343SOL    HW116349   5.440   0.038   1.533 -0.2252  0.0448 -0.9017
 5343SOL    HW216350   5.353   0.058   1.670  1.1713  0.9329 -0.1133
 5344SOL     OW16351   3.764   0.434   3.218  0.2770 -0.2150  0.0238
 5344SOL    HW116352   3.691   0.502   3.223  1.9714  1.7320 -0.1149
 5344SOL    HW216353   3.774   0.402   3.124 -0.2953 -0.3692  0.0161
 5345SOL     OW16354   5.082   4.375   2.769 -0.1110 -0.3885 -0.2644
 5345SOL    HW116355   5.092   4.342   2.675  0.3391  0.1324 -0.4110
 5345SOL    HW216356   5.147   4.327   2.828 -0.3988 -0.7209 -0.2137
 5346SOL     OW16357   5.250   3.723   1.408 -0.2893  0.4613 -0.0507
 5346SOL    HW116358   5.230   3.802   1.465  1.4080  0.5476  0.4736
 5346SOL    HW216359   5.344   3.693   1.424 -0.7714 -1.4380 -0.5158
 5347SOL     OW16360   4.173   4.510   2.949 -0.4428  0.2316 -0.1725
 5347SOL    HW116361   4.132   4.499   2.858 -0.2531 -0.2915 -0.2022
 5347SOL    HW216362   4.104   4.492   3.019 -0.2515 -0.7708 -0.2226
 5348SOL     OW16363   4.795   4.695   3.868  0.6163  0.3129  0.7180
 5348SOL    HW116364   4.782   4.717   3.965 -0.1134 -1.4973  1.0646
 5348SOL    HW216365   4.714   4.648   3.833  1.2120  0.1981 -0.5606
 5349SOL     OW16366   5.146   4.326   3.335  0.4374  0.1191 -0.1324
 5349SOL    HW116367   5.198   4.358   3.414  0.4678 -1.2393  0.4196
 5349SOL    HW216368   5.067   4.386   3.322  0.4720  0.4172  0.8916
 5350SOL     OW16369   4.122   4.972   1.976 -0.4952  0.4729 -0.3414
 5350SOL    HW116370   4.218   4.970   1.945 -0.6192  1.2516 -0.7773
 5350SOL    HW216371   4.104   4.890   2.030  0.2970  0.0927 -0.6299
 5351SOL     OW16372   3.355   5.069   2.658 -0.0144 -0.1133  0.3789
 5351SOL    HW116373   3.430   5.122   2.698  0.7853 -1.4408  0.6870
 5351SOL    HW216374   3.378   5.045   2.564  0.8360 -2.0842  1.0291
 5352SOL     OW16375   3.369   3.168   3.387  0.2197 -0.3232  0.0233
 5352SOL    HW116376   3.401   3.127   3.302  1.3915 -2.2324  1.2964
 5352SOL    HW216377   3.448   3.190   3.445 -0.5460  1.1397  0.5667
 5353SOL     OW16378   4.469   2.560   1.713 -0.1205 -0.6427  0.0057
 5353SOL    HW116379   4.419   2.643   1.740  1.8373  0.7283 -0.3167
 5353SOL    HW216380   4.443   2.535   1.620  0.3508  0.5320 -0.4585
 5354SOL     OW16381   5.145   3.774   2.687  0.1810  0.2390 -0.0340
 5354SOL    HW116382   5.208   3.834   2.638  0.6493 -0.2443 -0.0315
 5354SOL    HW216383   5.065   3.755   2.629  0.2189  0.5413 -0.1860
 5355SOL     OW16384   2.698   4.640   0.745  0.3782  0.4823  0.6371
 5355SOL    HW116385   2.735   4.716   0.799  0.1115  1.1409 -0.0939
 5355SOL    HW216386   2.624   4.597   0.796 -0.1939  1.4034  0.6182
 5356SOL     OW16387   5.217   4.123   2.853  0.0631  0.3103 -0.7486
 5356SOL    HW116388   5.296   4.083   2.808 -0.7905 -1.1675 -1.0014
 5356SOL    HW216389   5.222   4.106   2.951  1.8543  3.4121 -0.1976
 5357SOL     OW16390   5.518   4.853   2.574  0.8507  0.1517 -0.4055
 5357SOL    HW116391   5.592   4.815   2.628  0.4704 -1.2164 -0.8147
 5357SOL    HW216392   5.556   4.901   2.495  1.3065 -0.6344 -0.6760
 5358SOL     OW16393   5.284   4.727   2.486  0.3659 -0.4460  0.1714
 5358SOL    HW116394   5.373   4.753   2.524 -0.4540  3.9877 -0.4076
 5358SOL    HW216395   5.215   4.731   2.559  0.3146 -2.3568  0.2824
 5359SOL     OW16396   4.326   3.931   3.197  0.7211 -0.0237 -0.5469
 5359SOL    HW116397   4.243   3.877   3.184  1.2672 -0.6066 -1.7426
 5359SOL    HW216398   4.303   4.029   3.199 -0.3311 -0.2526  2.0966
 5360SOL     OW16399   0.340   4.428   4.112 -0.4860  0.0138  0.4725
 5360SOL    HW116400   0.374   4.390   4.198  1.7625  0.9581  0.0595
 5360SOL    HW216401   0.318   4.525   4.124 -2.4516 -0.3815  0.5233
 5361SOL     OW16402   3.675   0.805   3.781 -0.2470  0.1351 -0.3652
 5361SOL    HW116403   3.621   0.871   3.833 -1.6845 -1.0987 -0.2513
 5361SOL    HW216404   3.652   0.712   3.809 -1.0136 -0.5842 -3.0646
 5362SOL     OW16405   0.318   5.191   3.090 -0.2050 -0.0410  0.5566
 5362SOL    HW116406   0.390   5.144   3.140 -1.4221 -0.0368  2.4090
 5362SOL    HW216407   0.345   5.286   3.073 -0.0190  0.1512  1.8343
 5363SOL     OW16408   4.090   4.467   2.170  0.1572 -0.1789 -0.4462
 5363SOL    HW116409   4.006   4.448   2.119 -0.5193  1.0217  0.1729
 5363SOL    HW216410   4.167   4.419   2.127 -0.2896  1.1578 -2.9087
 5364SOL     OW16411   3.882   4.476   3.065 -0.5903  0.1468  0.7106
 5364SOL    HW116412   3.840   4.516   2.984  0.5069  1.5132  0.7739
 5364SOL    HW216413   3.919   4.549   3.123 -0.3148 -0.8692  1.8649
 5365SOL     OW16414   5.435   3.550   3.341 -0.0825  0.0045  0.1656
 5365SOL    HW116415   5.449   3.620   3.271  0.3685 -0.0101  0.2388
 5365SOL    HW216416   5.338   3.547   3.366 -0.4559 -0.7589 -1.2675
 5366SOL     OW16417   0.338   4.747   3.146 -0.1882 -0.4239 -0.2629
 5366SOL    HW116418   0.299   4.664   3.106 -0.4143  0.5967 -2.2759
 5366SOL    HW216419   0.404   4.787   3.082  0.7600  0.3608  1.1548
 5367SOL     OW16420   3.408   0.239   2.715  0.8176  0.3878 -0.2076
 5367SOL    HW116421   3.413   0.229   2.616  0.3862 -0.6160 -0.1313
 5367SOL    HW216422   3.428   0.334   2.739 -0.8873  1.1022 -1.4021
 5368SOL     OW16423   4.238   4.973   2.588  0.3714  0.2147  0.5545
 5368SOL    HW116424   4.300   4.903   2.623  1.2070  0.1810 -0.9237
 5368SOL    HW216425   4.287   5.059   2.579  0.1191  0.2835 -0.2545
 5369SOL     OW16426   0.318   4.443   2.319 -0.1447  0.1772 -0.6914
 5369SOL    HW116427   0.373   4.497   2.256  1.4586 -1.1915 -0.5508
 5369SOL    HW216428   0.263   4.378   2.268  0.8052 -0.6137 -0.7453
 5370SOL     OW16429   5.191   4.970   1.839  0.2623  0.0565 -0.1868
 5370SOL    HW116430   5.144   4.948   1.753  1.5900  0.0620 -0.9479
 5370SOL    HW216431   5.186   4.892   1.901 -3.3117  1.0692  1.0082
 5371SOL     OW16432   0.370   4.105   1.736 -0.1937 -0.0625  0.3131
 5371SOL    HW116433   0.320   4.045   1.673  0.3943  1.0138 -1.2357
 5371SOL    HW216434   0.456   4.061   1.762  0.1867  0.0226 -0.7333
 5372SOL     OW16435   4.446   5.395   3.547  0.3730  0.2516  0.2531
 5372SOL    HW116436   4.373   5.327   3.555 -0.5395  1.0532 -0.9773
 5372SOL    HW216437   4.420   5.464   3.480  2.8075 -0.1188 -1.1815
 5373SOL     OW16438   2.578   4.226   2.299  0.2422  0.0423 -0.2839
 5373SOL    HW116439   2.544   4.317   2.322  0.3461 -0.0820  0.3866
 5373SOL    HW216440   2.578   4.169   2.381  0.6632 -0.4102 -0.5944
 5374SOL     OW16441   4.622   4.676   3.151  0.2765  0.0355 -0.3801
 5374SOL    HW116442   4.673   4.634   3.227 -0.3764 -1.9770 -0.9926
 5374SOL    HW216443   4.538   4.625   3.136 -0.6314  1.6839 -1.1333
 5375SOL     OW16444   0.048   4.558   3.387 -0.0960 -0.2941 -0.2590
 5375SOL    HW116445  -0.042   4.560   3.432  0.7889  0.2505  1.5743
 5375SOL    HW216446   0.093   4.471   3.406  0.1158 -0.2264 -0.4454
 5376SOL     OW16447   3.550   4.036   2.283 -0.4984  0.2434 -0.0170
 5376SOL    HW116448   3.551   3.936   2.275  2.2514  0.3151 -2.4504
 5376SOL    HW216449   3.499   4.074   2.206  1.2876  0.6601 -1.0671
 5377SOL     OW16450   5.052   4.671   1.512  0.1888  0.3379 -0.5079
 5377SOL    HW116451   5.104   4.622   1.583 -0.2318  0.6110 -0.0044
 5377SOL    HW216452   5.111   4.687   1.433  0.1769 -1.4927 -0.9257
 5378SOL     OW16453   2.569   3.883   2.963 -0.4313  0.3529  0.1293
 5378SOL    HW116454   2.564   3.876   3.063 -1.3286  1.1021  0.1477
 5378SOL    HW216455   2.479   3.865   2.924 -0.0747  0.0281 -0.5579
 5379SOL     OW16456   4.791   1.191   3.420 -0.2130 -0.4846 -0.0923
 5379SOL    HW116457   4.795   1.225   3.514  0.7275 -0.2008 -0.2250
 5379SOL    HW216458   4.862   1.121   3.407 -1.1388 -1.4252 -0.2491
 5380SOL     OW16459   5.097   2.725   2.341  0.0492 -0.1834  0.7409
 5380SOL    HW116460   5.193   2.698   2.355  0.0820  0.5284  2.1150
 5380SOL    HW216461   5.087   2.769   2.252  1.3197  1.0275  1.1646
 5381SOL     OW16462   4.947   4.019   3.073  0.6815 -0.0488  0.7406
 5381SOL    HW116463   4.983   4.031   3.166 -0.8724  1.9038  1.1611
 5381SOL    HW216464   4.908   3.928   3.063 -0.0326  0.0559  2.3576
 5382SOL     OW16465   4.155   0.271   3.217  0.3908  0.2681  0.1554
 5382SOL    HW116466   4.073   0.250   3.270 -0.8001 -0.1308 -1.7535
 5382SOL    HW216467   4.178   0.368   3.229 -0.5607  0.4695  0.4673
 5383SOL     OW16468   0.037   4.274   0.902  0.4375 -0.1040 -0.1109
 5383SOL    HW116469   0.123   4.230   0.928  1.1873  0.5602 -1.3765
 5383SOL    HW216470  -0.022   4.207   0.857  0.9041 -0.1969 -0.5809
 5384SOL     OW16471   0.797   3.881   2.142 -0.1690  0.8472 -0.0818
 5384SOL    HW116472   0.830   3.975   2.142 -0.1385  0.9081  2.4203
 5384SOL    HW216473   0.875   3.818   2.142 -0.1383  0.8825  0.7974
 5385SOL     OW16474   5.499   4.036   2.935  0.0878  0.0015 -0.0992
 5385SOL    HW116475   5.584   3.990   2.911 -0.0074 -0.2129 -0.0349
 5385SOL    HW216476   5.519   4.128   2.968  0.1920  0.4016 -1.2514
 5386SOL     OW16477   4.152   4.912   1.036  0.1481  0.3811  0.6195
 5386SOL    HW116478   4.160   4.813   1.029 -0.5364  0.3820 -0.5176
 5386SOL    HW216479   4.059   4.937   1.061  0.5224  0.7234  1.7147
 5387SOL     OW16480   4.482   0.796   2.557  0.7014  0.2480  0.0917
 5387SOL    HW116481   4.400   0.742   2.577  0.8610  0.5716  1.8151
 5387SOL    HW216482   4.496   0.800   2.458 -1.3738  0.2007 -0.2653
 5388SOL     OW16483   3.664   5.242   3.955 -0.5276 -0.0024  0.2495
 5388SOL    HW116484   3.727   5.244   4.033  0.3686  1.3598 -0.4774
 5388SOL    HW216485   3.715   5.225   3.871 -1.4738 -1.3438 -0.0840
 5389SOL     OW16486   3.986   4.185   4.652 -0.2393 -0.4365 -0.1425
 5389SOL    HW116487   3.991   4.185   4.752 -0.0426  0.6673 -0.1385
 5389SOL    HW216488   3.896   4.153   4.623 -1.6719  2.6717  0.5295
 5390SOL     OW16489   3.632   3.570   5.271  0.3593  0.3449  0.5552
 5390SOL    HW116490   3.572   3.541   5.347  0.4551 -1.7844 -0.1177
 5390SOL    HW216491   3.630   3.501   5.200  1.9681  1.2972 -0.4544
 5391SOL     OW16492   4.847   0.313   5.432 -0.2140 -0.0113  0.3756
 5391SOL    HW116493   4.756   0.314   5.472 -0.0150 -0.1293  0.8337
 5391SOL    HW216494   4.875   0.219   5.414 -0.0735  0.0085  0.4868
 5392SOL     OW16495   0.416   5.482   3.343  0.2992 -0.0221  0.0792
 5392SOL    HW116496   0.413   5.558   3.408  0.5851  0.0983 -0.0484
 5392SOL    HW216497   0.419   5.396   3.393 -2.5977 -0.1053  0.2791
 5393SOL     OW16498   4.509   5.024   5.042 -0.2955 -0.1234 -1.5753
 5393SOL    HW116499   4.465   5.084   5.110 -1.5106 -1.7693 -0.8443
 5393SOL    HW216500   4.503   5.067   4.952  1.5335  2.2135 -0.7075
 5394SOL     OW16501   5.237   4.132   4.956 -0.0067 -0.3612 -0.0963
 5394SOL    HW116502   5.194   4.212   4.999  1.5169  1.2017 -1.3045
 5394SOL    HW216503   5.178   4.096   4.885 -0.2437  0.4081 -0.2966
 5395SOL     OW16504   3.769   5.154   4.589 -0.0765  0.1515  0.1498
 5395SOL    HW116505   3.696   5.180   4.653 -1.6876 -0.8773 -1.1935
 5395SOL    HW216506   3.816   5.236   4.558 -1.8113  1.0456 -0.2499
 5396SOL     OW16507   5.358  -0.020   0.098 -0.3564 -0.4095 -0.5213
 5396SOL    HW116508   5.273   0.030   0.081 -1.7318 -2.0182  1.2350
 5396SOL    HW216509   5.428   0.044   0.131 -0.7993  0.9650 -2.1312
 5397SOL     OW16510   3.749   4.087   4.517  0.0925  0.0567  0.0396
 5397SOL    HW116511   3.773   4.166   4.462 -3.3088  0.1461 -1.5743
 5397SOL    HW216512   3.762   4.003   4.464 -2.8946  0.1215 -0.9731
 5398SOL     OW16513   3.667   3.580   0.446 -0.5442 -0.5978  0.2387
 5398SOL    HW116514   3.624   3.662   0.407 -1.0989 -0.8570  0.2845
 5398SOL    HW216515   3.763   3.597   0.464 -0.8142  0.2719  0.8951
 5399SOL     OW16516   3.099   3.358   4.260 -0.1163  0.0068 -0.3673
 5399SOL    HW116517   3.014   3.321   4.223  0.2579  0.4193 -1.7189
 5399SOL    HW216518   3.140   3.419   4.192  0.0599  1.6935  1.1970
 5400SOL     OW16519   5.615   3.845   0.389 -0.2719  0.6741 -0.4595
 5400SOL    HW116520   5.631   3.748   0.408 -0.2459  1.0349  1.5736
 5400SOL    HW216521   5.529   3.856   0.339 -0.7335 -0.3432  0.0825
 5401SOL     OW16522   2.755   3.848   0.491 -0.3674 -0.0857  0.0995
 5401SOL    HW116523   2.791   3.757   0.470 -1.0055 -0.4549  0.5722
 5401SOL    HW216524   2.662   3.839   0.527 -0.0593  0.6853  1.1041
 5402SOL     OW16525   4.616   4.231   5.409 -0.5246  0.3731  0.6621
 5402SOL    HW116526   4.522   4.200   5.425 -0.0852 -0.7897  1.1014
 5402SOL    HW216527   4.644   4.205   5.316 -0.7990  1.2030  0.3299
 5403SOL     OW16528   4.715   4.075   3.976 -0.4796  0.0351  0.6969
 5403SOL    HW116529   4.807   4.103   4.005 -0.2298 -0.0448  0.0026
 5403SOL    HW216530   4.673   4.019   4.048 -1.0450  2.2359  2.2025
 5404SOL     OW16531   3.920   5.596   4.762 -0.1449 -0.2375  0.1369
 5404SOL    HW116532   3.839   5.653   4.749  1.2415  1.9514  0.4137
 5404SOL    HW216533   3.925   5.528   4.689 -1.7392  0.1765 -0.4031
 5405SOL     OW16534   4.663  -0.008   3.860 -0.4896 -0.1651  0.6163
 5405SOL    HW116535   4.719  -0.049   3.787  0.4400 -1.5832  2.0603
 5405SOL    HW216536   4.654   0.090   3.844  2.0656  0.0406  0.0710
 5406SOL     OW16537   3.448   4.009   3.646  0.0672  0.2837 -0.3421
 5406SOL    HW116538   3.543   4.031   3.623 -0.7431  2.2630 -2.1613
 5406SOL    HW216539   3.393   4.006   3.562 -1.4169 -1.3817  0.6068
 5407SOL     OW16540   3.749   5.111   0.738  0.3138 -0.2383 -0.3205
 5407SOL    HW116541   3.731   5.013   0.747  0.9314 -0.7316 -3.2223
 5407SOL    HW216542   3.685   5.150   0.671  0.9675  1.0453 -0.2202
 5408SOL     OW16543   5.230   5.187   3.508  0.1652 -0.8717 -0.7667
 5408SOL    HW116544   5.261   5.092   3.514  2.9003 -0.1360 -1.9101
 5408SOL    HW216545   5.291   5.246   3.560  0.0075  0.5464 -2.1108
 5409SOL     OW16546   4.801   5.199   5.106 -0.3058 -0.3524 -0.4219
 5409SOL    HW116547   4.729   5.194   5.037 -3.3827  0.5839  2.4400
 5409SOL    HW216548   4.793   5.121   5.168 -0.6844  1.1118  1.4760
 5410SOL     OW16549   2.642   5.442   4.086  0.0449  0.1153 -0.1684
 5410SOL    HW116550   2.691   5.405   4.007 -0.3070  2.2813 -1.5142
 5410SOL    HW216551   2.581   5.373   4.124 -0.1202 -0.8526 -2.1038
 5411SOL     OW16552   4.941   4.144   4.185 -0.0953 -0.2109  0.0633
 5411SOL    HW116553   5.011   4.198   4.138  1.9788 -1.4536  1.5423
 5411SOL    HW216554   4.889   4.203   4.246  1.6438  0.3379  1.1050
 5412SOL     OW16555   4.767   3.514   4.591 -0.0248 -0.5639 -0.2282
 5412SOL    HW116556   4.697   3.443   4.603 -0.9923  0.0587 -1.8436
 5412SOL    HW216557   4.850   3.474   4.553 -0.5392 -0.8462 -1.0610
 5413SOL     OW16558   5.508   2.867   4.140  0.6403 -0.3328 -0.1182
 5413SOL    HW116559   5.566   2.870   4.058  1.0878 -2.0702  0.0976
 5413SOL    HW216560   5.562   2.841   4.219 -0.2545 -1.1126  0.2599
 5414SOL     OW16561   1.173   3.911   3.909 -0.3274  0.8869  0.0709
 5414SOL    HW116562   1.222   3.908   3.996 -0.3315  1.0522  0.0797
 5414SOL    HW216563   1.219   3.851   3.843 -0.4270  0.6265  0.2375
 5415SOL     OW16564   3.008   2.882   5.169  0.2156 -1.0489 -0.0524
 5415SOL    HW116565   2.932   2.875   5.234  0.8209 -3.3222  0.5044
 5415SOL    HW216566   2.995   2.817   5.095  0.0896  0.7673 -1.6914
 5416SOL     OW16567   4.120   0.529   5.113  0.4988 -0.1960 -0.7150
 5416SOL    HW116568   4.106   0.432   5.131  0.6074 -0.1236 -0.2166
 5416SOL    HW216569   4.191   0.541   5.044 -1.7720 -0.5718 -3.2665
 5417SOL     OW16570   4.667   4.464   5.539  0.2761 -0.3982 -0.4546
 5417SOL    HW116571   4.591   4.497   5.595  0.6306  1.6732 -1.1238
 5417SOL    HW216572   4.634   4.394   5.477 -1.1998  0.7074 -0.9734
 5418SOL     OW16573   4.759   3.743   4.719  0.4443  0.2408 -0.1650
 5418SOL    HW116574   4.785   3.658   4.674 -0.4029  0.6627 -1.5286
 5418SOL    HW216575   4.782   3.821   4.660 -0.9222  0.7996 -0.0191
 5419SOL     OW16576   4.318   4.898   4.861  0.7276  0.0175 -0.6581
 5419SOL    HW116577   4.243   4.948   4.818  0.8987 -0.1059 -1.1009
 5419SOL    HW216578   4.324   4.924   4.958  0.2878  0.2283 -0.6850
 5420SOL     OW16579   0.915   3.587   4.120 -0.0170  0.0293  0.3159
 5420SOL    HW116580   0.950   3.612   4.030  0.6985  0.7761  0.7917
 5420SOL    HW216581   0.991   3.579   4.184 -0.4684 -1.0008  0.7471
 5421SOL     OW16582   5.106   5.229   1.919 -0.7341 -0.2649 -0.3055
 5421SOL    HW116583   5.123   5.132   1.905 -0.7575 -0.3649  0.3059
 5421SOL    HW216584   5.132   5.280   1.837  1.9665 -0.4709  0.3167
 5422SOL     OW16585   3.666   4.652   4.447 -0.0601  0.2694 -0.0642
 5422SOL    HW116586   3.761   4.672   4.422  1.0801 -3.7519  0.4639
 5422SOL    HW216587   3.607   4.665   4.367  0.8359  2.7082 -0.4324
 5423SOL     OW16588   4.323   4.463   4.956 -0.1023  0.2693 -0.1252
 5423SOL    HW116589   4.363   4.460   5.047 -0.6063 -0.2578  0.0827
 5423SOL    HW216590   4.225   4.444   4.962  0.2367 -2.0791 -1.0054
 5424SOL     OW16591   4.333   0.493   4.914 -0.2224  0.0996 -0.0951
 5424SOL    HW116592   4.333   0.435   4.832 -0.3452  1.0150 -0.7512
 5424SOL    HW216593   4.424   0.495   4.954  0.1395  0.6335 -0.9257
 5425SOL     OW16594   3.632   3.982   4.730 -0.0958 -0.2267 -0.1032
 5425SOL    HW116595   3.596   3.893   4.702 -0.9123  0.3701 -1.0284
 5425SOL    HW216596   3.684   4.023   4.655  1.9172 -0.7169  0.9477
 5426SOL     OW16597   4.292   3.643   4.335  0.3018 -0.3223  0.4577
 5426SOL    HW116598   4.330   3.628   4.243 -0.2026 -1.7905  0.4570
 5426SOL    HW216599   4.222   3.574   4.353  0.2978  0.0384  1.9042
 5427SOL     OW16600   5.228   4.999   3.871 -0.0297 -0.2487 -0.5071
 5427SOL    HW116601   5.298   4.944   3.917  0.3957 -2.5144 -3.5847
 5427SOL    HW216602   5.258   5.095   3.869  2.9849 -1.0975 -1.5191
 5428SOL     OW16603   5.468   3.798   3.546  0.1195 -0.3134 -0.0273
 5428SOL    HW116604   5.429   3.707   3.559 -0.0629 -0.2954 -0.4369
 5428SOL    HW216605   5.405   3.866   3.582 -0.4625 -0.2530 -1.1054
 5429SOL     OW16606   5.311   4.776   1.048  0.3669  0.0774 -0.2784
 5429SOL    HW116607   5.255   4.824   0.981 -0.1128  0.2094  0.2103
 5429SOL    HW216608   5.401   4.820   1.054  0.6635 -0.3755 -1.3480
 5430SOL     OW16609   3.970   0.276   5.365  0.5058 -0.2269  0.1659
 5430SOL    HW116610   3.875   0.254   5.344  0.2490  0.9944 -0.0447
 5430SOL    HW216611   4.030   0.238   5.295  0.0556  0.0218 -0.3604
 5431SOL     OW16612   4.036   3.779   4.235 -0.4078 -0.2248 -0.3520
 5431SOL    HW116613   4.136   3.790   4.239 -0.5435  1.2213 -0.2814
 5431SOL    HW216614   4.013   3.702   4.175  0.7871 -1.8458  1.1661
 5432SOL     OW16615   3.668   4.412   3.291 -0.4168 -0.2942 -0.0924
 5432SOL    HW116616   3.620   4.497   3.315  1.2082  0.4424  0.6982
 5432SOL    HW216617   3.714   4.423   3.203 -1.4048 -0.8976 -0.7058
 5433SOL     OW16618   3.594   0.093   3.721 -0.6238  0.2896 -0.2621
 5433SOL    HW116619   3.523   0.082   3.651 -0.6269  1.0329 -0.3880
 5433SOL    HW216620   3.567   0.166   3.784  0.2777  0.9573 -0.6355
 5434SOL     OW16621  -0.031   0.153   0.160  0.3893 -1.2487 -0.1322
 5434SOL    HW116622   0.002   0.194   0.075  0.5507 -2.1418 -0.5099
 5434SOL    HW216623   0.041   0.099   0.201  0.7865  0.3120  1.3488
 5435SOL     OW16624   4.836   3.717   3.213 -0.1581  0.1732 -0.0377
 5435SOL    HW116625   4.834   3.669   3.301 -0.8724  2.2690  1.1599
 5435SOL    HW216626   4.743   3.731   3.180  0.1231 -1.2372 -1.5445
 5436SOL     OW16627   5.213   4.104   5.317  0.1332 -0.1645 -0.3362
 5436SOL    HW116628   5.201   4.175   5.247 -1.0571 -0.1216 -0.1130
 5436SOL    HW216629   5.220   4.015   5.273  0.6755 -0.0186 -0.5638
 5437SOL     OW16630   0.332   3.001   4.365  0.3120  0.0607  0.1128
 5437SOL    HW116631   0.410   3.040   4.316 -0.8089  0.9895 -0.9706
 5437SOL    HW216632   0.335   2.901   4.357  1.7072  0.0371  0.6109
 5438SOL     OW16633   4.908   3.736   2.541  0.0170  0.3054 -0.3468
 5438SOL    HW116634   4.871   3.803   2.476  1.6336  0.7567 -0.8534
 5438SOL    HW216635   4.888   3.766   2.635 -0.8597  0.5396 -0.6084
 5439SOL     OW16636   5.020   0.018   4.072 -0.5298 -0.2954  0.4881
 5439SOL    HW116637   5.099   0.063   4.031  0.8132 -1.8531  1.2709
 5439SOL    HW216638   4.993   0.067   4.155 -0.5651  0.3751  0.0924
 5440SOL     OW16639   4.124   5.218   3.696 -0.2778 -0.2178  0.6636
 5440SOL    HW116640   4.137   5.190   3.601 -0.2815 -0.0466  0.6114
 5440SOL    HW216641   4.195   5.178   3.753 -1.0764 -1.4550  0.8197
 5441SOL     OW16642   0.113   3.830   4.316  0.1931 -0.1458 -0.2301
 5441SOL    HW116643   0.040   3.820   4.248 -0.2829 -2.1195  0.5048
 5441SOL    HW216644   0.073   3.857   4.404  0.7005  1.5156 -0.4903
 5442SOL     OW16645   5.238   0.479   4.937 -0.3626 -0.0667  0.1006
 5442SOL    HW116646   5.317   0.501   4.994  0.0024  0.8189 -0.7086
 5442SOL    HW216647   5.226   0.551   4.868 -0.1856 -1.5673 -1.5830
 5443SOL     OW16648   4.603   0.175   5.032  0.1503 -0.1460  0.3642
 5443SOL    HW116649   4.503   0.170   5.021  0.2261 -0.0782 -0.4451
 5443SOL    HW216650   4.629   0.269   5.051 -0.1384 -0.5136  3.0656
 5444SOL     OW16651   5.063   5.351   4.326 -0.3371 -0.3991 -0.5897
 5444SOL    HW116652   5.090   5.262   4.290  0.1591  0.2419 -1.8617
 5444SOL    HW216653   5.034   5.341   4.421  0.2604 -1.8166 -0.5317
 5445SOL     OW16654   3.792   3.844   4.384  0.0342 -0.2486 -0.4952
 5445SOL    HW116655   3.890   3.826   4.374 -0.1519 -1.0470 -1.0512
 5445SOL    HW216656   3.749   3.843   4.293  0.2847  5.3292 -1.0127
 5446SOL     OW16657   3.417   0.440   3.509  0.1796  0.5689  0.5675
 5446SOL    HW116658   3.330   0.489   3.517  0.5021  1.2265  0.1605
 5446SOL    HW216659   3.420   0.392   3.421 -1.5648 -3.0850  2.2639
 5447SOL     OW16660   3.982   3.772   5.085 -0.4260  0.5400 -0.6434
 5447SOL    HW116661   3.942   3.739   5.171 -1.9323  3.9641  0.1262
 5447SOL    HW216662   3.914   3.825   5.034  1.0013  0.2069 -3.0839
 5448SOL     OW16663   4.945   4.556   4.409  0.1724 -0.3793  0.3323
 5448SOL    HW116664   5.013   4.533   4.339  0.0629 -0.6467  0.3136
 5448SOL    HW216665   4.903   4.472   4.444 -1.1077 -0.1634 -0.6121
 5449SOL     OW16666   5.044   0.102   4.541  1.0026  0.0446 -0.4072
 5449SOL    HW116667   5.095   0.030   4.587 -1.4071 -0.2677  2.0076
 5449SOL    HW216668   4.976   0.061   4.481  0.9093  0.3539 -0.5147
 5450SOL     OW16669   5.447   3.269   3.275  0.1578  0.4808  0.2240
 5450SOL    HW116670   5.459   3.361   3.313 -1.9310  0.5783  0.7888
 5450SOL    HW216671   5.365   3.268   3.216  0.8869 -0.7238 -0.8273
 5451SOL     OW16672   4.004   0.142   0.020 -0.1996 -0.0485  0.6390
 5451SOL    HW116673   4.089   0.091   0.014 -0.6265 -0.7128 -0.0610
 5451SOL    HW216674   4.013   0.227  -0.032  0.0958 -0.0370  0.7085
 5452SOL     OW16675   3.800   5.018   4.365 -0.3770  0.3186 -0.1585
 5452SOL    HW116676   3.847   4.930   4.376 -0.9181  0.2051  1.6015
 5452SOL    HW216677   3.812   5.072   4.448  1.6560  2.8288 -1.9396
 5453SOL     OW16678   4.032   4.816   4.154  0.1271 -0.4859 -0.1755
 5453SOL    HW116679   4.083   4.764   4.084  0.8136 -0.2808  0.1724
 5453SOL    HW216680   4.096   4.864   4.213 -0.5099  1.3348 -0.9079
 5454SOL     OW16681   4.873   4.579   4.762  0.2854 -0.7869 -0.7094
 5454SOL    HW116682   4.845   4.626   4.846  1.3088  0.2049 -0.9051
 5454SOL    HW216683   4.809   4.505   4.743 -1.1494  0.2595 -0.1580
 5455SOL     OW16684   4.473   4.116   3.843 -0.1571 -0.3906 -0.0558
 5455SOL    HW116685   4.497   4.159   3.756 -1.5918 -0.7859 -0.6707
 5455SOL    HW216686   4.549   4.058   3.874  0.2535 -0.4747 -1.1833
 5456SOL     OW16687   4.079   3.805   3.845 -0.4916  0.2443 -0.3097
 5456SOL    HW116688   4.049   3.732   3.906 -1.6533  0.0782 -1.0532
 5456SOL    HW216689   4.097   3.767   3.754 -0.7725  0.8202 -0.6108
 5457SOL     OW16690   4.564   5.021   3.836 -0.4142 -0.1940 -0.5308
 5457SOL    HW116691   4.595   5.104   3.790  3.7496 -1.5559 -0.5188
 5457SOL    HW216692   4.572   4.943   3.774 -2.5532 -0.9494  0.0326
 5458SOL     OW16693   4.273   0.870   5.488  0.1009 -0.3138 -0.0401
 5458SOL    HW116694   4.273   0.794   5.423  1.0177  0.4599 -0.9839
 5458SOL    HW216695   4.353   0.864   5.548 -0.9278 -1.2237  1.3002
 5459SOL     OW16696   4.567   0.373   4.220 -0.1546 -0.1840  0.1350
 5459SOL    HW116697   4.664   0.359   4.238  0.3135  0.3040 -1.8629
 5459SOL    HW216698   4.523   0.284   4.205  0.2889 -0.3197 -0.3960
 5460SOL     OW16699   5.475   4.290   4.938  0.5830 -0.3660  0.1102
 5460SOL    HW116700   5.384   4.249   4.931  0.8269 -0.8418 -0.3156
 5460SOL    HW216701   5.535   4.231   4.991  0.3887  0.4158  1.2545
 5461SOL     OW16702   4.295   4.532   3.636 -0.2365 -0.0806  0.0983
 5461SOL    HW116703   4.365   4.505   3.570 -0.8174 -0.6720 -0.2935
 5461SOL    HW216704   4.207   4.492   3.610 -0.9996  1.6485 -0.0926
 5462SOL     OW16705   4.649   0.080   4.422 -0.6874  0.2358 -0.1118
 5462SOL    HW116706   4.688   0.131   4.499  0.8903 -0.9431 -0.0837
 5462SOL    HW216707   4.584   0.012   4.457  1.3193 -1.5125  0.4356
 5463SOL     OW16708   4.646   4.818   3.653 -0.2735  0.4274  0.8438
 5463SOL    HW116709   4.744   4.807   3.638 -0.2325  0.2644  1.2215
 5463SOL    HW216710   4.609   4.735   3.693 -0.5680  0.4863  0.6974
 5464SOL     OW16711   5.164   3.566   3.392  0.9242  0.1930  0.2237
 5464SOL    HW116712   5.120   3.503   3.455  0.6207 -0.3240 -0.4971
 5464SOL    HW216713   5.095   3.620   3.345  1.0545 -0.4723 -0.7555
 5465SOL     OW16714   4.438   4.482   5.208 -0.3570  0.6284  0.2565
 5465SOL    HW116715   4.357   4.472   5.266 -1.2532  0.7855 -0.9113
 5465SOL    HW216716   4.441   4.576   5.172 -0.2835  0.3139 -0.5807
 5466SOL     OW16717   4.705   4.912   4.792 -0.2174  0.3380  0.4259
 5466SOL    HW116718   4.746   4.860   4.867  0.4452  0.6879  0.3169
 5466SOL    HW216719   4.671   4.850   4.722  1.4231  0.0495 -0.1493
 5467SOL     OW16720   3.920   0.246   3.347  0.0062 -0.0325 -0.0912
 5467SOL    HW116721   3.927   0.270   3.444 -0.6271 -2.4663  0.6224
 5467SOL    HW216722   3.886   0.325   3.296 -2.5297  0.4660  2.1449
 5468SOL     OW16723   5.264   0.768   4.458 -0.1836 -0.1210  0.1832
 5468SOL    HW116724   5.310   0.853   4.487 -2.2808  2.1044 -2.4821
 5468SOL    HW216725   5.320   0.723   4.389  0.3824 -0.3102  0.7477
 5469SOL     OW16726   0.228   3.594   4.277 -0.1704  0.3061  0.1597
 5469SOL    HW116727   0.183   3.557   4.196 -2.8362 -1.0046  2.0762
 5469SOL    HW216728   0.182   3.680   4.303  0.6054  0.6724  0.3366
 5470SOL     OW16729   4.493   4.358   4.349 -1.0045 -0.4485 -0.1378
 5470SOL    HW116730   4.530   4.290   4.412 -1.3895  1.3144  2.1640
 5470SOL    HW216731   4.564   4.387   4.285  0.0545 -0.8734  0.8127
 5471SOL     OW16732   4.012   4.700   5.341  0.1973  0.1226 -0.2119
 5471SOL    HW116733   4.079   4.754   5.290  1.4441 -0.3777  0.8673
 5471SOL    HW216734   3.923   4.746   5.337  0.6957  1.0495 -1.2432
 5472SOL     OW16735   3.853   3.196   4.384  0.3991 -0.0111 -0.3842
 5472SOL    HW116736   3.882   3.291   4.372 -0.8500  0.6202  1.2623
 5472SOL    HW216737   3.828   3.179   4.479  2.8887 -2.7058 -0.0674
 5473SOL     OW16738   3.675   2.582   3.565  0.0623 -0.1108 -0.0028
 5473SOL    HW116739   3.681   2.542   3.656 -0.1026  2.3045  1.1769
 5473SOL    HW216740   3.714   2.674   3.567 -1.0209  0.4585 -2.0839
 5474SOL     OW16741   0.934   3.167   3.490  0.1252  0.3004 -0.2315
 5474SOL    HW116742   0.959   3.093   3.552  1.3375 -1.2134 -2.3600
 5474SOL    HW216743   0.905   3.247   3.542  2.4063 -0.3800  2.3009
 5475SOL     OW16744   0.014   3.891   3.335 -0.0153 -0.7383  0.4044
 5475SOL    HW116745  -0.027   3.856   3.420  2.4817 -1.2323  1.5033
 5475SOL    HW216746   0.034   3.989   3.346 -2.4338 -0.0247 -0.8205
 5476SOL     OW16747   0.444   3.788   4.693 -0.0548  0.0149  0.1249
 5476SOL    HW116748   0.447   3.800   4.793 -3.0863  2.5310  0.0747
 5476SOL    HW216749   0.359   3.742   4.668 -0.6381  1.8145 -1.3953
 5477SOL     OW16750   5.001   3.878   3.460 -0.0907  0.1822  0.5142
 5477SOL    HW116751   4.937   3.850   3.389  0.2844  1.6898 -0.4659
 5477SOL    HW216752   5.088   3.904   3.418  0.7424 -0.5925  1.7064
 5478SOL     OW16753   0.603   4.235   3.453 -0.3126  0.3134  0.5709
 5478SOL    HW116754   0.552   4.155   3.485 -0.3333 -0.3425 -0.9773
 5478SOL    HW216755   0.623   4.224   3.356  1.6131  1.1871  0.8257
 5479SOL     OW16756   4.499   4.268   3.070  0.0127  0.1169 -0.0290
 5479SOL    HW116757   4.517   4.220   2.984  0.3736  0.6679 -0.2671
 5479SOL    HW216758   4.570   4.246   3.136  0.2558  0.4171 -0.1836
 5480SOL     OW16759   4.630   4.178   4.536 -0.3038  0.1557 -0.4552
 5480SOL    HW116760   4.618   4.088   4.494  0.6776 -0.2238  0.0538
 5480SOL    HW216761   4.557   4.193   4.603 -0.0788 -0.5647 -0.0351
 5481SOL     OW16762   0.089   0.510   4.540 -0.1591 -0.3015 -0.1056
 5481SOL    HW116763   0.007   0.526   4.484 -1.8313 -0.3925  2.2039
 5481SOL    HW216764   0.064   0.510   4.637  2.4942 -0.9844  0.6491
 5482SOL     OW16765   4.134   4.244   5.407  0.2805  0.3328  0.3266
 5482SOL    HW116766   4.201   4.171   5.421 -1.0404 -1.0702 -0.3868
 5482SOL    HW216767   4.064   4.213   5.343 -1.2049  1.6542  1.2399
 5483SOL     OW16768   4.348   0.116   4.958 -0.1864  0.2989  0.3429
 5483SOL    HW116769   4.381   0.025   4.934  1.6982  0.8153  0.8504
 5483SOL    HW216770   4.256   0.129   4.920  0.9784 -0.3911 -3.1638
 5484SOL     OW16771   5.105   4.113   0.969  0.3157  0.3816  0.2989
 5484SOL    HW116772   5.070   4.052   0.898  0.5057 -0.3621  0.8273
 5484SOL    HW216773   5.182   4.165   0.932  0.6359 -0.2483  0.0431
 5485SOL     OW16774   4.209   4.484   5.333  0.1845  0.3532  0.4627
 5485SOL    HW116775   4.132   4.545   5.350 -1.0222 -0.1917 -2.4842
 5485SOL    HW216776   4.192   4.395   5.373 -1.0263  0.0673 -0.6409
 5486SOL     OW16777   4.384   4.037   4.267 -0.2290 -0.3792 -0.5927
 5486SOL    HW116778   4.313   4.095   4.307 -1.2246 -0.5801 -2.0388
 5486SOL    HW216779   4.454   4.018   4.337  0.3145  2.7950 -0.1333
 5487SOL     OW16780   4.800   5.379   0.866 -0.3921 -0.0521  0.4629
 5487SOL    HW116781   4.795   5.368   0.767  0.4283 -1.4831  0.5535
 5487SOL    HW216782   4.798   5.476   0.889  1.4623  0.4139 -1.0963
 5488SOL     OW16783   5.224   3.278   4.165 -0.1780  0.0178  0.6677
 5488SOL    HW116784   5.258   3.354   4.220 -0.4623  1.7307 -1.3882
 5488SOL    HW216785   5.300   3.223   4.132  0.0570 -0.3897  1.8480
 5489SOL     OW16786   3.547   5.192   4.758 -0.7245 -0.5931  0.0643
 5489SOL    HW116787   3.451   5.178   4.735 -0.8186 -0.3715  0.3163
 5489SOL    HW216788   3.555   5.215   4.855 -0.4990  0.2936 -0.1558
 5490SOL     OW16789   5.296   4.234   4.557  0.0635 -0.3709  0.2455
 5490SOL    HW116790   5.332   4.179   4.481 -0.8551 -0.9281  0.2013
 5490SOL    HW216791   5.319   4.190   4.644 -1.2761 -1.2397  0.1909
 5491SOL     OW16792   3.551   4.066   5.299  0.5635 -0.1783 -0.2026
 5491SOL    HW116793   3.507   3.983   5.266  0.8907 -0.6856  0.6290
 5491SOL    HW216794   3.615   4.100   5.229  1.9122 -1.7392  0.2251
 5492SOL     OW16795   3.774   4.896   3.730 -1.2552  0.0418 -0.4464
 5492SOL    HW116796   3.785   4.993   3.750 -0.8071 -0.3563  1.4778
 5492SOL    HW216797   3.851   4.845   3.769 -0.8550 -0.9944 -2.4490
 5493SOL     OW16798   5.507   4.207   3.554 -0.0788 -0.8181  0.1734
 5493SOL    HW116799   5.483   4.258   3.636  1.1658  0.6155 -0.3037
 5493SOL    HW216800   5.553   4.122   3.580  2.2400  0.5981  1.0390
 5494SOL     OW16801   4.371   4.390   4.596  0.4110 -0.3400  0.0136
 5494SOL    HW116802   4.410   4.390   4.504  0.5155 -0.5522  0.0590
 5494SOL    HW216803   4.397   4.475   4.643  2.6530 -1.4269  0.8271
 5495SOL     OW16804   5.538   5.087   3.291  0.8155  0.4571 -0.0154
 5495SOL    HW116805   5.565   5.171   3.338  0.7998 -0.7553  2.3613
 5495SOL    HW216806   5.438   5.084   3.282  0.7349  0.2660  0.8462
 5496SOL     OW16807   5.200   4.242   4.097 -0.5839  0.0351  0.2743
 5496SOL    HW116808   5.294   4.242   4.131 -0.3725  0.2371 -0.3086
 5496SOL    HW216809   5.188   4.167   4.033 -0.7893  0.0743  0.2678
 5497SOL     OW16810   4.284   5.233   0.186 -0.1800 -0.3445 -0.4334
 5497SOL    HW116811   4.327   5.321   0.165 -0.8805  0.0283 -0.3494
 5497SOL    HW216812   4.226   5.205   0.110  0.4786 -1.0173 -0.6953
 5498SOL     OW16813   4.439   4.479   0.135 -0.2752  0.1211 -0.1803
 5498SOL    HW116814   4.431   4.528   0.222  1.3758  0.7366 -0.3558
 5498SOL    HW216815   4.456   4.382   0.153  1.8839  0.5408  0.2311
 5499SOL     OW16816   4.785   0.061   0.972 -0.0236 -0.2725 -0.1151
 5499SOL    HW116817   4.721   0.124   0.928 -0.6986  0.2844  1.5924
 5499SOL    HW216818   4.872   0.107   0.988 -0.2294 -0.0450  0.3529
 5500SOL     OW16819   5.312   4.763   5.461  0.5033  0.1324 -0.0611
 5500SOL    HW116820   5.364   4.835   5.507  1.3424 -1.2124  1.1895
 5500SOL    HW216821   5.239   4.804   5.406  1.8041  1.9788 -0.4907
 5501SOL     OW16822   4.019   4.079   5.200  0.2029  0.3530 -0.0316
 5501SOL    HW116823   4.088   4.019   5.159  1.5915  1.4051  0.6864
 5501SOL    HW216824   3.979   4.033   5.280 -0.1579 -0.3790 -0.6195
 5502SOL     OW16825   3.775   3.859   0.250 -0.0404  0.0913  0.1059
 5502SOL    HW116826   3.837   3.787   0.281 -1.0622 -0.9811 -0.3036
 5502SOL    HW216827   3.810   3.900   0.166 -0.6126 -1.5352 -0.9600
 5503SOL     OW16828   4.371   5.041   5.411 -0.5481  0.3541  0.2941
 5503SOL    HW116829   4.406   5.051   5.318  0.6265  1.1122  0.7920
 5503SOL    HW216830   4.423   4.971   5.459 -1.4188 -0.3250  0.2761
 5504SOL     OW16831   3.543   5.515   4.933  0.2243  0.0748  0.1982
 5504SOL    HW116832   3.541   5.615   4.931 -0.6445  0.0499 -1.3143
 5504SOL    HW216833   3.632   5.484   4.968  0.4255  1.3700  0.8613
 5505SOL     OW16834   2.116   3.676   0.062 -0.6710 -0.2080 -0.2175
 5505SOL    HW116835   2.175   3.595   0.064  1.1762  1.0840 -0.3604
 5505SOL    HW216836   2.150   3.739  -0.008  0.0812  2.2415  2.2123
 5506SOL     OW16837   3.610   4.790   4.709  0.3693  0.4993  0.1619
 5506SOL    HW116838   3.625   4.815   4.613 -0.2699  1.3128  0.2685
 5506SOL    HW216839   3.536   4.845   4.747  0.4977  0.0581  1.0800
 5507SOL     OW16840   4.095   4.665   4.573  0.0329  0.0975 -0.2391
 5507SOL    HW116841   4.109   4.572   4.541 -0.2592 -0.3275  0.8043
 5507SOL    HW216842   4.084   4.664   4.673 -1.7228  1.0395 -0.3921
 5508SOL     OW16843   5.270   4.109   1.217 -0.3309 -0.1960 -0.0964
 5508SOL    HW116844   5.204   4.035   1.205  0.6064 -0.8292 -1.6777
 5508SOL    HW216845   5.299   4.142   1.127  2.1646 -0.5507  0.5185
 5509SOL     OW16846   3.351   4.144   4.816 -0.3175 -0.2399  0.2162
 5509SOL    HW116847   3.418   4.110   4.750 -0.9972 -1.5973  0.1905
 5509SOL    HW216848   3.400   4.182   4.895  0.4862  0.1439 -0.4465
 5510SOL     OW16849   0.354   3.664   3.063  0.2370 -0.0701  0.1510
 5510SOL    HW116850   0.370   3.728   2.988 -0.1890  0.8894  0.8655
 5510SOL    HW216851   0.331   3.714   3.146 -0.0311 -1.1465  0.7488
 5511SOL     OW16852   4.031   4.234   4.927  0.0676 -0.0420 -0.1581
 5511SOL    HW116853   4.094   4.159   4.950  0.5554  0.1100 -0.9593
 5511SOL    HW216854   4.016   4.290   5.008  1.4521  0.2728 -0.0874
 5512SOL     OW16855   4.433   5.330   5.423  0.4151  0.8311 -0.6385
 5512SOL    HW116856   4.384   5.405   5.467  0.1209  0.7900 -0.8983
 5512SOL    HW216857   4.426   5.248   5.479 -1.0452  0.4285 -1.3734
 5513SOL     OW16858   0.586   5.030   4.844 -0.3340  0.1256 -0.2323
 5513SOL    HW116859   0.625   4.959   4.903 -0.1645  2.1090  2.2328
 5513SOL    HW216860   0.654   5.101   4.827 -1.5178  1.5475  0.5999
 5514SOL     OW16861   3.206   4.919   1.313  0.7659 -0.3809 -0.0795
 5514SOL    HW116862   3.278   4.973   1.268 -0.1174  0.8372 -0.0686
 5514SOL    HW216863   3.160   4.862   1.245  1.3863 -0.7866 -0.1747
 5515SOL     OW16864   5.575   3.231   4.343 -0.9660  0.2900 -0.2703
 5515SOL    HW116865   5.520   3.208   4.263 -0.5273  2.0694 -1.1133
 5515SOL    HW216866   5.654   3.285   4.315 -0.8548  1.0310  1.3889
 5516SOL     OW16867   4.226   4.399   4.244 -0.1481 -0.2377  0.3145
 5516SOL    HW116868   4.169   4.346   4.307  0.9172 -1.2496  0.4501
 5516SOL    HW216869   4.321   4.396   4.273 -0.0053  1.5259  0.1510
 5517SOL     OW16870   4.867   4.886   4.325 -0.2519  0.4508 -0.2771
 5517SOL    HW116871   4.916   4.857   4.407 -0.9276 -1.6668 -0.5633
 5517SOL    HW216872   4.825   4.975   4.342  0.4795  0.5423  1.3003
 5518SOL     OW16873   4.388   4.519   3.100 -0.4395 -0.8495  0.0000
 5518SOL    HW116874   4.423   4.425   3.093  0.1032 -0.5756 -1.2822
 5518SOL    HW216875   4.305   4.527   3.045 -0.6712 -0.6555  0.3739
 5519SOL     OW16876   5.010   3.054   4.100  0.1488 -0.0922  0.2096
 5519SOL    HW116877   5.030   3.073   4.196 -0.0946 -1.3671  0.5295
 5519SOL    HW216878   5.067   2.977   4.069 -2.9599 -2.8301  0.7049
 5520SOL     OW16879   5.024   3.503   1.089  0.0356  0.1606 -0.4376
 5520SOL    HW116880   4.952   3.572   1.075  1.0035  1.4020  0.4672
 5520SOL    HW216881   5.027   3.478   1.186 -0.2281 -1.1003 -0.7429
 5521SOL     OW16882   5.410   4.321   5.299  0.3056 -0.0810 -0.0451
 5521SOL    HW116883   5.387   4.233   5.342  1.2149  0.0209  0.6779
 5521SOL    HW216884   5.486   4.307   5.235 -1.1144 -0.2567 -1.7801
 5522SOL     OW16885   4.042   4.693   3.215  0.6785  1.1544 -0.4777
 5522SOL    HW116886   4.072   4.759   3.146  0.7583  1.9832  0.3361
 5522SOL    HW216887   3.996   4.742   3.290  0.9090  0.3053  0.2275
 5523SOL     OW16888   3.337   4.901   5.266 -0.5774  0.4931  0.5884
 5523SOL    HW116889   3.323   4.856   5.354 -0.6020  0.4026  0.5384
 5523SOL    HW216890   3.433   4.894   5.239 -0.6709  0.0453  0.3504
 5524SOL     OW16891   3.717   4.023   3.993  0.1152 -0.6791  0.4565
 5524SOL    HW116892   3.669   3.959   4.053  0.5667  1.3877  3.1913
 5524SOL    HW216893   3.655   4.098   3.970  0.5555 -0.4882 -0.1052
 5525SOL     OW16894   3.430   5.042   3.972  0.0268 -0.1764 -0.2606
 5525SOL    HW116895   3.504   5.105   3.951  0.1411  0.1036  0.9131
 5525SOL    HW216896   3.383   5.072   4.055 -2.8546  0.9345 -2.1558
 5526SOL     OW16897   4.329   5.191   4.234  0.2211 -0.0062 -0.3623
 5526SOL    HW116898   4.400   5.158   4.171 -1.0776 -0.2147 -1.7932
 5526SOL    HW216899   4.277   5.113   4.268 -0.2687  0.2476 -0.5268
 5527SOL     OW16900   4.528   3.690   0.027 -0.3527 -0.0845  0.0965
 5527SOL    HW116901   4.433   3.683   0.058 -0.4395 -0.4864 -0.2489
 5527SOL    HW216902   4.581   3.615   0.066  0.2076  1.0231  1.5938
 5528SOL     OW16903   3.474   5.066   1.255 -0.3293  0.2794  0.0005
 5528SOL    HW116904   3.529   5.110   1.184  0.8167 -1.1534 -0.0456
 5528SOL    HW216905   3.439   5.136   1.318  0.3775  1.3533 -0.7568
 5529SOL     OW16906   5.483   3.903   4.168  0.9027 -0.3649 -0.9025
 5529SOL    HW116907   5.523   3.953   4.091  2.3397  1.1098  0.7299
 5529SOL    HW216908   5.428   3.827   4.133  1.0190  0.6017 -3.3815
 5530SOL     OW16909   5.237   4.273   0.098 -0.6841 -0.6541 -0.0215
 5530SOL    HW116910   5.253   4.326   0.181 -1.7580  0.4812 -0.5108
 5530SOL    HW216911   5.210   4.335   0.024  1.6069 -1.4343 -1.6306
 5531SOL     OW16912   2.226   0.708   5.254  0.2442  0.3173 -0.0001
 5531SOL    HW116913   2.147   0.695   5.313 -0.3315 -1.6519 -1.1388
 5531SOL    HW216914   2.213   0.789   5.197 -0.6656  0.3373  0.2324
 5532SOL     OW16915   3.938   4.459   0.193 -0.5050 -0.3880  0.6415
 5532SOL    HW116916   3.965   4.507   0.109  0.5074  0.8595  1.6502
 5532SOL    HW216917   3.955   4.361   0.181 -1.6084 -0.4282 -1.0654
 5533SOL     OW16918   4.846   0.807   3.262  0.6206  0.3808  0.0434
 5533SOL    HW116919   4.869   0.798   3.166  0.2063  0.7459 -0.0908
 5533SOL    HW216920   4.915   0.863   3.308  1.8650 -1.3158  0.3707
 5534SOL     OW16921   3.766   0.064   3.179 -0.1028  0.2350 -0.8388
 5534SOL    HW116922   3.696   0.102   3.119  0.3474 -0.5318 -1.8827
 5534SOL    HW216923   3.816   0.139   3.223 -1.8582  0.7936  0.3141
 5535SOL     OW16924   3.878   4.736   0.547 -0.5585  0.1979 -0.1796
 5535SOL    HW116925   3.916   4.829   0.549 -0.5178  0.1835  1.4877
 5535SOL    HW216926   3.938   4.677   0.494  1.5394  0.3049  1.8713
 5536SOL     OW16927   4.468   3.858   5.399 -0.1469 -0.5433  0.1951
 5536SOL    HW116928   4.536   3.856   5.325  0.9133  0.0962  1.1200
 5536SOL    HW216929   4.512   3.833   5.485 -1.0095  0.1952  0.8679
 5537SOL     OW16930   5.340   3.484   4.362 -0.0576  0.0146  0.0992
 5537SOL    HW116931   5.406   3.499   4.288  1.3405  0.8129  1.4388
 5537SOL    HW216932   5.389   3.453   4.444 -1.3403  0.7291  1.1772
 5538SOL     OW16933   4.566   3.656   4.399 -0.4066 -0.1580  0.6205
 5538SOL    HW116934   4.469   3.637   4.383 -0.1810 -1.8286  1.0802
 5538SOL    HW216935   4.591   3.626   4.491  1.0637 -1.9251 -0.2998
 5539SOL     OW16936   4.863   5.569   4.320 -0.9198 -0.1819 -0.3273
 5539SOL    HW116937   4.790   5.625   4.360 -0.0299 -0.2805  1.5140
 5539SOL    HW216938   4.827   5.478   4.298 -1.2346 -0.4148  1.0853
 5540SOL     OW16939   3.824   5.223   4.178 -0.5362  0.0730  0.5374
 5540SOL    HW116940   3.818   5.141   4.235 -0.0037 -0.7225 -0.5016
 5540SOL    HW216941   3.917   5.230   4.140 -0.3940  1.5065  1.1075
 5541SOL     OW16942   4.689   5.303   5.602 -0.4543 -0.0944  0.2444
 5541SOL    HW116943   4.706   5.338   5.510 -1.1814 -0.7980 -0.1770
 5541SOL    HW216944   4.677   5.203   5.598  0.4314 -0.2549  1.2403
 5542SOL     OW16945   0.918   3.660   3.631  0.0232  0.0317  0.1464
 5542SOL    HW116946   0.903   3.754   3.598  0.0013 -0.1860 -0.4732
 5542SOL    HW216947   0.921   3.598   3.553  0.0159 -0.4893  0.5607
 5543SOL     OW16948   4.102   4.373   4.528 -0.0160 -0.1092 -0.4415
 5543SOL    HW116949   4.192   4.377   4.571 -1.3489  0.5104  2.5527
 5543SOL    HW216950   4.054   4.291   4.560 -0.6107 -0.3201 -1.8241
 5544SOL     OW16951   3.123   0.668   5.396  0.1484 -0.4103  0.6621
 5544SOL    HW116952   3.182   0.708   5.467 -1.3602  0.2364  1.6071
 5544SOL    HW216953   3.067   0.740   5.354  0.8893 -0.8097 -1.1081
 5545SOL     OW16954   4.440   4.167   4.717  0.0115  0.1124 -0.0135
 5545SOL    HW116955   4.370   4.095   4.717 -1.4197  1.4463  0.5902
 5545SOL    HW216956   4.397   4.256   4.732  1.8119  1.0390 -0.0199
 5546SOL     OW16957   4.250   4.963   4.317 -0.0175  0.1428  0.0331
 5546SOL    HW116958   4.278   4.959   4.413  1.1327  0.5399 -0.2751
 5546SOL    HW216959   4.320   4.921   4.260  0.5851  2.2502 -0.8805
 5547SOL     OW16960   4.879   0.631   4.120 -0.5057 -0.2710 -0.1740
 5547SOL    HW116961   4.888   0.631   4.020 -1.7590  0.1689 -0.3022
 5547SOL    HW216962   4.956   0.582   4.160  0.2319 -0.1059 -1.3358
 5548SOL     OW16963   5.439   4.926   4.287  0.3967 -0.2751 -0.3251
 5548SOL    HW116964   5.528   4.948   4.249 -0.0268  0.1731 -1.0956
 5548SOL    HW216965   5.404   5.004   4.339 -0.6731  0.5878 -2.2288
 5549SOL     OW16966   4.748   4.130   5.141  0.1510  0.2649  0.1504
 5549SOL    HW116967   4.670   4.173   5.097 -0.4462 -1.2078 -0.2745
 5549SOL    HW216968   4.727   4.035   5.163  1.8937 -0.2537 -0.2031
 5550SOL     OW16969   3.359   5.107   4.230 -0.0158 -0.0016 -0.3571
 5550SOL    HW116970   3.288   5.168   4.194  0.0991  1.1714  1.2752
 5550SOL    HW216971   3.316   5.033   4.281 -0.1630  1.5283  1.9265
 5551SOL     OW16972   4.093   5.287   4.103  0.0721 -0.1025  0.7238
 5551SOL    HW116973   4.095   5.381   4.069  1.0442 -0.9811 -1.9058
 5551SOL    HW216974   4.187   5.255   4.117 -0.1782 -1.1612  0.0799
 5552SOL     OW16975   3.775   4.466   5.473  0.4309  0.2487  0.0580
 5552SOL    HW116976   3.869   4.498   5.479  0.7357 -0.4993 -0.6544
 5552SOL    HW216977   3.717   4.522   5.533  1.3571  0.5618  0.6835
 5553SOL     OW16978   3.985   5.454   3.582 -0.1596 -0.1799  0.3103
 5553SOL    HW116979   3.907   5.391   3.571  0.0703 -0.6040  1.0275
 5553SOL    HW216980   4.058   5.407   3.631 -0.1162  0.7589  1.1681
 5554SOL     OW16981   5.057   5.361   3.200 -0.7296 -0.0502  0.3434
 5554SOL    HW116982   5.136   5.417   3.222 -2.1591  1.8575  0.9207
 5554SOL    HW216983   4.974   5.416   3.208 -1.9906 -1.3770 -2.2450
 5555SOL     OW16984   5.400   4.562   3.535 -0.2034 -0.0435 -0.0280
 5555SOL    HW116985   5.319   4.529   3.584  0.5864  0.6950  1.8675
 5555SOL    HW216986   5.393   4.661   3.523  0.7740  0.1480  0.8896
 5556SOL     OW16987   5.125   4.646   5.232  0.0661 -0.4701  0.0360
 5556SOL    HW116988   5.164   4.608   5.148 -1.1781 -2.5771  0.3410
 5556SOL    HW216989   5.060   4.718   5.209 -0.0779 -0.8577 -0.8021
 5557SOL     OW16990   5.255   5.544   4.259  0.6026  0.1099 -0.3484
 5557SOL    HW116991   5.206   5.632   4.255 -0.8190 -0.6738 -0.9870
 5557SOL    HW216992   5.189   5.470   4.271  1.7855 -0.8844  0.1702
 5558SOL     OW16993   4.050   4.410   5.113 -0.8022 -0.4103  0.5838
 5558SOL    HW116994   3.957   4.433   5.144 -0.4317  0.8609  0.8154
 5558SOL    HW216995   4.117   4.445   5.178 -0.1263 -0.6829  0.0547
 5559SOL     OW16996   3.392   3.267   4.110  0.6027 -0.3989  0.1862
 5559SOL    HW116997   3.416   3.322   4.191 -0.6441  0.8703 -0.2666
 5559SOL    HW216998   3.310   3.304   4.068  1.7119 -0.4564 -2.2003
 5560SOL     OW16999   4.740   4.093   0.034 -0.0124  0.2397  0.6513
 5560SOL    HW117000   4.835   4.124   0.038  0.0224  0.1533  0.4631
 5560SOL    HW217001   4.699   4.123  -0.052 -0.1513  0.2617  0.7254
 5561SOL     OW17002   4.271   4.720   4.009  0.1757 -0.4666  0.2305
 5561SOL    HW117003   4.302   4.751   3.919 -0.9597 -1.2900 -0.4696
 5561SOL    HW217004   4.257   4.621   4.007  0.2937 -0.5228  1.3764
 5562SOL     OW17005   4.148   5.278   4.574 -0.3007  0.0454 -0.1744
 5562SOL    HW117006   4.188   5.318   4.492 -1.0843  0.5594 -0.3147
 5562SOL    HW217007   4.065   5.328   4.598 -0.8129 -0.9507  0.1546
 5563SOL     OW17008   5.177   4.614   0.187 -0.0228 -0.3605  0.0118
 5563SOL    HW117009   5.105   4.582   0.248  0.7079  1.1058  1.7405
 5563SOL    HW217010   5.264   4.573   0.213  0.4980  1.1495  0.7333
 5564SOL     OW17011   3.023   3.977   2.803 -0.0580 -0.6003  0.1102
 5564SOL    HW117012   3.099   3.919   2.774  0.4817  0.5353 -0.8271
 5564SOL    HW217013   3.058   4.062   2.842 -0.8355 -0.3818  0.3580
 5565SOL     OW17014   5.498   4.851   4.628  0.1855 -0.6896  0.5056
 5565SOL    HW117015   5.509   4.752   4.636 -2.7606 -1.3270 -1.6697
 5565SOL    HW217016   5.411   4.878   4.670  0.6824  0.9004  0.5519
 5566SOL     OW17017   2.430   4.578   2.528  0.7446 -0.4707  0.2220
 5566SOL    HW117018   2.386   4.654   2.479  1.8766  0.4054  0.5334
 5566SOL    HW217019   2.364   4.503   2.539  0.1298 -0.2566 -1.6610
 5567SOL     OW17020   5.060   5.395   3.583 -0.0294 -0.7088 -0.4815
 5567SOL    HW117021   5.130   5.463   3.561 -0.3036  0.0237  0.7638
 5567SOL    HW217022   5.095   5.303   3.568  1.5204 -0.3943  0.9080
 5568SOL     OW17023   3.743   4.459   5.083 -0.3882  0.0422  0.0913
 5568SOL    HW117024   3.739   4.506   4.995  1.0254  1.0742  0.5516
 5568SOL    HW217025   3.661   4.479   5.136 -0.0933  1.4987  0.0202
 5569SOL     OW17026   5.433   4.832   0.418  0.8276  0.2955  0.0206
 5569SOL    HW117027   5.485   4.746   0.421 -0.4618 -0.5326 -0.5498
 5569SOL    HW217028   5.402   4.854   0.511  2.1108  0.7692  0.3581
 5570SOL     OW17029   4.118   4.164   4.357 -0.8950 -0.1788 -0.1672
 5570SOL    HW117030   4.059   4.102   4.305 -1.5807 -1.3463  1.8926
 5570SOL    HW217031   4.063   4.213   4.425 -0.1783  1.9730 -1.0518
 5571SOL     OW17032   0.320   0.407  -0.024 -0.0187 -0.2753 -0.1484
 5571SOL    HW117033   0.384   0.369   0.043  0.2949  1.7968  0.8369
 5571SOL    HW217034   0.254   0.465   0.024 -0.7341  0.0385 -1.4886
 5572SOL     OW17035   3.703   0.438   4.491  0.5946 -0.1611 -0.3480
 5572SOL    HW117036   3.639   0.495   4.440 -2.3469 -2.1599  0.8571
 5572SOL    HW217037   3.773   0.496   4.533 -0.6874  2.2058 -1.3096
 5573SOL     OW17038   4.945   3.672   5.367  0.0370  0.0366 -0.1090
 5573SOL    HW117039   4.989   3.682   5.456 -0.0599  1.3119 -0.1835
 5573SOL    HW217040   4.878   3.598   5.371  0.6359 -0.4793  0.6245
 5574SOL     OW17041   5.236   3.842   4.547  0.1519  0.0605 -0.2393
 5574SOL    HW117042   5.225   3.759   4.491  0.9867  0.2903 -0.7544
 5574SOL    HW217043   5.161   3.847   4.613 -1.3881  0.2582 -1.9343
 5575SOL     OW17044   3.178   4.382   4.753 -0.0499 -0.1744 -0.0569
 5575SOL    HW117045   3.259   4.334   4.785  0.1773  1.2167  1.6322
 5575SOL    HW217046   3.201   4.479   4.737 -1.5307  0.4451  1.3049
 5576SOL     OW17047   4.509   4.214   0.167 -0.3343 -0.5140  0.4094
 5576SOL    HW117048   4.427   4.170   0.131  0.2113 -1.2662  0.0598
 5576SOL    HW217049   4.590   4.168   0.132  0.2536  0.3825  0.5399
 5577SOL     OW17050   4.751   3.819   1.076  0.2917  0.4438 -0.0456
 5577SOL    HW117051   4.757   3.828   1.176 -1.7183  1.1218  0.0607
 5577SOL    HW217052   4.663   3.857   1.045  0.5086 -0.5594 -1.9787
 5578SOL     OW17053   4.845   0.302   3.973 -0.2883  0.0204 -0.6214
 5578SOL    HW117054   4.912   0.257   3.915 -1.5547 -1.9030 -0.6844
 5578SOL    HW217055   4.756   0.302   3.928 -1.0977 -0.6765  0.8960
 5579SOL     OW17056   3.769   0.238   4.655 -0.3159  0.3267  0.6901
 5579SOL    HW117057   3.747   0.297   4.577 -1.9957 -0.1833  0.7310
 5579SOL    HW217058   3.809   0.293   4.728  2.6962  0.5920 -1.0115
 5580SOL     OW17059   3.464   3.811   5.226  0.0459  0.1447 -1.0423
 5580SOL    HW117060   3.404   3.774   5.155 -0.4121 -1.1234 -0.0170
 5580SOL    HW217061   3.542   3.749   5.240  0.5307  0.7644 -0.9439
 5581SOL     OW17062   5.422   4.537   3.058 -0.0944  0.2526  0.0997
 5581SOL    HW117063   5.339   4.484   3.075 -0.0943  0.6426  1.3879
 5581SOL    HW217064   5.455   4.517   2.966 -2.2041  0.8769 -0.8770
 5582SOL     OW17065   4.678   5.091   4.356  0.2608  0.1949  0.1080
 5582SOL    HW117066   4.613   5.059   4.287 -0.0245  0.0271  0.4479
 5582SOL    HW217067   4.632   5.094   4.445  0.9940 -0.9367  0.5517
 5583SOL     OW17068   4.403   5.023   0.329 -0.2513  0.1774  0.1752
 5583SOL    HW117069   4.363   5.110   0.301  0.3241  0.7190  0.9626
 5583SOL    HW217070   4.331   4.955   0.344 -0.6218  0.1500 -1.6140
 5584SOL     OW17071   3.768   5.287   3.518  0.7011  0.7872  0.3964
 5584SOL    HW117072   3.684   5.336   3.497 -0.4633 -1.4439 -0.4475
 5584SOL    HW217073   3.804   5.245   3.435  0.7534 -1.0993  1.3288
 5585SOL     OW17074   4.344   0.148   5.335 -0.0849  0.8643 -0.1764
 5585SOL    HW117075   4.299   0.089   5.402  0.4172 -0.1302 -0.6913
 5585SOL    HW217076   4.443   0.149   5.352  0.1592 -0.1080 -1.4203
 5586SOL     OW17077   5.447   5.181   5.038 -0.4305 -0.8025  0.4664
 5586SOL    HW117078   5.474   5.093   5.000 -2.5353 -1.9486  1.4310
 5586SOL    HW217079   5.358   5.207   5.000  0.6756  1.5738 -0.7343
 5587SOL     OW17080   4.624   3.811   4.075 -0.1331 -0.2901  0.1662
 5587SOL    HW117081   4.540   3.841   4.029 -0.3681 -1.6309 -0.3119
 5587SOL    HW217082   4.621   3.712   4.091  0.9076 -0.1989  1.1003
 5588SOL     OW17083   5.431   5.469   4.429 -0.4056  0.3868 -0.0076
 5588SOL    HW117084   5.353   5.499   4.373  0.7775  0.1070 -1.8763
 5588SOL    HW217085   5.418   5.501   4.523 -2.6211  0.5967 -0.3284
 5589SOL     OW17086   3.423   5.355   4.301  0.8152 -0.0962  0.2382
 5589SOL    HW117087   3.416   5.256   4.301 -0.1133 -0.0568  1.3827
 5589SOL    HW217088   3.345   5.394   4.350  1.3812  1.1850  0.1693
 5590SOL     OW17089   3.960   4.843   3.441  0.2680  0.4506  0.3222
 5590SOL    HW117090   3.933   4.865   3.535 -2.4535  0.3570 -0.3562
 5590SOL    HW217091   3.932   4.918   3.381  1.7410  0.3830 -0.4866
 5591SOL     OW17092   4.174   4.840   5.144  0.0507  0.1303 -0.5385
 5591SOL    HW117093   4.136   4.794   5.063  1.1957 -1.3162 -0.2949
 5591SOL    HW217094   4.125   4.927   5.159 -1.9749 -0.8218 -1.2080
 5592SOL     OW17095   3.647   3.733   3.823  0.0777 -0.7717  0.8616
 5592SOL    HW117096   3.647   3.808   3.889 -2.2500 -0.7584  0.9290
 5592SOL    HW217097   3.700   3.760   3.742 -1.6690  1.5137  0.3611
 5593SOL     OW17098   4.945   5.341   3.824  0.1643 -0.1603 -0.2935
 5593SOL    HW117099   5.013   5.378   3.762  0.2219 -0.6627 -0.5339
 5593SOL    HW217100   4.942   5.242   3.815 -1.2564 -0.0844 -0.9706
 5594SOL     OW17101   4.388   4.131   5.481 -0.1537  0.2655  0.0916
 5594SOL    HW117102   4.413   4.041   5.444  0.3105  0.0063  1.0298
 5594SOL    HW217103   4.335   4.119   5.565 -1.0478  0.8633 -0.3681
 5595SOL     OW17104   0.047   3.148   2.851  0.3808  0.3328  0.5308
 5595SOL    HW117105   0.029   3.104   2.939 -0.1194 -0.3250  0.1098
 5595SOL    HW217106   0.145   3.163   2.841  0.4063  0.7895  1.3746
 5596SOL     OW17107   0.246   3.253   4.219 -0.1335 -0.1134  0.0548
 5596SOL    HW117108   0.236   3.160   4.253 -0.5071 -0.2160 -0.3347
 5596SOL    HW217109   0.326   3.296   4.262  1.2562 -1.2853 -1.2221
 5597SOL     OW17110   0.453   3.532   3.695 -0.1894 -0.0803 -0.1627
 5597SOL    HW117111   0.388   3.602   3.724 -1.3287 -1.1110 -0.1534
 5597SOL    HW217112   0.545   3.571   3.694 -0.7744  1.3723 -0.0491
 5598SOL     OW17113   3.703   4.769   3.072 -0.0898  0.1349 -0.5160
 5598SOL    HW117114   3.607   4.743   3.083  0.5422 -1.5218  1.8013
 5598SOL    HW217115   3.709   4.863   3.039 -2.4842  0.2734 -0.6995
 5599SOL     OW17116   5.076   0.537   4.297 -0.3069  0.1307  0.4146
 5599SOL    HW117117   5.106   0.591   4.376  0.2791  1.0288 -0.4150
 5599SOL    HW217118   5.156   0.495   4.253 -0.5719  0.1205 -0.0628
 5600NA      NA17119   1.187   0.902   3.848 -0.1349 -0.0598 -0.0753
 5601NA      NA17120   5.348   0.867   2.644  0.3146  0.2080 -0.0727
 5602NA      NA17121   0.940   2.564   0.855 -0.1139  0.2797  0.1452
 5603NA      NA17122   5.384   3.257   5.577 -0.0480  0.3405 -0.0218
 5604NA      NA17123   1.732   3.648   1.821  0.0939 -0.2815  0.0136
 5605NA      NA17124   0.082   5.138   3.070  0.2286 -0.3061  0.5900
 5606NA      NA17125   0.865   4.748   1.812  0.0997  0.0306  0.0329
 5607NA      NA17126   5.392   4.550   5.401  0.5224 -0.2142 -0.1949
 5608NA      NA17127   2.789   3.934   2.899 -0.2679 -0.2769  0.5372
 5609NA      NA17128   1.754   4.643   5.098 -0.2647 -0.5743 -0.1830
 5610NA      NA17129   4.631   1.615   3.982 -0.1317 -0.4476  0.0856
 5611NA      NA17130   4.957   5.381   4.060  0.3870 -0.1790 -0.0427
 5612NA      NA17131   0.939   2.225   2.940 -0.2432  0.2622  0.0298
 5613NA      NA17132   5.334   2.325   4.493  0.4723 -0.1151 -0.2321
 5614NA      NA17133   4.169   5.375   0.852 -0.1954  0.6333  0.1576
 5615NA      NA17134   5.187   3.617   2.868  0.3106 -0.3808 -0.4256
 5616CL      CL17135   5.562   1.936   0.825 -0.2068 -0.0763 -0.0951
 5617CL      CL17136   5.295   4.243   1.656 -0.1787 -0.4623  0.0509
 5618CL      CL17137   1.301   5.219   2.861 -0.1969  0.3052  0.0451
 5619CL      CL17138   0.458   3.984   3.546 -0.2471 -0.1982 -0.0228
 5620CL      CL17139   2.586   1.486   3.612 -0.0594  0.1372 -0.4197
 5621CL      CL17140   2.396   0.607   3.973  0.3931  0.2232  0.3381
 5622CL      CL17141   2.807   2.917   5.412 -0.1054 -0.2083  0.2759
 5623CL      CL17142   3.151   4.224   2.932  0.1174 -0.1655 -0.2109
 5624CL      CL17143   4.274   5.549   0.009 -0.0365  0.3829  0.1205
 5625CL      CL17144   5.455   0.598   4.286 -0.1652  0.1137 -0.0471
 5626CL      CL17145   5.382   0.587   0.223 -0.0202  0.2768  0.1012
 5627CL      CL17146   0.085   3.523   0.412 -0.2939 -0.6152 -0.0762
 5628CL      CL17147   5.331   4.042   0.536  0.1832  0.1729  0.0422
 5629CL      CL17148   4.332   3.543   2.765  0.6571 -0.3853 -0.4200
 5630CL      CL17149   4.712   1.957   4.249  0.4749 -0.2894 -0.4191
 5631CL      CL17150   4.156   3.780   0.689 -0.1029 -0.1159 -0.0075
   5.59418   5.59418   5.59418
